FOO
138240
    1MOL0     O    1   4.394   5.882   4.667 -0.0730 -0.1985  0.0357
    1MOL0     C    2   4.310   5.924   4.749  0.5651 -0.5218 -1.3266
    1MOL0     O    3   4.320   5.914   4.883  0.4275 -0.5339  0.2648
    1MOL0     C    4   4.421   5.828   4.918 -0.0223  0.3281 -0.3936
    1MOL0     C    5   4.401   5.708   4.993  0.9154  0.0750 -0.1131
    1MOL0     C    6   4.507   5.633   5.033 -0.4562 -0.7678  0.0968
    1MOL0     C    7   4.638   5.675   5.009 -0.2363  0.3462 -0.6918
    1MOL0     O    8   4.737   5.592   5.062  0.3754 -0.7090  0.7909
    1MOL0     C    9   4.868   5.617   5.024  0.0317  0.3640 -0.1927
    1MOL0     C   10   4.942   5.526   5.125 -0.4284  0.3345 -1.1030
    1MOL0     C   11   5.085   5.480   5.070 -0.0749 -0.2638 -0.0701
    1MOL0     C   12   5.139   5.364   5.165  0.1878 -0.1203 -0.3572
    1MOL0     C   13   5.295   5.333   5.153 -0.0376 -0.6890 -0.3911
    1MOL0     C   14   5.371   5.446   5.230  0.1223 -0.5217  0.6642
    1MOL0     C   15   5.526   5.443   5.221 -0.3435 -0.4314 -0.4715
    1MOL0     C   16   5.569   5.309   5.280  0.2224 -0.6467  1.1163
    1MOL0     N   17   5.714   5.299   5.288 -0.3391  0.0966 -0.3128
    1MOL0     C   18   5.783   5.362   5.385 -0.1425  0.3277  0.2136
    1MOL0     C   19   5.917   5.342   5.358  0.3724 -0.7124  0.2825
    1MOL0     C   20   6.032   5.374   5.457  0.0532  0.7906  0.7603
    1MOL0     C   21   6.170   5.320   5.429 -0.1291 -0.7220  0.4597
    1MOL0     C   22   6.235   5.247   5.547  0.3023 -0.3344  0.0814
    1MOL0     C   23   6.380   5.232   5.514  0.1767  0.0551 -0.7871
    1MOL0     O   24   6.456   5.154   5.600 -0.4301  0.3575  0.3717
    1MOL0     C   25   6.587   5.128   5.558 -0.8085 -1.3929  0.5251
    1MOL0     C   26   6.652   5.198   5.448  0.1683 -0.4426 -0.0512
    1MOL0     C   27   6.784   5.159   5.411 -0.1375 -0.3370  0.4394
    1MOL0     C   28   6.855   5.065   5.491 -0.7889  0.2331  0.5990
    1MOL0     C   29   6.996   5.055   5.453  0.0484 -0.6938  0.1649
    1MOL0     O   30   7.052   5.142   5.377  0.3257 -0.1919 -0.7917
    1MOL0     C   31   7.181   5.130   5.350 -0.1802 -0.3922 -0.3884
    1MOL0     C   32   7.221   5.147   5.219  0.7945 -0.2699  0.5244
    1MOL0     C   33   7.356   5.147   5.185  0.2518  0.6349 -0.7061
    1MOL0     C   34   7.453   5.121   5.278  0.5918  0.4828  0.5143
    1MOL0     O   35   7.586   5.105   5.243 -0.5722  0.0830 -0.4821
    1MOL0     C   36   7.678   5.137   5.349 -0.0663 -0.4770 -0.0753
    1MOL0     C   37   7.828   5.120   5.307  0.5436  0.5304  0.5839
    1MOL0     C   38   7.862   5.253   5.238 -1.1953  0.7844  0.1653
    1MOL0     C   39   7.996   5.232   5.167 -0.0119  0.8965 -0.3675
    1MOL0     C   40   8.057   5.347   5.093  1.2336  0.0643  0.8184
    1MOL0     C   41   8.199   5.315   5.041 -0.9310 -0.2552  0.3952
    1MOL0     C   42   8.244   5.428   4.946 -0.4681  0.4991  0.4442
    1MOL0     C   43   8.367   5.383   4.865 -0.1117 -0.1983 -0.4940
    1MOL0    Cl   44   8.510   5.374   4.968  0.0447  0.1787  0.5008
    1MOL0     C   45   7.410   5.096   5.416 -0.5229 -0.0926  0.6189
    1MOL0     C   46   7.278   5.109   5.457  0.8196 -0.5106 -0.2310
    1MOL0     O   47   7.049   4.964   5.512 -0.2701  0.0622 -0.0116
    1MOL0     C   48   6.793   4.994   5.586 -0.4379 -0.1041  0.1412
    1MOL0     C   49   6.662   5.032   5.626 -0.2176 -0.8149 -0.1127
    1MOL0     N   50   5.919   5.295   5.231 -0.5185 -0.4015  0.0055
    1MOL0     N   51   5.799   5.271   5.185  0.3274  0.4454  0.4302
    1MOL0     C   52   4.663   5.795   4.943 -0.2747 -0.0149  0.3958
    1MOL0     C   53   4.555   5.870   4.901 -0.7681  0.0078 -0.4284
    1MOL0     C   54   4.181   5.992   4.700 -0.1062  0.1249  0.1718
    1MOL0     C   55   4.129   6.095   4.779 -0.5081  0.4029  0.8136
    1MOL0     C   56   4.004   6.152   4.751 -0.3005  0.0790 -0.8428
    1MOL0     C   57   3.931   6.092   4.648  0.1010 -0.1804 -0.3102
    1MOL0     O   58   3.808   6.139   4.598  0.1033 -0.3011 -0.6020
    1MOL0     C   59   3.744   6.251   4.677 -0.0405  0.2207  0.2611
    1MOL0     C   60   3.616   6.299   4.612 -0.2399  0.2270 -0.0813
    1MOL0     C   61   3.538   6.407   4.695  0.3080 -0.1010  0.6703
    1MOL0     C   62   3.449   6.351   4.806 -0.8188 -0.3756  0.4554
    1MOL0     C   63   3.341   6.265   4.753  0.3490  0.2085  0.1149
    1MOL0     C   64   3.241   6.208   4.704 -0.2934  0.8743 -0.9575
    1MOL0     C   65   3.986   5.990   4.560  0.5558  0.9214  0.5094
    1MOL0     C   66   4.118   5.945   4.589  0.5126 -0.6439 -0.4982
    1MOL0     C   67   4.169   5.842   4.498  0.3841 -1.5372  0.1185
    1MOL0     H   68   4.302   5.666   5.006  2.1855 -3.5128 -0.7429
    1MOL0     H   69   4.498   5.537   5.084  1.5283 -1.2040 -0.2928
    1MOL0     H   70   4.887   5.590   4.920  2.4139 -1.7922  0.6855
    1MOL0     H   71   4.895   5.723   5.035  1.5021 -0.1329  1.7694
    1MOL0     H   72   4.876   5.440   5.142 -0.1212  0.3885  0.6160
    1MOL0     H   73   4.949   5.565   5.227  0.0023 -1.2591 -0.4927
    1MOL0     H   74   5.161   5.559   5.063  0.8730 -1.2537 -1.3875
    1MOL0     H   75   5.075   5.427   4.975 -0.7491 -0.0147 -0.1399
    1MOL0     H   76   5.121   5.400   5.267  1.6389  2.2260 -0.8569
    1MOL0     H   77   5.081   5.274   5.142  1.4456 -0.2806 -3.3765
    1MOL0     H   78   5.316   5.237   5.200  0.8828 -2.9214 -4.8408
    1MOL0     H   79   5.329   5.325   5.049 -0.3530  2.7482 -0.8798
    1MOL0     H   80   5.341   5.540   5.183 -1.7042 -1.0125  0.7825
    1MOL0     H   81   5.342   5.449   5.336 -0.6848 -1.7463  0.4908
    1MOL0     H   82   5.566   5.522   5.284 -2.3952  2.2119 -2.2764
    1MOL0     H   83   5.575   5.453   5.124  1.0395 -1.6935  0.0599
    1MOL0     H   84   5.524   5.313   5.379 -2.0366  1.4707  0.1256
    1MOL0     H   85   5.521   5.234   5.217 -0.8192  1.7463 -1.1345
    1MOL0     H   86   5.752   5.415   5.475  3.0390 -0.3045  1.8293
    1MOL0     H   87   6.042   5.482   5.471 -0.7223  1.3535 -2.3425
    1MOL0     H   88   5.998   5.330   5.552  1.8488  0.7231  1.4211
    1MOL0     H   89   6.149   5.241   5.357 -1.4209 -1.9663  2.1092
    1MOL0     H   90   6.231   5.403   5.392 -1.8889 -0.9922 -3.5335
    1MOL0     H   91   6.182   5.153   5.568 -1.4543  1.0973  2.4330
    1MOL0     H   92   6.217   5.310   5.635 -0.9959 -3.0979  1.9460
    1MOL0     H   93   6.422   5.332   5.522  3.1483 -0.9654 -1.9607
    1MOL0     H   94   6.382   5.197   5.410 -0.3376  1.8643 -1.4468
    1MOL0     H   95   6.595   5.273   5.395 -1.3657 -2.0909 -0.8534
    1MOL0     H   96   6.824   5.217   5.329 -1.6860 -1.3641 -1.1180
    1MOL0     H   97   7.152   5.173   5.140  1.8258  0.1907 -0.2554
    1MOL0     H   98   7.390   5.140   5.082  3.7029 -0.3859  0.3595
    1MOL0     H   99   7.658   5.239   5.383  2.2012 -0.5335  1.7106
    1MOL0     H  100   7.676   5.068   5.434 -0.7761 -0.9256 -0.4487
    1MOL0     H  101   7.898   5.097   5.387  2.1411  0.4344 -0.7917
    1MOL0     H  102   7.829   5.030   5.245  0.9573 -0.1231  1.5333
    1MOL0     H  103   7.781   5.286   5.171 -0.5404 -0.2745 -1.2061
    1MOL0     H  104   7.880   5.335   5.307  1.8438  1.1671 -0.9467
    1MOL0     H  105   7.980   5.144   5.103  0.1276 -3.1324  4.5366
    1MOL0     H  106   8.066   5.208   5.248  0.3864  5.4012  0.9042
    1MOL0     H  107   8.067   5.436   5.156  1.0051  0.3078  0.5189
    1MOL0     H  108   7.996   5.369   5.005 -2.4094 -0.4520  3.0034
    1MOL0     H  109   8.274   5.305   5.120  1.1182  2.4324 -1.0372
    1MOL0     H  110   8.196   5.220   4.988  3.6998 -0.8839  0.8293
    1MOL0     H  111   8.267   5.519   5.001  1.5981 -0.6601  1.6105
    1MOL0     H  112   8.161   5.445   4.876  0.0048 -0.6395 -0.4307
    1MOL0     H  113   8.330   5.289   4.825  0.4507 -0.7270  0.2099
    1MOL0     H  114   8.388   5.455   4.785  0.9318  0.7765  0.6176
    1MOL0     H  115   7.487   5.064   5.486 -0.2566  0.3961  0.5557
    1MOL0     H  116   7.246   5.087   5.559  2.7528  0.6991  0.7046
    1MOL0     H  117   6.843   4.914   5.641 -1.5397 -0.6293  0.4150
    1MOL0     H  118   6.611   4.983   5.708  1.2718  1.2189  2.1626
    1MOL0     H  119   4.763   5.831   4.926 -0.0093 -0.3451  1.2422
    1MOL0     H  120   4.576   5.969   4.862 -0.4879 -0.5594 -1.7909
    1MOL0     H  121   4.185   6.134   4.864 -0.8885  0.7698  0.8975
    1MOL0     H  122   3.954   6.228   4.810  1.6388 -0.5474  1.8174
    1MOL0     H  123   3.818   6.329   4.698  1.1327 -0.4080 -1.3167
    1MOL0     H  124   3.725   6.210   4.777  0.4051  3.6014  1.8871
    1MOL0     H  125   3.563   6.207   4.587  0.0356  0.3861 -1.3622
    1MOL0     H  126   3.647   6.349   4.519 -0.9952  2.8280  0.9797
    1MOL0     H  127   3.470   6.466   4.633 -0.1526  0.0267  1.2861
    1MOL0     H  128   3.608   6.473   4.747  1.0532 -0.3097 -0.0390
    1MOL0     H  129   3.506   6.295   4.881 -0.1061  2.2091  1.9941
    1MOL0     H  130   3.407   6.434   4.864 -0.9760 -1.5241  2.0530
    1MOL0     H  131   3.153   6.169   4.657 -4.1507  0.7233  5.3333
    1MOL0     H  132   3.934   5.941   4.478  0.2228  1.3760  0.4481
    1MOL0     H  133   4.104   5.819   4.414  0.8311  0.7194 -0.9426
    1MOL0     H  134   4.258   5.882   4.449 -0.9825  0.4013 -0.9116
    1MOL0     H  135   4.198   5.747   4.542  0.8950 -1.7170 -0.5944
    2MOL0     O  136   9.316   8.888  10.576  0.5983  0.0940  0.3921
    2MOL0     C  137   9.307   8.777  10.632 -0.2814  0.0451 -0.2845
    2MOL0     O  138   9.206   8.738  10.717 -1.1762 -0.4084  0.6042
    2MOL0     C  139   9.098   8.820  10.738  0.0508  0.8014  0.1156
    2MOL0     C  140   9.087   8.960  10.739  0.2186  0.0858 -0.6031
    2MOL0     C  141   8.956   9.017  10.760  0.2759 -0.2837 -0.2131
    2MOL0     C  142   8.839   8.940  10.784 -0.2270 -0.3187  0.3815
    2MOL0     O  143   8.713   8.985  10.812  0.5953 -0.2445  0.4962
    2MOL0     C  144   8.658   9.096  10.734  0.0390 -0.0751 -0.5972
    2MOL0     C  145   8.518   9.128  10.772  0.8173 -0.1486 -0.0601
    2MOL0     C  146   8.426   9.016  10.719  0.4635 -0.1882 -0.0091
    2MOL0     C  147   8.283   9.059  10.726  0.3794 -0.5825 -0.7143
    2MOL0     C  148   8.188   8.939  10.722 -0.2711 -0.7379 -0.6719
    2MOL0     C  149   8.045   8.979  10.676  0.1003 -0.0940  0.3132
    2MOL0     C  150   7.933   8.871  10.671  0.1646 -0.3701  0.9330
    2MOL0     C  151   7.902   8.812  10.813  0.3763  0.3573  0.1862
    2MOL0     N  152   7.937   8.672  10.825  0.4732  0.2866 -0.0322
    2MOL0     C  153   8.046   8.629  10.902 -0.0728  0.7998  0.5611
    2MOL0     C  154   8.038   8.493  10.903  0.2647 -0.4308 -0.2261
    2MOL0     C  155   8.120   8.410  10.989 -0.4111  0.1737 -0.4664
    2MOL0     C  156   8.253   8.357  10.934  0.6878  0.0397 -0.2182
    2MOL0     C  157   8.226   8.253  10.826  0.8634 -0.7986 -0.3009
    2MOL0     C  158   8.349   8.204  10.760 -0.6063  0.5228  0.4254
    2MOL0     O  159   8.453   8.178  10.857  0.1692  0.1168  0.2053
    2MOL0     C  160   8.584   8.161  10.804  0.3838 -0.1743  0.2737
    2MOL0     C  161   8.687   8.170  10.897  0.7931  0.3996  0.3508
    2MOL0     C  162   8.819   8.143  10.870 -0.6958 -0.2911 -0.5105
    2MOL0     C  163   8.853   8.118  10.736 -0.8850 -0.1599 -0.1680
    2MOL0     C  164   8.996   8.115  10.701 -0.0846  0.0295  0.2407
    2MOL0     O  165   9.019   8.091  10.567 -0.5567 -0.2339 -0.2472
    2MOL0     C  166   9.134   8.134  10.505 -0.1018  0.2577  0.6612
    2MOL0     C  167   9.130   8.164  10.366  0.2259  0.3081 -0.7328
    2MOL0     C  168   9.249   8.198  10.301 -0.0982  0.9245 -0.1408
    2MOL0     C  169   9.376   8.196  10.359 -0.1408 -0.0195 -0.4694
    2MOL0     O  170   9.496   8.219  10.304  0.4352  0.5553  0.2830
    2MOL0     C  171   9.495   8.230  10.162 -0.9897  0.8405 -0.0964
    2MOL0     C  172   9.639   8.205  10.106  0.3189 -0.9314  0.5726
    2MOL0     C  173   9.719   8.331  10.100 -0.0103  0.1682  0.3302
    2MOL0     C  174   9.865   8.317  10.045  0.0951 -0.0098 -0.1512
    2MOL0     C  175   9.861   8.273   9.897  0.7146 -0.2438  0.1981
    2MOL0     C  176   9.996   8.252   9.821 -0.0902 -0.0818  0.3291
    2MOL0     C  177  10.091   8.368   9.826 -0.4814 -0.0204 -0.3737
    2MOL0     C  178  10.026   8.500   9.770 -1.0006  0.1205 -0.5960
    2MOL0    Cl  179  10.146   8.622   9.750  0.2487  0.3484  0.6466
    2MOL0     C  180   9.380   8.142  10.496 -0.2565 -0.7452 -0.3869
    2MOL0     C  181   9.266   8.118  10.563 -0.5566  0.2138  0.3616
    2MOL0     O  182   9.075   8.169  10.775  0.0653 -0.0707 -0.2472
    2MOL0     C  183   8.751   8.123  10.638  0.2721  0.8279 -0.3333
    2MOL0     C  184   8.618   8.148  10.669  0.4011 -0.0212  0.5177
    2MOL0     N  185   7.922   8.459  10.837  0.2566 -0.0650  0.2744
    2MOL0     N  186   7.861   8.567  10.793  1.1429 -0.2980 -0.0666
    2MOL0     C  187   8.857   8.807  10.790  0.3659 -0.5128 -0.1047
    2MOL0     C  188   8.982   8.751  10.769 -0.0870  0.4568 -0.6132
    2MOL0     C  189   9.415   8.681  10.614  0.9784  0.3226 -0.7588
    2MOL0     C  190   9.544   8.739  10.594  0.2978  0.2669  0.3985
    2MOL0     C  191   9.655   8.656  10.574  0.3232  0.1641 -0.3895
    2MOL0     C  192   9.642   8.520  10.581  0.0356 -0.2240 -1.1722
    2MOL0     O  193   9.757   8.454  10.546  0.4007  0.5515 -0.3558
    2MOL0     C  194   9.753   8.312  10.560  0.5449 -1.0971 -0.2883
    2MOL0     C  195   9.790   8.265  10.699  0.0489  0.2956  0.2622
    2MOL0     C  196   9.807   8.111  10.704  0.5422 -0.1602  0.2910
    2MOL0     C  197   9.876   8.080  10.838  0.0348 -0.5361 -0.4852
    2MOL0     C  198   9.931   7.952  10.844 -0.4590  0.4029  0.4490
    2MOL0     C  199   9.972   7.843  10.862  0.4300  0.2752  0.9182
    2MOL0     C  200   9.513   8.468  10.609 -0.3265 -0.4949  0.3444
    2MOL0     C  201   9.396   8.546  10.627 -0.5575 -0.7334  0.4290
    2MOL0     C  202   9.262   8.478  10.638 -0.1754  0.8711 -0.1740
    2MOL0     H  203   9.170   9.029  10.726  1.3585 -1.2436 -0.6062
    2MOL0     H  204   8.948   9.125  10.760  2.5004 -0.0721  0.8713
    2MOL0     H  205   8.715   9.187  10.751  0.5998 -0.1377 -1.9866
    2MOL0     H  206   8.674   9.073  10.628  1.1456 -0.0759 -0.4345
    2MOL0     H  207   8.497   9.225  10.726 -2.2095  0.7155  2.7885
    2MOL0     H  208   8.501   9.134  10.879 -0.7274 -5.0134  0.1968
    2MOL0     H  209   8.448   8.931  10.784 -1.5582  0.4846  1.6603
    2MOL0     H  210   8.448   8.981  10.617 -3.4166 -0.1060 -1.0363
    2MOL0     H  211   8.258   9.130  10.805 -0.3528  3.8205 -4.4896
    2MOL0     H  212   8.271   9.121  10.637 -0.5908  1.7959  0.9913
    2MOL0     H  213   8.232   8.875  10.645  1.5032 -1.5589  0.9388
    2MOL0     H  214   8.193   8.891  10.820 -0.7261  1.3706  0.4416
    2MOL0     H  215   8.002   9.060  10.736  0.8954 -0.9905  2.1955
    2MOL0     H  216   8.059   9.023  10.577 -0.2216  2.3219  1.2847
    2MOL0     H  217   7.962   8.788  10.606  0.1026 -1.2214  1.9665
    2MOL0     H  218   7.837   8.907  10.632 -0.7535 -4.0095 -0.5973
    2MOL0     H  219   7.960   8.870  10.886  1.7195 -0.1184 -0.4759
    2MOL0     H  220   7.793   8.826  10.820  0.2024 -0.6898 -0.2192
    2MOL0     H  221   8.135   8.683  10.934  2.6486 -1.6966 -2.1904
    2MOL0     H  222   8.142   8.470  11.077 -1.2922  1.1672 -0.8948
    2MOL0     H  223   8.057   8.327  11.020  0.5554 -0.3013  0.2754
    2MOL0     H  224   8.312   8.440  10.894 -2.8469  1.3094 -3.3097
    2MOL0     H  225   8.318   8.318  11.014  1.6475  2.8160  0.4788
    2MOL0     H  226   8.159   8.296  10.751 -0.3992  0.0473  1.2625
    2MOL0     H  227   8.168   8.170  10.868 -0.6529  0.1533 -0.4535
    2MOL0     H  228   8.382   8.288  10.698  0.5301  1.3984  2.1553
    2MOL0     H  229   8.319   8.123  10.692 -1.7030  2.7139 -1.8578
    2MOL0     H  230   8.672   8.201  11.000  3.2085 -0.6346  1.0858
    2MOL0     H  231   8.897   8.160  10.943  1.2047  1.0370 -2.6875
    2MOL0     H  232   9.036   8.160  10.313 -0.1764  0.7001 -0.0626
    2MOL0     H  233   9.241   8.226  10.196  0.0053  0.5082 -0.2629
    2MOL0     H  234   9.425   8.162  10.114 -1.1043  0.5108  0.5224
    2MOL0     H  235   9.463   8.330  10.133  1.4294  1.3038 -1.4497
    2MOL0     H  236   9.691   8.125  10.160 -1.1571 -1.4565  1.2822
    2MOL0     H  237   9.620   8.172  10.004 -2.5396 -1.0874  1.0694
    2MOL0     H  238   9.675   8.410  10.038 -1.1938 -1.0805 -0.4540
    2MOL0     H  239   9.717   8.362  10.205  4.2232  3.8772 -0.3456
    2MOL0     H  240   9.926   8.252  10.108 -0.7913 -0.3674  0.3612
    2MOL0     H  241   9.919   8.412  10.051 -0.0451  0.0016  1.2958
    2MOL0     H  242   9.809   8.358   9.851  3.4905  1.4008 -0.1339
    2MOL0     H  243   9.799   8.184   9.881  0.0110  0.4829 -1.2694
    2MOL0     H  244  10.051   8.168   9.864  0.5729  0.8737  1.4199
    2MOL0     H  245   9.981   8.240   9.713  0.3129  4.0759 -0.3746
    2MOL0     H  246  10.176   8.355   9.759 -1.7245  0.2569 -2.0851
    2MOL0     H  247  10.134   8.382   9.925  1.9164 -1.2959 -1.1692
    2MOL0     H  248   9.995   8.470   9.670  2.1835 -0.8673 -1.3824
    2MOL0     H  249   9.948   8.531   9.840  0.1232 -1.4750  1.4497
    2MOL0     H  250   9.475   8.130  10.548 -0.1958 -2.1425 -0.7881
    2MOL0     H  251   9.277   8.067  10.659  0.2603  0.2517  0.2973
    2MOL0     H  252   8.771   8.108  10.533  1.3719 -0.1002 -0.0132
    2MOL0     H  253   8.543   8.147  10.591  0.2141 -2.3118  0.6688
    2MOL0     H  254   8.772   8.741  10.800 -0.8357  0.6764 -1.8793
    2MOL0     H  255   8.992   8.643  10.768  0.6068  0.4999  0.2885
    2MOL0     H  256   9.552   8.845  10.576 -0.7906  0.1075 -1.2872
    2MOL0     H  257   9.751   8.693  10.539  0.2239  0.2628 -0.5618
    2MOL0     H  258   9.818   8.276  10.480 -0.3983 -1.1700 -1.0349
    2MOL0     H  259   9.655   8.272  10.535 -0.3565 -0.0219  1.3766
    2MOL0     H  260   9.707   8.289  10.767  1.7660  0.3203  2.4587
    2MOL0     H  261   9.873   8.323  10.738 -0.0612  0.0704  0.8416
    2MOL0     H  262   9.877   8.094  10.623  0.6231  3.8167 -0.6740
    2MOL0     H  263   9.712   8.058  10.687 -0.4309  2.4297 -3.5399
    2MOL0     H  264   9.961   8.148  10.850  1.4398 -2.0554 -1.5066
    2MOL0     H  265   9.794   8.101  10.908  0.1269 -0.2455 -0.4622
    2MOL0     H  266   9.999   7.741  10.882 -1.2261 -0.8395 -1.8016
    2MOL0     H  267   9.489   8.362  10.606 -0.0167 -0.5613  0.0786
    2MOL0     H  268   9.224   8.460  10.739 -0.1970  0.1521 -0.3076
    2MOL0     H  269   9.182   8.527  10.581 -0.0494  0.4446 -0.7280
    2MOL0     H  270   9.281   8.376  10.603 -1.3018  0.9535 -1.1093
    3MOL0     O  271   8.905   4.397   1.439  0.7235  0.1063  0.0327
    3MOL0     C  272   8.858   4.507   1.458  0.0701  0.4982  0.0378
    3MOL0     O  273   8.913   4.616   1.523  0.8479  0.8675 -0.2339
    3MOL0     C  274   9.042   4.614   1.576 -0.5879 -0.9077  0.8062
    3MOL0     C  275   9.074   4.723   1.657  0.3468  0.0393 -0.6368
    3MOL0     C  276   9.193   4.736   1.728 -0.5694  0.9223 -0.5242
    3MOL0     C  277   9.287   4.634   1.712 -0.4372  0.0924  0.2827
    3MOL0     O  278   9.412   4.616   1.771  0.5277 -0.7762  0.1766
    3MOL0     C  279   9.488   4.725   1.818 -0.1904 -0.2577  0.5429
    3MOL0     C  280   9.641   4.706   1.820 -0.0845  0.0052 -1.4116
    3MOL0     C  281   9.736   4.835   1.844  1.1676  0.8193  0.5351
    3MOL0     C  282   9.747   4.856   1.990 -0.0940 -0.8345 -0.3428
    3MOL0     C  283   9.847   4.963   2.019 -0.2406  0.2066  0.0656
    3MOL0     C  284   9.888   4.970   2.170  0.8921 -1.4300  0.4659
    3MOL0     C  285  10.020   5.047   2.193 -0.7633  0.5799 -0.3637
    3MOL0     C  286  10.034   5.182   2.131 -0.9780  0.2477  0.5112
    3MOL0     N  287  10.090   5.279   2.223  0.3927  0.5402  0.3464
    3MOL0     C  288  10.225   5.311   2.222  0.5077  1.1813  0.0724
    3MOL0     C  289  10.239   5.385   2.336 -0.4182  0.1047 -0.2089
    3MOL0     C  290  10.352   5.470   2.384 -1.0517  0.0734  0.3006
    3MOL0     C  291  10.483   5.397   2.357 -0.0586  0.0621 -0.4207
    3MOL0     C  292  10.604   5.492   2.375  0.1476 -0.1011  0.4928
    3MOL0     C  293  10.636   5.501   2.524  0.1278 -0.1437 -0.4238
    3MOL0     O  294  10.695   5.622   2.559 -0.2259 -0.0051  0.2486
    3MOL0     C  295  10.819   5.649   2.512 -0.3570 -0.5170 -0.7636
    3MOL0     C  296  10.910   5.551   2.457 -0.7375 -0.4792  0.3189
    3MOL0     C  297  11.034   5.588   2.406 -0.4255  0.2284 -0.6432
    3MOL0     C  298  11.088   5.716   2.437  0.2123  0.2875 -0.2762
    3MOL0     C  299  11.224   5.752   2.382  0.1124  0.6315  0.3437
    3MOL0     O  300  11.309   5.841   2.452  0.9909  0.1870  0.6167
    3MOL0     C  301  11.427   5.882   2.403 -0.1874  0.5527  0.0806
    3MOL0     C  302  11.461   5.891   2.272 -0.0684 -0.5821  0.6869
    3MOL0     C  303  11.587   5.944   2.237  0.0999 -0.5741  0.1741
    3MOL0     C  304  11.669   6.002   2.335 -0.1632 -0.7692  0.4476
    3MOL0     O  305  11.787   6.059   2.292  0.6003 -0.8388  0.4176
    3MOL0     C  306  11.885   6.079   2.393 -0.2115 -0.6665 -0.0585
    3MOL0     C  307  12.032   6.102   2.340 -0.2319 -0.7378 -0.6440
    3MOL0     C  308  12.040   6.149   2.195  0.1431 -0.5229 -0.4033
    3MOL0     C  309  12.180   6.205   2.160  0.5872  0.1612 -0.7549
    3MOL0     C  310  12.178   6.284   2.030 -0.7253  0.5729  0.2856
    3MOL0     C  311  12.314   6.335   2.006 -0.0418  0.0447 -0.6202
    3MOL0     C  312  12.331   6.436   1.896  0.7886  0.3344 -0.4488
    3MOL0     C  313  12.475   6.489   1.899  0.1062 -0.3567  0.6596
    3MOL0    Cl  314  12.501   6.646   1.815  0.0383  0.0713  0.1976
    3MOL0     C  315  11.631   6.002   2.470 -0.0119  0.0073  0.0557
    3MOL0     C  316  11.504   5.941   2.503  0.0093 -0.1097 -0.9359
    3MOL0     O  317  11.246   5.697   2.276  0.8294 -0.0222  0.1535
    3MOL0     C  318  10.997   5.810   2.493  0.5458  0.2223  0.1822
    3MOL0     C  319  10.866   5.779   2.534 -0.1194  0.4899 -0.2326
    3MOL0     N  320  10.116   5.399   2.402 -0.3954  0.8993 -0.3423
    3MOL0     N  321  10.033   5.331   2.332 -0.1303 -0.0364  0.1155
    3MOL0     C  322   9.260   4.526   1.621  0.2231 -0.7261  0.6072
    3MOL0     C  323   9.145   4.520   1.543 -0.4358 -0.5559  0.6370
    3MOL0     C  324   8.711   4.535   1.440 -0.2903  0.0832  0.3228
    3MOL0     C  325   8.641   4.634   1.512  0.9473 -1.3673 -0.1976
    3MOL0     C  326   8.500   4.656   1.504  0.3041  0.1832  0.1022
    3MOL0     C  327   8.431   4.587   1.404 -0.6950 -0.2623  0.4479
    3MOL0     O  328   8.304   4.601   1.365 -0.0878 -0.5691  0.4346
    3MOL0     C  329   8.217   4.676   1.446  0.7737 -0.7523 -0.3363
    3MOL0     C  330   8.073   4.665   1.386 -0.2486 -0.4429 -0.3549
    3MOL0     C  331   8.069   4.734   1.252  0.1125  0.0167  0.1346
    3MOL0     C  332   7.933   4.718   1.193  0.0541 -0.2364 -0.4081
    3MOL0     C  333   7.833   4.824   1.238 -0.0363  0.2187 -0.6731
    3MOL0     C  334   7.754   4.896   1.298  0.8910  1.5263 -0.5990
    3MOL0     C  335   8.503   4.496   1.328 -0.5244 -0.5411 -0.7182
    3MOL0     C  336   8.636   4.459   1.348  0.6760  0.5703 -0.4695
    3MOL0     C  337   8.688   4.337   1.267  0.4450  0.1086  0.3414
    3MOL0     H  338   8.993   4.794   1.673 -2.3731 -1.8373 -4.4383
    3MOL0     H  339   9.218   4.817   1.796  0.8119  0.8290 -0.8813
    3MOL0     H  340   9.452   4.817   1.771 -0.2724  0.2016  1.4821
    3MOL0     H  341   9.459   4.732   1.923 -3.2642  3.2202 -0.3266
    3MOL0     H  342   9.659   4.664   1.720 -0.3603 -1.2523 -0.9478
    3MOL0     H  343   9.672   4.633   1.895  0.5963  1.7131  0.0220
    3MOL0     H  344   9.691   4.920   1.793 -2.0345 -0.3491  1.1520
    3MOL0     H  345   9.832   4.807   1.800  0.0908 -1.5348 -0.5290
    3MOL0     H  346   9.648   4.882   2.029 -0.5226  0.9400 -2.4205
    3MOL0     H  347   9.791   4.768   2.037  4.8032  0.7301 -1.3837
    3MOL0     H  348   9.933   4.944   1.955  0.3150 -0.0850  0.8897
    3MOL0     H  349   9.799   5.057   1.991  0.2773  0.1237 -1.1423
    3MOL0     H  350   9.803   5.019   2.219  1.1954  0.5530 -0.8623
    3MOL0     H  351   9.899   4.866   2.202  3.3343 -2.7704 -3.8744
    3MOL0     H  352  10.099   4.977   2.164  0.1598  1.4087  0.1279
    3MOL0     H  353  10.045   5.060   2.299  0.3619  2.6932 -0.8396
    3MOL0     H  354  10.095   5.173   2.040 -0.1561 -0.4504  1.1174
    3MOL0     H  355   9.933   5.210   2.101 -1.2350 -1.2103 -0.0475
    3MOL0     H  356  10.300   5.287   2.147  3.8959  2.6094  2.7209
    3MOL0     H  357  10.355   5.561   2.323  2.4482  0.0011  0.1664
    3MOL0     H  358  10.333   5.478   2.491 -0.8568 -1.7141  0.4890
    3MOL0     H  359  10.478   5.307   2.419  0.1488 -0.0598 -0.5786
    3MOL0     H  360  10.485   5.364   2.253  0.0026 -0.1266 -0.3610
    3MOL0     H  361  10.585   5.590   2.330  0.8444 -0.2439 -0.1365
    3MOL0     H  362  10.696   5.450   2.333 -0.3453 -1.6342  0.8699
    3MOL0     H  363  10.691   5.411   2.554  0.6257 -0.6742 -2.7401
    3MOL0     H  364  10.545   5.503   2.585 -1.7073  0.2547 -2.9841
    3MOL0     H  365  10.887   5.445   2.458  2.0370 -1.1617 -0.5044
    3MOL0     H  366  11.102   5.516   2.363 -0.3353  0.5442 -1.0243
    3MOL0     H  367  11.389   5.862   2.196 -0.0224  0.1122  0.3736
    3MOL0     H  368  11.626   5.929   2.137 -1.9166 -3.1087 -0.3518
    3MOL0     H  369  11.853   6.163   2.455 -1.9557  0.3389 -2.1669
    3MOL0     H  370  11.901   5.991   2.457  2.4695 -1.9439 -2.2643
    3MOL0     H  371  12.070   6.184   2.401 -0.2984 -2.3282  1.6460
    3MOL0     H  372  12.091   6.011   2.351  1.6960  0.6568  1.3554
    3MOL0     H  373  12.016   6.066   2.128  0.8915 -0.5656 -0.6209
    3MOL0     H  374  11.960   6.223   2.181 -0.5199 -0.8848  1.2750
    3MOL0     H  375  12.259   6.129   2.156 -0.1960 -0.6890 -0.3227
    3MOL0     H  376  12.203   6.265   2.249 -1.9997 -0.7036  0.5857
    3MOL0     H  377  12.108   6.368   2.035  0.2154  1.3139  1.3452
    3MOL0     H  378  12.139   6.220   1.950 -1.3283 -0.1076  1.1152
    3MOL0     H  379  12.361   6.369   2.099 -3.1836 -0.2293  1.2138
    3MOL0     H  380  12.377   6.254   1.965 -1.4491 -0.4460 -1.8943
    3MOL0     H  381  12.266   6.523   1.915 -0.6041 -0.0772 -2.8916
    3MOL0     H  382  12.305   6.404   1.795 -0.3028 -0.5518  0.0930
    3MOL0     H  383  12.510   6.508   2.001  1.0617  2.5522 -0.1453
    3MOL0     H  384  12.541   6.409   1.864 -3.8194 -2.8006 -1.9540
    3MOL0     H  385  11.694   6.043   2.548 -0.5229  1.7520 -0.4166
    3MOL0     H  386  11.472   5.949   2.606  0.3842  2.0164 -0.9512
    3MOL0     H  387  11.036   5.911   2.505 -0.2266  1.0932 -3.3385
    3MOL0     H  388  10.801   5.843   2.594  0.3712  0.1613  0.6643
    3MOL0     H  389   9.331   4.445   1.607  3.2341  1.5104  2.0756
    3MOL0     H  390   9.123   4.440   1.473 -1.9087  0.0119  0.4060
    3MOL0     H  391   8.690   4.704   1.578 -2.0470 -0.5898  1.3946
    3MOL0     H  392   8.455   4.735   1.564 -1.3466 -2.9903  3.3958
    3MOL0     H  393   8.237   4.782   1.461 -1.5106 -0.5371  1.6261
    3MOL0     H  394   8.213   4.632   1.546 -1.6810  0.8620  0.3544
    3MOL0     H  395   8.010   4.709   1.464 -0.2537 -0.4233 -0.3699
    3MOL0     H  396   8.042   4.560   1.384  0.8872 -0.8373  1.0164
    3MOL0     H  397   8.119   4.679   1.172 -1.5957  0.2511 -1.1649
    3MOL0     H  398   8.116   4.833   1.247 -1.5840  0.8239 -3.0596
    3MOL0     H  399   7.926   4.738   1.086  0.0116 -2.1002 -0.7904
    3MOL0     H  400   7.892   4.617   1.205 -4.3345  1.5256  1.8607
    3MOL0     H  401   7.674   4.955   1.339  0.7824  0.1910  1.2462
    3MOL0     H  402   8.451   4.455   1.242 -1.7922 -0.1990 -0.1513
    3MOL0     H  403   8.731   4.269   1.341 -1.4494 -0.1161  1.3000
    3MOL0     H  404   8.613   4.275   1.217  0.5045  0.9634 -0.8681
    3MOL0     H  405   8.759   4.359   1.186 -1.4098 -1.1151 -1.7360
    4MOL0     O  406   3.949  10.898  10.963  0.4097  0.2691  0.3032
    4MOL0     C  407   3.872  10.896  11.056 -0.0879 -0.2167  0.2979
    4MOL0     O  408   3.885  10.962  11.174 -0.2755 -0.2404  0.0095
    4MOL0     C  409   4.011  11.002  11.198 -0.2901  0.2145 -0.3610
    4MOL0     C  410   4.026  11.140  11.199  0.3196  0.6921  0.0873
    4MOL0     C  411   4.153  11.187  11.233 -0.5468 -0.7433 -1.2922
    4MOL0     C  412   4.264  11.103  11.259 -0.6342 -0.3149  0.3759
    4MOL0     O  413   4.385  11.163  11.283 -0.2581 -0.2002 -0.7264
    4MOL0     C  414   4.426  11.246  11.181 -0.5916 -0.2741  0.6640
    4MOL0     C  415   4.567  11.286  11.210  0.0324 -0.3119  0.3088
    4MOL0     C  416   4.643  11.310  11.083  0.1461 -0.1941  0.4911
    4MOL0     C  417   4.782  11.356  11.127  0.0593  0.0541 -0.2111
    4MOL0     C  418   4.857  11.390  10.996 -0.6071  0.0989 -0.7671
    4MOL0     C  419   5.003  11.427  11.034  0.7658  0.7011 -0.5609
    4MOL0     C  420   5.107  11.434  10.928 -0.3127 -0.2689  1.0612
    4MOL0     C  421   5.236  11.496  10.979 -0.7027  0.3846  1.6197
    4MOL0     N  422   5.344  11.496  10.878 -0.1584  0.4642 -0.4001
    4MOL0     C  423   5.437  11.391  10.858 -0.0788  0.9283  0.2291
    4MOL0     C  424   5.499  11.422  10.738 -0.3653  0.5363  0.0870
    4MOL0     C  425   5.604  11.342  10.654 -0.0330 -0.4342 -0.1068
    4MOL0     C  426   5.752  11.358  10.711  0.4586  0.4275  0.5593
    4MOL0     C  427   5.849  11.280  10.622 -0.0309 -0.0224  0.6995
    4MOL0     C  428   5.989  11.289  10.681  0.1888 -0.2353  0.8703
    4MOL0     O  429   6.075  11.262  10.568  0.1319 -0.3226  0.3931
    4MOL0     C  430   6.207  11.221  10.594  0.2168  0.4475  0.1077
    4MOL0     C  431   6.295  11.244  10.707  0.6274  0.7322  0.2999
    4MOL0     C  432   6.432  11.212  10.697  0.0326  0.5731 -0.1055
    4MOL0     C  433   6.488  11.149  10.583  0.3598  0.3783  0.3140
    4MOL0     C  434   6.634  11.125  10.570 -0.0653  0.2577  0.4889
    4MOL0     O  435   6.680  11.066  10.460  0.2544  0.1768  0.5554
    4MOL0     C  436   6.815  11.051  10.451  0.1647  0.0499 -0.4251
    4MOL0     C  437   6.883  11.117  10.343  0.5215 -0.4709 -0.2757
    4MOL0     C  438   7.018  11.119  10.325 -0.0814  0.3778  0.2820
    4MOL0     C  439   7.092  11.051  10.422  0.0012  0.9743  0.2682
    4MOL0     O  440   7.229  11.069  10.418  0.6091 -0.4891 -0.7607
    4MOL0     C  441   7.304  11.035  10.532 -0.3976 -0.2954  0.5586
    4MOL0     C  442   7.450  11.095  10.529 -0.4249  0.0619 -0.3955
    4MOL0     C  443   7.537  11.025  10.419  0.5859 -0.3605  0.8362
    4MOL0     C  444   7.673  11.076  10.404  0.1946 -0.3063  0.1293
    4MOL0     C  445   7.755  10.999  10.297 -0.2736  0.4843 -0.5670
    4MOL0     C  446   7.714  11.033  10.156 -0.4635  0.2197 -0.3640
    4MOL0     C  447   7.791  10.959  10.054  1.0751 -0.0109  0.2136
    4MOL0     C  448   7.719  10.835   9.993  0.2246  0.0341 -0.0852
    4MOL0    Cl  449   7.813  10.772   9.852  0.6293  0.3562 -0.2523
    4MOL0     C  450   7.021  10.968  10.520 -0.2072 -0.4107 -0.7682
    4MOL0     C  451   6.890  10.961  10.538  0.5757 -0.2158  0.4449
    4MOL0     O  452   6.700  11.145  10.672  0.2613 -0.4704  0.6011
    4MOL0     C  453   6.407  11.134  10.473 -0.1472 -1.4578 -0.6440
    4MOL0     C  454   6.268  11.169  10.484 -0.2152 -0.4368  0.3525
    4MOL0     N  455   5.454  11.547  10.697  0.2504  0.1797  0.0862
    4MOL0     N  456   5.368  11.594  10.785  0.0791 -0.1387  0.2754
    4MOL0     C  457   4.245  10.965  11.264  0.0574  0.0556  0.5422
    4MOL0     C  458   4.118  10.915  11.227  0.3095 -0.6555  0.0981
    4MOL0     C  459   3.741  10.838  11.031  0.2654  0.9401 -0.7825
    4MOL0     C  460   3.640  10.874  11.125  0.1860 -0.0633 -1.0837
    4MOL0     C  461   3.513  10.831  11.116  0.1685  0.3744 -0.0924
    4MOL0     C  462   3.476  10.732  11.021  0.4788 -0.2444  0.3506
    4MOL0     O  463   3.351  10.670  11.003 -0.3245 -0.3546  0.1292
    4MOL0     C  464   3.230  10.712  11.063 -0.4302 -0.3574  0.3740
    4MOL0     C  465   3.185  10.846  10.999 -0.1188 -1.1421  0.0144
    4MOL0     C  466   3.076  10.832  10.900 -0.0258  0.4158  0.3448
    4MOL0     C  467   3.023  10.963  10.842  0.4838  0.2194 -0.1192
    4MOL0     C  468   2.927  11.009  10.939 -0.5085 -0.0386 -0.3461
    4MOL0     C  469   2.849  11.034  11.023  0.4010 -0.4901  0.4837
    4MOL0     C  470   3.575  10.696  10.934  0.5848  0.0567  0.1787
    4MOL0     C  471   3.709  10.747  10.931 -0.0857 -0.3961 -0.2501
    4MOL0     C  472   3.803  10.707  10.815 -0.1525  0.7357  0.8132
    4MOL0     H  473   3.946  11.209  11.177  0.6563  0.4039 -2.2886
    4MOL0     H  474   4.169  11.293  11.244 -2.1552 -0.2951 -2.8217
    4MOL0     H  475   4.411  11.205  11.081 -1.0340  0.6185  0.3537
    4MOL0     H  476   4.370  11.339  11.189 -1.2509 -0.2097 -3.0012
    4MOL0     H  477   4.615  11.202  11.261 -0.1596 -0.0530  0.9286
    4MOL0     H  478   4.568  11.377  11.271 -0.1162 -1.1683  1.6539
    4MOL0     H  479   4.597  11.390  11.023  1.7319  0.8097  0.5569
    4MOL0     H  480   4.643  11.216  11.028 -0.0029  1.2332 -2.1277
    4MOL0     H  481   4.769  11.445  11.191 -2.0154 -1.5536  1.7751
    4MOL0     H  482   4.840  11.285  11.186  1.5315  0.8356 -0.6602
    4MOL0     H  483   4.864  11.300  10.934 -0.9141  0.6220 -1.5830
    4MOL0     H  484   4.811  11.467  10.934 -1.2576 -1.4935 -2.3858
    4MOL0     H  485   4.987  11.529  11.069  0.8372  1.4299 -2.5404
    4MOL0     H  486   5.037  11.351  11.106  1.9553  4.0770  2.7486
    4MOL0     H  487   5.074  11.504  10.851  1.2409  0.1573  0.7530
    4MOL0     H  488   5.127  11.333  10.891 -0.4083 -0.2917  1.0721
    4MOL0     H  489   5.218  11.600  11.010  0.9626  0.8963  0.9514
    4MOL0     H  490   5.271  11.433  11.061 -0.8248 -0.1442  1.2679
    4MOL0     H  491   5.461  11.294  10.900  0.8487 -0.6019 -3.4697
    4MOL0     H  492   5.572  11.237  10.647  3.5693 -1.6771  0.1520
    4MOL0     H  493   5.594  11.382  10.553 -0.6801 -2.4304 -0.8855
    4MOL0     H  494   5.773  11.466  10.707  0.2687  0.4280 -2.7051
    4MOL0     H  495   5.755  11.323  10.815 -1.5807  0.5183  0.6833
    4MOL0     H  496   5.861  11.325  10.522 -0.5769 -0.9653  0.2008
    4MOL0     H  497   5.828  11.173  10.623  0.1485 -0.1047 -1.0695
    4MOL0     H  498   6.007  11.220  10.763  2.7549  0.8568  1.2980
    4MOL0     H  499   6.000  11.385  10.732 -0.9444  1.1603 -1.3162
    4MOL0     H  500   6.253  11.296  10.792  1.7297 -1.2860  2.1677
    4MOL0     H  501   6.489  11.217  10.789 -0.1553 -2.9035  0.3555
    4MOL0     H  502   6.829  11.189  10.283  2.0038  3.5444  2.7651
    4MOL0     H  503   7.054  11.183  10.245 -0.9804  0.8084  0.2130
    4MOL0     H  504   7.250  11.083  10.614  0.2187 -0.9170  1.3559
    4MOL0     H  505   7.294  10.928  10.551 -3.1976 -0.3407 -0.7981
    4MOL0     H  506   7.442  11.204  10.517  1.3108  0.0266 -2.4231
    4MOL0     H  507   7.494  11.057  10.621  0.6227 -1.1757 -1.3684
    4MOL0     H  508   7.547  10.919  10.444  1.1279 -0.8067 -1.0452
    4MOL0     H  509   7.485  11.038  10.323 -0.0387 -3.8430  0.5873
    4MOL0     H  510   7.719  11.070  10.503 -1.8181  2.7230  1.3916
    4MOL0     H  511   7.669  11.180  10.369 -3.0497  0.0848  1.3280
    4MOL0     H  512   7.759  10.893  10.321  2.1532  0.5704 -0.2978
    4MOL0     H  513   7.858  11.037  10.296  0.5053 -1.4833  0.0795
    4MOL0     H  514   7.608  11.009  10.146 -0.5756  0.0972  0.9780
    4MOL0     H  515   7.735  11.139  10.136  1.8817 -0.7418 -4.0339
    4MOL0     H  516   7.880  10.915  10.101  0.7059  0.2184  1.1533
    4MOL0     H  517   7.817  11.035   9.980  0.9311  0.6128  0.7939
    4MOL0     H  518   7.712  10.752  10.065 -0.5052 -0.1553 -0.3658
    4MOL0     H  519   7.617  10.856   9.960 -0.2737  0.5586  1.6829
    4MOL0     H  520   7.079  10.906  10.588 -0.5076 -0.1017 -0.2246
    4MOL0     H  521   6.843  10.909  10.621  2.9345  1.8356  3.2795
    4MOL0     H  522   6.461  11.118  10.380  2.4295 -1.8731  0.8304
    4MOL0     H  523   6.211  11.161  10.392  2.8851 -3.1514 -1.5336
    4MOL0     H  524   4.332  10.907  11.295  0.2641  0.4024  0.6192
    4MOL0     H  525   4.095  10.810  11.207 -0.5691 -0.5230  0.3541
    4MOL0     H  526   3.656  10.946  11.205 -3.1048 -0.2089 -0.1359
    4MOL0     H  527   3.446  10.864  11.195 -1.9423  0.6919 -1.9101
    4MOL0     H  528   3.246  10.730  11.170  2.5269  1.7547 -0.2927
    4MOL0     H  529   3.150  10.640  11.048 -0.6227  0.0924 -0.9141
    4MOL0     H  530   3.268  10.905  10.960 -1.5654  3.0530  2.5663
    4MOL0     H  531   3.148  10.908  11.082 -0.0714  0.7075 -1.2897
    4MOL0     H  532   3.001  10.769  10.949 -0.1157 -1.6049 -2.1151
    4MOL0     H  533   3.108  10.763  10.820 -1.9819 -0.3007  0.1147
    4MOL0     H  534   3.104  11.032  10.818  1.0431  0.5942  2.5001
    4MOL0     H  535   2.969  10.945  10.749  0.1274 -1.3656  0.3488
    4MOL0     H  536   2.782  11.059  11.102  0.6527 -2.5105  1.4104
    4MOL0     H  537   3.554  10.619  10.861  1.3082 -1.4361  1.4791
    4MOL0     H  538   3.771  10.609  10.780 -0.5511  2.0368 -2.8346
    4MOL0     H  539   3.800  10.783  10.737  0.4893  0.8709  0.9123
    4MOL0     H  540   3.906  10.703  10.851  0.7523 -1.5499 -1.6862
    5MOL0     O  541  10.084   8.956   2.810 -0.0788  0.5270  0.3804
    5MOL0     C  542  10.091   8.899   2.917 -0.2472 -0.1230 -0.0402
    5MOL0     O  543  10.189   8.911   3.009 -0.2885 -0.3983  0.8218
    5MOL0     C  544  10.310   8.979   2.981 -0.9255  0.4280 -0.0501
    5MOL0     C  545  10.367   8.995   2.850 -0.1675  0.7596 -1.1482
    5MOL0     C  546  10.491   9.064   2.845 -0.2105  0.2522  0.7547
    5MOL0     C  547  10.557   9.106   2.960 -0.1086  0.2710  0.5610
    5MOL0     O  548  10.681   9.163   2.953 -0.3014 -0.1007  0.2554
    5MOL0     C  549  10.775   9.082   2.890 -0.0293  0.0625  0.2555
    5MOL0     C  550  10.837   8.980   2.999  0.1794 -0.8380 -0.5882
    5MOL0     C  551  10.914   9.047   3.110 -0.6450 -0.4858  0.6361
    5MOL0     C  552  11.047   9.120   3.064 -0.5501  0.5748  0.0380
    5MOL0     C  553  11.103   9.200   3.174 -0.8251 -0.5058  0.7369
    5MOL0     C  554  11.229   9.289   3.137  0.2842  0.5947 -0.7112
    5MOL0     C  555  11.269   9.380   3.256  0.0940 -0.2945  0.6333
    5MOL0     C  556  11.348   9.493   3.197  0.3050 -0.2451  0.3762
    5MOL0     N  557  11.452   9.536   3.286 -0.0514 -1.0293  0.2559
    5MOL0     C  558  11.562   9.463   3.321 -0.5095  0.1697  0.3245
    5MOL0     C  559  11.638   9.542   3.400  0.0953 -0.4337  0.1817
    5MOL0     C  560  11.767   9.504   3.480  0.1222 -0.2465 -0.1983
    5MOL0     C  561  11.839   9.622   3.545  0.1897  0.0610  0.1016
    5MOL0     C  562  11.912   9.723   3.446 -0.7304 -0.6819  0.2025
    5MOL0     C  563  12.048   9.689   3.388 -0.1809  1.3169  0.3853
    5MOL0     O  564  12.030   9.596   3.279  0.2125 -0.4057 -1.0569
    5MOL0     C  565  12.039   9.642   3.153 -0.6178  1.0617  0.2608
    5MOL0     C  566  12.161   9.690   3.107 -0.6032 -0.0946 -0.4470
    5MOL0     C  567  12.175   9.741   2.982  0.4031  0.7012  0.5750
    5MOL0     C  568  12.062   9.737   2.896  0.9640 -0.2001  0.6468
    5MOL0     C  569  12.086   9.804   2.774 -0.3048  0.4740 -0.2086
    5MOL0     O  570  12.186   9.890   2.754  0.0518  0.5200  0.1697
    5MOL0     C  571  12.230   9.944   2.644  0.4950  0.7746  0.0593
    5MOL0     C  572  12.205   9.897   2.514 -0.2970  0.8524  0.0681
    5MOL0     C  573  12.262   9.949   2.394 -0.5188 -0.6490  0.1918
    5MOL0     C  574  12.345  10.056   2.413 -0.1971 -0.0640  0.1852
    5MOL0     O  575  12.400  10.093   2.293 -0.6336 -0.0113 -0.0483
    5MOL0     C  576  12.508  10.200   2.292  0.2485  0.1538  0.6632
    5MOL0     C  577  12.588  10.166   2.171 -0.4238 -0.4439 -0.2890
    5MOL0     C  578  12.717  10.251   2.153 -0.0176  0.0045 -0.1913
    5MOL0     C  579  12.770  10.261   2.013  0.2688 -0.4997 -0.3928
    5MOL0     C  580  12.927  10.293   2.015  0.2100 -0.6816  0.3910
    5MOL0     C  581  12.984  10.324   1.873 -0.5040  0.1618 -0.1305
    5MOL0     C  582  12.932  10.238   1.755  1.1191  0.2158 -0.4643
    5MOL0     C  583  13.022  10.249   1.632  0.0918  0.4040  0.6653
    5MOL0    Cl  584  13.197  10.214   1.658  0.2808 -0.3325 -0.2716
    5MOL0     C  585  12.372  10.112   2.542  1.2611 -0.1107  0.3010
    5MOL0     C  586  12.318  10.057   2.658  0.4496 -0.1697  0.2113
    5MOL0     O  587  12.001   9.769   2.693  0.0330  0.7586  0.4750
    5MOL0     C  588  11.942   9.684   2.938 -0.2859  0.3632 -0.2695
    5MOL0     C  589  11.935   9.631   3.068 -0.1521  0.3597 -0.6419
    5MOL0     N  590  11.585   9.673   3.394  0.2840 -0.0437 -0.4253
    5MOL0     N  591  11.474   9.663   3.330 -0.0102  0.1271  0.4995
    5MOL0     C  592  10.508   9.076   3.083  0.5901 -0.2718 -0.1395
    5MOL0     C  593  10.381   9.021   3.096 -0.5888 -0.8339 -0.2839
    5MOL0     C  594   9.978   8.818   2.960  0.1725 -0.6853  0.9746
    5MOL0     C  595   9.850   8.856   2.921 -0.2031  1.7966  0.2524
    5MOL0     C  596   9.737   8.782   2.952  0.2579  0.2817 -0.8009
    5MOL0     C  597   9.751   8.668   3.026 -0.4665  0.3613 -0.6960
    5MOL0     O  598   9.645   8.590   3.065  0.0054  0.4803 -0.4117
    5MOL0     C  599   9.511   8.641   3.037  0.1751  0.1072 -0.1841
    5MOL0     C  600   9.403   8.540   3.098 -0.5446  0.4574 -0.0757
    5MOL0     C  601   9.420   8.511   3.245  0.0094  0.3924  0.5521
    5MOL0     C  602   9.303   8.423   3.301 -0.3253  0.1481  0.2590
    5MOL0     C  603   9.171   8.484   3.294 -0.9403  0.3761 -0.0242
    5MOL0     C  604   9.064   8.537   3.319  0.6539  0.4082 -0.0206
    5MOL0     C  605   9.877   8.615   3.047 -1.3871  0.5003  0.5507
    5MOL0     C  606   9.998   8.684   3.009  0.6768 -0.3378 -1.1876
    5MOL0     C  607  10.131   8.610   3.027  0.3795 -0.9929  0.3026
    5MOL0     H  608  10.319   8.957   2.761  0.1274 -0.1027 -0.9433
    5MOL0     H  609  10.533   9.079   2.746 -2.0995 -2.5994 -0.6097
    5MOL0     H  610  10.729   9.035   2.803  1.9371 -0.4869 -0.5390
    5MOL0     H  611  10.860   9.140   2.854 -1.2662  0.6729 -1.8690
    5MOL0     H  612  10.908   8.913   2.951  0.0084 -1.4800  0.0468
    5MOL0     H  613  10.755   8.914   3.028 -0.1540 -0.7026 -1.2131
    5MOL0     H  614  10.937   8.980   3.194  0.3384 -2.6516 -1.2497
    5MOL0     H  615  10.858   9.124   3.164  2.2802  0.6792  2.2526
    5MOL0     H  616  11.125   9.047   3.037 -0.3788  1.3145 -1.6049
    5MOL0     H  617  11.034   9.187   2.979  3.2532 -0.3797 -1.5301
    5MOL0     H  618  11.022   9.257   3.220 -1.1886 -1.0693  0.8041
    5MOL0     H  619  11.148   9.131   3.246  3.7563  0.6221 -0.6809
    5MOL0     H  620  11.307   9.218   3.107  0.0315  0.1896 -0.4240
    5MOL0     H  621  11.213   9.351   3.048  0.0764  2.6909  0.7192
    5MOL0     H  622  11.327   9.323   3.329 -0.4359 -0.6087  0.8186
    5MOL0     H  623  11.174   9.418   3.293 -1.8214  0.1439 -4.0683
    5MOL0     H  624  11.389   9.463   3.100 -2.5850 -1.0653 -0.6922
    5MOL0     H  625  11.281   9.576   3.174 -1.9571 -1.6739  1.4478
    5MOL0     H  626  11.604   9.366   3.297 -1.1358 -0.1636  0.5789
    5MOL0     H  627  11.743   9.426   3.554 -4.1361  1.6625  0.7477
    5MOL0     H  628  11.829   9.468   3.397  2.0773 -0.7797  1.3902
    5MOL0     H  629  11.774   9.685   3.608  2.5475  2.0170  0.7546
    5MOL0     H  630  11.910   9.587   3.621 -1.6557  0.3469  2.0795
    5MOL0     H  631  11.926   9.816   3.502  1.4834  1.9862 -4.2139
    5MOL0     H  632  11.841   9.748   3.367 -1.0597 -0.3595  0.5951
    5MOL0     H  633  12.096   9.629   3.466 -3.6013 -2.7599 -0.3137
    5MOL0     H  634  12.079   9.788   3.353  0.2940  0.9875 -0.1375
    5MOL0     H  635  12.247   9.691   3.175 -1.0099  1.3321  0.0697
    5MOL0     H  636  12.276   9.762   2.948  1.4397 -3.2948  0.6732
    5MOL0     H  637  12.142   9.812   2.491  0.1374  0.8538 -1.1701
    5MOL0     H  638  12.234   9.914   2.296  1.7761 -0.4628 -0.5859
    5MOL0     H  639  12.471  10.303   2.287 -1.1500 -0.3779 -0.5843
    5MOL0     H  640  12.571  10.196   2.381  0.1182  0.6935  0.7865
    5MOL0     H  641  12.621  10.062   2.167  0.9570  0.0080 -1.4402
    5MOL0     H  642  12.521  10.181   2.086  0.1434  1.3275 -0.4544
    5MOL0     H  643  12.702  10.349   2.199 -3.0850 -0.7064  0.5040
    5MOL0     H  644  12.790  10.200   2.217  0.5879 -0.7637 -1.4511
    5MOL0     H  645  12.720  10.340   1.956  2.7901  0.5665 -1.2773
    5MOL0     H  646  12.745  10.167   1.963 -3.1503 -0.7125  1.4096
    5MOL0     H  647  12.981  10.209   2.060 -0.2776  0.0198  2.3699
    5MOL0     H  648  12.948  10.380   2.077  1.1715 -0.1852 -0.5989
    5MOL0     H  649  12.983  10.432   1.856  1.7743  0.3327  0.5489
    5MOL0     H  650  13.091  10.303   1.883 -0.2901  1.8978  2.0197
    5MOL0     H  651  12.833  10.272   1.724  0.4556 -0.5421  0.7382
    5MOL0     H  652  12.932  10.133   1.785  0.7625 -0.3782 -2.3919
    5MOL0     H  653  12.989  10.178   1.556  0.1624  0.1933  0.8314
    5MOL0     H  654  13.027  10.349   1.588  2.0937 -0.1995 -0.6148
    5MOL0     H  655  12.442  10.196   2.548  0.5052  0.4803  1.0896
    5MOL0     H  656  12.321  10.102   2.756 -1.5284 -0.0468  0.2407
    5MOL0     H  657  11.859   9.682   2.868  0.6951 -1.0747 -1.4467
    5MOL0     H  658  11.845   9.594   3.117 -1.0919  1.4847 -1.4665
    5MOL0     H  659  10.564   9.106   3.171 -0.5558  0.3398  0.4034
    5MOL0     H  660  10.336   9.002   3.193  1.2824  1.6949  1.1967
    5MOL0     H  661   9.837   8.945   2.860  0.1086  0.7716 -1.3638
    5MOL0     H  662   9.640   8.822   2.926  0.1529  1.8565  1.7111
    5MOL0     H  663   9.494   8.625   2.930 -3.9841 -2.9857  0.6791
    5MOL0     H  664   9.494   8.741   3.077 -0.0835  0.0776 -0.2189
    5MOL0     H  665   9.414   8.449   3.038  1.6833  0.0275  0.8800
    5MOL0     H  666   9.302   8.577   3.077  0.1942  1.9752 -1.1308
    5MOL0     H  667   9.424   8.608   3.294 -0.3220  0.0158  1.3352
    5MOL0     H  668   9.514   8.455   3.248  0.1522  0.2605 -2.6094
    5MOL0     H  669   9.305   8.327   3.249  2.4984  0.2533  0.0352
    5MOL0     H  670   9.325   8.400   3.406  0.5052  0.8511  0.2498
    5MOL0     H  671   8.967   8.582   3.322  0.3800 -0.1684 -0.0572
    5MOL0     H  672   9.889   8.518   3.095  0.8919 -0.3755 -1.5646
    5MOL0     H  673  10.116   8.511   3.071 -0.5983 -1.5353 -1.1506
    5MOL0     H  674  10.169   8.594   2.926 -1.8328 -1.8463 -0.4663
    5MOL0     H  675  10.204   8.665   3.087 -1.6122  1.0593  1.0034
    6MOL0     O  676   5.155   8.298   9.872  0.5024 -0.6460 -0.0769
    6MOL0     C  677   5.157   8.233   9.768 -0.3004 -0.8418 -0.4165
    6MOL0     O  678   5.247   8.247   9.671 -0.2048  0.2375 -0.9782
    6MOL0     C  679   5.379   8.252   9.711  0.0810 -0.4103  0.6434
    6MOL0     C  680   5.449   8.368   9.680 -0.0181  0.1274  0.1482
    6MOL0     C  681   5.582   8.383   9.727 -0.5818 -0.1358  0.1596
    6MOL0     C  682   5.650   8.275   9.792 -0.5459  0.8406  0.1503
    6MOL0     O  683   5.791   8.280   9.819  0.2417 -0.0441  0.7918
    6MOL0     C  684   5.845   8.180   9.899 -0.3398  0.3882 -0.5640
    6MOL0     C  685   5.975   8.244   9.956  0.5184  0.0950  0.4086
    6MOL0     C  686   6.060   8.139  10.020  0.5812 -0.1554  0.8617
    6MOL0     C  687   6.208   8.182  10.018  0.7759 -1.0829 -0.4680
    6MOL0     C  688   6.229   8.324  10.074  0.8338  0.1587 -0.1942
    6MOL0     C  689   6.266   8.320  10.228  0.3858 -1.2756  0.0419
    6MOL0     C  690   6.263   8.466  10.282  0.2103 -0.9082 -0.0889
    6MOL0     C  691   6.149   8.566  10.250  0.0449  0.2374  0.0892
    6MOL0     N  692   6.016   8.514  10.278 -0.9531  0.2467 -1.2384
    6MOL0     C  693   5.899   8.553  10.221  0.0027 -0.1174 -0.2700
    6MOL0     C  694   5.804   8.475  10.278 -0.0655 -0.8671  0.0637
    6MOL0     C  695   5.652   8.484  10.239  0.7889  0.8467  1.3301
    6MOL0     C  696   5.605   8.381  10.131 -0.7854 -0.5714 -0.3714
    6MOL0     C  697   5.461   8.401  10.073 -0.2071  0.3787 -0.4173
    6MOL0     C  698   5.338   8.387  10.173 -0.9053 -0.5713  0.2688
    6MOL0     O  699   5.351   8.257  10.242  0.2721 -0.7526 -0.4001
    6MOL0     C  700   5.239   8.202  10.303 -0.4998 -0.1044 -0.3724
    6MOL0     C  701   5.239   8.074  10.337 -0.8902  0.1354 -0.5085
    6MOL0     C  702   5.140   8.006  10.401 -0.3044  0.3654  0.4921
    6MOL0     C  703   5.028   8.071  10.447 -0.6274  0.1728  0.1364
    6MOL0     C  704   4.926   8.007  10.522 -0.9164 -0.5076 -0.3402
    6MOL0     O  705   4.825   8.091  10.555  0.3842  0.2330 -0.1251
    6MOL0     C  706   4.724   8.041  10.632  0.0558 -0.3904 -0.0122
    6MOL0     C  707   4.618   7.972  10.576 -0.1252 -0.1529 -0.5716
    6MOL0     C  708   4.504   7.943  10.652  0.3139  0.0183  0.3784
    6MOL0     C  709   4.496   7.982  10.789  0.9912 -0.3344 -0.6896
    6MOL0     O  710   4.386   7.929  10.856 -0.2871 -0.0829  0.1723
    6MOL0     C  711   4.344   7.987  10.979  0.6346 -0.0597  0.1798
    6MOL0     C  712   4.188   7.982  10.964 -0.6049  0.0356  0.2837
    6MOL0     C  713   4.112   7.997  11.096 -0.5918  0.1174 -0.5537
    6MOL0     C  714   3.965   7.987  11.083  0.2071  0.4015  0.2113
    6MOL0     C  715   3.895   8.088  10.992  0.9427  0.0470 -0.5121
    6MOL0     C  716   3.747   8.085  11.027  0.2807  0.3457 -0.1686
    6MOL0     C  717   3.667   7.970  10.975  0.2864  0.2396  0.3730
    6MOL0     C  718   3.522   7.961  11.020  0.2282 -0.1397  0.0207
    6MOL0    Cl  719   3.534   7.911  11.194  0.3860 -0.5784 -0.5578
    6MOL0     C  720   4.606   8.042  10.849 -0.6492  0.5079  0.3655
    6MOL0     C  721   4.713   8.083  10.768 -0.3173 -0.0468  0.2829
    6MOL0     O  722   4.933   7.891  10.547  0.2917 -0.0687 -0.2390
    6MOL0     C  723   5.019   8.213  10.415  1.2358  0.6915 -0.5997
    6MOL0     C  724   5.122   8.274  10.345 -0.5160 -0.0142  0.9262
    6MOL0     N  725   5.865   8.395  10.377 -0.2168  0.0657 -0.1261
    6MOL0     N  726   5.990   8.420  10.374 -0.0976  0.6655  0.1209
    6MOL0     C  727   5.580   8.155   9.811  0.6911  0.6583  0.5673
    6MOL0     C  728   5.445   8.147   9.779  0.1740 -0.0441 -0.7152
    6MOL0     C  729   5.053   8.133   9.729  0.9885 -0.8230 -0.4812
    6MOL0     C  730   5.101   8.018   9.674 -0.5829  0.4157 -0.0495
    6MOL0     C  731   5.010   7.906   9.645 -0.3128 -0.3782 -0.6442
    6MOL0     C  732   4.875   7.921   9.665  0.3783 -0.5416 -0.4258
    6MOL0     O  733   4.774   7.830   9.642  0.7516 -0.6435 -0.5441
    6MOL0     C  734   4.795   7.715   9.554 -1.1819 -0.7286  0.6525
    6MOL0     C  735   4.820   7.752   9.405  0.5374  0.1346  0.4294
    6MOL0     C  736   4.778   7.638   9.294 -0.4458  0.8234 -0.3569
    6MOL0     C  737   4.833   7.493   9.306 -1.1897 -0.7567 -0.8923
    6MOL0     C  738   4.982   7.497   9.318  0.3308  0.4532 -0.7208
    6MOL0     C  739   5.105   7.511   9.307 -0.0049  0.0497  0.4015
    6MOL0     C  740   4.832   8.040   9.725 -0.3905 -1.0458 -0.0713
    6MOL0     C  741   4.918   8.151   9.763 -0.5179 -0.5314  0.0750
    6MOL0     C  742   4.850   8.269   9.834  0.2401  0.4990 -0.3742
    6MOL0     H  743   5.396   8.442   9.622  1.1619 -2.1874 -4.3485
    6MOL0     H  744   5.638   8.472   9.701 -0.2326 -0.3804  0.0683
    6MOL0     H  745   5.776   8.138   9.973  0.1899 -0.3248 -0.4537
    6MOL0     H  746   5.876   8.099   9.832  0.2011 -0.5629  0.7875
    6MOL0     H  747   5.953   8.334  10.014 -0.9958 -0.4837  0.7837
    6MOL0     H  748   6.035   8.282   9.873  3.9950 -0.1343  2.6461
    6MOL0     H  749   6.041   8.047   9.964 -1.0930  0.1182  0.9481
    6MOL0     H  750   6.024   8.133  10.123 -1.2825 -1.5640  0.1711
    6MOL0     H  751   6.268   8.105  10.068  0.4106 -2.0250 -1.4481
    6MOL0     H  752   6.252   8.171   9.919  0.1295 -0.4499 -0.8309
    6MOL0     H  753   6.317   8.371  10.028 -0.2633  1.1336 -1.3945
    6MOL0     H  754   6.150   8.395  10.048  1.1422 -0.3663 -2.8794
    6MOL0     H  755   6.191   8.263  10.283 -0.0238 -0.8934 -0.1081
    6MOL0     H  756   6.363   8.271  10.230  0.5786 -0.8664  1.1530
    6MOL0     H  757   6.355   8.508  10.239 -0.0096 -0.6814 -0.3495
    6MOL0     H  758   6.272   8.457  10.391  0.3895 -1.1220 -0.1210
    6MOL0     H  759   6.156   8.662  10.302  0.2101  0.6557 -0.6755
    6MOL0     H  760   6.153   8.592  10.143 -3.4372  3.7207  0.5718
    6MOL0     H  761   5.873   8.632  10.152 -1.2484 -2.0567 -2.1592
    6MOL0     H  762   5.584   8.460  10.320 -1.3589  3.2373  0.3909
    6MOL0     H  763   5.638   8.584  10.195  1.8235 -0.0965 -1.3763
    6MOL0     H  764   5.675   8.390  10.048 -0.5849  2.3287  0.0139
    6MOL0     H  765   5.610   8.281  10.176 -3.0977  0.0772  1.5906
    6MOL0     H  766   5.446   8.339   9.984 -0.0039 -0.7057  0.2816
    6MOL0     H  767   5.460   8.500  10.027 -6.1304 -0.3859 -2.8171
    6MOL0     H  768   5.242   8.398  10.121 -1.1935  0.9478  1.0656
    6MOL0     H  769   5.340   8.463  10.252  4.2751 -0.4531  0.3465
    6MOL0     H  770   5.329   8.020  10.307 -2.5754 -2.9650 -0.4189
    6MOL0     H  771   5.148   7.902  10.429 -0.3839  0.9065  2.7435
    6MOL0     H  772   4.631   7.932  10.476 -3.9995 -0.4523 -1.0986
    6MOL0     H  773   4.428   7.887  10.599  0.8734  1.8711 -2.5770
    6MOL0     H  774   4.376   7.924  11.063 -2.0102  1.2434  2.3327
    6MOL0     H  775   4.382   8.087  11.004  2.6317 -1.2732  2.4494
    6MOL0     H  776   4.162   8.061  10.893  0.2187 -0.5256 -0.6575
    6MOL0     H  777   4.147   7.887  10.928 -2.2784  0.9210 -0.2559
    6MOL0     H  778   4.155   7.919  11.160  1.9933  1.5393 -0.3922
    6MOL0     H  779   4.136   8.088  11.151  3.8561 -1.6853  0.9941
    6MOL0     H  780   3.919   7.980  11.182  2.8711 -1.9480  1.4333
    6MOL0     H  781   3.937   7.888  11.046  0.1035  0.5662 -0.1475
    6MOL0     H  782   3.918   8.067  10.887  2.4706 -0.7090 -0.0424
    6MOL0     H  783   3.928   8.192  11.007 -0.4404  0.2424  1.6600
    6MOL0     H  784   3.736   8.091  11.136  1.2053 -0.0090 -0.0474
    6MOL0     H  785   3.699   8.171  10.978  1.3117  1.6122  0.9606
    6MOL0     H  786   3.719   7.880  11.011  1.6416  1.0626  0.5388
    6MOL0     H  787   3.680   7.978  10.866  0.3250 -0.3740  0.3287
    6MOL0     H  788   3.471   8.056  11.002 -4.0135 -2.4807 -2.0092
    6MOL0     H  789   3.458   7.903  10.952  0.2175  1.9602 -1.8844
    6MOL0     H  790   4.623   8.051  10.956 -0.5629 -0.6936  0.4598
    6MOL0     H  791   4.798   8.134  10.813  0.4369 -1.0644  0.0521
    6MOL0     H  792   4.933   8.274  10.441  0.4634 -0.7111  0.2892
    6MOL0     H  793   5.093   8.373  10.311 -1.3879 -1.3709 -2.7886
    6MOL0     H  794   5.624   8.070   9.861  0.2138 -1.4711 -2.3525
    6MOL0     H  795   5.387   8.059   9.804  0.4822  0.0642  0.4597
    6MOL0     H  796   5.207   7.996   9.671 -1.3494 -4.4817  0.8887
    6MOL0     H  797   5.055   7.817   9.601  2.6541  1.2424 -1.1986
    6MOL0     H  798   4.704   7.655   9.559 -0.7346 -1.2812  2.7713
    6MOL0     H  799   4.881   7.658   9.588 -0.7515 -0.6911 -0.3232
    6MOL0     H  800   4.921   7.788   9.383 -0.3209  1.1427 -2.3326
    6MOL0     H  801   4.752   7.836   9.385  1.4018  0.8983  0.6505
    6MOL0     H  802   4.808   7.671   9.195 -0.1418 -2.2873 -1.4129
    6MOL0     H  803   4.669   7.633   9.299 -0.4226 -0.7436 -0.8497
    6MOL0     H  804   4.787   7.451   9.396  0.6764  0.2735  0.6530
    6MOL0     H  805   4.803   7.433   9.220  0.1739  1.6508 -3.1962
    6MOL0     H  806   5.203   7.539   9.275 -0.3305 -1.8388 -2.7111
    6MOL0     H  807   4.726   8.050   9.748 -0.2143  0.8352  0.1022
    6MOL0     H  808   4.908   8.358   9.810  1.3163 -0.7988 -2.9180
    6MOL0     H  809   4.753   8.274   9.785  0.3070 -2.7881 -1.0751
    6MOL0     H  810   4.832   8.259   9.942 -1.1879 -0.4134 -0.6689
    7MOL0     O  811   4.661   5.238   4.618 -0.3850 -0.2230 -0.0407
    7MOL0     C  812   4.562   5.221   4.552  0.1208  0.6443 -0.6228
    7MOL0     O  813   4.550   5.115   4.466 -0.3077  0.2628  0.1581
    7MOL0     C  814   4.660   5.030   4.454 -0.4450 -0.2708 -0.4590
    7MOL0     C  815   4.795   5.081   4.420  0.0030 -0.4960 -0.2568
    7MOL0     C  816   4.912   5.000   4.419  0.3472 -0.5626  0.0855
    7MOL0     C  817   4.902   4.868   4.466 -0.0169 -0.2412 -0.7900
    7MOL0     O  818   5.008   4.770   4.472 -0.6225 -0.4165 -0.2205
    7MOL0     C  819   5.138   4.827   4.498 -0.9524  0.3729 -0.1510
    7MOL0     C  820   5.210   4.757   4.612 -0.1982  0.0843  0.3777
    7MOL0     C  821   5.360   4.732   4.553  0.5586  0.3618 -0.6197
    7MOL0     C  822   5.434   4.633   4.643 -0.5498  0.9920 -0.4797
    7MOL0     C  823   5.575   4.604   4.582 -0.1272  0.2694  1.0528
    7MOL0     C  824   5.654   4.505   4.673  0.6586  0.6605 -0.3183
    7MOL0     C  825   5.703   4.566   4.806 -0.1939 -0.3303 -0.7215
    7MOL0     C  826   5.811   4.479   4.854 -1.3056 -0.9457  0.9708
    7MOL0     N  827   5.886   4.525   4.969  0.1882  0.1021 -0.8457
    7MOL0     C  828   5.832   4.534   5.097 -0.6076 -0.4443  0.1275
    7MOL0     C  829   5.928   4.577   5.177  0.3853 -0.1090  0.1331
    7MOL0     C  830   5.918   4.611   5.326  0.4303 -0.0361  0.2519
    7MOL0     C  831   5.888   4.487   5.415  0.7059  0.1624  0.5315
    7MOL0     C  832   5.821   4.520   5.557 -0.9410  0.1019 -0.1643
    7MOL0     C  833   5.692   4.606   5.550 -0.1102 -0.3498 -0.0335
    7MOL0     O  834   5.586   4.535   5.484  0.4288  0.7426  0.2153
    7MOL0     C  835   5.460   4.571   5.490 -0.1493 -0.9759 -0.1912
    7MOL0     C  836   5.413   4.695   5.537  0.3087 -0.4098  0.2560
    7MOL0     C  837   5.278   4.733   5.538  0.0763 -0.0090 -0.1502
    7MOL0     C  838   5.188   4.640   5.501 -0.2733  0.7166 -0.1090
    7MOL0     C  839   5.042   4.672   5.504 -0.6555 -0.3718 -0.6629
    7MOL0     O  840   4.965   4.635   5.400 -0.1695  0.2967 -0.0258
    7MOL0     C  841   4.825   4.666   5.386  0.1694  0.4832  0.8734
    7MOL0     C  842   4.729   4.724   5.478 -0.9172 -0.6320 -0.1402
    7MOL0     C  843   4.600   4.748   5.442 -0.0931 -0.0236 -0.2660
    7MOL0     C  844   4.557   4.727   5.312  0.9218 -0.5077 -0.4451
    7MOL0     O  845   4.435   4.768   5.273 -0.1784  0.0331 -0.2375
    7MOL0     C  846   4.395   4.762   5.137  0.1031 -0.1003  0.6162
    7MOL0     C  847   4.292   4.870   5.115  0.4893 -0.1902  0.1034
    7MOL0     C  848   4.162   4.825   5.177  0.0134  0.6983 -0.3214
    7MOL0     C  849   4.074   4.956   5.189 -0.9746 -0.3341  0.3416
    7MOL0     C  850   3.945   4.934   5.263 -0.3655  0.0450  0.3005
    7MOL0     C  851   3.839   4.835   5.203  1.0397  0.1472  0.9403
    7MOL0     C  852   3.700   4.848   5.279 -0.7281  0.7103 -0.3909
    7MOL0     C  853   3.610   4.728   5.246 -0.0858  0.6491  0.0377
    7MOL0    Cl  854   3.569   4.752   5.075 -0.2644 -0.3303 -0.1823
    7MOL0     C  855   4.648   4.666   5.224  0.7602 -0.1991  0.0323
    7MOL0     C  856   4.777   4.636   5.259 -0.4736  0.6603  0.6489
    7MOL0     O  857   5.009   4.733   5.609 -0.0905  0.4935  0.7457
    7MOL0     C  858   5.229   4.517   5.450 -0.7058 -0.2573  0.5785
    7MOL0     C  859   5.363   4.489   5.434  0.0465 -0.0348  0.1829
    7MOL0     N  860   6.048   4.575   5.108 -0.2028 -0.3649  0.0703
    7MOL0     N  861   6.016   4.550   4.984  0.2786  0.2414  0.0277
    7MOL0     C  862   4.770   4.814   4.486 -0.0598 -0.0593 -0.3452
    7MOL0     C  863   4.658   4.895   4.487 -0.4936  0.3293  0.6318
    7MOL0     C  864   4.434   5.293   4.588  0.3367  0.4548  0.0323
    7MOL0     C  865   4.425   5.379   4.703  0.4958 -0.1543 -0.5075
    7MOL0     C  866   4.308   5.455   4.731 -0.2806 -0.9586 -0.0745
    7MOL0     C  867   4.194   5.444   4.649 -0.4876 -1.1072 -0.0684
    7MOL0     O  868   4.066   5.493   4.665  0.1921  0.0045  0.7768
    7MOL0     C  869   4.056   5.594   4.766 -0.2777  1.1203  0.1515
    7MOL0     C  870   3.927   5.672   4.739 -0.2482  0.6590  0.2767
    7MOL0     C  871   3.908   5.782   4.838 -0.6856 -0.2271 -0.5165
    7MOL0     C  872   3.765   5.845   4.828  0.5738  0.2120  0.0239
    7MOL0     C  873   3.758   5.954   4.928 -0.0662  0.2687 -0.4759
    7MOL0     C  874   3.754   6.043   5.007  0.0071 -1.1811 -0.1461
    7MOL0     C  875   4.201   5.365   4.542  0.4518  0.1746  0.8806
    7MOL0     C  876   4.318   5.293   4.505 -0.6211 -0.5071 -0.2015
    7MOL0     C  877   4.300   5.209   4.379 -0.7019  0.1334 -0.4344
    7MOL0     H  878   4.791   5.188   4.404 -4.0369 -0.4143  0.4210
    7MOL0     H  879   5.013   5.025   4.391  0.9265 -2.1752  0.6119
    7MOL0     H  880   5.193   4.809   4.405 -3.3366 -1.2070 -1.3593
    7MOL0     H  881   5.134   4.935   4.517  1.4763  0.2918  1.2865
    7MOL0     H  882   5.158   4.665   4.640  0.2159 -0.3042 -0.1064
    7MOL0     H  883   5.209   4.821   4.701  2.5743  1.3990 -0.4277
    7MOL0     H  884   5.411   4.828   4.562  1.8681 -0.3525 -0.1374
    7MOL0     H  885   5.357   4.695   4.450  1.5132 -0.1129 -0.4869
    7MOL0     H  886   5.444   4.671   4.745  2.2613 -1.5184  0.3702
    7MOL0     H  887   5.378   4.539   4.647 -1.7984  1.6780 -1.4362
    7MOL0     H  888   5.546   4.554   4.489  1.2704 -0.4793  0.9902
    7MOL0     H  889   5.638   4.687   4.549 -1.2159  1.2569  1.4084
    7MOL0     H  890   5.593   4.418   4.699  1.0783  0.7491  1.0210
    7MOL0     H  891   5.740   4.459   4.623  0.7398 -1.0478  1.3060
    7MOL0     H  892   5.622   4.572   4.880 -1.0527 -0.5051 -1.6196
    7MOL0     H  893   5.741   4.665   4.782 -0.4090  0.0902  0.6261
    7MOL0     H  894   5.773   4.378   4.869 -3.0792 -0.7619 -1.5950
    7MOL0     H  895   5.875   4.456   4.768 -0.5403 -5.1405  2.4000
    7MOL0     H  896   5.727   4.515   5.117 -0.5757  0.2759  1.0296
    7MOL0     H  897   6.006   4.673   5.344  0.2109  1.8278 -3.9465
    7MOL0     H  898   5.840   4.681   5.356  1.0249  0.3018  1.0352
    7MOL0     H  899   5.823   4.420   5.360  1.0702  1.2161 -1.2687
    7MOL0     H  900   5.982   4.436   5.435  0.1507 -1.1300 -0.0936
    7MOL0     H  901   5.895   4.574   5.616  1.3743 -1.6705 -1.2759
    7MOL0     H  902   5.806   4.423   5.605  0.2714 -1.4848 -2.7452
    7MOL0     H  903   5.701   4.703   5.500  0.3212  0.4055  1.4438
    7MOL0     H  904   5.672   4.640   5.652  0.5218  1.8638 -0.5839
    7MOL0     H  905   5.476   4.769   5.586 -1.3717  0.6208  0.9307
    7MOL0     H  906   5.250   4.834   5.569 -1.1276 -1.1707  2.9715
    7MOL0     H  907   4.754   4.766   5.575 -0.2511  0.8718 -0.9199
    7MOL0     H  908   4.520   4.783   5.507 -2.3761 -1.1403 -2.3104
    7MOL0     H  909   4.471   4.788   5.064 -1.3468 -2.7430 -2.0132
    7MOL0     H  910   4.358   4.664   5.106 -1.2867  1.5293 -3.4639
    7MOL0     H  911   4.331   4.959   5.165  0.2165  1.4192 -2.3973
    7MOL0     H  912   4.276   4.898   5.011  0.7629 -1.3811 -0.2784
    7MOL0     H  913   4.107   4.739   5.138 -0.8039  0.7124  0.7367
    7MOL0     H  914   4.199   4.785   5.272 -0.9272  1.6284  0.4700
    7MOL0     H  915   4.052   4.990   5.087 -0.3817 -0.9694 -0.0045
    7MOL0     H  916   4.135   5.030   5.240 -1.3926  0.2473  0.0106
    7MOL0     H  917   3.891   5.030   5.260 -1.1731 -0.3631  1.4932
    7MOL0     H  918   3.962   4.911   5.368 -3.7651  0.6049  1.0844
    7MOL0     H  919   3.823   4.861   5.098  0.3620 -0.3360  0.9173
    7MOL0     H  920   3.870   4.730   5.208 -0.4411 -0.2858  1.9193
    7MOL0     H  921   3.659   4.945   5.249 -0.0678  1.6331  1.5649
    7MOL0     H  922   3.722   4.854   5.386  0.2169 -0.6584 -0.4793
    7MOL0     H  923   3.661   4.633   5.262 -2.8947 -0.8861  0.4962
    7MOL0     H  924   3.514   4.731   5.299 -0.2837  1.0200 -0.3332
    7MOL0     H  925   4.618   4.629   5.126  0.1803  0.4558 -0.0482
    7MOL0     H  926   4.842   4.578   5.196  3.6735  3.3316  2.0541
    7MOL0     H  927   5.153   4.450   5.411 -2.2224  2.5288 -1.6976
    7MOL0     H  928   5.386   4.395   5.384 -0.0301  0.6989 -1.2706
    7MOL0     H  929   4.753   4.709   4.512 -1.5796 -0.2396 -1.9454
    7MOL0     H  930   4.557   4.861   4.508 -0.3200 -1.0036 -0.5456
    7MOL0     H  931   4.512   5.401   4.765  1.2287  0.1105 -1.6047
    7MOL0     H  932   4.295   5.516   4.820 -0.9729  1.6199 -1.8174
    7MOL0     H  933   4.138   5.666   4.767  0.7857 -0.0349 -0.0803
    7MOL0     H  934   4.046   5.554   4.868  0.2944 -2.3064 -0.9959
    7MOL0     H  935   3.844   5.601   4.751 -0.1457  0.7431  1.7134
    7MOL0     H  936   3.924   5.715   4.638 -1.3096 -0.1725 -0.0665
    7MOL0     H  937   3.979   5.864   4.822 -2.3505  1.6520  1.0367
    7MOL0     H  938   3.926   5.752   4.941  3.4946  0.4922 -0.8771
    7MOL0     H  939   3.756   5.880   4.725 -0.4575  1.3348  0.4705
    7MOL0     H  940   3.698   5.763   4.857  1.1165 -0.9143 -1.7443
    7MOL0     H  941   3.752   6.123   5.077  0.7719  2.3073 -3.7217
    7MOL0     H  942   4.118   5.373   4.473 -0.1590  1.8978  1.7562
    7MOL0     H  943   4.368   5.247   4.304 -0.8415 -0.0777 -0.6706
    7MOL0     H  944   4.311   5.101   4.395  0.4684 -0.1483 -2.8573
    7MOL0     H  945   4.203   5.227   4.331 -0.4494  1.2588 -0.5405
    8MOL0     O  946   8.300   5.350   2.441  0.1072  0.8765  0.4891
    8MOL0     C  947   8.200   5.405   2.415 -0.1698 -0.0724 -0.1330
    8MOL0     O  948   8.193   5.508   2.330 -0.6378 -0.4099 -0.0208
    8MOL0     C  949   8.306   5.557   2.269 -0.6220 -0.1891 -0.6096
    8MOL0     C  950   8.286   5.595   2.138 -0.0162 -0.2950  0.6107
    8MOL0     C  951   8.383   5.661   2.061 -0.7804 -0.0727  0.3770
    8MOL0     C  952   8.516   5.674   2.113  0.5016 -0.1793  0.1660
    8MOL0     O  953   8.621   5.725   2.036 -0.1371 -0.6846  0.2757
    8MOL0     C  954   8.755   5.705   2.090 -0.6082 -0.0911  0.4407
    8MOL0     C  955   8.865   5.737   1.989 -0.4204 -0.6558  0.3758
    8MOL0     C  956   9.004   5.682   2.022 -0.8615 -0.3795 -0.4235
    8MOL0     C  957   9.096   5.719   1.906 -0.5612 -0.2692 -0.3608
    8MOL0     C  958   9.237   5.659   1.923 -1.0961  0.1293 -0.6099
    8MOL0     C  959   9.302   5.684   2.055 -0.0708 -0.1620 -0.0715
    8MOL0     C  960   9.313   5.833   2.097  0.6043 -0.1545 -0.7284
    8MOL0     C  961   9.370   5.933   1.994  0.0077 -0.4046  0.2196
    8MOL0     N  962   9.508   5.897   1.962  0.6880  0.1266 -0.7007
    8MOL0     C  963   9.613   5.952   2.040 -0.2151  0.2101  0.7262
    8MOL0     C  964   9.716   5.913   1.959  0.5418  0.4955  0.3412
    8MOL0     C  965   9.858   5.967   1.961 -0.4395  0.1838  0.3759
    8MOL0     C  966   9.956   5.853   1.982  0.1640 -0.2811  0.0939
    8MOL0     C  967  10.103   5.891   1.969 -0.6577 -0.2360  0.0397
    8MOL0     C  968  10.146   5.976   1.843  0.6803  0.9119 -0.2448
    8MOL0     O  969  10.285   5.964   1.822 -0.3309  0.2977 -0.3076
    8MOL0     C  970  10.365   6.057   1.879 -0.0725 -0.3223 -0.2533
    8MOL0     C  971  10.494   6.051   1.840 -1.3688 -0.4005 -0.0831
    8MOL0     C  972  10.587   6.136   1.884 -0.4495  0.1095 -0.2524
    8MOL0     C  973  10.564   6.222   1.988 -0.1461 -0.0133  0.4986
    8MOL0     C  974  10.669   6.315   2.021  0.3529 -1.2536 -0.5578
    8MOL0     O  975  10.795   6.310   1.968 -0.1444  0.6436  1.0783
    8MOL0     C  976  10.867   6.419   1.982  0.6592 -0.1883 -0.5185
    8MOL0     C  977  10.983   6.411   2.051  0.0734  0.0852 -0.1666
    8MOL0     C  978  11.064   6.525   2.050  0.8442  0.6814 -0.4503
    8MOL0     C  979  11.036   6.637   1.964 -0.3176  0.3704  0.2673
    8MOL0     O  980  11.125   6.744   1.981  0.5369 -0.3444 -0.5621
    8MOL0     C  981  11.119   6.848   1.878  0.3711 -0.2019  0.4977
    8MOL0     C  982  11.243   6.938   1.880  0.6320  0.7839 -0.6237
    8MOL0     C  983  11.377   6.857   1.870  0.9075 -0.0930 -0.1698
    8MOL0     C  984  11.492   6.942   1.863 -0.2805  0.8664 -0.4216
    8MOL0     C  985  11.614   6.855   1.903  0.0510 -0.2172  1.2880
    8MOL0     C  986  11.750   6.939   1.876  0.1462 -0.3571 -0.1113
    8MOL0     C  987  11.868   6.883   1.952 -0.4084 -0.4574  0.5445
    8MOL0     C  988  11.999   6.950   1.915  0.5062  0.1027  0.1109
    8MOL0    Cl  989  12.112   6.825   1.956  0.1775  0.4547 -0.0728
    8MOL0     C  990  10.923   6.638   1.892  0.7708 -0.1160  0.2902
    8MOL0     C  991  10.833   6.532   1.899  0.7106 -0.2365 -0.2600
    8MOL0     O  992  10.628   6.406   2.087  0.1195 -0.0040 -0.6727
    8MOL0     C  993  10.428   6.240   2.021 -0.1872 -0.5559  0.7099
    8MOL0     C  994  10.325   6.152   1.975  0.1763 -0.6128  0.4622
    8MOL0     N  995   9.683   5.835   1.856  0.0109 -0.1396  0.5099
    8MOL0     N  996   9.557   5.819   1.853  0.9867  0.2457 -0.8523
    8MOL0     C  997   8.535   5.627   2.250  0.7467  0.2005  0.8936
    8MOL0     C  998   8.433   5.575   2.329 -0.6418 -0.0080  0.7392
    8MOL0     C  999   8.075   5.354   2.469  0.4631  0.2211  1.1827
    8MOL0     C 1000   7.978   5.438   2.521  0.1923  0.4030 -0.1461
    8MOL0     C 1001   7.859   5.391   2.571  0.3713 -0.7030  0.4627
    8MOL0     C 1002   7.813   5.265   2.549 -0.5519  0.4253  0.5895
    8MOL0     O 1003   7.692   5.220   2.591 -0.1295 -0.0286  0.2443
    8MOL0     C 1004   7.584   5.317   2.608 -0.0593 -0.1573  0.6089
    8MOL0     C 1005   7.454   5.251   2.599 -0.0813 -0.3777 -0.3551
    8MOL0     C 1006   7.428   5.146   2.711  0.1877  0.2939 -0.5356
    8MOL0     C 1007   7.285   5.098   2.691 -0.5036  0.5385  0.5310
    8MOL0     C 1008   7.181   5.189   2.732 -0.8562  0.0926  0.0829
    8MOL0     C 1009   7.106   5.276   2.778 -0.1767  0.3045 -0.4212
    8MOL0     C 1010   7.914   5.176   2.504  0.6294  0.2098  1.3994
    8MOL0     C 1011   8.041   5.215   2.461 -0.2332 -0.2233 -0.0303
    8MOL0     C 1012   8.139   5.101   2.418 -0.1110  0.4043 -0.2703
    8MOL0     H 1013   8.187   5.594   2.094  0.6299  4.1979 -1.4826
    8MOL0     H 1014   8.364   5.709   1.965 -0.5280 -1.4962 -0.4047
    8MOL0     H 1015   8.781   5.767   2.176  0.0491  1.9143 -1.1100
    8MOL0     H 1016   8.775   5.601   2.119 -0.2420 -0.9717 -2.5651
    8MOL0     H 1017   8.868   5.844   1.965 -0.3968 -0.1927  2.2865
    8MOL0     H 1018   8.821   5.687   1.902  1.2923 -0.1895 -0.7978
    8MOL0     H 1019   9.004   5.573   2.038 -2.2314 -0.5355 -1.3355
    8MOL0     H 1020   9.027   5.731   2.117  0.9091 -1.8896 -0.0047
    8MOL0     H 1021   9.067   5.683   1.807 -0.4289  0.3897 -0.6428
    8MOL0     H 1022   9.112   5.828   1.907 -0.4369 -0.2875  0.2703
    8MOL0     H 1023   9.223   5.552   1.901  1.1053  0.2325 -3.1254
    8MOL0     H 1024   9.306   5.700   1.848 -0.0741  1.9562  1.2355
    8MOL0     H 1025   9.247   5.630   2.133 -0.1688  0.9997  0.6862
    8MOL0     H 1026   9.406   5.651   2.049  0.0544  0.4639 -1.7889
    8MOL0     H 1027   9.370   5.837   2.190 -0.0301 -0.9461 -0.2986
    8MOL0     H 1028   9.215   5.867   2.131 -2.6949 -6.6026 -2.2864
    8MOL0     H 1029   9.307   5.937   1.905 -1.2121  0.6254  1.0978
    8MOL0     H 1030   9.356   6.032   2.038  0.1193  0.8179 -2.3017
    8MOL0     H 1031   9.596   6.017   2.125  0.8376  1.5375 -0.0579
    8MOL0     H 1032   9.886   6.016   1.868 -1.0708 -0.5989 -0.2325
    8MOL0     H 1033   9.873   6.038   2.043 -1.6035 -1.2242  1.9003
    8MOL0     H 1034   9.944   5.827   2.088  1.5281 -1.2655  0.0247
    8MOL0     H 1035   9.924   5.775   1.913 -1.3950  2.6931 -2.8102
    8MOL0     H 1036  10.159   5.799   1.955  0.0190  0.0969  0.5021
    8MOL0     H 1037  10.144   5.937   2.059  3.0458 -1.4090 -0.8887
    8MOL0     H 1038  10.104   6.077   1.850 -1.6886 -0.0941  1.2053
    8MOL0     H 1039  10.102   5.930   1.755 -1.8019 -0.1040  1.4110
    8MOL0     H 1040  10.539   5.982   1.769 -0.7424 -0.8335  0.7144
    8MOL0     H 1041  10.682   6.119   1.834 -1.6407 -4.6697 -1.3784
    8MOL0     H 1042  11.007   6.322   2.109 -0.9498  0.2373  0.5094
    8MOL0     H 1043  11.166   6.532   2.088  1.9372 -0.2945 -2.9493
    8MOL0     H 1044  11.118   6.796   1.782  0.2607  0.3606  0.1928
    8MOL0     H 1045  11.036   6.919   1.882  1.8793  1.6289  0.7681
    8MOL0     H 1046  11.238   7.001   1.791 -0.2540  0.8246 -0.5470
    8MOL0     H 1047  11.245   7.004   1.967 -4.6031  1.8205 -1.0122
    8MOL0     H 1048  11.392   6.790   1.955 -0.8690 -0.8925 -0.4347
    8MOL0     H 1049  11.377   6.786   1.787  2.9877 -0.6940  0.2889
    8MOL0     H 1050  11.482   7.025   1.933  0.4072  1.3892 -0.9351
    8MOL0     H 1051  11.498   6.982   1.762 -1.9401 -1.3034 -1.4606
    8MOL0     H 1052  11.617   6.761   1.847 -1.7251  0.9074 -0.8314
    8MOL0     H 1053  11.608   6.839   2.011 -1.9486  0.8943  1.3806
    8MOL0     H 1054  11.769   6.942   1.768  0.6433 -0.4815 -0.0283
    8MOL0     H 1055  11.739   7.044   1.904  1.3448 -0.0557 -0.7398
    8MOL0     H 1056  11.886   6.776   1.941  1.0393 -0.0794 -1.5465
    8MOL0     H 1057  11.853   6.910   2.057 -1.5103  0.8478  0.0901
    8MOL0     H 1058  12.008   6.974   1.808 -1.6323 -1.2188 -0.4308
    8MOL0     H 1059  12.021   7.045   1.964 -0.2709  0.2770  0.1400
    8MOL0     H 1060  10.897   6.718   1.823  0.2211 -0.2234  0.3659
    8MOL0     H 1061  10.742   6.526   1.840 -0.2290  1.1175  0.9981
    8MOL0     H 1062  10.385   6.311   2.092 -0.3576 -0.6358  0.6858
    8MOL0     H 1063  10.226   6.165   2.016  1.0082  1.0935  2.0931
    8MOL0     H 1064   8.634   5.627   2.294  1.5656 -3.6992 -0.5362
    8MOL0     H 1065   8.454   5.531   2.426 -0.8379  0.7447  1.1266
    8MOL0     H 1066   7.993   5.544   2.541 -3.2360  1.3981 -1.9093
    8MOL0     H 1067   7.800   5.459   2.632 -0.8501 -1.4555  0.1627
    8MOL0     H 1068   7.594   5.393   2.530 -0.3031  0.6197  1.3207
    8MOL0     H 1069   7.595   5.358   2.709  1.6160  0.8964  0.0582
    8MOL0     H 1070   7.440   5.215   2.497 -2.7207  2.9288 -1.3555
    8MOL0     H 1071   7.367   5.317   2.601 -1.0086 -1.5130 -1.3461
    8MOL0     H 1072   7.450   5.182   2.812  0.9370 -1.5796  0.0130
    8MOL0     H 1073   7.489   5.057   2.694  0.5712 -0.2202  2.9321
    8MOL0     H 1074   7.275   5.076   2.584  4.4797 -0.4942  0.0410
    8MOL0     H 1075   7.274   5.010   2.754 -0.3492  1.4607  1.8698
    8MOL0     H 1076   7.046   5.356   2.816 -1.8884 -1.0891 -0.0837
    8MOL0     H 1077   7.899   5.068   2.512  2.2906  0.0834  3.8750
    8MOL0     H 1078   8.208   5.081   2.500 -0.8739  1.5380  0.6714
    8MOL0     H 1079   8.084   5.013   2.382  1.6360 -0.4762 -0.9168
    8MOL0     H 1080   8.203   5.140   2.338 -2.4131  2.1279 -1.3746
    9MOL0     O 1081   7.702   5.265  10.636 -0.2540  0.0124  0.2193
    9MOL0     C 1082   7.633   5.317  10.719 -0.2807  0.0297  0.0521
    9MOL0     O 1083   7.674   5.412  10.812  0.5677  0.3696  0.3945
    9MOL0     C 1084   7.802   5.453  10.799  0.0654  0.5834 -0.2750
    9MOL0     C 1085   7.909   5.389  10.864 -0.2174 -0.7025  0.5446
    9MOL0     C 1086   8.038   5.445  10.845 -0.0270 -0.1593 -0.3138
    9MOL0     C 1087   8.057   5.561  10.766 -0.5936 -0.2310  0.8672
    9MOL0     O 1088   8.193   5.607  10.739  0.1850  0.3149 -0.2356
    9MOL0     C 1089   8.210   5.722  10.661  0.4063  0.2268 -0.0257
    9MOL0     C 1090   8.345   5.724  10.593 -0.5579  0.4871  0.0093
    9MOL0     C 1091   8.457   5.743  10.693 -0.0717 -0.5219 -0.7187
    9MOL0     C 1092   8.599   5.741  10.617  0.0476 -0.3472 -0.2630
    9MOL0     C 1093   8.640   5.598  10.593 -0.3718 -0.5374  0.2586
    9MOL0     C 1094   8.772   5.602  10.514  0.0584  0.3099  0.2836
    9MOL0     C 1095   8.827   5.458  10.496  0.0395 -0.1261  1.2555
    9MOL0     C 1096   8.913   5.450  10.381 -0.2941  0.5731  0.8469
    9MOL0     N 1097   9.048   5.517  10.398 -0.0742  0.5117 -0.3724
    9MOL0     C 1098   9.109   5.618  10.328 -0.3217  0.6838 -0.6219
    9MOL0     C 1099   9.231   5.623  10.385  0.2882 -0.1682  0.7494
    9MOL0     C 1100   9.348   5.694  10.326  0.0129 -0.2516  0.3346
    9MOL0     C 1101   9.319   5.846  10.343 -0.1025 -0.0973 -0.4337
    9MOL0     C 1102   9.406   5.914  10.451 -0.8646  0.4109 -0.4051
    9MOL0     C 1103   9.559   5.929  10.421  0.0560  0.1265  0.0458
    9MOL0     O 1104   9.638   5.908  10.541 -0.5265 -0.4848 -0.2733
    9MOL0     C 1105   9.776   5.906  10.530 -0.0848  0.3725  0.4071
    9MOL0     C 1106   9.839   5.851  10.644 -0.0006  0.3569  0.5023
    9MOL0     C 1107   9.977   5.834  10.650  0.4899 -0.3591  0.8904
    9MOL0     C 1108  10.057   5.865  10.539 -0.3191 -0.7306  0.6274
    9MOL0     C 1109  10.203   5.875  10.556  0.3061  0.0324  0.4642
    9MOL0     O 1110  10.277   5.930  10.448  0.0383  0.1070 -0.0690
    9MOL0     C 1111  10.408   5.966  10.474  0.1516  0.0791 -1.1846
    9MOL0     C 1112  10.513   5.894  10.423  0.2096 -1.1654  0.3621
    9MOL0     C 1113  10.643   5.923  10.468  0.7904 -0.1912  0.1958
    9MOL0     C 1114  10.667   6.020  10.566  0.4494 -0.1049 -0.0523
    9MOL0     O 1115  10.790   6.047  10.627  0.0289  0.1696 -0.1854
    9MOL0     C 1116  10.907   6.015  10.544  0.0288 -0.1732 -0.2380
    9MOL0     C 1117  11.036   6.027  10.609  0.0991 -0.1925  0.2113
    9MOL0     C 1118  11.151   6.032  10.502 -0.0243  0.4614  0.3736
    9MOL0     C 1119  11.287   6.076  10.561 -0.8324 -0.1468 -0.4494
    9MOL0     C 1120  11.348   5.977  10.658  0.2698 -0.0930 -0.3154
    9MOL0     C 1121  11.501   6.000  10.672 -0.7940  0.0426  0.2856
    9MOL0     C 1122  11.553   6.117  10.757 -0.3891  0.8003 -0.4253
    9MOL0     C 1123  11.688   6.175  10.709 -0.5130  0.5980 -0.0705
    9MOL0    Cl 1124  11.696   6.260  10.546  0.3493  0.2967  0.0238
    9MOL0     C 1125  10.558   6.091  10.611  1.0677 -0.7456  0.2422
    9MOL0     C 1126  10.427   6.072  10.557 -0.0626 -0.0401  1.2084
    9MOL0     O 1127  10.251   5.845  10.661  0.0758 -0.2859 -0.4828
    9MOL0     C 1128   9.996   5.904  10.417  0.4576 -0.6332  0.3258
    9MOL0     C 1129   9.857   5.929  10.415  0.3033 -1.0543 -0.5180
    9MOL0     N 1130   9.249   5.527  10.479  0.5195  0.2460  0.2802
    9MOL0     N 1131   9.136   5.467  10.490 -0.2122 -0.2897 -0.1212
    9MOL0     C 1132   7.949   5.637  10.725  0.6659 -0.1643  0.5857
    9MOL0     C 1133   7.827   5.579  10.741  0.3729  0.5671  0.7287
    9MOL0     C 1134   7.501   5.253  10.737 -0.4727 -1.0331 -1.0625
    9MOL0     C 1135   7.410   5.331  10.805 -0.5022 -0.4566 -0.3435
    9MOL0     C 1136   7.280   5.286  10.819  0.7954  0.5490  0.1183
    9MOL0     C 1137   7.242   5.157  10.788  0.0527 -0.3206 -0.1919
    9MOL0     O 1138   7.125   5.094  10.834 -0.0695  0.2991  0.1686
    9MOL0     C 1139   7.021   5.173  10.888 -0.9517 -0.8069 -0.1009
    9MOL0     C 1140   6.890   5.084  10.896 -0.7131 -0.5632  0.0893
    9MOL0     C 1141   6.899   4.959  10.992 -0.4654  0.0190  0.7196
    9MOL0     C 1142   6.806   4.847  10.934 -0.6477 -0.1742  0.3498
    9MOL0     C 1143   6.662   4.885  10.924 -0.4244  0.7957 -0.6629
    9MOL0     C 1144   6.548   4.920  10.909  0.4863  0.0636 -0.1300
    9MOL0     C 1145   7.334   5.081  10.717  0.8041  0.9736 -0.0105
    9MOL0     C 1146   7.460   5.123  10.686 -0.4355 -0.8583 -0.4528
    9MOL0     C 1147   7.548   5.019  10.621  0.1303  0.6016  0.0556
    9MOL0     H 1148   7.886   5.294  10.911 -0.7649 -0.3753  0.9641
    9MOL0     H 1149   8.117   5.381  10.883  0.5549  1.6396  1.7208
    9MOL0     H 1150   8.136   5.724  10.580 -0.9286 -2.0052  1.0488
    9MOL0     H 1151   8.192   5.805  10.730 -3.1283 -0.7011  0.3761
    9MOL0     H 1152   8.347   5.803  10.518 -1.1028 -0.6997 -1.2996
    9MOL0     H 1153   8.351   5.626  10.545 -2.4849  0.6355 -0.6122
    9MOL0     H 1154   8.459   5.661  10.765  0.9869  2.6346  3.1840
    9MOL0     H 1155   8.444   5.833  10.754  1.7357 -0.3389 -0.5595
    9MOL0     H 1156   8.592   5.806  10.530  1.0910  0.5378  0.2983
    9MOL0     H 1157   8.666   5.783  10.693  0.2150  1.3160 -1.2846
    9MOL0     H 1158   8.656   5.540  10.684  0.3719 -3.7485 -1.7789
    9MOL0     H 1159   8.562   5.546  10.537 -2.0026  1.7815  0.2124
    9MOL0     H 1160   8.745   5.652  10.421 -0.2488  2.5182  1.4976
    9MOL0     H 1161   8.845   5.658  10.573 -3.3403  1.8449  3.4157
    9MOL0     H 1162   8.747   5.384  10.494  0.1751 -0.3709 -3.0587
    9MOL0     H 1163   8.883   5.428  10.585 -0.4488 -0.2047  1.5382
    9MOL0     H 1164   8.933   5.345  10.360  0.6726  1.2788 -2.1297
    9MOL0     H 1165   8.856   5.472  10.290 -1.3891  0.7411  1.5515
    9MOL0     H 1166   9.073   5.670  10.240  1.0395  2.6470 -0.0934
    9MOL0     H 1167   9.424   5.658  10.397 -2.2225 -4.5372  0.8516
    9MOL0     H 1168   9.379   5.660  10.227 -0.2215 -1.9678  0.8166
    9MOL0     H 1169   9.325   5.903  10.249 -0.3988  1.5513  0.5107
    9MOL0     H 1170   9.218   5.873  10.374  1.1597  4.4501  0.4821
    9MOL0     H 1171   9.407   5.851  10.540  0.0561  0.9454 -0.0172
    9MOL0     H 1172   9.344   6.000  10.480 -1.3740  0.2272 -0.9345
    9MOL0     H 1173   9.568   6.036  10.404 -2.9135  1.3461  4.4438
    9MOL0     H 1174   9.589   5.872  10.333 -1.5644  2.0931 -1.8897
    9MOL0     H 1175   9.782   5.830  10.734 -0.0164  1.2950  0.7238
    9MOL0     H 1176  10.021   5.801  10.744  0.2962 -3.3340  0.0318
    9MOL0     H 1177  10.502   5.826  10.340  0.2195 -0.3995 -0.2748
    9MOL0     H 1178  10.729   5.871  10.426  0.9660  0.9462 -0.9031
    9MOL0     H 1179  10.891   5.915  10.502 -4.7138  0.8448 -1.4969
    9MOL0     H 1180  10.918   6.081  10.457  1.3144  0.4509  0.3631
    9MOL0     H 1181  11.027   6.126  10.655 -1.8009  0.9827 -2.4603
    9MOL0     H 1182  11.040   5.955  10.692 -1.3524  0.7268  1.1325
    9MOL0     H 1183  11.157   5.944  10.438  1.7879  2.0536 -1.8107
    9MOL0     H 1184  11.129   6.115  10.435 -0.6663 -1.6854 -2.2398
    9MOL0     H 1185  11.275   6.171  10.614 -0.9819 -0.0951 -0.5730
    9MOL0     H 1186  11.351   6.090  10.473 -0.9203 -4.7437 -1.4884
    9MOL0     H 1187  11.332   5.874  10.626 -3.0920  0.1374  0.3139
    9MOL0     H 1188  11.303   5.980  10.757  1.1018  1.9758  0.0556
    9MOL0     H 1189  11.542   5.907  10.712  0.5833  0.3158 -0.4601
    9MOL0     H 1190  11.536   6.012  10.569 -2.2132 -1.0288 -0.3640
    9MOL0     H 1191  11.576   6.077  10.857  6.8425  1.5688 -1.2390
    9MOL0     H 1192  11.475   6.193  10.761 -0.3359  0.8177  0.7176
    9MOL0     H 1193  11.712   6.252  10.783  0.2458  0.8481 -0.5642
    9MOL0     H 1194  11.760   6.092  10.710  0.5425  1.4561  2.0026
    9MOL0     H 1195  10.577   6.164  10.688 -1.1737 -0.7576  0.8750
    9MOL0     H 1196  10.353   6.141  10.596 -0.1407  0.4581  0.1999
    9MOL0     H 1197  10.058   5.932  10.333  1.7454  0.3698  1.5469
    9MOL0     H 1198   9.814   5.976  10.327  0.9236  1.2804  0.3682
    9MOL0     H 1199   7.962   5.734  10.679 -2.8325  0.1686  0.0199
    9MOL0     H 1200   7.742   5.637  10.707 -0.1345 -0.4401  0.2253
    9MOL0     H 1201   7.434   5.427  10.851 -2.0320  0.2076 -0.8389
    9MOL0     H 1202   7.197   5.353  10.841  0.7264 -0.2064  2.4041
    9MOL0     H 1203   7.008   5.255  10.817 -2.0269  0.1374  1.1585
    9MOL0     H 1204   7.035   5.222  10.985 -1.1915  0.5847 -0.7454
    9MOL0     H 1205   6.864   5.054  10.794  2.3252 -1.8529 -0.3888
    9MOL0     H 1206   6.805   5.147  10.923 -0.2772  0.4539 -0.8671
    9MOL0     H 1207   6.877   4.995  11.093  1.9674  0.7494  1.0469
    9MOL0     H 1208   7.002   4.921  10.994 -0.9371 -1.3966  2.9741
    9MOL0     H 1209   6.838   4.825  10.832 -3.7482  0.2657 -0.8364
    9MOL0     H 1210   6.809   4.753  10.990 -0.6411  0.3295  1.2127
    9MOL0     H 1211   6.446   4.948  10.894  0.7939  1.3163  0.0273
    9MOL0     H 1212   7.305   4.978  10.697 -0.1574  0.6821  2.4666
    9MOL0     H 1213   7.622   5.058  10.550 -0.5535 -0.7367 -1.4659
    9MOL0     H 1214   7.604   4.956  10.692  0.8301  0.0762 -0.9391
    9MOL0     H 1215   7.494   4.949  10.557  2.9120  0.7183 -2.6573
   10MOL0     O 1216   9.159   8.374   5.482  0.3371  0.2893  0.3117
   10MOL0     C 1217   9.052   8.410   5.519  0.1502 -1.2614 -0.3897
   10MOL0     O 1218   9.031   8.516   5.616  0.4328  0.7425 -0.0560
   10MOL0     C 1219   9.130   8.569   5.685 -0.3829  0.2644  0.3478
   10MOL0     C 1220   9.249   8.607   5.626 -0.3050  0.0752  0.1714
   10MOL0     C 1221   9.354   8.660   5.697  0.0628 -0.4064  0.1413
   10MOL0     C 1222   9.338   8.674   5.836  0.3633  0.6059 -1.0871
   10MOL0     O 1223   9.444   8.693   5.920  0.2731 -0.5319  0.9311
   10MOL0     C 1224   9.569   8.635   5.886 -0.0298 -0.0092 -0.4496
   10MOL0     C 1225   9.659   8.644   6.007  0.1537  0.4830  0.1874
   10MOL0     C 1226   9.801   8.578   6.002 -0.3280  0.4802  0.0844
   10MOL0     C 1227   9.888   8.618   6.118 -0.9025  1.0604 -0.3590
   10MOL0     C 1228  10.032   8.563   6.114 -1.1598  0.1413  0.5712
   10MOL0     C 1229  10.091   8.561   6.255 -1.4362 -0.4342 -0.0048
   10MOL0     C 1230  10.237   8.507   6.249  0.6871  1.2598 -0.9504
   10MOL0     C 1231  10.325   8.583   6.154 -0.4086  0.5609 -0.2470
   10MOL0     N 1232  10.464   8.539   6.163 -0.4849 -1.1684 -0.1507
   10MOL0     C 1233  10.512   8.416   6.164  0.0739 -0.1283 -0.2068
   10MOL0     C 1234  10.645   8.423   6.193  0.0399  0.1827  0.1232
   10MOL0     C 1235  10.734   8.307   6.215 -0.1216 -0.0436  0.1712
   10MOL0     C 1236  10.879   8.345   6.226  0.1261 -0.6521  0.5947
   10MOL0     C 1237  10.964   8.227   6.266 -0.3575  0.5049 -0.1594
   10MOL0     C 1238  11.113   8.247   6.277  0.0918 -0.8537 -0.3690
   10MOL0     O 1239  11.151   8.297   6.149 -0.2999 -0.7843 -0.2789
   10MOL0     C 1240  11.285   8.328   6.125  0.5335 -0.0271 -0.1645
   10MOL0     C 1241  11.386   8.317   6.212 -0.2716 -0.0437  0.2590
   10MOL0     C 1242  11.522   8.345   6.183 -0.2943  0.1810 -0.0380
   10MOL0     C 1243  11.554   8.367   6.043  0.1797 -0.2604  0.1897
   10MOL0     C 1244  11.698   8.377   6.004  0.9362 -0.4720  0.1779
   10MOL0     O 1245  11.784   8.348   6.110  0.0156 -0.3702 -0.1652
   10MOL0     C 1246  11.918   8.355   6.082 -0.1360  0.6290 -0.1392
   10MOL0     C 1247  11.985   8.477   6.086 -0.3631  0.1941 -0.1229
   10MOL0     C 1248  12.126   8.484   6.078  0.2002 -0.4126 -0.0157
   10MOL0     C 1249  12.208   8.364   6.067  1.7229  0.0085  1.2862
   10MOL0     O 1250  12.342   8.349   6.055  0.0239 -0.5873 -0.6003
   10MOL0     C 1251  12.422   8.467   6.058 -0.0460  0.0081 -0.1132
   10MOL0     C 1252  12.571   8.420   6.039 -0.3675 -0.2948 -0.0637
   10MOL0     C 1253  12.669   8.544   6.003  0.8193 -0.7211  0.1462
   10MOL0     C 1254  12.818   8.511   6.043  0.0512 -0.3757  1.8067
   10MOL0     C 1255  12.894   8.646   6.005  0.4190 -0.8812  0.1172
   10MOL0     C 1256  13.041   8.634   5.987  0.4542 -0.6725 -0.2001
   10MOL0     C 1257  13.094   8.771   5.970  0.0490 -0.2133  0.9736
   10MOL0     C 1258  13.242   8.765   5.921 -0.0971  0.0059 -0.0229
   10MOL0    Cl 1259  13.311   8.932   5.880  0.3131 -0.1816  0.1437
   10MOL0     C 1260  12.138   8.247   6.056 -0.7161 -0.0241  0.5310
   10MOL0     C 1261  12.004   8.241   6.058  1.0987 -0.4434 -0.2150
   10MOL0     O 1262  11.734   8.431   5.899 -0.3145  0.0256  0.1528
   10MOL0     C 1263  11.446   8.388   5.955 -0.2707 -0.5899 -0.3063
   10MOL0     C 1264  11.314   8.368   5.997  0.8358 -0.0418  0.1615
   10MOL0     N 1265  10.680   8.562   6.207  0.2655  0.3225  0.8211
   10MOL0     N 1266  10.573   8.625   6.183 -0.0026 -0.1215 -0.4422
   10MOL0     C 1267   9.211   8.652   5.897  0.6343 -1.0748 -0.5977
   10MOL0     C 1268   9.110   8.592   5.820  0.4739  0.0833  0.7037
   10MOL0     C 1269   8.928   8.358   5.467 -0.0976 -1.1370  0.2644
   10MOL0     C 1270   8.902   8.222   5.492  0.2594  0.2157  0.1816
   10MOL0     C 1271   8.782   8.175   5.450 -0.3084  1.2169 -0.2826
   10MOL0     C 1272   8.675   8.250   5.393 -0.3377  0.0719  1.0423
   10MOL0     O 1273   8.557   8.200   5.343  0.2345  0.1302  0.4430
   10MOL0     C 1274   8.526   8.067   5.366  0.1829  0.8218 -0.6062
   10MOL0     C 1275   8.385   8.046   5.322  0.3103 -0.0654 -0.2401
   10MOL0     C 1276   8.271   8.120   5.410 -1.3500  0.1713  0.3744
   10MOL0     C 1277   8.132   8.119   5.341 -0.9160 -0.8433  0.2889
   10MOL0     C 1278   8.037   8.214   5.413  1.3686  0.0601 -0.0168
   10MOL0     C 1279   7.953   8.299   5.451 -1.0823 -0.5287  0.0625
   10MOL0     C 1280   8.708   8.387   5.370 -0.4745 -0.3981 -1.2818
   10MOL0     C 1281   8.834   8.437   5.405  0.3571 -1.4306 -0.2049
   10MOL0     C 1282   8.854   8.581   5.379 -0.3687  0.1945 -0.2241
   10MOL0     H 1283   9.262   8.612   5.518  1.1008 -1.1046  0.2584
   10MOL0     H 1284   9.446   8.693   5.648  0.2851  2.6405  2.3335
   10MOL0     H 1285   9.565   8.532   5.851  1.3688 -0.2626  0.0775
   10MOL0     H 1286   9.612   8.697   5.806 -1.2685  1.5603  0.0413
   10MOL0     H 1287   9.612   8.584   6.086  1.2242 -0.5033  0.1045
   10MOL0     H 1288   9.678   8.746   6.040  4.1907  0.5205 -1.6521
   10MOL0     H 1289   9.847   8.605   5.907  2.5603  3.0517  2.0124
   10MOL0     H 1290   9.788   8.469   6.008 -2.5731  0.6880 -0.2918
   10MOL0     H 1291   9.890   8.727   6.113  0.0901  1.0409 -0.4727
   10MOL0     H 1292   9.833   8.592   6.210  1.1477  0.2584  0.7182
   10MOL0     H 1293  10.038   8.461   6.075  2.4564  0.2591  0.4536
   10MOL0     H 1294  10.087   8.634   6.052  0.9485  0.0412  2.1892
   10MOL0     H 1295  10.098   8.664   6.292 -0.4542 -0.2286 -0.7082
   10MOL0     H 1296  10.027   8.502   6.321  1.6090  0.2043  3.9120
   10MOL0     H 1297  10.226   8.403   6.215 -2.2433  1.7764 -1.8603
   10MOL0     H 1298  10.279   8.496   6.349 -1.0703 -2.5660 -0.4383
   10MOL0     H 1299  10.290   8.563   6.053 -0.6918  0.1529 -0.0715
   10MOL0     H 1300  10.326   8.687   6.187  0.6065  0.7145 -0.7335
   10MOL0     H 1301  10.454   8.325   6.152 -0.0143 -0.3674  1.7191
   10MOL0     H 1302  10.694   8.255   6.303 -0.3990  0.0504  0.1034
   10MOL0     H 1303  10.724   8.238   6.131 -0.0134  0.6544 -0.4257
   10MOL0     H 1304  10.914   8.368   6.126 -1.4224 -0.9068 -0.0371
   10MOL0     H 1305  10.905   8.425   6.296 -1.2909 -0.0042  0.4303
   10MOL0     H 1306  10.953   8.145   6.195  4.9069 -0.7804  0.0939
   10MOL0     H 1307  10.931   8.180   6.359 -2.6445  1.2694 -0.5242
   10MOL0     H 1308  11.164   8.153   6.300 -0.6479 -1.9173 -2.7082
   10MOL0     H 1309  11.135   8.323   6.353  0.8709 -0.8898 -0.5504
   10MOL0     H 1310  11.372   8.293   6.316  1.9604  0.3337  0.7083
   10MOL0     H 1311  11.593   8.327   6.263  1.5357  0.1226 -1.6099
   10MOL0     H 1312  11.934   8.573   6.099  0.3259  0.8279 -1.8151
   10MOL0     H 1313  12.179   8.578   6.072 -1.5682  0.7119  1.0943
   10MOL0     H 1314  12.401   8.528   5.970 -0.3346 -0.7862 -0.6012
   10MOL0     H 1315  12.397   8.517   6.152 -2.6858 -1.4952  0.1149
   10MOL0     H 1316  12.609   8.385   6.136  0.5950  0.4355 -0.1611
   10MOL0     H 1317  12.578   8.339   5.965 -0.2250 -1.3297  1.0345
   10MOL0     H 1318  12.665   8.557   5.895  1.1418 -2.2541 -0.0792
   10MOL0     H 1319  12.624   8.625   6.061 -0.7722 -1.9814  0.7711
   10MOL0     H 1320  12.855   8.432   5.978 -0.4553  0.7962  0.0150
   10MOL0     H 1321  12.828   8.480   6.148 -2.7391 -1.8737  1.7255
   10MOL0     H 1322  12.866   8.731   6.067  0.3377  0.5016 -1.7206
   10MOL0     H 1323  12.854   8.674   5.907  1.0266 -2.3025 -0.5840
   10MOL0     H 1324  13.087   8.595   6.079  4.2081  0.3289 -1.4518
   10MOL0     H 1325  13.063   8.572   5.899  2.2412  2.0706 -1.8214
   10MOL0     H 1326  13.077   8.850   6.043 -1.1013  3.4395 -2.8376
   10MOL0     H 1327  13.039   8.812   5.885  1.5587  0.8177  0.4583
   10MOL0     H 1328  13.310   8.732   6.000 -0.1163 -0.3921 -0.1726
   10MOL0     H 1329  13.257   8.714   5.825 -1.5503  1.8696 -1.3148
   10MOL0     H 1330  12.209   8.171   6.027  0.7377  1.4374  0.0646
   10MOL0     H 1331  11.954   8.145   6.057 -1.2273  0.6708  0.9989
   10MOL0     H 1332  11.468   8.405   5.850  0.0973 -3.3574 -0.7522
   10MOL0     H 1333  11.235   8.374   5.923  0.7015 -2.4942  0.0213
   10MOL0     H 1334   9.207   8.671   6.004 -1.5584  3.0878 -1.2322
   10MOL0     H 1335   9.019   8.565   5.872 -0.4242  2.1681  0.2939
   10MOL0     H 1336   8.975   8.155   5.536  0.2528 -0.8149 -1.2916
   10MOL0     H 1337   8.765   8.067   5.453  0.7045  1.0633  0.6785
   10MOL0     H 1338   8.540   8.037   5.470 -0.6695  0.9132 -0.4544
   10MOL0     H 1339   8.586   7.998   5.306  0.3881 -2.0312  2.5949
   10MOL0     H 1340   8.363   7.940   5.338  1.0934 -0.1463  0.3792
   10MOL0     H 1341   8.385   8.058   5.214 -0.2841 -3.0024 -0.6425
   10MOL0     H 1342   8.304   8.225   5.417  3.1692 -0.7679 -2.3574
   10MOL0     H 1343   8.259   8.073   5.508 -0.3439 -0.5854  0.1546
   10MOL0     H 1344   8.141   8.136   5.233 -0.3718  1.2799  0.6215
   10MOL0     H 1345   8.095   8.017   5.354 -0.0576 -1.1150  0.7101
   10MOL0     H 1346   7.894   8.381   5.487 -0.5592 -1.3452  3.0713
   10MOL0     H 1347   8.637   8.455   5.325  0.5401 -0.1698 -2.6047
   10MOL0     H 1348   8.797   8.611   5.290 -0.7675 -0.6910 -0.2807
   10MOL0     H 1349   8.818   8.646   5.459  1.7156  0.7452  0.3272
   10MOL0     H 1350   8.958   8.610   5.362  0.1457 -1.4852 -0.1091
   11MOL0     O 1351   0.114   8.636   2.794  0.4207  0.2031 -0.1908
   11MOL0     C 1352   0.015   8.702   2.828  0.3206  0.0066  0.5294
   11MOL0     O 1353   0.015   8.815   2.902  0.3288  0.0140 -0.0419
   11MOL0     C 1354   0.126   8.865   2.959 -0.7314 -0.8514 -0.4833
   11MOL0     C 1355   0.134   9.004   2.965 -0.5173 -0.9253  1.0934
   11MOL0     C 1356   0.250   9.079   3.002  0.4446  0.1525  0.1614
   11MOL0     C 1357   0.363   9.014   3.040 -0.1573 -0.5442 -0.0014
   11MOL0     O 1358   0.483   9.081   3.056  0.2147 -0.8850 -0.7350
   11MOL0     C 1359   0.498   9.172   3.165  0.1344 -0.4538 -0.4592
   11MOL0     C 1360   0.608   9.272   3.148  0.1424  0.3331  0.0223
   11MOL0     C 1361   0.739   9.214   3.098 -0.4523  0.1710  0.1418
   11MOL0     C 1362   0.842   9.320   3.139  0.2034 -0.6656  0.3534
   11MOL0     C 1363   0.991   9.280   3.100 -0.4431  0.6006 -0.3263
   11MOL0     C 1364   1.086   9.401   3.122  0.4213 -0.6172  0.2779
   11MOL0     C 1365   1.091   9.453   3.269  0.1415 -0.1848 -0.0988
   11MOL0     C 1366   1.205   9.554   3.296  0.7387  0.1834  0.5431
   11MOL0     N 1367   1.188   9.678   3.223  0.4438 -0.4569 -0.4505
   11MOL0     C 1368   1.215   9.705   3.093  0.1304  0.4455 -0.1693
   11MOL0     C 1369   1.175   9.835   3.071  0.0677  0.4829 -0.4957
   11MOL0     C 1370   1.188   9.903   2.943  0.1450  0.0347  0.9484
   11MOL0     C 1371   1.329   9.948   2.937 -0.1927  0.3303 -0.0340
   11MOL0     C 1372   1.348  10.058   2.833  0.9867 -0.7518  0.6853
   11MOL0     C 1373   1.497  10.108   2.821  0.3488  0.1738 -0.1198
   11MOL0     O 1374   1.509  10.203   2.725 -0.6090 -0.0414 -0.0504
   11MOL0     C 1375   1.633  10.248   2.693 -0.4262 -0.2419 -0.1524
   11MOL0     C 1376   1.755  10.208   2.748  0.1847 -0.6824 -0.1506
   11MOL0     C 1377   1.878  10.248   2.690  0.2535  0.0132  0.2986
   11MOL0     C 1378   1.884  10.328   2.575  0.0879 -0.3983  0.0098
   11MOL0     C 1379   2.012  10.377   2.513 -0.0471  0.1086 -0.5896
   11MOL0     O 1380   2.133  10.317   2.547  0.0661  0.5429  0.2848
   11MOL0     C 1381   2.243  10.339   2.470  1.0990 -0.3242  0.4896
   11MOL0     C 1382   2.298  10.241   2.382  0.3926  0.5995 -0.2252
   11MOL0     C 1383   2.405  10.280   2.293 -0.1417  1.1402 -0.1985
   11MOL0     C 1384   2.463  10.406   2.299  0.6902 -0.4575  0.3060
   11MOL0     O 1385   2.564  10.454   2.223  0.3108  0.0464 -0.1934
   11MOL0     C 1386   2.671  10.356   2.206 -0.1766 -0.0798  0.0090
   11MOL0     C 1387   2.797  10.433   2.175  1.0612 -0.0655 -0.3655
   11MOL0     C 1388   2.834  10.517   2.293 -0.5974  0.4055  0.5252
   11MOL0     C 1389   2.954  10.614   2.261  0.4713 -0.4398  0.7567
   11MOL0     C 1390   3.088  10.546   2.254 -0.0367 -0.8976  0.0062
   11MOL0     C 1391   3.183  10.641   2.184 -0.6312 -0.2442  0.1411
   11MOL0     C 1392   3.328  10.579   2.183  0.2721 -0.3650 -0.3279
   11MOL0     C 1393   3.413  10.670   2.098  0.2354  0.0234  0.5538
   11MOL0    Cl 1394   3.577  10.591   2.096 -0.3519  0.1801  0.0621
   11MOL0     C 1395   2.407  10.496   2.390 -0.6296  0.0313  0.4756
   11MOL0     C 1396   2.301  10.466   2.468 -0.6792 -0.3509 -0.3790
   11MOL0     O 1397   2.003  10.470   2.427  0.2295  0.1269  0.4363
   11MOL0     C 1398   1.759  10.376   2.523  0.0772  0.9140  0.1879
   11MOL0     C 1399   1.634  10.342   2.580 -0.5248  0.7629 -1.0767
   11MOL0     N 1400   1.139   9.885   3.199 -0.6355 -0.0276  0.3614
   11MOL0     N 1401   1.150   9.792   3.288 -0.1778 -0.3271 -0.2465
   11MOL0     C 1402   0.359   8.875   3.047  0.6009  0.1076  0.0459
   11MOL0     C 1403   0.236   8.798   3.015 -0.2466 -0.1039 -0.1382
   11MOL0     C 1404  -0.110   8.632   2.793  0.0861  0.3836 -0.1093
   11MOL0     C 1405  -0.222   8.682   2.854  0.1302  0.1820 -0.3320
   11MOL0     C 1406  -0.344   8.619   2.837  0.3008  0.0516 -0.0206
   11MOL0     C 1407  -0.361   8.521   2.733 -0.5364  0.1192 -0.5863
   11MOL0     O 1408  -0.486   8.471   2.734  0.0110 -0.1772 -0.0007
   11MOL0     C 1409  -0.529   8.399   2.614  0.7024  1.2798 -0.0791
   11MOL0     C 1410  -0.511   8.251   2.640  0.1393  1.0164  0.6607
   11MOL0     C 1411  -0.547   8.168   2.503 -0.0725  0.3843 -0.8846
   11MOL0     C 1412  -0.443   8.186   2.405 -0.7982  0.2683  0.5109
   11MOL0     C 1413  -0.418   8.077   2.311  0.6918 -0.4693  0.0684
   11MOL0     C 1414  -0.408   7.978   2.242 -0.1703  0.0221 -0.3520
   11MOL0     C 1415  -0.249   8.473   2.666 -0.9141  0.4287 -0.7490
   11MOL0     C 1416  -0.121   8.532   2.694  0.5494  0.4296 -0.4498
   11MOL0     C 1417  -0.010   8.473   2.605  0.4094 -0.1690  0.2643
   11MOL0     H 1418   0.045   9.061   2.939  2.0062  2.3610 -1.4565
   11MOL0     H 1419   0.232   9.184   2.983 -1.4133  0.2611  2.0726
   11MOL0     H 1420   0.401   9.216   3.191 -1.9294 -4.1863 -1.1280
   11MOL0     H 1421   0.530   9.118   3.255 -2.0995  1.1617  1.4355
   11MOL0     H 1422   0.611   9.330   3.241 -1.2621 -0.7357  0.7719
   11MOL0     H 1423   0.585   9.336   3.062 -0.9744  0.5916  0.5025
   11MOL0     H 1424   0.757   9.202   2.991  1.3241 -4.4265  0.7182
   11MOL0     H 1425   0.760   9.115   3.140  0.4687 -0.5171 -1.8363
   11MOL0     H 1426   0.815   9.410   3.083 -1.7096 -2.2967 -1.4808
   11MOL0     H 1427   0.836   9.345   3.246 -0.2631  3.4475 -0.4597
   11MOL0     H 1428   1.019   9.195   3.163 -2.5780  0.5556  0.6305
   11MOL0     H 1429   1.006   9.246   2.997 -2.4331  1.4471 -0.9308
   11MOL0     H 1430   1.183   9.373   3.081  0.1443  0.2092 -0.9744
   11MOL0     H 1431   1.040   9.477   3.059 -3.0453 -1.6758  1.3293
   11MOL0     H 1432   1.088   9.364   3.333 -1.7576 -0.3109 -0.2918
   11MOL0     H 1433   0.995   9.501   3.292  0.7601 -0.2223  3.0144
   11MOL0     H 1434   1.217   9.568   3.404 -0.6543 -0.5268  0.8191
   11MOL0     H 1435   1.299   9.524   3.250 -1.1267 -2.4557 -1.9410
   11MOL0     H 1436   1.255   9.631   3.025 -3.1194 -0.4233 -1.3113
   11MOL0     H 1437   1.168   9.835   2.860 -0.9753  0.6908  0.6595
   11MOL0     H 1438   1.114   9.983   2.948 -0.0691 -0.2028  1.7277
   11MOL0     H 1439   1.363   9.971   3.038  2.0353  5.7087 -1.6661
   11MOL0     H 1440   1.397   9.867   2.908  1.0036  0.4990  2.0927
   11MOL0     H 1441   1.285  10.144   2.858  0.9390 -0.9702  1.3501
   11MOL0     H 1442   1.309  10.019   2.739 -2.0486 -0.6269  1.7971
   11MOL0     H 1443   1.554  10.016   2.802 -1.0206 -1.8486  4.1990
   11MOL0     H 1444   1.531  10.139   2.920 -0.9576 -0.9110  0.7238
   11MOL0     H 1445   1.754  10.121   2.813 -1.8823  0.8432  2.0599
   11MOL0     H 1446   1.963  10.198   2.735 -1.0490  0.0371  2.9872
   11MOL0     H 1447   2.262  10.138   2.386  1.7890  0.1305  1.3515
   11MOL0     H 1448   2.443  10.203   2.226  2.5789  2.5973 -0.4787
   11MOL0     H 1449   2.686  10.302   2.300  0.2648 -0.2755 -0.1672
   11MOL0     H 1450   2.645  10.286   2.126  0.7404 -1.1832  0.6448
   11MOL0     H 1451   2.875  10.361   2.151 -0.0456 -1.4773  0.1198
   11MOL0     H 1452   2.768  10.507   2.100  0.5740  2.6924  2.3608
   11MOL0     H 1453   2.744  10.570   2.326 -2.0063 -1.0215 -0.8342
   11MOL0     H 1454   2.872  10.446   2.367  2.5768  1.3230 -0.0911
   11MOL0     H 1455   2.949  10.694   2.336 -0.5010 -0.0443  0.2910
   11MOL0     H 1456   2.918  10.653   2.166 -0.6872  0.5064  1.5424
   11MOL0     H 1457   3.069  10.447   2.211 -2.5269 -0.2112 -0.6643
   11MOL0     H 1458   3.123  10.537   2.357  0.7455  1.0517 -0.0529
   11MOL0     H 1459   3.143  10.656   2.084 -2.2676  3.0509  1.1475
   11MOL0     H 1460   3.194  10.742   2.224  1.9626 -0.6436  0.6608
   11MOL0     H 1461   3.321  10.475   2.149 -2.2348 -0.0197 -1.0887
   11MOL0     H 1462   3.366  10.581   2.286 -0.6392 -0.5027  0.0160
   11MOL0     H 1463   3.366  10.674   1.999 -1.5626  1.3910  1.3987
   11MOL0     H 1464   3.407  10.774   2.130 -0.8169  0.2887 -0.4116
   11MOL0     H 1465   2.465  10.586   2.402  1.9528 -1.2765 -1.2674
   11MOL0     H 1466   2.257  10.547   2.525 -3.1666 -1.7508 -0.1331
   11MOL0     H 1467   1.761  10.440   2.435 -2.7298  0.3056 -0.4140
   11MOL0     H 1468   1.545  10.371   2.526 -1.7010 -1.4659 -0.4751
   11MOL0     H 1469   0.446   8.818   3.080 -1.4678 -2.0826  2.1455
   11MOL0     H 1470   0.245   8.690   3.024  2.5916  0.1726  2.1496
   11MOL0     H 1471  -0.224   8.767   2.922  0.5689  0.5405 -0.7613
   11MOL0     H 1472  -0.427   8.654   2.897 -0.1901 -0.8526 -0.1573
   11MOL0     H 1473  -0.474   8.416   2.521 -0.4160 -2.6955 -1.6730
   11MOL0     H 1474  -0.632   8.423   2.588 -0.1876  0.6716  2.5788
   11MOL0     H 1475  -0.577   8.218   2.720  1.4804 -2.4656  0.4700
   11MOL0     H 1476  -0.407   8.233   2.666 -0.4485 -1.4004  1.5975
   11MOL0     H 1477  -0.643   8.206   2.465  0.4530  0.5595 -2.0728
   11MOL0     H 1478  -0.556   8.063   2.532  0.2718  1.1631  2.4840
   11MOL0     H 1479  -0.448   8.285   2.359 -1.2301  0.3718  0.7819
   11MOL0     H 1480  -0.354   8.192   2.468 -0.6885  4.1283  0.2497
   11MOL0     H 1481  -0.412   7.885   2.189  0.0482 -0.4277  0.4209
   11MOL0     H 1482  -0.256   8.402   2.584  1.9981 -0.8688 -0.0031
   11MOL0     H 1483   0.054   8.545   2.553  0.3995  1.9210  2.9045
   11MOL0     H 1484   0.048   8.402   2.665  0.3243 -0.4023  0.0731
   11MOL0     H 1485  -0.049   8.412   2.523 -1.2390  2.9056 -1.4113
   12MOL0     O 1486   5.062   8.508   4.047 -0.4895  0.1326 -0.0812
   12MOL0     C 1487   5.015   8.562   3.945  0.0971  0.0721 -1.0253
   12MOL0     O 1488   5.090   8.635   3.856  0.6434 -0.4772 -0.1809
   12MOL0     C 1489   5.222   8.679   3.880 -0.1841  0.3579  0.9461
   12MOL0     C 1490   5.286   8.708   3.761  0.2919 -0.3253 -0.2277
   12MOL0     C 1491   5.415   8.746   3.764 -0.3892 -0.8286  0.5917
   12MOL0     C 1492   5.491   8.744   3.880 -0.0233  0.3344  0.5291
   12MOL0     O 1493   5.620   8.793   3.866  0.1369 -0.0919 -0.0807
   12MOL0     C 1494   5.711   8.734   3.953  0.5359 -0.2704  0.7584
   12MOL0     C 1495   5.838   8.796   3.907 -0.4594 -0.1963 -0.1343
   12MOL0     C 1496   5.962   8.738   3.983  0.5393  0.0309 -0.6998
   12MOL0     C 1497   6.095   8.792   3.938 -0.2268 -0.9189  0.1742
   12MOL0     C 1498   6.210   8.755   4.042  0.1295 -1.1928  0.0208
   12MOL0     C 1499   6.340   8.827   4.004  0.2987  0.2654  0.7712
   12MOL0     C 1500   6.467   8.766   4.066  0.6472  0.2611 -0.1668
   12MOL0     C 1501   6.588   8.778   3.974 -0.0989 -0.5966 -0.5050
   12MOL0     N 1502   6.719   8.753   4.042  0.1579  0.1709 -0.2437
   12MOL0     C 1503   6.763   8.629   4.084  0.3452 -0.5563 -0.3128
   12MOL0     C 1504   6.882   8.668   4.142  0.3920  0.0873 -0.3426
   12MOL0     C 1505   6.976   8.581   4.229  0.1546  0.6237 -0.1774
   12MOL0     C 1506   7.081   8.497   4.166  0.0893 -0.0428  0.5468
   12MOL0     C 1507   7.031   8.362   4.123 -0.1608  0.5796  0.3431
   12MOL0     C 1508   7.133   8.284   4.052  0.1352  0.0807 -0.5871
   12MOL0     O 1509   7.236   8.262   4.147 -0.1524 -0.6530 -0.3914
   12MOL0     C 1510   7.350   8.197   4.106  0.7009  0.5085  0.3674
   12MOL0     C 1511   7.428   8.147   4.210 -0.8860 -0.5153 -0.0583
   12MOL0     C 1512   7.547   8.078   4.185 -0.5922  0.7409 -0.5949
   12MOL0     C 1513   7.587   8.050   4.058 -0.1195  0.2520 -0.3840
   12MOL0     C 1514   7.722   7.985   4.026 -0.2487  0.9274 -0.5143
   12MOL0     O 1515   7.761   7.978   3.897  0.9668  0.5310  0.0718
   12MOL0     C 1516   7.890   7.970   3.859 -0.4891  0.1378 -0.3506
   12MOL0     C 1517   7.986   8.057   3.914  0.4435  0.2612 -0.1442
   12MOL0     C 1518   8.116   8.059   3.855  0.8348 -0.6867  0.2672
   12MOL0     C 1519   8.152   7.981   3.745 -0.9411  0.1895 -0.4874
   12MOL0     O 1520   8.280   7.983   3.695  0.4777 -0.2476 -0.0840
   12MOL0     C 1521   8.308   7.947   3.561 -0.1970  0.4412  1.4961
   12MOL0     C 1522   8.416   8.037   3.509 -0.3166 -0.3576  0.0763
   12MOL0     C 1523   8.537   8.027   3.604  0.4351 -0.4910  0.4118
   12MOL0     C 1524   8.656   8.107   3.533  0.8855  0.2340 -1.0085
   12MOL0     C 1525   8.783   8.067   3.607  0.1890  0.0773 -0.2635
   12MOL0     C 1526   8.909   8.102   3.516  0.0510  0.3576  0.2119
   12MOL0     C 1527   9.044   8.051   3.564 -0.1213  0.7460 -0.3988
   12MOL0     C 1528   9.154   8.120   3.497 -1.5418 -0.3754  0.0839
   12MOL0    Cl 1529   9.314   8.066   3.583 -0.0034 -0.1378  0.1455
   12MOL0     C 1530   8.051   7.897   3.695  0.4134  0.6134 -0.3333
   12MOL0     C 1531   7.913   7.898   3.743  0.0197 -0.5010  0.0034
   12MOL0     O 1532   7.782   7.940   4.122 -0.2875 -0.5164 -0.3809
   12MOL0     C 1533   7.506   8.108   3.945 -0.2436 -0.3727 -0.8346
   12MOL0     C 1534   7.394   8.185   3.970  0.7030  0.3810 -0.5836
   12MOL0     N 1535   6.908   8.801   4.112 -0.0694  0.0021  0.6949
   12MOL0     N 1536   6.811   8.847   4.050 -0.3360 -0.7091  0.4979
   12MOL0     C 1537   5.434   8.716   3.997  0.0765  0.2396 -0.0048
   12MOL0     C 1538   5.299   8.682   4.001  0.7236 -0.0968  0.8272
   12MOL0     C 1539   4.866   8.559   3.935 -0.0204  0.3764  0.8348
   12MOL0     C 1540   4.789   8.551   4.053  0.0466  0.4351 -1.0135
   12MOL0     C 1541   4.655   8.555   4.036 -0.1902 -0.0633 -0.4145
   12MOL0     C 1542   4.584   8.561   3.920 -0.7645  0.2790  0.5031
   12MOL0     O 1543   4.446   8.542   3.921  0.0151 -0.5777  0.0607
   12MOL0     C 1544   4.379   8.522   3.801 -0.2694 -0.8559  0.3017
   12MOL0     C 1545   4.230   8.519   3.822 -0.0464 -0.4060 -0.1596
   12MOL0     C 1546   4.167   8.652   3.852  0.0724  0.0181  1.0078
   12MOL0     C 1547   4.017   8.645   3.885  0.3781  0.3414 -0.6638
   12MOL0     C 1548   3.942   8.619   3.769 -0.1268 -1.1908 -0.4050
   12MOL0     C 1549   3.875   8.594   3.672  1.0776 -0.4354  0.1817
   12MOL0     C 1550   4.664   8.559   3.802 -0.4408 -0.0696  0.6368
   12MOL0     C 1551   4.800   8.568   3.806 -0.8490  0.1357  0.2488
   12MOL0     C 1552   4.883   8.586   3.673 -0.1917 -0.4413  0.3723
   12MOL0     H 1553   5.225   8.706   3.671 -0.3084  0.7279  0.1389
   12MOL0     H 1554   5.470   8.775   3.674  2.4989  0.1894  2.5318
   12MOL0     H 1555   5.690   8.775   4.052 -1.0970  1.8917 -0.4061
   12MOL0     H 1556   5.705   8.625   3.956 -1.9768 -0.2666 -1.0882
   12MOL0     H 1557   5.840   8.905   3.914 -0.9197 -0.2859  2.1819
   12MOL0     H 1558   5.850   8.779   3.799 -0.7925  1.0239 -0.3786
   12MOL0     H 1559   5.952   8.630   3.971 -0.4954 -0.4814  3.3911
   12MOL0     H 1560   5.947   8.754   4.090 -0.2989 -4.4006  0.0355
   12MOL0     H 1561   6.110   8.748   3.839 -1.5591  3.8190 -2.4626
   12MOL0     H 1562   6.097   8.901   3.925 -0.6478 -0.8798  0.4215
   12MOL0     H 1563   6.186   8.788   4.144  1.1770 -0.2013 -0.0339
   12MOL0     H 1564   6.228   8.647   4.048 -0.2840 -1.2813 -0.2394
   12MOL0     H 1565   6.349   8.819   3.896  0.9561 -1.0993  0.9011
   12MOL0     H 1566   6.319   8.931   4.030 -1.3223 -0.1990  1.4540
   12MOL0     H 1567   6.460   8.661   4.097  3.5103  0.3596  1.1700
   12MOL0     H 1568   6.491   8.826   4.155  4.6571 -0.3185 -0.6692
   12MOL0     H 1569   6.583   8.696   3.902 -0.2487  0.7412 -2.0678
   12MOL0     H 1570   6.597   8.862   3.906  0.0855 -1.3196 -1.3937
   12MOL0     H 1571   6.707   8.537   4.096 -2.5673  1.3086  1.6075
   12MOL0     H 1572   7.030   8.636   4.306  2.6679 -1.3609 -0.4018
   12MOL0     H 1573   6.914   8.526   4.300  1.8472 -0.3399  0.5901
   12MOL0     H 1574   7.103   8.561   4.079 -0.7459  0.2220  0.5125
   12MOL0     H 1575   7.171   8.482   4.225  2.2311  0.6456 -2.3014
   12MOL0     H 1576   6.952   8.370   4.048  1.1027  1.9070 -0.9119
   12MOL0     H 1577   6.992   8.314   4.213  1.6385 -1.4104  0.1265
   12MOL0     H 1578   7.165   8.350   3.971  1.8541  1.5557  1.2076
   12MOL0     H 1579   7.100   8.185   4.019  2.7533 -1.1555  0.2624
   12MOL0     H 1580   7.405   8.172   4.313  2.6385 -0.0879  0.7286
   12MOL0     H 1581   7.613   8.056   4.268 -0.9664  1.3850 -0.1130
   12MOL0     H 1582   7.958   8.120   3.999 -0.3795  0.9552 -0.9118
   12MOL0     H 1583   8.187   8.124   3.906  0.4397 -0.4962  0.5759
   12MOL0     H 1584   8.352   7.848   3.576 -0.0946  0.1988 -0.2988
   12MOL0     H 1585   8.225   7.945   3.489 -0.1889  2.7282  1.3494
   12MOL0     H 1586   8.453   7.995   3.415  0.6057 -4.1806  1.9688
   12MOL0     H 1587   8.382   8.139   3.486 -3.6157 -1.0767  1.3162
   12MOL0     H 1588   8.518   8.070   3.703  1.9556  1.8344 -0.2223
   12MOL0     H 1589   8.572   7.923   3.609 -0.7301 -0.9785 -0.9190
   12MOL0     H 1590   8.659   8.216   3.530  3.0834  0.2202 -1.0194
   12MOL0     H 1591   8.655   8.081   3.427  0.2819  3.3141 -1.8656
   12MOL0     H 1592   8.778   7.959   3.626 -3.2187  0.2730  0.6318
   12MOL0     H 1593   8.778   8.116   3.704  3.7935  2.7567 -1.2067
   12MOL0     H 1594   8.896   8.056   3.417 -1.3627 -1.4126  1.1755
   12MOL0     H 1595   8.901   8.211   3.508  0.8473  0.3697 -0.5902
   12MOL0     H 1596   9.050   7.942   3.550  0.7999  0.7155  0.1550
   12MOL0     H 1597   9.051   8.078   3.670  2.4081 -1.3601  0.0873
   12MOL0     H 1598   9.159   8.088   3.393  1.6124 -1.6962  0.5270
   12MOL0     H 1599   9.146   8.229   3.505  2.7414  0.0717  0.5790
   12MOL0     H 1600   8.084   7.827   3.619 -1.1875 -2.9076  1.9516
   12MOL0     H 1601   7.835   7.828   3.714 -0.4940 -1.6765  3.6157
   12MOL0     H 1602   7.537   8.098   3.841 -0.4276  0.4260 -0.9753
   12MOL0     H 1603   7.334   8.223   3.888  1.3120  3.4505  0.2888
   12MOL0     H 1604   5.490   8.700   4.090 -0.8814 -0.2415  0.5015
   12MOL0     H 1605   5.249   8.643   4.090  1.4008 -2.5032  0.2320
   12MOL0     H 1606   4.834   8.552   4.152 -1.4685  0.4065 -0.2936
   12MOL0     H 1607   4.591   8.578   4.121  1.5425  2.1316  0.4045
   12MOL0     H 1608   4.418   8.425   3.769  3.5300  0.1161  1.4887
   12MOL0     H 1609   4.405   8.603   3.733 -2.7699  2.1622  2.6150
   12MOL0     H 1610   4.218   8.451   3.908  2.7123 -1.4762 -0.4888
   12MOL0     H 1611   4.186   8.460   3.741  1.1663 -4.1325  1.6223
   12MOL0     H 1612   4.193   8.715   3.767 -1.2886 -1.5933 -0.7182
   12MOL0     H 1613   4.221   8.694   3.938  2.0166 -0.5529  0.1185
   12MOL0     H 1614   3.995   8.569   3.960  2.4889 -0.3493 -0.6796
   12MOL0     H 1615   3.980   8.744   3.915  0.3891  0.3364 -0.6350
   12MOL0     H 1616   3.818   8.563   3.587  0.5544 -1.0603  0.7502
   12MOL0     H 1617   4.610   8.557   3.708 -2.6815 -0.8988  1.8569
   12MOL0     H 1618   4.927   8.685   3.659 -0.5541 -0.5078 -1.4052
   12MOL0     H 1619   4.955   8.503   3.661  0.4203 -0.1523  1.8190
   12MOL0     H 1620   4.819   8.574   3.585 -0.9298  0.4961  0.7747
   13MOL0     O 1621   8.385   0.995   2.824 -0.0924 -0.0584  1.1183
   13MOL0     C 1622   8.303   1.017   2.908  0.5313 -0.1349 -0.6520
   13MOL0     O 1623   8.325   1.033   3.040  0.4035  0.2584 -0.3793
   13MOL0     C 1624   8.448   1.059   3.073  0.2923 -0.1877 -0.0375
   13MOL0     C 1625   8.539   1.148   3.006  0.0505  0.0991 -0.1398
   13MOL0     C 1626   8.672   1.174   3.053 -0.0386  0.3019 -0.1384
   13MOL0     C 1627   8.721   1.097   3.158 -0.1463 -0.5157 -0.0215
   13MOL0     O 1628   8.849   1.133   3.194  0.0029  0.0789 -0.6642
   13MOL0     C 1629   8.907   1.067   3.306  0.5530  0.1445  0.8538
   13MOL0     C 1630   9.060   1.084   3.303  0.5242 -0.2189 -0.2530
   13MOL0     C 1631   9.130   1.017   3.426 -0.3268  0.7532 -0.3215
   13MOL0     C 1632   9.279   1.047   3.408 -1.1792 -0.2003 -0.9899
   13MOL0     C 1633   9.367   0.918   3.428  0.0282 -0.4189 -0.1229
   13MOL0     C 1634   9.512   0.955   3.464  0.2337 -0.2304  0.0208
   13MOL0     C 1635   9.599   0.835   3.486  0.2318 -1.1188  0.0166
   13MOL0     C 1636   9.733   0.894   3.528 -0.7466 -0.0470  0.2480
   13MOL0     N 1637   9.813   0.790   3.587 -1.7577  0.0345 -0.1984
   13MOL0     C 1638   9.867   0.682   3.515 -0.3327 -0.5823  0.5343
   13MOL0     C 1639   9.955   0.630   3.596  0.8824 -0.3381  0.3320
   13MOL0     C 1640  10.038   0.509   3.585  0.4723  0.1889 -0.5030
   13MOL0     C 1641  10.158   0.515   3.489  0.5624  0.5289 -0.3570
   13MOL0     C 1642  10.212   0.376   3.474 -0.0763 -0.0019 -0.0446
   13MOL0     C 1643  10.359   0.375   3.413 -0.3626  0.0164 -0.2129
   13MOL0     O 1644  10.433   0.449   3.504 -0.4020  0.0135 -1.0912
   13MOL0     C 1645  10.566   0.466   3.478  0.4652  0.7449 -0.9542
   13MOL0     C 1646  10.617   0.493   3.346 -0.5081 -0.6394  0.2062
   13MOL0     C 1647  10.751   0.483   3.330 -0.8786  0.1993  0.4916
   13MOL0     C 1648  10.839   0.469   3.436 -0.7641  0.9490 -0.1619
   13MOL0     C 1649  10.985   0.471   3.413 -0.5715 -0.8193 -0.0769
   13MOL0     O 1650  11.035   0.435   3.289  0.2432 -0.5506 -0.0862
   13MOL0     C 1651  11.172   0.453   3.264  1.3698 -0.5916 -1.0296
   13MOL0     C 1652  11.250   0.338   3.248 -0.4783  0.1583 -1.1610
   13MOL0     C 1653  11.388   0.353   3.213 -0.0103 -0.4881  0.3348
   13MOL0     C 1654  11.456   0.471   3.225  0.0320 -0.1233  0.1698
   13MOL0     O 1655  11.595   0.474   3.219  0.4397  0.4495 -0.2982
   13MOL0     C 1656  11.671   0.597   3.238  0.3762 -0.3421  1.1039
   13MOL0     C 1657  11.811   0.560   3.278 -0.6184  0.2962  0.9610
   13MOL0     C 1658  11.809   0.524   3.427 -0.3060 -0.4687  0.2089
   13MOL0     C 1659  11.953   0.498   3.477  0.6492  0.1794 -0.0556
   13MOL0     C 1660  11.958   0.437   3.617 -0.6244 -0.0601 -0.4508
   13MOL0     C 1661  12.097   0.454   3.676 -0.1768 -0.2671  0.1515
   13MOL0     C 1662  12.117   0.362   3.789 -1.3416 -0.3569 -0.0691
   13MOL0     C 1663  12.213   0.424   3.887  0.6017  0.5749 -0.8512
   13MOL0    Cl 1664  12.141   0.571   3.959 -0.4909 -0.2343 -0.0566
   13MOL0     C 1665  11.378   0.583   3.256  1.0053  0.3061 -0.2118
   13MOL0     C 1666  11.241   0.570   3.276  0.0008  0.9845  0.1502
   13MOL0     O 1667  11.056   0.492   3.507 -0.1817 -0.3312 -0.4075
   13MOL0     C 1668  10.789   0.458   3.571 -0.3896  0.0347  0.1439
   13MOL0     C 1669  10.652   0.457   3.588 -0.0244  0.2223 -0.4500
   13MOL0     N 1670   9.963   0.703   3.709  0.0146 -0.7770 -0.1727
   13MOL0     N 1671   9.891   0.812   3.700  1.1426  0.6046  0.4601
   13MOL0     C 1672   8.634   1.009   3.226 -1.1669  1.0483  0.4804
   13MOL0     C 1673   8.503   0.992   3.182 -0.0165 -0.2639 -1.3193
   13MOL0     C 1674   8.162   1.031   2.862  0.7063 -1.2877 -0.2613
   13MOL0     C 1675   8.058   1.020   2.965  0.1811 -0.8340 -0.1964
   13MOL0     C 1676   7.927   1.026   2.928 -0.3513  0.5996  0.2985
   13MOL0     C 1677   7.882   1.035   2.798  0.2523 -0.8253 -0.0434
   13MOL0     O 1678   7.745   1.053   2.790 -0.3572  0.0340 -0.4737
   13MOL0     C 1679   7.701   1.092   2.661  0.0358  0.6547 -0.3581
   13MOL0     C 1680   7.556   1.140   2.675  0.3692  0.4698  0.9661
   13MOL0     C 1681   7.499   1.171   2.538 -0.2804  0.2260  0.7984
   13MOL0     C 1682   7.361   1.235   2.537  0.5689 -0.7511 -0.0757
   13MOL0     C 1683   7.311   1.244   2.401 -0.1014 -0.6177 -0.1339
   13MOL0     C 1684   7.243   1.256   2.298  0.0051 -0.3457 -0.3263
   13MOL0     C 1685   7.980   1.039   2.704  0.5393 -0.0736 -0.1332
   13MOL0     C 1686   8.117   1.042   2.730  0.8164 -0.3419  0.3290
   13MOL0     C 1687   8.206   1.081   2.612 -0.4304 -0.2219 -0.4692
   13MOL0     H 1688   8.490   1.198   2.923 -0.1093  2.8535  1.4737
   13MOL0     H 1689   8.740   1.240   3.001 -0.3792 -0.1901 -1.2280
   13MOL0     H 1690   8.863   1.107   3.398 -0.8498  2.5167 -0.7463
   13MOL0     H 1691   8.882   0.960   3.312 -0.9932  0.4865  0.9549
   13MOL0     H 1692   9.073   1.193   3.300 -0.8074 -0.0513 -0.4207
   13MOL0     H 1693   9.094   1.041   3.208  1.6785 -0.7469  0.3851
   13MOL0     H 1694   9.107   0.911   3.431 -0.3723  0.7776 -0.0293
   13MOL0     H 1695   9.091   1.052   3.522  1.0918 -1.3653  1.1124
   13MOL0     H 1696   9.314   1.101   3.320  3.1741  1.8006  1.5631
   13MOL0     H 1697   9.294   1.114   3.494  1.1559 -0.9305 -0.7520
   13MOL0     H 1698   9.315   0.859   3.504 -1.0563 -0.1407 -0.6250
   13MOL0     H 1699   9.375   0.858   3.338  1.1008 -1.1517  0.4360
   13MOL0     H 1700   9.550   1.014   3.380  0.7975 -0.0696  0.3814
   13MOL0     H 1701   9.508   1.022   3.551  1.4128  4.1046 -2.9025
   13MOL0     H 1702   9.611   0.771   3.398 -1.3936  0.7421 -1.6542
   13MOL0     H 1703   9.572   0.761   3.562  1.1897 -1.6043 -0.0958
   13MOL0     H 1704   9.801   0.920   3.447  0.0005  1.1533  1.2145
   13MOL0     H 1705   9.721   0.975   3.601 -0.0753  1.2383 -1.0134
   13MOL0     H 1706   9.843   0.644   3.416 -0.6280 -1.6089  0.9825
   13MOL0     H 1707  10.082   0.485   3.682  0.3896 -1.3092 -0.8223
   13MOL0     H 1708   9.966   0.434   3.552 -2.1152  2.3701 -0.1427
   13MOL0     H 1709  10.142   0.574   3.399  0.2358  1.2131  0.1386
   13MOL0     H 1710  10.232   0.573   3.545  0.7873  4.4829 -4.1939
   13MOL0     H 1711  10.148   0.319   3.406 -0.3779 -0.0621  0.2898
   13MOL0     H 1712  10.210   0.316   3.566  2.2069 -1.8460 -1.0949
   13MOL0     H 1713  10.349   0.421   3.315 -5.2045 -0.6173 -0.2514
   13MOL0     H 1714  10.396   0.273   3.399  1.4236  0.5437  0.3837
   13MOL0     H 1715  10.553   0.519   3.263  2.6795 -0.3208 -2.3262
   13MOL0     H 1716  10.791   0.492   3.229 -1.4940 -0.0949  0.2166
   13MOL0     H 1717  11.204   0.240   3.246 -0.3903  0.0175  1.1549
   13MOL0     H 1718  11.442   0.261   3.194  0.1417  0.1464 -3.1402
   13MOL0     H 1719  11.667   0.653   3.144 -2.9239 -1.6851  0.2910
   13MOL0     H 1720  11.627   0.667   3.310  3.3193  0.5364  2.2033
   13MOL0     H 1721  11.838   0.471   3.221  0.5054  0.4066  1.2817
   13MOL0     H 1722  11.871   0.649   3.255 -0.4313  0.6406  2.6202
   13MOL0     H 1723  11.766   0.601   3.492 -0.9354 -0.8298  0.2302
   13MOL0     H 1724  11.758   0.429   3.443  2.1218 -1.8157  0.4205
   13MOL0     H 1725  12.014   0.589   3.480 -2.5645  2.5006  0.0108
   13MOL0     H 1726  12.015   0.428   3.420 -0.6837 -3.3701  2.5174
   13MOL0     H 1727  11.927   0.333   3.610  1.8878 -1.0612  1.7824
   13MOL0     H 1728  11.890   0.491   3.683  1.2802 -0.5360  2.0370
   13MOL0     H 1729  12.166   0.423   3.597 -0.1746  1.3093 -0.4978
   13MOL0     H 1730  12.121   0.556   3.709  1.0623 -0.6787  0.5690
   13MOL0     H 1731  12.166   0.272   3.750  0.4071 -0.3835  2.0254
   13MOL0     H 1732  12.020   0.338   3.833 -1.5686 -1.6908 -1.2339
   13MOL0     H 1733  12.230   0.352   3.968  2.0143 -2.4325 -3.6058
   13MOL0     H 1734  12.302   0.444   3.826  1.7428  2.1315  1.2135
   13MOL0     H 1735  11.422   0.680   3.276 -1.5504  1.4703  0.1484
   13MOL0     H 1736  11.185   0.654   3.316  0.2444  0.0110  2.7420
   13MOL0     H 1737  10.856   0.444   3.655  0.1863 -1.1377 -0.4849
   13MOL0     H 1738  10.616   0.451   3.690  1.6158 -0.9915  0.1072
   13MOL0     H 1739   8.670   0.954   3.312 -2.3186 -0.1848  0.2101
   13MOL0     H 1740   8.449   0.924   3.247 -0.8001 -0.0467 -1.7298
   13MOL0     H 1741   8.087   1.011   3.069  0.8619  3.1067  0.1344
   13MOL0     H 1742   7.853   1.033   3.008 -1.8622 -0.4869 -0.9457
   13MOL0     H 1743   7.722   1.001   2.602  1.6137  0.6358  0.1875
   13MOL0     H 1744   7.752   1.176   2.612 -2.5075  3.7065  1.8960
   13MOL0     H 1745   7.554   1.228   2.740 -0.8841  0.9708  0.2846
   13MOL0     H 1746   7.497   1.065   2.729 -0.3925 -0.4615 -1.0815
   13MOL0     H 1747   7.486   1.077   2.485 -0.7822  0.3426  0.7058
   13MOL0     H 1748   7.569   1.229   2.478 -1.0068 -1.9189 -2.3500
   13MOL0     H 1749   7.292   1.172   2.594  0.8460 -1.5492 -0.6003
   13MOL0     H 1750   7.367   1.333   2.585 -2.4913 -0.2971 -0.3800
   13MOL0     H 1751   7.186   1.276   2.210  1.8968  0.6039 -1.3939
   13MOL0     H 1752   7.949   1.051   2.601  0.0119 -0.6345 -0.0420
   13MOL0     H 1753   8.160   1.141   2.533  2.2635  1.0299 -1.2304
   13MOL0     H 1754   8.276   1.155   2.654 -0.6692 -0.4209  0.2933
   13MOL0     H 1755   8.265   0.996   2.576  2.6812  2.1687 -1.5456
   14MOL0     O 1756   3.280   9.738   0.582  0.6869 -0.5556 -0.7355
   14MOL0     C 1757   3.201   9.652   0.618 -0.6451  0.2271  0.4445
   14MOL0     O 1758   3.235   9.531   0.665  0.7220  0.9119 -0.1638
   14MOL0     C 1759   3.363   9.492   0.700  0.5698  0.1913 -0.0533
   14MOL0     C 1760   3.381   9.433   0.827 -0.0071 -1.1263  0.2617
   14MOL0     C 1761   3.508   9.383   0.869  0.3970  0.6178  0.5162
   14MOL0     C 1762   3.616   9.377   0.773  0.6768 -0.4103 -0.2369
   14MOL0     O 1763   3.732   9.324   0.823  0.7577  0.5429  0.8525
   14MOL0     C 1764   3.852   9.393   0.780 -0.2011 -0.1853  0.5003
   14MOL0     C 1765   3.968   9.368   0.874  0.4366  0.0240  0.9908
   14MOL0     C 1766   3.917   9.382   1.019 -0.1016 -0.8099 -0.2692
   14MOL0     C 1767   4.026   9.390   1.124 -0.5528 -0.4771  0.4688
   14MOL0     C 1768   4.112   9.273   1.148 -0.9134 -0.6115  0.2778
   14MOL0     C 1769   4.251   9.309   1.213 -0.6056  0.1570  0.2426
   14MOL0     C 1770   4.317   9.190   1.288 -0.0318  0.3703  0.2136
   14MOL0     C 1771   4.462   9.165   1.248 -0.2701  0.6047  0.6848
   14MOL0     N 1772   4.529   9.047   1.305 -0.1015 -0.1176 -0.0869
   14MOL0     C 1773   4.578   9.032   1.439 -0.2523 -0.3860 -0.0612
   14MOL0     C 1774   4.647   8.919   1.426  0.2838  0.2850  0.2465
   14MOL0     C 1775   4.733   8.846   1.527  0.1842 -0.8792  0.8750
   14MOL0     C 1776   4.886   8.844   1.495 -0.3532  0.0335  0.2834
   14MOL0     C 1777   4.978   8.777   1.597 -0.3415  0.2950  0.0249
   14MOL0     C 1778   5.078   8.674   1.542 -0.2103  0.2454  0.6483
   14MOL0     O 1779   5.151   8.745   1.443 -0.2040 -0.0125  0.4442
   14MOL0     C 1780   5.265   8.681   1.395  1.1889 -0.3577 -0.1761
   14MOL0     C 1781   5.304   8.549   1.435 -0.4869  0.1167 -0.1575
   14MOL0     C 1782   5.421   8.490   1.393  0.1657  0.0209  0.6301
   14MOL0     C 1783   5.510   8.559   1.303  0.2981  0.4348  0.7529
   14MOL0     C 1784   5.627   8.493   1.241  1.2864  0.7537 -1.2624
   14MOL0     O 1785   5.664   8.379   1.311 -0.8193 -0.0340  0.2945
   14MOL0     C 1786   5.775   8.320   1.262 -0.6928 -0.8154 -0.0214
   14MOL0     C 1787   5.892   8.387   1.215  0.2936  0.1298 -0.2564
   14MOL0     C 1788   6.003   8.328   1.160  0.2788  0.2272 -0.8991
   14MOL0     C 1789   6.001   8.189   1.161  0.3914  0.1579  0.6970
   14MOL0     O 1790   6.101   8.113   1.111 -0.2867 -0.4560 -0.1684
   14MOL0     C 1791   6.184   8.167   1.003  0.7381  0.1514 -0.5311
   14MOL0     C 1792   6.272   8.065   0.926  0.0931  0.1821 -0.0194
   14MOL0     C 1793   6.408   8.038   0.996  0.9713  0.1123 -0.4808
   14MOL0     C 1794   6.520   8.040   0.905  0.3194 -0.2883 -0.5541
   14MOL0     C 1795   6.533   7.918   0.825  0.7024  0.6753  0.7504
   14MOL0     C 1796   6.647   7.920   0.715 -0.2252  0.0615 -0.2734
   14MOL0     C 1797   6.689   7.778   0.666  0.4044  0.1751  0.0904
   14MOL0     C 1798   6.822   7.786   0.588 -0.5957  0.6319 -0.0962
   14MOL0    Cl 1799   6.836   7.897   0.463 -0.3202  0.1741 -0.2824
   14MOL0     C 1800   5.895   8.117   1.216 -0.2105  0.2228 -0.2334
   14MOL0     C 1801   5.779   8.179   1.257  0.1384  0.6827  0.6836
   14MOL0     O 1802   5.674   8.543   1.144  0.4346  0.4131 -0.7949
   14MOL0     C 1803   5.473   8.687   1.262 -0.0584  0.6783 -0.3123
   14MOL0     C 1804   5.348   8.744   1.310 -0.4816  0.5366  0.5666
   14MOL0     N 1805   4.632   8.861   1.301  0.2329  0.5749  0.1050
   14MOL0     N 1806   4.548   8.929   1.234 -0.2416 -0.6484  0.0571
   14MOL0     C 1807   3.595   9.441   0.649  0.2471 -0.5846 -0.4649
   14MOL0     C 1808   3.471   9.489   0.610 -0.2822 -0.6203 -0.7359
   14MOL0     C 1809   3.055   9.670   0.605  0.8269 -0.2127  1.3011
   14MOL0     C 1810   2.964   9.571   0.662  0.4648  0.4569  0.1906
   14MOL0     C 1811   2.821   9.585   0.666  0.1422 -0.8339  0.2090
   14MOL0     C 1812   2.763   9.696   0.604 -0.4381 -0.4051 -0.2848
   14MOL0     O 1813   2.623   9.699   0.603 -0.1546  0.1108 -0.1554
   14MOL0     C 1814   2.564   9.779   0.497 -0.3567  0.0843  0.7393
   14MOL0     C 1815   2.424   9.741   0.478  0.0991 -0.0248 -1.2994
   14MOL0     C 1816   2.391   9.592   0.469 -0.6759 -0.2035  0.5938
   14MOL0     C 1817   2.238   9.565   0.462 -0.7725  0.1519  0.3634
   14MOL0     C 1818   2.219   9.419   0.449 -0.1169 -0.6794 -0.4349
   14MOL0     C 1819   2.208   9.301   0.419  0.4642 -0.7780 -0.8750
   14MOL0     C 1820   2.845   9.790   0.545 -0.4027 -0.1616 -0.0870
   14MOL0     C 1821   2.989   9.785   0.545  0.6967 -0.1322  0.6040
   14MOL0     C 1822   3.055   9.902   0.471 -0.4651  0.5991 -0.0717
   14MOL0     H 1823   3.297   9.423   0.895  0.0857 -2.2608  0.2376
   14MOL0     H 1824   3.509   9.326   0.962 -1.7905  1.1537  0.9161
   14MOL0     H 1825   3.883   9.364   0.679 -0.3347 -0.9325  0.6718
   14MOL0     H 1826   3.837   9.500   0.762  0.3552 -0.4079 -1.5287
   14MOL0     H 1827   4.042   9.444   0.849 -2.2314  1.9261 -1.9942
   14MOL0     H 1828   4.000   9.264   0.858 -3.9138 -1.3021 -0.6606
   14MOL0     H 1829   3.836   9.317   1.052  1.0811 -0.2583  4.4574
   14MOL0     H 1830   3.873   9.482   1.028  0.9130 -0.0837 -2.7146
   14MOL0     H 1831   4.093   9.470   1.094 -2.1169  0.1596 -1.5775
   14MOL0     H 1832   3.991   9.425   1.222 -0.1565  2.3466 -0.3113
   14MOL0     H 1833   4.060   9.206   1.218 -2.5427  1.2133  0.9008
   14MOL0     H 1834   4.138   9.237   1.048 -0.3925  0.5447 -0.0074
   14MOL0     H 1835   4.321   9.354   1.141 -2.0229 -0.2240 -1.4328
   14MOL0     H 1836   4.232   9.383   1.291  0.8629  0.9636 -0.1108
   14MOL0     H 1837   4.246   9.108   1.276 -1.6726  1.7232  0.2653
   14MOL0     H 1838   4.299   9.210   1.394 -2.1324 -5.0204  1.2081
   14MOL0     H 1839   4.466   9.149   1.140 -0.3514 -1.2168  0.9143
   14MOL0     H 1840   4.514   9.258   1.271  1.5476  0.7137 -3.1179
   14MOL0     H 1841   4.566   9.105   1.518  0.4214 -1.1898  0.8186
   14MOL0     H 1842   4.724   8.906   1.618 -0.0246 -1.5592  1.3155
   14MOL0     H 1843   4.687   8.748   1.545  1.0016 -1.6153 -0.8211
   14MOL0     H 1844   4.893   8.788   1.401  1.2251 -0.2935  0.5656
   14MOL0     H 1845   4.922   8.945   1.472  1.6687 -0.4638  1.0522
   14MOL0     H 1846   4.921   8.722   1.672 -2.2389  3.6086  1.2268
   14MOL0     H 1847   5.032   8.850   1.658  0.6448 -0.8310  0.5392
   14MOL0     H 1848   5.022   8.588   1.505 -0.7595  0.0443  1.9061
   14MOL0     H 1849   5.135   8.645   1.632 -1.5419 -0.1814  1.3771
   14MOL0     H 1850   5.256   8.502   1.520 -1.9357 -0.1391 -1.0879
   14MOL0     H 1851   5.454   8.394   1.432 -2.3823 -1.2625 -0.1065
   14MOL0     H 1852   5.904   8.494   1.209 -3.6448  0.6046 -2.8063
   14MOL0     H 1853   6.089   8.386   1.128  1.7604 -1.8282 -0.7871
   14MOL0     H 1854   6.120   8.200   0.920 -1.3768  1.4525  1.4777
   14MOL0     H 1855   6.244   8.250   1.040 -0.2087  0.6331 -0.0476
   14MOL0     H 1856   6.214   7.973   0.909 -1.3865  1.1684 -0.4613
   14MOL0     H 1857   6.287   8.116   0.831  0.9967  2.9045  1.4722
   14MOL0     H 1858   6.417   8.119   1.069  0.2401  0.5022 -0.8144
   14MOL0     H 1859   6.403   7.945   1.053 -0.3833 -0.4064 -1.3890
   14MOL0     H 1860   6.610   8.046   0.968 -0.8135 -2.7810  1.4797
   14MOL0     H 1861   6.516   8.124   0.835 -1.5079 -1.0242 -1.3936
   14MOL0     H 1862   6.437   7.903   0.773  0.7282 -1.0783  1.1260
   14MOL0     H 1863   6.556   7.828   0.883  3.8964 -0.7028 -2.2748
   14MOL0     H 1864   6.625   7.992   0.635  2.1949 -0.0406 -1.1239
   14MOL0     H 1865   6.740   7.954   0.762  1.1466  0.4985 -3.0853
   14MOL0     H 1866   6.611   7.744   0.597  0.3961  0.6786 -0.1490
   14MOL0     H 1867   6.694   7.708   0.750 -2.7467 -0.1867  0.0957
   14MOL0     H 1868   6.904   7.804   0.658 -0.7126  0.9894 -0.0503
   14MOL0     H 1869   6.823   7.687   0.540  0.4568  0.1367  0.8940
   14MOL0     H 1870   5.898   8.009   1.214  0.4496  0.2466 -1.1694
   14MOL0     H 1871   5.697   8.116   1.292  0.4294 -0.2767 -0.2662
   14MOL0     H 1872   5.526   8.735   1.181 -1.8140  2.9117 -0.2193
   14MOL0     H 1873   5.316   8.839   1.269 -3.2103 -0.8523 -0.7752
   14MOL0     H 1874   3.670   9.464   0.575  1.2715  2.0554  1.2591
   14MOL0     H 1875   3.444   9.528   0.512  2.0935 -0.2764 -1.3191
   14MOL0     H 1876   2.994   9.478   0.708 -2.8649 -0.6865  0.3300
   14MOL0     H 1877   2.759   9.514   0.721 -2.3330 -0.0502 -1.4100
   14MOL0     H 1878   2.626   9.752   0.410  1.8420  1.0427  1.9128
   14MOL0     H 1879   2.571   9.884   0.524 -0.2635  0.0201  0.9689
   14MOL0     H 1880   2.381   9.789   0.390 -1.1430 -0.5691 -1.0140
   14MOL0     H 1881   2.367   9.777   0.564 -1.0273 -0.6744 -1.7512
   14MOL0     H 1882   2.438   9.549   0.557  0.0897 -1.7495 -0.5251
   14MOL0     H 1883   2.432   9.549   0.377 -1.2984 -1.1805  0.7654
   14MOL0     H 1884   2.187   9.590   0.556 -0.6823  0.0867  0.4310
   14MOL0     H 1885   2.197   9.620   0.377 -1.8498 -2.6254 -1.0220
   14MOL0     H 1886   2.200   9.199   0.387 -1.2636 -1.3516  1.1541
   14MOL0     H 1887   2.801   9.876   0.495 -1.7630 -0.8239 -0.0833
   14MOL0     H 1888   3.122   9.858   0.397  0.0679  1.5544 -0.1638
   14MOL0     H 1889   2.988   9.973   0.422 -0.6328  0.1395 -0.5216
   14MOL0     H 1890   3.112   9.959   0.545 -2.7759  6.5229 -2.2930
   15MOL0     O 1891   9.938  11.204   5.237  0.7877 -0.1470  0.0545
   15MOL0     C 1892   9.952  11.092   5.189 -0.0160  0.1257  0.9570
   15MOL0     O 1893  10.062  11.027   5.175  0.3385 -0.3304 -0.2945
   15MOL0     C 1894  10.187  11.084   5.214  1.0568  0.1596 -0.4824
   15MOL0     C 1895  10.218  11.096   5.353  0.0684  0.7315 -0.2551
   15MOL0     C 1896  10.343  11.144   5.391  0.4119 -0.7794  0.1987
   15MOL0     C 1897  10.441  11.191   5.300  0.3979 -0.1384 -0.1527
   15MOL0     O 1898  10.558  11.236   5.354 -0.0082  0.2654  0.0747
   15MOL0     C 1899  10.634  11.333   5.271  1.2715  0.3664 -0.8935
   15MOL0     C 1900  10.767  11.377   5.333 -0.1339 -0.6254 -0.9231
   15MOL0     C 1901  10.825  11.503   5.251  0.3406 -0.4595 -0.1610
   15MOL0     C 1902  10.951  11.571   5.307 -0.6650 -0.2308  0.2018
   15MOL0     C 1903  10.990  11.690   5.225  0.0405 -1.6984  0.2394
   15MOL0     C 1904  11.113  11.757   5.270 -1.0358 -0.2075 -0.1481
   15MOL0     C 1905  11.148  11.869   5.170  0.5491 -0.1360  0.0512
   15MOL0     C 1906  11.234  11.972   5.221  0.3296  0.1130  0.5262
   15MOL0     N 1907  11.275  12.063   5.112  0.3597 -0.2303  0.2509
   15MOL0     C 1908  11.249  12.200   5.109  0.3813  0.5584  0.2293
   15MOL0     C 1909  11.335  12.242   5.021 -0.7218  0.2215 -0.1195
   15MOL0     C 1910  11.361  12.388   4.997 -0.1109  0.6137  0.9599
   15MOL0     C 1911  11.495  12.440   5.052  0.4757  0.6307 -0.1753
   15MOL0     C 1912  11.523  12.587   5.026 -0.1117 -0.1201 -0.2489
   15MOL0     C 1913  11.663  12.641   5.047 -0.3748 -0.7937 -0.4354
   15MOL0     O 1914  11.713  12.577   5.171  0.0377 -0.3543 -0.1339
   15MOL0     C 1915  11.849  12.589   5.186 -0.0686  0.6983  0.2645
   15MOL0     C 1916  11.926  12.477   5.176  0.4141 -0.2767 -0.2721
   15MOL0     C 1917  12.065  12.498   5.176 -0.7336  0.1508  0.3278
   15MOL0     C 1918  12.121  12.631   5.186  0.7027 -0.3585  0.0739
   15MOL0     C 1919  12.263  12.655   5.169 -0.0373 -0.3029  0.7680
   15MOL0     O 1920  12.332  12.546   5.117 -0.0729  0.0794 -0.3735
   15MOL0     C 1921  12.461  12.566   5.079 -0.0575 -0.1240  0.7202
   15MOL0     C 1922  12.523  12.682   5.033 -0.2079 -0.6331 -0.4532
   15MOL0     C 1923  12.654  12.683   4.982 -0.7191  0.0677  0.4090
   15MOL0     C 1924  12.726  12.566   4.960 -1.0988  0.2033 -0.6573
   15MOL0     O 1925  12.847  12.550   4.894 -0.0275 -0.1815 -0.5283
   15MOL0     C 1926  12.876  12.621   4.777 -0.1961 -0.2165  0.0911
   15MOL0     C 1927  13.020  12.614   4.755 -0.9527  0.2524  0.7681
   15MOL0     C 1928  13.064  12.677   4.624 -0.0812  0.1533 -0.5727
   15MOL0     C 1929  13.069  12.826   4.615 -0.0475  0.2579  0.3795
   15MOL0     C 1930  13.160  12.888   4.721 -0.0048  0.0544  0.0239
   15MOL0     C 1931  13.201  13.027   4.694  0.7471 -0.3596  0.0055
   15MOL0     C 1932  13.327  13.065   4.769 -0.0076 -0.4845 -0.2830
   15MOL0     C 1933  13.459  13.013   4.706 -0.5226 -0.4004 -0.6667
   15MOL0    Cl 1934  13.592  13.044   4.824 -0.0816 -0.1292 -0.1782
   15MOL0     C 1935  12.662  12.450   5.010 -1.0896 -1.1537 -0.6321
   15MOL0     C 1936  12.533  12.446   5.067 -0.5133  0.4669 -0.0707
   15MOL0     O 1937  12.307  12.756   5.223  0.3238  0.3142  0.7637
   15MOL0     C 1938  12.033  12.740   5.190 -0.0397 -1.3320  0.0551
   15MOL0     C 1939  11.902  12.717   5.204  0.7938  0.5649 -0.2827
   15MOL0     N 1940  11.412  12.147   4.971  0.0220 -0.4336  0.3493
   15MOL0     N 1941  11.383  12.037   5.026  0.1208 -0.4239  0.0555
   15MOL0     C 1942  10.408  11.169   5.163  0.0385 -0.2242 -0.6786
   15MOL0     C 1943  10.284  11.114   5.129 -0.0194 -0.1609  1.2232
   15MOL0     C 1944   9.840  11.035   5.116 -1.0727 -0.2696  0.7219
   15MOL0     C 1945   9.754  11.117   5.047  0.0186  0.1837 -0.4198
   15MOL0     C 1946   9.646  11.070   4.963 -0.2361  0.1494  0.3200
   15MOL0     C 1947   9.617  10.929   4.958 -0.5248 -0.1342 -0.1410
   15MOL0     O 1948   9.523  10.868   4.881  0.3350 -0.1431 -0.0804
   15MOL0     C 1949   9.446  10.946   4.791 -0.9280 -0.6505  0.0024
   15MOL0     C 1950   9.371  10.860   4.688 -0.0529 -0.4531 -0.4427
   15MOL0     C 1951   9.298  10.740   4.753 -0.3280  0.6102 -0.7921
   15MOL0     C 1952   9.214  10.671   4.648  0.2534 -0.0668  0.0220
   15MOL0     C 1953   9.093  10.750   4.617 -0.0206 -1.2209 -0.0510
   15MOL0     C 1954   9.001  10.826   4.596 -0.7040 -0.3506  0.7461
   15MOL0     C 1955   9.706  10.845   5.040  0.0701  0.1712  0.2856
   15MOL0     C 1956   9.818  10.895   5.105 -0.3919  0.4167 -0.1728
   15MOL0     C 1957   9.910  10.795   5.177  0.5537  0.0836 -0.0596
   15MOL0     H 1958  10.140  11.063   5.421 -0.7084 -1.2994 -1.9919
   15MOL0     H 1959  10.348  11.158   5.498 -4.9865  0.0647  0.6336
   15MOL0     H 1960  10.660  11.276   5.181  1.0808 -2.0437  0.5125
   15MOL0     H 1961  10.570  11.420   5.256 -0.0221 -0.3708  0.1721
   15MOL0     H 1962  10.838  11.294   5.336  2.9896  1.8637 -1.1431
   15MOL0     H 1963  10.747  11.402   5.438 -0.4413 -0.4359 -1.0252
   15MOL0     H 1964  10.744  11.573   5.231  1.7247  1.1285 -0.4979
   15MOL0     H 1965  10.850  11.462   5.153  1.3061  1.0105 -0.5548
   15MOL0     H 1966  10.940  11.597   5.412  0.8036 -0.3297  0.3908
   15MOL0     H 1967  11.036  11.502   5.305 -1.2034 -0.8990 -0.2238
   15MOL0     H 1968  11.011  11.660   5.122  2.2957 -2.7762  0.9492
   15MOL0     H 1969  10.910  11.765   5.225  1.2723 -0.3456 -0.2469
   15MOL0     H 1970  11.102  11.796   5.372 -0.1642 -0.8102  0.1944
   15MOL0     H 1971  11.194  11.687   5.292 -2.1298 -1.7114 -0.7066
   15MOL0     H 1972  11.057  11.920   5.139  0.2324 -0.0360  1.0914
   15MOL0     H 1973  11.201  11.836   5.080 -2.8651 -0.3554 -2.0523
   15MOL0     H 1974  11.165  12.029   5.285 -2.2574  2.5821 -3.9660
   15MOL0     H 1975  11.324  11.934   5.271 -0.6753 -1.6639  1.0746
   15MOL0     H 1976  11.185  12.260   5.172  0.6701  2.0335 -0.8432
   15MOL0     H 1977  11.353  12.409   4.890  0.3307  1.0987  1.0195
   15MOL0     H 1978  11.282  12.445   5.048  0.4539  3.0258 -0.6905
   15MOL0     H 1979  11.476  12.434   5.160  1.6940 -0.0766  0.0241
   15MOL0     H 1980  11.577  12.375   5.021  0.7241 -0.2550  2.1160
   15MOL0     H 1981  11.447  12.641   5.084  0.2388 -1.6633  1.7524
   15MOL0     H 1982  11.506  12.604   4.919  0.4557 -2.1351 -0.6882
   15MOL0     H 1983  11.655  12.747   5.075 -0.2564 -1.2625  1.4638
   15MOL0     H 1984  11.727  12.611   4.963  0.9343 -0.1571  0.3062
   15MOL0     H 1985  11.881  12.379   5.168  1.1502 -0.4942 -2.7167
   15MOL0     H 1986  12.120  12.406   5.159 -1.3009 -0.5750  2.1837
   15MOL0     H 1987  12.477  12.780   5.035  0.5100 -0.2882 -0.3820
   15MOL0     H 1988  12.696  12.776   4.944 -1.8030 -0.1488 -1.4328
   15MOL0     H 1989  12.816  12.571   4.700 -0.9175  0.9227 -0.1113
   15MOL0     H 1990  12.848  12.726   4.787  1.6209  0.3107 -0.1786
   15MOL0     H 1991  13.082  12.641   4.841  1.1943 -0.5113 -0.4746
   15MOL0     H 1992  13.051  12.511   4.737 -0.5682  0.5664 -0.5257
   15MOL0     H 1993  13.166  12.643   4.602 -0.4416  0.1905 -2.4344
   15MOL0     H 1994  13.001  12.634   4.545  1.9340  0.5145 -2.4685
   15MOL0     H 1995  12.969  12.870   4.620  0.5812  1.7986  0.0764
   15MOL0     H 1996  13.102  12.842   4.512  0.1851  1.4820  0.6283
   15MOL0     H 1997  13.248  12.825   4.717  0.0129  0.1302 -2.0326
   15MOL0     H 1998  13.114  12.888   4.820  0.6703 -1.3921  0.3602
   15MOL0     H 1999  13.222  13.042   4.588 -0.5744 -1.1843 -0.3933
   15MOL0     H 2000  13.121  13.091   4.732  0.3294 -0.7073 -0.2840
   15MOL0     H 2001  13.317  13.020   4.868 -0.7267 -4.0588 -1.8114
   15MOL0     H 2002  13.338  13.174   4.772 -0.3960 -0.4626  0.6747
   15MOL0     H 2003  13.454  12.905   4.688  1.5336 -0.6617  0.0518
   15MOL0     H 2004  13.481  13.072   4.617  1.3049  0.1740  0.1151
   15MOL0     H 2005  12.725  12.362   4.998 -0.1319 -0.2290 -2.8290
   15MOL0     H 2006  12.494  12.356   5.113 -1.1874  1.1933  0.8327
   15MOL0     H 2007  12.074  12.841   5.194 -0.5727 -1.1430  1.3563
   15MOL0     H 2008  11.825  12.792   5.215 -1.0102 -1.5717  3.2876
   15MOL0     H 2009  10.489  11.180   5.091  1.5739  3.9793  1.3608
   15MOL0     H 2010  10.264  11.093   5.024 -0.5964  4.2061  0.2491
   15MOL0     H 2011   9.772  11.220   5.074 -1.3842 -0.0077  1.3697
   15MOL0     H 2012   9.573  11.139   4.922 -0.6123  0.5272  1.5746
   15MOL0     H 2013   9.515  11.012   4.737 -1.9375  0.9257  0.5601
   15MOL0     H 2014   9.375  11.011   4.843 -1.1328 -0.1624 -0.8613
   15MOL0     H 2015   9.451  10.820   4.625  1.5546 -2.4913  2.6111
   15MOL0     H 2016   9.302  10.929   4.640 -1.1447 -1.3678 -0.2136
   15MOL0     H 2017   9.249  10.776   4.844  1.5401 -1.3524  1.1176
   15MOL0     H 2018   9.378  10.674   4.788 -0.3002  1.5549  1.0894
   15MOL0     H 2019   9.276  10.650   4.560  0.3064  1.5343 -0.3575
   15MOL0     H 2020   9.184  10.575   4.690  1.9964 -1.3211 -1.4067
   15MOL0     H 2021   8.917  10.890   4.580 -0.8608 -0.4274  1.2314
   15MOL0     H 2022   9.685  10.738   5.040  1.0879 -0.0461  1.1400
   15MOL0     H 2023   9.860  10.701   5.198 -0.0615  0.9460  2.7260
   15MOL0     H 2024   9.998  10.766   5.119  1.9030 -0.7547  2.2921
   15MOL0     H 2025   9.939  10.832   5.276  0.8651 -0.2082 -0.0414
   16MOL0     O 2026  10.212   0.445   6.481 -0.3067  0.1895 -0.3541
   16MOL0     C 2027  10.150   0.523   6.407 -0.2466  0.5926 -0.8406
   16MOL0     O 2028  10.199   0.630   6.342 -0.6363 -0.2172  0.4815
   16MOL0     C 2029  10.344   0.649   6.339  0.3749 -0.2645 -0.5302
   16MOL0     C 2030  10.402   0.764   6.400 -0.0964 -0.9739 -0.0283
   16MOL0     C 2031  10.540   0.778   6.398 -0.0724  0.5719 -0.1699
   16MOL0     C 2032  10.625   0.685   6.325 -1.1185 -0.2829  0.5650
   16MOL0     O 2033  10.763   0.703   6.302 -0.1157 -0.6035 -0.4291
   16MOL0     C 2034  10.827   0.828   6.337  0.3210  0.5048 -0.4066
   16MOL0     C 2035  10.974   0.811   6.385 -0.9958 -0.4998  0.7200
   16MOL0     C 2036  11.080   0.804   6.268  1.0791 -0.2995 -0.3139
   16MOL0     C 2037  11.081   0.928   6.171 -0.1274  0.6995 -0.3994
   16MOL0     C 2038  11.211   0.930   6.089  0.1668  0.5838 -0.1731
   16MOL0     C 2039  11.342   0.946   6.168 -1.2652  0.2179  0.4073
   16MOL0     C 2040  11.475   0.978   6.077  0.4787 -0.5179 -1.1691
   16MOL0     C 2041  11.600   0.959   6.158  0.3158  0.0896  0.1022
   16MOL0     N 2042  11.726   0.993   6.087  0.1161  0.1278 -0.1209
   16MOL0     C 2043  11.789   0.909   5.996  0.6920 -0.6276  0.6989
   16MOL0     C 2044  11.902   0.971   5.943 -0.9442  1.1742 -0.8109
   16MOL0     C 2045  11.990   0.913   5.835  0.0170 -0.7745  0.7479
   16MOL0     C 2046  12.102   0.814   5.885 -0.5418  0.2087  0.0002
   16MOL0     C 2047  12.205   0.797   5.775 -0.1233  0.0922  0.2475
   16MOL0     C 2048  12.315   0.701   5.825 -0.7900 -0.0860  0.6692
   16MOL0     O 2049  12.433   0.704   5.737  0.5275 -0.1187  0.9252
   16MOL0     C 2050  12.542   0.779   5.758  0.2720 -0.1348 -0.0654
   16MOL0     C 2051  12.565   0.886   5.672  0.2060  0.5543 -0.3051
   16MOL0     C 2052  12.668   0.982   5.687 -0.1399  0.5326 -0.0840
   16MOL0     C 2053  12.752   0.969   5.806  0.5462 -0.4851  1.3255
   16MOL0     C 2054  12.851   1.077   5.820  0.7478  0.1772  0.5523
   16MOL0     O 2055  12.877   1.162   5.727  0.1473 -0.2073  0.4014
   16MOL0     C 2056  12.986   1.247   5.728  0.1052  0.0676 -0.1744
   16MOL0     C 2057  13.116   1.214   5.774  0.8950  0.6105  0.0527
   16MOL0     C 2058  13.211   1.307   5.774 -0.2434  0.0475 -0.0338
   16MOL0     C 2059  13.192   1.429   5.719 -0.7127 -0.5431  0.6194
   16MOL0     O 2060  13.299   1.516   5.724 -0.1074  1.0898  0.0544
   16MOL0     C 2061  13.272   1.646   5.675  0.3311 -0.2191 -0.4920
   16MOL0     C 2062  13.408   1.719   5.661 -0.1682  0.5845 -0.6597
   16MOL0     C 2063  13.498   1.661   5.548 -0.0039  0.5476  0.1983
   16MOL0     C 2064  13.634   1.729   5.543  0.1585 -0.6056  0.3367
   16MOL0     C 2065  13.726   1.645   5.443 -1.2821 -0.3901 -0.3721
   16MOL0     C 2066  13.661   1.640   5.299 -0.1970 -0.8059 -0.1524
   16MOL0     C 2067  13.756   1.584   5.185  0.3735 -0.3630  0.2416
   16MOL0     C 2068  13.868   1.675   5.154 -0.0888  0.3763  0.3811
   16MOL0    Cl 2069  13.935   1.659   4.993  0.0872  0.2477  0.2139
   16MOL0     C 2070  13.069   1.457   5.663  0.4004  0.1928  0.1588
   16MOL0     C 2071  12.964   1.368   5.669  0.3282  0.9446  0.1595
   16MOL0     O 2072  12.903   1.073   5.927  0.4956  0.4127 -0.6561
   16MOL0     C 2073  12.729   0.865   5.897 -0.7049  0.3341  0.0163
   16MOL0     C 2074  12.624   0.777   5.876  0.1047  0.4275 -0.1094
   16MOL0     N 2075  11.910   1.089   6.011  0.0986  0.1674 -0.0700
   16MOL0     N 2076  11.808   1.097   6.096  0.4998 -0.0263  0.0506
   16MOL0     C 2077  10.564   0.572   6.265  0.4285 -0.5372  0.9838
   16MOL0     C 2078  10.426   0.550   6.275  0.4536  0.7398 -0.1848
   16MOL0     C 2079  10.004   0.501   6.375 -0.1178  0.0821  0.1520
   16MOL0     C 2080   9.951   0.544   6.255  0.5902 -0.2619 -0.0534
   16MOL0     C 2081   9.819   0.530   6.220  0.7311  0.0993  0.4667
   16MOL0     C 2082   9.729   0.465   6.300 -0.5628 -0.0661  0.3830
   16MOL0     O 2083   9.605   0.441   6.250  0.1082 -0.1801  0.0420
   16MOL0     C 2084   9.575   0.303   6.234  0.5865 -0.0380  0.4579
   16MOL0     C 2085   9.436   0.286   6.197 -0.0629  0.2198  0.0706
   16MOL0     C 2086   9.334   0.275   6.313 -0.1847  0.5424  0.1058
   16MOL0     C 2087   9.197   0.212   6.283 -0.6005  0.6275 -0.1553
   16MOL0     C 2088   9.134   0.297   6.179 -0.3183 -0.7302 -0.4194
   16MOL0     C 2089   9.102   0.378   6.103 -0.5199  0.3393  0.5732
   16MOL0     C 2090   9.779   0.421   6.422  0.1117  0.3818  0.1212
   16MOL0     C 2091   9.917   0.425   6.460 -0.4722 -0.0081 -0.5334
   16MOL0     C 2092   9.949   0.355   6.594  0.7961  0.3047  0.2271
   16MOL0     H 2093  10.334   0.837   6.443 -2.3198 -1.1483 -2.9843
   16MOL0     H 2094  10.578   0.873   6.435  1.2065  0.4515 -1.0889
   16MOL0     H 2095  10.825   0.902   6.257  4.4569  0.6779 -0.5644
   16MOL0     H 2096  10.777   0.873   6.422  3.0562  1.3866  0.8580
   16MOL0     H 2097  10.981   0.713   6.433  0.1940 -0.6766  0.2224
   16MOL0     H 2098  11.005   0.894   6.450  2.8358 -0.6236 -0.6638
   16MOL0     H 2099  11.059   0.716   6.208  3.3620 -2.5254  1.8958
   16MOL0     H 2100  11.179   0.799   6.316  2.2617 -0.5605 -2.6291
   16MOL0     H 2101  11.007   0.928   6.091 -0.1275  1.8303 -0.4066
   16MOL0     H 2102  11.067   1.019   6.229  0.6655 -0.3604  1.5595
   16MOL0     H 2103  11.222   0.833   6.039 -1.5689  0.5143 -0.4839
   16MOL0     H 2104  11.207   1.007   6.012 -2.5985  1.4438  0.6999
   16MOL0     H 2105  11.342   1.018   6.250  1.8074  2.1762 -1.1059
   16MOL0     H 2106  11.367   0.849   6.211  3.2346  1.5047  1.2300
   16MOL0     H 2107  11.481   1.081   6.041 -0.1740 -1.4952 -4.3945
   16MOL0     H 2108  11.479   0.913   5.989  0.1918 -1.5525 -0.4368
   16MOL0     H 2109  11.595   1.015   6.253  1.3001 -0.8663  0.7369
   16MOL0     H 2110  11.593   0.856   6.193 -4.1001  0.5883  1.3321
   16MOL0     H 2111  11.758   0.809   5.966 -0.3625 -0.2480  0.4944
   16MOL0     H 2112  11.923   0.866   5.763  0.7449  0.2134 -0.6219
   16MOL0     H 2113  12.041   0.998   5.788 -1.7076 -0.3256 -0.4258
   16MOL0     H 2114  12.155   0.870   5.963 -1.4696  1.5426 -0.2987
   16MOL0     H 2115  12.060   0.722   5.927  0.9422 -0.1685  0.7207
   16MOL0     H 2116  12.247   0.890   5.737 -0.9076  1.3718  2.2917
   16MOL0     H 2117  12.146   0.760   5.691 -1.3150 -0.6781  1.3688
   16MOL0     H 2118  12.287   0.597   5.842  0.0884 -0.3467  0.5547
   16MOL0     H 2119  12.355   0.730   5.923  1.4931 -1.4944  0.2495
   16MOL0     H 2120  12.492   0.898   5.593  0.6313  1.7885 -0.5280
   16MOL0     H 2121  12.691   1.047   5.603  0.2383 -2.7864 -2.7902
   16MOL0     H 2122  13.140   1.121   5.825  2.9659  0.9451 -0.2588
   16MOL0     H 2123  13.311   1.280   5.806 -0.7197 -0.4932  1.0783
   16MOL0     H 2124  13.231   1.652   5.573  0.8174  1.0873 -0.6280
   16MOL0     H 2125  13.197   1.699   5.733  0.1619  0.6346 -1.4605
   16MOL0     H 2126  13.386   1.825   5.644  1.1194  1.0263  0.2871
   16MOL0     H 2127  13.466   1.710   5.753 -1.2452  0.7142  0.0636
   16MOL0     H 2128  13.514   1.554   5.563  0.6535  0.7183  0.7749
   16MOL0     H 2129  13.446   1.680   5.454 -0.3642  0.8773  0.4579
   16MOL0     H 2130  13.679   1.722   5.643 -2.6040  0.2124  1.7176
   16MOL0     H 2131  13.634   1.833   5.508  2.5061 -1.9901 -4.6337
   16MOL0     H 2132  13.735   1.546   5.489  0.6463  0.6236  1.6288
   16MOL0     H 2133  13.830   1.679   5.440 -1.4710  0.1406 -1.1416
   16MOL0     H 2134  13.574   1.574   5.304 -1.7518  1.1430  0.0198
   16MOL0     H 2135  13.629   1.741   5.271 -1.5632 -1.4206 -0.9060
   16MOL0     H 2136  13.690   1.573   5.099 -0.8257 -0.2165  1.1266
   16MOL0     H 2137  13.798   1.490   5.223 -0.4040 -0.9458 -0.3241
   16MOL0     H 2138  13.848   1.781   5.172  4.7737  1.2884  1.8244
   16MOL0     H 2139  13.944   1.637   5.222 -0.1125  1.7467  1.2075
   16MOL0     H 2140  13.056   1.556   5.620  3.6547  0.1343 -1.1990
   16MOL0     H 2141  12.869   1.392   5.622  0.7680  0.1416 -1.2133
   16MOL0     H 2142  12.785   0.852   5.990 -0.7936 -2.0205 -0.1904
   16MOL0     H 2143  12.618   0.697   5.949  0.8012  0.6142  0.1660
   16MOL0     H 2144  10.611   0.488   6.214 -2.6463 -1.7757 -0.0679
   16MOL0     H 2145  10.386   0.457   6.237  2.3332  0.5169 -1.7631
   16MOL0     H 2146  10.019   0.608   6.199  0.1296  1.2728  1.0748
   16MOL0     H 2147   9.786   0.566   6.123 -0.1857 -0.7384  0.4514
   16MOL0     H 2148   9.609   0.240   6.317 -0.8227 -2.2359 -0.5448
   16MOL0     H 2149   9.634   0.275   6.146 -0.8291  0.9070 -0.8530
   16MOL0     H 2150   9.423   0.197   6.135  0.5040  1.4173 -1.8810
   16MOL0     H 2151   9.406   0.371   6.134 -0.1841  1.9087  2.2848
   16MOL0     H 2152   9.318   0.371   6.362 -1.4567  0.6195 -0.4313
   16MOL0     H 2153   9.379   0.211   6.389 -3.7311  0.2122  2.1540
   16MOL0     H 2154   9.204   0.109   6.248  0.6563  1.1484 -1.5758
   16MOL0     H 2155   9.142   0.210   6.377 -1.5617 -0.5692 -0.7145
   16MOL0     H 2156   9.079   0.453   6.031 -0.3105  1.4801  1.6714
   16MOL0     H 2157   9.708   0.368   6.484  1.6289  1.7071  3.1928
   16MOL0     H 2158   9.871   0.309   6.657  1.9405  1.7962  2.8991
   16MOL0     H 2159  10.029   0.282   6.578 -0.3783 -0.6571 -1.5789
   16MOL0     H 2160   9.985   0.427   6.668 -0.7326 -0.1307  1.4768
   17MOL0     O 2161   3.341   0.983  10.543 -0.0409  0.2414 -0.1972
   17MOL0     C 2162   3.282   1.025  10.440  0.3232  0.2782  0.3057
   17MOL0     O 2163   3.338   1.114  10.341  0.6886  0.9751  0.1279
   17MOL0     C 2164   3.461   1.170  10.361 -0.4694  0.0450 -0.4846
   17MOL0     C 2165   3.467   1.308  10.380  0.2419  0.1553  0.0992
   17MOL0     C 2166   3.585   1.386  10.381  0.2114 -0.2482  0.0608
   17MOL0     C 2167   3.706   1.307  10.375  0.9380 -0.4830 -0.5081
   17MOL0     O 2168   3.828   1.361  10.393 -0.0203 -0.3262  0.2481
   17MOL0     C 2169   3.841   1.506  10.367  0.1630  0.3591  0.6035
   17MOL0     C 2170   3.989   1.533  10.334 -0.0190 -0.5013 -0.5657
   17MOL0     C 2171   4.028   1.682  10.332  0.6455  0.3398  0.1257
   17MOL0     C 2172   4.187   1.693  10.357 -0.1810 -0.2612  0.4630
   17MOL0     C 2173   4.226   1.825  10.424 -1.0143 -0.1633 -0.3625
   17MOL0     C 2174   4.375   1.837  10.472 -0.9227  0.1448  0.0611
   17MOL0     C 2175   4.482   1.848  10.369  0.5344 -0.4679 -0.3423
   17MOL0     C 2176   4.484   1.987  10.305  0.2703  0.0380  0.0837
   17MOL0     N 2177   4.609   2.018  10.232 -0.2352 -0.2837  1.2650
   17MOL0     C 2178   4.656   1.962  10.113  0.3821 -0.7500 -0.0402
   17MOL0     C 2179   4.765   2.049  10.080  0.2994 -0.3300 -0.1465
   17MOL0     C 2180   4.830   2.038   9.951  0.2596 -0.0021 -0.0490
   17MOL0     C 2181   4.916   2.165   9.908 -0.9259  0.3646 -0.0625
   17MOL0     C 2182   5.008   2.139   9.783 -0.2710  0.5712  0.4460
   17MOL0     C 2183   5.146   2.075   9.822  0.0054  0.4052  0.4254
   17MOL0     O 2184   5.189   2.012   9.698  0.3235 -0.7724 -0.2291
   17MOL0     C 2185   5.268   2.069   9.609 -0.7196 -0.2465  0.2415
   17MOL0     C 2186   5.328   2.189   9.620  0.2292 -0.6495 -0.4240
   17MOL0     C 2187   5.424   2.226   9.528  0.4050 -0.0462  0.4985
   17MOL0     C 2188   5.455   2.141   9.418  1.1850 -0.6631 -0.2295
   17MOL0     C 2189   5.555   2.198   9.319  0.2314 -1.4545  0.1198
   17MOL0     O 2190   5.636   2.293   9.368 -0.6682 -0.3635  0.4464
   17MOL0     C 2191   5.729   2.350   9.283 -0.0284 -0.0101 -0.7897
   17MOL0     C 2192   5.859   2.295   9.273  0.3387 -1.2283 -0.6506
   17MOL0     C 2193   5.947   2.342   9.173  0.0018 -0.2746  0.1700
   17MOL0     C 2194   5.911   2.447   9.089 -0.2824 -0.1867  0.3722
   17MOL0     O 2195   5.978   2.491   8.979  0.2345  0.0448 -0.0642
   17MOL0     C 2196   6.119   2.490   8.971 -0.1244  0.9173 -0.1343
   17MOL0     C 2197   6.185   2.606   9.050 -0.2274 -0.8261 -0.0205
   17MOL0     C 2198   6.331   2.626   9.022  0.0145  0.3762 -0.4678
   17MOL0     C 2199   6.430   2.517   9.071 -1.0851 -0.6850  0.4968
   17MOL0     C 2200   6.577   2.547   9.027  0.5700  0.1506  0.4766
   17MOL0     C 2201   6.638   2.660   9.116 -0.4116 -0.4873 -0.0564
   17MOL0     C 2202   6.793   2.652   9.131  0.1998  0.1458 -0.0902
   17MOL0     C 2203   6.855   2.768   9.215 -0.1857 -0.3854 -0.1816
   17MOL0    Cl 2204   6.992   2.711   9.294 -0.0677 -0.5100 -0.4791
   17MOL0     C 2205   5.791   2.510   9.110 -0.3802 -0.2935 -0.2066
   17MOL0     C 2206   5.694   2.453   9.201 -0.5216  0.4539  0.5033
   17MOL0     O 2207   5.572   2.137   9.210 -0.3740  0.4896  0.2894
   17MOL0     C 2208   5.400   2.017   9.418 -0.5925 -0.0746  0.1821
   17MOL0     C 2209   5.311   1.978   9.515 -0.0785 -0.1727 -0.5153
   17MOL0     N 2210   4.798   2.134  10.187 -0.0470 -0.4742  1.0825
   17MOL0     N 2211   4.698   2.118  10.273 -0.2786 -0.5025 -0.1031
   17MOL0     C 2212   3.702   1.176  10.345  1.1006  0.0105 -1.0143
   17MOL0     C 2213   3.578   1.102  10.330  0.3315  0.7446 -0.5162
   17MOL0     C 2214   3.135   0.995  10.424 -0.9865  0.4773 -0.0496
   17MOL0     C 2215   3.060   1.069  10.333 -0.4222 -0.6101  0.1384
   17MOL0     C 2216   2.922   1.049  10.301  0.7528 -0.7628  0.1674
   17MOL0     C 2217   2.857   0.958  10.383  1.2176  0.2125 -0.1372
   17MOL0     O 2218   2.717   0.935  10.368  0.0072 -1.0530  0.0849
   17MOL0     C 2219   2.636   1.055  10.361  0.4225 -0.3672 -0.7862
   17MOL0     C 2220   2.490   1.045  10.414  0.4677 -0.1225 -0.0682
   17MOL0     C 2221   2.428   0.905  10.390 -0.4708  1.3008 -0.6183
   17MOL0     C 2222   2.431   0.826  10.523  0.6808 -0.1498  0.7260
   17MOL0     C 2223   2.337   0.877  10.627  0.2672  0.3143 -0.5367
   17MOL0     C 2224   2.257   0.913  10.709 -0.4400 -0.4441  0.8193
   17MOL0     C 2225   2.922   0.888  10.483 -0.8663 -0.6642  0.0399
   17MOL0     C 2226   3.062   0.899  10.505 -0.0788  0.0186  0.2393
   17MOL0     C 2227   3.126   0.806  10.602 -0.5348  0.1320 -0.4021
   17MOL0     H 2228   3.375   1.366  10.389  0.2361  0.2311 -0.4096
   17MOL0     H 2229   3.580   1.494  10.396 -0.9972 -0.4088  1.0620
   17MOL0     H 2230   3.786   1.533  10.277 -0.0204  0.3588  0.7154
   17MOL0     H 2231   3.799   1.571  10.445  0.2517 -0.0179  0.9719
   17MOL0     H 2232   4.010   1.485  10.238  0.8212  1.2745 -1.3064
   17MOL0     H 2233   4.044   1.475  10.408 -3.0040 -1.5574  1.0066
   17MOL0     H 2234   3.966   1.732  10.407  0.2451 -0.7739  0.5529
   17MOL0     H 2235   4.007   1.736  10.239 -1.6562  2.4735  1.7275
   17MOL0     H 2236   4.220   1.616  10.428  0.7868 -0.3503 -0.0598
   17MOL0     H 2237   4.245   1.665  10.269  0.7929 -0.7199  1.2305
   17MOL0     H 2238   4.199   1.903  10.352 -0.0696  1.1360  0.6456
   17MOL0     H 2239   4.160   1.840  10.510 -0.9542  1.7199 -0.5976
   17MOL0     H 2240   4.384   1.916  10.547 -1.2393 -1.4629  1.8894
   17MOL0     H 2241   4.411   1.748  10.526  0.7435  0.8305  0.1467
   17MOL0     H 2242   4.458   1.772  10.295  1.7318  0.1416 -1.3849
   17MOL0     H 2243   4.578   1.828  10.416  0.8267 -1.6187 -1.4047
   17MOL0     H 2244   4.397   1.998  10.240  0.7608  0.2582 -0.5480
   17MOL0     H 2245   4.470   2.068  10.377  0.2370 -1.4894  1.8736
   17MOL0     H 2246   4.600   1.892  10.051  1.4683 -2.6488  0.9989
   17MOL0     H 2247   4.891   1.947   9.956 -1.7503 -1.6317 -2.4488
   17MOL0     H 2248   4.754   2.025   9.873  0.3099  3.4425 -0.8315
   17MOL0     H 2249   4.841   2.239   9.877 -2.4515 -0.4083  1.5770
   17MOL0     H 2250   4.972   2.205   9.993 -1.9398  0.7467  0.4400
   17MOL0     H 2251   5.021   2.232   9.726 -0.0060  0.5340  0.4420
   17MOL0     H 2252   4.952   2.064   9.726  0.2487 -0.2345  0.9734
   17MOL0     H 2253   5.137   1.991   9.891 -1.6702 -2.1950 -2.6733
   17MOL0     H 2254   5.227   2.139   9.858 -0.6868 -0.0854  3.0943
   17MOL0     H 2255   5.310   2.252   9.707  3.3463 -1.9972  1.3852
   17MOL0     H 2256   5.469   2.324   9.540 -0.7813  0.8216 -1.5175
   17MOL0     H 2257   5.887   2.211   9.336 -0.8887  0.2199  2.0019
   17MOL0     H 2258   6.045   2.297   9.164 -0.4140 -1.2171  0.2446
   17MOL0     H 2259   6.150   2.398   9.021  0.6419  1.7178  0.9394
   17MOL0     H 2260   6.144   2.486   8.865  1.9113 -2.1759  0.3181
   17MOL0     H 2261   6.126   2.696   9.032  0.9179 -0.3815 -1.8065
   17MOL0     H 2262   6.183   2.586   9.157 -0.8352 -0.0766  0.1186
   17MOL0     H 2263   6.338   2.626   8.913 -0.9134 -0.4165 -0.5444
   17MOL0     H 2264   6.362   2.722   9.065 -1.2029  1.3331 -1.6644
   17MOL0     H 2265   6.396   2.421   9.029 -0.6049 -0.3309 -0.7691
   17MOL0     H 2266   6.434   2.509   9.180  1.5087  0.0665  0.5274
   17MOL0     H 2267   6.590   2.574   8.921  0.4225 -0.3437  0.3286
   17MOL0     H 2268   6.631   2.456   9.054  0.3551  0.1532  0.9216
   17MOL0     H 2269   6.614   2.758   9.073 -0.1717  0.4942  1.9484
   17MOL0     H 2270   6.596   2.665   9.217  2.4208 -0.9710  1.2280
   17MOL0     H 2271   6.837   2.647   9.031 -1.4939 -0.5148 -0.8485
   17MOL0     H 2272   6.825   2.558   9.177  0.1152 -0.3508 -1.0252
   17MOL0     H 2273   6.889   2.847   9.147  3.3798  0.5421  2.3682
   17MOL0     H 2274   6.778   2.811   9.279 -2.3196  0.7341 -3.2537
   17MOL0     H 2275   5.764   2.599   9.054  0.5877  1.9390  2.6294
   17MOL0     H 2276   5.592   2.491   9.202 -1.5073 -1.7172 -2.4926
   17MOL0     H 2277   5.426   1.947   9.339  1.6288  1.1650 -0.2558
   17MOL0     H 2278   5.270   1.878   9.513  1.4866 -0.8449 -1.3060
   17MOL0     H 2279   3.793   1.118  10.335  0.1337 -2.5139  2.7193
   17MOL0     H 2280   3.583   0.996  10.309  0.3945  1.0177 -1.9752
   17MOL0     H 2281   3.099   1.147  10.269 -1.9243  0.9076  0.9901
   17MOL0     H 2282   2.871   1.108  10.225  1.4016  0.8792  0.9427
   17MOL0     H 2283   2.638   1.083  10.256  1.7405  2.7242 -0.0280
   17MOL0     H 2284   2.684   1.138  10.414  1.7832 -0.6107 -1.5948
   17MOL0     H 2285   2.435   1.127  10.367 -0.2842 -0.8721 -0.5415
   17MOL0     H 2286   2.488   1.077  10.518  2.6066  3.0516 -0.8785
   17MOL0     H 2287   2.483   0.845  10.318 -0.0136  0.2553  0.5744
   17MOL0     H 2288   2.325   0.913  10.352 -0.7730  0.6924  0.0593
   17MOL0     H 2289   2.415   0.721  10.501  3.3834 -0.6027  0.5509
   17MOL0     H 2290   2.534   0.829  10.559  0.3228 -0.7963  1.8308
   17MOL0     H 2291   2.185   0.926  10.788 -1.3680 -0.2059 -0.0480
   17MOL0     H 2292   2.853   0.847  10.556  0.8316 -1.5452  1.2026
   17MOL0     H 2293   3.056   0.769  10.677  0.3565 -0.4870  0.1338
   17MOL0     H 2294   3.180   0.731  10.543  0.8342  4.2379 -5.1164
   17MOL0     H 2295   3.200   0.864  10.657 -1.5127  3.3126 -2.1904
   18MOL0     O 2296   5.635   3.094   5.559 -0.4451 -0.1812  0.0026
   18MOL0     C 2297   5.644   3.034   5.669 -0.7686  0.7135 -0.3565
   18MOL0     O 2298   5.757   2.970   5.714  0.4027 -0.1300 -0.2705
   18MOL0     C 2299   5.878   2.965   5.647  0.6249 -1.2601  0.4592
   18MOL0     C 2300   5.991   2.933   5.721  0.3019  0.0452  0.4516
   18MOL0     C 2301   6.116   2.918   5.663 -0.0792 -0.4907 -0.3289
   18MOL0     C 2302   6.127   2.940   5.523 -0.1542 -0.7200  0.7680
   18MOL0     O 2303   6.234   2.931   5.446 -0.6021  0.4120  0.1965
   18MOL0     C 2304   6.353   2.858   5.488 -0.8301 -0.2820  0.0354
   18MOL0     C 2305   6.461   2.874   5.394 -1.6952 -0.4705  0.1005
   18MOL0     C 2306   6.600   2.826   5.453  0.5321  0.8020 -0.1568
   18MOL0     C 2307   6.705   2.850   5.341 -0.1958 -0.3724  0.0594
   18MOL0     C 2308   6.854   2.807   5.365 -0.7683 -0.6485  0.8171
   18MOL0     C 2309   6.950   2.863   5.253  0.0866  0.7273  0.5916
   18MOL0     C 2310   7.073   2.774   5.229 -0.4934  0.1536 -0.5497
   18MOL0     C 2311   7.176   2.785   5.336 -1.0988  0.4190  0.7759
   18MOL0     N 2312   7.306   2.777   5.272 -0.8020 -0.5632  0.5097
   18MOL0     C 2313   7.363   2.871   5.183  0.3287 -0.4321 -1.1403
   18MOL0     C 2314   7.498   2.847   5.190 -0.0838  0.7216 -0.2402
   18MOL0     C 2315   7.606   2.911   5.110 -0.5321 -0.6000  0.1002
   18MOL0     C 2316   7.700   2.989   5.198 -0.0736  0.0335 -0.5832
   18MOL0     C 2317   7.825   3.037   5.115  0.1098 -0.0286 -0.9217
   18MOL0     C 2318   7.933   3.084   5.226 -0.5500  0.0004  0.7847
   18MOL0     O 2319   8.041   3.142   5.149 -0.2328  0.1733  0.0089
   18MOL0     C 2320   8.149   3.186   5.226 -0.2505  0.1943  0.2132
   18MOL0     C 2321   8.254   3.244   5.157  0.4866  0.2841 -0.5000
   18MOL0     C 2322   8.368   3.286   5.221 -0.3862  0.0668  0.4504
   18MOL0     C 2323   8.393   3.273   5.360  0.5090  0.5334  0.1920
   18MOL0     C 2324   8.521   3.311   5.425 -0.1094  0.4643 -0.2415
   18MOL0     O 2325   8.608   3.376   5.342 -0.9524 -0.3546 -0.5949
   18MOL0     C 2326   8.712   3.441   5.398  0.0427 -0.4735 -0.2824
   18MOL0     C 2327   8.832   3.453   5.327  1.0001 -0.1660  0.5755
   18MOL0     C 2328   8.943   3.517   5.375 -0.3490 -0.0580 -0.1645
   18MOL0     C 2329   8.938   3.583   5.499 -0.6597 -0.2542  0.2203
   18MOL0     O 2330   9.058   3.646   5.534 -0.2221  0.2026 -0.2001
   18MOL0     C 2331   9.047   3.748   5.635 -0.4123 -0.0696 -0.1478
   18MOL0     C 2332   9.160   3.845   5.600 -0.4276  0.4265  0.6260
   18MOL0     C 2333   9.158   3.975   5.663  0.3192 -0.1628  0.2366
   18MOL0     C 2334   9.260   4.070   5.584 -0.1967 -0.3842 -0.7855
   18MOL0     C 2335   9.397   4.052   5.649  1.1520  0.1989 -0.3603
   18MOL0     C 2336   9.474   4.189   5.647  0.3448  0.0678  0.0289
   18MOL0     C 2337   9.423   4.294   5.741 -0.1489  0.9052  0.8733
   18MOL0     C 2338   9.444   4.428   5.678  0.5055 -0.0810  1.1585
   18MOL0    Cl 2339   9.425   4.554   5.807  0.2170 -0.2320  0.0312
   18MOL0     C 2340   8.825   3.581   5.572  0.6612  0.6850  0.2619
   18MOL0     C 2341   8.711   3.510   5.521  0.2329  0.0382 -0.3691
   18MOL0     O 2342   8.545   3.276   5.540 -0.1797 -1.0725 -0.3795
   18MOL0     C 2343   8.286   3.214   5.434  0.2458  0.1010  0.5743
   18MOL0     C 2344   8.163   3.170   5.370 -0.1929 -0.2509 -0.4765
   18MOL0     N 2345   7.519   2.731   5.271 -0.1993 -0.8442  0.0957
   18MOL0     N 2346   7.405   2.694   5.310  0.1615 -0.5327  0.8469
   18MOL0     C 2347   6.015   2.982   5.447 -0.8926 -1.0903  0.1304
   18MOL0     C 2348   5.896   2.994   5.504  1.0086  0.6159  0.4354
   18MOL0     C 2349   5.520   3.029   5.752  0.2666  0.1628 -0.2492
   18MOL0     C 2350   5.417   3.115   5.711 -0.6392 -0.7181  0.7727
   18MOL0     C 2351   5.293   3.110   5.771 -1.0933  0.3440 -0.4454
   18MOL0     C 2352   5.274   3.022   5.868  0.4868 -0.2127 -0.1752
   18MOL0     O 2353   5.142   3.034   5.917 -0.0526  0.2133  0.1833
   18MOL0     C 2354   5.105   2.979   6.039 -0.1672  0.9309  0.3040
   18MOL0     C 2355   4.955   3.001   6.072  0.3600 -0.5011  0.2625
   18MOL0     C 2356   4.918   2.975   6.219  0.3386 -0.0491  0.1721
   18MOL0     C 2357   4.773   2.968   6.235  0.1492  0.3343  0.3145
   18MOL0     C 2358   4.732   2.967   6.383 -0.6409  0.3533 -0.4590
   18MOL0     C 2359   4.698   2.978   6.493  0.1434 -0.5860  0.4880
   18MOL0     C 2360   5.367   2.931   5.914 -0.1371 -0.5981  0.5929
   18MOL0     C 2361   5.500   2.938   5.858  0.2013  0.1993 -0.4114
   18MOL0     C 2362   5.603   2.854   5.922 -0.4707  0.0375  0.0949
   18MOL0     H 2363   5.991   2.908   5.826  1.6710 -3.7254 -0.2989
   18MOL0     H 2364   6.193   2.891   5.733  0.3700  2.1442  0.2988
   18MOL0     H 2365   6.390   2.886   5.587  1.6530 -3.9862  0.3965
   18MOL0     H 2366   6.339   2.750   5.500 -0.6927 -0.2702  0.3195
   18MOL0     H 2367   6.467   2.981   5.371  2.7667 -0.3375  0.9414
   18MOL0     H 2368   6.436   2.819   5.303  0.9611  0.6163 -1.3966
   18MOL0     H 2369   6.590   2.719   5.471 -1.2710  1.0240  0.3693
   18MOL0     H 2370   6.626   2.869   5.550  0.9861  0.3948 -0.0931
   18MOL0     H 2371   6.663   2.800   5.253 -1.6026 -0.5579  0.8143
   18MOL0     H 2372   6.712   2.956   5.316  2.3379 -1.0228 -2.5517
   18MOL0     H 2373   6.881   2.853   5.460  2.7687  0.2805 -0.4811
   18MOL0     H 2374   6.855   2.700   5.385  0.1218 -1.6188 -3.4421
   18MOL0     H 2375   6.888   2.856   5.163 -0.3977  0.4123  0.9435
   18MOL0     H 2376   6.968   2.967   5.281 -1.7153  0.8105  1.5972
   18MOL0     H 2377   7.113   2.791   5.129 -1.6376  1.0914 -0.8722
   18MOL0     H 2378   7.043   2.669   5.227 -0.1581 -0.2142  3.6338
   18MOL0     H 2379   7.168   2.881   5.387 -1.5131  1.6103 -1.3846
   18MOL0     H 2380   7.165   2.709   5.413 -0.4177 -0.8654 -0.3471
   18MOL0     H 2381   7.311   2.941   5.118  0.4803  0.4170 -0.3674
   18MOL0     H 2382   7.649   2.828   5.053  0.4691 -0.9757  1.3698
   18MOL0     H 2383   7.555   2.985   5.047 -1.7341 -0.7473  0.8739
   18MOL0     H 2384   7.652   3.078   5.241 -0.6554  1.2352 -3.4909
   18MOL0     H 2385   7.724   2.920   5.279  3.6306  0.6862 -0.9232
   18MOL0     H 2386   7.798   3.132   5.066 -2.5711 -0.3707 -0.2194
   18MOL0     H 2387   7.867   2.964   5.044  3.2450  1.5604 -0.8879
   18MOL0     H 2388   7.963   2.994   5.279  0.5101 -1.5395 -2.1878
   18MOL0     H 2389   7.882   3.158   5.289  1.1421  2.4871 -0.6061
   18MOL0     H 2390   8.245   3.245   5.048 -2.6481 -0.9340 -0.3520
   18MOL0     H 2391   8.448   3.339   5.169 -2.9005  2.0516 -1.6699
   18MOL0     H 2392   8.832   3.405   5.230 -1.2816  0.1339  0.3792
   18MOL0     H 2393   9.031   3.523   5.312  1.5967  1.0131  2.4946
   18MOL0     H 2394   8.951   3.800   5.633 -1.3476 -1.7081  0.3667
   18MOL0     H 2395   9.062   3.708   5.736 -1.2327 -0.5336 -0.2038
   18MOL0     H 2396   9.243   3.791   5.646 -0.0812  0.4039 -0.0212
   18MOL0     H 2397   9.169   3.852   5.491  2.4484 -1.1336  0.6580
   18MOL0     H 2398   9.062   4.025   5.652  1.3084  1.7492 -0.2339
   18MOL0     H 2399   9.177   3.965   5.771  2.1823 -0.2745 -0.0622
   18MOL0     H 2400   9.224   4.174   5.589  1.3452  0.1655 -0.7605
   18MOL0     H 2401   9.258   4.032   5.482 -0.8257 -4.1437  0.4721
   18MOL0     H 2402   9.449   3.981   5.584  0.7319  0.9311 -1.5202
   18MOL0     H 2403   9.396   4.007   5.749  0.1446  0.9292 -0.0322
   18MOL0     H 2404   9.575   4.170   5.683 -0.0986  2.0545  2.5712
   18MOL0     H 2405   9.478   4.226   5.544 -2.2626  3.1724  0.8568
   18MOL0     H 2406   9.483   4.284   5.832  1.4239  3.6050  0.2616
   18MOL0     H 2407   9.319   4.269   5.764  0.4747 -0.8524  2.0125
   18MOL0     H 2408   9.539   4.432   5.625 -0.2002  1.4090 -0.0969
   18MOL0     H 2409   9.377   4.441   5.592  2.1993 -0.7806 -0.3439
   18MOL0     H 2410   8.814   3.639   5.663 -3.4324 -1.2203  1.2406
   18MOL0     H 2411   8.623   3.511   5.584 -0.8735  0.0818 -1.8734
   18MOL0     H 2412   8.298   3.191   5.539  2.2040 -0.6340  0.2298
   18MOL0     H 2413   8.089   3.112   5.424  0.6806 -1.7542 -0.8394
   18MOL0     H 2414   6.026   3.024   5.347  3.0369  2.4305  1.7510
   18MOL0     H 2415   5.814   3.033   5.445  2.9349  2.2801 -1.2849
   18MOL0     H 2416   5.424   3.170   5.618  3.3405 -2.3115 -0.1006
   18MOL0     H 2417   5.221   3.182   5.734  0.4861  3.0315  1.3354
   18MOL0     H 2418   5.171   3.026   6.111 -0.6326  0.5434  0.9947
   18MOL0     H 2419   5.121   2.871   6.030 -1.8567  0.6068  0.7382
   18MOL0     H 2420   4.899   2.942   5.999  2.2679  0.3068 -1.9591
   18MOL0     H 2421   4.939   3.109   6.057  3.8953  0.0967 -0.1051
   18MOL0     H 2422   4.951   3.061   6.279  3.0530  0.4817 -1.9180
   18MOL0     H 2423   4.961   2.879   6.246 -1.3388 -1.1782 -0.9730
   18MOL0     H 2424   4.723   3.054   6.189  0.1706  0.7217  1.0101
   18MOL0     H 2425   4.731   2.888   6.172  1.8748  0.2106 -0.7527
   18MOL0     H 2426   4.668   3.006   6.592  0.2976 -0.5575  0.5277
   18MOL0     H 2427   5.336   2.853   5.982 -1.7268 -1.2833 -0.8393
   18MOL0     H 2428   5.551   2.784   5.988 -0.0788 -1.5324 -1.1780
   18MOL0     H 2429   5.662   2.797   5.849 -0.9566  1.0408 -1.1046
   18MOL0     H 2430   5.670   2.916   5.983 -0.2651  1.7277 -1.7496
   19MOL0     O 2431   0.833   6.427   7.343 -1.0991 -0.8889 -0.0377
   19MOL0     C 2432   0.786   6.529   7.395 -0.3529  0.1114  0.4362
   19MOL0     O 2433   0.855   6.613   7.482 -0.2529 -0.3574 -0.3864
   19MOL0     C 2434   0.966   6.558   7.548  0.1819 -0.0091  0.1352
   19MOL0     C 2435   1.092   6.619   7.525  0.7486 -0.4433 -0.0576
   19MOL0     C 2436   1.213   6.581   7.581 -0.5283  0.1525 -0.5685
   19MOL0     C 2437   1.211   6.477   7.672 -0.0221  0.7952  0.4206
   19MOL0     O 2438   1.333   6.432   7.718 -0.2097  0.4578 -0.1465
   19MOL0     C 2439   1.341   6.287   7.713  0.0043 -0.4306  0.0632
   19MOL0     C 2440   1.491   6.262   7.702 -0.0566 -0.7859  0.5082
   19MOL0     C 2441   1.538   6.309   7.565 -0.5676  0.0766 -0.3567
   19MOL0     C 2442   1.686   6.274   7.549 -1.2257 -0.1788 -0.4035
   19MOL0     C 2443   1.751   6.349   7.433  0.5004  0.5959  0.2455
   19MOL0     C 2444   1.899   6.307   7.435  0.1101  1.1360 -0.4889
   19MOL0     C 2445   1.981   6.381   7.330  0.5633  0.1690  0.2946
   19MOL0     C 2446   2.129   6.366   7.364 -0.2533  0.4896 -0.2844
   19MOL0     N 2447   2.212   6.433   7.261  0.1721 -0.2142  0.1308
   19MOL0     C 2448   2.329   6.505   7.276  0.6283 -0.9597 -0.1096
   19MOL0     C 2449   2.393   6.494   7.156  0.2201 -1.1458 -0.8055
   19MOL0     C 2450   2.534   6.526   7.115 -0.0280  0.6606 -0.3942
   19MOL0     C 2451   2.621   6.403   7.125 -0.9409  0.7067  1.1128
   19MOL0     C 2452   2.755   6.419   7.043 -0.2385 -0.3646 -0.3573
   19MOL0     C 2453   2.844   6.531   7.103  0.2815  0.5680 -1.0850
   19MOL0     O 2454   2.810   6.654   7.044  0.5870 -0.7649  0.2457
   19MOL0     C 2455   2.919   6.731   7.008 -0.3241 -0.3021 -0.0310
   19MOL0     C 2456   3.024   6.688   6.929 -0.4617 -0.4929 -0.4347
   19MOL0     C 2457   3.133   6.772   6.906 -0.0282 -0.2184  0.3910
   19MOL0     C 2458   3.142   6.899   6.956 -0.7165  0.3678  0.8809
   19MOL0     C 2459   3.252   6.994   6.922 -0.3118 -0.6710 -0.3462
   19MOL0     O 2460   3.257   7.110   6.979  0.3811  0.2757 -0.0608
   19MOL0     C 2461   3.323   7.214   6.913  0.3381  0.3071  0.3791
   19MOL0     C 2462   3.454   7.238   6.948 -0.8476  0.3952 -0.5076
   19MOL0     C 2463   3.533   7.330   6.876  0.1158  0.0840  0.0504
   19MOL0     C 2464   3.477   7.411   6.788 -0.9428 -0.0591 -0.0088
   19MOL0     O 2465   3.545   7.511   6.723  1.1090 -0.3357 -0.5165
   19MOL0     C 2466   3.636   7.592   6.793 -0.2071  0.2514 -0.9131
   19MOL0     C 2467   3.697   7.689   6.688  0.3177  0.2954 -0.6318
   19MOL0     C 2468   3.796   7.618   6.581  0.4694 -0.3660 -1.0042
   19MOL0     C 2469   3.942   7.629   6.628 -0.3714  0.2267 -0.3250
   19MOL0     C 2470   4.038   7.574   6.536  0.1313 -1.0774 -0.8065
   19MOL0     C 2471   4.034   7.424   6.539 -0.2655  0.8365  0.0842
   19MOL0     C 2472   4.146   7.370   6.441  0.6645 -0.3825 -1.2437
   19MOL0     C 2473   4.151   7.217   6.450  0.1105  0.8594 -0.7446
   19MOL0    Cl 2474   4.011   7.133   6.356  0.4627  0.2066 -0.4333
   19MOL0     C 2475   3.340   7.386   6.750 -0.2075 -0.5895 -0.3601
   19MOL0     C 2476   3.269   7.290   6.814  0.2951  0.3287 -0.4891
   19MOL0     O 2477   3.331   6.964   6.832 -0.1725  0.0362  0.1213
   19MOL0     C 2478   3.036   6.940   7.041  0.0146 -0.7595 -0.9463
   19MOL0     C 2479   2.928   6.855   7.063 -0.2441  0.4246 -0.6925
   19MOL0     N 2480   2.303   6.435   7.065 -0.5014  0.3798 -0.2091
   19MOL0     N 2481   2.203   6.405   7.128  0.3765 -0.7414  0.4060
   19MOL0     C 2482   1.090   6.413   7.702 -0.7769  0.3797 -0.1759
   19MOL0     C 2483   0.970   6.458   7.645  0.8261  0.8864 -0.3827
   19MOL0     C 2484   0.646   6.571   7.358 -0.5762  0.6681  0.8216
   19MOL0     C 2485   0.610   6.701   7.407 -0.0124 -0.1166  1.1161
   19MOL0     C 2486   0.495   6.759   7.371  1.0453 -0.3704 -0.2114
   19MOL0     C 2487   0.394   6.688   7.306  0.1393  0.6605  0.5154
   19MOL0     O 2488   0.268   6.741   7.303 -0.0652 -0.2247 -0.0313
   19MOL0     C 2489   0.160   6.668   7.233  1.6870 -0.5390  0.8164
   19MOL0     C 2490   0.161   6.672   7.076 -0.8006  0.2122 -0.6583
   19MOL0     C 2491   0.158   6.824   7.037 -0.5385  0.2356 -0.3244
   19MOL0     C 2492   0.195   6.861   6.894  0.0212  0.4771  0.7028
   19MOL0     C 2493   0.330   6.840   6.862 -0.8375  0.6047  0.4786
   19MOL0     C 2494   0.444   6.814   6.829  0.0414 -0.1230 -0.9546
   19MOL0     C 2495   0.430   6.562   7.260  0.4468  0.4482  0.2859
   19MOL0     C 2496   0.548   6.500   7.282 -0.3517 -0.4982 -0.2663
   19MOL0     C 2497   0.570   6.365   7.228 -0.2860 -0.2323  0.7935
   19MOL0     H 2498   1.086   6.699   7.452  0.9739  2.1112  2.5515
   19MOL0     H 2499   1.308   6.618   7.545  0.5749 -2.1925 -0.2944
   19MOL0     H 2500   1.287   6.250   7.801 -1.6344 -0.1776 -0.8114
   19MOL0     H 2501   1.290   6.246   7.626  3.6024 -3.9659 -0.7183
   19MOL0     H 2502   1.512   6.157   7.728 -1.7204 -0.1900  5.3620
   19MOL0     H 2503   1.553   6.319   7.772  2.3296 -0.8323 -1.4167
   19MOL0     H 2504   1.532   6.418   7.550 -0.8444  0.3195  1.2789
   19MOL0     H 2505   1.484   6.253   7.488  0.8880 -0.1506 -1.2457
   19MOL0     H 2506   1.724   6.315   7.643 -2.0320  2.7374 -1.2300
   19MOL0     H 2507   1.700   6.166   7.545  0.7163 -0.0354  1.0471
   19MOL0     H 2508   1.689   6.335   7.344  1.7248  2.0697 -0.8884
   19MOL0     H 2509   1.748   6.456   7.457  0.3698  0.1997  2.1799
   19MOL0     H 2510   1.934   6.329   7.537 -1.0864  2.0581 -0.2478
   19MOL0     H 2511   1.911   6.199   7.425  1.0638  1.4376 -3.4854
   19MOL0     H 2512   1.943   6.483   7.334  0.0158  0.0368 -0.8416
   19MOL0     H 2513   1.961   6.329   7.236  1.1363 -0.3051  0.4255
   19MOL0     H 2514   2.147   6.396   7.468  2.1293 -1.2667 -0.1188
   19MOL0     H 2515   2.153   6.260   7.370  0.0829  0.5339 -0.8182
   19MOL0     H 2516   2.377   6.528   7.370 -0.6307  1.4648  0.0279
   19MOL0     H 2517   2.537   6.576   7.018  2.7805  0.0254 -0.6923
   19MOL0     H 2518   2.588   6.588   7.187  0.7151 -1.8732  1.3700
   19MOL0     H 2519   2.644   6.384   7.230 -1.2809 -0.8428  0.9165
   19MOL0     H 2520   2.569   6.317   7.083  1.6952 -0.7993  0.7380
   19MOL0     H 2521   2.741   6.448   6.938  2.1057  1.3060 -0.3064
   19MOL0     H 2522   2.810   6.325   7.041 -1.8718 -1.3550 -0.5087
   19MOL0     H 2523   2.950   6.506   7.090 -0.0573 -1.3312 -0.4411
   19MOL0     H 2524   2.825   6.527   7.210  1.0271 -2.2648 -0.9759
   19MOL0     H 2525   3.025   6.583   6.900 -1.0392  0.2449 -3.5771
   19MOL0     H 2526   3.218   6.730   6.855  2.8535  1.3458  3.5055
   19MOL0     H 2527   3.493   7.163   7.017 -2.5836 -0.4435 -0.3962
   19MOL0     H 2528   3.640   7.342   6.890  0.4904 -2.2800 -0.2226
   19MOL0     H 2529   3.587   7.654   6.868  0.1376 -2.0695  1.3964
   19MOL0     H 2530   3.713   7.529   6.840 -2.1824 -0.8560  1.0115
   19MOL0     H 2531   3.617   7.751   6.644 -0.7376  1.0019  2.1053
   19MOL0     H 2532   3.757   7.763   6.741  1.5819 -1.4446  0.4389
   19MOL0     H 2533   3.764   7.516   6.556  1.0744 -0.7834 -0.1346
   19MOL0     H 2534   3.784   7.675   6.488 -2.5074  0.6921 -0.0783
   19MOL0     H 2535   3.951   7.588   6.728  0.2016  0.8109 -0.1250
   19MOL0     H 2536   3.970   7.734   6.642 -0.0105  0.5315 -2.7560
   19MOL0     H 2537   4.136   7.611   6.569 -0.5581  2.3543 -2.2001
   19MOL0     H 2538   4.038   7.615   6.435 -2.6905  0.5973 -0.2264
   19MOL0     H 2539   4.045   7.388   6.641  0.2461  0.9839  0.0850
   19MOL0     H 2540   3.939   7.390   6.498 -0.5207  2.4997 -0.7799
   19MOL0     H 2541   4.245   7.393   6.481 -0.6985 -0.4806  2.5110
   19MOL0     H 2542   4.135   7.415   6.342  0.6076  2.8988  0.1244
   19MOL0     H 2543   4.245   7.192   6.400  1.1429  2.9925 -0.0058
   19MOL0     H 2544   4.168   7.175   6.550  1.0198 -1.8949 -1.9646
   19MOL0     H 2545   3.290   7.459   6.687  0.6171  1.2129  1.0014
   19MOL0     H 2546   3.163   7.276   6.797 -0.2640  3.7082 -0.3715
   19MOL0     H 2547   3.028   7.040   7.084 -2.1632 -1.8862  1.5493
   19MOL0     H 2548   2.841   6.881   7.122 -1.1277 -2.5419 -0.5400
   19MOL0     H 2549   1.100   6.333   7.775 -0.9550 -0.0293 -0.5958
   19MOL0     H 2550   0.876   6.412   7.673  0.7775  1.4722  0.4326
   19MOL0     H 2551   0.667   6.765   7.473  0.3670 -0.6127  1.2774
   19MOL0     H 2552   0.458   6.856   7.402 -2.3874 -1.8427  0.8117
   19MOL0     H 2553   0.062   6.704   7.263  1.7566  0.2072  0.1717
   19MOL0     H 2554   0.154   6.567   7.274 -2.5619 -1.2782 -1.0215
   19MOL0     H 2555   0.071   6.622   7.039 -1.1894 -1.0379  1.8067
   19MOL0     H 2556   0.251   6.620   7.039 -0.9392 -0.8573  0.4536
   19MOL0     H 2557   0.232   6.878   7.098 -0.4590 -0.0079 -0.2051
   19MOL0     H 2558   0.059   6.862   7.065  0.1247 -0.0803  2.8038
   19MOL0     H 2559   0.126   6.808   6.828  1.4420 -0.6512  0.0565
   19MOL0     H 2560   0.174   6.965   6.869  0.0474  1.2475  3.5456
   19MOL0     H 2561   0.543   6.774   6.824  0.4645  0.8278 -0.4182
   19MOL0     H 2562   0.349   6.500   7.224  2.1935 -0.9847 -1.4420
   19MOL0     H 2563   0.481   6.316   7.187 -0.2771  1.0379 -0.8767
   19MOL0     H 2564   0.635   6.372   7.141  1.0983  2.1509  1.9157
   19MOL0     H 2565   0.624   6.320   7.312  2.0009  1.6969  0.4389
   20MOL0     O 2566   4.314   3.198   5.899 -0.2575  0.7274  0.0285
   20MOL0     C 2567   4.346   3.236   6.009  0.3360 -0.2268  0.2856
   20MOL0     O 2568   4.466   3.261   6.049  0.0489  0.0694  0.4311
   20MOL0     C 2569   4.572   3.227   5.969  0.4751 -0.5814  0.2600
   20MOL0     C 2570   4.642   3.336   5.910  0.0392  1.2982 -0.3362
   20MOL0     C 2571   4.751   3.308   5.827  0.2247 -0.4227  0.2566
   20MOL0     C 2572   4.781   3.173   5.795 -0.8866 -0.0470 -0.6211
   20MOL0     O 2573   4.893   3.159   5.721 -0.8581 -0.0902 -0.8140
   20MOL0     C 2574   4.892   3.069   5.616  0.0932  0.4057  0.3264
   20MOL0     C 2575   4.985   3.144   5.518 -0.6431 -0.4698 -0.1231
   20MOL0     C 2576   5.090   3.047   5.465 -0.3103 -0.1467  0.3416
   20MOL0     C 2577   5.172   3.106   5.358  0.0300  0.6425 -0.3280
   20MOL0     C 2578   5.246   2.994   5.283 -0.0673 -0.5872  0.1594
   20MOL0     C 2579   5.313   3.069   5.166 -0.1353 -0.1627 -0.4848
   20MOL0     C 2580   5.436   3.000   5.114  0.4290 -0.1901 -0.0826
   20MOL0     C 2581   5.400   2.922   4.991  0.3923  0.2881  0.2047
   20MOL0     N 2582   5.523   2.902   4.906  0.2586 -0.2730 -0.1456
   20MOL0     C 2583   5.616   2.791   4.919  1.2062 -0.9429  0.5579
   20MOL0     C 2584   5.695   2.808   4.811  0.5129 -1.2905 -0.2626
   20MOL0     C 2585   5.798   2.710   4.769  0.1566 -0.1044  0.5780
   20MOL0     C 2586   5.936   2.766   4.730  1.0130  0.1259 -0.1322
   20MOL0     C 2587   6.047   2.660   4.764 -0.3497  0.3792  0.3835
   20MOL0     C 2588   6.194   2.707   4.726 -0.0940  0.1886 -0.6553
   20MOL0     O 2589   6.264   2.587   4.679  0.0894 -0.6143 -0.9043
   20MOL0     C 2590   6.387   2.591   4.627 -0.2155 -0.0984  0.2139
   20MOL0     C 2591   6.459   2.703   4.604  0.6229 -0.5784 -0.4108
   20MOL0     C 2592   6.597   2.699   4.571  0.6091 -0.1245  0.0931
   20MOL0     C 2593   6.667   2.574   4.568  0.9150  0.2504  0.3654
   20MOL0     C 2594   6.802   2.561   4.523 -0.2039  0.1112 -0.9530
   20MOL0     O 2595   6.874   2.679   4.482 -0.4061  0.5141 -0.1012
   20MOL0     C 2596   6.998   2.666   4.430 -0.4325 -0.4178 -0.0095
   20MOL0     C 2597   7.030   2.595   4.319 -0.4400 -0.0023  0.0566
   20MOL0     C 2598   7.166   2.599   4.280 -0.1205  0.3354 -0.1648
   20MOL0     C 2599   7.262   2.677   4.359  0.0329  0.2340 -1.2867
   20MOL0     O 2600   7.393   2.680   4.317 -0.1858 -0.0766 -0.2327
   20MOL0     C 2601   7.486   2.757   4.389 -0.3969  0.2794 -0.1499
   20MOL0     C 2602   7.622   2.732   4.318  0.1494  0.7713  0.1354
   20MOL0     C 2603   7.678   2.583   4.335 -0.5635 -0.5339 -0.3703
   20MOL0     C 2604   7.840   2.581   4.340  0.2273  0.8696 -0.4417
   20MOL0     C 2605   7.877   2.436   4.363  0.4744  0.4996  0.2986
   20MOL0     C 2606   8.037   2.418   4.374 -0.6047  1.0832  0.2502
   20MOL0     C 2607   8.082   2.277   4.407 -0.4021 -0.3560  0.0591
   20MOL0     C 2608   8.225   2.268   4.362  0.0429  0.1207  0.9524
   20MOL0    Cl 2609   8.291   2.113   4.419 -0.0214 -0.0100  0.2883
   20MOL0     C 2610   7.220   2.745   4.478  0.1982 -0.0649 -0.4325
   20MOL0     C 2611   7.085   2.736   4.514  0.5620 -0.7627  0.3666
   20MOL0     O 2612   6.851   2.447   4.525 -0.0803  0.5957  0.1811
   20MOL0     C 2613   6.582   2.459   4.582 -0.9354 -0.6242  0.2211
   20MOL0     C 2614   6.453   2.471   4.619  0.6926  0.0864 -0.6066
   20MOL0     N 2615   5.658   2.924   4.737 -0.2931 -0.5547  0.4764
   20MOL0     N 2616   5.555   2.979   4.794  0.2880  0.0584  0.0592
   20MOL0     C 2617   4.705   3.070   5.842  0.6578 -0.0877  0.1551
   20MOL0     C 2618   4.599   3.092   5.931  0.4381 -1.0436 -0.0975
   20MOL0     C 2619   4.239   3.264   6.106 -0.0589  0.1051  0.6563
   20MOL0     C 2620   4.124   3.326   6.066 -0.2302  0.7145 -0.0528
   20MOL0     C 2621   4.013   3.339   6.144  0.1022  0.2945  0.0102
   20MOL0     C 2622   4.017   3.313   6.280 -1.1262  0.7186  0.2134
   20MOL0     O 2623   3.925   3.352   6.384 -0.6544 -0.0008 -0.5245
   20MOL0     C 2624   3.829   3.442   6.337  0.7649 -0.7799  0.1191
   20MOL0     C 2625   3.731   3.480   6.450  0.7157 -0.2986 -1.1732
   20MOL0     C 2626   3.628   3.583   6.415 -0.4131  0.4034 -0.1744
   20MOL0     C 2627   3.515   3.545   6.320  0.5465 -0.3433 -0.6992
   20MOL0     C 2628   3.424   3.658   6.335  0.1250  0.0738  0.0567
   20MOL0     C 2629   3.352   3.754   6.339  0.1726  0.0668  0.1174
   20MOL0     C 2630   4.140   3.247   6.323  0.4021  0.9714  0.7574
   20MOL0     C 2631   4.253   3.222   6.243 -0.5036  0.0276  0.2757
   20MOL0     C 2632   4.371   3.153   6.308 -0.1070 -0.2927  0.3933
   20MOL0     H 2633   4.610   3.433   5.947  0.5309  0.5578  2.2313
   20MOL0     H 2634   4.808   3.396   5.797  1.0975 -0.4755  1.6529
   20MOL0     H 2635   4.943   2.977   5.648 -1.0452 -0.4744 -0.3008
   20MOL0     H 2636   4.790   3.052   5.581 -1.0452  1.4191  2.8761
   20MOL0     H 2637   5.037   3.226   5.569 -1.4772  1.3144 -2.0068
   20MOL0     H 2638   4.925   3.178   5.433 -1.5214 -1.4105  0.1019
   20MOL0     H 2639   5.046   2.959   5.418 -1.3773  1.3349 -1.6091
   20MOL0     H 2640   5.147   3.011   5.551  1.7658  1.7168 -0.1592
   20MOL0     H 2641   5.106   3.171   5.299 -0.5924  1.7432  1.4983
   20MOL0     H 2642   5.248   3.164   5.411  0.2766 -0.1298  0.1822
   20MOL0     H 2643   5.318   2.956   5.355  2.4073  2.2183 -0.6336
   20MOL0     H 2644   5.177   2.913   5.256 -1.5715  0.7660 -0.1985
   20MOL0     H 2645   5.246   3.100   5.086 -0.3642  0.3653 -0.0970
   20MOL0     H 2646   5.354   3.160   5.210 -0.1538 -1.7838  3.2914
   20MOL0     H 2647   5.457   2.925   5.190 -3.0698 -1.7828 -0.4646
   20MOL0     H 2648   5.524   3.063   5.101 -0.6761  1.3680 -0.2269
   20MOL0     H 2649   5.363   2.824   5.023  1.4998  0.5985  2.7320
   20MOL0     H 2650   5.321   2.973   4.936  0.7103 -0.8962 -1.4385
   20MOL0     H 2651   5.605   2.709   4.989 -3.3385 -0.6303  0.4910
   20MOL0     H 2652   5.820   2.656   4.862 -3.2865 -1.3204  0.8360
   20MOL0     H 2653   5.748   2.646   4.696 -2.0014  1.1352  0.9074
   20MOL0     H 2654   5.948   2.781   4.622  3.1222 -1.3264 -0.1452
   20MOL0     H 2655   5.954   2.852   4.796  0.0067  0.0424  0.2802
   20MOL0     H 2656   6.009   2.574   4.709 -0.1345  1.3659 -1.3872
   20MOL0     H 2657   6.035   2.651   4.872 -0.4843  0.8394  0.4104
   20MOL0     H 2658   6.236   2.757   4.814  0.4984  0.7012 -1.2162
   20MOL0     H 2659   6.192   2.781   4.645  1.8186 -3.3392 -4.3061
   20MOL0     H 2660   6.422   2.801   4.631  1.3641 -0.6809  1.0753
   20MOL0     H 2661   6.648   2.794   4.568  0.1503  0.2957  3.0482
   20MOL0     H 2662   6.951   2.553   4.256  0.5786  0.2689 -1.4609
   20MOL0     H 2663   7.193   2.537   4.195 -2.6236 -0.3523 -0.5382
   20MOL0     H 2664   7.459   2.863   4.398 -1.2096 -0.1058  4.9380
   20MOL0     H 2665   7.493   2.722   4.492 -1.5649 -1.4838 -0.6131
   20MOL0     H 2666   7.617   2.768   4.214 -1.2359  0.9520  0.2415
   20MOL0     H 2667   7.701   2.793   4.361 -0.6352  1.3393  0.8088
   20MOL0     H 2668   7.639   2.543   4.429  1.1659 -0.3927  0.4468
   20MOL0     H 2669   7.650   2.518   4.251 -0.5473  0.2026 -0.9513
   20MOL0     H 2670   7.886   2.646   4.416  2.2005 -0.6220 -0.2624
   20MOL0     H 2671   7.885   2.621   4.249  1.4753 -2.4405 -1.4277
   20MOL0     H 2672   7.832   2.371   4.288  1.3657 -0.4228  0.5381
   20MOL0     H 2673   7.828   2.400   4.454  0.0756 -2.2405 -0.9140
   20MOL0     H 2674   8.084   2.461   4.286 -0.3600  0.7299  0.2071
   20MOL0     H 2675   8.072   2.483   4.454 -1.5261  2.5462 -0.4908
   20MOL0     H 2676   8.024   2.195   4.363 -0.8749  0.4031 -0.7528
   20MOL0     H 2677   8.083   2.269   4.516 -2.2186 -1.7830  0.0261
   20MOL0     H 2678   8.231   2.282   4.254  0.4469  2.8831  1.2813
   20MOL0     H 2679   8.286   2.350   4.402 -1.3272  1.4161  0.4537
   20MOL0     H 2680   7.290   2.788   4.548  2.1740 -1.3105 -1.5249
   20MOL0     H 2681   7.051   2.782   4.606  0.2723  2.9268 -1.4366
   20MOL0     H 2682   6.622   2.360   4.564 -1.0100 -1.0496  2.1471
   20MOL0     H 2683   6.397   2.383   4.646  2.1357 -0.5067  0.6280
   20MOL0     H 2684   4.726   2.967   5.815  2.7678  0.2516  0.3523
   20MOL0     H 2685   4.533   3.011   5.960  1.9780 -1.1954  3.5306
   20MOL0     H 2686   4.118   3.368   5.966 -2.4175  2.9231  0.8964
   20MOL0     H 2687   3.926   3.389   6.101 -1.0704 -1.4833  0.1929
   20MOL0     H 2688   3.779   3.412   6.244  2.7676  1.3392 -1.7384
   20MOL0     H 2689   3.860   3.540   6.301 -0.1709 -0.5772 -0.1867
   20MOL0     H 2690   3.792   3.524   6.529  1.3873  0.3051 -2.0108
   20MOL0     H 2691   3.676   3.393   6.488 -0.8450  1.5311  1.0728
   20MOL0     H 2692   3.683   3.665   6.367  0.1557 -0.1231 -0.4446
   20MOL0     H 2693   3.585   3.618   6.509  0.5399 -1.3513  0.9855
   20MOL0     H 2694   3.549   3.526   6.217  1.2785  0.0388 -0.5352
   20MOL0     H 2695   3.452   3.460   6.348 -1.4552  0.6560 -1.8669
   20MOL0     H 2696   3.301   3.845   6.362 -0.0055  0.0160 -0.0662
   20MOL0     H 2697   4.146   3.213   6.426  2.3393 -0.8716  0.1105
   20MOL0     H 2698   4.407   3.069   6.248  0.0538  1.7042 -2.4635
   20MOL0     H 2699   4.447   3.232   6.309 -0.9456  0.5600  2.1580
   20MOL0     H 2700   4.350   3.138   6.415 -1.4692 -2.9436 -0.1680
   21MOL0     O 2701   2.709   3.095   0.161 -0.9705  0.4323  0.2202
   21MOL0     C 2702   2.732   2.999   0.234  0.6324 -0.0955 -0.4389
   21MOL0     O 2703   2.856   2.941   0.250  0.8646  0.4160  0.5994
   21MOL0     C 2704   2.955   3.015   0.208 -0.6870 -0.5500 -0.1277
   21MOL0     C 2705   3.050   3.046   0.299 -0.0493  0.5790  0.9349
   21MOL0     C 2706   3.153   3.127   0.257 -0.0421  0.1750 -0.0090
   21MOL0     C 2707   3.169   3.176   0.131  0.7811 -0.8058 -0.5820
   21MOL0     O 2708   3.276   3.254   0.105 -0.4850  0.4660 -0.2432
   21MOL0     C 2709   3.369   3.211  -0.001  0.4433 -0.4172 -0.7691
   21MOL0     C 2710   3.506   3.267   0.034  0.1987 -0.2828 -0.7772
   21MOL0     C 2711   3.585   3.173   0.128 -0.0438  0.3699 -0.2697
   21MOL0     C 2712   3.711   3.252   0.168  0.1342 -0.0496  0.0784
   21MOL0     C 2713   3.803   3.177   0.268  0.0220  0.1763  0.0871
   21MOL0     C 2714   3.941   3.251   0.306  0.5889 -0.0872 -0.2453
   21MOL0     C 2715   3.911   3.397   0.358  0.0684  0.5640 -0.0704
   21MOL0     C 2716   3.902   3.393   0.516  0.4156 -0.8913 -0.0172
   21MOL0     N 2717   3.852   3.528   0.552 -0.6181  0.3436 -0.4460
   21MOL0     C 2718   3.721   3.571   0.548 -0.4218 -0.4950  0.2943
   21MOL0     C 2719   3.737   3.699   0.584 -0.4677 -0.6406 -0.3555
   21MOL0     C 2720   3.628   3.802   0.612  0.7494  0.1587 -0.0966
   21MOL0     C 2721   3.491   3.736   0.646 -0.4530  1.4468 -0.5123
   21MOL0     C 2722   3.384   3.836   0.678 -0.6173 -0.4886 -0.4386
   21MOL0     C 2723   3.262   3.757   0.725  0.5032  0.6226 -0.2084
   21MOL0     O 2724   3.159   3.848   0.759  0.3003  0.0354  0.1851
   21MOL0     C 2725   3.034   3.799   0.793 -0.1189 -0.5204 -0.4041
   21MOL0     C 2726   2.935   3.895   0.797 -0.3508  0.0322  0.4299
   21MOL0     C 2727   2.806   3.855   0.835 -0.1878 -0.3841  0.1477
   21MOL0     C 2728   2.776   3.726   0.867 -0.5836 -0.0399  0.1713
   21MOL0     C 2729   2.648   3.689   0.906  1.1596 -0.3117  1.7045
   21MOL0     O 2730   2.615   3.560   0.878 -0.3710  0.0286  0.5263
   21MOL0     C 2731   2.485   3.515   0.916  0.0671 -0.2664  0.3810
   21MOL0     C 2732   2.431   3.513   1.048 -0.7995 -1.3906  0.5575
   21MOL0     C 2733   2.301   3.477   1.080 -0.4700 -0.3188 -0.4482
   21MOL0     C 2734   2.221   3.421   0.983 -0.0463  0.2320 -0.1722
   21MOL0     O 2735   2.090   3.402   1.018  0.1047 -0.2537  0.0554
   21MOL0     C 2736   2.005   3.318   0.935 -0.3118 -1.1487  0.3044
   21MOL0     C 2737   1.859   3.318   0.983 -0.8831 -0.0494 -0.1513
   21MOL0     C 2738   1.782   3.457   0.987 -0.7141  0.5072 -0.7868
   21MOL0     C 2739   1.644   3.437   1.062 -0.6401 -0.4229  0.2136
   21MOL0     C 2740   1.594   3.562   1.146 -0.3571 -0.1433  0.4414
   21MOL0     C 2741   1.567   3.677   1.055  0.1285 -0.0430  0.5862
   21MOL0     C 2742   1.442   3.664   0.973 -0.1347 -0.0775  1.0517
   21MOL0     C 2743   1.410   3.795   0.901  0.9059  0.1531  0.0241
   21MOL0    Cl 2744   1.369   3.925   1.014 -0.3951  0.4590 -0.1975
   21MOL0     C 2745   2.272   3.421   0.855  0.6235 -0.2907 -0.2117
   21MOL0     C 2746   2.397   3.463   0.821 -1.0904  0.3060  0.2120
   21MOL0     O 2747   2.566   3.784   0.932  0.3078  0.3067  0.5916
   21MOL0     C 2748   2.880   3.629   0.870  0.1066  0.3545 -0.0029
   21MOL0     C 2749   3.007   3.667   0.842  0.2908 -0.5052  0.1715
   21MOL0     N 2750   3.870   3.727   0.591  0.1666  0.7291  0.3508
   21MOL0     N 2751   3.941   3.621   0.573  0.2945  0.1100  0.0993
   21MOL0     C 2752   3.074   3.137   0.032 -0.1131  0.2239  1.2356
   21MOL0     C 2753   2.971   3.045   0.073  0.3230  0.0031  0.0578
   21MOL0     C 2754   2.620   2.910   0.285 -0.1586 -0.3230  0.3504
   21MOL0     C 2755   2.661   2.821   0.386  0.6438  0.0009  0.0280
   21MOL0     C 2756   2.560   2.751   0.460  0.6425  0.2642  0.1297
   21MOL0     C 2757   2.426   2.771   0.440  0.7278 -0.7583 -0.3410
   21MOL0     O 2758   2.345   2.734   0.547  0.6177  0.1589 -0.9428
   21MOL0     C 2759   2.212   2.775   0.547  0.3065  0.5138  0.4155
   21MOL0     C 2760   2.139   2.691   0.437 -0.2114  0.5835 -0.6961
   21MOL0     C 2761   1.992   2.732   0.403  0.4382  0.1172 -0.3804
   21MOL0     C 2762   1.968   2.857   0.323  0.3655 -0.4748  0.6750
   21MOL0     C 2763   1.930   2.824   0.183  0.0926 -0.1479  1.2067
   21MOL0     C 2764   1.892   2.793   0.074 -0.3766 -0.0870  0.5491
   21MOL0     C 2765   2.392   2.862   0.335 -0.0420 -0.0755  0.1836
   21MOL0     C 2766   2.486   2.927   0.256  0.1422 -0.2449 -0.3898
   21MOL0     C 2767   2.436   3.031   0.160  0.3976 -0.5944 -0.2000
   21MOL0     H 2768   3.036   3.001   0.397 -1.1547 -0.6322  0.2689
   21MOL0     H 2769   3.226   3.147   0.335 -1.2515  1.3399  0.8627
   21MOL0     H 2770   3.371   3.102  -0.011 -1.9142 -0.6477  0.4560
   21MOL0     H 2771   3.338   3.256  -0.096 -0.4264 -2.1411 -1.3437
   21MOL0     H 2772   3.500   3.370   0.070  0.5961 -0.2911 -0.6831
   21MOL0     H 2773   3.560   3.271  -0.061  0.2059  1.2711 -0.7410
   21MOL0     H 2774   3.614   3.088   0.066 -0.5686 -0.5297  0.6976
   21MOL0     H 2775   3.524   3.136   0.210 -0.3528 -2.3076 -1.5867
   21MOL0     H 2776   3.766   3.284   0.078  1.3196 -0.0477  0.7880
   21MOL0     H 2777   3.680   3.353   0.195  2.0080  1.4568 -2.8300
   21MOL0     H 2778   3.745   3.161   0.359  1.0970 -0.5402  0.6815
   21MOL0     H 2779   3.827   3.083   0.218 -2.4263 -1.1916  1.3059
   21MOL0     H 2780   4.000   3.190   0.374 -1.7212 -0.3037  1.7003
   21MOL0     H 2781   3.997   3.258   0.212  2.3199  1.3728  0.8166
   21MOL0     H 2782   3.823   3.437   0.307 -0.4123 -2.2858 -1.6881
   21MOL0     H 2783   3.998   3.455   0.324 -0.1712  0.2321 -1.3119
   21MOL0     H 2784   3.823   3.324   0.549 -0.3617  0.1702  0.4085
   21MOL0     H 2785   4.003   3.372   0.551  1.3781 -0.7691 -2.5598
   21MOL0     H 2786   3.624   3.523   0.545 -1.7231  1.9614  0.3184
   21MOL0     H 2787   3.658   3.865   0.696 -2.2990 -0.3075  1.4785
   21MOL0     H 2788   3.614   3.871   0.529  0.2178  1.7997  1.2992
   21MOL0     H 2789   3.462   3.672   0.563 -0.2906  0.5608  0.0978
   21MOL0     H 2790   3.504   3.678   0.738 -3.9629  0.9502 -0.1983
   21MOL0     H 2791   3.366   3.897   0.589  3.0337 -2.5598 -2.8603
   21MOL0     H 2792   3.422   3.907   0.752  0.4136 -0.1406 -1.2781
   21MOL0     H 2793   3.286   3.704   0.818 -1.3831  1.6386  0.9264
   21MOL0     H 2794   3.228   3.681   0.654  2.8523 -1.6120  0.9260
   21MOL0     H 2795   2.952   3.997   0.763 -0.4571  0.0558  0.4474
   21MOL0     H 2796   2.731   3.934   0.836 -1.4642 -1.5626  0.5654
   21MOL0     H 2797   2.507   3.543   1.119  2.6909 -3.6481 -1.9245
   21MOL0     H 2798   2.266   3.481   1.182 -0.8818 -1.1049 -0.5553
   21MOL0     H 2799   2.020   3.345   0.830  0.2585  0.3988  0.7438
   21MOL0     H 2800   2.035   3.215   0.955 -0.3437 -1.7493 -2.4365
   21MOL0     H 2801   1.798   3.252   0.920 -0.6803  2.0634 -2.7347
   21MOL0     H 2802   1.873   3.279   1.084 -2.1421 -0.5903 -0.1672
   21MOL0     H 2803   1.851   3.528   1.035 -0.2527  1.5224 -2.8628
   21MOL0     H 2804   1.762   3.491   0.886 -2.0373  1.2355 -0.3045
   21MOL0     H 2805   1.658   3.351   1.128  0.2540 -0.4811 -0.0434
   21MOL0     H 2806   1.574   3.417   0.980  0.1690 -1.3626 -0.2667
   21MOL0     H 2807   1.667   3.592   1.222 -0.7203 -0.3887  0.8895
   21MOL0     H 2808   1.507   3.523   1.199 -0.4544  0.7062  0.9374
   21MOL0     H 2809   1.555   3.769   1.113 -1.6737  0.2246 -0.1238
   21MOL0     H 2810   1.650   3.690   0.985 -0.9025  2.0650 -0.3301
   21MOL0     H 2811   1.351   3.633   1.026  0.1059 -0.9136  0.9828
   21MOL0     H 2812   1.468   3.597   0.891  2.7107  2.7420 -0.5741
   21MOL0     H 2813   1.483   3.843   0.835  2.3149  2.1092  2.7860
   21MOL0     H 2814   1.324   3.776   0.836 -0.0045  0.1580  1.2045
   21MOL0     H 2815   2.203   3.399   0.774 -2.2690  0.4212  1.8700
   21MOL0     H 2816   2.439   3.455   0.721  0.7831  1.4625  0.8462
   21MOL0     H 2817   2.864   3.526   0.899  1.8098 -0.3504 -1.3961
   21MOL0     H 2818   3.099   3.611   0.859  1.8280  0.8504 -2.9521
   21MOL0     H 2819   3.097   3.181  -0.064 -0.1499  0.0064  1.1270
   21MOL0     H 2820   2.901   3.004   0.001  0.4060  0.9922 -0.6082
   21MOL0     H 2821   2.766   2.806   0.407  0.2606  0.2262  2.4002
   21MOL0     H 2822   2.575   2.691   0.549 -1.9516  0.5053  0.7929
   21MOL0     H 2823   2.211   2.880   0.517  1.4952 -0.1035 -1.9795
   21MOL0     H 2824   2.169   2.748   0.644  0.5690 -2.1733 -0.1254
   21MOL0     H 2825   2.126   2.589   0.474  1.2746  0.8258  0.6025
   21MOL0     H 2826   2.206   2.674   0.352  1.1636 -1.2639  0.6949
   21MOL0     H 2827   1.950   2.754   0.502 -0.6411  4.0931 -1.5406
   21MOL0     H 2828   1.943   2.645   0.358  4.0610 -2.7904  0.7314
   21MOL0     H 2829   1.888   2.918   0.365  0.6731 -0.2884  0.9953
   21MOL0     H 2830   2.059   2.917   0.314 -0.4043  0.4325 -4.6136
   21MOL0     H 2831   1.852   2.782  -0.025 -1.3745 -0.3202  0.9666
   21MOL0     H 2832   2.288   2.883   0.313  0.1700 -0.9848 -2.0115
   21MOL0     H 2833   2.460   3.129   0.201  0.0117  0.2202 -1.8213
   21MOL0     H 2834   2.482   3.030   0.061  0.5692 -2.7145 -0.1460
   21MOL0     H 2835   2.327   3.027   0.153  0.4409  0.4832 -2.2832
   22MOL0     O 2836   7.284   8.983   6.594 -0.2665  0.5778 -0.2033
   22MOL0     C 2837   7.377   9.048   6.641  0.1315 -0.3971 -0.5304
   22MOL0     O 2838   7.362   9.134   6.749  0.3244  0.2609 -0.4140
   22MOL0     C 2839   7.238   9.161   6.808 -0.9834  0.1920  0.6929
   22MOL0     C 2840   7.138   9.063   6.826  0.2904 -0.2365 -0.7878
   22MOL0     C 2841   7.015   9.097   6.885  0.1066 -0.7180  0.5189
   22MOL0     C 2842   7.000   9.224   6.940  0.7225  0.5435  0.1285
   22MOL0     O 2843   6.879   9.260   6.995 -0.8515 -0.3231 -0.1453
   22MOL0     C 2844   6.782   9.153   7.023 -0.9377  0.2692  0.3673
   22MOL0     C 2845   6.669   9.204   7.111 -0.5609 -0.8905  0.5724
   22MOL0     C 2846   6.570   9.298   7.044  0.7895 -0.8387 -0.0477
   22MOL0     C 2847   6.455   9.234   6.957  0.3126  0.0964 -0.3376
   22MOL0     C 2848   6.389   9.356   6.886 -0.4947  0.3618 -0.2878
   22MOL0     C 2849   6.276   9.312   6.793  0.5503  0.3317 -0.3918
   22MOL0     C 2850   6.215   9.438   6.737  0.0489 -0.1619  0.5564
   22MOL0     C 2851   6.110   9.407   6.632  0.0165 -0.4927 -0.5797
   22MOL0     N 2852   6.167   9.348   6.505 -0.7218  0.7132 -0.0758
   22MOL0     C 2853   6.261   9.401   6.427  0.1779  0.3273  0.0467
   22MOL0     C 2854   6.292   9.302   6.339 -0.2946 -0.0827  0.5312
   22MOL0     C 2855   6.383   9.315   6.214  0.7317  0.3080 -0.3616
   22MOL0     C 2856   6.538   9.308   6.250  0.6505 -0.5177  0.7699
   22MOL0     C 2857   6.633   9.310   6.124 -0.2776 -0.5003  0.7166
   22MOL0     C 2858   6.597   9.217   6.008  0.1134 -0.8575 -0.1947
   22MOL0     O 2859   6.699   9.236   5.907  0.1216  0.1082  0.2344
   22MOL0     C 2860   6.820   9.169   5.910  0.1570 -0.1239  0.2004
   22MOL0     C 2861   6.917   9.220   5.833  0.8284  0.3582 -0.3430
   22MOL0     C 2862   7.046   9.166   5.828  0.1846 -0.8656  0.2499
   22MOL0     C 2863   7.075   9.052   5.897 -0.5897  1.4771 -0.1744
   22MOL0     C 2864   7.212   8.982   5.873  0.3647 -0.2380 -0.2422
   22MOL0     O 2865   7.291   9.048   5.789 -0.0499 -0.3523  0.5435
   22MOL0     C 2866   7.414   9.003   5.742 -0.7682 -0.2704 -0.2483
   22MOL0     C 2867   7.458   8.869   5.737  0.1429  0.0260 -0.0065
   22MOL0     C 2868   7.584   8.834   5.691  0.0300 -0.8225  0.6670
   22MOL0     C 2869   7.668   8.932   5.632 -0.2156 -0.2136 -0.3479
   22MOL0     O 2870   7.794   8.913   5.592  0.3047 -0.1135 -1.3197
   22MOL0     C 2871   7.856   8.783   5.603 -0.2609  0.3249  0.1064
   22MOL0     C 2872   7.993   8.798   5.537 -1.1431 -0.0119  0.6320
   22MOL0     C 2873   8.104   8.869   5.636  1.1590 -0.0908  0.2917
   22MOL0     C 2874   8.242   8.796   5.628  0.1658  1.1145  0.3418
   22MOL0     C 2875   8.356   8.869   5.710 -0.7649 -1.3984 -0.6092
   22MOL0     C 2876   8.482   8.790   5.702  0.9502  0.7355  0.9452
   22MOL0     C 2877   8.592   8.834   5.805  0.1283  0.5848  0.2524
   22MOL0     C 2878   8.639   8.975   5.787  0.3038 -0.0485 -0.1823
   22MOL0    Cl 2879   8.748   9.016   5.932 -0.0823  0.5669  0.2079
   22MOL0     C 2880   7.625   9.067   5.628  0.0702  0.0073  0.0534
   22MOL0     C 2881   7.493   9.096   5.676  0.3924  0.9591  0.5218
   22MOL0     O 2882   7.241   8.884   5.940 -1.0446 -0.7038  0.0299
   22MOL0     C 2883   6.974   8.991   5.978  1.2381  0.7040 -0.3607
   22MOL0     C 2884   6.853   9.060   5.994  0.8014  0.7594  0.5237
   22MOL0     N 2885   6.234   9.188   6.386  0.7705  0.0397  0.6603
   22MOL0     N 2886   6.144   9.223   6.465  0.6085 -0.1888 -0.2220
   22MOL0     C 2887   7.107   9.317   6.937 -0.4889  0.4003 -0.7767
   22MOL0     C 2888   7.227   9.287   6.865  0.4297 -0.7004 -0.2281
   22MOL0     C 2889   7.520   9.038   6.592  0.1666  0.6334  0.1212
   22MOL0     C 2890   7.564   8.915   6.549 -0.0811  0.4452  0.1212
   22MOL0     C 2891   7.689   8.887   6.509  0.4306 -0.3256  0.2856
   22MOL0     C 2892   7.788   8.989   6.522  1.0680  0.4516 -0.9098
   22MOL0     O 2893   7.914   8.952   6.485 -0.0324 -0.4123 -0.2162
   22MOL0     C 2894   8.009   9.061   6.463  0.4963 -0.2380  0.4956
   22MOL0     C 2895   8.135   8.997   6.404 -0.7061  0.1406 -0.6488
   22MOL0     C 2896   8.107   8.945   6.263 -0.3507 -0.8580 -0.1478
   22MOL0     C 2897   8.236   8.875   6.205  1.0127 -0.3598  0.4253
   22MOL0     C 2898   8.186   8.788   6.090  0.5724 -0.3186 -0.7514
   22MOL0     C 2899   8.163   8.721   5.998 -0.4255  0.8123 -0.5565
   22MOL0     C 2900   7.749   9.115   6.563  0.2986 -0.6509  0.2522
   22MOL0     C 2901   7.620   9.147   6.586  0.4925 -0.1103 -1.3548
   22MOL0     C 2902   7.592   9.288   6.622 -0.9572  0.3440 -0.6557
   22MOL0     H 2903   7.162   8.958   6.813 -1.8121 -0.7996 -0.4767
   22MOL0     H 2904   6.931   9.029   6.882  1.2412 -2.1355 -0.3565
   22MOL0     H 2905   6.742   9.115   6.929 -1.3993 -0.5777  0.8951
   22MOL0     H 2906   6.834   9.071   7.073  2.4301  2.5676  0.9737
   22MOL0     H 2907   6.708   9.255   7.200  1.7587  1.1159 -1.4507
   22MOL0     H 2908   6.616   9.115   7.148 -1.5994 -0.2057  0.7586
   22MOL0     H 2909   6.627   9.370   6.986  0.5772 -1.4020 -0.9754
   22MOL0     H 2910   6.515   9.361   7.115 -1.7548 -3.8702  0.8947
   22MOL0     H 2911   6.494   9.164   6.882 -1.7107 -2.2118  0.6349
   22MOL0     H 2912   6.386   9.175   7.018  0.2491 -0.0674 -0.5694
   22MOL0     H 2913   6.351   9.427   6.961 -1.1948  2.2711 -2.3268
   22MOL0     H 2914   6.460   9.407   6.821 -0.2557  4.8335  3.0021
   22MOL0     H 2915   6.315   9.245   6.715 -3.2332 -1.3168 -1.1051
   22MOL0     H 2916   6.205   9.245   6.842  1.1909  0.6262  0.9760
   22MOL0     H 2917   6.296   9.494   6.689 -1.2620  0.4739 -1.0034
   22MOL0     H 2918   6.164   9.495   6.815  2.2170  1.7138  0.7019
   22MOL0     H 2919   6.034   9.336   6.665  0.2268 -1.4424 -2.0199
   22MOL0     H 2920   6.056   9.495   6.598 -0.4235 -0.9419 -1.0736
   22MOL0     H 2921   6.286   9.507   6.420 -1.2424  0.6125 -0.9058
   22MOL0     H 2922   6.356   9.242   6.137 -3.5184  2.1601 -0.9165
   22MOL0     H 2923   6.356   9.407   6.161 -0.9913  0.2194  0.2921
   22MOL0     H 2924   6.568   9.390   6.315  2.0575  0.3451 -0.8897
   22MOL0     H 2925   6.559   9.217   6.306 -1.8572 -1.2430  0.6572
   22MOL0     H 2926   6.729   9.270   6.159  0.5386  0.3614 -0.4643
   22MOL0     H 2927   6.645   9.411   6.085  3.5104 -0.9724  0.2916
   22MOL0     H 2928   6.505   9.255   5.963  0.8718  0.3213 -0.8139
   22MOL0     H 2929   6.584   9.112   6.037 -0.7658 -0.8653 -0.5905
   22MOL0     H 2930   6.880   9.300   5.770 -2.3246 -0.9117 -0.2789
   22MOL0     H 2931   7.114   9.209   5.756  0.9171 -1.9269  0.2659
   22MOL0     H 2932   7.394   8.791   5.778 -0.9977  0.7257 -0.4034
   22MOL0     H 2933   7.615   8.731   5.707  1.4849 -0.3988  0.6428
   22MOL0     H 2934   7.876   8.746   5.704  0.7738  0.5334 -0.0131
   22MOL0     H 2935   7.793   8.712   5.549  1.6997 -1.9784  0.6451
   22MOL0     H 2936   8.019   8.693   5.517 -0.2724 -0.0360  1.8164
   22MOL0     H 2937   7.977   8.847   5.440 -3.2683 -0.3364  0.7713
   22MOL0     H 2938   8.105   8.970   5.595 -0.1155 -0.8017 -1.6543
   22MOL0     H 2939   8.079   8.877   5.742  0.5880 -1.9956  0.3462
   22MOL0     H 2940   8.268   8.796   5.522  1.1133  0.7081  0.5645
   22MOL0     H 2941   8.230   8.694   5.666  0.7013  1.0425  0.3178
   22MOL0     H 2942   8.323   8.877   5.814 -2.1543  0.8142 -1.1395
   22MOL0     H 2943   8.378   8.973   5.683  0.2276 -0.9334  1.7871
   22MOL0     H 2944   8.453   8.686   5.719  2.7391 -0.5245 -2.7231
   22MOL0     H 2945   8.514   8.795   5.597 -1.1436  0.5666  0.2455
   22MOL0     H 2946   8.681   8.774   5.782  0.4884  0.6881  1.3425
   22MOL0     H 2947   8.564   8.827   5.910 -1.9989 -0.0293 -0.3022
   22MOL0     H 2948   8.693   8.988   5.693 -0.9415  0.2507 -0.8785
   22MOL0     H 2949   8.556   9.044   5.801  1.4124  0.8582  2.7790
   22MOL0     H 2950   7.691   9.140   5.582 -0.9365  0.1224 -1.2539
   22MOL0     H 2951   7.459   9.199   5.674  2.7126  1.7810  0.4706
   22MOL0     H 2952   6.984   8.895   6.027  4.2200  1.5794  0.9472
   22MOL0     H 2953   6.776   9.006   6.048  0.8400 -1.8018 -1.7526
   22MOL0     H 2954   7.100   9.419   6.973 -3.0509  0.1193 -0.2548
   22MOL0     H 2955   7.307   9.359   6.848 -0.5253  0.7557  1.1887
   22MOL0     H 2956   7.493   8.834   6.557  0.8365 -0.2791  1.3049
   22MOL0     H 2957   7.726   8.793   6.468  1.0871  0.8265 -1.9236
   22MOL0     H 2958   8.032   9.118   6.553 -1.1404  0.9166  0.2153
   22MOL0     H 2959   7.984   9.137   6.388  3.7951 -1.6545 -2.3282
   22MOL0     H 2960   8.180   8.924   6.472 -1.1772 -0.0762 -0.5664
   22MOL0     H 2961   8.215   9.070   6.394  1.5040 -2.1907 -1.0832
   22MOL0     H 2962   8.078   9.038   6.213  0.1491 -0.0023  1.1026
   22MOL0     H 2963   8.026   8.873   6.255 -1.6549  0.5109  0.2617
   22MOL0     H 2964   8.302   8.955   6.169  2.4515 -1.6550  0.0933
   22MOL0     H 2965   8.277   8.809   6.281  2.0561  0.2323  0.3878
   22MOL0     H 2966   8.132   8.643   5.932  0.5007 -1.7668  1.8454
   22MOL0     H 2967   7.820   9.196   6.580 -0.0464  0.1975 -2.0864
   22MOL0     H 2968   7.490   9.312   6.591 -0.8187  0.2893 -1.1596
   22MOL0     H 2969   7.619   9.295   6.728 -0.3350  1.3199 -0.8611
   22MOL0     H 2970   7.656   9.363   6.574 -0.1680  1.2515  1.6677
   23MOL0     O 2971   6.998  10.846   5.143  0.3391  0.4862  0.4526
   23MOL0     C 2972   6.980  10.841   5.266 -0.5593  0.4851 -0.1945
   23MOL0     O 2973   7.063  10.778   5.359 -0.0831  0.2030  0.8135
   23MOL0     C 2974   7.175  10.705   5.311  0.3965  0.4590 -0.0375
   23MOL0     C 2975   7.282  10.766   5.244  0.6267  0.3852 -0.0506
   23MOL0     C 2976   7.395  10.690   5.204 -0.5632 -0.3988  0.3368
   23MOL0     C 2977   7.416  10.558   5.244 -0.2864  0.2422  0.3281
   23MOL0     O 2978   7.516  10.488   5.187 -0.5295 -0.5966 -0.4768
   23MOL0     C 2979   7.550  10.353   5.231 -0.0175 -0.0410  1.1414
   23MOL0     C 2980   7.666  10.293   5.167  0.2337 -0.1253  0.9330
   23MOL0     C 2981   7.741  10.206   5.263 -0.5241 -0.3303 -0.1036
   23MOL0     C 2982   7.837  10.132   5.176 -0.6941 -0.3615 -0.2737
   23MOL0     C 2983   7.949  10.060   5.260  0.1147 -0.5019  0.0269
   23MOL0     C 2984   8.068   9.999   5.173  0.4045  0.5022 -0.2049
   23MOL0     C 2985   8.174  10.099   5.120  1.1686  0.0149  0.2305
   23MOL0     C 2986   8.280  10.044   5.030  0.0434 -0.5006  0.2648
   23MOL0     N 2987   8.368   9.960   5.110 -0.5099  1.0803  0.4119
   23MOL0     C 2988   8.359   9.825   5.098 -0.2589 -0.6009 -0.4630
   23MOL0     C 2989   8.458   9.782   5.178 -0.2728 -0.8520  0.5742
   23MOL0     C 2990   8.486   9.638   5.204 -0.0255 -0.7813 -0.2618
   23MOL0     C 2991   8.470   9.582   5.349  0.7653 -0.4191 -0.0716
   23MOL0     C 2992   8.563   9.650   5.453  0.3103  0.3047 -0.1602
   23MOL0     C 2993   8.715   9.622   5.420  1.5885  0.8371  0.2864
   23MOL0     O 2994   8.787   9.698   5.518 -0.3420  0.0872  0.0967
   23MOL0     C 2995   8.917   9.663   5.539 -0.2944 -0.3474 -0.1366
   23MOL0     C 2996   8.968   9.678   5.671 -0.0634 -0.1605  0.5435
   23MOL0     C 2997   9.088   9.633   5.706 -0.8484 -0.1492 -0.0030
   23MOL0     C 2998   9.167   9.562   5.615  1.0417 -0.7841 -0.3551
   23MOL0     C 2999   9.290   9.492   5.655 -0.3721 -0.0317  0.1238
   23MOL0     O 3000   9.387   9.470   5.563  0.1441  0.7904  0.3990
   23MOL0     C 3001   9.514   9.440   5.608 -0.2939 -0.0411  0.2506
   23MOL0     C 3002   9.583   9.529   5.686  0.5304  0.4130 -0.6981
   23MOL0     C 3003   9.708   9.503   5.741 -0.1296  0.6031 -0.1454
   23MOL0     C 3004   9.757   9.374   5.730  0.3111  0.6890 -0.7147
   23MOL0     O 3005   9.878   9.352   5.785 -0.2358  0.3712  0.1491
   23MOL0     C 3006   9.870   9.310   5.922  0.0128  0.0435 -0.2661
   23MOL0     C 3007  10.007   9.285   5.968 -0.4489  0.7307 -0.7122
   23MOL0     C 3008  10.075   9.420   5.991 -0.6404  0.1505 -0.3275
   23MOL0     C 3009  10.213   9.389   6.060  0.0914  0.6333 -0.5118
   23MOL0     C 3010  10.274   9.517   6.101  0.3103 -0.4621  0.5660
   23MOL0     C 3011  10.372   9.491   6.222 -0.1481  1.0772  0.8949
   23MOL0     C 3012  10.463   9.612   6.255 -0.4387 -0.2330  0.0590
   23MOL0     C 3013  10.587   9.570   6.342  1.1338 -0.5926  0.0536
   23MOL0    Cl 3014  10.696   9.443   6.267 -0.3515 -0.2619 -0.0052
   23MOL0     C 3015   9.689   9.279   5.654 -0.4357  0.1525 -0.6465
   23MOL0     C 3016   9.570   9.314   5.596 -0.0856 -0.0179  0.6227
   23MOL0     O 3017   9.302   9.459   5.775  0.7631  0.6461 -0.4618
   23MOL0     C 3018   9.126   9.547   5.483  0.9372  0.1502 -0.5418
   23MOL0     C 3019   9.004   9.599   5.448 -0.8306  0.0244  0.4541
   23MOL0     N 3020   8.536   9.884   5.229 -0.1550 -0.5735 -0.4319
   23MOL0     N 3021   8.490   9.992   5.176  0.7725 -0.4382 -0.2506
   23MOL0     C 3022   7.313  10.501   5.323 -0.1027 -0.1724  0.7558
   23MOL0     C 3023   7.196  10.582   5.363 -0.4510  0.6627 -0.8726
   23MOL0     C 3024   6.841  10.873   5.311  0.3603 -0.6939  0.1754
   23MOL0     C 3025   6.796  10.819   5.435 -0.2655  1.1250 -0.0863
   23MOL0     C 3026   6.667  10.839   5.489 -0.3522 -0.3408 -0.1604
   23MOL0     C 3027   6.570  10.921   5.424  0.6181  0.4491 -0.3131
   23MOL0     O 3028   6.457  10.953   5.490 -0.6168  0.4204 -0.4715
   23MOL0     C 3029   6.358  11.025   5.424 -0.4890 -0.5411  0.5677
   23MOL0     C 3030   6.256  11.078   5.534 -0.4993  0.6484 -0.0904
   23MOL0     C 3031   6.164  10.974   5.592  0.0536 -0.1740 -0.5820
   23MOL0     C 3032   6.243  10.851   5.647 -0.0719  0.0290 -0.1115
   23MOL0     C 3033   6.143  10.777   5.728  0.2864  0.1080  0.4748
   23MOL0     C 3034   6.050  10.728   5.788 -0.5507  0.2288 -0.3280
   23MOL0     C 3035   6.617  10.977   5.303  0.5631 -1.1078  0.3078
   23MOL0     C 3036   6.748  10.960   5.242  0.3906  0.1162 -0.4380
   23MOL0     C 3037   6.780  11.026   5.117  0.3703 -0.0046 -0.4346
   23MOL0     H 3038   7.270  10.869   5.212  1.7049 -0.1088 -2.2452
   23MOL0     H 3039   7.472  10.721   5.134  1.2785 -4.0845  0.5132
   23MOL0     H 3040   7.565  10.360   5.340 -1.2427  1.8588  1.2288
   23MOL0     H 3041   7.478  10.273   5.210  1.9320 -1.6286  0.1444
   23MOL0     H 3042   7.728  10.372   5.121 -0.2933 -0.8519 -1.1275
   23MOL0     H 3043   7.629  10.237   5.081  1.9132 -1.4485  1.0332
   23MOL0     H 3044   7.681  10.138   5.324  0.2569 -1.9164 -1.0336
   23MOL0     H 3045   7.792  10.271   5.334 -0.2166 -1.1471  0.4372
   23MOL0     H 3046   7.782  10.054   5.122  0.4884 -2.3355  1.2469
   23MOL0     H 3047   7.878  10.213   5.116  0.0148  0.3123  1.0710
   23MOL0     H 3048   7.990  10.141   5.321 -1.5185 -0.5761  1.2750
   23MOL0     H 3049   7.915   9.979   5.324 -1.0797 -0.5774 -0.6887
   23MOL0     H 3050   8.110   9.924   5.241  0.8012  0.9969  0.1052
   23MOL0     H 3051   8.032   9.938   5.090  0.0972 -0.5852  0.6912
   23MOL0     H 3052   8.220  10.163   5.196 -2.8369  1.0808  2.0579
   23MOL0     H 3053   8.108  10.151   5.050 -0.9041 -1.2989  1.1000
   23MOL0     H 3054   8.241   9.992   4.942 -1.0003 -2.8459  2.0005
   23MOL0     H 3055   8.340  10.127   4.992  0.1609 -0.3617  0.7577
   23MOL0     H 3056   8.282   9.763   5.055 -0.2143  0.1419 -1.6670
   23MOL0     H 3057   8.407   9.598   5.140 -0.9517  3.4384 -2.0613
   23MOL0     H 3058   8.584   9.605   5.169  0.7791 -1.6772  2.5223
   23MOL0     H 3059   8.370   9.616   5.379  1.9695  2.1429  1.4394
   23MOL0     H 3060   8.476   9.473   5.353  1.5481 -0.4331 -1.2713
   23MOL0     H 3061   8.541   9.626   5.557 -0.1713  0.3605 -0.2503
   23MOL0     H 3062   8.554   9.759   5.452  2.8168  0.5892 -0.2236
   23MOL0     H 3063   8.755   9.655   5.323  0.7333  0.5862 -0.1681
   23MOL0     H 3064   8.729   9.515   5.438 -1.7417  0.3649  0.7272
   23MOL0     H 3065   8.907   9.730   5.744 -3.9731 -1.3432 -1.5697
   23MOL0     H 3066   9.126   9.649   5.807 -0.2255 -0.6539 -0.1501
   23MOL0     H 3067   9.552   9.628   5.718  0.9031  0.4194 -0.3510
   23MOL0     H 3068   9.762   9.576   5.800 -1.7350  1.3683  0.4607
   23MOL0     H 3069   9.826   9.377   5.997  2.9186  2.4054 -0.5243
   23MOL0     H 3070   9.806   9.221   5.928  0.7912 -0.5113 -0.0364
   23MOL0     H 3071   9.997   9.224   6.059 -0.6286 -0.0342 -1.2311
   23MOL0     H 3072  10.058   9.219   5.897  1.0595  0.0291  0.9270
   23MOL0     H 3073  10.077   9.486   5.904  1.2338  2.4183  1.3134
   23MOL0     H 3074  10.017   9.473   6.067 -2.1720 -2.1154  0.2087
   23MOL0     H 3075  10.261   9.325   5.985 -1.4832  1.4870 -2.3309
   23MOL0     H 3076  10.206   9.322   6.146 -0.9331  1.5238  0.1164
   23MOL0     H 3077  10.192   9.582   6.134 -4.5777 -5.9618  1.0509
   23MOL0     H 3078  10.336   9.566   6.026  1.7505 -0.7697  1.5073
   23MOL0     H 3079  10.326   9.459   6.315  0.6491 -0.2519  0.8464
   23MOL0     H 3080  10.442   9.412   6.194 -0.9014  1.5196 -2.7155
   23MOL0     H 3081  10.412   9.695   6.305  0.8140 -0.2868  1.4817
   23MOL0     H 3082  10.502   9.655   6.163  0.3102  1.6380  1.1973
   23MOL0     H 3083  10.649   9.657   6.364 -0.0201  0.8347 -2.0103
   23MOL0     H 3084  10.550   9.530   6.437 -0.4938 -0.6628 -0.5745
   23MOL0     H 3085   9.739   9.184   5.645 -0.0661  0.1693  0.9284
   23MOL0     H 3086   9.523   9.234   5.538 -0.6516  0.2482  0.7153
   23MOL0     H 3087   9.170   9.489   5.404 -2.4105 -0.4872 -2.1391
   23MOL0     H 3088   8.968   9.589   5.346  1.4146  1.0512 -0.5150
   23MOL0     H 3089   7.327  10.408   5.378  0.2358 -0.7410 -0.2699
   23MOL0     H 3090   7.146  10.535   5.447 -1.5546  0.2651 -1.7298
   23MOL0     H 3091   6.857  10.748   5.492  2.0481  2.5660 -0.6138
   23MOL0     H 3092   6.651  10.775   5.575  1.6582 -4.8466 -2.8110
   23MOL0     H 3093   6.297  10.960   5.361 -0.0558  1.2778 -1.8981
   23MOL0     H 3094   6.388  11.117   5.372  1.4049 -1.4369  0.0040
   23MOL0     H 3095   6.192  11.151   5.483  0.0210 -0.7187 -2.8928
   23MOL0     H 3096   6.306  11.141   5.608 -1.1010  0.7326  0.2496
   23MOL0     H 3097   6.096  10.944   5.512 -2.0989 -2.0983  1.8175
   23MOL0     H 3098   6.086  11.011   5.659 -1.3413 -1.1086 -1.6344
   23MOL0     H 3099   6.279  10.787   5.566  0.2168  2.2767 -1.8676
   23MOL0     H 3100   6.335  10.873   5.702  1.6992 -1.4824 -2.2824
   23MOL0     H 3101   5.966  10.689   5.842 -0.5328  1.2195  0.4567
   23MOL0     H 3102   6.559  11.058   5.261  1.9201 -0.3669 -0.1759
   23MOL0     H 3103   6.699  11.094   5.088 -0.0269  0.3678  1.4218
   23MOL0     H 3104   6.876  11.077   5.131  0.3710 -0.2920  0.6360
   23MOL0     H 3105   6.797  10.962   5.029 -0.9949  2.2462 -2.4632
   24MOL0     O 3106   9.860   8.724   9.588  0.6080 -0.2923  0.5889
   24MOL0     C 3107   9.898   8.836   9.617 -0.1258  0.1293 -0.5386
   24MOL0     O 3108   9.842   8.913   9.711  0.3644 -0.1777 -1.0480
   24MOL0     C 3109   9.740   8.873   9.792  1.4343  0.7136 -0.0366
   24MOL0     C 3110   9.726   8.744   9.860  0.0866  0.6513 -0.2886
   24MOL0     C 3111   9.618   8.719   9.944 -0.3328  0.0020 -0.4692
   24MOL0     C 3112   9.533   8.819   9.973  0.9180  0.8995 -0.3456
   24MOL0     O 3113   9.428   8.807  10.059 -0.0838  0.5679  0.3225
   24MOL0     C 3114   9.421   8.685  10.133 -0.0342 -0.2621 -0.5468
   24MOL0     C 3115   9.287   8.716  10.203  0.2331  1.0730  0.4951
   24MOL0     C 3116   9.239   8.590  10.273  0.3708  0.2869 -0.5857
   24MOL0     C 3117   9.100   8.599  10.345  0.2231  0.5247 -0.2322
   24MOL0     C 3118   8.987   8.624  10.240 -0.1304 -0.9908 -0.1931
   24MOL0     C 3119   8.843   8.623  10.291 -0.3869 -0.6268 -0.1302
   24MOL0     C 3120   8.825   8.715  10.417  0.3236  0.2116  0.2776
   24MOL0     C 3121   8.797   8.867  10.412  0.4442  0.0609 -0.2421
   24MOL0     N 3122   8.905   8.931  10.335 -0.3519 -0.4012 -0.5544
   24MOL0     C 3123   9.036   8.948  10.366  0.0067 -1.4483 -0.6407
   24MOL0     C 3124   9.079   9.031  10.269  1.0109  0.0866 -0.1966
   24MOL0     C 3125   9.215   9.086  10.242 -0.0393 -0.5179 -0.7103
   24MOL0     C 3126   9.235   9.227  10.285  0.0408 -0.2004 -0.7422
   24MOL0     C 3127   9.147   9.334  10.207  0.1354  0.0742  0.1389
   24MOL0     C 3128   9.201   9.336  10.058  0.3643 -0.0451  0.0861
   24MOL0     O 3129   9.348   9.348  10.054 -0.1006  0.0941  0.1207
   24MOL0     C 3130   9.420   9.342   9.933  0.0655  0.3602 -0.5109
   24MOL0     C 3131   9.550   9.308   9.932 -0.2055  0.1188 -0.0102
   24MOL0     C 3132   9.632   9.322   9.821  0.3126 -0.4872 -0.8683
   24MOL0     C 3133   9.585   9.374   9.701 -0.7091 -0.7902  0.8321
   24MOL0     C 3134   9.669   9.413   9.583  0.5148 -0.6714 -0.1761
   24MOL0     O 3135   9.600   9.465   9.472  0.0991  0.5238 -0.1090
   24MOL0     C 3136   9.677   9.510   9.361 -0.5161  0.3200 -0.4679
   24MOL0     C 3137   9.644   9.470   9.234  0.7620 -0.1715  1.3624
   24MOL0     C 3138   9.712   9.504   9.119 -0.4010  0.0571 -1.0959
   24MOL0     C 3139   9.817   9.602   9.126 -0.0681 -1.1957 -0.5895
   24MOL0     O 3140   9.889   9.663   9.025 -0.0042  0.1853 -0.1547
   24MOL0     C 3141   9.807   9.680   8.913 -0.4516  0.5665  0.3782
   24MOL0     C 3142   9.869   9.801   8.842  0.1299  0.0133 -0.0124
   24MOL0     C 3143  10.020   9.811   8.821 -0.0912 -0.0584 -0.4585
   24MOL0     C 3144  10.061   9.937   8.758 -0.3979 -0.4942 -0.5267
   24MOL0     C 3145  10.211   9.934   8.729  0.4029  0.3479  0.3624
   24MOL0     C 3146  10.249   9.853   8.598  0.0256  0.3396 -0.4914
   24MOL0     C 3147  10.395   9.840   8.581 -0.4067  0.2267  0.2725
   24MOL0     C 3148  10.468   9.973   8.582 -0.0724  0.4072 -0.0845
   24MOL0    Cl 3149  10.642   9.970   8.529 -0.7281 -0.1666 -0.2937
   24MOL0     C 3150   9.852   9.647   9.258 -0.1923  0.4189  0.0240
   24MOL0     C 3151   9.788   9.600   9.376  0.1899 -0.3784 -0.4750
   24MOL0     O 3152   9.789   9.402   9.598 -0.8628  0.2097 -0.1003
   24MOL0     C 3153   9.451   9.396   9.698  0.2870 -0.8150 -0.1608
   24MOL0     C 3154   9.366   9.385   9.806  0.3866  0.0168  0.4050
   24MOL0     N 3155   8.981   9.042  10.176  0.3940  0.4691 -1.0992
   24MOL0     N 3156   8.871   8.993  10.225 -0.1526 -0.7515  0.0178
   24MOL0     C 3157   9.558   8.952   9.933  0.3278  0.1546 -0.1544
   24MOL0     C 3158   9.655   8.974   9.834 -0.6122 -0.8075 -0.0397
   24MOL0     C 3159  10.019   8.891   9.539 -0.1560 -0.7807  0.1789
   24MOL0     C 3160  10.099   8.800   9.467 -0.0772 -1.0594  0.7192
   24MOL0     C 3161  10.216   8.843   9.397 -0.3381  0.2675 -0.2460
   24MOL0     C 3162  10.255   8.979   9.395  0.6157 -0.2018  0.4261
   24MOL0     O 3163  10.362   9.040   9.342 -0.3067  0.2604 -0.6275
   24MOL0     C 3164  10.338   9.091   9.210  0.2853 -0.1784 -0.2305
   24MOL0     C 3165  10.361   8.985   9.100  0.3246  0.5043  0.0110
   24MOL0     C 3166  10.334   9.032   8.959 -0.1296 -0.1939  0.0878
   24MOL0     C 3167  10.295   8.918   8.865  0.5106 -0.1710  0.6643
   24MOL0     C 3168  10.392   8.828   8.817 -0.1068 -0.6319  0.1787
   24MOL0     C 3169  10.477   8.760   8.769  0.1606  0.4749 -0.1226
   24MOL0     C 3170  10.169   9.071   9.465 -0.8490  0.1957  0.3499
   24MOL0     C 3171  10.051   9.029   9.538  0.4895  0.2229  0.0980
   24MOL0     C 3172   9.977   9.134   9.609  0.2761  0.3656 -0.5768
   24MOL0     H 3173   9.783   8.659   9.823 -2.0792 -0.0207 -2.3419
   24MOL0     H 3174   9.590   8.616   9.966  0.4652  0.5420  3.9870
   24MOL0     H 3175   9.420   8.589  10.080  1.6080 -0.8459  0.4181
   24MOL0     H 3176   9.501   8.689  10.208 -0.1416  2.0735 -0.4744
   24MOL0     H 3177   9.222   8.747  10.120  1.4634  0.6496 -0.6575
   24MOL0     H 3178   9.306   8.796  10.275 -0.7202  0.2594  1.7077
   24MOL0     H 3179   9.314   8.561  10.347 -0.0773 -0.5058 -0.4282
   24MOL0     H 3180   9.225   8.508  10.201  0.1381  0.1001 -0.3306
   24MOL0     H 3181   9.077   8.505  10.395  2.4272  0.0405 -0.0258
   24MOL0     H 3182   9.111   8.677  10.421  4.2418  1.8872 -1.9627
   24MOL0     H 3183   9.009   8.719  10.189 -3.5938  0.2030  0.2678
   24MOL0     H 3184   8.974   8.549  10.162 -3.0529 -0.9270  0.1228
   24MOL0     H 3185   8.770   8.651  10.215 -0.9598  0.6115  0.8404
   24MOL0     H 3186   8.810   8.520  10.309 -2.0164  0.1694  1.8990
   24MOL0     H 3187   8.901   8.700  10.494 -1.6162 -0.3272  2.1976
   24MOL0     H 3188   8.743   8.659  10.464 -0.3300 -0.2517 -1.3510
   24MOL0     H 3189   8.695   8.879  10.372  0.5238 -2.3375 -1.3793
   24MOL0     H 3190   8.783   8.917  10.508  0.4399  0.3993 -0.4168
   24MOL0     H 3191   9.090   8.897  10.446 -0.9320 -1.2000  0.1631
   24MOL0     H 3192   9.286   9.031  10.305 -0.5992  0.1659  0.5401
   24MOL0     H 3193   9.255   9.080  10.140  1.1092 -0.9138 -0.2547
   24MOL0     H 3194   9.214   9.236  10.392  1.3819 -0.3701 -0.4448
   24MOL0     H 3195   9.341   9.244  10.266  0.3367 -1.5580 -0.4148
   24MOL0     H 3196   9.171   9.433  10.247  1.4956 -0.6131  1.1031
   24MOL0     H 3197   9.039   9.325  10.219 -0.1724  1.8461 -0.9325
   24MOL0     H 3198   9.148   9.426  10.026 -0.4310  0.1289  1.7712
   24MOL0     H 3199   9.174   9.250   9.996  1.3854  1.0279 -1.9502
   24MOL0     H 3200   9.605   9.278  10.021  0.4798  0.2937 -0.3658
   24MOL0     H 3201   9.733   9.286   9.836  0.9998  0.4899 -2.7266
   24MOL0     H 3202   9.552   9.418   9.208  0.3438  1.4224 -0.5590
   24MOL0     H 3203   9.690   9.449   9.028 -0.2835  0.0277 -1.1071
   24MOL0     H 3204   9.805   9.588   8.855  0.3175  0.6007  0.2954
   24MOL0     H 3205   9.705   9.711   8.941 -0.7682 -0.6871  0.6600
   24MOL0     H 3206   9.822   9.820   8.746 -1.4478 -0.4283  0.6392
   24MOL0     H 3207   9.840   9.876   8.916  0.0724 -2.0898  2.2269
   24MOL0     H 3208  10.064   9.799   8.921 -0.5708  1.5565 -0.0165
   24MOL0     H 3209  10.052   9.727   8.759  3.0040  0.3361  0.4082
   24MOL0     H 3210  10.044  10.022   8.824  1.0648  0.1755 -0.9603
   24MOL0     H 3211  10.003   9.953   8.667 -0.5485  2.9686  0.0726
   24MOL0     H 3212  10.261   9.893   8.817  0.7612 -0.8606 -0.3857
   24MOL0     H 3213  10.237  10.039   8.713 -0.1121  0.2895 -1.0187
   24MOL0     H 3214  10.206   9.752   8.602 -3.0966  1.5272 -0.6804
   24MOL0     H 3215  10.211   9.902   8.507  1.0146 -0.0986 -1.1578
   24MOL0     H 3216  10.412   9.804   8.479  0.7850  1.3312  0.0561
   24MOL0     H 3217  10.433   9.764   8.650  1.0148  0.0519 -0.6477
   24MOL0     H 3218  10.421  10.048   8.518  2.3539  2.5100  0.4129
   24MOL0     H 3219  10.477  10.026   8.677  2.2367  1.2800 -0.7063
   24MOL0     H 3220   9.929   9.721   9.275  2.4711 -2.0310 -0.6359
   24MOL0     H 3221   9.808   9.633   9.478  0.1008  0.9962 -0.8816
   24MOL0     H 3222   9.403   9.431   9.607  1.0720  0.6868 -0.0229
   24MOL0     H 3223   9.258   9.398   9.798  0.4598 -0.0437 -0.9790
   24MOL0     H 3224   9.491   9.031   9.965  0.2864  0.6932 -1.4863
   24MOL0     H 3225   9.681   9.070   9.792 -0.1610 -0.7079  0.4522
   24MOL0     H 3226  10.078   8.694   9.466  0.8470 -1.3694 -3.2383
   24MOL0     H 3227  10.285   8.775   9.348 -1.8410  0.8558 -3.4140
   24MOL0     H 3228  10.398   9.182   9.202 -1.1093  1.2018  3.1632
   24MOL0     H 3229  10.232   9.113   9.194 -0.1429  0.1883  2.6157
   24MOL0     H 3230  10.288   8.907   9.121 -1.7509  1.8666 -1.7587
   24MOL0     H 3231  10.464   8.948   9.109  0.2797  0.7397  1.9253
   24MOL0     H 3232  10.423   9.078   8.915 -0.7933 -0.1536 -1.2571
   24MOL0     H 3233  10.250   9.101   8.956  1.0328  1.2646 -0.2268
   24MOL0     H 3234  10.205   8.876   8.911 -1.7592  3.6329  0.1195
   24MOL0     H 3235  10.256   8.971   8.778  0.6870  2.2976  2.0117
   24MOL0     H 3236  10.547   8.689   8.729 -0.7380  1.0223 -2.9512
   24MOL0     H 3237  10.199   9.176   9.463 -2.5660  0.7939  2.3669
   24MOL0     H 3238   9.988   9.235   9.567  0.9716  0.7292  0.4329
   24MOL0     H 3239   9.870   9.117   9.603  0.2474  0.8311 -1.6589
   24MOL0     H 3240  10.002   9.141   9.716  2.5351  1.4421 -1.1008
   25MOL0     O 3241   2.143   2.279   4.068 -0.0384 -0.5889 -0.6820
   25MOL0     C 3242   2.150   2.361   4.162  0.0701 -0.0990 -0.1469
   25MOL0     O 3243   2.259   2.444   4.187  0.4627 -0.2080  0.2674
   25MOL0     C 3244   2.351   2.446   4.084 -0.0038 -0.0126 -0.3001
   25MOL0     C 3245   2.339   2.534   3.970  1.0510  0.6224 -0.6023
   25MOL0     C 3246   2.434   2.531   3.871  0.0245 -0.7839  0.6494
   25MOL0     C 3247   2.543   2.454   3.866  0.2339 -0.5544 -0.3736
   25MOL0     O 3248   2.636   2.455   3.763 -0.8492  0.6647 -0.2763
   25MOL0     C 3249   2.765   2.502   3.793 -1.1944 -0.3043 -0.2457
   25MOL0     C 3250   2.805   2.602   3.679 -0.6403  0.4563  0.1184
   25MOL0     C 3251   2.704   2.714   3.652 -0.4819 -0.0643 -0.8079
   25MOL0     C 3252   2.693   2.811   3.772  0.3393 -0.1382  0.5975
   25MOL0     C 3253   2.613   2.941   3.749  0.6934  0.4266  0.1554
   25MOL0     C 3254   2.576   3.010   3.886  0.3302  0.1152 -0.1743
   25MOL0     C 3255   2.443   2.961   3.943  0.0942  0.2484  0.2614
   25MOL0     C 3256   2.320   3.006   3.863  0.7861  0.1922 -0.5597
   25MOL0     N 3257   2.235   2.895   3.821 -0.6258 -0.1211 -0.5694
   25MOL0     C 3258   2.242   2.828   3.700 -0.3435 -0.2304  0.2909
   25MOL0     C 3259   2.123   2.766   3.693 -0.4804 -0.5079 -0.9607
   25MOL0     C 3260   2.078   2.668   3.588 -0.6706  1.0595 -0.6104
   25MOL0     C 3261   2.119   2.522   3.624  0.2282 -0.1964  0.0111
   25MOL0     C 3262   2.034   2.459   3.729  0.3767  0.6831 -0.6052
   25MOL0     C 3263   2.042   2.310   3.763  0.5332  0.4113  0.4695
   25MOL0     O 3264   2.044   2.225   3.642  0.3471 -0.2577  0.5230
   25MOL0     C 3265   2.160   2.200   3.588 -0.6433  0.7299  0.9094
   25MOL0     C 3266   2.154   2.173   3.448 -0.1649  0.0126 -0.1594
   25MOL0     C 3267   2.273   2.138   3.383 -0.0122  0.7376 -0.1713
   25MOL0     C 3268   2.397   2.144   3.439  0.4855  0.4090  0.2029
   25MOL0     C 3269   2.513   2.126   3.344  0.2241  0.4504 -0.4241
   25MOL0     O 3270   2.493   2.098   3.215  0.3612  0.0711  0.5072
   25MOL0     C 3271   2.599   2.072   3.135 -0.5515 -1.3954 -0.9288
   25MOL0     C 3272   2.655   1.947   3.155 -0.3601  0.4714 -0.7535
   25MOL0     C 3273   2.756   1.903   3.066 -0.1293  0.3775 -0.4842
   25MOL0     C 3274   2.815   1.984   2.968 -0.6675 -0.2508 -0.0905
   25MOL0     O 3275   2.904   1.920   2.882  0.5483 -0.1661 -0.6459
   25MOL0     C 3276   2.980   2.011   2.802 -1.1989  0.2717 -0.4505
   25MOL0     C 3277   3.079   1.938   2.711  0.3501 -0.9734  0.0789
   25MOL0     C 3278   3.171   1.845   2.791 -1.1116  0.1578  0.4714
   25MOL0     C 3279   3.225   1.742   2.700  0.0512  0.1497  0.1053
   25MOL0     C 3280   3.351   1.677   2.757 -0.1015 -0.7172 -0.8765
   25MOL0     C 3281   3.430   1.595   2.650 -0.4671 -0.0782 -0.5212
   25MOL0     C 3282   3.579   1.564   2.694  0.4992  0.1907  0.8096
   25MOL0     C 3283   3.576   1.453   2.795 -0.0946  1.0285  0.6955
   25MOL0    Cl 3284   3.524   1.289   2.719 -0.0418 -0.0721  0.4899
   25MOL0     C 3285   2.773   2.126   2.963 -0.0043  0.6669 -0.6141
   25MOL0     C 3286   2.663   2.161   3.049 -0.4465 -0.2385 -0.1089
   25MOL0     O 3287   2.622   2.148   3.398  0.0052  0.1616  0.0928
   25MOL0     C 3288   2.406   2.189   3.571 -0.4562 -0.0168  0.7263
   25MOL0     C 3289   2.286   2.214   3.649 -0.4904  0.7133  0.9484
   25MOL0     N 3290   2.043   2.788   3.803 -0.2331  0.9098 -0.6138
   25MOL0     N 3291   2.119   2.861   3.883  0.0638 -0.4042  0.0977
   25MOL0     C 3292   2.551   2.360   3.973  0.0442 -0.7767  0.8073
   25MOL0     C 3293   2.461   2.356   4.081 -0.3887  0.1970 -0.3462
   25MOL0     C 3294   2.024   2.378   4.245 -0.3040  0.3862  0.2834
   25MOL0     C 3295   1.914   2.294   4.224 -0.5952  0.2767 -0.6784
   25MOL0     C 3296   1.801   2.302   4.305  0.0797  0.2862 -0.7653
   25MOL0     C 3297   1.794   2.406   4.406  0.1207 -0.3273  0.8030
   25MOL0     O 3298   1.668   2.422   4.452  0.6529  0.2808 -0.0968
   25MOL0     C 3299   1.639   2.542   4.528 -0.1030 -0.0093  0.1078
   25MOL0     C 3300   1.494   2.575   4.552 -0.5058 -0.7571  0.9693
   25MOL0     C 3301   1.415   2.544   4.415  1.7414 -0.7503 -0.0477
   25MOL0     C 3302   1.283   2.618   4.414 -0.7643  0.5822  1.3601
   25MOL0     C 3303   1.187   2.572   4.513 -0.8016 -0.6946 -0.2378
   25MOL0     C 3304   1.098   2.548   4.597 -0.7294  1.1166 -0.1937
   25MOL0     C 3305   1.900   2.489   4.431  0.5269 -0.2751  0.1720
   25MOL0     C 3306   2.016   2.481   4.352 -0.4507 -0.7581 -0.2858
   25MOL0     C 3307   2.125   2.588   4.383  0.7670 -0.5831  0.5493
   25MOL0     H 3308   2.248   2.594   3.970  2.1607  2.3841  0.1072
   25MOL0     H 3309   2.420   2.615   3.803  0.9306  0.1060  1.5297
   25MOL0     H 3310   2.760   2.560   3.885  2.1493  3.4395 -2.1445
   25MOL0     H 3311   2.839   2.422   3.808  0.6549  1.6895  1.9617
   25MOL0     H 3312   2.824   2.539   3.591  0.0245 -0.5794  0.9818
   25MOL0     H 3313   2.899   2.655   3.698  0.2638 -0.3503 -1.7624
   25MOL0     H 3314   2.604   2.673   3.635 -1.1170 -0.3862  2.8989
   25MOL0     H 3315   2.736   2.774   3.566 -0.9338 -2.0282 -2.4168
   25MOL0     H 3316   2.643   2.750   3.848 -0.0962 -0.5956 -0.0526
   25MOL0     H 3317   2.790   2.830   3.820  0.3788  1.8355 -0.1771
   25MOL0     H 3318   2.658   3.018   3.686 -1.9342  1.5012 -0.5552
   25MOL0     H 3319   2.521   2.921   3.693  1.4092  0.6325 -1.1216
   25MOL0     H 3320   2.658   2.991   3.957  1.6656 -0.3621 -1.7710
   25MOL0     H 3321   2.580   3.117   3.862 -1.2191  0.0911 -0.6036
   25MOL0     H 3322   2.442   2.995   4.047  1.1918  1.4460 -0.0828
   25MOL0     H 3323   2.450   2.852   3.939 -0.2803  0.2542 -2.5653
   25MOL0     H 3324   2.265   3.069   3.933  0.8904 -0.3050 -0.0308
   25MOL0     H 3325   2.343   3.072   3.778 -0.3450  4.3910  2.1203
   25MOL0     H 3326   2.327   2.820   3.633 -0.2192  2.5312  0.0126
   25MOL0     H 3327   1.969   2.676   3.579 -0.8659 -1.3133 -1.0194
   25MOL0     H 3328   2.130   2.696   3.496  0.2520  0.4388 -0.2867
   25MOL0     H 3329   2.113   2.464   3.531 -0.3635  0.6022 -0.4576
   25MOL0     H 3330   2.223   2.525   3.659 -0.7818 -0.0439  3.2338
   25MOL0     H 3331   1.928   2.478   3.710 -0.4703  1.1955  3.5560
   25MOL0     H 3332   2.049   2.512   3.824 -0.8432 -0.6646  0.3988
   25MOL0     H 3333   1.951   2.288   3.820  0.3897  2.1731  0.9659
   25MOL0     H 3334   2.132   2.298   3.823  1.4230  2.1484 -0.4559
   25MOL0     H 3335   2.059   2.166   3.397 -0.7891 -0.6126  1.0421
   25MOL0     H 3336   2.250   2.110   3.281  0.8787  0.2369 -0.2428
   25MOL0     H 3337   2.621   1.889   3.241 -0.6128  4.1422  1.8662
   25MOL0     H 3338   2.810   1.812   3.085 -1.3548 -0.3049 -0.1484
   25MOL0     H 3339   2.916   2.074   2.738 -0.9075  0.4697 -0.5535
   25MOL0     H 3340   3.031   2.078   2.872 -2.1140  0.7854 -0.2668
   25MOL0     H 3341   3.015   1.893   2.634  0.1687  2.2966 -1.8825
   25MOL0     H 3342   3.139   2.005   2.648  0.4391  0.1107  1.2684
   25MOL0     H 3343   3.253   1.903   2.833  0.8205 -1.4331 -0.9468
   25MOL0     H 3344   3.110   1.796   2.868 -0.1752 -0.5190  0.7895
   25MOL0     H 3345   3.253   1.792   2.606  0.0598 -2.1486 -1.1867
   25MOL0     H 3346   3.156   1.661   2.674 -0.7364  0.5666  0.8805
   25MOL0     H 3347   3.327   1.609   2.840  0.9554  0.2208  0.2391
   25MOL0     H 3348   3.408   1.758   2.802 -1.5801  0.3646 -0.8747
   25MOL0     H 3349   3.382   1.499   2.625 -0.3716  0.1213 -1.5232
   25MOL0     H 3350   3.415   1.655   2.559 -2.2836  0.7272  0.2615
   25MOL0     H 3351   3.628   1.653   2.738  1.7170 -0.7379  1.4008
   25MOL0     H 3352   3.630   1.529   2.604 -1.9713  2.0858 -1.4957
   25MOL0     H 3353   3.676   1.439   2.837 -1.4947  0.5677  4.2751
   25MOL0     H 3354   3.503   1.474   2.874 -1.4357 -0.3519 -0.1136
   25MOL0     H 3355   2.820   2.196   2.896  1.8615  2.5629  2.4279
   25MOL0     H 3356   2.612   2.255   3.031 -1.7503 -1.1553 -1.4184
   25MOL0     H 3357   2.502   2.203   3.619 -1.3146 -0.6151  2.7623
   25MOL0     H 3358   2.289   2.242   3.754 -3.3769  1.5624  0.8832
   25MOL0     H 3359   2.630   2.285   3.967 -1.6716 -2.5467 -1.0843
   25MOL0     H 3360   2.485   2.299   4.170  0.7967  3.2289  1.4049
   25MOL0     H 3361   1.911   2.216   4.149 -0.1764 -1.5110  1.0985
   25MOL0     H 3362   1.720   2.237   4.273 -0.9728  1.2845 -0.1898
   25MOL0     H 3363   1.694   2.622   4.477  0.8802  0.4032  1.7591
   25MOL0     H 3364   1.690   2.527   4.623 -0.0935 -0.1285  0.0837
   25MOL0     H 3365   1.482   2.679   4.584  2.3410 -0.0244  0.0145
   25MOL0     H 3366   1.463   2.512   4.636  2.0491 -2.1215  1.0064
   25MOL0     H 3367   1.398   2.436   4.412 -0.4245 -0.4351 -1.1634
   25MOL0     H 3368   1.468   2.563   4.321 -0.7968 -1.2502 -1.6595
   25MOL0     H 3369   1.313   2.720   4.438  0.1306  0.1767  1.9925
   25MOL0     H 3370   1.241   2.622   4.313  1.7378 -2.4515  0.0120
   25MOL0     H 3371   1.009   2.544   4.656 -1.2668 -0.9668 -1.0592
   25MOL0     H 3372   1.912   2.560   4.512  1.5460 -0.8992  0.5745
   25MOL0     H 3373   2.107   2.663   4.460  1.9183  0.9126 -0.5726
   25MOL0     H 3374   2.222   2.540   4.398  0.5359 -2.0021 -1.8951
   25MOL0     H 3375   2.136   2.653   4.295  0.7524  0.8521  1.5850
   26MOL0     O 3376   5.431  10.983  10.811 -0.5266  0.0868 -0.6826
   26MOL0     C 3377   5.339  10.974  10.729  0.4236 -0.9389  0.5105
   26MOL0     O 3378   5.351  10.964  10.594  0.1807  0.1961 -0.2774
   26MOL0     C 3379   5.477  10.960  10.544  0.1284 -0.0722  0.0811
   26MOL0     C 3380   5.506  11.060  10.454 -0.2101 -0.0117 -0.6398
   26MOL0     C 3381   5.633  11.057  10.391  0.3361  0.2176  0.2749
   26MOL0     C 3382   5.729  10.961  10.423 -0.2976  0.0994 -0.4171
   26MOL0     O 3383   5.849  10.977  10.373 -0.1005 -0.3828  0.1255
   26MOL0     C 3384   5.954  10.878  10.390  0.6670  0.2934  0.0692
   26MOL0     C 3385   6.072  10.901  10.294 -0.2188 -0.6175  0.2280
   26MOL0     C 3386   6.140  10.766  10.276 -0.0804  0.3915 -1.0191
   26MOL0     C 3387   6.255  10.754  10.177 -0.8486 -0.6760  0.2727
   26MOL0     C 3388   6.311  10.611  10.189 -0.6506 -0.7609 -0.3933
   26MOL0     C 3389   6.428  10.590  10.085  0.7848  0.7100  0.1505
   26MOL0     C 3390   6.539  10.495  10.142  0.4180  0.2390 -0.5238
   26MOL0     C 3391   6.547  10.357  10.078 -0.5444  1.0700 -0.0604
   26MOL0     N 3392   6.690  10.310  10.085  0.4228 -0.4228  0.8581
   26MOL0     C 3393   6.741  10.263  10.202  0.8374 -0.2645  0.6411
   26MOL0     C 3394   6.871  10.232  10.181 -1.1266  0.2509 -0.7239
   26MOL0     C 3395   6.969  10.171  10.286 -0.6258 -0.5272  0.1796
   26MOL0     C 3396   7.117  10.191  10.252  0.5555  0.9167 -0.3375
   26MOL0     C 3397   7.168  10.076  10.169  0.5704  0.5742  0.5641
   26MOL0     C 3398   7.316  10.109  10.130 -0.5957 -0.0906  0.1049
   26MOL0     O 3399   7.395  10.101  10.247  0.0459  0.0080 -0.0569
   26MOL0     C 3400   7.522  10.073  10.226 -0.4841 -0.3759  0.1960
   26MOL0     C 3401   7.578   9.948  10.252 -0.1371 -0.1468  0.6695
   26MOL0     C 3402   7.714   9.925  10.243 -0.1953 -0.1354  0.6367
   26MOL0     C 3403   7.801  10.022  10.191  0.1199  0.0817  0.3376
   26MOL0     C 3404   7.946  10.003  10.158  0.2533 -0.5376  0.0090
   26MOL0     O 3405   7.985   9.876  10.127  1.0589 -1.3407  0.1178
   26MOL0     C 3406   8.115   9.846  10.104 -0.0514  0.2104 -0.3163
   26MOL0     C 3407   8.161   9.862   9.975  0.4816 -0.5050 -0.1356
   26MOL0     C 3408   8.288   9.841   9.940  0.4496 -0.4872  0.8539
   26MOL0     C 3409   8.383   9.789  10.032  0.6194  0.4382 -0.1779
   26MOL0     O 3410   8.507   9.755   9.993  0.5536 -0.6131 -0.1948
   26MOL0     C 3411   8.560   9.840   9.890  0.1959 -0.1334 -0.1535
   26MOL0     C 3412   8.713   9.816   9.881 -0.0355  0.2007 -0.0370
   26MOL0     C 3413   8.771   9.867  10.010 -0.0320 -0.0934 -0.6031
   26MOL0     C 3414   8.919   9.810  10.025  0.6046  0.0302  0.1421
   26MOL0     C 3415   8.966   9.835  10.173 -0.0349 -0.5674  1.2212
   26MOL0     C 3416   9.108   9.776  10.177  0.3122  0.0984 -0.5951
   26MOL0     C 3417   9.166   9.776  10.318  0.4937 -1.2124  0.5739
   26MOL0     C 3418   9.318   9.756  10.320 -0.7928 -0.5287 -0.2738
   26MOL0    Cl 3419   9.388   9.713  10.486  0.3716 -0.3167  0.0319
   26MOL0     C 3420   8.337   9.771  10.157 -0.2887  0.5371 -0.2195
   26MOL0     C 3421   8.204   9.798  10.198 -0.0906  0.9072 -0.0365
   26MOL0     O 3422   8.017  10.102  10.147 -0.4749  0.1533 -0.2392
   26MOL0     C 3423   7.742  10.151  10.169 -0.1408  0.5017  0.0178
   26MOL0     C 3424   7.610  10.174  10.179  0.2319  0.5855 -0.7443
   26MOL0     N 3425   6.895  10.279  10.055  0.3376  0.1600 -0.1652
   26MOL0     N 3426   6.786  10.315   9.996 -0.7866 -0.3477  0.6877
   26MOL0     C 3427   5.696  10.865  10.527  0.3006 -0.6294  0.1565
   26MOL0     C 3428   5.562  10.858  10.576 -1.4475 -0.5201  0.0407
   26MOL0     C 3429   5.194  10.965  10.784  0.1917  0.1862 -0.0252
   26MOL0     C 3430   5.107  10.899  10.697  0.5322 -0.8571 -0.0656
   26MOL0     C 3431   4.972  10.888  10.726 -0.0664 -0.0383  0.4437
   26MOL0     C 3432   4.929  10.925  10.847 -1.0264  0.6605 -0.2719
   26MOL0     O 3433   4.793  10.922  10.883 -0.0162 -0.1612  0.0031
   26MOL0     C 3434   4.717  10.812  10.832 -0.7402  0.3060 -1.0007
   26MOL0     C 3435   4.601  10.788  10.928  0.0089  0.7082 -0.1179
   26MOL0     C 3436   4.498  10.891  10.903  0.0464 -1.6357 -0.3909
   26MOL0     C 3437   4.360  10.862  10.960  0.4098 -0.4872 -0.1125
   26MOL0     C 3438   4.296  10.749  10.910  0.6069  0.2895 -0.4368
   26MOL0     C 3439   4.233  10.653  10.877  0.3585 -0.6018 -0.4680
   26MOL0     C 3440   5.009  10.976  10.945  0.2614 -0.5076  0.4208
   26MOL0     C 3441   5.147  11.009  10.912 -0.0540 -0.2179 -0.2044
   26MOL0     C 3442   5.237  11.072  11.013  0.0851 -0.4599 -0.2873
   26MOL0     H 3443   5.429  11.137  10.450 -0.6070 -0.3675 -0.0003
   26MOL0     H 3444   5.664  11.134  10.321  0.5394  0.2276  0.3745
   26MOL0     H 3445   5.993  10.877  10.492 -3.0939  2.0274  1.7114
   26MOL0     H 3446   5.906  10.783  10.366 -0.9778  1.2136 -0.4485
   26MOL0     H 3447   6.136  10.969  10.351 -0.7157 -1.6128  2.0267
   26MOL0     H 3448   6.040  10.955  10.204  3.9931  2.3254  0.2039
   26MOL0     H 3449   6.066  10.689  10.253 -0.7514  0.4069  0.9140
   26MOL0     H 3450   6.174  10.734  10.375 -2.4865  0.8985  0.0578
   26MOL0     H 3451   6.230  10.780  10.074 -0.4492 -4.1364 -0.8202
   26MOL0     H 3452   6.333  10.826  10.204 -0.7043 -1.1498  1.1643
   26MOL0     H 3453   6.364  10.606  10.285  0.4767  2.7287 -0.6714
   26MOL0     H 3454   6.240  10.530  10.173  0.6015 -1.8861 -0.4065
   26MOL0     H 3455   6.397  10.552   9.988  1.9779  0.0754 -0.0023
   26MOL0     H 3456   6.466  10.688  10.054  0.7778  1.2924  1.8679
   26MOL0     H 3457   6.544  10.490  10.251  2.1756  0.0673 -0.5922
   26MOL0     H 3458   6.625  10.556  10.114 -0.5226  1.5690 -0.6132
   26MOL0     H 3459   6.493  10.286  10.140  0.2262  1.2811  0.8683
   26MOL0     H 3460   6.508  10.350   9.976  0.6902 -0.4615 -0.4647
   26MOL0     H 3461   6.682  10.238  10.290  0.0926  0.5043  0.3731
   26MOL0     H 3462   6.937  10.206  10.385 -1.1649  1.3172 -0.5921
   26MOL0     H 3463   6.958  10.063  10.279  1.8445 -1.1356  3.4418
   26MOL0     H 3464   7.138  10.282  10.196  0.7942  0.8209 -0.4067
   26MOL0     H 3465   7.178  10.197  10.343  1.3391 -0.6228 -0.7254
   26MOL0     H 3466   7.114  10.080  10.074  0.7652  1.7363  0.4852
   26MOL0     H 3467   7.160   9.979  10.218 -0.1467  0.5571  0.4211
   26MOL0     H 3468   7.328  10.206  10.082 -0.6250  0.1642  0.6033
   26MOL0     H 3469   7.337  10.029  10.059  0.1981  0.0384  0.1845
   26MOL0     H 3470   7.513   9.870  10.291 -0.3638 -0.6756 -0.7316
   26MOL0     H 3471   7.758   9.830  10.273 -1.2120 -1.6041 -2.1895
   26MOL0     H 3472   8.092   9.892   9.897  2.3637 -0.8902 -2.0622
   26MOL0     H 3473   8.318   9.845   9.836  0.5972  0.3374  0.9246
   26MOL0     H 3474   8.520   9.812   9.792  1.5835 -0.6009 -0.6102
   26MOL0     H 3475   8.541   9.947   9.906 -0.1178 -0.2984  0.5938
   26MOL0     H 3476   8.730   9.708   9.874  0.4998  0.1840  1.1846
   26MOL0     H 3477   8.750   9.864   9.790  1.9566 -0.3487  0.4393
   26MOL0     H 3478   8.779   9.976  10.009  3.6512 -0.2349 -0.0054
   26MOL0     H 3479   8.716   9.835  10.099  0.3091  3.4677  1.0436
   26MOL0     H 3480   8.989   9.868   9.964  0.8185 -1.0440 -0.6561
   26MOL0     H 3481   8.927   9.704  10.000 -0.6017 -0.5002  1.8260
   26MOL0     H 3482   8.899   9.783  10.242 -3.1288 -0.2961 -1.3428
   26MOL0     H 3483   8.961   9.944  10.182 -1.6242 -0.0370 -3.4421
   26MOL0     H 3484   9.107   9.676  10.132 -2.9989 -0.1431 -0.2268
   26MOL0     H 3485   9.166   9.845  10.115  0.1216  0.3427 -0.5066
   26MOL0     H 3486   9.111   9.697  10.369  0.8161 -2.1815 -0.5447
   26MOL0     H 3487   9.139   9.872  10.364 -3.2178 -1.4672 -0.7760
   26MOL0     H 3488   9.347   9.678  10.249  0.4881 -1.9471  1.6941
   26MOL0     H 3489   9.369   9.849  10.292 -1.9489  0.9684  2.2097
   26MOL0     H 3490   8.409   9.737  10.230 -1.1752 -0.9151  0.0234
   26MOL0     H 3491   8.179   9.766  10.299 -0.1129  1.2323  0.0619
   26MOL0     H 3492   7.815  10.225  10.138  1.5140 -1.6239 -1.4569
   26MOL0     H 3493   7.577  10.275  10.158 -0.3359  0.1780 -1.8750
   26MOL0     H 3494   5.763  10.786  10.559  0.0003 -0.4264  1.3331
   26MOL0     H 3495   5.542  10.788  10.657  1.8834 -3.1406 -1.1350
   26MOL0     H 3496   5.142  10.853  10.605 -2.3282 -0.7710 -1.2901
   26MOL0     H 3497   4.917  10.837  10.647  0.9924  2.6507 -2.1955
   26MOL0     H 3498   4.772  10.717  10.835 -0.9137  0.1979  1.9798
   26MOL0     H 3499   4.691  10.831  10.728  0.0369  0.6319 -1.1400
   26MOL0     H 3500   4.646  10.785  11.027 -0.3244 -1.0226  0.0182
   26MOL0     H 3501   4.563  10.686  10.915 -0.3602  0.4707  2.3105
   26MOL0     H 3502   4.476  10.915  10.798 -1.0764 -0.0456  0.1778
   26MOL0     H 3503   4.550  10.978  10.944 -0.5888 -2.0989  1.4691
   26MOL0     H 3504   4.362  10.855  11.069 -1.0199 -1.2244 -0.1199
   26MOL0     H 3505   4.302  10.955  10.950 -0.1487 -0.6133  1.6167
   26MOL0     H 3506   4.172  10.567  10.860  0.5496 -0.5468 -1.4775
   26MOL0     H 3507   4.966  11.008  11.039  1.2630 -2.5652  1.6448
   26MOL0     H 3508   5.176  11.120  11.091  1.0485  1.4903 -0.6661
   26MOL0     H 3509   5.309  10.998  11.049  2.8069  1.6117 -1.1591
   26MOL0     H 3510   5.297  11.151  10.967  2.1265 -1.2521  0.8499
   27MOL0     O 3511   0.240   5.386   3.375 -0.1075  0.0678  0.5534
   27MOL0     C 3512   0.199   5.364   3.263  0.3046 -0.7858  0.0472
   27MOL0     O 3513   0.261   5.406   3.154  0.3507 -0.5040 -0.0372
   27MOL0     C 3514   0.368   5.490   3.173  0.4874  0.0439  0.2833
   27MOL0     C 3515   0.499   5.442   3.197 -0.1897 -0.0671 -0.6702
   27MOL0     C 3516   0.609   5.533   3.201 -0.2544  0.3877  0.5939
   27MOL0     C 3517   0.593   5.667   3.179 -0.7711 -0.6439 -0.0979
   27MOL0     O 3518   0.704   5.747   3.186  0.1632 -0.6799 -0.1084
   27MOL0     C 3519   0.775   5.763   3.064 -0.6717 -0.1026  0.8218
   27MOL0     C 3520   0.919   5.785   3.097  0.5396  0.4529 -0.6158
   27MOL0     C 3521   0.939   5.933   3.144 -1.0415  0.2877 -0.0386
   27MOL0     C 3522   1.087   5.968   3.128 -0.7452  0.1311  0.0611
   27MOL0     C 3523   1.135   6.076   3.236  0.0092  0.2503  0.1539
   27MOL0     C 3524   1.275   6.124   3.216  0.2098  0.6450 -0.8272
   27MOL0     C 3525   1.333   6.212   3.328 -0.3668  0.0302  0.1664
   27MOL0     C 3526   1.381   6.140   3.456  0.2316  0.9823  0.0613
   27MOL0     N 3527   1.436   6.232   3.550 -0.1161 -0.8805  0.5784
   27MOL0     C 3528   1.480   6.194   3.674 -0.2834 -0.5331 -0.4700
   27MOL0     C 3529   1.533   6.302   3.733  0.6262  0.3770  1.0281
   27MOL0     C 3530   1.583   6.325   3.870  0.4334  0.2983 -0.3493
   27MOL0     C 3531   1.699   6.222   3.896 -0.5451 -0.4859 -0.4914
   27MOL0     C 3532   1.776   6.248   4.025  0.4957  0.8366  0.1389
   27MOL0     C 3533   1.879   6.355   4.024  0.0155 -0.6065  0.5767
   27MOL0     O 3534   1.832   6.487   3.992 -0.5057 -0.6755  0.4170
   27MOL0     C 3535   1.928   6.587   3.979 -0.2597 -0.2483  0.3410
   27MOL0     C 3536   1.899   6.686   3.889 -0.8603  0.1575  0.4350
   27MOL0     C 3537   1.999   6.783   3.866  0.0963  0.0151 -0.0482
   27MOL0     C 3538   2.125   6.788   3.928 -0.2759 -0.2289  0.4227
   27MOL0     C 3539   2.233   6.879   3.888 -0.3896 -0.1959  1.4008
   27MOL0     O 3540   2.342   6.885   3.965 -0.3437  0.3267 -0.0308
   27MOL0     C 3541   2.463   6.952   3.939  0.6478 -0.5423  0.3345
   27MOL0     C 3542   2.469   7.068   3.858 -0.6002 -0.0886 -0.5159
   27MOL0     C 3543   2.595   7.135   3.845 -0.1327  0.3549  0.7511
   27MOL0     C 3544   2.704   7.086   3.911 -0.2369 -0.1521 -0.2056
   27MOL0     O 3545   2.830   7.133   3.876  0.3409  0.3108  0.0652
   27MOL0     C 3546   2.917   7.160   3.983 -0.1830  0.2938 -0.4340
   27MOL0     C 3547   3.045   7.236   3.942 -0.2306 -0.0199  0.6377
   27MOL0     C 3548   3.002   7.377   3.901 -0.0302  0.3690  0.1737
   27MOL0     C 3549   3.120   7.460   3.838  0.1215 -0.2985 -0.8877
   27MOL0     C 3550   3.240   7.473   3.937 -0.8474  0.5653  0.0229
   27MOL0     C 3551   3.349   7.553   3.872  0.1561 -0.1417  0.1682
   27MOL0     C 3552   3.442   7.630   3.962  0.0227  0.5202  0.9026
   27MOL0     C 3553   3.507   7.552   4.073 -0.0567 -0.7162  0.3670
   27MOL0    Cl 3554   3.637   7.457   4.023 -0.2085  0.0808 -0.0070
   27MOL0     C 3555   2.700   6.969   3.988  0.0467 -0.4233  0.0468
   27MOL0     C 3556   2.574   6.911   4.007  0.1946  0.1958  0.5589
   27MOL0     O 3557   2.218   6.940   3.785  0.8346 -0.3392  0.1854
   27MOL0     C 3558   2.155   6.695   4.028  0.3878 -0.6709 -1.0205
   27MOL0     C 3559   2.055   6.594   4.047  0.0579  0.1263  0.3076
   27MOL0     N 3560   1.521   6.408   3.641  0.1398  0.2070  0.0022
   27MOL0     N 3561   1.466   6.365   3.532  0.3453 -0.2334  0.0709
   27MOL0     C 3562   0.466   5.712   3.127 -0.0978  0.0262 -0.2074
   27MOL0     C 3563   0.358   5.619   3.142  0.0285  0.1051 -0.3232
   27MOL0     C 3564   0.082   5.279   3.234  0.4029  0.2194 -0.2470
   27MOL0     C 3565   0.003   5.329   3.123  0.7525  0.0333 -1.0140
   27MOL0     C 3566  -0.115   5.260   3.077 -0.3147  0.2799 -0.2610
   27MOL0     C 3567  -0.155   5.140   3.144 -0.2440 -0.1787  0.0378
   27MOL0     O 3568  -0.262   5.071   3.094 -0.0879  0.2931  0.1401
   27MOL0     C 3569  -0.333   4.971   3.178 -0.1288  0.1830 -0.0570
   27MOL0     C 3570  -0.475   4.941   3.121 -0.4014 -0.1983  0.1271
   27MOL0     C 3571  -0.563   5.069   3.110 -0.4407  0.4618 -0.0053
   27MOL0     C 3572  -0.614   5.131   3.245  1.0270 -0.8665  0.0872
   27MOL0     C 3573  -0.694   5.037   3.327  0.3942  0.3410  0.6860
   27MOL0     C 3574  -0.756   4.956   3.395  0.1764 -0.2147 -0.5403
   27MOL0     C 3575  -0.084   5.102   3.260  0.1156 -0.2020 -0.1509
   27MOL0     C 3576   0.036   5.166   3.298  1.1781 -0.0266  0.3842
   27MOL0     C 3577   0.129   5.098   3.404  0.1795  0.4701  0.5117
   27MOL0     H 3578   0.501   5.338   3.228  1.6148  0.2399  0.3820
   27MOL0     H 3579   0.704   5.484   3.219  0.4620  1.0557 -1.1550
   27MOL0     H 3580   0.756   5.673   3.005  3.1558 -0.4743 -0.0439
   27MOL0     H 3581   0.733   5.840   2.998 -0.9949 -1.6710 -0.9066
   27MOL0     H 3582   0.970   5.773   3.001  0.1320 -2.4132 -0.5423
   27MOL0     H 3583   0.951   5.711   3.171 -1.6155  1.1829  1.1855
   27MOL0     H 3584   0.908   5.954   3.247  1.3464  0.8230  0.6345
   27MOL0     H 3585   0.883   6.000   3.078 -1.6499  0.9973  1.1540
   27MOL0     H 3586   1.137   5.872   3.145 -3.0859 -1.3252 -0.7634
   27MOL0     H 3587   1.109   5.996   3.025 -1.7891  0.3545 -0.1133
   27MOL0     H 3588   1.073   6.163   3.211  0.8947  0.6802 -0.5799
   27MOL0     H 3589   1.116   6.034   3.336 -0.3917  0.1885  0.0554
   27MOL0     H 3590   1.340   6.037   3.209  0.1140  0.6534 -2.1628
   27MOL0     H 3591   1.283   6.175   3.119  0.7026  1.2123 -0.4955
   27MOL0     H 3592   1.259   6.287   3.359  0.3485  0.1078  1.7815
   27MOL0     H 3593   1.417   6.263   3.280  2.1224 -1.8431  2.2464
   27MOL0     H 3594   1.287   6.090   3.483 -0.6813 -0.1809 -4.2949
   27MOL0     H 3595   1.460   6.066   3.439  1.0802  1.6701  1.0075
   27MOL0     H 3596   1.465   6.098   3.722  0.8551 -0.4670  0.0393
   27MOL0     H 3597   1.611   6.430   3.876  0.5053  0.2054  1.6891
   27MOL0     H 3598   1.505   6.315   3.946  0.0708  4.6256  0.0645
   27MOL0     H 3599   1.654   6.122   3.897 -0.0640 -0.7064  0.1504
   27MOL0     H 3600   1.773   6.226   3.816 -2.1822 -1.9113 -2.1837
   27MOL0     H 3601   1.816   6.150   4.055 -0.4295  0.9328  1.7850
   27MOL0     H 3602   1.701   6.266   4.103  0.7230  1.2485  0.2655
   27MOL0     H 3603   1.958   6.323   3.957 -0.1859  0.4931 -0.2111
   27MOL0     H 3604   1.927   6.362   4.122  1.1942  0.2415 -0.0462
   27MOL0     H 3605   1.801   6.687   3.843 -0.4398  1.8091 -0.4939
   27MOL0     H 3606   1.983   6.857   3.787  0.5114  0.7206  0.5160
   27MOL0     H 3607   2.390   7.105   3.795 -0.5101 -1.3557 -1.4103
   27MOL0     H 3608   2.598   7.227   3.787 -1.9578  0.0010  0.0056
   27MOL0     H 3609   2.865   7.215   4.063 -1.2152 -0.4819 -0.5570
   27MOL0     H 3610   2.938   7.065   4.032 -1.8235 -1.0063 -2.0830
   27MOL0     H 3611   3.117   7.249   4.024 -1.0777  2.4512  1.0964
   27MOL0     H 3612   3.088   7.189   3.853  1.5043  1.1247  0.8215
   27MOL0     H 3613   2.928   7.381   3.821  0.9620  1.1156 -0.7475
   27MOL0     H 3614   2.968   7.432   3.989  0.0084  1.7729 -0.6559
   27MOL0     H 3615   3.066   7.554   3.823 -0.0833 -0.4625 -1.1832
   27MOL0     H 3616   3.151   7.418   3.742 -0.1160 -0.9911 -0.6687
   27MOL0     H 3617   3.287   7.378   3.965 -1.7941  0.5239  1.5425
   27MOL0     H 3618   3.204   7.516   4.031 -0.2346 -0.3846  0.7151
   27MOL0     H 3619   3.405   7.483   3.809  1.5394  1.3438 -0.3381
   27MOL0     H 3620   3.312   7.624   3.798  0.3867 -2.3302 -2.1728
   27MOL0     H 3621   3.396   7.720   4.003 -4.6572  0.7037 -3.7385
   27MOL0     H 3622   3.523   7.662   3.895 -0.6898 -1.3948 -0.9954
   27MOL0     H 3623   3.540   7.612   4.158  0.2056 -3.0311  2.0246
   27MOL0     H 3624   3.427   7.484   4.104 -1.3831 -1.0281 -3.2685
   27MOL0     H 3625   2.789   6.928   4.035 -0.8586 -1.5682  0.8199
   27MOL0     H 3626   2.572   6.819   4.065  1.1020 -1.2854 -1.6534
   27MOL0     H 3627   2.246   6.705   4.085 -0.2133  1.0746 -0.2874
   27MOL0     H 3628   2.069   6.536   4.138 -1.0374  0.6708  0.8393
   27MOL0     H 3629   0.459   5.817   3.099  0.0881 -0.0702 -0.6204
   27MOL0     H 3630   0.262   5.654   3.105 -0.4487  0.2575  1.0017
   27MOL0     H 3631   0.010   5.425   3.072 -2.5091 -0.7082 -3.2350
   27MOL0     H 3632  -0.182   5.291   2.998 -0.7743 -1.9112 -0.7938
   27MOL0     H 3633  -0.350   5.010   3.279 -1.0966 -1.1728  0.3362
   27MOL0     H 3634  -0.271   4.881   3.183 -0.9340 -0.4636 -1.1485
   27MOL0     H 3635  -0.531   4.868   3.179 -2.0802 -1.1356 -2.5260
   27MOL0     H 3636  -0.459   4.893   3.024  2.8193  1.6665 -0.4084
   27MOL0     H 3637  -0.640   5.041   3.037  0.8652  1.5704 -1.8786
   27MOL0     H 3638  -0.525   5.156   3.056 -1.3633  0.7416 -0.2204
   27MOL0     H 3639  -0.538   5.181   3.306  0.0766 -1.6684  1.9997
   27MOL0     H 3640  -0.682   5.211   3.213  1.3572 -0.0225  1.4226
   27MOL0     H 3641  -0.813   4.880   3.445  0.4715 -1.3421 -1.8509
   27MOL0     H 3642  -0.110   5.015   3.320 -1.6114  1.1136  1.0720
   27MOL0     H 3643   0.126   5.145   3.503  0.2637 -1.2043  1.3550
   27MOL0     H 3644   0.096   4.996   3.424  2.9487 -1.3376 -3.0039
   27MOL0     H 3645   0.231   5.088   3.364 -0.5666 -2.7536 -0.8401
   28MOL0     O 3646   8.204   9.541   9.506  0.1413  0.6570  0.4293
   28MOL0     C 3647   8.235   9.450   9.423  0.0612 -0.5031 -0.1878
   28MOL0     O 3648   8.361   9.431   9.369  0.0362 -0.0584 -0.4503
   28MOL0     C 3649   8.468   9.489   9.433  0.0730  0.3475 -0.0903
   28MOL0     C 3650   8.495   9.627   9.407 -0.4380  0.3399  0.8872
   28MOL0     C 3651   8.607   9.691   9.463 -0.3710 -0.4983 -0.6524
   28MOL0     C 3652   8.696   9.621   9.540 -0.0545  0.1090  0.0434
   28MOL0     O 3653   8.804   9.688   9.597 -0.3304  0.3667  0.1324
   28MOL0     C 3654   8.932   9.635   9.574  0.3118 -0.8879  0.5565
   28MOL0     C 3655   9.021   9.754   9.612  0.5840  0.0615  0.1079
   28MOL0     C 3656   9.170   9.724   9.617  0.4588  0.1872  0.1859
   28MOL0     C 3657   9.256   9.854   9.648  0.4545  0.6343 -0.1145
   28MOL0     C 3658   9.307   9.841   9.796  0.4234 -0.2227  0.8230
   28MOL0     C 3659   9.392   9.707   9.825 -0.5092 -0.9405 -0.1055
   28MOL0     C 3660   9.444   9.728   9.962 -0.8906  0.0444 -0.1597
   28MOL0     C 3661   9.601   9.709   9.969  0.3253 -0.1618 -0.5377
   28MOL0     N 3662   9.654   9.746  10.106 -0.0352 -0.5409  0.5214
   28MOL0     C 3663   9.698   9.663  10.207  0.2138  0.5746 -0.2189
   28MOL0     C 3664   9.725   9.749  10.311 -1.1994 -1.1897 -0.2844
   28MOL0     C 3665   9.790   9.716  10.438  0.0548  0.0543  0.6626
   28MOL0     C 3666   9.776   9.570  10.484  0.0860 -0.0905 -0.3629
   28MOL0     C 3667   9.841   9.564  10.625  0.7371 -0.1441 -0.4481
   28MOL0     C 3668   9.995   9.543  10.627 -0.0094 -0.2640 -0.2552
   28MOL0     O 3669  10.033   9.452  10.523 -0.1444 -0.0620 -0.1588
   28MOL0     C 3670  10.149   9.392  10.535 -0.5817 -0.1158  0.7183
   28MOL0     C 3671  10.267   9.449  10.599  0.8345 -0.5110 -0.0849
   28MOL0     C 3672  10.392   9.380  10.588 -0.7563 -0.4092 -0.1625
   28MOL0     C 3673  10.403   9.261  10.518 -0.0268 -0.1688 -0.7537
   28MOL0     C 3674  10.528   9.179  10.520 -0.3989 -0.7796 -0.4686
   28MOL0     O 3675  10.644   9.234  10.564 -0.5118  0.2932 -0.1511
   28MOL0     C 3676  10.741   9.155  10.621 -0.3158  0.8647 -0.0883
   28MOL0     C 3677  10.873   9.189  10.593 -0.4162 -0.4781 -0.0600
   28MOL0     C 3678  10.981   9.115  10.643  0.8323  0.2719  0.6316
   28MOL0     C 3679  10.960   9.003  10.723  1.1808 -0.0613 -0.0352
   28MOL0     O 3680  11.052   8.925  10.786  0.2799  0.7114  0.4032
   28MOL0     C 3681  11.190   8.948  10.750  0.0138  0.7665  0.5483
   28MOL0     C 3682  11.293   8.848  10.800  0.3559 -0.4250 -0.0397
   28MOL0     C 3683  11.423   8.836  10.718  0.0391 -0.2002  0.1501
   28MOL0     C 3684  11.541   8.772  10.798  0.6985  0.1880 -0.0015
   28MOL0     C 3685  11.676   8.820  10.739  0.6565 -0.2149  0.7646
   28MOL0     C 3686  11.784   8.744  10.813  0.6752  0.2169 -0.0524
   28MOL0     C 3687  11.925   8.787  10.783  1.3108  1.1253  0.0723
   28MOL0     C 3688  12.023   8.691  10.846  0.0441 -0.6199 -0.8543
   28MOL0    Cl 3689  12.189   8.740  10.819 -0.2669  0.3860 -0.0011
   28MOL0     C 3690  10.831   8.966  10.750  0.2760  0.5109 -0.5642
   28MOL0     C 3691  10.719   9.039  10.696  0.8321 -0.0346 -0.6480
   28MOL0     O 3692  10.524   9.062  10.478  0.1498 -0.1062 -0.5825
   28MOL0     C 3693  10.284   9.206  10.460 -1.2865 -0.4561  0.6106
   28MOL0     C 3694  10.162   9.275  10.463 -0.5315  0.4548 -0.1801
   28MOL0     N 3695   9.698   9.878  10.276  0.4960 -0.1546  0.6281
   28MOL0     N 3696   9.644   9.877  10.156 -0.3500  0.4126  0.8278
   28MOL0     C 3697   8.679   9.486   9.552  0.8496 -0.0188  0.8278
   28MOL0     C 3698   8.567   9.421   9.498 -0.3140  0.4959  1.0041
   28MOL0     C 3699   8.120   9.361   9.389 -0.4445  1.0942 -1.2162
   28MOL0     C 3700   7.984   9.407   9.403 -0.3844  0.1867 -0.3064
   28MOL0     C 3701   7.880   9.316   9.385 -0.3703 -0.4663 -0.8679
   28MOL0     C 3702   7.905   9.194   9.330  0.7913  1.1444 -0.5880
   28MOL0     O 3703   7.805   9.102   9.295 -0.0390  0.0441  0.0743
   28MOL0     C 3704   7.667   9.137   9.293  0.4329  0.9351  0.1799
   28MOL0     C 3705   7.570   9.023   9.297  0.9183  0.7483  0.2464
   28MOL0     C 3706   7.430   9.068   9.318 -0.3857  0.7532 -0.3349
   28MOL0     C 3707   7.322   8.956   9.308 -0.1101 -0.0486 -0.5885
   28MOL0     C 3708   7.196   9.027   9.284 -0.0536  0.2749 -0.5703
   28MOL0     C 3709   7.099   9.092   9.252 -0.9240 -0.0740  0.3583
   28MOL0     C 3710   8.037   9.153   9.302  0.0087  0.3106  0.8176
   28MOL0     C 3711   8.146   9.233   9.327  0.1366  0.3910  0.0612
   28MOL0     C 3712   8.278   9.178   9.291  0.1230 -0.2100  0.1700
   28MOL0     H 3713   8.421   9.681   9.348  0.9728  0.9208 -0.4102
   28MOL0     H 3714   8.611   9.798   9.448 -1.3988 -0.7420 -3.2514
   28MOL0     H 3715   8.953   9.549   9.638  0.7972 -0.5639  0.8376
   28MOL0     H 3716   8.962   9.601   9.474  1.6566 -0.2470  0.7160
   28MOL0     H 3717   8.999   9.783   9.715  4.6234 -0.2186  1.2173
   28MOL0     H 3718   8.993   9.837   9.545 -0.1654 -0.4457 -0.2155
   28MOL0     H 3719   9.198   9.677   9.522 -1.8080  4.0845 -2.7072
   28MOL0     H 3720   9.161   9.656   9.702 -0.6740  0.5091  0.3404
   28MOL0     H 3721   9.341   9.852   9.580  1.8377 -3.1125  1.4033
   28MOL0     H 3722   9.194   9.942   9.632  0.0061  0.2951 -0.2935
   28MOL0     H 3723   9.365   9.930   9.819 -2.1713  2.0204 -0.7637
   28MOL0     H 3724   9.222   9.834   9.865 -2.3278 -0.5687 -2.3610
   28MOL0     H 3725   9.320   9.625   9.824  0.6659 -2.0066 -0.8490
   28MOL0     H 3726   9.469   9.686   9.750 -1.1436 -0.5485 -0.8802
   28MOL0     H 3727   9.399   9.648  10.021 -0.0091 -0.4210 -0.0874
   28MOL0     H 3728   9.422   9.827  10.002  0.5652  0.0044  0.8242
   28MOL0     H 3729   9.625   9.609   9.932  0.3785 -0.4349  0.2070
   28MOL0     H 3730   9.643   9.766   9.886 -0.9441 -0.0686 -1.1290
   28MOL0     H 3731   9.727   9.559  10.207  0.4066  0.6118 -1.8689
   28MOL0     H 3732   9.895   9.745  10.423 -0.5149  1.4905 -0.8258
   28MOL0     H 3733   9.752   9.784  10.514  0.4461  0.8784  0.1427
   28MOL0     H 3734   9.669   9.546  10.494  0.0683  0.8915  2.9783
   28MOL0     H 3735   9.829   9.505  10.414  2.0579  1.1614 -0.0900
   28MOL0     H 3736   9.800   9.476  10.676 -2.0425  0.6485 -1.1665
   28MOL0     H 3737   9.804   9.643  10.691 -0.5920 -0.5850 -0.6345
   28MOL0     H 3738  10.023   9.504  10.725  1.6473  1.4678  0.0178
   28MOL0     H 3739  10.041   9.642  10.623 -1.0864  0.2108 -2.6869
   28MOL0     H 3740  10.248   9.542  10.650  1.1535  0.1340 -1.0967
   28MOL0     H 3741  10.482   9.420  10.635 -1.6504  0.4032  0.9160
   28MOL0     H 3742  10.895   9.275  10.531 -0.3324 -2.4720 -3.0146
   28MOL0     H 3743  11.081   9.144  10.613  0.5790  1.2634  0.7001
   28MOL0     H 3744  11.201   8.954  10.641 -0.8294  0.9763  0.4709
   28MOL0     H 3745  11.218   9.041  10.801 -2.0998  0.2797  2.8023
   28MOL0     H 3746  11.314   8.871  10.905  1.7004 -3.6599  0.5373
   28MOL0     H 3747  11.241   8.751  10.804 -1.3148  0.4605  2.4474
   28MOL0     H 3748  11.400   8.787  10.623 -1.8231 -0.1454  0.5348
   28MOL0     H 3749  11.467   8.933  10.695  3.2767 -1.2758  1.2164
   28MOL0     H 3750  11.530   8.664  10.800  2.2958 -0.0293  3.0388
   28MOL0     H 3751  11.544   8.806  10.902  0.8168  2.4909 -0.6995
   28MOL0     H 3752  11.681   8.929  10.753 -2.3265  0.0418  0.4304
   28MOL0     H 3753  11.681   8.804  10.631 -1.3668  4.7778 -0.3371
   28MOL0     H 3754  11.770   8.755  10.921  0.9840  0.7399 -0.0629
   28MOL0     H 3755  11.777   8.637  10.789  1.1933 -0.3923  2.2458
   28MOL0     H 3756  11.941   8.891  10.813 -3.4493  1.6876  1.4943
   28MOL0     H 3757  11.938   8.788  10.675 -1.9700 -0.1148 -0.4532
   28MOL0     H 3758  12.011   8.698  10.955  2.6447 -1.3076 -0.4714
   28MOL0     H 3759  12.009   8.592  10.801 -0.8931 -0.1635 -1.6054
   28MOL0     H 3760  10.793   8.880  10.805  2.2330  0.3049  0.5465
   28MOL0     H 3761  10.619   9.011  10.726  1.4769 -0.7447  0.9490
   28MOL0     H 3762  10.300   9.115  10.404  1.1155  1.5401 -2.2939
   28MOL0     H 3763  10.083   9.246  10.395  1.7203 -1.8558 -2.0334
   28MOL0     H 3764   8.747   9.422   9.607  0.1829 -0.6014  0.9947
   28MOL0     H 3765   8.581   9.316   9.520  2.7727  0.2424 -1.4246
   28MOL0     H 3766   7.972   9.497   9.462  2.6488 -0.3067  1.2834
   28MOL0     H 3767   7.787   9.340   9.435  0.7974  2.1511  0.2648
   28MOL0     H 3768   7.648   9.195   9.203 -0.5649  0.0609 -0.1917
   28MOL0     H 3769   7.647   9.202   9.379  2.8820  0.3976  1.2354
   28MOL0     H 3770   7.594   8.951   9.376  1.5352  1.6042  0.8676
   28MOL0     H 3771   7.588   8.978   9.199  0.1899 -2.9928  1.6903
   28MOL0     H 3772   7.403   9.135   9.236 -0.3050 -0.8373 -1.6938
   28MOL0     H 3773   7.444   9.106   9.420  0.4370  1.8823 -0.8552
   28MOL0     H 3774   7.339   8.891   9.222 -1.9249 -0.8790 -0.3748
   28MOL0     H 3775   7.332   8.893   9.398 -2.2390 -1.0017 -0.9399
   28MOL0     H 3776   7.019   9.153   9.216 -1.8379 -1.9015 -0.8110
   28MOL0     H 3777   8.042   9.053   9.258  3.3358  0.4864  0.5750
   28MOL0     H 3778   8.328   9.231   9.210 -1.2459  0.1904 -0.4526
   28MOL0     H 3779   8.334   9.194   9.383 -1.3591 -1.4050  1.3440
   28MOL0     H 3780   8.281   9.070   9.272  2.1280 -0.8418  3.4277
   29MOL0     O 3781   5.664   0.813   5.401 -0.3164  0.2729  0.1615
   29MOL0     C 3782   5.605   0.919   5.393  0.0565  0.3393 -0.1939
   29MOL0     O 3783   5.659   1.037   5.332  0.2321 -0.2576 -0.3501
   29MOL0     C 3784   5.786   1.019   5.285 -0.4114 -0.0599 -0.1668
   29MOL0     C 3785   5.886   1.081   5.357 -0.3413  0.0955  0.1336
   29MOL0     C 3786   6.018   1.067   5.317 -0.4423 -0.2030  0.6986
   29MOL0     C 3787   6.054   0.985   5.209  0.8264 -0.4204  0.1058
   29MOL0     O 3788   6.181   0.970   5.168 -0.4414  0.6090 -0.0364
   29MOL0     C 3789   6.273   1.083   5.181  0.3902 -0.1142 -0.6079
   29MOL0     C 3790   6.408   1.031   5.128  0.1881  0.1915  0.1607
   29MOL0     C 3791   6.518   1.131   5.148 -0.6061  0.4182 -0.2414
   29MOL0     C 3792   6.639   1.092   5.066 -0.8052  0.0258  0.5864
   29MOL0     C 3793   6.767   1.153   5.131 -0.6502  0.7126  0.3480
   29MOL0     C 3794   6.886   1.061   5.084  0.3351 -1.6089 -0.2333
   29MOL0     C 3795   7.013   1.114   5.149 -0.5948 -0.1381 -0.0212
   29MOL0     C 3796   7.142   1.045   5.111  1.0693 -0.3553  0.3645
   29MOL0     N 3797   7.265   1.089   5.179 -0.3145 -0.2682 -0.1083
   29MOL0     C 3798   7.362   1.162   5.117 -0.5951  0.3312  0.2342
   29MOL0     C 3799   7.463   1.181   5.213  0.3455  0.0292  0.0444
   29MOL0     C 3800   7.595   1.253   5.210  0.0755 -0.2539  0.4242
   29MOL0     C 3801   7.572   1.375   5.293 -0.4275  0.1404  0.4843
   29MOL0     C 3802   7.695   1.467   5.313 -0.2449  0.3603  0.0795
   29MOL0     C 3803   7.660   1.589   5.404 -0.0171 -0.7380  0.5742
   29MOL0     O 3804   7.556   1.669   5.360  0.0079  0.5845  0.5526
   29MOL0     C 3805   7.491   1.765   5.444 -0.3405  0.7268  0.5879
   29MOL0     C 3806   7.562   1.828   5.547  0.3082 -0.6665  0.1425
   29MOL0     C 3807   7.501   1.910   5.633  0.9855 -0.1101 -0.3151
   29MOL0     C 3808   7.362   1.933   5.624 -0.9667  0.1228 -0.2638
   29MOL0     C 3809   7.285   2.024   5.714  0.2461  0.6601  0.4203
   29MOL0     O 3810   7.157   2.067   5.672 -0.2412  0.5187  0.2751
   29MOL0     C 3811   7.063   2.124   5.750  0.1861 -0.3391 -1.1053
   29MOL0     C 3812   6.956   2.201   5.691 -0.8430  0.0741  0.2498
   29MOL0     C 3813   6.848   2.245   5.766 -0.1758  1.0330 -0.6118
   29MOL0     C 3814   6.851   2.231   5.908  0.1091  0.3317 -0.6584
   29MOL0     O 3815   6.757   2.277   5.997 -0.0798  0.1225  0.2484
   29MOL0     C 3816   6.622   2.265   5.948  0.1077  0.4074 -0.6209
   29MOL0     C 3817   6.518   2.315   6.053 -0.7911  1.1609 -0.6157
   29MOL0     C 3818   6.381   2.251   6.034 -0.6876  0.0116  0.0078
   29MOL0     C 3819   6.265   2.324   6.096  0.0417  0.2677  0.4330
   29MOL0     C 3820   6.133   2.243   6.089 -0.0603 -0.4744 -0.2746
   29MOL0     C 3821   6.032   2.324   6.166  0.8936 -0.2485 -0.5874
   29MOL0     C 3822   5.884   2.283   6.173  0.1587  0.2048  0.2382
   29MOL0     C 3823   5.804   2.354   6.270  0.1851 -0.3379 -0.1929
   29MOL0    Cl 3824   5.635   2.382   6.244 -0.3737 -0.1533  0.1962
   29MOL0     C 3825   6.960   2.158   5.972 -0.3190 -0.1102 -0.1244
   29MOL0     C 3826   7.054   2.104   5.889 -0.5040 -1.1132  0.2203
   29MOL0     O 3827   7.345   2.044   5.823 -0.1945  0.6314  0.6210
   29MOL0     C 3828   7.298   1.876   5.518  0.6923  0.0655  0.5652
   29MOL0     C 3829   7.361   1.801   5.420 -0.0355 -0.1987  0.0922
   29MOL0     N 3830   7.417   1.110   5.320  0.0031 -0.3349 -0.7927
   29MOL0     N 3831   7.304   1.056   5.304 -0.7605 -0.1202 -0.0707
   29MOL0     C 3832   5.946   0.917   5.131  0.2775  0.0763 -0.3693
   29MOL0     C 3833   5.817   0.937   5.168  0.7812 -0.6955 -0.0728
   29MOL0     C 3834   5.482   0.937   5.466 -0.8557 -0.3737 -0.7345
   29MOL0     C 3835   5.368   0.980   5.399 -0.1887 -0.2872 -0.2408
   29MOL0     C 3836   5.248   1.009   5.464  0.4196 -0.6140  0.4739
   29MOL0     C 3837   5.239   0.993   5.604 -0.0155  0.1412  0.9497
   29MOL0     O 3838   5.125   1.007   5.676  0.4718  0.1841 -0.0589
   29MOL0     C 3839   4.994   1.035   5.610 -0.8026 -0.9004 -0.4325
   29MOL0     C 3840   4.957   1.181   5.576  0.4760 -0.4069  0.0836
   29MOL0     C 3841   4.978   1.262   5.696 -0.5424 -0.2737  0.3491
   29MOL0     C 3842   4.957   1.411   5.662  0.0974  0.5266 -0.0474
   29MOL0     C 3843   4.811   1.439   5.649 -0.0709 -0.3672 -0.0485
   29MOL0     C 3844   4.691   1.452   5.624 -0.1420 -0.8238  1.3797
   29MOL0     C 3845   5.356   0.949   5.668 -0.6428 -1.0914  0.3000
   29MOL0     C 3846   5.480   0.925   5.603  0.1629 -0.4025 -0.7223
   29MOL0     C 3847   5.598   0.884   5.680 -0.4272  0.9414 -0.0194
   29MOL0     H 3848   5.855   1.144   5.440 -2.0248  0.8104 -0.9868
   29MOL0     H 3849   6.094   1.127   5.366  1.2741 -1.0849 -0.7933
   29MOL0     H 3850   6.237   1.168   5.124 -0.9947  0.5751  1.1687
   29MOL0     H 3851   6.287   1.105   5.287 -1.0539  1.3507 -0.6897
   29MOL0     H 3852   6.408   1.013   5.020  0.8197 -3.7840  0.6789
   29MOL0     H 3853   6.447   0.942   5.179 -0.3775 -0.4309 -0.4773
   29MOL0     H 3854   6.545   1.138   5.254 -1.3617  1.3926 -0.0963
   29MOL0     H 3855   6.490   1.236   5.135  0.0352  1.5384  5.0758
   29MOL0     H 3856   6.645   0.984   5.051 -0.5611  0.2315 -0.9733
   29MOL0     H 3857   6.631   1.136   4.966  1.6149  1.1436  0.8156
   29MOL0     H 3858   6.782   1.258   5.105 -1.3387  1.1233  1.5228
   29MOL0     H 3859   6.768   1.148   5.240 -0.6768  0.0732  0.3258
   29MOL0     H 3860   6.876   0.961   5.127  1.5616 -2.3429 -1.5667
   29MOL0     H 3861   6.894   1.046   4.976 -2.9122 -0.4624 -0.7546
   29MOL0     H 3862   6.996   1.097   5.256 -1.0729 -0.4812 -0.1485
   29MOL0     H 3863   7.028   1.221   5.133  1.8589 -0.2602  0.9414
   29MOL0     H 3864   7.125   0.938   5.129 -1.0695  0.1022  1.3162
   29MOL0     H 3865   7.151   1.058   5.003  0.1237  1.2300  0.4478
   29MOL0     H 3866   7.347   1.211   5.021  0.4032  0.0973 -0.0588
   29MOL0     H 3867   7.679   1.196   5.250  1.7294  0.9970 -1.1131
   29MOL0     H 3868   7.627   1.272   5.107  1.3018  4.8027  1.4466
   29MOL0     H 3869   7.498   1.443   5.248  0.1183  2.1120  2.3718
   29MOL0     H 3870   7.542   1.336   5.390  3.0415 -1.8575  0.9057
   29MOL0     H 3871   7.728   1.503   5.215 -1.2145 -0.5003 -0.5773
   29MOL0     H 3872   7.777   1.414   5.363  0.0551  2.0114  1.4477
   29MOL0     H 3873   7.746   1.655   5.414 -0.8284  0.1179  2.2282
   29MOL0     H 3874   7.635   1.557   5.506  0.4857 -2.0957  0.3040
   29MOL0     H 3875   7.666   1.803   5.568 -0.2378 -1.6017  2.0406
   29MOL0     H 3876   7.547   1.956   5.720 -1.4716  0.6281  0.6597
   29MOL0     H 3877   6.963   2.223   5.586  2.5674  2.8074  0.8764
   29MOL0     H 3878   6.768   2.298   5.715 -0.4592 -1.0908 -2.5405
   29MOL0     H 3879   6.618   2.312   5.850  2.3617 -1.2228 -1.5686
   29MOL0     H 3880   6.601   2.159   5.932 -0.6748  0.2369  1.2423
   29MOL0     H 3881   6.563   2.276   6.144 -1.4499  0.3582 -0.6219
   29MOL0     H 3882   6.509   2.424   6.055 -3.6657  1.0820 -2.2442
   29MOL0     H 3883   6.373   2.245   5.925  3.1826 -2.7982 -0.3363
   29MOL0     H 3884   6.374   2.150   6.074  0.0360 -0.9577 -2.1864
   29MOL0     H 3885   6.253   2.425   6.054 -0.2275 -1.0180 -2.8680
   29MOL0     H 3886   6.298   2.331   6.200 -0.6666 -0.1509  0.6895
   29MOL0     H 3887   6.146   2.145   6.134  2.9347 -0.2315 -0.4000
   29MOL0     H 3888   6.097   2.246   5.985  0.3929  0.0471 -0.4227
   29MOL0     H 3889   6.062   2.339   6.270  1.8685  0.7078 -0.9828
   29MOL0     H 3890   6.025   2.425   6.125 -1.7883  0.4140  1.2337
   29MOL0     H 3891   5.868   2.177   6.195 -0.8105  0.5098  1.0764
   29MOL0     H 3892   5.828   2.305   6.081  0.0140 -3.5912 -0.7186
   29MOL0     H 3893   5.808   2.302   6.366 -0.9305 -0.4837 -0.2042
   29MOL0     H 3894   5.834   2.459   6.279  1.9821 -0.5951 -2.3422
   29MOL0     H 3895   6.969   2.156   6.080  0.4985 -1.6614 -0.1926
   29MOL0     H 3896   7.132   2.042   5.931 -1.7448 -1.9342  1.3858
   29MOL0     H 3897   7.191   1.891   5.508  0.7888 -0.0253 -0.8618
   29MOL0     H 3898   7.306   1.756   5.338  1.0626  0.6990 -1.1720
   29MOL0     H 3899   5.981   0.843   5.059  0.2596 -2.3065  1.9308
   29MOL0     H 3900   5.742   0.876   5.119 -0.8500  1.2552 -0.1459
   29MOL0     H 3901   5.363   0.985   5.291 -0.3028  1.2800 -0.1861
   29MOL0     H 3902   5.167   1.045   5.400 -0.8201 -0.1375  2.2375
   29MOL0     H 3903   4.918   0.999   5.680 -1.3902  0.5895 -0.2615
   29MOL0     H 3904   5.003   0.975   5.519  0.6464 -0.5676 -0.5250
   29MOL0     H 3905   4.853   1.179   5.542  0.6260  1.7204 -0.6908
   29MOL0     H 3906   5.023   1.216   5.496  1.6023 -1.4358  0.5413
   29MOL0     H 3907   5.080   1.244   5.731  1.2124  0.7402 -3.6842
   29MOL0     H 3908   4.907   1.225   5.771  0.6489 -0.0807  1.6234
   29MOL0     H 3909   4.997   1.476   5.740  0.9588  0.9884 -0.8581
   29MOL0     H 3910   5.013   1.436   5.572 -0.1576 -0.1991 -0.4125
   29MOL0     H 3911   4.591   1.458   5.586 -0.7278  3.0071  3.0774
   29MOL0     H 3912   5.345   0.932   5.775 -0.5462  0.0404  0.4966
   29MOL0     H 3913   5.580   0.900   5.786 -1.7074  0.2408 -0.1172
   29MOL0     H 3914   5.629   0.780   5.663 -0.8896  0.5011  1.6654
   29MOL0     H 3915   5.682   0.954   5.667 -0.4472  0.9965  0.1546
   30MOL0     O 3916   1.319   7.744   3.952 -0.2159 -0.2206  0.1980
   30MOL0     C 3917   1.356   7.698   4.060  0.5876 -0.4883  0.1797
   30MOL0     O 3918   1.477   7.669   4.099 -0.5191  0.0870  0.2827
   30MOL0     C 3919   1.581   7.712   4.020  0.8496 -0.4223  0.7007
   30MOL0     C 3920   1.634   7.838   4.027 -0.0952  0.1558 -0.8123
   30MOL0     C 3921   1.731   7.878   3.929 -0.4261  0.5358 -0.5522
   30MOL0     C 3922   1.779   7.788   3.835 -0.0638 -0.6491  0.3219
   30MOL0     O 3923   1.876   7.822   3.746 -0.1424 -0.1245  0.2173
   30MOL0     C 3924   1.948   7.736   3.659 -0.2166 -0.6680 -0.1886
   30MOL0     C 3925   2.004   7.818   3.544 -0.3498  0.1273  0.6111
   30MOL0     C 3926   2.090   7.927   3.589  0.6479  0.3056  0.5139
   30MOL0     C 3927   2.195   7.970   3.482 -0.0242  0.3251 -0.2792
   30MOL0     C 3928   2.256   8.110   3.501  0.3459 -0.4047 -0.0105
   30MOL0     C 3929   2.407   8.105   3.486  0.0488  0.9317 -0.1969
   30MOL0     C 3930   2.458   8.243   3.501 -0.3328  0.6185 -0.1535
   30MOL0     C 3931   2.577   8.265   3.403  0.0727  0.0613  0.1778
   30MOL0     N 3932   2.633   8.400   3.432 -0.4343  0.0991 -0.0610
   30MOL0     C 3933   2.584   8.521   3.390  0.1520 -0.4492 -0.1625
   30MOL0     C 3934   2.695   8.600   3.388  0.8976 -0.0794 -0.3128
   30MOL0     C 3935   2.684   8.740   3.323 -0.6087 -0.0735  0.7884
   30MOL0     C 3936   2.814   8.824   3.351 -0.3316  1.0368  0.4021
   30MOL0     C 3937   2.788   8.963   3.290  0.2512 -0.4581 -0.8391
   30MOL0     C 3938   2.924   9.043   3.289  0.0776  0.0481  0.1933
   30MOL0     O 3939   3.019   8.994   3.188  0.4305 -0.2318  0.0912
   30MOL0     C 3940   3.133   9.059   3.169 -0.0549 -0.9954 -0.9223
   30MOL0     C 3941   3.224   8.984   3.090 -0.1131 -0.1929 -0.3784
   30MOL0     C 3942   3.356   9.033   3.047  0.0350 -0.2333  0.3080
   30MOL0     C 3943   3.396   9.159   3.101  0.6215 -0.0897  0.2734
   30MOL0     C 3944   3.537   9.214   3.081  0.1685 -0.5463  0.3663
   30MOL0     O 3945   3.609   9.134   3.000  0.1070 -0.4449 -0.8722
   30MOL0     C 3946   3.750   9.145   2.988 -0.1182 -0.5226 -0.1681
   30MOL0     C 3947   3.824   9.035   2.997 -0.4658  0.2879  0.1226
   30MOL0     C 3948   3.971   9.037   2.986  0.4212 -0.6354 -0.8190
   30MOL0     C 3949   4.040   9.158   2.958  0.6865  0.1409  0.5921
   30MOL0     O 3950   4.169   9.180   2.934  0.1924 -0.3954  0.4315
   30MOL0     C 3951   4.264   9.135   3.036  0.0021 -0.3137 -0.0861
   30MOL0     C 3952   4.401   9.202   3.036  0.1367  0.2616  0.0752
   30MOL0     C 3953   4.390   9.343   3.081  0.7171 -1.3803 -0.0775
   30MOL0     C 3954   4.514   9.421   3.089 -0.4295 -0.4875 -0.4497
   30MOL0     C 3955   4.487   9.558   3.153 -0.3764  0.0603  0.2680
   30MOL0     C 3956   4.614   9.648   3.128  0.1824  0.6313 -0.3923
   30MOL0     C 3957   4.567   9.786   3.084  0.1666 -0.0959  0.5404
   30MOL0     C 3958   4.695   9.865   3.035  0.1771  0.7693  0.1330
   30MOL0    Cl 3959   4.635  10.036   2.998 -0.0973  0.1477 -0.0266
   30MOL0     C 3960   3.955   9.269   2.941  0.4445  0.0449  0.3936
   30MOL0     C 3961   3.815   9.265   2.963  0.1555 -0.0874 -0.1977
   30MOL0     O 3962   3.573   9.315   3.141 -0.6529  0.1556 -0.5560
   30MOL0     C 3963   3.305   9.229   3.187  0.1539  0.6807  0.6081
   30MOL0     C 3964   3.171   9.186   3.214  0.5250 -0.7297  0.4672
   30MOL0     N 3965   2.805   8.540   3.443  0.5553  0.1658 -0.3937
   30MOL0     N 3966   2.763   8.419   3.472 -0.6843  0.7961  0.3152
   30MOL0     C 3967   1.715   7.662   3.828 -0.5843 -0.5150 -0.3822
   30MOL0     C 3968   1.628   7.622   3.926  0.2433  0.5992 -0.0729
   30MOL0     C 3969   1.261   7.644   4.151  0.8183  0.0252 -0.2036
   30MOL0     C 3970   1.259   7.717   4.272  0.7791  0.4786 -0.3696
   30MOL0     C 3971   1.183   7.654   4.369 -0.0594  0.3553 -0.2702
   30MOL0     C 3972   1.105   7.543   4.348  0.5875 -0.1670  0.1427
   30MOL0     O 3973   1.017   7.507   4.441  0.1780  0.2043  1.3012
   30MOL0     C 3974   1.068   7.417   4.548  0.2688  0.4129  0.5877
   30MOL0     C 3975   1.059   7.264   4.515  0.8366  0.3428  0.1305
   30MOL0     C 3976   0.923   7.197   4.536 -0.5165 -0.0009 -0.0582
   30MOL0     C 3977   0.933   7.047   4.524  0.7512  0.5821  1.2311
   30MOL0     C 3978   0.809   6.970   4.527 -0.2971 -0.0961  0.0671
   30MOL0     C 3979   0.721   6.888   4.510  0.2425  0.5109  0.5950
   30MOL0     C 3980   1.095   7.495   4.230 -0.0266  0.0367  0.6024
   30MOL0     C 3981   1.177   7.538   4.122 -0.2325 -0.3663  0.2909
   30MOL0     C 3982   1.184   7.455   3.998 -0.4346 -0.1018  0.5187
   30MOL0     H 3983   1.590   7.908   4.097 -1.9919 -1.6026 -0.1308
   30MOL0     H 3984   1.759   7.982   3.919  3.0063 -0.4126 -2.0735
   30MOL0     H 3985   2.022   7.682   3.719  0.9137  1.8442  0.8145
   30MOL0     H 3986   1.883   7.672   3.599 -0.9161  0.3392 -0.5419
   30MOL0     H 3987   1.922   7.837   3.474  0.4648 -0.6962 -0.6045
   30MOL0     H 3988   2.068   7.754   3.483 -1.4735 -0.9725  0.5342
   30MOL0     H 3989   2.148   7.903   3.679 -0.1950  0.2168  1.0477
   30MOL0     H 3990   2.028   8.017   3.596  0.3733  0.1380  0.2405
   30MOL0     H 3991   2.273   7.892   3.482 -0.8422 -0.7053  3.5309
   30MOL0     H 3992   2.143   7.969   3.386  1.1212  0.6250 -0.9253
   30MOL0     H 3993   2.214   8.180   3.429  1.4108 -1.0495 -1.3082
   30MOL0     H 3994   2.239   8.152   3.601  1.5936 -1.5092  0.7078
   30MOL0     H 3995   2.451   8.047   3.567  0.7396 -0.3211 -1.4131
   30MOL0     H 3996   2.435   8.055   3.393 -2.3971 -0.2433 -0.3736
   30MOL0     H 3997   2.498   8.256   3.602  0.1228 -0.3654 -0.1903
   30MOL0     H 3998   2.377   8.313   3.478 -0.4775  0.7545  0.7624
   30MOL0     H 3999   2.656   8.190   3.408 -0.3005 -0.6270 -2.3955
   30MOL0     H 4000   2.543   8.264   3.299  0.7022 -1.4069 -0.0384
   30MOL0     H 4001   2.483   8.540   3.355 -0.2316 -0.6916  0.7825
   30MOL0     H 4002   2.667   8.731   3.216  1.0842  0.7166  0.4225
   30MOL0     H 4003   2.595   8.786   3.367  0.6587  0.7822  2.6018
   30MOL0     H 4004   2.835   8.826   3.458 -0.6929 -3.1889  0.7221
   30MOL0     H 4005   2.899   8.775   3.303 -0.3440  1.1152  0.2986
   30MOL0     H 4006   2.716   9.015   3.355 -0.4504 -1.3902 -0.8526
   30MOL0     H 4007   2.746   8.961   3.189  0.9380 -0.6156 -1.1263
   30MOL0     H 4008   2.967   9.025   3.388  1.4440 -2.5299 -0.7628
   30MOL0     H 4009   2.914   9.146   3.256  1.2465  0.7670  1.9245
   30MOL0     H 4010   3.173   8.896   3.051 -0.7894 -0.3863  0.8862
   30MOL0     H 4011   3.415   8.978   2.974 -0.0959  1.1489 -0.8885
   30MOL0     H 4012   3.763   8.948   3.021 -0.4177  0.4608  0.9103
   30MOL0     H 4013   4.022   8.941   2.990 -0.9692 -1.3896 -0.8189
   30MOL0     H 4014   4.216   9.145   3.135 -0.4514  3.2770 -0.5098
   30MOL0     H 4015   4.276   9.031   3.008  1.1242  0.1472 -1.3884
   30MOL0     H 4016   4.470   9.147   3.101 -0.7177 -1.3058 -0.2808
   30MOL0     H 4017   4.451   9.189   2.940 -2.2473 -3.9467 -0.8579
   30MOL0     H 4018   4.319   9.399   3.020  0.6348  0.4968  1.6213
   30MOL0     H 4019   4.343   9.340   3.180 -0.5589  3.3594 -0.3122
   30MOL0     H 4020   4.542   9.451   2.988  2.6384  0.6104  0.6002
   30MOL0     H 4021   4.599   9.369   3.134  0.6543 -1.2421 -3.2043
   30MOL0     H 4022   4.460   9.544   3.259  1.4318  0.6652  0.8416
   30MOL0     H 4023   4.397   9.598   3.105 -1.2586  0.5145  2.1676
   30MOL0     H 4024   4.662   9.659   3.225  1.9626  2.0494 -1.3648
   30MOL0     H 4025   4.682   9.594   3.062 -0.2104 -2.6046  1.6555
   30MOL0     H 4026   4.523   9.832   3.173  2.7374  1.4779  1.0914
   30MOL0     H 4027   4.497   9.782   2.999 -1.7069  0.5838  1.9903
   30MOL0     H 4028   4.765   9.876   3.118 -0.9465  1.7640  0.9861
   30MOL0     H 4029   4.737   9.817   2.946 -1.5417 -1.2660  0.3333
   30MOL0     H 4030   4.002   9.361   2.908 -0.8359  0.0798 -1.4594
   30MOL0     H 4031   3.746   9.349   2.959 -0.9191 -0.8888  0.7403
   30MOL0     H 4032   3.341   9.318   3.239 -0.9034  2.0538 -0.9191
   30MOL0     H 4033   3.103   9.257   3.261  0.9246  1.1029 -1.5379
   30MOL0     H 4034   1.745   7.589   3.754 -1.9795 -0.4028 -1.0926
   30MOL0     H 4035   1.593   7.519   3.934  0.9609  0.4238  0.9657
   30MOL0     H 4036   1.307   7.813   4.290  0.0421  0.6604  0.7345
   30MOL0     H 4037   1.174   7.698   4.468 -0.1795  0.8690 -0.5063
   30MOL0     H 4038   1.011   7.437   4.639 -1.2533  1.8523 -0.6073
   30MOL0     H 4039   1.174   7.431   4.572  0.1361 -1.4226  2.5008
   30MOL0     H 4040   1.136   7.215   4.575  0.9723  0.7275  0.2757
   30MOL0     H 4041   1.074   7.251   4.407 -2.4541  1.1741 -0.5362
   30MOL0     H 4042   0.861   7.232   4.452  1.6955 -1.7452 -2.5887
   30MOL0     H 4043   0.885   7.230   4.633 -2.4492  2.5627 -1.5306
   30MOL0     H 4044   0.989   7.027   4.432 -1.1869  1.1028 -0.1320
   30MOL0     H 4045   1.004   7.021   4.603  2.1874  2.0363  0.4597
   30MOL0     H 4046   0.643   6.816   4.495  0.1431  0.5386  0.9599
   30MOL0     H 4047   1.027   7.411   4.225  1.0931 -0.8712  0.0854
   30MOL0     H 4048   1.133   7.359   4.011 -1.6841  0.3877 -0.5104
   30MOL0     H 4049   1.121   7.507   3.925  0.3203 -0.6406 -0.5446
   30MOL0     H 4050   1.286   7.445   3.961 -0.3569  3.9057 -0.9066
   31MOL0     O 4051   9.645   4.039   4.679  0.2473 -0.1705  0.0225
   31MOL0     C 4052   9.553   4.043   4.595 -0.3531  0.3918  0.3080
   31MOL0     O 4053   9.575   4.064   4.459 -0.2648 -0.1703 -0.0117
   31MOL0     C 4054   9.702   4.040   4.401 -0.6511  0.0905 -0.3084
   31MOL0     C 4055   9.716   3.947   4.302  0.5590  0.1497 -1.2738
   31MOL0     C 4056   9.842   3.913   4.249  0.3306 -0.3808  0.6435
   31MOL0     C 4057   9.959   3.985   4.287 -0.2907  0.6392  0.1444
   31MOL0     O 4058  10.081   3.958   4.225  0.4848 -0.3708  0.0366
   31MOL0     C 4059  10.197   4.022   4.283  0.5827  0.1921  0.8809
   31MOL0     C 4060  10.314   3.972   4.208 -0.2925 -0.6486  0.0748
   31MOL0     C 4061  10.439   4.034   4.285  0.7465  0.6220 -0.0039
   31MOL0     C 4062  10.572   4.044   4.211  0.0102 -0.4321  0.3923
   31MOL0     C 4063  10.694   4.062   4.300 -0.1544 -0.3558 -0.3546
   31MOL0     C 4064  10.825   4.062   4.222  0.1944 -0.1620  1.1463
   31MOL0     C 4065  10.946   4.119   4.298 -0.1648 -0.2976  0.0457
   31MOL0     C 4066  11.070   4.086   4.217  0.1169  0.2907 -0.1062
   31MOL0     N 4067  11.173   4.173   4.254 -1.3883 -0.1794 -0.0835
   31MOL0     C 4068  11.279   4.137   4.333 -0.6576 -0.0026 -1.2097
   31MOL0     C 4069  11.353   4.252   4.345  0.6382 -0.5314 -0.1614
   31MOL0     C 4070  11.487   4.250   4.413 -0.2178 -0.1262  0.2245
   31MOL0     C 4071  11.582   4.301   4.299 -0.1332 -0.2583  0.5813
   31MOL0     C 4072  11.695   4.202   4.301 -0.4094  0.0939 -0.2740
   31MOL0     C 4073  11.789   4.220   4.186  0.1027  0.4795 -0.2192
   31MOL0     O 4074  11.848   4.346   4.186 -0.9902  0.7822  0.5224
   31MOL0     C 4075  11.983   4.359   4.174 -0.2688 -0.3048  0.2060
   31MOL0     C 4076  12.049   4.440   4.269  1.0035  0.1083  0.4751
   31MOL0     C 4077  12.188   4.455   4.268 -0.6578 -0.5667  0.3814
   31MOL0     C 4078  12.270   4.392   4.170 -0.3179 -0.2768  0.8173
   31MOL0     C 4079  12.417   4.396   4.167 -0.5327 -0.3885  0.5337
   31MOL0     O 4080  12.472   4.496   4.248  0.0058 -0.4108  0.3602
   31MOL0     C 4081  12.599   4.472   4.292 -1.1241 -0.5291 -0.0497
   31MOL0     C 4082  12.704   4.477   4.201 -0.2061 -0.5401  0.2099
   31MOL0     C 4083  12.837   4.438   4.238  1.2595 -1.0153 -0.2958
   31MOL0     C 4084  12.862   4.401   4.369 -0.5063  0.0300 -0.0110
   31MOL0     O 4085  12.984   4.358   4.411  0.3517  0.0588  0.1495
   31MOL0     C 4086  13.083   4.326   4.318 -0.1344  0.6697  1.0720
   31MOL0     C 4087  13.202   4.249   4.391 -0.7818  0.5285  0.9270
   31MOL0     C 4088  13.189   4.092   4.397 -0.1940 -0.0759  0.3250
   31MOL0     C 4089  13.146   4.036   4.253  0.9270 -0.9564  0.5158
   31MOL0     C 4090  13.189   3.891   4.213  0.3370  0.0994  0.3204
   31MOL0     C 4091  13.122   3.804   4.319  0.0313  0.6629  0.1289
   31MOL0     C 4092  13.162   3.655   4.295 -0.2445  0.2868 -0.1909
   31MOL0     C 4093  13.151   3.601   4.150  0.1016  0.1438  0.6435
   31MOL0    Cl 4094  12.979   3.619   4.081 -0.3088 -0.3990 -0.5615
   31MOL0     C 4095  12.764   4.428   4.466 -0.8343  0.3272  0.0288
   31MOL0     C 4096  12.636   4.457   4.429  0.3103  0.3676  0.3155
   31MOL0     O 4097  12.479   4.310   4.105 -0.4600 -0.4053  0.5108
   31MOL0     C 4098  12.198   4.318   4.074 -0.1727 -1.0054  0.0740
   31MOL0     C 4099  12.058   4.308   4.068  0.6508  0.2019 -0.5611
   31MOL0     N 4100  11.286   4.358   4.285  0.2688 -0.0443 -0.0390
   31MOL0     N 4101  11.181   4.308   4.230  0.3960  0.0166  0.3161
   31MOL0     C 4102   9.939   4.088   4.378  0.7732  0.9339 -0.3453
   31MOL0     C 4103   9.818   4.119   4.438  0.7547  0.2977  0.2041
   31MOL0     C 4104   9.410   4.063   4.635  0.1709 -0.0482 -0.7337
   31MOL0     C 4105   9.359   4.182   4.691 -0.2135  0.4345  0.5456
   31MOL0     C 4106   9.226   4.188   4.743 -0.0261  0.4387 -0.4955
   31MOL0     C 4107   9.140   4.078   4.734  0.9762  0.6164 -1.2895
   31MOL0     O 4108   9.015   4.069   4.791  0.2755 -0.1745  0.1624
   31MOL0     C 4109   8.968   4.186   4.868 -0.1609  0.3672  0.7244
   31MOL0     C 4110   8.832   4.152   4.939 -0.6104 -0.4946 -0.2563
   31MOL0     C 4111   8.722   4.111   4.838  0.2418  0.2327 -0.5659
   31MOL0     C 4112   8.581   4.097   4.900  0.6995 -0.8189  0.2231
   31MOL0     C 4113   8.547   4.224   4.970 -0.1206 -0.3757 -0.3716
   31MOL0     C 4114   8.521   4.325   5.034  0.3406 -0.5019  0.3058
   31MOL0     C 4115   9.192   3.967   4.676  0.2775  0.0295  0.2833
   31MOL0     C 4116   9.318   3.952   4.620  0.0495  0.5473  0.1379
   31MOL0     C 4117   9.360   3.830   4.542  0.0950 -0.0697 -1.3162
   31MOL0     H 4118   9.631   3.884   4.277  0.3356 -0.8083  1.5862
   31MOL0     H 4119   9.847   3.832   4.178 -0.8890  0.1943 -0.1435
   31MOL0     H 4120  10.183   4.130   4.270  1.6534  0.5735  2.6633
   31MOL0     H 4121  10.216   4.001   4.388  0.5320 -1.1479  0.6416
   31MOL0     H 4122  10.305   4.013   4.107 -0.1747  1.1341  0.7599
   31MOL0     H 4123  10.319   3.863   4.197  0.0976 -0.5426 -0.8866
   31MOL0     H 4124  10.464   3.977   4.375  2.1790  1.7404  0.3548
   31MOL0     H 4125  10.424   4.137   4.318 -1.8395  0.1173  0.6021
   31MOL0     H 4126  10.591   3.949   4.160  4.2430 -1.3643  3.2298
   31MOL0     H 4127  10.559   4.125   4.138 -0.1951 -0.9864 -0.2068
   31MOL0     H 4128  10.694   4.159   4.351 -0.6632 -0.3509 -0.3533
   31MOL0     H 4129  10.689   3.977   4.369 -0.8012 -1.9367 -2.2556
   31MOL0     H 4130  10.847   3.961   4.187 -1.2548  0.2062 -1.0299
   31MOL0     H 4131  10.804   4.136   4.144 -2.8381 -0.4641  1.5348
   31MOL0     H 4132  10.953   4.074   4.397  1.4781 -1.0159 -0.3721
   31MOL0     H 4133  10.934   4.227   4.314 -0.5614 -0.2279 -0.6852
   31MOL0     H 4134  11.101   3.982   4.228 -0.7093 -0.0685 -1.1252
   31MOL0     H 4135  11.053   4.102   4.111  2.7844  3.9689 -0.1852
   31MOL0     H 4136  11.310   4.039   4.368 -0.6199 -0.2248 -1.8389
   31MOL0     H 4137  11.480   4.326   4.491 -0.5194  0.2216 -0.1318
   31MOL0     H 4138  11.516   4.156   4.460  0.9014  0.2513  0.3289
   31MOL0     H 4139  11.538   4.305   4.199 -0.5101  1.0900  0.7790
   31MOL0     H 4140  11.599   4.407   4.321 -2.2992  0.7918 -2.1850
   31MOL0     H 4141  11.661   4.098   4.295  1.5362 -0.7900  2.3115
   31MOL0     H 4142  11.755   4.205   4.392  0.7062 -0.1674 -0.9725
   31MOL0     H 4143  11.731   4.212   4.094  0.8880 -1.9353 -0.5806
   31MOL0     H 4144  11.860   4.136   4.184  0.9171  1.0972  1.0032
   31MOL0     H 4145  11.997   4.473   4.359  0.0094 -1.7750  0.6341
   31MOL0     H 4146  12.237   4.518   4.342 -1.9859  0.0513  0.7672
   31MOL0     H 4147  12.683   4.509   4.099 -2.9620  2.3944  1.5415
   31MOL0     H 4148  12.919   4.441   4.167  2.3315  0.7257  0.9332
   31MOL0     H 4149  13.050   4.266   4.233  1.6486  1.1571  0.0061
   31MOL0     H 4150  13.117   4.418   4.269 -0.3704  0.6221  0.8164
   31MOL0     H 4151  13.292   4.286   4.340 -0.6286 -0.1459  0.7026
   31MOL0     H 4152  13.204   4.285   4.494 -0.4031 -2.7784  2.2036
   31MOL0     H 4153  13.280   4.051   4.443 -0.3130  1.4709  2.0182
   31MOL0     H 4154  13.104   4.063   4.460 -1.2939 -1.4813 -1.6768
   31MOL0     H 4155  13.182   4.108   4.178 -3.1805  1.4365  0.4731
   31MOL0     H 4156  13.037   4.043   4.243  1.1958  2.8897 -1.8793
   31MOL0     H 4157  13.298   3.883   4.221  0.3203  0.6397  1.2217
   31MOL0     H 4158  13.166   3.867   4.108  2.9096 -1.8872  0.0973
   31MOL0     H 4159  13.163   3.832   4.416  1.4956 -0.0568 -0.2401
   31MOL0     H 4160  13.013   3.808   4.326 -0.2935 -3.9524  1.1423
   31MOL0     H 4161  13.103   3.582   4.353  0.5102 -0.7385 -0.6718
   31MOL0     H 4162  13.264   3.655   4.335 -0.9048  1.1268  1.6271
   31MOL0     H 4163  13.225   3.650   4.086  0.3791 -0.5496  0.4292
   31MOL0     H 4164  13.187   3.498   4.144 -1.0083 -0.1751 -1.6722
   31MOL0     H 4165  12.790   4.420   4.571 -0.6506 -1.4377 -0.1152
   31MOL0     H 4166  12.576   4.479   4.516  0.2894  2.3438 -0.1371
   31MOL0     H 4167  12.252   4.265   3.996 -1.6928 -1.9123 -0.4062
   31MOL0     H 4168  12.010   4.260   3.983  2.5092 -1.2668 -0.8466
   31MOL0     H 4169  10.023   4.152   4.404  0.7783 -0.4921  3.9503
   31MOL0     H 4170   9.811   4.205   4.503  2.8427  1.0788 -0.5108
   31MOL0     H 4171   9.419   4.267   4.722 -0.7101  0.2920  1.9352
   31MOL0     H 4172   9.199   4.279   4.795  1.3102  0.6507 -0.1289
   31MOL0     H 4173   8.958   4.270   4.798 -2.9737 -0.8942 -0.5721
   31MOL0     H 4174   9.038   4.211   4.948 -0.8813  0.6286  1.2950
   31MOL0     H 4175   8.797   4.246   4.982 -0.1227 -0.6499  0.4932
   31MOL0     H 4176   8.838   4.070   5.010  1.0484 -0.7435 -0.6513
   31MOL0     H 4177   8.758   4.025   4.781 -0.1964  1.1685 -2.3309
   31MOL0     H 4178   8.706   4.190   4.764 -2.0959  0.5693  0.2295
   31MOL0     H 4179   8.514   4.065   4.820  2.4370 -2.3772 -0.6961
   31MOL0     H 4180   8.593   4.009   4.964 -0.3579  0.3361  2.0875
   31MOL0     H 4181   8.479   4.408   5.087  0.0068 -1.4843  1.6358
   31MOL0     H 4182   9.129   3.879   4.672 -0.8248  0.7738  0.8288
   31MOL0     H 4183   9.270   3.786   4.497  0.2466 -0.7360 -0.9850
   31MOL0     H 4184   9.434   3.840   4.462  1.4825 -0.4682 -0.1245
   31MOL0     H 4185   9.409   3.752   4.602  3.2424  1.1975 -2.0282
   32MOL0     O 4186   1.297   5.921   7.730  0.2682  0.2105 -0.3445
   32MOL0     C 4187   1.219   5.937   7.635 -0.1118 -0.5545 -1.3464
   32MOL0     O 4188   1.251   5.922   7.507 -0.0738  0.0191  0.3490
   32MOL0     C 4189   1.380   5.895   7.468 -0.5920  0.4695 -0.3194
   32MOL0     C 4190   1.448   6.007   7.419 -0.8302 -0.5434 -0.5041
   32MOL0     C 4191   1.574   5.992   7.367  0.7373 -0.5812  0.3722
   32MOL0     C 4192   1.637   5.870   7.372 -1.1627  0.1030  0.0360
   32MOL0     O 4193   1.766   5.858   7.321  0.3750  0.4573 -0.5651
   32MOL0     C 4194   1.844   5.735   7.344 -0.0435  0.5386 -0.4741
   32MOL0     C 4195   1.959   5.740   7.246 -0.5401  0.1412 -0.5534
   32MOL0     C 4196   2.064   5.835   7.305 -0.8760 -0.0591  0.1697
   32MOL0     C 4197   2.163   5.868   7.203  0.8788 -0.3151 -0.2622
   32MOL0     C 4198   2.291   5.934   7.259 -0.3165  0.2946  0.0186
   32MOL0     C 4199   2.387   5.959   7.142 -0.1717  0.1365 -0.1894
   32MOL0     C 4200   2.511   6.013   7.193 -0.5947 -0.3745 -0.1218
   32MOL0     C 4201   2.619   6.035   7.081  0.7528 -0.1372 -0.6634
   32MOL0     N 4202   2.756   6.063   7.115  1.0169  0.1004 -0.9125
   32MOL0     C 4203   2.862   6.029   7.039  0.4493 -1.2343  0.4219
   32MOL0     C 4204   2.966   6.091   7.104  0.6551  0.1395  1.0254
   32MOL0     C 4205   3.110   6.093   7.064 -0.1935  0.6520 -0.0038
   32MOL0     C 4206   3.163   5.942   7.046 -0.1419  0.3719 -0.8526
   32MOL0     C 4207   3.154   5.845   7.176  0.2197  0.8955  0.5781
   32MOL0     C 4208   3.209   5.702   7.151  0.2509  0.2873 -0.2689
   32MOL0     O 4209   3.137   5.621   7.060 -0.5796 -0.3534  0.5865
   32MOL0     C 4210   3.016   5.572   7.100  0.6168 -0.3635 -0.1301
   32MOL0     C 4211   2.948   5.492   7.003  0.1658  0.1640  0.6825
   32MOL0     C 4212   2.828   5.422   7.023 -0.2633  0.0315 -0.3332
   32MOL0     C 4213   2.753   5.458   7.138 -0.5810  0.3838  0.7570
   32MOL0     C 4214   2.615   5.403   7.154  0.7098 -0.2265 -0.3455
   32MOL0     O 4215   2.569   5.332   7.053 -0.5363  0.0580  0.3876
   32MOL0     C 4216   2.448   5.269   7.046  1.3089 -0.1629 -0.5014
   32MOL0     C 4217   2.398   5.232   6.922 -0.5934  0.4162  0.4289
   32MOL0     C 4218   2.275   5.168   6.907  0.2882  0.0975  0.0228
   32MOL0     C 4219   2.196   5.135   7.019  0.6404 -0.2023  0.0666
   32MOL0     O 4220   2.064   5.089   7.019 -0.5235 -0.3927 -0.1516
   32MOL0     C 4221   2.015   5.020   6.905  1.2873  0.0565  0.0636
   32MOL0     C 4222   1.891   4.930   6.941 -0.0536  0.0335  0.8226
   32MOL0     C 4223   1.773   5.018   6.979 -0.5299 -0.0103 -0.7780
   32MOL0     C 4224   1.652   4.942   7.046  0.4451 -0.0097 -0.0547
   32MOL0     C 4225   1.529   5.039   7.052 -0.3170 -0.0810 -0.1096
   32MOL0     C 4226   1.405   5.000   7.123 -0.7151 -0.0043 -0.6256
   32MOL0     C 4227   1.426   4.923   7.255  0.1195  0.0591 -0.3265
   32MOL0     C 4228   1.303   4.913   7.334 -0.7455  0.1860  0.8139
   32MOL0    Cl 4229   1.323   4.804   7.482 -0.5614 -0.2600 -0.4336
   32MOL0     C 4230   2.252   5.165   7.138  0.2108  0.2043 -0.0119
   32MOL0     C 4231   2.370   5.231   7.155  0.5188 -0.5673  0.0298
   32MOL0     O 4232   2.559   5.428   7.263  0.6613 -0.3802 -0.1346
   32MOL0     C 4233   2.813   5.545   7.233  0.7681 -0.2097  1.0390
   32MOL0     C 4234   2.941   5.596   7.216  0.2124 -0.9828 -0.4884
   32MOL0     N 4235   2.924   6.139   7.221 -0.5979  0.3431 -0.6152
   32MOL0     N 4236   2.797   6.120   7.227 -0.3787  0.1247  0.1195
   32MOL0     C 4237   1.577   5.759   7.442  1.0077  0.1075 -0.2416
   32MOL0     C 4238   1.449   5.769   7.481  0.2112  0.1300 -0.1588
   32MOL0     C 4239   1.084   5.986   7.673  0.3749  0.4298 -0.0293
   32MOL0     C 4240   1.045   5.970   7.803 -0.2820  0.7678 -0.2769
   32MOL0     C 4241   0.914   6.003   7.838 -0.3469 -0.0988 -0.3413
   32MOL0     C 4242   0.822   6.047   7.743  0.9188 -0.3791 -1.1968
   32MOL0     O 4243   0.685   6.081   7.761  0.4471 -0.1272 -0.9550
   32MOL0     C 4244   0.641   6.114   7.899  0.2158 -0.3695 -0.2365
   32MOL0     C 4245   0.493   6.080   7.913 -0.6264 -0.1706  0.3867
   32MOL0     C 4246   0.400   6.151   7.810 -0.1502  0.0827  0.1393
   32MOL0     C 4247   0.378   6.297   7.846 -0.3954 -0.7935  0.0137
   32MOL0     C 4248   0.444   6.377   7.739 -0.1415 -0.0155  0.1625
   32MOL0     C 4249   0.487   6.457   7.658  0.0185  0.6743  0.6183
   32MOL0     C 4250   0.870   6.074   7.615  0.4585  0.7057  0.1029
   32MOL0     C 4251   1.000   6.053   7.578 -0.3524 -0.3585  0.4706
   32MOL0     C 4252   1.049   6.108   7.450  0.5251 -0.1165  0.4846
   32MOL0     H 4253   1.392   6.097   7.397  0.9895  0.8465  0.2374
   32MOL0     H 4254   1.616   6.077   7.314 -0.0264  0.7753  1.8817
   32MOL0     H 4255   1.868   5.750   7.450  1.7554 -0.0953 -0.7540
   32MOL0     H 4256   1.786   5.645   7.320 -2.2572  1.5505  0.7677
   32MOL0     H 4257   1.920   5.770   7.148 -0.6268  0.3898 -0.4449
   32MOL0     H 4258   2.002   5.642   7.226 -2.5422 -1.1952  1.1906
   32MOL0     H 4259   2.107   5.787   7.394  0.2416  2.9838  1.4233
   32MOL0     H 4260   2.014   5.924   7.345  0.2171  1.0440 -0.8458
   32MOL0     H 4261   2.194   5.777   7.150  0.5103 -0.5676 -0.0455
   32MOL0     H 4262   2.129   5.937   7.125  2.8408  3.0729  1.6202
   32MOL0     H 4263   2.259   6.026   7.309 -2.5730 -1.4145  1.9719
   32MOL0     H 4264   2.332   5.866   7.334 -0.7369  1.9032  1.7789
   32MOL0     H 4265   2.406   5.862   7.096  0.6893  0.0399  0.3518
   32MOL0     H 4266   2.349   6.032   7.068  1.3691  0.8472 -0.3151
   32MOL0     H 4267   2.553   5.942   7.265 -1.0110 -1.7598 -1.2016
   32MOL0     H 4268   2.490   6.105   7.249  2.1327  1.0897 -1.2779
   32MOL0     H 4269   2.617   5.942   7.023  1.6983  0.2867 -1.3990
   32MOL0     H 4270   2.582   6.117   7.019  4.0064  0.2042 -2.3550
   32MOL0     H 4271   2.862   5.972   6.947 -3.2634  0.2128 -0.6755
   32MOL0     H 4272   3.106   6.130   6.961 -2.3749  1.2876  0.2692
   32MOL0     H 4273   3.171   6.156   7.130  1.3425 -2.7478  2.0765
   32MOL0     H 4274   3.101   5.888   6.973 -0.1446 -1.7883  0.6517
   32MOL0     H 4275   3.269   5.949   7.019  0.2805  2.5914  1.0705
   32MOL0     H 4276   3.051   5.832   7.212  0.2508 -2.8774 -0.2733
   32MOL0     H 4277   3.213   5.879   7.261 -0.2824 -0.7343  1.6327
   32MOL0     H 4278   3.207   5.656   7.250 -1.1609 -1.1984 -0.9468
   32MOL0     H 4279   3.309   5.709   7.108  0.7691 -0.8586  0.7198
   32MOL0     H 4280   3.000   5.465   6.912 -4.1278 -1.3678 -1.6086
   32MOL0     H 4281   2.795   5.356   6.944 -1.2644  1.2577 -0.9758
   32MOL0     H 4282   2.450   5.250   6.828 -0.5617  0.2470  0.4142
   32MOL0     H 4283   2.239   5.163   6.805 -1.0312 -0.5225  0.4900
   32MOL0     H 4284   1.988   5.093   6.828  1.3473 -1.1001 -1.0923
   32MOL0     H 4285   2.097   4.956   6.869  1.6157  0.4107  0.1807
   32MOL0     H 4286   1.872   4.869   6.852  0.7294  0.9583 -0.0004
   32MOL0     H 4287   1.922   4.870   7.026  0.9093 -1.0006 -0.2205
   32MOL0     H 4288   1.810   5.094   7.049 -1.7818 -0.9104  0.9322
   32MOL0     H 4289   1.736   5.064   6.887  0.0386 -0.9263 -1.4806
   32MOL0     H 4290   1.677   4.911   7.148 -0.9121  2.4957  1.1304
   32MOL0     H 4291   1.623   4.857   6.983 -0.8308 -1.1306  1.9430
   32MOL0     H 4292   1.499   5.067   6.950  1.0102  1.4994 -0.1106
   32MOL0     H 4293   1.571   5.132   7.093 -0.6451  0.2363 -0.4753
   32MOL0     H 4294   1.365   5.100   7.145  0.8135  0.3269  0.8570
   32MOL0     H 4295   1.342   4.952   7.047 -2.1412  2.8895 -1.4374
   32MOL0     H 4296   1.505   4.979   7.306 -1.1602  0.7835  0.9262
   32MOL0     H 4297   1.470   4.826   7.229  1.9971  0.2862  1.6950
   32MOL0     H 4298   1.279   5.015   7.366 -0.4415  0.4061  0.3544
   32MOL0     H 4299   1.230   4.860   7.272  1.1356 -2.5389  0.7283
   32MOL0     H 4300   2.192   5.142   7.226 -0.4312 -3.0902 -1.1714
   32MOL0     H 4301   2.384   5.258   7.259 -3.0103 -0.8003  0.6819
   32MOL0     H 4302   2.759   5.578   7.321 -1.0935 -0.4202  0.0430
   32MOL0     H 4303   2.982   5.668   7.286  1.9878 -2.2261 -0.1992
   32MOL0     H 4304   1.628   5.665   7.464  0.1512 -0.2258  0.3969
   32MOL0     H 4305   1.409   5.684   7.535  4.3697 -2.5374 -0.8430
   32MOL0     H 4306   1.112   5.936   7.880 -0.5044 -1.3197 -0.9480
   32MOL0     H 4307   0.905   6.007   7.946 -1.9282  1.3618 -0.4857
   32MOL0     H 4308   0.650   6.221   7.924  0.3110 -0.1512 -1.1891
   32MOL0     H 4309   0.698   6.062   7.977  0.5516 -0.5883 -0.6254
   32MOL0     H 4310   0.449   6.088   8.014 -0.3986  0.9173  0.4153
   32MOL0     H 4311   0.493   5.975   7.883  1.6275 -0.3551  0.8542
   32MOL0     H 4312   0.306   6.096   7.798 -0.5837  1.2457 -2.2125
   32MOL0     H 4313   0.446   6.145   7.711  0.0166 -2.1295  0.3125
   32MOL0     H 4314   0.272   6.324   7.842  0.1538  1.3392 -2.2691
   32MOL0     H 4315   0.425   6.340   7.935 -0.1602  2.5541 -1.5865
   32MOL0     H 4316   0.525   6.510   7.573 -1.6051 -0.0853 -0.6331
   32MOL0     H 4317   0.801   6.119   7.544 -0.1468 -1.0735 -0.4932
   32MOL0     H 4318   0.977   6.185   7.424 -0.5039 -0.2482  2.7538
   32MOL0     H 4319   1.137   6.173   7.460  0.7920 -0.1662 -1.2187
   32MOL0     H 4320   1.061   6.045   7.361 -0.1135 -1.8983  1.6057
   33MOL0     O 4321   4.464  10.732   1.810  0.4470 -0.5349 -1.0851
   33MOL0     C 4322   4.401  10.766   1.713 -0.1030  0.5041  0.3311
   33MOL0     O 4323   4.446  10.758   1.584 -0.5179 -0.2627  0.2584
   33MOL0     C 4324   4.591  10.753   1.564  0.1972  0.9126 -1.1896
   33MOL0     C 4325   4.666  10.869   1.567 -0.0169  0.4287  0.3579
   33MOL0     C 4326   4.806  10.863   1.542  0.2523 -0.1632 -0.2396
   33MOL0     C 4327   4.868  10.740   1.505  0.0754 -1.1223  0.7966
   33MOL0     O 4328   4.998  10.734   1.473 -0.1987 -0.0935  0.1242
   33MOL0     C 4329   5.072  10.643   1.553  0.4878  0.6920  0.1893
   33MOL0     C 4330   5.212  10.690   1.564 -0.7937 -0.0308  0.2449
   33MOL0     C 4331   5.293  10.591   1.651 -0.6396  0.0218 -0.5491
   33MOL0     C 4332   5.420  10.653   1.721 -0.2597  0.6483  0.6946
   33MOL0     C 4333   5.544  10.569   1.720  0.0757  0.1787 -0.6644
   33MOL0     C 4334   5.633  10.600   1.848 -0.5799  0.0437  0.7010
   33MOL0     C 4335   5.669  10.746   1.871 -0.0877 -0.4072  0.8914
   33MOL0     C 4336   5.767  10.751   1.984 -0.0655 -0.3645  0.0885
   33MOL0     N 4337   5.899  10.693   1.934 -0.4349 -0.4242 -0.0985
   33MOL0     C 4338   5.952  10.573   1.977 -0.3447 -0.1134 -0.5554
   33MOL0     C 4339   6.070  10.564   1.909 -0.3267  0.0992  0.7012
   33MOL0     C 4340   6.190  10.467   1.906 -0.3589  0.5337 -0.7832
   33MOL0     C 4341   6.308  10.515   1.991  0.4834  0.1678  1.3087
   33MOL0     C 4342   6.431  10.422   1.972  0.2016  1.5827  0.5027
   33MOL0     C 4343   6.560  10.455   2.038  0.4412  0.2011 -0.3917
   33MOL0     O 4344   6.555  10.434   2.181  0.8164  0.2001 -0.0353
   33MOL0     C 4345   6.663  10.391   2.247 -1.1213  0.7938 -0.7813
   33MOL0     C 4346   6.799  10.393   2.190 -0.0295 -0.6241  0.1081
   33MOL0     C 4347   6.909  10.365   2.273 -0.3418 -0.0546  0.4733
   33MOL0     C 4348   6.893  10.333   2.416  0.5411 -1.1200  0.0600
   33MOL0     C 4349   7.015  10.292   2.493  0.7640 -0.7585 -0.5384
   33MOL0     O 4350   6.993  10.258   2.624 -0.4329 -0.1939 -0.0421
   33MOL0     C 4351   7.100  10.211   2.704 -0.2040 -0.9499  0.1362
   33MOL0     C 4352   7.209  10.283   2.733 -0.3996 -0.3246  0.0014
   33MOL0     C 4353   7.304  10.238   2.824  0.2341  0.0029 -0.0134
   33MOL0     C 4354   7.283  10.105   2.880 -0.2243 -0.8323 -0.9726
   33MOL0     O 4355   7.349  10.050   2.986 -0.0840 -0.0054 -0.5731
   33MOL0     C 4356   7.486  10.080   2.991  0.7626 -0.9672  0.2123
   33MOL0     C 4357   7.564   9.981   3.079 -0.1106 -0.6121  0.4181
   33MOL0     C 4358   7.713   9.992   3.054 -0.7910 -0.3775 -0.1175
   33MOL0     C 4359   7.791  10.074   3.154  0.4964  0.4119  0.1402
   33MOL0     C 4360   7.941  10.070   3.106 -0.8525  0.0939  0.3479
   33MOL0     C 4361   7.969  10.137   2.968  0.7371 -0.8485  0.5208
   33MOL0     C 4362   8.114  10.159   2.934  0.2821 -0.4887 -0.0793
   33MOL0     C 4363   8.198  10.030   2.951 -0.2593 -0.2252 -0.2861
   33MOL0    Cl 4364   8.230   9.987   3.125 -0.6791  0.0430 -0.1373
   33MOL0     C 4365   7.170  10.038   2.847 -0.0807  1.2708 -0.5648
   33MOL0     C 4366   7.072  10.095   2.766  0.1497  0.0053  0.6850
   33MOL0     O 4367   7.124  10.292   2.439  0.4969  0.1955  0.1645
   33MOL0     C 4368   6.768  10.341   2.467  0.1263  0.0691  0.4910
   33MOL0     C 4369   6.656  10.366   2.386  0.7114  0.1550 -0.4987
   33MOL0     N 4370   6.080  10.671   1.819  0.4492 -0.4600 -0.4299
   33MOL0     N 4371   5.986  10.758   1.842  0.0139 -0.5435  0.0380
   33MOL0     C 4372   4.789  10.630   1.505  0.2833 -0.0893 -0.1204
   33MOL0     C 4373   4.654  10.629   1.534 -0.3119 -0.8090 -0.1146
   33MOL0     C 4374   4.258  10.813   1.735  0.1963  0.0009  0.5702
   33MOL0     C 4375   4.198  10.890   1.641 -0.2555  0.3448 -0.3806
   33MOL0     C 4376   4.073  10.953   1.645 -0.2751  0.1915 -0.6336
   33MOL0     C 4377   3.993  10.920   1.754 -0.1079 -0.4607 -0.7508
   33MOL0     O 4378   3.864  10.967   1.777 -0.3697  0.0368  0.5640
   33MOL0     C 4379   3.784  11.014   1.665 -0.5470 -0.0599  0.3607
   33MOL0     C 4380   3.644  11.040   1.725 -0.7095  0.7893 -0.5728
   33MOL0     C 4381   3.582  10.905   1.766  0.3991  0.1976 -0.2933
   33MOL0     C 4382   3.452  10.940   1.834  0.7334 -0.6006 -0.2198
   33MOL0     C 4383   3.460  11.001   1.968 -0.7370 -0.5866 -0.0099
   33MOL0     C 4384   3.471  11.045   2.085  0.0394 -0.5726  0.2186
   33MOL0     C 4385   4.045  10.833   1.849 -1.3019 -0.3648 -0.2510
   33MOL0     C 4386   4.173  10.776   1.841  0.3311 -0.8828 -0.1877
   33MOL0     C 4387   4.207  10.675   1.947 -0.6019 -0.0558 -0.1312
   33MOL0     H 4388   4.609  10.958   1.594  1.7132  2.2647 -1.6044
   33MOL0     H 4389   4.867  10.953   1.554 -1.4865  1.2261 -1.3678
   33MOL0     H 4390   5.022  10.637   1.650  0.1497 -5.3728  0.0276
   33MOL0     H 4391   5.069  10.546   1.503 -0.3660  0.0160  1.5087
   33MOL0     H 4392   5.220  10.780   1.625 -0.5496 -0.7008  1.2184
   33MOL0     H 4393   5.268  10.715   1.473  3.4310  0.6118  2.7386
   33MOL0     H 4394   5.318  10.507   1.585 -1.9840  0.1051 -1.1817
   33MOL0     H 4395   5.236  10.541   1.729 -1.5853  1.8480 -0.0129
   33MOL0     H 4396   5.436  10.751   1.674  0.2221 -0.5378 -1.7696
   33MOL0     H 4397   5.385  10.668   1.824  0.9288  3.6894  0.7559
   33MOL0     H 4398   5.508  10.465   1.726  1.9096 -0.4205  1.4202
   33MOL0     H 4399   5.598  10.589   1.627  1.2578 -1.2265 -0.3124
   33MOL0     H 4400   5.600  10.550   1.940 -0.2847  0.9093  1.2840
   33MOL0     H 4401   5.725  10.547   1.824 -0.5572  0.5105 -0.2664
   33MOL0     H 4402   5.576  10.798   1.893  0.4744  1.3697 -0.6460
   33MOL0     H 4403   5.708  10.793   1.780 -0.5084  1.2685  1.5414
   33MOL0     H 4404   5.784  10.858   2.003 -0.2707 -0.3738  0.3229
   33MOL0     H 4405   5.728  10.703   2.073 -0.6935  0.4651  0.2741
   33MOL0     H 4406   5.910  10.506   2.050 -0.2298 -1.5776 -1.7827
   33MOL0     H 4407   6.156  10.370   1.944  3.1639 -0.5167  0.1031
   33MOL0     H 4408   6.227  10.456   1.804  0.4131 -2.1610 -0.2990
   33MOL0     H 4409   6.328  10.615   1.951  2.0112 -1.0836 -1.2153
   33MOL0     H 4410   6.276  10.529   2.095 -2.0540  0.8324  0.5205
   33MOL0     H 4411   6.445  10.415   1.864 -2.9695  0.7742  0.0230
   33MOL0     H 4412   6.392  10.326   2.008  3.6220 -1.2147 -2.5874
   33MOL0     H 4413   6.589  10.557   2.013  4.0674 -0.7732 -0.7577
   33MOL0     H 4414   6.641  10.393   1.999 -0.3478 -1.8165  1.0034
   33MOL0     H 4415   6.816  10.422   2.086  0.0099  1.2489  0.5997
   33MOL0     H 4416   7.013  10.366   2.242 -0.5948  0.5933 -0.4126
   33MOL0     H 4417   7.223  10.374   2.676  3.2139 -2.2336 -2.5926
   33MOL0     H 4418   7.384  10.307   2.849 -0.1437  1.3262 -2.1733
   33MOL0     H 4419   7.527  10.082   2.889  2.5630 -0.0687  0.9028
   33MOL0     H 4420   7.494  10.182   3.029 -2.8135  1.1854 -3.9817
   33MOL0     H 4421   7.542  10.005   3.184 -1.0374  0.3362  0.0209
   33MOL0     H 4422   7.534   9.876   3.066  1.3229 -0.8596 -1.3234
   33MOL0     H 4423   7.760   9.895   3.036 -0.0323  0.4739 -3.4796
   33MOL0     H 4424   7.725  10.051   2.962  0.0569  0.7217  0.6731
   33MOL0     H 4425   7.778  10.022   3.249 -1.1060 -0.3722 -0.4656
   33MOL0     H 4426   7.755  10.177   3.161 -0.6416  0.0941 -0.6358
   33MOL0     H 4427   7.969   9.965   3.097 -0.1717  0.3535 -0.7946
   33MOL0     H 4428   7.995  10.117   3.189 -0.1159 -3.0125  1.7436
   33MOL0     H 4429   7.924  10.067   2.897  0.1482 -2.3706  2.3193
   33MOL0     H 4430   7.927  10.238   2.964 -1.2213 -1.6462 -2.4569
   33MOL0     H 4431   8.153  10.249   2.983 -0.4934  1.5056 -2.8915
   33MOL0     H 4432   8.136  10.186   2.830  2.0094  0.5367  0.5006
   33MOL0     H 4433   8.142   9.951   2.899 -0.2090 -0.5116  0.0901
   33MOL0     H 4434   8.293  10.034   2.896  1.1219  0.8093  2.0311
   33MOL0     H 4435   7.134   9.942   2.882 -1.3869  0.9317 -2.6226
   33MOL0     H 4436   6.981  10.041   2.746  0.8557 -0.3222 -2.0409
   33MOL0     H 4437   6.747  10.330   2.573 -0.6093  0.3055  0.3753
   33MOL0     H 4438   6.554  10.361   2.422  0.4490 -3.2820 -1.3686
   33MOL0     H 4439   4.842  10.537   1.483 -0.3979 -0.8644  1.3432
   33MOL0     H 4440   4.602  10.534   1.533 -1.8637 -0.0208  0.5873
   33MOL0     H 4441   4.251  10.911   1.548 -1.7569  2.3411 -0.8572
   33MOL0     H 4442   4.034  11.009   1.561 -1.0097 -0.5384 -0.7911
   33MOL0     H 4443   3.785  10.945   1.580  3.0064  3.8936 -3.3281
   33MOL0     H 4444   3.825  11.111   1.634 -2.1391  1.4628  2.7057
   33MOL0     H 4445   3.569  11.079   1.655 -1.9598 -0.1161  0.2189
   33MOL0     H 4446   3.655  11.103   1.814 -0.2285 -0.3248  0.1867
   33MOL0     H 4447   3.644  10.845   1.833 -0.9450 -0.5241  0.3561
   33MOL0     H 4448   3.558  10.850   1.675  0.5999 -0.5861  0.1190
   33MOL0     H 4449   3.394  11.002   1.764  0.4348 -0.5848  0.0414
   33MOL0     H 4450   3.392  10.848   1.838  1.2360 -0.8941  3.5227
   33MOL0     H 4451   3.468  11.097   2.179  3.0995 -1.2183  0.7990
   33MOL0     H 4452   3.978  10.804   1.930 -0.3810  0.6819  0.9421
   33MOL0     H 4453   4.132  10.657   2.024  1.9070 -2.6977  1.9442
   33MOL0     H 4454   4.213  10.576   1.900 -2.4612  0.6539 -1.9985
   33MOL0     H 4455   4.294  10.708   2.005  0.1205  1.7824 -2.1513
   34MOL0     O 4456   7.908   0.580   0.225 -0.0911 -0.4694 -0.3040
   34MOL0     C 4457   7.861   0.621   0.334  0.3719  0.4929 -0.2572
   34MOL0     O 4458   7.886   0.574   0.453  0.4181  0.6516  0.3368
   34MOL0     C 4459   7.992   0.491   0.487  0.2672  0.6494 -0.1503
   34MOL0     C 4460   7.972   0.368   0.551  0.0871 -0.1698  0.6760
   34MOL0     C 4461   8.082   0.288   0.590 -0.8760  0.1652  0.0133
   34MOL0     C 4462   8.215   0.328   0.573  0.0758 -0.6117 -0.1367
   34MOL0     O 4463   8.330   0.257   0.572  0.0705  0.3018  0.4823
   34MOL0     C 4464   8.319   0.129   0.635 -0.1399  1.0741 -0.5615
   34MOL0     C 4465   8.465   0.078   0.622  0.1500 -0.2974 -0.2209
   34MOL0     C 4466   8.565   0.162   0.708  0.8624  0.3556  0.0347
   34MOL0     C 4467   8.696   0.077   0.726 -0.2527 -0.3346 -0.4485
   34MOL0     C 4468   8.803   0.159   0.802  0.2770 -0.4116 -0.3272
   34MOL0     C 4469   8.943   0.087   0.783 -0.0665 -0.1341  0.6328
   34MOL0     C 4470   9.062   0.171   0.839 -0.5178  0.1180  0.4381
   34MOL0     C 4471   9.191   0.091   0.843 -1.0031 -0.0588 -0.2054
   34MOL0     N 4472   9.246   0.038   0.720 -0.7514  0.1449  0.5255
   34MOL0     C 4473   9.286   0.122   0.614 -0.7214 -0.4113 -0.2063
   34MOL0     C 4474   9.257   0.036   0.510 -0.1658 -0.5487  0.3849
   34MOL0     C 4475   9.245   0.090   0.364 -0.1681  1.1316 -0.1033
   34MOL0     C 4476   9.193   0.239   0.362 -0.1231  0.1164  0.0739
   34MOL0     C 4477   9.046   0.258   0.417 -0.1838  0.3370  0.1536
   34MOL0     C 4478   8.951   0.213   0.312  0.3044 -0.3807  0.1280
   34MOL0     O 4479   8.822   0.201   0.364 -0.1723 -0.5893  0.3936
   34MOL0     C 4480   8.711   0.207   0.281  0.3069 -0.2719 -0.6630
   34MOL0     C 4481   8.707   0.173   0.147  0.8696  0.3423 -0.0315
   34MOL0     C 4482   8.590   0.173   0.074  0.7294  0.2544 -0.5222
   34MOL0     C 4483   8.460   0.201   0.130 -0.3205  0.5125 -0.0201
   34MOL0     C 4484   8.343   0.207   0.040 -0.3847  1.0497  0.6637
   34MOL0     O 4485   8.215   0.216   0.091 -0.4030  0.7226  0.7097
   34MOL0     C 4486   8.094   0.222   0.008 -1.1461 -0.3554 -0.5436
   34MOL0     C 4487   8.083   0.132  -0.100 -0.8025 -0.4728  0.2636
   34MOL0     C 4488   7.952   0.132  -0.161  0.2367 -1.0198  0.1279
   34MOL0     C 4489   7.841   0.210  -0.123 -0.3546  0.3236 -0.0940
   34MOL0     O 4490   7.727   0.206  -0.195 -0.1452 -0.0036  0.2809
   34MOL0     C 4491   7.607   0.265  -0.144 -0.4042 -1.0477  0.1016
   34MOL0     C 4492   7.594   0.401  -0.205  0.1363 -0.2973  0.0332
   34MOL0     C 4493   7.462   0.464  -0.168 -0.2398 -0.6225 -0.5065
   34MOL0     C 4494   7.409   0.581  -0.263 -0.5118 -0.0107  0.1113
   34MOL0     C 4495   7.282   0.645  -0.194  0.2022  0.5383 -0.2110
   34MOL0     C 4496   7.152   0.579  -0.246  0.1866  0.7420  0.0729
   34MOL0     C 4497   7.030   0.664  -0.212 -0.7217 -1.0802  0.5530
   34MOL0     C 4498   6.915   0.623  -0.288  0.6457 -0.2275  0.3350
   34MOL0    Cl 4499   6.776   0.721  -0.237  0.4476  0.1786 -0.0527
   34MOL0     C 4500   7.864   0.306  -0.018 -0.0552  0.6357  0.0783
   34MOL0     C 4501   7.984   0.299   0.052  0.8259  0.0546  0.2674
   34MOL0     O 4502   8.374   0.216  -0.080 -0.4506  0.4164 -0.3658
   34MOL0     C 4503   8.463   0.227   0.267 -0.8433 -0.3936 -0.2443
   34MOL0     C 4504   8.587   0.240   0.335 -0.2321 -0.6216  0.1329
   34MOL0     N 4505   9.223  -0.094   0.554  1.1650 -0.2834  0.1422
   34MOL0     N 4506   9.219  -0.093   0.681  0.8075 -0.5140 -0.2971
   34MOL0     C 4507   8.232   0.456   0.519  0.5736  0.2488  1.0146
   34MOL0     C 4508   8.125   0.530   0.467  0.0780 -1.1715 -0.2279
   34MOL0     C 4509   7.758   0.732   0.323 -0.5117 -0.4590  0.1280
   34MOL0     C 4510   7.695   0.759   0.438 -0.0266 -0.2854  0.1857
   34MOL0     C 4511   7.594   0.860   0.447  0.3083 -0.3752 -0.5591
   34MOL0     C 4512   7.555   0.937   0.339 -0.1588  0.4022 -0.5048
   34MOL0     O 4513   7.453   1.025   0.333  0.2092 -0.2209  0.1006
   34MOL0     C 4514   7.383   1.055   0.458  0.1641  0.1780 -0.8578
   34MOL0     C 4515   7.344   1.203   0.468 -1.1655  0.5748 -0.8866
   34MOL0     C 4516   7.231   1.228   0.365  0.1109  0.3087 -0.2090
   34MOL0     C 4517   7.148   1.350   0.406 -0.4290  0.3780  0.4808
   34MOL0     C 4518   7.078   1.329   0.532  0.9417  0.0098  0.4000
   34MOL0     C 4519   7.001   1.324   0.634 -0.5300 -0.7199 -0.0759
   34MOL0     C 4520   7.632   0.923   0.225 -0.3271  0.2347 -0.2502
   34MOL0     C 4521   7.733   0.824   0.216 -0.0926 -0.2767  0.3999
   34MOL0     C 4522   7.791   0.807   0.081 -0.5511 -0.0642  0.4338
   34MOL0     H 4523   7.871   0.340   0.577  0.2399  0.6950  2.3530
   34MOL0     H 4524   8.055   0.193   0.635  2.4120  0.7015  3.6300
   34MOL0     H 4525   8.288   0.145   0.739  0.9064  0.0514 -0.0586
   34MOL0     H 4526   8.242   0.065   0.590 -0.0158 -0.1000  0.8008
   34MOL0     H 4527   8.488   0.089   0.515  1.4307 -1.4633 -0.1004
   34MOL0     H 4528   8.476  -0.027   0.653 -0.0362 -0.6356 -1.2639
   34MOL0     H 4529   8.516   0.188   0.802  0.6173  0.1897 -0.0446
   34MOL0     H 4530   8.588   0.259   0.663 -0.5036  2.3925  3.3146
   34MOL0     H 4531   8.674  -0.013   0.784 -4.5679  0.6102 -0.2750
   34MOL0     H 4532   8.740   0.056   0.628 -0.4419  1.6844 -1.0164
   34MOL0     H 4533   8.804   0.257   0.753 -2.1366 -1.4663 -2.7906
   34MOL0     H 4534   8.768   0.176   0.904  0.8257  2.3014 -0.5042
   34MOL0     H 4535   8.935  -0.007   0.839  3.2312 -0.6411  0.4493
   34MOL0     H 4536   8.965   0.062   0.680  3.4321  1.3268  0.8951
   34MOL0     H 4537   9.043   0.207   0.941 -2.4200  0.0364  0.1451
   34MOL0     H 4538   9.077   0.262   0.780  0.6581 -1.1374 -1.3001
   34MOL0     H 4539   9.270   0.143   0.897  1.2824 -3.0458 -0.3995
   34MOL0     H 4540   9.157   0.012   0.910 -0.8166 -0.9671 -1.1570
   34MOL0     H 4541   9.323   0.223   0.627 -1.6071 -0.4541  4.1720
   34MOL0     H 4542   9.346   0.084   0.324 -0.7042 -2.2628 -1.2726
   34MOL0     H 4543   9.179   0.031   0.300 -0.8815  0.9981  0.7295
   34MOL0     H 4544   9.267   0.296   0.418  0.8319  0.0456 -1.0815
   34MOL0     H 4545   9.198   0.285   0.263 -0.3122  1.1030  0.5097
   34MOL0     H 4546   9.024   0.363   0.437 -3.4589 -0.3363  0.5910
   34MOL0     H 4547   9.020   0.202   0.507 -0.9042 -1.7832 -1.2794
   34MOL0     H 4548   8.985   0.115   0.277  0.3244  0.1308 -1.3381
   34MOL0     H 4549   8.950   0.289   0.234  0.1504 -0.7299 -0.2099
   34MOL0     H 4550   8.797   0.143   0.094  0.5333  1.7814 -1.4864
   34MOL0     H 4551   8.597   0.151  -0.032  0.6284  0.5838 -0.6011
   34MOL0     H 4552   8.151   0.049  -0.112 -0.2912 -0.0602  0.2331
   34MOL0     H 4553   7.925   0.054  -0.231 -1.1027  0.6372 -1.3196
   34MOL0     H 4554   7.519   0.207  -0.174 -0.6876 -0.9535  0.7314
   34MOL0     H 4555   7.612   0.268  -0.035 -1.4690 -0.1607  0.1426
   34MOL0     H 4556   7.681   0.465  -0.189  0.2403 -0.7118  1.2105
   34MOL0     H 4557   7.589   0.372  -0.311 -2.4978 -2.2475  0.5913
   34MOL0     H 4558   7.391   0.382  -0.149  1.3728 -1.5938  1.9058
   34MOL0     H 4559   7.477   0.519  -0.075 -0.5734 -1.4225  0.0359
   34MOL0     H 4560   7.372   0.547  -0.360  1.0720  0.5973 -0.7489
   34MOL0     H 4561   7.489   0.655  -0.272 -1.1714  0.5328 -1.7066
   34MOL0     H 4562   7.279   0.752  -0.219  0.5304  0.7985  0.8116
   34MOL0     H 4563   7.294   0.641  -0.086  2.4201  0.1756 -0.4152
   34MOL0     H 4564   7.158   0.576  -0.355  1.2603 -1.6361  0.1422
   34MOL0     H 4565   7.152   0.476  -0.209  2.1762  1.5565  2.6366
   34MOL0     H 4566   7.041   0.769  -0.239 -1.5469 -0.7860  1.3242
   34MOL0     H 4567   7.002   0.653  -0.107  1.2940 -1.1884  1.1381
   34MOL0     H 4568   6.937   0.630  -0.395 -0.0594 -1.8844  0.0441
   34MOL0     H 4569   6.890   0.517  -0.285  0.6538 -0.3301 -1.9275
   34MOL0     H 4570   7.789   0.383   0.002  0.4019  0.8511  1.0045
   34MOL0     H 4571   7.992   0.369   0.135 -0.0215 -1.9492  2.1101
   34MOL0     H 4572   8.367   0.241   0.316 -1.2098 -2.8902 -0.1075
   34MOL0     H 4573   8.584   0.276   0.438 -2.5138  0.6447 -0.3149
   34MOL0     H 4574   8.335   0.489   0.512  0.4997  0.0456 -2.0561
   34MOL0     H 4575   8.145   0.622   0.414 -0.9707 -0.7226  0.1191
   34MOL0     H 4576   7.707   0.704   0.531  0.5237 -0.3068  0.1036
   34MOL0     H 4577   7.540   0.870   0.541 -2.1550  2.7246 -2.1222
   34MOL0     H 4578   7.442   1.033   0.548  0.1581  0.0350 -0.8878
   34MOL0     H 4579   7.297   0.988   0.471  0.5891 -0.1730  0.2866
   34MOL0     H 4580   7.436   1.254   0.436 -0.7239 -0.2272 -0.9054
   34MOL0     H 4581   7.326   1.222   0.574  2.4641  1.2404 -0.2563
   34MOL0     H 4582   7.171   1.139   0.344  1.2655 -0.6977  0.6136
   34MOL0     H 4583   7.274   1.239   0.265 -0.6074 -1.6304 -0.7809
   34MOL0     H 4584   7.213   1.436   0.424 -0.3941  0.0446  2.0317
   34MOL0     H 4585   7.084   1.376   0.321  0.6925  0.8871 -0.2464
   34MOL0     H 4586   6.934   1.317   0.717 -2.7719  2.7176 -1.3665
   34MOL0     H 4587   7.618   0.988   0.139  0.1722  2.1740  1.0823
   34MOL0     H 4588   7.898   0.785   0.091 -0.0336  1.3423 -1.3712
   34MOL0     H 4589   7.737   0.732   0.023  1.0016 -0.0089 -1.1767
   34MOL0     H 4590   7.767   0.900   0.029 -3.1394 -0.8633  0.1027
   35MOL0     O 4591   5.716   2.789   7.739  0.1012  0.1023  0.0598
   35MOL0     C 4592   5.663   2.865   7.662  0.4714 -0.3889 -1.3442
   35MOL0     O 4593   5.707   2.905   7.541  0.0083 -0.5617  0.2082
   35MOL0     C 4594   5.788   2.828   7.462  0.9446 -0.2651 -0.8161
   35MOL0     C 4595   5.860   2.880   7.357 -0.7482 -0.1399  0.5385
   35MOL0     C 4596   5.964   2.811   7.296  0.7721 -0.7725  0.3419
   35MOL0     C 4597   5.993   2.681   7.338 -0.0491 -0.0379  0.4559
   35MOL0     O 4598   6.095   2.607   7.284  0.1697 -0.2833  0.4524
   35MOL0     C 4599   6.203   2.684   7.229 -0.2643  0.2172 -0.4840
   35MOL0     C 4600   6.336   2.601   7.239  1.0286  0.1776 -0.0156
   35MOL0     C 4601   6.357   2.541   7.380  0.4542 -0.1218 -0.6098
   35MOL0     C 4602   6.441   2.629   7.480 -0.7515  0.3349  0.9596
   35MOL0     C 4603   6.430   2.559   7.614  0.3422  0.1984 -0.5646
   35MOL0     C 4604   6.532   2.594   7.718 -0.8841  0.5966 -0.1037
   35MOL0     C 4605   6.520   2.504   7.839  0.2747 -0.4912 -0.0265
   35MOL0     C 4606   6.608   2.543   7.964  0.4465  0.1949  0.4054
   35MOL0     N 4607   6.745   2.562   7.931 -0.7545 -0.7636 -0.4068
   35MOL0     C 4608   6.841   2.466   7.888  0.0754 -0.0948  0.2442
   35MOL0     C 4609   6.957   2.526   7.864 -0.2700 -0.2670  0.3841
   35MOL0     C 4610   7.090   2.478   7.797  1.0186 -0.1560 -0.1544
   35MOL0     C 4611   7.122   2.346   7.861  0.4370 -0.5408  0.4463
   35MOL0     C 4612   7.180   2.355   7.995  1.3067 -0.4028 -1.4371
   35MOL0     C 4613   7.334   2.367   8.018 -0.0808 -0.4502 -0.0102
   35MOL0     O 4614   7.362   2.376   8.154  0.0941 -0.6815  0.1798
   35MOL0     C 4615   7.489   2.359   8.205  0.2112 -1.2643  0.9029
   35MOL0     C 4616   7.504   2.367   8.339  0.7097  0.1975 -0.7255
   35MOL0     C 4617   7.626   2.358   8.405  0.9315 -0.9034 -0.0185
   35MOL0     C 4618   7.740   2.317   8.327 -0.1895 -0.5889  0.4521
   35MOL0     C 4619   7.863   2.280   8.404  0.8364  0.3675  0.3016
   35MOL0     O 4620   7.861   2.304   8.532  0.3975  0.2536 -0.4534
   35MOL0     C 4621   7.961   2.249   8.618  0.3074 -0.3274  0.2313
   35MOL0     C 4622   8.051   2.331   8.694  0.2931  0.2825 -0.3933
   35MOL0     C 4623   8.156   2.278   8.777  0.4371 -0.0034  0.2039
   35MOL0     C 4624   8.165   2.139   8.793 -0.0931 -0.8040  0.5724
   35MOL0     O 4625   8.267   2.085   8.862  0.2712  0.3363  0.2442
   35MOL0     C 4626   8.274   2.115   9.003 -0.1356  0.1689  0.1104
   35MOL0     C 4627   8.350   2.005   9.076  0.2431  0.1915  0.1573
   35MOL0     C 4628   8.263   1.877   9.085  0.8020 -0.0885 -0.8307
   35MOL0     C 4629   8.325   1.787   9.188 -0.5229 -0.6149  0.2971
   35MOL0     C 4630   8.249   1.651   9.210 -0.0226 -0.2094 -0.9267
   35MOL0     C 4631   8.237   1.570   9.081 -0.2925  0.4247  1.2251
   35MOL0     C 4632   8.373   1.531   9.006 -0.2253 -0.0214  0.2452
   35MOL0     C 4633   8.439   1.405   9.063  0.7600 -0.9008  0.2193
   35MOL0    Cl 4634   8.350   1.262   9.005 -0.0534 -0.1407 -0.3150
   35MOL0     C 4635   8.078   2.061   8.723 -0.0030  1.0348  0.2392
   35MOL0     C 4636   7.977   2.115   8.638 -0.5459  0.3634 -0.1869
   35MOL0     O 4637   7.940   2.204   8.347 -0.0087 -0.1955 -0.8795
   35MOL0     C 4638   7.724   2.305   8.188 -0.4628  0.9574  0.2661
   35MOL0     C 4639   7.600   2.336   8.127  0.3642  0.7115  0.2982
   35MOL0     N 4640   6.938   2.659   7.896 -0.1523 -0.1147 -0.3035
   35MOL0     N 4641   6.811   2.679   7.924 -0.0790 -0.3654 -0.4102
   35MOL0     C 4642   5.907   2.611   7.431  0.0056 -0.7590 -0.0365
   35MOL0     C 4643   5.808   2.696   7.494 -0.2642  0.1510 -0.0547
   35MOL0     C 4644   5.540   2.932   7.715  0.2973 -0.7401 -0.2526
   35MOL0     C 4645   5.557   3.070   7.734  0.7595 -0.2641 -0.5921
   35MOL0     C 4646   5.467   3.150   7.805 -1.5145  0.1633 -0.3950
   35MOL0     C 4647   5.363   3.084   7.863  1.1045  0.0012 -0.2852
   35MOL0     O 4648   5.265   3.136   7.949  0.3097  0.3880  0.3525
   35MOL0     C 4649   5.259   3.282   7.950  0.7332 -0.0910 -0.7419
   35MOL0     C 4650   5.124   3.306   8.023  0.1314 -0.3417  0.2107
   35MOL0     C 4651   5.004   3.270   7.944  0.1958  0.5399  1.1435
   35MOL0     C 4652   4.873   3.269   8.010  0.4186 -0.2935  0.8333
   35MOL0     C 4653   4.759   3.266   7.913 -0.5997  0.0529  0.1690
   35MOL0     C 4654   4.675   3.281   7.828 -0.1402 -0.4846  0.0385
   35MOL0     C 4655   5.349   2.946   7.853 -0.0098  0.2564 -0.8827
   35MOL0     C 4656   5.430   2.872   7.771 -0.1242  0.0734 -0.2194
   35MOL0     C 4657   5.396   2.727   7.748 -0.4699  0.2138  0.5681
   35MOL0     H 4658   5.849   2.983   7.326  1.1920 -0.1346 -0.2091
   35MOL0     H 4659   6.014   2.862   7.215  1.0501 -0.6452  0.5916
   35MOL0     H 4660   6.177   2.729   7.133  0.5099  2.0925  0.1391
   35MOL0     H 4661   6.224   2.766   7.299 -2.0912  2.4480 -2.3926
   35MOL0     H 4662   6.418   2.670   7.216 -0.5868  2.4492  0.5826
   35MOL0     H 4663   6.336   2.528   7.157  2.5222  0.7272 -0.5351
   35MOL0     H 4664   6.410   2.446   7.371 -0.6322 -0.5772 -3.2254
   35MOL0     H 4665   6.265   2.513   7.432 -0.8325  3.0854 -0.8835
   35MOL0     H 4666   6.546   2.638   7.449 -0.5268  2.0799  2.0704
   35MOL0     H 4667   6.416   2.735   7.487  0.3297  0.7517 -0.8229
   35MOL0     H 4668   6.327   2.587   7.639  0.3301 -0.4080  0.0919
   35MOL0     H 4669   6.434   2.451   7.603  2.0976  0.2200 -0.3986
   35MOL0     H 4670   6.636   2.587   7.685 -0.4128 -1.5131  1.6039
   35MOL0     H 4671   6.509   2.694   7.757  0.2676  0.7209  0.2970
   35MOL0     H 4672   6.546   2.405   7.801 -1.8578 -1.0614 -0.0969
   35MOL0     H 4673   6.414   2.504   7.865 -0.3249 -4.1344 -1.7825
   35MOL0     H 4674   6.568   2.622   8.028  0.8329 -0.6884  1.7810
   35MOL0     H 4675   6.591   2.453   8.024 -1.3461  0.3746  0.2408
   35MOL0     H 4676   6.812   2.362   7.871 -2.6290  0.0590  3.0130
   35MOL0     H 4677   7.077   2.453   7.691  0.0996 -0.9633  0.1353
   35MOL0     H 4678   7.174   2.548   7.803  2.3386 -1.5903 -0.9765
   35MOL0     H 4679   7.031   2.288   7.877 -0.0400 -0.1239 -0.6351
   35MOL0     H 4680   7.191   2.285   7.802  0.2110  0.7570 -1.2497
   35MOL0     H 4681   7.150   2.260   8.041 -2.1396  0.2429 -2.0329
   35MOL0     H 4682   7.133   2.436   8.051  3.9946  1.8492 -2.2386
   35MOL0     H 4683   7.386   2.452   7.972  2.9060 -0.9288  2.2168
   35MOL0     H 4684   7.375   2.277   7.971 -0.8647 -1.1358  0.5760
   35MOL0     H 4685   7.416   2.384   8.400 -1.7338  0.1869 -3.9907
   35MOL0     H 4686   7.620   2.363   8.513 -2.1137 -0.8745 -0.1125
   35MOL0     H 4687   8.040   2.438   8.684  3.3374  0.8528  1.1851
   35MOL0     H 4688   8.225   2.343   8.830  0.9039 -2.3216  2.6768
   35MOL0     H 4689   8.327   2.211   9.014  0.8700 -0.5405  1.8405
   35MOL0     H 4690   8.179   2.128   9.054  0.3186  0.4844  0.8984
   35MOL0     H 4691   8.448   1.990   9.029  0.5032  2.2151 -0.0645
   35MOL0     H 4692   8.365   2.036   9.179 -1.7335 -2.7253  1.4497
   35MOL0     H 4693   8.163   1.904   9.119 -0.0141 -2.8658 -0.8004
   35MOL0     H 4694   8.250   1.836   8.984  3.9103 -0.6198 -1.1400
   35MOL0     H 4695   8.330   1.844   9.281  0.5749  1.4726 -0.9458
   35MOL0     H 4696   8.429   1.773   9.157 -0.1679  1.0728  0.6113
   35MOL0     H 4697   8.152   1.676   9.254 -0.3699  0.0965 -1.8587
   35MOL0     H 4698   8.310   1.594   9.281  1.3611  1.7719 -0.4331
   35MOL0     H 4699   8.194   1.474   9.110 -0.6826  0.1761 -0.1193
   35MOL0     H 4700   8.172   1.631   9.018  1.5555  0.7306 -0.5135
   35MOL0     H 4701   8.446   1.613   9.011 -1.3550  0.9481  1.4955
   35MOL0     H 4702   8.358   1.495   8.904 -0.8459 -0.5643  0.5194
   35MOL0     H 4703   8.538   1.407   9.017 -0.1840 -1.1086 -1.9836
   35MOL0     H 4704   8.447   1.412   9.172  0.5546 -0.4911  0.2105
   35MOL0     H 4705   8.080   1.953   8.737 -1.6853  1.1638  1.9615
   35MOL0     H 4706   7.923   2.037   8.585  2.3437 -2.1726  0.2738
   35MOL0     H 4707   7.813   2.296   8.128  0.1289  0.5243  1.1919
   35MOL0     H 4708   7.593   2.339   8.018  1.6879  2.7435  0.2021
   35MOL0     H 4709   5.903   2.508   7.464 -3.0001 -0.4615  0.8796
   35MOL0     H 4710   5.736   2.642   7.554 -3.5105  1.7765 -2.1756
   35MOL0     H 4711   5.646   3.123   7.700 -0.1887  0.6524 -1.7117
   35MOL0     H 4712   5.483   3.257   7.811  0.9857 -0.2087  1.5041
   35MOL0     H 4713   5.255   3.335   7.854 -1.1697  2.3026  0.5383
   35MOL0     H 4714   5.332   3.332   8.015 -0.2648 -0.4352  0.6864
   35MOL0     H 4715   5.118   3.411   8.054 -2.9408 -0.4716  0.3608
   35MOL0     H 4716   5.126   3.245   8.113  0.2267 -1.7655 -0.7312
   35MOL0     H 4717   5.017   3.166   7.914 -0.7783  0.5548  0.6211
   35MOL0     H 4718   4.995   3.340   7.860  0.9222 -1.2490 -0.4831
   35MOL0     H 4719   4.874   3.190   8.086  0.7143  0.3026  1.4695
   35MOL0     H 4720   4.862   3.361   8.068  0.8699 -2.0215  3.8657
   35MOL0     H 4721   4.595   3.288   7.756  1.0047  0.4726 -1.1785
   35MOL0     H 4722   5.274   2.888   7.905  1.7375 -3.2174 -1.9267
   35MOL0     H 4723   5.447   2.687   7.660 -2.7044  2.2105 -1.7905
   35MOL0     H 4724   5.422   2.653   7.825 -5.7587 -0.3221  2.2567
   35MOL0     H 4725   5.290   2.717   7.723 -0.0545  0.0488 -1.2718
   36MOL0     O 4726   6.963   7.807   4.929 -1.0791 -0.8719 -0.1039
   36MOL0     C 4727   6.919   7.831   4.819 -0.4126 -0.9921  0.1872
   36MOL0     O 4728   6.974   7.785   4.697  0.2933  0.4108  0.0962
   36MOL0     C 4729   7.067   7.677   4.705 -1.1807 -0.0581 -0.2610
   36MOL0     C 4730   7.147   7.662   4.592  0.5141  0.2591  0.8011
   36MOL0     C 4731   7.227   7.552   4.571  0.2949  0.7595 -0.1302
   36MOL0     C 4732   7.214   7.449   4.655  0.3118  0.4914  0.1272
   36MOL0     O 4733   7.268   7.331   4.617 -0.1316  0.2883  0.4420
   36MOL0     C 4734   7.203   7.212   4.661  0.4001  0.1695 -0.3390
   36MOL0     C 4735   7.256   7.078   4.610  0.2750 -0.6289  0.3480
   36MOL0     C 4736   7.404   7.059   4.645 -0.1823  0.5175 -0.2400
   36MOL0     C 4737   7.473   6.937   4.575  0.3205  0.5637 -0.5030
   36MOL0     C 4738   7.618   6.917   4.602  0.0257  0.2683  0.2015
   36MOL0     C 4739   7.678   6.784   4.533 -0.0196  0.2906 -0.0463
   36MOL0     C 4740   7.831   6.771   4.544  0.6310  0.7320 -0.0426
   36MOL0     C 4741   7.874   6.655   4.445 -0.4708 -0.1496  0.2033
   36MOL0     N 4742   8.024   6.647   4.439 -0.1248 -0.4078  0.3060
   36MOL0     C 4743   8.103   6.610   4.546  0.1388  0.8464  0.3928
   36MOL0     C 4744   8.230   6.621   4.497 -0.2397  0.1344 -0.4986
   36MOL0     C 4745   8.365   6.595   4.568 -0.5316  0.1918  0.3142
   36MOL0     C 4746   8.468   6.504   4.484  0.5901  0.3024  0.5506
   36MOL0     C 4747   8.568   6.447   4.587 -0.5468  0.2462  0.6533
   36MOL0     C 4748   8.663   6.342   4.522 -0.2592  0.3427  0.5822
   36MOL0     O 4749   8.746   6.397   4.420  0.0502 -0.2067 -0.4714
   36MOL0     C 4750   8.845   6.493   4.449 -0.4228  0.0716 -0.0858
   36MOL0     C 4751   8.904   6.568   4.347  0.5477  0.4790  0.6919
   36MOL0     C 4752   9.013   6.658   4.374  0.5194 -0.0616  0.2569
   36MOL0     C 4753   9.050   6.674   4.510 -1.0377  0.2631 -0.6662
   36MOL0     C 4754   9.148   6.776   4.559 -0.5544  0.4127 -0.0413
   36MOL0     O 4755   9.200   6.875   4.468  0.0741  0.3599 -0.1922
   36MOL0     C 4756   9.312   6.950   4.504 -0.5776 -0.1776 -0.2234
   36MOL0     C 4757   9.318   7.066   4.425  0.0203  0.2677 -0.3390
   36MOL0     C 4758   9.420   7.155   4.451  0.7369  0.5180 -0.6118
   36MOL0     C 4759   9.517   7.145   4.552  0.8949  0.7610  0.0516
   36MOL0     O 4760   9.601   7.252   4.568 -0.0825  0.4313 -0.1946
   36MOL0     C 4761   9.685   7.259   4.686 -0.3905  0.4495 -0.7595
   36MOL0     C 4762   9.753   7.399   4.680 -0.2736  0.7376 -0.0358
   36MOL0     C 4763   9.887   7.410   4.616  0.3152  0.2413  0.2929
   36MOL0     C 4764   9.958   7.534   4.665  0.1657 -0.3442  0.8478
   36MOL0     C 4765  10.094   7.548   4.587  0.4647 -0.3251  0.4808
   36MOL0     C 4766  10.159   7.684   4.607  0.3927 -0.1555  0.1048
   36MOL0     C 4767  10.087   7.780   4.508 -0.1556 -0.1140  0.4901
   36MOL0     C 4768  10.163   7.907   4.498  1.0455 -0.8938 -0.5207
   36MOL0    Cl 4769  10.314   7.859   4.423 -0.5835 -0.1003 -0.6118
   36MOL0     C 4770   9.506   7.032   4.631 -0.1469 -0.0047 -0.0388
   36MOL0     C 4771   9.409   6.936   4.608 -0.0526 -0.3298  0.9094
   36MOL0     O 4772   9.187   6.765   4.674 -0.4172 -1.1338  0.4838
   36MOL0     C 4773   9.000   6.590   4.608  0.3250 -0.1985 -0.4616
   36MOL0     C 4774   8.901   6.503   4.580  0.1788 -0.3219  0.3250
   36MOL0     N 4775   8.225   6.680   4.368 -0.6771  0.3673 -0.4800
   36MOL0     N 4776   8.104   6.693   4.341  0.0442  0.0558  0.0307
   36MOL0     C 4777   7.140   7.455   4.773  0.3607 -0.9968  0.0189
   36MOL0     C 4778   7.075   7.570   4.799  0.0423 -0.4152  0.0106
   36MOL0     C 4779   6.803   7.914   4.800 -0.0013 -1.1400 -0.5466
   36MOL0     C 4780   6.789   8.001   4.689  0.1278 -0.6846 -0.3107
   36MOL0     C 4781   6.681   8.090   4.678 -0.5544 -0.7481  0.2267
   36MOL0     C 4782   6.572   8.086   4.759 -0.3884  0.4200  0.0977
   36MOL0     O 4783   6.471   8.166   4.752 -0.1112 -0.9062 -0.4072
   36MOL0     C 4784   6.415   8.176   4.615  0.1103  0.7426 -0.0609
   36MOL0     C 4785   6.285   8.250   4.625 -0.1318  0.3151 -0.5103
   36MOL0     C 4786   6.319   8.407   4.628  0.1543  0.8648  0.0513
   36MOL0     C 4787   6.194   8.485   4.642 -0.4282 -0.0980 -0.1508
   36MOL0     C 4788   6.139   8.469   4.779 -0.3556  0.6330  0.0880
   36MOL0     C 4789   6.095   8.471   4.892 -0.7837 -0.0161  0.6433
   36MOL0     C 4790   6.573   7.983   4.856 -0.9181 -0.8571  0.6517
   36MOL0     C 4791   6.682   7.901   4.879  0.5801 -0.2294 -0.0891
   36MOL0     C 4792   6.649   7.799   4.984 -0.3872 -0.5154 -0.3652
   36MOL0     H 4793   7.137   7.739   4.517 -0.3478  0.2977  0.9462
   36MOL0     H 4794   7.296   7.541   4.488  1.1878 -2.6597  0.9022
   36MOL0     H 4795   7.204   7.190   4.768  1.3009  0.5025 -0.2724
   36MOL0     H 4796   7.099   7.210   4.627 -1.0252  0.2884  3.5168
   36MOL0     H 4797   7.253   7.081   4.500  4.3266  0.8308  0.0761
   36MOL0     H 4798   7.199   6.992   4.645 -0.4158 -0.8173 -1.1584
   36MOL0     H 4799   7.414   7.046   4.753  1.3520 -3.4881 -0.7243
   36MOL0     H 4800   7.455   7.149   4.608 -1.2352  0.9789 -0.6370
   36MOL0     H 4801   7.413   6.853   4.609  1.4452 -1.1796 -2.5812
   36MOL0     H 4802   7.459   6.944   4.466  0.4104  0.9407 -0.4933
   36MOL0     H 4803   7.668   7.004   4.559  1.8834  1.2314  3.8806
   36MOL0     H 4804   7.637   6.917   4.710  0.5450  2.0976  0.1467
   36MOL0     H 4805   7.634   6.696   4.581  1.8366 -1.4275 -1.3342
   36MOL0     H 4806   7.653   6.791   4.427  1.6044  0.4906 -0.4525
   36MOL0     H 4807   7.861   6.742   4.645 -1.3890  0.1243  0.4228
   36MOL0     H 4808   7.872   6.869   4.517  0.7151  0.4657 -0.9237
   36MOL0     H 4809   7.836   6.564   4.492  2.1245 -0.2246  2.3649
   36MOL0     H 4810   7.828   6.654   4.345  1.6749 -1.8004 -0.8415
   36MOL0     H 4811   8.077   6.569   4.643  1.4332 -0.2078  0.3311
   36MOL0     H 4812   8.408   6.694   4.581  0.1452  0.3218 -2.3675
   36MOL0     H 4813   8.345   6.551   4.666 -1.0054  1.3114  0.7348
   36MOL0     H 4814   8.414   6.424   4.432  1.2295 -0.1338  0.5519
   36MOL0     H 4815   8.514   6.561   4.403 -0.0193 -1.1902 -0.8963
   36MOL0     H 4816   8.524   6.401   4.676 -0.8778  0.7801  0.7650
   36MOL0     H 4817   8.620   6.534   4.628 -1.9577  1.5146 -0.1479
   36MOL0     H 4818   8.602   6.267   4.471 -1.2666  2.3698 -1.3363
   36MOL0     H 4819   8.731   6.286   4.588  2.6356  1.1831 -1.5050
   36MOL0     H 4820   8.865   6.561   4.246  0.2230 -1.3428  0.9124
   36MOL0     H 4821   9.064   6.707   4.293  3.2868 -1.5494  0.9783
   36MOL0     H 4822   9.234   7.089   4.361  0.4439  2.0354 -0.3049
   36MOL0     H 4823   9.412   7.242   4.387  2.2447  1.3631  0.2998
   36MOL0     H 4824   9.627   7.229   4.773  2.1066 -1.4662  0.3454
   36MOL0     H 4825   9.759   7.180   4.671 -1.9818 -1.6762  1.8541
   36MOL0     H 4826   9.675   7.462   4.637  1.3194  1.5833 -1.8286
   36MOL0     H 4827   9.762   7.425   4.786  1.6186  2.7171 -0.5976
   36MOL0     H 4828   9.951   7.323   4.635 -0.7397  0.1226  4.2352
   36MOL0     H 4829   9.877   7.407   4.507  0.5717 -2.1448  0.2742
   36MOL0     H 4830   9.969   7.525   4.773 -1.0872 -2.9870  0.8482
   36MOL0     H 4831   9.900   7.625   4.645  0.8458  0.3623  1.9882
   36MOL0     H 4832  10.078   7.526   4.481  2.1157 -2.4759  0.6206
   36MOL0     H 4833  10.164   7.480   4.635  0.8730 -1.3143 -1.4300
   36MOL0     H 4834  10.139   7.723   4.707 -2.3828  2.2339 -1.2226
   36MOL0     H 4835  10.265   7.659   4.591  0.0128 -2.5847  0.8511
   36MOL0     H 4836   9.991   7.808   4.552 -1.0086 -1.4184 -0.4469
   36MOL0     H 4837  10.082   7.734   4.409 -0.4013 -0.3321  0.6049
   36MOL0     H 4838  10.109   7.980   4.438  2.3850 -1.8263 -3.0086
   36MOL0     H 4839  10.186   7.949   4.596  1.0303 -1.2133 -0.3772
   36MOL0     H 4840   9.582   7.012   4.706  0.8230 -0.6247 -1.1363
   36MOL0     H 4841   9.422   6.846   4.668  0.7928  0.3147  1.7090
   36MOL0     H 4842   9.021   6.601   4.714  0.4328  0.4893 -0.5506
   36MOL0     H 4843   8.849   6.444   4.656  3.3529 -0.9760  2.1685
   36MOL0     H 4844   7.126   7.373   4.843 -1.0228 -1.7670 -1.0833
   36MOL0     H 4845   7.006   7.569   4.883  0.5400  1.0286  0.4665
   36MOL0     H 4846   6.867   7.998   4.613 -0.6858  0.0603 -1.2158
   36MOL0     H 4847   6.667   8.151   4.590 -2.1772  1.2925  1.8137
   36MOL0     H 4848   6.394   8.073   4.585  1.9045  0.0203  0.9431
   36MOL0     H 4849   6.485   8.220   4.544  3.4492 -2.7370  0.6846
   36MOL0     H 4850   6.246   8.214   4.721  1.3961 -3.0153 -0.9885
   36MOL0     H 4851   6.206   8.220   4.556  0.0723 -1.0445 -0.1780
   36MOL0     H 4852   6.375   8.438   4.539 -1.5847 -1.0866 -1.8221
   36MOL0     H 4853   6.387   8.414   4.714  2.7985 -2.2677 -1.5431
   36MOL0     H 4854   6.215   8.592   4.630  0.3542 -0.3213 -0.8310
   36MOL0     H 4855   6.126   8.451   4.563  1.1012 -2.9031 -0.3783
   36MOL0     H 4856   6.064   8.498   4.991 -0.1053  3.4990  0.0230
   36MOL0     H 4857   6.479   7.973   4.909 -1.7432 -0.3989 -0.6784
   36MOL0     H 4858   6.587   7.715   4.950 -2.5882  1.2901 -1.0362
   36MOL0     H 4859   6.735   7.751   5.032 -1.8190  0.5918  3.8077
   36MOL0     H 4860   6.597   7.848   5.068 -2.2582 -1.2038 -1.0671
   37MOL0     O 4861   6.253   4.921   0.289 -0.4727 -0.5137  0.6603
   37MOL0     C 4862   6.191   4.831   0.349  0.8990  0.4668 -0.7240
   37MOL0     O 4863   6.250   4.726   0.417 -0.7729 -0.3574  0.3416
   37MOL0     C 4864   6.386   4.722   0.419 -0.4366  0.9867  0.1723
   37MOL0     C 4865   6.455   4.611   0.355 -0.0395 -0.8049 -0.1572
   37MOL0     C 4866   6.594   4.597   0.344 -1.0589  0.2689  0.6832
   37MOL0     C 4867   6.679   4.691   0.398  0.0993 -0.5309  0.1130
   37MOL0     O 4868   6.811   4.676   0.407  1.0846  0.0620  0.5717
   37MOL0     C 4869   6.880   4.581   0.327 -0.6952 -0.4337 -0.2217
   37MOL0     C 4870   7.011   4.550   0.411 -0.7133  0.4830 -0.7939
   37MOL0     C 4871   7.129   4.508   0.328 -0.4297 -0.4032 -0.0532
   37MOL0     C 4872   7.260   4.495   0.409 -0.1492 -0.5739  0.0843
   37MOL0     C 4873   7.384   4.458   0.322 -1.1752  0.7957  0.2477
   37MOL0     C 4874   7.511   4.456   0.417  0.0529 -0.2786  0.9575
   37MOL0     C 4875   7.630   4.398   0.335 -0.1958 -0.1128 -0.5608
   37MOL0     C 4876   7.735   4.357   0.438 -0.0665  0.0764  0.5850
   37MOL0     N 4877   7.849   4.290   0.374 -0.6626 -0.6374 -0.3537
   37MOL0     C 4878   7.851   4.162   0.323 -0.0508  0.6960  0.2088
   37MOL0     C 4879   7.976   4.149   0.265  0.5336  0.2253  0.3156
   37MOL0     C 4880   8.044   4.029   0.208 -0.8884  0.5209 -0.0146
   37MOL0     C 4881   8.032   4.032   0.046 -1.5442  0.4031 -0.6945
   37MOL0     C 4882   8.164   4.075  -0.015  0.8351 -0.2030 -0.0793
   37MOL0     C 4883   8.272   3.965  -0.015 -0.2171  0.7995 -1.0272
   37MOL0     O 4884   8.350   3.967   0.113  0.2041  1.1934 -0.2659
   37MOL0     C 4885   8.481   3.951   0.104  0.0910  0.1410 -0.2830
   37MOL0     C 4886   8.542   3.828   0.085  0.0799  0.8583 -0.1705
   37MOL0     C 4887   8.675   3.821   0.049 -0.1680  0.3184 -0.4357
   37MOL0     C 4888   8.751   3.932   0.016 -0.2777  0.5589  0.4756
   37MOL0     C 4889   8.899   3.911  -0.020 -0.2163  0.3728  0.7997
   37MOL0     O 4890   8.965   4.016  -0.078 -0.5057  0.5318 -0.3248
   37MOL0     C 4891   9.105   4.005  -0.115  0.1980 -0.3374 -0.6012
   37MOL0     C 4892   9.173   3.887  -0.153  0.2450 -0.5479  0.2548
   37MOL0     C 4893   9.313   3.893  -0.172 -0.0748 -0.9316 -0.3805
   37MOL0     C 4894   9.387   4.018  -0.150  0.7250  0.7779 -0.5498
   37MOL0     O 4895   9.522   4.001  -0.169 -0.3615  0.4071 -0.0259
   37MOL0     C 4896   9.614   4.102  -0.123  0.0641 -0.1950 -0.4448
   37MOL0     C 4897   9.754   4.037  -0.103  0.0702  0.2682  0.8742
   37MOL0     C 4898   9.847   4.155  -0.061  0.0683  0.4864  0.1394
   37MOL0     C 4899   9.976   4.095  -0.006 -0.1486  0.0772 -0.0671
   37MOL0     C 4900  10.066   4.030  -0.115 -0.0712  0.5924 -0.0921
   37MOL0     C 4901  10.171   3.926  -0.062  0.1976 -0.3871  0.4045
   37MOL0     C 4902  10.242   3.869  -0.190 -0.0052  0.0989  0.8222
   37MOL0     C 4903  10.372   3.796  -0.156  0.4340 -0.5714  0.0961
   37MOL0    Cl 4904  10.489   3.893  -0.045 -0.1179 -0.2317  0.3640
   37MOL0     C 4905   9.319   4.131  -0.108 -0.9826 -0.3189  0.2129
   37MOL0     C 4906   9.179   4.121  -0.097  0.7294 -0.3410 -0.5262
   37MOL0     O 4907   8.941   3.796   0.005  0.3086 -0.2189 -0.6729
   37MOL0     C 4908   8.690   4.060   0.022  0.2050  0.1374 -0.0563
   37MOL0     C 4909   8.563   4.066   0.074 -0.0113 -0.3703 -0.1879
   37MOL0     N 4910   8.047   4.265   0.289 -0.3432  0.3428  0.3541
   37MOL0     N 4911   7.970   4.346   0.348 -0.2072  0.6186 -0.2705
   37MOL0     C 4912   6.617   4.803   0.469  0.5711 -0.3551 -0.9786
   37MOL0     C 4913   6.474   4.820   0.478  0.5111  0.9578 -0.6697
   37MOL0     C 4914   6.041   4.826   0.352 -0.0758  0.0871  0.2802
   37MOL0     C 4915   5.974   4.697   0.368  0.3234 -0.6719 -0.9155
   37MOL0     C 4916   5.839   4.684   0.373  0.3499  0.2595 -0.0250
   37MOL0     C 4917   5.753   4.795   0.351 -0.5977  0.4879  1.7196
   37MOL0     O 4918   5.617   4.787   0.363 -0.4740  0.6281  0.3722
   37MOL0     C 4919   5.546   4.674   0.400 -0.4080  0.3673 -0.1499
   37MOL0     C 4920   5.538   4.573   0.285 -0.0297  0.3829  0.1352
   37MOL0     C 4921   5.422   4.613   0.188  0.1995 -0.0411  1.0573
   37MOL0     C 4922   5.479   4.708   0.084 -0.0553  0.7306 -0.0434
   37MOL0     C 4923   5.366   4.731   0.001 -0.1397  0.4372  0.5539
   37MOL0     C 4924   5.262   4.767  -0.056 -0.2249  0.0608  0.1687
   37MOL0     C 4925   5.817   4.919   0.328  0.2056 -0.6676  0.1007
   37MOL0     C 4926   5.954   4.940   0.337  0.7810  0.7675 -0.1907
   37MOL0     C 4927   6.007   5.083   0.344  0.1221 -0.1058 -0.4595
   37MOL0     H 4928   6.410   4.525   0.306 -1.7710  0.6340 -1.1985
   37MOL0     H 4929   6.630   4.504   0.300  1.0244 -0.2161  3.1694
   37MOL0     H 4930   6.826   4.491   0.297 -3.2507  0.8729  0.2380
   37MOL0     H 4931   6.912   4.633   0.237 -1.6552  1.5553  0.5363
   37MOL0     H 4932   6.983   4.474   0.484  1.8088 -0.2254 -0.4651
   37MOL0     H 4933   7.042   4.637   0.470 -0.5710  0.4791 -0.8618
   37MOL0     H 4934   7.155   4.572   0.243 -3.1899 -1.4862 -1.8884
   37MOL0     H 4935   7.093   4.412   0.290 -1.5333 -0.9612  2.2636
   37MOL0     H 4936   7.282   4.591   0.456 -1.6863 -0.7569  1.2227
   37MOL0     H 4937   7.246   4.414   0.482  0.6867  0.5069  1.5035
   37MOL0     H 4938   7.368   4.356   0.285 -0.7385  2.0365 -3.8047
   37MOL0     H 4939   7.385   4.535   0.244 -2.9986  1.5484  0.8984
   37MOL0     H 4940   7.531   4.557   0.455  0.9179 -0.5425  1.2030
   37MOL0     H 4941   7.503   4.387   0.501  1.6436 -1.4167  0.2148
   37MOL0     H 4942   7.673   4.479   0.276  0.1177 -0.4544 -0.8034
   37MOL0     H 4943   7.602   4.306   0.282 -0.3226 -0.7368  0.5358
   37MOL0     H 4944   7.761   4.449   0.491 -1.2035  0.6996  0.0970
   37MOL0     H 4945   7.693   4.290   0.513  0.8178  1.2054  2.1548
   37MOL0     H 4946   7.766   4.096   0.332 -0.6946  1.6521  1.4906
   37MOL0     H 4947   8.150   4.024   0.234 -0.4813 -0.5641 -1.6920
   37MOL0     H 4948   7.997   3.935   0.241  1.6895 -0.4223  1.2046
   37MOL0     H 4949   8.019   3.928   0.014 -0.0427  0.7110 -2.4836
   37MOL0     H 4950   7.944   4.084   0.007 -1.9940  0.8080  0.8087
   37MOL0     H 4951   8.195   4.170   0.027 -4.6927  0.5486  3.3494
   37MOL0     H 4952   8.142   4.082  -0.122  1.3540  0.1127 -0.1650
   37MOL0     H 4953   8.335   3.998  -0.098  0.9911 -0.9999 -0.8944
   37MOL0     H 4954   8.245   3.862  -0.040  1.2623 -0.7150  2.7998
   37MOL0     H 4955   8.480   3.744   0.112  0.2682  0.8043  0.1003
   37MOL0     H 4956   8.711   3.718   0.045 -1.7167 -0.3987  1.7795
   37MOL0     H 4957   9.113   3.798  -0.160 -1.6120  0.5332  1.5502
   37MOL0     H 4958   9.371   3.809  -0.208  2.1423 -0.0136  0.8529
   37MOL0     H 4959   9.627   4.181  -0.198  0.2087 -0.5976 -0.8452
   37MOL0     H 4960   9.563   4.132  -0.031  0.8178 -0.1380 -0.0416
   37MOL0     H 4961   9.748   3.953  -0.033 -1.7775  1.3487  2.0572
   37MOL0     H 4962   9.787   4.009  -0.204 -0.8288 -1.0989  0.9254
   37MOL0     H 4963   9.872   4.223  -0.143  2.1834 -3.9811 -3.3590
   37MOL0     H 4964   9.799   4.211   0.020  3.7093  1.2234  2.0263
   37MOL0     H 4965   9.944   4.033   0.078  0.1265  0.8506  0.6177
   37MOL0     H 4966  10.034   4.177   0.037 -0.3238  0.3440 -0.3363
   37MOL0     H 4967  10.122   4.110  -0.164  3.0065 -0.5219  1.3721
   37MOL0     H 4968  10.005   3.979  -0.191  0.7278 -1.8173  0.7794
   37MOL0     H 4969  10.246   3.974   0.001 -0.7025  0.6277  0.7321
   37MOL0     H 4970  10.124   3.849  -0.001  2.5227 -1.9194  0.3968
   37MOL0     H 4971  10.267   3.957  -0.249 -2.8329  0.5709  0.2141
   37MOL0     H 4972  10.174   3.810  -0.251 -0.3320  1.6577 -0.3696
   37MOL0     H 4973  10.341   3.704  -0.104 -0.8730 -0.4210 -0.3756
   37MOL0     H 4974  10.430   3.770  -0.245 -0.4527  0.1561 -0.7093
   37MOL0     H 4975   9.375   4.211  -0.059 -1.6558  0.9350 -0.9975
   37MOL0     H 4976   9.132   4.212  -0.059  0.4406 -1.3705  1.7507
   37MOL0     H 4977   8.747   4.149  -0.000 -2.6890  1.7747 -1.4759
   37MOL0     H 4978   8.508   4.159   0.079 -0.6297 -0.6926 -0.7143
   37MOL0     H 4979   6.676   4.881   0.518 -0.8999 -0.2757  0.7407
   37MOL0     H 4980   6.425   4.904   0.526 -2.5152 -0.5663 -0.9023
   37MOL0     H 4981   6.036   4.608   0.373 -0.5346 -1.2232  0.5017
   37MOL0     H 4982   5.795   4.589   0.400 -1.2969  1.3918  1.5260
   37MOL0     H 4983   5.444   4.706   0.425 -1.0132 -0.5411 -1.3409
   37MOL0     H 4984   5.584   4.622   0.489 -0.2543 -0.6716 -0.8071
   37MOL0     H 4985   5.505   4.480   0.332  1.5838  1.3304  3.4820
   37MOL0     H 4986   5.635   4.566   0.235 -0.4335  1.0777 -0.7728
   37MOL0     H 4987   5.337   4.654   0.244 -1.4058 -0.3793 -1.0164
   37MOL0     H 4988   5.392   4.526   0.130 -0.8040  0.6461  0.5103
   37MOL0     H 4989   5.524   4.797   0.130  1.3196  0.4565 -0.8158
   37MOL0     H 4990   5.557   4.655   0.029 -0.9490  0.5672 -1.1800
   37MOL0     H 4991   5.177   4.794  -0.115 -2.5172  0.4731  3.3877
   37MOL0     H 4992   5.749   4.998   0.301 -0.9297 -2.2603 -2.0054
   37MOL0     H 4993   6.097   5.096   0.285 -0.4992 -1.6365 -1.7953
   37MOL0     H 4994   5.934   5.147   0.293  0.2380  1.4184  1.1942
   37MOL0     H 4995   6.016   5.107   0.451  0.7492 -1.6105 -0.1560
   38MOL0     O 4996   8.875   5.724   2.520  0.3597  0.8349 -0.0705
   38MOL0     C 4997   8.905   5.841   2.500 -0.2092 -0.1198 -0.3507
   38MOL0     O 4998   8.809   5.942   2.496  0.2576  0.0439 -0.1509
   38MOL0     C 4999   8.676   5.905   2.528 -0.2986  0.0172 -0.8334
   38MOL0     C 5000   8.638   5.884   2.662  0.0211 -1.3763 -0.1688
   38MOL0     C 5001   8.508   5.856   2.692 -0.0446  0.5482 -0.1429
   38MOL0     C 5002   8.412   5.852   2.592 -0.7642 -0.4167 -0.9413
   38MOL0     O 5003   8.283   5.830   2.634 -0.1984  0.0855  0.3324
   38MOL0     C 5004   8.164   5.877   2.562 -0.3599 -0.5322 -0.4445
   38MOL0     C 5005   8.069   5.940   2.656  0.4252  0.0662 -0.2446
   38MOL0     C 5006   7.948   5.998   2.587  0.0619  0.3435 -0.0334
   38MOL0     C 5007   7.845   5.905   2.534 -0.7965  0.3771  0.7846
   38MOL0     C 5008   7.717   5.989   2.495 -0.5651  1.0850 -0.3744
   38MOL0     C 5009   7.617   5.900   2.404 -0.1054 -0.6938 -0.4588
   38MOL0     C 5010   7.474   5.938   2.447 -0.2132  0.1879 -0.1421
   38MOL0     C 5011   7.365   5.882   2.356  0.2377  0.0676 -1.1845
   38MOL0     N 5012   7.372   5.729   2.360 -1.1856 -0.0033 -1.3452
   38MOL0     C 5013   7.432   5.652   2.260 -0.5752 -0.5620  0.2307
   38MOL0     C 5014   7.421   5.524   2.308 -0.2247  1.1275 -0.5582
   38MOL0     C 5015   7.483   5.401   2.237  0.3059 -0.0675 -0.0309
   38MOL0     C 5016   7.636   5.405   2.221  0.2638 -0.2082  1.1574
   38MOL0     C 5017   7.685   5.266   2.165 -1.0125 -0.3181  1.2128
   38MOL0     C 5018   7.838   5.252   2.155  0.6944 -0.5256  0.3501
   38MOL0     O 5019   7.880   5.319   2.033  0.0551 -0.4239  0.0130
   38MOL0     C 5020   8.017   5.317   2.002 -0.4421  0.8322  0.4310
   38MOL0     C 5021   8.048   5.378   1.882  1.0721  0.1540  0.0332
   38MOL0     C 5022   8.178   5.397   1.839 -0.0444 -0.0129 -0.1543
   38MOL0     C 5023   8.286   5.351   1.915 -0.2476 -0.1938  0.2947
   38MOL0     C 5024   8.425   5.359   1.865 -0.2250 -0.6118 -1.0062
   38MOL0     O 5025   8.518   5.285   1.928 -0.3594 -0.0245 -0.0307
   38MOL0     C 5026   8.648   5.274   1.879  0.0938  0.8648 -0.9204
   38MOL0     C 5027   8.699   5.145   1.864  0.3601  0.4630  0.2154
   38MOL0     C 5028   8.829   5.128   1.832 -1.1660  1.0054 -0.1984
   38MOL0     C 5029   8.915   5.240   1.811 -0.2862  0.0465  0.6961
   38MOL0     O 5030   9.045   5.239   1.765 -0.0652  0.0684 -0.1726
   38MOL0     C 5031   9.107   5.109   1.770  0.6171  0.4781 -0.4452
   38MOL0     C 5032   9.233   5.110   1.686 -0.9388 -0.0115  0.5460
   38MOL0     C 5033   9.351   5.179   1.762 -0.0827  0.5639 -0.3882
   38MOL0     C 5034   9.480   5.118   1.710  0.1776  0.0519 -0.8978
   38MOL0     C 5035   9.604   5.170   1.790  0.6266 -0.5097 -0.2247
   38MOL0     C 5036   9.623   5.319   1.819  0.9420  0.3536  0.0706
   38MOL0     C 5037   9.758   5.338   1.891 -0.2744  0.0938 -0.0190
   38MOL0     C 5038   9.804   5.482   1.921 -0.0852 -0.4837 -0.7885
   38MOL0    Cl 5039   9.982   5.475   1.956 -0.1052 -0.3530  0.3560
   38MOL0     C 5040   8.860   5.362   1.837 -0.0025  0.0682  0.6949
   38MOL0     C 5041   8.733   5.380   1.868  0.1308 -0.2934  0.6422
   38MOL0     O 5042   8.453   5.433   1.771 -0.4377 -0.0617 -0.4235
   38MOL0     C 5043   8.252   5.278   2.033  0.4413  0.1869  0.4427
   38MOL0     C 5044   8.119   5.268   2.082  0.0189  0.2431 -0.0990
   38MOL0     N 5045   7.355   5.527   2.434  0.1717  0.3910  0.1266
   38MOL0     N 5046   7.328   5.656   2.461  0.2808  1.0974 -0.2130
   38MOL0     C 5047   8.446   5.873   2.458  0.1608  0.1670  0.6155
   38MOL0     C 5048   8.582   5.896   2.425  0.3407  0.6410  0.5593
   38MOL0     C 5049   9.044   5.890   2.471  0.4941 -0.5130  0.1065
   38MOL0     C 5050   9.074   6.023   2.423 -0.5344 -0.1387  0.0679
   38MOL0     C 5051   9.199   6.073   2.385 -0.6275 -0.5126  0.2958
   38MOL0     C 5052   9.305   5.990   2.401 -0.3749 -0.7049 -0.1447
   38MOL0     O 5053   9.441   6.033   2.376  0.0715  0.0844  0.1144
   38MOL0     C 5054   9.476   6.166   2.327 -0.7106 -0.4101 -0.9406
   38MOL0     C 5055   9.626   6.202   2.355  0.1363  0.1257 -0.8193
   38MOL0     C 5056   9.667   6.343   2.311 -0.1602  0.1721  0.1789
   38MOL0     C 5057   9.804   6.386   2.360  0.2369 -0.2459  0.6201
   38MOL0     C 5058   9.910   6.295   2.312  0.1327  0.0111  0.1470
   38MOL0     C 5059   9.987   6.197   2.291 -0.1084 -0.0532  0.1899
   38MOL0     C 5060   9.288   5.863   2.451 -0.2451  0.3757 -0.1539
   38MOL0     C 5061   9.164   5.811   2.493  0.0499  0.0255  0.9968
   38MOL0     C 5062   9.162   5.673   2.551  0.0896  0.7859  0.1116
   38MOL0     H 5063   8.719   5.875   2.734 -0.1702  2.7340  0.8474
   38MOL0     H 5064   8.483   5.837   2.796  3.9444 -1.5436  0.6255
   38MOL0     H 5065   8.196   5.958   2.496 -0.5640  2.1036  2.4587
   38MOL0     H 5066   8.121   5.797   2.502 -1.5259  0.5885 -1.1490
   38MOL0     H 5067   8.125   6.023   2.698 -0.6404  2.4982 -3.2381
   38MOL0     H 5068   8.033   5.882   2.741  2.2670 -1.0506 -0.1676
   38MOL0     H 5069   7.976   6.062   2.503  1.1081  0.2414  0.2182
   38MOL0     H 5070   7.896   6.054   2.665 -2.9685 -2.3027  0.0301
   38MOL0     H 5071   7.889   5.865   2.442 -2.0320 -3.2932  1.6118
   38MOL0     H 5072   7.835   5.830   2.613  0.8447  0.0608  0.7206
   38MOL0     H 5073   7.669   6.020   2.589  0.0685  2.2679 -0.4267
   38MOL0     H 5074   7.745   6.075   2.435 -0.4611  1.1363 -0.2527
   38MOL0     H 5075   7.641   5.919   2.299  1.3516  1.7422  0.2271
   38MOL0     H 5076   7.619   5.792   2.416 -1.5826 -0.5463  1.6388
   38MOL0     H 5077   7.478   6.047   2.449  1.4668  0.1831 -1.3469
   38MOL0     H 5078   7.451   5.892   2.544  2.3848 -0.6165  0.1624
   38MOL0     H 5079   7.266   5.917   2.385 -0.5205 -0.3517 -3.1119
   38MOL0     H 5080   7.386   5.902   2.250  1.3341 -1.9724 -1.4167
   38MOL0     H 5081   7.468   5.698   2.169  0.7898  3.0594  2.4105
   38MOL0     H 5082   7.476   5.318   2.309  0.5656  2.2807  2.9219
   38MOL0     H 5083   7.429   5.387   2.143 -1.8778  0.4541  1.0816
   38MOL0     H 5084   7.667   5.489   2.158  0.7547 -1.0141  0.3046
   38MOL0     H 5085   7.681   5.432   2.317  1.9224 -4.1835  1.6953
   38MOL0     H 5086   7.638   5.256   2.067 -1.3503  4.4509  0.6570
   38MOL0     H 5087   7.657   5.188   2.237 -0.3872  0.4441  2.3197
   38MOL0     H 5088   7.859   5.145   2.151 -1.3236 -0.9720  0.7417
   38MOL0     H 5089   7.887   5.299   2.240  1.7003 -1.0867  0.0956
   38MOL0     H 5090   7.960   5.424   1.840  1.2489  1.8045  1.3201
   38MOL0     H 5091   8.196   5.457   1.750  2.3479 -1.3077 -0.6489
   38MOL0     H 5092   8.633   5.060   1.882 -1.0428  1.4035 -0.3091
   38MOL0     H 5093   8.847   5.024   1.804 -2.3585  0.1846  1.8605
   38MOL0     H 5094   9.136   5.075   1.870  0.0124 -2.9533 -1.2802
   38MOL0     H 5095   9.043   5.028   1.734  1.7121 -0.8477  0.4376
   38MOL0     H 5096   9.259   5.008   1.656  1.6750  0.5546  0.7106
   38MOL0     H 5097   9.214   5.156   1.589  1.0111 -1.9316 -0.8157
   38MOL0     H 5098   9.347   5.288   1.753 -2.5241  0.7888  1.9717
   38MOL0     H 5099   9.342   5.152   1.867  0.2372 -0.3140 -0.5806
   38MOL0     H 5100   9.498   5.140   1.604  0.1519 -0.9389 -1.1207
   38MOL0     H 5101   9.488   5.010   1.725  4.0141  0.2704 -0.3522
   38MOL0     H 5102   9.692   5.129   1.739 -0.3252 -1.1850 -1.3856
   38MOL0     H 5103   9.599   5.126   1.890  0.5168 -0.0639 -0.0369
   38MOL0     H 5104   9.623   5.373   1.724 -1.0292 -0.3475 -0.3736
   38MOL0     H 5105   9.548   5.369   1.882  1.1043  0.2477  0.3488
   38MOL0     H 5106   9.833   5.300   1.822 -0.5352  1.0955 -0.8940
   38MOL0     H 5107   9.766   5.293   1.990 -0.0703 -1.0418 -0.5457
   38MOL0     H 5108   9.783   5.551   1.839 -0.9845 -0.8914 -0.9093
   38MOL0     H 5109   9.758   5.531   2.007  1.2338  0.8524 -0.7839
   38MOL0     H 5110   8.916   5.455   1.834  0.1192  0.0266 -2.8716
   38MOL0     H 5111   8.699   5.482   1.887  0.7249  0.6342 -2.6268
   38MOL0     H 5112   8.333   5.244   2.096  1.7498  3.2231  0.5459
   38MOL0     H 5113   8.108   5.205   2.169  4.3344  0.3623  0.7377
   38MOL0     H 5114   8.377   5.862   2.374  3.2234 -0.3465 -2.0497
   38MOL0     H 5115   8.612   5.916   2.323 -3.5432  1.9272 -0.4934
   38MOL0     H 5116   8.990   6.088   2.406  0.2555 -0.0762 -5.1613
   38MOL0     H 5117   9.203   6.178   2.355 -1.5624  0.8721  4.2937
   38MOL0     H 5118   9.416   6.235   2.388  0.8253  0.2319 -0.1141
   38MOL0     H 5119   9.452   6.171   2.220  2.1415 -0.5527 -1.6699
   38MOL0     H 5120   9.694   6.125   2.318  1.1749  0.7479 -0.2498
   38MOL0     H 5121   9.640   6.191   2.463 -1.6494 -0.8209 -0.6298
   38MOL0     H 5122   9.593   6.414   2.349 -0.1352 -0.0019  0.5685
   38MOL0     H 5123   9.672   6.344   2.202  2.0708  0.3083  0.2337
   38MOL0     H 5124   9.818   6.485   2.315 -0.1415 -0.0005  1.0311
   38MOL0     H 5125   9.810   6.394   2.469 -1.3301  0.2116  0.7003
   38MOL0     H 5126  10.040   6.106   2.268  1.9460  1.1209  0.0561
   38MOL0     H 5127   9.374   5.797   2.457  0.9610  1.9308  0.3182
   38MOL0     H 5128   9.172   5.596   2.474  0.6993  1.0619 -0.0952
   38MOL0     H 5129   9.247   5.660   2.620 -0.9840  0.7500  1.4742
   38MOL0     H 5130   9.076   5.662   2.617  1.6585  1.0513  2.3203
   39MOL0     O 5131   4.618   3.815   2.442  0.5603  0.3163  0.2024
   39MOL0     C 5132   4.526   3.803   2.530  0.4463 -0.1513  0.9898
   39MOL0     O 5133   4.504   3.694   2.605  0.6715  0.3176  0.2469
   39MOL0     C 5134   4.595   3.589   2.609  0.2817  0.2303  0.4541
   39MOL0     C 5135   4.731   3.595   2.606 -0.1698 -0.5029 -1.0139
   39MOL0     C 5136   4.811   3.476   2.591  0.3411 -0.0624 -0.2024
   39MOL0     C 5137   4.745   3.351   2.595  0.0254 -1.2289 -0.0916
   39MOL0     O 5138   4.817   3.229   2.586 -0.9502 -0.4793 -0.3955
   39MOL0     C 5139   4.960   3.234   2.624  0.4909  0.1637  0.5684
   39MOL0     C 5140   5.015   3.092   2.607 -1.0401  0.6924 -0.3658
   39MOL0     C 5141   5.028   3.057   2.462 -0.6642  0.2665 -0.5236
   39MOL0     C 5142   5.084   2.921   2.433 -0.4798 -1.7714 -0.5108
   39MOL0     C 5143   5.127   2.920   2.290  0.2761 -0.2460  0.6169
   39MOL0     C 5144   5.220   2.792   2.274  0.3141  0.4571  0.6357
   39MOL0     C 5145   5.346   2.820   2.191  0.5652 -0.4185  0.2369
   39MOL0     C 5146   5.309   2.852   2.048  0.3099  0.2409 -0.0685
   39MOL0     N 5147   5.419   2.816   1.959  0.4617 -0.5533 -0.6604
   39MOL0     C 5148   5.463   2.690   1.939 -0.1052 -0.4433 -0.4722
   39MOL0     C 5149   5.587   2.710   1.882 -0.1475  0.0126 -0.2874
   39MOL0     C 5150   5.693   2.610   1.850  0.4039  0.3547 -0.2391
   39MOL0     C 5151   5.662   2.564   1.707  0.1761  0.3803  0.4327
   39MOL0     C 5152   5.733   2.440   1.653  0.3388  0.1661 -0.5613
   39MOL0     C 5153   5.888   2.454   1.664 -0.1863 -0.2086 -0.2421
   39MOL0     O 5154   5.941   2.367   1.563 -0.2893  0.5637 -0.5110
   39MOL0     C 5155   6.058   2.303   1.604  1.1213  0.0033  0.2579
   39MOL0     C 5156   6.105   2.209   1.510 -1.1019  0.2096 -0.4106
   39MOL0     C 5157   6.222   2.137   1.538  0.4355  0.3398  0.1744
   39MOL0     C 5158   6.303   2.170   1.649 -0.0375  0.4337 -1.0048
   39MOL0     C 5159   6.429   2.092   1.672  1.1777 -0.2760  0.2669
   39MOL0     O 5160   6.459   2.013   1.575 -0.7592  0.1863  0.8594
   39MOL0     C 5161   6.568   1.927   1.578 -0.3587  0.5399 -0.1730
   39MOL0     C 5162   6.585   1.826   1.667 -0.0715 -0.0130 -0.2964
   39MOL0     C 5163   6.686   1.728   1.652 -0.4633  0.0398  0.6131
   39MOL0     C 5164   6.780   1.738   1.548  0.9102 -0.0825  0.1758
   39MOL0     O 5165   6.871   1.637   1.543  0.2742 -0.6875  0.3264
   39MOL0     C 5166   6.942   1.619   1.418  0.8502  0.0092 -0.3603
   39MOL0     C 5167   7.064   1.706   1.409 -0.0309  0.6440 -0.6836
   39MOL0     C 5168   7.184   1.645   1.482  0.0724  1.0610  0.4300
   39MOL0     C 5169   7.304   1.732   1.488 -0.0872 -0.8635  0.0125
   39MOL0     C 5170   7.358   1.785   1.357 -0.0898 -0.0861  0.6479
   39MOL0     C 5171   7.451   1.688   1.288 -0.5623 -0.1546  0.6182
   39MOL0     C 5172   7.478   1.718   1.140 -0.6349  0.4660 -0.3058
   39MOL0     C 5173   7.583   1.623   1.081 -0.1990 -0.6143  0.0380
   39MOL0    Cl 5174   7.740   1.700   1.119 -0.0697  0.0237 -0.3024
   39MOL0     C 5175   6.770   1.849   1.457 -0.5372 -0.2213 -0.2992
   39MOL0     C 5176   6.665   1.938   1.480  0.5317  0.4937  0.3116
   39MOL0     O 5177   6.491   2.101   1.773 -0.4066  0.4026  0.2428
   39MOL0     C 5178   6.258   2.261   1.744  0.2729  0.1341 -0.4862
   39MOL0     C 5179   6.135   2.328   1.721 -0.2237  1.0880  0.5124
   39MOL0     N 5180   5.606   2.851   1.856 -0.1451  0.8796 -0.1950
   39MOL0     N 5181   5.505   2.907   1.906  0.3930  0.3817  0.7121
   39MOL0     C 5182   4.609   3.342   2.598  0.5283 -0.5790  0.5354
   39MOL0     C 5183   4.533   3.458   2.605  0.3420  0.5420 -0.7575
   39MOL0     C 5184   4.419   3.905   2.532  0.3010 -0.1230 -0.2035
   39MOL0     C 5185   4.288   3.865   2.573  0.8362  0.2629 -0.0221
   39MOL0     C 5186   4.182   3.961   2.580 -0.4681 -0.2616  0.1425
   39MOL0     C 5187   4.196   4.092   2.536  0.0576  0.1954 -0.0511
   39MOL0     O 5188   4.077   4.159   2.532  0.2280  0.5533 -0.3247
   39MOL0     C 5189   4.097   4.288   2.595 -0.1911 -0.8780 -0.4848
   39MOL0     C 5190   4.009   4.393   2.520  0.0520 -0.4522 -0.1730
   39MOL0     C 5191   3.857   4.350   2.510  0.1937  0.1433 -0.3062
   39MOL0     C 5192   3.790   4.469   2.457  0.5145  0.0853 -0.3915
   39MOL0     C 5193   3.653   4.437   2.409 -0.5496 -0.3643  0.6597
   39MOL0     C 5194   3.551   4.412   2.348  0.1330  0.0938 -0.2623
   39MOL0     C 5195   4.319   4.128   2.489  0.6167 -0.1440  0.5749
   39MOL0     C 5196   4.426   4.038   2.493 -0.3918 -0.2846 -0.7352
   39MOL0     C 5197   4.556   4.112   2.465 -1.3932  0.2062  0.1592
   39MOL0     H 5198   4.772   3.695   2.616 -3.6875  1.0965 -1.1342
   39MOL0     H 5199   4.918   3.490   2.577  0.3538 -1.3282 -1.7093
   39MOL0     H 5200   5.017   3.305   2.563 -1.8856  2.4693  0.8288
   39MOL0     H 5201   4.966   3.246   2.733 -0.5971 -3.0036  1.0652
   39MOL0     H 5202   4.945   3.022   2.654 -2.5050  1.6204 -1.0708
   39MOL0     H 5203   5.110   3.096   2.661 -0.9957  0.8564 -0.4571
   39MOL0     H 5204   5.089   3.131   2.409  0.4943 -0.6744 -0.5555
   39MOL0     H 5205   4.923   3.058   2.430 -0.5744 -1.4786 -0.9763
   39MOL0     H 5206   5.173   2.919   2.496 -0.5623 -2.1829 -0.4006
   39MOL0     H 5207   5.030   2.832   2.465  0.6183 -1.8083  1.4062
   39MOL0     H 5208   5.037   2.912   2.228  1.2745  2.5309 -1.3531
   39MOL0     H 5209   5.168   3.018   2.266 -4.3482  1.7844 -0.0252
   39MOL0     H 5210   5.258   2.760   2.372  3.3603  3.7984  0.7545
   39MOL0     H 5211   5.166   2.709   2.226 -2.4946  2.8512 -0.7040
   39MOL0     H 5212   5.403   2.727   2.190  1.0116 -0.1852 -2.4854
   39MOL0     H 5213   5.401   2.900   2.241  1.4865 -1.2087  0.5159
   39MOL0     H 5214   5.224   2.790   2.020  2.3343 -2.7969  0.0728
   39MOL0     H 5215   5.280   2.957   2.032 -0.4436 -0.0260 -0.5085
   39MOL0     H 5216   5.422   2.591   1.957 -1.8791  0.0670 -1.4411
   39MOL0     H 5217   5.793   2.652   1.866  0.8308 -1.5839  3.1414
   39MOL0     H 5218   5.683   2.532   1.926 -0.2164 -1.0917 -1.7415
   39MOL0     H 5219   5.555   2.540   1.699 -0.3659  1.1622  3.6829
   39MOL0     H 5220   5.678   2.648   1.640 -4.5118 -0.1550 -1.8035
   39MOL0     H 5221   5.716   2.420   1.547 -0.1105 -1.6574 -0.1766
   39MOL0     H 5222   5.697   2.356   1.713 -1.4273  1.3149  0.0929
   39MOL0     H 5223   5.919   2.444   1.768 -0.8660  0.0761 -0.0060
   39MOL0     H 5224   5.913   2.555   1.631  0.9555 -1.0721 -2.2143
   39MOL0     H 5225   6.048   2.182   1.421 -0.1692 -1.2458 -0.5937
   39MOL0     H 5226   6.247   2.059   1.467  0.6747  0.8349 -0.3035
   39MOL0     H 5227   6.507   1.818   1.742 -0.0240  2.6290  0.1260
   39MOL0     H 5228   6.694   1.636   1.708  1.8164 -3.2160 -4.3451
   39MOL0     H 5229   6.979   1.517   1.406  0.0748 -0.2178 -0.9142
   39MOL0     H 5230   6.876   1.634   1.332  1.4915 -0.5600 -0.9556
   39MOL0     H 5231   7.084   1.732   1.305  1.0724  1.1015 -0.3760
   39MOL0     H 5232   7.045   1.796   1.470 -1.1470  1.0715 -1.6283
   39MOL0     H 5233   7.145   1.635   1.583  0.0467 -1.8641  0.1993
   39MOL0     H 5234   7.197   1.546   1.437 -0.6952  0.9402  0.4541
   39MOL0     H 5235   7.385   1.678   1.539  1.1252  1.3269  0.5419
   39MOL0     H 5236   7.275   1.819   1.548  0.7900  0.9349 -2.0365
   39MOL0     H 5237   7.418   1.873   1.384  1.3495 -0.5979 -0.7102
   39MOL0     H 5238   7.277   1.828   1.297 -1.2758  0.3091  2.4616
   39MOL0     H 5239   7.547   1.679   1.339  0.5349 -0.7823 -1.4339
   39MOL0     H 5240   7.416   1.585   1.278  1.6503 -0.7802 -1.5824
   39MOL0     H 5241   7.523   1.817   1.123 -1.2243  0.5909 -1.1902
   39MOL0     H 5242   7.391   1.703   1.077  0.1660  1.9181 -1.8582
   39MOL0     H 5243   7.574   1.518   1.109  0.9066 -0.9447 -0.7531
   39MOL0     H 5244   7.570   1.618   0.972  2.2038  0.0915 -0.3547
   39MOL0     H 5245   6.839   1.862   1.374 -0.4349 -0.7445 -0.2978
   39MOL0     H 5246   6.647   2.012   1.402  2.4547 -1.1073 -1.7879
   39MOL0     H 5247   6.312   2.288   1.834  1.1099 -1.5193 -0.4485
   39MOL0     H 5248   6.108   2.403   1.794 -0.6023  1.4798 -0.0266
   39MOL0     H 5249   4.552   3.251   2.580  1.8573 -1.9067  2.5570
   39MOL0     H 5250   4.425   3.447   2.610 -0.0554  3.6747 -0.2032
   39MOL0     H 5251   4.270   3.763   2.607  1.0885  0.3843  0.4868
   39MOL0     H 5252   4.085   3.933   2.618 -0.9056  0.8498 -0.1147
   39MOL0     H 5253   4.197   4.329   2.582 -0.9290  0.2605 -3.1057
   39MOL0     H 5254   4.075   4.291   2.702  1.1763 -0.8259 -0.1846
   39MOL0     H 5255   4.051   4.393   2.419  1.1145  2.1295  0.2132
   39MOL0     H 5256   4.020   4.496   2.553 -2.5879  0.3533 -1.5765
   39MOL0     H 5257   3.829   4.320   2.611 -2.2592 -0.8812 -1.2087
   39MOL0     H 5258   3.845   4.263   2.444  0.0436  0.1133 -0.2393
   39MOL0     H 5259   3.780   4.544   2.537 -3.1297 -1.6508  0.9829
   39MOL0     H 5260   3.844   4.513   2.372  0.1115  1.4574  0.0252
   39MOL0     H 5261   3.460   4.375   2.305 -1.0022  1.3439  1.0000
   39MOL0     H 5262   4.330   4.230   2.454  1.6424 -0.3110  0.3978
   39MOL0     H 5263   4.645   4.083   2.523 -1.6600  1.1288  1.0532
   39MOL0     H 5264   4.587   4.097   2.361  0.6911  1.6134  0.5159
   39MOL0     H 5265   4.550   4.219   2.486 -2.5950  0.1982 -0.0739
   40MOL0     O 5266  11.173   9.827   1.452  0.1884  0.4377 -0.1955
   40MOL0     C 5267  11.152   9.788   1.567  0.9245  1.1922  0.4171
   40MOL0     O 5268  11.212   9.834   1.681 -0.8250  0.2072  0.9622
   40MOL0     C 5269  11.354   9.842   1.677 -0.1523 -0.1510  0.3611
   40MOL0     C 5270  11.443   9.765   1.593 -0.2349 -0.8107 -1.2986
   40MOL0     C 5271  11.580   9.795   1.589  0.0020  0.1283 -0.4421
   40MOL0     C 5272  11.631   9.897   1.657 -0.4302 -0.5526 -0.3765
   40MOL0     O 5273  11.762   9.931   1.629 -0.4682  0.0177  1.2427
   40MOL0     C 5274  11.825  10.018   1.727 -0.2459 -0.7134  0.1393
   40MOL0     C 5275  11.978  10.056   1.705 -0.8866 -0.1658 -0.1131
   40MOL0     C 5276  12.067   9.962   1.782 -0.8339  0.5210  0.3081
   40MOL0     C 5277  12.207   9.998   1.745  0.2918  0.3841 -0.1068
   40MOL0     C 5278  12.317   9.906   1.808  0.5844 -0.0961  0.4723
   40MOL0     C 5279  12.316   9.891   1.952 -0.0570  0.0727  0.3980
   40MOL0     C 5280  12.399   9.767   1.993  0.2773 -0.1876  0.1934
   40MOL0     C 5281  12.399   9.744   2.144 -0.2952 -0.6332 -0.1269
   40MOL0     N 5282  12.284   9.671   2.199  0.4159  1.3036 -0.0867
   40MOL0     C 5283  12.159   9.645   2.144 -0.2282 -0.4535  0.2007
   40MOL0     C 5284  12.094   9.579   2.245  0.3175  0.2730  0.4640
   40MOL0     C 5285  11.944   9.532   2.244 -0.2828 -0.3866 -0.2580
   40MOL0     C 5286  11.846   9.653   2.240  0.0230  0.4776 -0.4895
   40MOL0     C 5287  11.855   9.741   2.367  0.1765  0.3079  0.5857
   40MOL0     C 5288  11.731   9.833   2.388  0.1081  0.4233  0.3239
   40MOL0     O 5289  11.711   9.911   2.271 -0.5804  0.3909 -0.1189
   40MOL0     C 5290  11.803  10.001   2.228 -0.6244  0.7488  0.2904
   40MOL0     C 5291  11.790  10.046   2.097  0.3381 -0.2762 -0.0653
   40MOL0     C 5292  11.873  10.133   2.037 -0.2598 -0.5763  0.0788
   40MOL0     C 5293  11.982  10.192   2.108  1.1438  0.0030  0.4118
   40MOL0     C 5294  12.089  10.278   2.045 -0.1805  0.0409  0.7226
   40MOL0     O 5295  12.200  10.315   2.115  0.0896 -0.3623 -0.6078
   40MOL0     C 5296  12.290  10.395   2.051  0.2493 -0.0562 -1.5446
   40MOL0     C 5297  12.352  10.370   1.929  0.0141 -0.1520 -1.0670
   40MOL0     C 5298  12.458  10.455   1.888 -0.2300 -0.1773 -0.0962
   40MOL0     C 5299  12.506  10.561   1.966 -0.3175 -0.7011  0.2264
   40MOL0     O 5300  12.612  10.647   1.918 -0.5053 -0.2171  0.5703
   40MOL0     C 5301  12.675  10.733   2.016 -0.7100  0.8563  0.1290
   40MOL0     C 5302  12.780  10.823   1.938  0.2794  0.2255  0.2238
   40MOL0     C 5303  12.908  10.774   1.875 -0.0709 -0.2589 -0.0787
   40MOL0     C 5304  13.016  10.769   1.977 -0.3125  0.3058 -0.8316
   40MOL0     C 5305  13.143  10.723   1.895 -0.3421  0.4544 -1.4269
   40MOL0     C 5306  13.257  10.683   1.992  0.1857 -0.1377 -0.8572
   40MOL0     C 5307  13.231  10.555   2.077 -0.4214 -0.2760  0.7436
   40MOL0     C 5308  13.357  10.473   2.104  0.9925 -1.1581  0.2863
   40MOL0    Cl 5309  13.440  10.400   1.961 -0.2204  0.1063  0.0864
   40MOL0     C 5310  12.446  10.587   2.093  0.1849 -0.0670 -0.1986
   40MOL0     C 5311  12.335  10.509   2.123  0.0538 -0.2438 -0.0320
   40MOL0     O 5312  12.075  10.302   1.924 -0.0924  0.1705 -0.7049
   40MOL0     C 5313  12.003  10.139   2.230  0.5928  0.6460 -0.6938
   40MOL0     C 5314  11.922  10.043   2.290  0.5034  0.3637  0.5038
   40MOL0     N 5315  12.174   9.570   2.362  0.6697 -0.0347 -0.3902
   40MOL0     N 5316  12.282   9.626   2.326 -0.2141  0.3460 -0.3626
   40MOL0     C 5317  11.542   9.974   1.737  0.1795  1.0840  0.4028
   40MOL0     C 5318  11.409   9.952   1.749 -0.3388  0.3640 -0.6253
   40MOL0     C 5319  11.027   9.695   1.581 -0.4220  0.0145 -0.2764
   40MOL0     C 5320  10.936   9.685   1.484  0.8707 -0.5888 -0.6396
   40MOL0     C 5321  10.818   9.611   1.508 -0.4666 -0.1311  0.0440
   40MOL0     C 5322  10.797   9.532   1.617  0.8096  0.4518  0.5296
   40MOL0     O 5323  10.701   9.428   1.615 -0.0454  0.4469 -0.2159
   40MOL0     C 5324  10.573   9.451   1.551 -0.2400 -0.1519  0.2122
   40MOL0     C 5325  10.555   9.351   1.440  0.4645 -0.0822 -0.5491
   40MOL0     C 5326  10.550   9.208   1.494 -0.2989 -0.0070 -0.4682
   40MOL0     C 5327  10.519   9.119   1.379 -0.3641  0.5115  0.2556
   40MOL0     C 5328  10.378   9.113   1.343 -0.4401 -0.0288 -1.1649
   40MOL0     C 5329  10.270   9.092   1.313  1.6753  0.3044 -0.0503
   40MOL0     C 5330  10.898   9.534   1.712  0.5437 -0.1319 -0.4517
   40MOL0     C 5331  11.011   9.618   1.707  0.9783 -0.5763  0.0667
   40MOL0     C 5332  11.118   9.616   1.824  0.5717  0.1685 -0.7072
   40MOL0     H 5333  11.413   9.682   1.530  1.4650 -0.4128 -2.7195
   40MOL0     H 5334  11.655   9.743   1.529  0.2717  0.4690 -0.4043
   40MOL0     H 5335  11.772  10.114   1.728  0.9401  0.0408 -1.7940
   40MOL0     H 5336  11.817   9.968   1.823 -1.5029  0.6638  0.7793
   40MOL0     H 5337  11.995  10.153   1.753 -1.6726 -1.7014  3.5586
   40MOL0     H 5338  12.001  10.055   1.598 -0.0081 -0.9851  0.0716
   40MOL0     H 5339  12.048   9.860   1.748 -3.1441  1.7616 -2.5808
   40MOL0     H 5340  12.045   9.972   1.889 -1.6029  2.5342 -0.0001
   40MOL0     H 5341  12.217   9.997   1.636 -0.5554  0.1265 -0.1915
   40MOL0     H 5342  12.226  10.096   1.790  1.2246  0.0525  0.2306
   40MOL0     H 5343  12.292   9.810   1.761  0.4755  1.6065 -3.3149
   40MOL0     H 5344  12.414   9.936   1.769  0.2651  0.8619  0.3912
   40MOL0     H 5345  12.357   9.983   1.993  1.2904 -0.0393 -0.6198
   40MOL0     H 5346  12.213   9.881   1.988 -0.8672  3.2781 -0.7082
   40MOL0     H 5347  12.502   9.798   1.976  0.4261  1.3535  3.2504
   40MOL0     H 5348  12.370   9.674   1.943 -0.5173 -0.2806  0.8001
   40MOL0     H 5349  12.489   9.689   2.173 -0.7077 -2.4189 -1.9394
   40MOL0     H 5350  12.392   9.846   2.184 -1.8835 -0.7696 -0.0208
   40MOL0     H 5351  12.118   9.663   2.045  2.2475  0.1320 -0.7851
   40MOL0     H 5352  11.929   9.471   2.154 -0.5116 -1.5078  0.5284
   40MOL0     H 5353  11.919   9.473   2.332  1.0495  0.5241  0.7643
   40MOL0     H 5354  11.876   9.713   2.154 -1.9251  0.9684 -0.8816
   40MOL0     H 5355  11.743   9.618   2.222  0.1716 -0.2634  0.0552
   40MOL0     H 5356  11.953   9.790   2.362  0.9335 -1.2079 -0.4887
   40MOL0     H 5357  11.856   9.677   2.456 -0.6838 -0.9175 -0.2581
   40MOL0     H 5358  11.733   9.907   2.470  0.8080  2.5352 -1.4982
   40MOL0     H 5359  11.643   9.768   2.398  0.2062  0.3796  0.9846
   40MOL0     H 5360  11.710   9.991   2.048  0.2040  1.5187 -2.0040
   40MOL0     H 5361  11.871  10.171   1.935 -0.5051  2.0474  0.9706
   40MOL0     H 5362  12.327  10.279   1.876 -0.2510 -1.9255  1.9065
   40MOL0     H 5363  12.500  10.429   1.791 -1.3495 -0.1020 -0.6115
   40MOL0     H 5364  12.605  10.799   2.068  0.3661  1.5049  0.7794
   40MOL0     H 5365  12.736  10.673   2.084  1.1655  0.0079 -2.1477
   40MOL0     H 5366  12.723  10.869   1.857 -1.7723 -1.0326  0.8744
   40MOL0     H 5367  12.800  10.903   2.010 -1.0704  0.3474  0.4871
   40MOL0     H 5368  12.889  10.677   1.828  0.0451 -0.1037 -0.4510
   40MOL0     H 5369  12.930  10.850   1.799 -1.1764  0.7200  0.5595
   40MOL0     H 5370  12.992  10.696   2.055  0.0424  0.9917 -0.0674
   40MOL0     H 5371  13.028  10.866   2.027 -0.7988  0.1910 -0.4833
   40MOL0     H 5372  13.165  10.813   1.837  0.2234  2.1271  1.1677
   40MOL0     H 5373  13.119  10.635   1.836  0.5705 -0.2311 -0.8113
   40MOL0     H 5374  13.348  10.673   1.933  1.9057  3.1382  0.9592
   40MOL0     H 5375  13.267  10.769   2.059  0.0912 -0.2520 -0.6929
   40MOL0     H 5376  13.159  10.491   2.025  1.0767  1.0582 -3.3570
   40MOL0     H 5377  13.183  10.590   2.169 -1.6483  1.2384 -0.4138
   40MOL0     H 5378  13.426  10.524   2.172 -0.2102 -0.4574  1.0198
   40MOL0     H 5379  13.316  10.388   2.160  0.5953  0.8266  3.2782
   40MOL0     H 5380  12.474  10.664   2.163 -0.6125 -0.3571  0.4565
   40MOL0     H 5381  12.290  10.539   2.217  0.0018  1.5825 -0.5907
   40MOL0     H 5382  12.091  10.167   2.287  0.3256  0.9974 -0.4532
   40MOL0     H 5383  11.944  10.011   2.391 -1.7821  1.5632  1.4546
   40MOL0     H 5384  11.580  10.062   1.788  1.8668 -0.7533  2.4707
   40MOL0     H 5385  11.349  10.010   1.819 -0.2520 -0.7778  0.4268
   40MOL0     H 5386  10.943   9.749   1.397 -0.0271  0.8185  0.2694
   40MOL0     H 5387  10.752   9.602   1.423  1.6904  0.0487 -1.7416
   40MOL0     H 5388  10.572   9.551   1.507  2.8739 -0.3479 -0.5588
   40MOL0     H 5389  10.490   9.434   1.620 -1.5379  0.3164 -1.1709
   40MOL0     H 5390  10.635   9.364   1.367  0.4308  0.3027 -0.5177
   40MOL0     H 5391  10.459   9.377   1.393 -0.1953 -1.7782 -0.2171
   40MOL0     H 5392  10.474   9.192   1.571 -0.3538  0.8290 -0.3339
   40MOL0     H 5393  10.640   9.172   1.545 -1.4684 -3.7995 -0.8513
   40MOL0     H 5394  10.587   9.144   1.297 -0.0761 -1.5816 -0.1999
   40MOL0     H 5395  10.546   9.019   1.415 -1.9636 -0.6278 -1.5443
   40MOL0     H 5396  10.173   9.052   1.290  3.0876 -2.9203 -0.9617
   40MOL0     H 5397  10.881   9.462   1.791 -0.6929  1.2987  0.6420
   40MOL0     H 5398  11.116   9.524   1.883  0.8579  1.2413  1.0483
   40MOL0     H 5399  11.221   9.625   1.790  0.7874 -0.2903 -0.1811
   40MOL0     H 5400  11.085   9.699   1.888 -3.4167 -3.1699  2.1167
   41MOL0     O 5401   3.878   0.660   0.617 -0.3186  0.1459 -0.4024
   41MOL0     C 5402   3.895   0.540   0.595 -0.5276  0.0079 -0.4858
   41MOL0     O 5403   4.015   0.485   0.553  0.2716  0.2750  0.7462
   41MOL0     C 5404   4.133   0.549   0.567 -0.3543 -1.7974 -0.7342
   41MOL0     C 5405   4.243   0.493   0.500  0.2033 -0.4707 -0.1277
   41MOL0     C 5406   4.378   0.534   0.527 -0.1163  0.3754  0.1421
   41MOL0     C 5407   4.401   0.631   0.627 -1.1462  0.8556 -0.2696
   41MOL0     O 5408   4.518   0.701   0.644  0.0105 -0.4153 -0.5559
   41MOL0     C 5409   4.622   0.620   0.694 -0.3039  0.8175 -0.9692
   41MOL0     C 5410   4.762   0.693   0.695  0.3752 -0.1294 -0.1136
   41MOL0     C 5411   4.878   0.607   0.727 -0.9647 -0.0295  0.1417
   41MOL0     C 5412   5.005   0.697   0.730  0.2911  0.3080  0.7516
   41MOL0     C 5413   5.129   0.610   0.765  0.4317 -0.5232 -0.2076
   41MOL0     C 5414   5.253   0.703   0.762 -0.5668  0.2015  0.2720
   41MOL0     C 5415   5.385   0.650   0.825 -0.8248  0.0379  0.0545
   41MOL0     C 5416   5.500   0.751   0.798  0.4947 -0.3128 -0.0844
   41MOL0     N 5417   5.621   0.681   0.828  0.5302  0.6029 -0.9467
   41MOL0     C 5418   5.736   0.755   0.836 -0.2343 -0.3275  0.3787
   41MOL0     C 5419   5.820   0.646   0.831  0.0668  1.1555 -0.5361
   41MOL0     C 5420   5.970   0.652   0.841  0.2322  0.1515  0.4631
   41MOL0     C 5421   6.050   0.627   0.709  0.4706 -0.9582 -0.5854
   41MOL0     C 5422   6.197   0.646   0.725 -0.3233  0.0440 -0.2896
   41MOL0     C 5423   6.255   0.529   0.807  0.8015 -0.9295  0.0946
   41MOL0     O 5424   6.388   0.503   0.756  0.0327 -0.7563 -0.3070
   41MOL0     C 5425   6.475   0.408   0.811  0.3322  0.2961  0.4831
   41MOL0     C 5426   6.608   0.401   0.764 -0.8920  0.6615 -1.2463
   41MOL0     C 5427   6.699   0.300   0.808 -0.2830 -0.5608  0.3292
   41MOL0     C 5428   6.661   0.204   0.908 -0.0290 -0.8248  0.3967
   41MOL0     C 5429   6.755   0.111   0.960 -0.1800  0.7449  0.4717
   41MOL0     O 5430   6.867   0.078   0.881 -0.2310 -0.2131  0.4038
   41MOL0     C 5431   6.959  -0.007   0.932 -0.0768  0.1561 -1.0855
   41MOL0     C 5432   7.090   0.027   0.903 -0.2271  0.6758 -0.6437
   41MOL0     C 5433   7.193  -0.059   0.930  0.6444  0.0208 -1.3008
   41MOL0     C 5434   7.169  -0.182   0.990  0.1804  1.0378 -0.2660
   41MOL0     O 5435   7.281  -0.263   1.007  0.2912  0.3495  0.3227
   41MOL0     C 5436   7.263  -0.351   1.117 -0.0388  0.1146  0.0441
   41MOL0     C 5437   7.398  -0.398   1.157  0.0484  0.0368 -0.3099
   41MOL0     C 5438   7.469  -0.481   1.045  0.4680 -0.0313 -0.2395
   41MOL0     C 5439   7.539  -0.608   1.086 -0.8031 -0.0965 -0.1251
   41MOL0     C 5440   7.629  -0.672   0.982 -0.0378  0.1610  0.1283
   41MOL0     C 5441   7.556  -0.713   0.854 -0.4514  0.3373 -0.5138
   41MOL0     C 5442   7.647  -0.797   0.758 -0.4795  0.2540 -1.2095
   41MOL0     C 5443   7.637  -0.939   0.808 -0.3176  0.6132 -0.4392
   41MOL0    Cl 5444   7.494  -1.005   0.737 -0.2912 -0.1472  0.4739
   41MOL0     C 5445   7.036  -0.221   1.014 -0.1849  0.2802 -0.0581
   41MOL0     C 5446   6.934  -0.134   0.982 -0.0028  0.5439 -0.6099
   41MOL0     O 5447   6.734   0.069   1.069  0.0414  0.1913  0.1057
   41MOL0     C 5448   6.521   0.215   0.949  0.0271  0.0700 -0.4656
   41MOL0     C 5449   6.435   0.309   0.903  0.5871 -0.9580 -0.1126
   41MOL0     N 5450   5.768   0.530   0.802 -0.2042  0.7935  0.4025
   41MOL0     N 5451   5.642   0.545   0.819 -0.0992  0.2983 -0.5729
   41MOL0     C 5452   4.293   0.688   0.695 -0.1487 -0.0844  0.5880
   41MOL0     C 5453   4.161   0.655   0.663 -0.6438 -0.4967  0.5543
   41MOL0     C 5454   3.781   0.448   0.607 -0.3909 -0.2465 -0.0977
   41MOL0     C 5455   3.665   0.506   0.663 -0.3043  0.5747 -0.1430
   41MOL0     C 5456   3.549   0.432   0.676 -0.2912  0.5353 -0.5501
   41MOL0     C 5457   3.549   0.297   0.644 -0.1224 -0.2127 -0.1406
   41MOL0     O 5458   3.437   0.220   0.657  0.6803  0.2900 -0.3159
   41MOL0     C 5459   3.308   0.278   0.669  0.0289  0.4028 -0.1048
   41MOL0     C 5460   3.268   0.298   0.818 -0.4201  0.1633  0.2501
   41MOL0     C 5461   3.157   0.391   0.825  0.2302 -0.2075 -0.2044
   41MOL0     C 5462   3.017   0.317   0.837  0.0022 -1.1460  0.0304
   41MOL0     C 5463   2.954   0.322   0.705  0.1246  0.0371 -0.0932
   41MOL0     C 5464   2.893   0.304   0.602 -0.2994  0.4019  0.0396
   41MOL0     C 5465   3.660   0.242   0.588 -0.2569 -0.4233 -1.0707
   41MOL0     C 5466   3.776   0.314   0.574 -0.1920  0.6351 -0.3391
   41MOL0     C 5467   3.882   0.235   0.514 -0.6019 -0.4564 -0.0110
   41MOL0     H 5468   4.215   0.414   0.431 -1.9595  1.7624 -2.0207
   41MOL0     H 5469   4.458   0.517   0.456  0.5799  1.7378  0.5589
   41MOL0     H 5470   4.605   0.581   0.795  0.2348  2.4527 -0.2125
   41MOL0     H 5471   4.646   0.535   0.628  3.0064  2.0200 -1.4935
   41MOL0     H 5472   4.742   0.784   0.753  0.0532 -0.7713  0.8127
   41MOL0     H 5473   4.778   0.718   0.590 -0.3642 -0.6917 -0.3689
   41MOL0     H 5474   4.891   0.521   0.662 -2.8087 -1.4553  1.5445
   41MOL0     H 5475   4.870   0.568   0.829 -1.4904 -0.9872 -0.2525
   41MOL0     H 5476   5.010   0.743   0.631  1.1562 -1.0539  0.1355
   41MOL0     H 5477   4.988   0.766   0.813 -0.4899 -1.4871  2.1377
   41MOL0     H 5478   5.110   0.579   0.868 -0.3215  1.3341  0.2416
   41MOL0     H 5479   5.149   0.513   0.719 -0.6463 -0.2700 -1.2338
   41MOL0     H 5480   5.268   0.733   0.657 -0.3776  1.8925  0.7505
   41MOL0     H 5481   5.223   0.794   0.815 -0.9467  1.3194 -1.7506
   41MOL0     H 5482   5.402   0.555   0.773 -0.2393 -0.2117  0.6901
   41MOL0     H 5483   5.368   0.637   0.932  2.8406  1.4453  0.9439
   41MOL0     H 5484   5.501   0.787   0.694 -1.0087  0.6035  0.1836
   41MOL0     H 5485   5.487   0.837   0.864  0.7457 -0.2754 -0.0823
   41MOL0     H 5486   5.746   0.862   0.851  0.3196 -0.4536  1.0014
   41MOL0     H 5487   6.001   0.740   0.899 -1.8105 -1.6034  4.6546
   41MOL0     H 5488   5.998   0.573   0.911  0.4200 -0.8518 -0.7087
   41MOL0     H 5489   6.023   0.529   0.667 -0.6119 -2.0475  2.4233
   41MOL0     H 5490   6.010   0.698   0.637 -0.4764  3.2443  3.6380
   41MOL0     H 5491   6.216   0.745   0.768  1.3418 -0.0318 -0.7910
   41MOL0     H 5492   6.245   0.648   0.627  0.7217 -4.5685 -0.1004
   41MOL0     H 5493   6.194   0.439   0.793 -2.1562  1.1238 -1.5037
   41MOL0     H 5494   6.267   0.544   0.914  0.7688 -0.0617 -0.0151
   41MOL0     H 5495   6.625   0.480   0.692 -2.1157  0.6437 -1.5620
   41MOL0     H 5496   6.800   0.311   0.771  0.2910 -2.4703  1.1766
   41MOL0     H 5497   7.117   0.127   0.871  0.8158 -0.1344 -2.4756
   41MOL0     H 5498   7.295  -0.028   0.913 -0.3760  4.0423 -1.0108
   41MOL0     H 5499   7.206  -0.305   1.198  0.2678  2.2668 -0.9030
   41MOL0     H 5500   7.207  -0.439   1.085  2.1511 -1.0154 -0.8817
   41MOL0     H 5501   7.471  -0.322   1.184 -3.2162  2.6813  1.7875
   41MOL0     H 5502   7.383  -0.456   1.248 -1.7347  1.5280  0.3799
   41MOL0     H 5503   7.393  -0.525   0.979  0.4245  0.3413 -0.4387
   41MOL0     H 5504   7.539  -0.424   0.984  0.0921  1.5664  0.7533
   41MOL0     H 5505   7.464  -0.683   1.110 -0.0115 -0.5959  0.8698
   41MOL0     H 5506   7.596  -0.589   1.177 -0.7057  3.8358 -0.8265
   41MOL0     H 5507   7.671  -0.758   1.033  1.4050  0.2616 -0.8557
   41MOL0     H 5508   7.705  -0.596   0.960  1.3736 -0.9379  1.0439
   41MOL0     H 5509   7.455  -0.754   0.859  0.1543 -1.0163  1.7222
   41MOL0     H 5510   7.533  -0.613   0.816 -2.1260 -0.6824 -2.3920
   41MOL0     H 5511   7.748  -0.756   0.760 -0.9781  1.5308  0.4039
   41MOL0     H 5512   7.605  -0.781   0.658 -2.9108 -0.3026 -0.3490
   41MOL0     H 5513   7.717  -0.999   0.764 -0.8165  0.2367 -0.8578
   41MOL0     H 5514   7.647  -0.950   0.916  1.1247 -3.0700 -0.8071
   41MOL0     H 5515   7.015  -0.324   1.039 -1.6126  0.9325  1.6230
   41MOL0     H 5516   6.829  -0.155   1.000 -0.0184  1.7212  0.9549
   41MOL0     H 5517   6.492   0.138   1.019 -0.6282  0.9635  0.2576
   41MOL0     H 5518   6.327   0.308   0.911  0.0016  1.8172 -4.4791
   41MOL0     H 5519   4.302   0.769   0.766  1.6415  2.0125 -1.8623
   41MOL0     H 5520   4.082   0.716   0.707 -0.2223  3.0319 -3.0578
   41MOL0     H 5521   3.659   0.607   0.702 -1.7254  1.4482 -2.4423
   41MOL0     H 5522   3.467   0.488   0.718 -1.6132 -1.0797 -0.8436
   41MOL0     H 5523   3.237   0.225   0.605  1.3673  1.3333 -2.5035
   41MOL0     H 5524   3.300   0.374   0.619 -0.9135 -0.4182 -1.6268
   41MOL0     H 5525   3.357   0.330   0.874 -0.4347 -2.6506  2.0855
   41MOL0     H 5526   3.237   0.203   0.860  1.4753 -1.4981 -1.8460
   41MOL0     H 5527   3.148   0.466   0.745 -3.6914  0.9423  1.0825
   41MOL0     H 5528   3.171   0.456   0.912 -1.3385  1.4540 -1.1142
   41MOL0     H 5529   3.025   0.211   0.860  5.1493 -0.6765  1.7068
   41MOL0     H 5530   2.947   0.369   0.903  0.3872 -0.2737 -0.2215
   41MOL0     H 5531   2.865   0.291   0.499  3.6610  0.7914 -1.2747
   41MOL0     H 5532   3.662   0.135   0.570 -0.1598 -1.0131  1.8752
   41MOL0     H 5533   3.957   0.186   0.577  1.9140  3.3946  0.3617
   41MOL0     H 5534   3.836   0.163   0.446 -3.6171  1.3883 -0.0935
   41MOL0     H 5535   3.940   0.300   0.447  0.2473  1.6093  2.5610
   42MOL0     O 5536   7.705   8.070   1.353 -0.1238 -0.0128 -0.0156
   42MOL0     C 5537   7.726   7.970   1.278  0.2644  0.3991 -0.6495
   42MOL0     O 5538   7.849   7.910   1.260 -0.1623  0.3232  0.3445
   42MOL0     C 5539   7.969   7.968   1.300  0.7690 -0.0353  0.2525
   42MOL0     C 5540   8.076   7.887   1.317 -0.5143 -0.0283 -0.3577
   42MOL0     C 5541   8.209   7.938   1.354  0.2937  0.1844 -0.1061
   42MOL0     C 5542   8.222   8.072   1.379 -0.5991 -0.0146  0.1150
   42MOL0     O 5543   8.338   8.138   1.400 -0.0987  1.0987  0.1120
   42MOL0     C 5544   8.465   8.074   1.383  0.9418  0.0756  0.6048
   42MOL0     C 5545   8.502   8.016   1.523 -0.3584 -0.4682  0.1929
   42MOL0     C 5546   8.650   7.976   1.537 -0.2607  0.1420 -0.1433
   42MOL0     C 5547   8.683   7.903   1.672  1.2720  0.5337  0.3528
   42MOL0     C 5548   8.832   7.885   1.673  0.0420  0.1874 -0.0168
   42MOL0     C 5549   8.899   7.854   1.816  1.0026 -0.2961  0.9396
   42MOL0     C 5550   8.876   7.978   1.908  0.0466 -0.1620 -0.1559
   42MOL0     C 5551   8.976   7.969   2.021  0.0684  0.0992 -0.0887
   42MOL0     N 5552   8.977   8.100   2.090 -0.1769  0.2235  0.0176
   42MOL0     C 5553   8.871   8.162   2.151  0.1433  0.0561  0.3354
   42MOL0     C 5554   8.916   8.279   2.207 -1.0022  0.4377 -0.0460
   42MOL0     C 5555   8.823   8.373   2.297 -0.4534  0.4105 -0.1373
   42MOL0     C 5556   8.676   8.392   2.265 -0.5226  0.1508  0.5786
   42MOL0     C 5557   8.664   8.478   2.135  0.2069 -0.2919 -0.1996
   42MOL0     C 5558   8.526   8.491   2.068 -0.2057  0.4218  0.5220
   42MOL0     O 5559   8.484   8.362   2.027 -0.1081 -0.8812  0.4749
   42MOL0     C 5560   8.373   8.366   1.945 -0.3431  0.2514  1.1428
   42MOL0     C 5561   8.329   8.248   1.881 -0.7855 -0.1383  0.4057
   42MOL0     C 5562   8.213   8.236   1.801 -0.4504 -0.0544  0.3497
   42MOL0     C 5563   8.141   8.348   1.764  0.0787 -0.0907 -0.8243
   42MOL0     C 5564   8.023   8.337   1.679  0.9146  0.6068 -0.0554
   42MOL0     O 5565   7.967   8.456   1.632  0.3549  0.1615 -0.0470
   42MOL0     C 5566   7.846   8.464   1.571  0.2503  0.4526 -0.6178
   42MOL0     C 5567   7.767   8.353   1.534  0.4148  0.5960  0.2006
   42MOL0     C 5568   7.639   8.365   1.490  1.0899 -0.3196 -0.1077
   42MOL0     C 5569   7.575   8.494   1.492  0.6338  0.2054  0.7445
   42MOL0     O 5570   7.444   8.494   1.452  0.8388  0.2030  0.1796
   42MOL0     C 5571   7.350   8.595   1.502  0.0762 -0.1078 -0.3113
   42MOL0     C 5572   7.254   8.634   1.384  0.0953 -0.1989 -0.8028
   42MOL0     C 5573   7.171   8.519   1.324 -0.1885 -1.4811  0.2424
   42MOL0     C 5574   7.062   8.572   1.229 -0.5749  0.6597  0.0604
   42MOL0     C 5575   6.958   8.454   1.226  0.3311  0.2831 -0.6662
   42MOL0     C 5576   6.848   8.488   1.122 -1.0788  0.4911 -0.3586
   42MOL0     C 5577   6.742   8.390   1.154  0.7480  0.4032 -0.1514
   42MOL0     C 5578   6.638   8.389   1.038  0.3514 -0.2337  0.7297
   42MOL0    Cl 5579   6.543   8.542   1.032  0.3929 -0.3342 -0.1123
   42MOL0     C 5580   7.647   8.607   1.525  0.1788  0.8409  0.1872
   42MOL0     C 5581   7.786   8.590   1.570  0.9244 -0.4052 -0.0468
   42MOL0     O 5582   7.983   8.221   1.666 -0.3359 -0.0712  0.5290
   42MOL0     C 5583   8.181   8.469   1.828 -0.1393 -0.0291  0.7189
   42MOL0     C 5584   8.292   8.478   1.905  0.3441  0.4854 -0.6782
   42MOL0     N 5585   9.053   8.290   2.167  0.1403  0.1306 -0.2714
   42MOL0     N 5586   9.078   8.190   2.083  0.3005 -0.2206 -0.6181
   42MOL0     C 5587   8.107   8.152   1.362 -0.6773 -0.6812 -0.4341
   42MOL0     C 5588   7.984   8.104   1.322 -0.1588  0.7181  0.5803
   42MOL0     C 5589   7.600   7.904   1.238 -0.3592 -0.2766  0.2499
   42MOL0     C 5590   7.607   7.763   1.206  0.0087 -0.6931 -0.0739
   42MOL0     C 5591   7.494   7.684   1.194  0.4123 -0.0454  1.1439
   42MOL0     C 5592   7.368   7.746   1.185 -0.0705  0.5900 -0.6558
   42MOL0     O 5593   7.272   7.653   1.159 -0.3099  0.5588 -0.0870
   42MOL0     C 5594   7.144   7.703   1.147  0.6700 -0.0215  0.2829
   42MOL0     C 5595   7.118   7.740   0.999  0.4517 -0.5116  0.5557
   42MOL0     C 5596   6.972   7.784   0.985 -0.2336 -0.1028  0.0461
   42MOL0     C 5597   6.946   7.937   1.019 -0.0189  0.1154 -0.4081
   42MOL0     C 5598   6.961   8.024   0.901  0.0184 -0.3850 -0.2685
   42MOL0     C 5599   6.966   8.100   0.802  0.1428 -0.0634 -0.4383
   42MOL0     C 5600   7.359   7.890   1.201  0.4375  0.6196 -1.1826
   42MOL0     C 5601   7.472   7.966   1.226  0.3138  0.2496  0.1159
   42MOL0     C 5602   7.460   8.116   1.229 -0.0546 -0.5172 -0.2516
   42MOL0     H 5603   8.054   7.784   1.293 -1.3820 -0.3038  1.4310
   42MOL0     H 5604   8.287   7.865   1.372  0.9552  0.5933 -1.2330
   42MOL0     H 5605   8.473   7.999   1.304 -1.4617  0.0826  0.2615
   42MOL0     H 5606   8.536   8.154   1.359  0.9356  0.1794  0.9293
   42MOL0     H 5607   8.449   7.922   1.537  1.9259 -1.9820 -0.7657
   42MOL0     H 5608   8.475   8.079   1.608 -1.3265 -2.9892  1.8555
   42MOL0     H 5609   8.714   8.065   1.536  0.0777 -0.0853 -1.4039
   42MOL0     H 5610   8.685   7.918   1.451 -0.6381 -0.3456  0.0283
   42MOL0     H 5611   8.635   7.961   1.752 -2.1283 -1.2928 -0.1971
   42MOL0     H 5612   8.627   7.809   1.679 -2.2277  2.4320 -0.1413
   42MOL0     H 5613   8.858   7.802   1.606 -1.4430 -0.7632  0.5209
   42MOL0     H 5614   8.873   7.976   1.629  0.3593 -0.2588 -0.6653
   42MOL0     H 5615   8.849   7.763   1.851  0.2489 -0.4886 -0.5581
   42MOL0     H 5616   9.005   7.827   1.808  0.7148 -1.0033 -1.3730
   42MOL0     H 5617   8.771   7.980   1.939 -0.2917  0.6851 -1.2819
   42MOL0     H 5618   8.889   8.072   1.854  1.0547  0.0293  0.4044
   42MOL0     H 5619   8.941   7.892   2.091  0.7516 -0.8980 -0.8075
   42MOL0     H 5620   9.072   7.929   1.988 -0.8217 -1.8125 -0.5536
   42MOL0     H 5621   8.767   8.130   2.156 -1.4153  4.4226  0.3306
   42MOL0     H 5622   8.838   8.358   2.405 -0.8912  2.4439  0.2403
   42MOL0     H 5623   8.874   8.467   2.276  1.0439 -0.8272 -2.5096
   42MOL0     H 5624   8.632   8.299   2.229  1.8531 -0.2141 -1.6394
   42MOL0     H 5625   8.622   8.434   2.351  1.0325 -1.2249  2.3174
   42MOL0     H 5626   8.743   8.454   2.063 -0.0618  1.4305 -1.1224
   42MOL0     H 5627   8.685   8.579   2.171  0.0543 -0.0840 -0.6903
   42MOL0     H 5628   8.534   8.550   1.976 -2.2312 -1.4065 -0.9429
   42MOL0     H 5629   8.456   8.535   2.139  0.3586  1.4737  0.4388
   42MOL0     H 5630   8.381   8.155   1.903 -3.0208 -1.3409  0.9920
   42MOL0     H 5631   8.184   8.143   1.753  1.3906 -0.3895 -0.1856
   42MOL0     H 5632   7.815   8.255   1.529 -1.1801 -0.1327 -1.4872
   42MOL0     H 5633   7.590   8.277   1.452  1.0311 -0.2070 -0.2930
   42MOL0     H 5634   7.285   8.546   1.575  3.8540 -3.6110  1.1390
   42MOL0     H 5635   7.394   8.688   1.539  0.2101  0.2698 -1.4113
   42MOL0     H 5636   7.183   8.711   1.416 -2.0741 -1.8180 -1.4860
   42MOL0     H 5637   7.315   8.676   1.303 -0.4953  0.8744 -0.7136
   42MOL0     H 5638   7.235   8.453   1.263  0.3168  0.7973 -1.8466
   42MOL0     H 5639   7.131   8.447   1.395 -3.1798 -1.5316 -1.3266
   42MOL0     H 5640   7.110   8.592   1.133 -0.6436 -0.3756 -0.2081
   42MOL0     H 5641   7.009   8.658   1.271 -1.0931  0.4822 -0.2234
   42MOL0     H 5642   6.912   8.439   1.324 -0.9095  2.2434 -0.8865
   42MOL0     H 5643   7.012   8.361   1.207  1.3800  0.6620  0.3381
   42MOL0     H 5644   6.808   8.590   1.131  0.0147  0.8968  0.0766
   42MOL0     H 5645   6.892   8.477   1.022  0.9435  0.5680  0.4866
   42MOL0     H 5646   6.688   8.414   1.246 -1.9437  2.8880 -2.2121
   42MOL0     H 5647   6.781   8.287   1.161  1.5412  0.7934  2.3165
   42MOL0     H 5648   6.700   8.373   0.950  1.0820  1.6555  0.8405
   42MOL0     H 5649   6.564   8.310   1.054  1.8937 -2.1580 -1.1303
   42MOL0     H 5650   7.604   8.706   1.531  0.8914  1.0833  2.1961
   42MOL0     H 5651   7.842   8.681   1.584 -2.7185  1.9685  0.4477
   42MOL0     H 5652   8.112   8.550   1.804  1.4465  1.5536  1.3061
   42MOL0     H 5653   8.308   8.573   1.956  0.1221  0.1009  0.1396
   42MOL0     H 5654   8.117   8.256   1.394  0.1873 -0.5476 -1.0888
   42MOL0     H 5655   7.904   8.176   1.306 -1.6248 -1.1136 -0.7155
   42MOL0     H 5656   7.704   7.716   1.219  1.0006  1.7170  2.1530
   42MOL0     H 5657   7.505   7.576   1.198  0.8803 -0.0815 -0.3412
   42MOL0     H 5658   7.121   7.775   1.226 -0.3185 -0.0768  0.0562
   42MOL0     H 5659   7.081   7.617   1.169 -1.0015 -0.0852 -3.8961
   42MOL0     H 5660   7.144   7.648   0.946 -2.9819 -0.4302 -1.5768
   42MOL0     H 5661   7.178   7.822   0.960 -1.1759  0.9499  0.9698
   42MOL0     H 5662   6.915   7.730   1.062 -0.7412 -2.0105 -1.5810
   42MOL0     H 5663   6.936   7.762   0.885  0.0067 -3.1597  0.5072
   42MOL0     H 5664   6.843   7.946   1.056 -0.1950  0.1306 -0.8988
   42MOL0     H 5665   7.019   7.967   1.095  1.5634  0.9995 -2.1882
   42MOL0     H 5666   6.964   8.156   0.711 -0.8560  1.7505  0.6485
   42MOL0     H 5667   7.266   7.938   1.175 -0.0996 -0.3197 -1.0571
   42MOL0     H 5668   7.523   8.166   1.154  1.6834  1.3990  2.3085
   42MOL0     H 5669   7.362   8.144   1.188  0.0616  0.6668  0.2368
   42MOL0     H 5670   7.459   8.155   1.331 -0.9621  1.4265 -0.9447
   43MOL0     O 5671   7.951   6.440   1.725 -0.1872 -0.6246 -0.0356
   43MOL0     C 5672   7.958   6.355   1.808 -0.1518 -0.2560  0.1173
   43MOL0     O 5673   8.077   6.324   1.864 -0.3479 -0.1882  0.1283
   43MOL0     C 5674   8.196   6.372   1.812  0.6379 -0.4604 -1.1891
   43MOL0     C 5675   8.286   6.289   1.742 -0.2654 -0.2464  1.1478
   43MOL0     C 5676   8.415   6.337   1.704  0.2132 -0.3418 -0.1478
   43MOL0     C 5677   8.455   6.461   1.756 -0.1517  0.2188  0.6180
   43MOL0     O 5678   8.569   6.530   1.710 -0.5243 -0.0200 -0.8256
   43MOL0     C 5679   8.688   6.450   1.697  0.2756  0.1053 -0.4536
   43MOL0     C 5680   8.777   6.490   1.580  0.1032  0.3658 -0.3536
   43MOL0     C 5681   8.806   6.645   1.594 -0.2259  0.5009  0.2763
   43MOL0     C 5682   8.907   6.690   1.484  0.0548 -0.0144 -0.2406
   43MOL0     C 5683   8.943   6.840   1.504 -0.1401  1.1637 -0.7047
   43MOL0     C 5684   9.050   6.883   1.401 -0.1822 -0.1905 -0.2503
   43MOL0     C 5685   9.098   7.027   1.436 -0.4710  0.3979 -0.2362
   43MOL0     C 5686   8.998   7.130   1.393  0.3040 -0.5975  0.2685
   43MOL0     N 5687   9.065   7.262   1.376  0.1930  0.5558  0.1189
   43MOL0     C 5688   9.156   7.295   1.276  0.0319  0.1676 -0.0695
   43MOL0     C 5689   9.203   7.419   1.303 -0.1095 -0.3400 -0.2745
   43MOL0     C 5690   9.294   7.491   1.209  0.5192 -0.3516  0.3647
   43MOL0     C 5691   9.414   7.404   1.179 -0.1556  0.3370 -0.4982
   43MOL0     C 5692   9.522   7.486   1.104  0.6997  0.5661  0.1882
   43MOL0     C 5693   9.665   7.432   1.094 -0.1213 -0.0620  0.0398
   43MOL0     O 5694   9.747   7.531   1.033 -0.3832  0.2395 -0.2282
   43MOL0     C 5695   9.885   7.513   1.009 -0.2617  0.8476 -0.2389
   43MOL0     C 5696   9.960   7.400   1.034  0.4194  0.0740  0.7959
   43MOL0     C 5697  10.095   7.377   0.999  0.7674  0.0768  0.0159
   43MOL0     C 5698  10.165   7.491   0.960  1.1072  0.3515 -0.5025
   43MOL0     C 5699  10.316   7.483   0.955  0.0168  0.1147  0.3635
   43MOL0     O 5700  10.370   7.383   1.023  0.1137  0.2201  0.1759
   43MOL0     C 5701  10.498   7.379   1.054 -0.0945 -0.0503  0.2250
   43MOL0     C 5702  10.573   7.494   1.086 -0.0837  0.0872 -0.7234
   43MOL0     C 5703  10.706   7.477   1.124  0.3642 -0.4182  0.2366
   43MOL0     C 5704  10.779   7.359   1.118 -0.1861  0.0375  0.3758
   43MOL0     O 5705  10.914   7.329   1.138  0.2150  0.3580 -0.0097
   43MOL0     C 5706  10.982   7.397   1.245 -0.0162  0.0709  0.5641
   43MOL0     C 5707  11.131   7.355   1.247  0.1882 -0.0529  0.0834
   43MOL0     C 5708  11.200   7.368   1.381 -0.9834 -0.1149 -0.3593
   43MOL0     C 5709  11.346   7.326   1.361  0.1507  0.1910  0.4417
   43MOL0     C 5710  11.411   7.322   1.501  0.0798 -0.2339 -0.4363
   43MOL0     C 5711  11.557   7.288   1.494  0.1458 -0.3955 -0.3143
   43MOL0     C 5712  11.612   7.270   1.641  0.1303  0.2986  0.5573
   43MOL0     C 5713  11.762   7.252   1.642  0.7362  0.1224 -0.0951
   43MOL0    Cl 5714  11.852   7.364   1.550  0.1825  0.4843  0.0518
   43MOL0     C 5715  10.707   7.248   1.085  0.4928  0.0529 -0.0177
   43MOL0     C 5716  10.572   7.255   1.055  0.8891  0.1623 -0.2086
   43MOL0     O 5717  10.372   7.572   0.894  0.0703 -0.6802 -0.4891
   43MOL0     C 5718  10.094   7.617   0.947 -0.1706 -0.1447  0.1434
   43MOL0     C 5719   9.958   7.623   0.966  0.0178  0.5416 -0.9288
   43MOL0     N 5720   9.136   7.455   1.425 -0.2240 -0.4022 -0.5011
   43MOL0     N 5721   9.052   7.366   1.462 -0.3449  0.8215 -0.2662
   43MOL0     C 5722   8.362   6.546   1.824 -0.6257  0.9094 -0.5263
   43MOL0     C 5723   8.234   6.500   1.855 -0.3749  0.1117 -0.5014
   43MOL0     C 5724   7.839   6.293   1.862 -0.3023 -0.1767 -0.8231
   43MOL0     C 5725   7.819   6.317   2.001  0.3668  0.7919  0.6316
   43MOL0     C 5726   7.704   6.267   2.062 -0.9985  0.1375 -0.2421
   43MOL0     C 5727   7.618   6.183   1.997 -0.4187 -0.0244 -0.7267
   43MOL0     O 5728   7.512   6.130   2.065  0.2806 -0.0712  0.1792
   43MOL0     C 5729   7.388   6.198   2.025 -0.7651  0.1981 -0.0324
   43MOL0     C 5730   7.266   6.106   2.056  0.0246  0.3167  0.1949
   43MOL0     C 5731   7.264   5.973   1.988  0.0709  0.0976  0.2713
   43MOL0     C 5732   7.158   5.872   2.041  0.2903  0.6764 -0.3924
   43MOL0     C 5733   7.014   5.921   2.033 -0.1486 -0.2543  0.6042
   43MOL0     C 5734   6.912   5.979   2.043 -0.2520 -0.5565  0.2566
   43MOL0     C 5735   7.643   6.143   1.865 -0.3360 -0.4847 -0.3253
   43MOL0     C 5736   7.751   6.204   1.792 -0.3739  0.2098  0.0509
   43MOL0     C 5737   7.766   6.171   1.646 -0.1460  0.0734  0.1000
   43MOL0     H 5738   8.243   6.194   1.713 -2.8464  0.0680  3.4870
   43MOL0     H 5739   8.467   6.286   1.624  0.8881 -0.5496  0.4194
   43MOL0     H 5740   8.755   6.446   1.782 -1.2479  1.5556  0.8940
   43MOL0     H 5741   8.655   6.350   1.667  1.2805 -0.0721 -1.0108
   43MOL0     H 5742   8.728   6.472   1.484 -0.7193  0.2973  0.0691
   43MOL0     H 5743   8.869   6.431   1.582  0.6347  1.1860 -0.1739
   43MOL0     H 5744   8.854   6.650   1.692 -1.2866  0.5628  0.8090
   43MOL0     H 5745   8.708   6.694   1.592 -1.3668 -1.6318 -2.7445
   43MOL0     H 5746   8.998   6.632   1.499  0.2792  0.7125  1.4523
   43MOL0     H 5747   8.867   6.678   1.383  0.2806 -2.2311 -0.1204
   43MOL0     H 5748   8.857   6.907   1.495 -1.1419 -0.0173 -0.2327
   43MOL0     H 5749   8.982   6.840   1.607  0.1611 -4.3545 -0.5176
   43MOL0     H 5750   9.134   6.812   1.403 -0.8798 -1.0240  0.3039
   43MOL0     H 5751   9.021   6.871   1.297  0.5775 -1.1066 -0.3697
   43MOL0     H 5752   9.183   7.043   1.369  1.4970 -0.0188  2.0432
   43MOL0     H 5753   9.133   7.037   1.539 -0.0051  2.3976 -0.5404
   43MOL0     H 5754   8.949   7.106   1.298  0.5493  1.6531 -0.4832
   43MOL0     H 5755   8.919   7.145   1.468 -0.0534 -0.0013 -0.2148
   43MOL0     H 5756   9.187   7.229   1.196  0.9104  1.8567 -1.1866
   43MOL0     H 5757   9.241   7.520   1.117  2.1055  1.3030 -0.0761
   43MOL0     H 5758   9.317   7.590   1.250  0.8903 -0.2695 -0.0265
   43MOL0     H 5759   9.454   7.381   1.278 -0.4895 -0.2063 -0.4879
   43MOL0     H 5760   9.397   7.305   1.136 -2.1180 -0.7829  2.5066
   43MOL0     H 5761   9.529   7.587   1.146 -2.8243 -0.7435  4.7801
   43MOL0     H 5762   9.482   7.496   1.002  2.3601 -2.4165 -0.8592
   43MOL0     H 5763   9.675   7.338   1.038  0.7808 -0.1242  0.2883
   43MOL0     H 5764   9.705   7.407   1.192  0.6513 -1.0933 -0.5190
   43MOL0     H 5765   9.897   7.315   1.060 -0.5436  0.0627 -1.3181
   43MOL0     H 5766  10.130   7.275   1.004 -2.5391 -1.2891 -1.5777
   43MOL0     H 5767  10.521   7.590   1.091 -0.3121 -0.1087  1.3051
   43MOL0     H 5768  10.756   7.571   1.144 -2.2434  0.9545  0.6611
   43MOL0     H 5769  10.969   7.505   1.233  0.9948  0.0563 -0.9411
   43MOL0     H 5770  10.940   7.368   1.342  1.1825 -2.4257  0.4035
   43MOL0     H 5771  11.145   7.251   1.214  0.6633  0.6634 -2.1443
   43MOL0     H 5772  11.186   7.416   1.176  2.1680 -0.1527  1.4640
   43MOL0     H 5773  11.201   7.467   1.427 -2.8632 -0.3334  0.2808
   43MOL0     H 5774  11.163   7.299   1.458  1.0444 -0.1860  0.6001
   43MOL0     H 5775  11.403   7.390   1.294 -0.7773  0.3953 -0.1810
   43MOL0     H 5776  11.346   7.228   1.311 -0.5977  0.8400 -0.8965
   43MOL0     H 5777  11.351   7.250   1.558  0.1330 -1.3930 -1.7797
   43MOL0     H 5778  11.399   7.422   1.545  3.8378 -0.0353  0.4056
   43MOL0     H 5779  11.572   7.206   1.423 -1.4882 -0.6381 -0.4228
   43MOL0     H 5780  11.596   7.381   1.451  0.9511 -0.8189 -0.5169
   43MOL0     H 5781  11.557   7.186   1.684 -0.7139  0.8479  0.5792
   43MOL0     H 5782  11.591   7.365   1.692 -4.4191  0.8186 -1.7956
   43MOL0     H 5783  11.799   7.265   1.744  2.8084 -0.4071 -0.7103
   43MOL0     H 5784  11.797   7.156   1.602  2.6100 -0.3800  2.4638
   43MOL0     H 5785  10.755   7.151   1.075 -1.4390 -0.8351 -1.0781
   43MOL0     H 5786  10.525   7.170   1.006  0.7836  1.9398 -3.4861
   43MOL0     H 5787  10.142   7.710   0.918  1.0887 -1.2293 -1.4930
   43MOL0     H 5788   9.910   7.717   0.944 -1.5356 -0.0932 -0.4234
   43MOL0     H 5789   8.389   6.649   1.847 -1.4763  0.9457  0.3904
   43MOL0     H 5790   8.167   6.555   1.921  0.1440  1.1857 -0.8546
   43MOL0     H 5791   7.899   6.368   2.053  1.9603 -0.4339 -0.4863
   43MOL0     H 5792   7.686   6.288   2.167 -0.2458 -1.3591  0.2133
   43MOL0     H 5793   7.392   6.229   1.920  1.8269 -1.3803 -0.4991
   43MOL0     H 5794   7.389   6.291   2.082  0.7914  0.2310 -0.0829
   43MOL0     H 5795   7.182   6.173   2.038  0.1176  0.8274  1.5189
   43MOL0     H 5796   7.255   6.080   2.162  0.7109  1.2488  0.5097
   43MOL0     H 5797   7.359   5.920   2.003  0.8499  1.6833  1.2075
   43MOL0     H 5798   7.250   5.982   1.879  0.8259 -1.0834  0.0605
   43MOL0     H 5799   7.168   5.774   1.994  1.3581  2.2259 -3.7100
   43MOL0     H 5800   7.191   5.856   2.144  2.5746  2.1421 -0.8152
   43MOL0     H 5801   6.820   6.034   2.051 -2.0116 -3.1929 -0.7167
   43MOL0     H 5802   7.578   6.075   1.811 -0.3345  0.1148 -1.0895
   43MOL0     H 5803   7.871   6.146   1.630  0.0035 -0.7197  2.0079
   43MOL0     H 5804   7.706   6.080   1.632  0.5447 -0.1499 -1.5565
   43MOL0     H 5805   7.728   6.251   1.583  0.4694 -0.7450 -1.3383
   44MOL0     O 5806   8.320   3.553   6.532 -0.2556  0.1331 -0.1808
   44MOL0     C 5807   8.296   3.632   6.440  0.0049 -0.0725  0.4368
   44MOL0     O 5808   8.384   3.715   6.381 -0.1089  0.2648  0.4523
   44MOL0     C 5809   8.523   3.706   6.418 -0.2602 -0.7302 -0.0127
   44MOL0     C 5810   8.606   3.826   6.423 -0.1009  0.2376  0.4375
   44MOL0     C 5811   8.743   3.823   6.448 -0.8551 -0.1575  0.7089
   44MOL0     C 5812   8.803   3.697   6.479  0.0457  0.8052  0.2822
   44MOL0     O 5813   8.932   3.675   6.508 -0.0393  0.1598 -0.0942
   44MOL0     C 5814   9.022   3.792   6.513  0.4039 -0.9641 -0.7413
   44MOL0     C 5815   9.170   3.759   6.548 -1.1696 -0.0036 -0.6300
   44MOL0     C 5816   9.238   3.676   6.440  0.5716  0.6433 -1.2541
   44MOL0     C 5817   9.376   3.622   6.472 -0.2756  0.1175  0.2213
   44MOL0     C 5818   9.490   3.733   6.487  0.7515 -0.4282  0.1268
   44MOL0     C 5819   9.618   3.674   6.532  0.3086  0.0748  0.0801
   44MOL0     C 5820   9.732   3.781   6.506  0.3355  0.4196  0.2172
   44MOL0     C 5821   9.865   3.704   6.488  0.1031  0.0245  0.4655
   44MOL0     N 5822   9.970   3.792   6.461  0.2906  0.1934 -0.6910
   44MOL0     C 5823  10.007   3.895   6.544  0.4131  1.0036 -0.6271
   44MOL0     C 5824  10.085   3.980   6.477 -0.6984 -0.0061 -0.6217
   44MOL0     C 5825  10.133   4.119   6.537  0.5158  0.4162 -0.2635
   44MOL0     C 5826  10.280   4.135   6.517 -0.6190  0.1067 -0.5940
   44MOL0     C 5827  10.337   4.161   6.380  0.6239 -0.5216  0.9798
   44MOL0     C 5828  10.233   4.246   6.302 -0.3089  0.2738 -0.5012
   44MOL0     O 5829  10.199   4.377   6.358 -0.1711  0.3453 -0.3962
   44MOL0     C 5830  10.296   4.480   6.350  0.4775  0.0744  0.3196
   44MOL0     C 5831  10.279   4.591   6.434 -0.2356 -0.4757 -0.2826
   44MOL0     C 5832  10.360   4.707   6.417  0.1751 -0.2931  0.1837
   44MOL0     C 5833  10.468   4.707   6.323 -0.4796  0.3327  0.8890
   44MOL0     C 5834  10.568   4.816   6.297  0.4246  0.0539  0.0294
   44MOL0     O 5835  10.538   4.941   6.340 -0.7721  0.1934  0.0916
   44MOL0     C 5836  10.626   5.047   6.366  0.4411 -0.2186 -0.5749
   44MOL0     C 5837  10.587   5.179   6.321 -0.1517  0.2372 -1.5242
   44MOL0     C 5838  10.668   5.293   6.349  0.2607 -0.3858 -0.6244
   44MOL0     C 5839  10.790   5.278   6.401 -1.2375  0.4222 -0.5926
   44MOL0     O 5840  10.867   5.385   6.407 -0.5231 -0.1327 -0.1430
   44MOL0     C 5841  11.004   5.382   6.432  0.3688  0.7437 -0.7573
   44MOL0     C 5842  11.062   5.529   6.427  0.1249 -0.4717 -0.5576
   44MOL0     C 5843  11.023   5.621   6.545 -0.0731  0.0630  0.1646
   44MOL0     C 5844  11.100   5.755   6.549  0.5837  0.2171 -0.0191
   44MOL0     C 5845  11.081   5.834   6.682  0.0126 -0.1334  0.7701
   44MOL0     C 5846  10.933   5.866   6.702  1.0831 -0.2079 -0.4248
   44MOL0     C 5847  10.903   5.926   6.839 -0.6513  0.4875 -0.6282
   44MOL0     C 5848  10.751   5.948   6.852 -0.4185  0.0492 -0.6620
   44MOL0    Cl 5849  10.664   5.786   6.846 -0.2653 -0.7533  0.2687
   44MOL0     C 5850  10.840   5.149   6.437 -0.3231 -0.6960  0.3337
   44MOL0     C 5851  10.757   5.040   6.423  0.8108 -0.1697 -0.7145
   44MOL0     O 5852  10.670   4.783   6.243  1.0275  0.2190  0.2829
   44MOL0     C 5853  10.487   4.583   6.255  0.5275 -0.1665 -0.9961
   44MOL0     C 5854  10.406   4.477   6.272  1.3827 -0.0281 -0.7531
   44MOL0     N 5855  10.103   3.929   6.353  0.5340  0.3111 -0.0443
   44MOL0     N 5856  10.035   3.822   6.343 -0.6845  1.0800 -0.5180
   44MOL0     C 5857   8.725   3.580   6.473  0.3147  0.2086 -0.6118
   44MOL0     C 5858   8.588   3.584   6.438  1.2576 -0.1443  0.0848
   44MOL0     C 5859   8.146   3.640   6.412 -0.8584 -0.4390  0.8834
   44MOL0     C 5860   8.056   3.546   6.465 -0.4254  0.8987  0.6849
   44MOL0     C 5861   7.916   3.553   6.457 -1.0635  0.4671  0.0305
   44MOL0     C 5862   7.865   3.664   6.386  0.0621 -0.2393  0.2041
   44MOL0     O 5863   7.731   3.696   6.375  0.0148 -0.2682  0.5492
   44MOL0     C 5864   7.646   3.627   6.465  0.4490  1.1288  0.4954
   44MOL0     C 5865   7.500   3.675   6.452  0.1601 -0.6004  0.2942
   44MOL0     C 5866   7.473   3.812   6.520  0.2061  0.4445 -0.0303
   44MOL0     C 5867   7.356   3.888   6.463  0.6741  0.0529  0.0582
   44MOL0     C 5868   7.295   3.970   6.572  0.2529  0.1385 -0.2530
   44MOL0     C 5869   7.245   4.033   6.659 -0.2841 -1.0581 -0.2899
   44MOL0     C 5870   7.946   3.746   6.316  0.0799 -0.0509 -0.2307
   44MOL0     C 5871   8.086   3.740   6.333 -0.5108 -0.1978  0.1016
   44MOL0     C 5872   8.170   3.852   6.265 -0.2499  0.9334  0.7937
   44MOL0     H 5873   8.564   3.925   6.409  1.7774  1.1395  0.8884
   44MOL0     H 5874   8.805   3.912   6.440  0.6216 -1.3215 -2.0001
   44MOL0     H 5875   9.035   3.837   6.414  0.9594  0.4796 -0.0369
   44MOL0     H 5876   8.988   3.872   6.579  0.7206 -1.8936  0.5850
   44MOL0     H 5877   9.191   3.714   6.646 -0.1309  0.6865 -0.5286
   44MOL0     H 5878   9.221   3.856   6.555 -1.5392  0.1204  0.7513
   44MOL0     H 5879   9.238   3.739   6.350  1.0353 -0.1705 -1.8375
   44MOL0     H 5880   9.168   3.594   6.420 -1.2697  1.3031  1.8200
   44MOL0     H 5881   9.371   3.552   6.556  0.1476  0.3669  0.4590
   44MOL0     H 5882   9.414   3.561   6.389  2.8784  0.9396  0.9308
   44MOL0     H 5883   9.516   3.762   6.385  1.2694  0.4577  0.5043
   44MOL0     H 5884   9.459   3.810   6.558  0.3457 -1.3519  0.9767
   44MOL0     H 5885   9.611   3.639   6.636 -0.7472 -0.4636 -0.1519
   44MOL0     H 5886   9.645   3.589   6.470  0.9963  0.5201 -0.2410
   44MOL0     H 5887   9.736   3.859   6.583 -0.6757  1.9520 -1.1997
   44MOL0     H 5888   9.715   3.841   6.415 -2.4274  1.2508  1.2061
   44MOL0     H 5889   9.885   3.645   6.578 -1.4986 -1.2559  0.0363
   44MOL0     H 5890   9.856   3.648   6.394  0.9818 -1.0114  0.9658
   44MOL0     H 5891   9.987   3.903   6.650 -0.2367 -0.4439 -0.6179
   44MOL0     H 5892  10.079   4.204   6.495 -0.2725 -0.1157 -0.3472
   44MOL0     H 5893  10.106   4.114   6.643 -0.8854 -0.5791 -0.6358
   44MOL0     H 5894  10.308   4.221   6.578  0.3872 -0.6898  0.0992
   44MOL0     H 5895  10.340   4.055   6.561 -1.0908  0.5975  1.0035
   44MOL0     H 5896  10.349   4.064   6.332 -2.9351 -0.5017 -0.2896
   44MOL0     H 5897  10.428   4.221   6.386  0.3474 -0.1580  1.6569
   44MOL0     H 5898  10.135   4.199   6.290 -0.5771  0.4912  0.7430
   44MOL0     H 5899  10.268   4.265   6.200 -2.3639  3.4732 -0.7351
   44MOL0     H 5900  10.216   4.577   6.521  1.8764 -1.4106  1.1876
   44MOL0     H 5901  10.364   4.783   6.494 -2.2689 -0.2262  0.3397
   44MOL0     H 5902  10.487   5.192   6.280 -0.1800  0.3420 -1.4227
   44MOL0     H 5903  10.638   5.390   6.310  0.0854 -1.0432 -2.2178
   44MOL0     H 5904  11.012   5.345   6.535 -1.7468 -0.9645 -1.1324
   44MOL0     H 5905  11.052   5.311   6.364 -1.5432 -0.2993 -1.0719
   44MOL0     H 5906  11.169   5.512   6.438  0.0721 -0.1812  0.6134
   44MOL0     H 5907  11.031   5.570   6.331 -1.4037 -0.1948  0.0225
   44MOL0     H 5908  10.915   5.630   6.530 -0.0657 -0.8508 -0.5722
   44MOL0     H 5909  11.043   5.569   6.639 -1.1115  0.4269  0.6009
   44MOL0     H 5910  11.070   5.818   6.465  0.0009 -0.2632 -0.1767
   44MOL0     H 5911  11.206   5.736   6.527  0.1874 -0.4232 -1.5095
   44MOL0     H 5912  11.137   5.928   6.684 -0.7177  0.3154  0.4645
   44MOL0     H 5913  11.110   5.776   6.770 -0.4183  2.1597  2.5219
   44MOL0     H 5914  10.890   5.929   6.623 -2.0823  0.7471  1.8632
   44MOL0     H 5915  10.882   5.769   6.704  0.0193  0.3409 -0.3583
   44MOL0     H 5916  10.949   6.025   6.849  0.8958 -0.3867  1.3953
   44MOL0     H 5917  10.942   5.864   6.920 -1.3250  0.9736  0.0806
   44MOL0     H 5918  10.733   5.992   6.950  0.1053 -2.4356  0.6259
   44MOL0     H 5919  10.715   6.005   6.766  0.2774 -0.7437 -1.4968
   44MOL0     H 5920  10.937   5.134   6.484 -1.2700 -1.7963  2.0717
   44MOL0     H 5921  10.795   4.943   6.454 -1.9617 -1.3302 -0.6338
   44MOL0     H 5922  10.566   4.585   6.180  0.3340  1.5642 -1.2017
   44MOL0     H 5923  10.424   4.381   6.225 -1.0824 -0.9251 -0.0065
   44MOL0     H 5924   8.759   3.481   6.501 -1.1713 -0.4517 -1.0428
   44MOL0     H 5925   8.538   3.488   6.425 -0.1045  0.5992 -0.3627
   44MOL0     H 5926   8.090   3.459   6.520 -2.6296 -1.8636 -1.9469
   44MOL0     H 5927   7.858   3.480   6.512  0.7640 -0.3260  0.9789
   44MOL0     H 5928   7.677   3.641   6.569 -0.0157  4.3941  0.2931
   44MOL0     H 5929   7.648   3.524   6.427 -1.6029  1.5019 -0.8009
   44MOL0     H 5930   7.425   3.603   6.485  1.3265 -1.2697  1.6077
   44MOL0     H 5931   7.478   3.681   6.345 -2.6845 -1.3674  0.7676
   44MOL0     H 5932   7.557   3.883   6.525 -1.3650  2.2963  2.1689
   44MOL0     H 5933   7.438   3.781   6.618 -0.1110  1.4993  0.2042
   44MOL0     H 5934   7.388   3.963   6.390  0.5908  0.3497  0.3228
   44MOL0     H 5935   7.280   3.815   6.435  0.4631 -0.8670  2.7434
   44MOL0     H 5936   7.211   4.097   6.739 -0.7356 -3.1005  1.2298
   44MOL0     H 5937   7.906   3.833   6.267  0.3091 -0.0898 -0.4864
   44MOL0     H 5938   8.110   3.918   6.201  1.2428  1.1522 -0.4277
   44MOL0     H 5939   8.217   3.921   6.337 -0.3281  0.6507  1.1190
   44MOL0     H 5940   8.251   3.808   6.208 -0.6908  0.9313  0.1587
   45MOL0     O 5941   3.868   0.413   1.474  0.4778 -0.6416 -0.0981
   45MOL0     C 5942   3.750   0.443   1.474  0.0725 -0.7873  0.3954
   45MOL0     O 5943   3.700   0.577   1.465  0.1232  0.0001  0.0447
   45MOL0     C 5944   3.778   0.687   1.443 -0.2636 -0.4519  0.4450
   45MOL0     C 5945   3.740   0.808   1.511  0.3058 -0.3455 -0.0284
   45MOL0     C 5946   3.810   0.924   1.485 -0.7083 -0.2455  0.6127
   45MOL0     C 5947   3.921   0.925   1.401  0.3512  0.1839  0.7845
   45MOL0     O 5948   4.006   1.035   1.382  0.3015  0.1806 -0.5054
   45MOL0     C 5949   4.053   1.085   1.518 -0.5641 -0.0429 -0.2485
   45MOL0     C 5950   4.166   1.177   1.516  0.3819  0.4127 -0.7533
   45MOL0     C 5951   4.208   1.220   1.661 -0.1016  0.9491 -1.1888
   45MOL0     C 5952   4.336   1.308   1.656  0.5574  0.5119  0.1523
   45MOL0     C 5953   4.361   1.354   1.799 -0.5635 -0.6367 -0.0027
   45MOL0     C 5954   4.439   1.246   1.878  0.2949  0.5470 -0.1935
   45MOL0     C 5955   4.504   1.302   2.010  0.0336  0.4181 -0.4647
   45MOL0     C 5956   4.602   1.196   2.073 -0.3665  0.0385  0.3444
   45MOL0     N 5957   4.741   1.212   2.014  0.5383 -0.3894  0.1976
   45MOL0     C 5958   4.813   1.120   1.935  0.3681 -0.2902  0.3258
   45MOL0     C 5959   4.935   1.175   1.920  0.1031 -0.6219  0.4340
   45MOL0     C 5960   5.046   1.109   1.834  0.3837 -0.7503  0.3144
   45MOL0     C 5961   5.005   1.019   1.719 -0.5264  0.0862 -0.7095
   45MOL0     C 5962   5.135   0.973   1.654  0.5573  0.4980 -1.1375
   45MOL0     C 5963   5.238   0.895   1.728  0.1464  0.4409  0.0383
   45MOL0     O 5964   5.338   0.863   1.635  0.2650  0.1308 -0.0544
   45MOL0     C 5965   5.454   0.797   1.682 -0.3867 -0.0782  0.7164
   45MOL0     C 5966   5.535   0.751   1.581 -0.1218  1.2583 -0.5193
   45MOL0     C 5967   5.657   0.684   1.602  1.2997 -0.0045  0.0190
   45MOL0     C 5968   5.706   0.664   1.733 -0.3130  1.0327  0.2300
   45MOL0     C 5969   5.825   0.581   1.759  0.1949  0.0087 -0.0106
   45MOL0     O 5970   5.846   0.521   1.879  0.5132 -0.3038  0.9228
   45MOL0     C 5971   5.957   0.440   1.912 -0.0673 -0.5041 -1.2321
   45MOL0     C 5972   5.996   0.453   2.046 -0.1132  0.2625  0.1909
   45MOL0     C 5973   6.097   0.365   2.092 -0.2094 -0.7924  0.8882
   45MOL0     C 5974   6.165   0.275   2.012  0.7147  0.3919  0.1825
   45MOL0     O 5975   6.271   0.202   2.055 -0.0669 -0.5019  0.0683
   45MOL0     C 5976   6.343   0.246   2.173  0.0174 -1.1795  0.2455
   45MOL0     C 5977   6.470   0.162   2.197 -0.0206  0.0935 -0.6431
   45MOL0     C 5978   6.582   0.156   2.100  0.0462 -0.3655  0.8591
   45MOL0     C 5979   6.713   0.083   2.149  0.3419 -0.0550 -0.4561
   45MOL0     C 5980   6.818   0.080   2.032  0.9016 -0.3099 -0.8873
   45MOL0     C 5981   6.923  -0.022   2.068  0.3883  0.7268 -0.1996
   45MOL0     C 5982   7.033   0.001   1.955  0.0062  0.2689  0.4590
   45MOL0     C 5983   7.147  -0.103   1.957  0.5814 -0.0452 -0.8520
   45MOL0    Cl 5984   7.201  -0.114   2.128 -0.0271  0.0390 -0.0523
   45MOL0     C 5985   6.122   0.274   1.880 -0.1120  0.3942 -0.7308
   45MOL0     C 5986   6.027   0.355   1.830 -0.1674  0.0640  0.1205
   45MOL0     O 5987   5.910   0.595   1.668 -0.4269 -0.1626 -0.8057
   45MOL0     C 5988   5.626   0.708   1.843  0.1891 -0.5248  0.3097
   45MOL0     C 5989   5.506   0.780   1.820  0.1377  0.9881  0.5426
   45MOL0     N 5990   4.931   1.305   1.982  0.0872  0.5216  0.4161
   45MOL0     N 5991   4.811   1.327   2.028  0.1787 -0.6454  0.1180
   45MOL0     C 5992   3.947   0.813   1.324 -0.0947 -0.2209 -0.3148
   45MOL0     C 5993   3.873   0.695   1.345 -0.1881  0.1445 -0.3419
   45MOL0     C 5994   3.649   0.334   1.488 -0.0200 -0.2395  0.0582
   45MOL0     C 5995   3.518   0.367   1.456 -0.3640  0.5496 -0.0260
   45MOL0     C 5996   3.411   0.287   1.469  0.5502 -0.0348  0.8668
   45MOL0     C 5997   3.431   0.168   1.526  0.0174 -0.7310  0.1403
   45MOL0     O 5998   3.321   0.086   1.526  0.3242  0.4433 -0.0943
   45MOL0     C 5999   3.260   0.074   1.656  0.3417  0.1538 -0.1398
   45MOL0     C 6000   3.170  -0.046   1.661  0.4876 -0.1089  0.2581
   45MOL0     C 6001   3.088  -0.053   1.797  0.1203  1.2147  0.5437
   45MOL0     C 6002   2.991  -0.177   1.812 -0.1400  0.6554 -0.4694
   45MOL0     C 6003   3.058  -0.304   1.826  0.5167  0.0391 -0.3916
   45MOL0     C 6004   3.110  -0.409   1.863  0.2985 -1.3194 -0.1657
   45MOL0     C 6005   3.558   0.129   1.561  0.6804  0.8873  0.4568
   45MOL0     C 6006   3.666   0.207   1.543 -0.0913 -1.3992 -0.2866
   45MOL0     C 6007   3.803   0.152   1.592 -0.2261  0.1768 -0.7558
   45MOL0     H 6008   3.655   0.803   1.578  1.3744 -2.7336  1.3202
   45MOL0     H 6009   3.781   1.017   1.535 -0.2292  0.7569 -0.9048
   45MOL0     H 6010   3.964   1.136   1.554 -0.8249 -0.7219  0.1023
   45MOL0     H 6011   4.083   1.006   1.588 -0.2240  0.3953  0.0995
   45MOL0     H 6012   4.130   1.266   1.465 -0.2955 -0.5035 -1.9065
   45MOL0     H 6013   4.244   1.127   1.457  0.0025 -1.0492 -0.0710
   45MOL0     H 6014   4.216   1.129   1.722 -2.6580  0.6450 -1.2106
   45MOL0     H 6015   4.120   1.268   1.705 -0.8033 -1.9228  0.9035
   45MOL0     H 6016   4.424   1.258   1.615  0.9434  1.0951  0.2694
   45MOL0     H 6017   4.321   1.394   1.590  0.7610  1.1256  0.8932
   45MOL0     H 6018   4.421   1.446   1.795  1.4598 -1.9072 -2.6565
   45MOL0     H 6019   4.265   1.384   1.840 -0.6874  0.3008 -0.9215
   45MOL0     H 6020   4.383   1.154   1.894  1.8457 -0.0984  2.0480
   45MOL0     H 6021   4.528   1.221   1.819 -0.2160  1.9362 -1.6111
   45MOL0     H 6022   4.413   1.312   2.071 -0.1560  0.0490 -0.6875
   45MOL0     H 6023   4.541   1.405   2.011 -1.1540  0.8687 -0.7800
   45MOL0     H 6024   4.596   1.206   2.182  2.1846 -0.6223  0.6034
   45MOL0     H 6025   4.567   1.094   2.051 -2.8576  1.1564 -1.3228
   45MOL0     H 6026   4.786   1.017   1.914 -0.5027 -0.2988  1.3766
   45MOL0     H 6027   5.107   1.190   1.792  1.1055 -0.2081  2.3036
   45MOL0     H 6028   5.112   1.052   1.900 -1.5458 -2.7041  0.6777
   45MOL0     H 6029   4.953   0.931   1.757 -0.2097  1.5143  3.6233
   45MOL0     H 6030   4.944   1.074   1.647  0.0053  1.2187 -0.3224
   45MOL0     H 6031   5.179   1.068   1.621  1.0610 -0.1157 -2.2780
   45MOL0     H 6032   5.122   0.918   1.560 -0.1310 -0.9100 -0.2389
   45MOL0     H 6033   5.194   0.800   1.759 -1.2608  0.7185 -0.9602
   45MOL0     H 6034   5.279   0.950   1.813  2.5333 -0.9133 -0.1678
   45MOL0     H 6035   5.501   0.768   1.479  2.0547 -1.6217 -1.8798
   45MOL0     H 6036   5.711   0.654   1.513  1.2984 -1.4420  0.4771
   45MOL0     H 6037   5.959   0.531   2.113 -1.3558  0.3814 -0.6132
   45MOL0     H 6038   6.126   0.372   2.196  2.5188  3.5470  0.0586
   45MOL0     H 6039   6.383   0.346   2.154  1.5671 -1.2674  2.5987
   45MOL0     H 6040   6.286   0.246   2.267  0.0244 -2.9470  0.2861
   45MOL0     H 6041   6.523   0.193   2.288 -1.7654 -2.0279  1.2177
   45MOL0     H 6042   6.437   0.060   2.220 -0.7007  0.9413  2.8565
   45MOL0     H 6043   6.541   0.110   2.009  1.9725  0.1853 -0.3532
   45MOL0     H 6044   6.616   0.255   2.068  0.4127 -1.3321 -2.1517
   45MOL0     H 6045   6.686  -0.020   2.176 -0.4289  0.0345 -0.8658
   45MOL0     H 6046   6.758   0.132   2.235  0.4911  1.2435 -1.2601
   45MOL0     H 6047   6.854   0.183   2.026 -2.3298  1.0028  0.2499
   45MOL0     H 6048   6.775   0.062   1.933 -1.9791  1.4981 -0.0642
   45MOL0     H 6049   6.959   0.002   2.168 -0.8524  0.7396  0.2621
   45MOL0     H 6050   6.880  -0.122   2.058  1.7402  0.2180 -1.3364
   45MOL0     H 6051   7.080   0.099   1.967 -0.8664  0.4978  2.7344
   45MOL0     H 6052   6.996   0.002   1.852  1.3270 -1.3006 -0.0608
   45MOL0     H 6053   7.104  -0.194   1.913  0.6172 -1.2134  1.3689
   45MOL0     H 6054   7.227  -0.083   1.886  0.5180  4.7056  0.1157
   45MOL0     H 6055   6.169   0.202   1.813 -0.2261  1.4173 -1.9432
   45MOL0     H 6056   5.991   0.368   1.728 -1.8567  2.7073  0.9508
   45MOL0     H 6057   5.658   0.698   1.946  0.7711  3.5604  0.6686
   45MOL0     H 6058   5.438   0.812   1.898 -2.0128 -0.0808 -0.7939
   45MOL0     H 6059   4.036   0.827   1.262 -1.1847  3.4395 -1.2462
   45MOL0     H 6060   3.896   0.615   1.275  1.6626 -0.4921  0.9243
   45MOL0     H 6061   3.489   0.463   1.413 -0.4579  1.4789  1.9980
   45MOL0     H 6062   3.320   0.325   1.426  1.0810 -1.1348 -1.3834
   45MOL0     H 6063   3.195   0.159   1.679 -0.8409 -1.1104  1.4549
   45MOL0     H 6064   3.328   0.057   1.740  0.3509 -0.3787 -0.2577
   45MOL0     H 6065   3.209  -0.147   1.644 -1.7699 -1.1463  0.8653
   45MOL0     H 6066   3.104  -0.032   1.575 -0.6646 -1.8198  0.8227
   45MOL0     H 6067   3.017   0.030   1.808  1.6581  2.3134  3.3530
   45MOL0     H 6068   3.160  -0.045   1.879  0.9438  1.9143 -0.2350
   45MOL0     H 6069   2.925  -0.157   1.897 -2.6885  0.2693 -2.2684
   45MOL0     H 6070   2.933  -0.171   1.720  1.4313  0.2202 -1.5421
   45MOL0     H 6071   3.159  -0.494   1.907 -0.5617 -1.1105  1.2446
   45MOL0     H 6072   3.565   0.031   1.607 -1.3406  0.8043  0.6671
   45MOL0     H 6073   3.796   0.066   1.660 -0.8437  0.0665 -0.9472
   45MOL0     H 6074   3.839   0.117   1.495  0.2752  1.7988 -1.1764
   45MOL0     H 6075   3.859   0.225   1.651  0.8799  1.6904 -3.5196
   46MOL0     O 6076  10.801   5.803   9.746 -0.5442 -0.1348 -0.7628
   46MOL0     C 6077  10.715   5.835   9.828  0.4825 -0.6091 -0.5017
   46MOL0     O 6078  10.741   5.896   9.951 -0.4602  0.2631 -0.0477
   46MOL0     C 6079  10.871   5.919   9.991  1.0099  0.8572  0.1714
   46MOL0     C 6080  10.957   5.981   9.903 -0.3000  0.3429  0.6035
   46MOL0     C 6081  11.094   6.004   9.933 -0.7977 -0.3203  0.1339
   46MOL0     C 6082  11.141   5.951  10.053 -0.3036  0.3040 -0.2166
   46MOL0     O 6083  11.273   5.964  10.096 -0.3713 -0.4184 -0.3554
   46MOL0     C 6084  11.338   5.893  10.206 -0.6909  0.2252  0.3436
   46MOL0     C 6085  11.469   5.823  10.152  0.0820  0.1725 -0.1503
   46MOL0     C 6086  11.573   5.931  10.129 -0.3464  1.0689 -0.2815
   46MOL0     C 6087  11.710   5.872  10.094  0.2734 -0.4406 -0.4783
   46MOL0     C 6088  11.821   5.972  10.111  0.2578 -0.4137 -0.7865
   46MOL0     C 6089  11.833   6.097  10.022  0.3971 -0.8641  0.2825
   46MOL0     C 6090  11.944   6.177  10.073  0.4632 -1.1587  0.2789
   46MOL0     C 6091  11.912   6.247  10.210 -1.4783 -0.8055 -0.4575
   46MOL0     N 6092  12.003   6.366  10.230  0.0511 -0.7563 -0.0551
   46MOL0     C 6093  12.143   6.355  10.210 -0.4015 -0.1946 -0.5883
   46MOL0     C 6094  12.205   6.463  10.261  0.0480  0.3401 -0.6031
   46MOL0     C 6095  12.347   6.483  10.256 -0.1862  0.4275 -0.0807
   46MOL0     C 6096  12.400   6.606  10.179  0.4606 -0.5554  0.0337
   46MOL0     C 6097  12.551   6.598  10.161  0.0344  0.5096 -0.5173
   46MOL0     C 6098  12.612   6.527  10.035 -0.0728  0.2976  0.0422
   46MOL0     O 6099  12.717   6.599   9.972 -0.0205  0.3621 -0.4532
   46MOL0     C 6100  12.838   6.587  10.031  0.5316  0.3705 -0.9631
   46MOL0     C 6101  12.873   6.526  10.153  0.5481  0.4616  0.3583
   46MOL0     C 6102  13.013   6.519  10.191  0.9499  0.0807 -0.8028
   46MOL0     C 6103  13.110   6.592  10.122  0.3465  0.1697  0.3293
   46MOL0     C 6104  13.250   6.582  10.172  0.2931 -0.5136 -0.0716
   46MOL0     O 6105  13.325   6.690  10.141  0.2238 -0.5249 -0.6981
   46MOL0     C 6106  13.460   6.691  10.144 -0.3210  0.2749  0.5192
   46MOL0     C 6107  13.549   6.595  10.091 -0.0492  0.1630 -0.8842
   46MOL0     C 6108  13.683   6.622  10.075 -0.2504 -0.4945 -0.6237
   46MOL0     C 6109  13.735   6.737  10.140 -0.3532 -0.1824 -0.7054
   46MOL0     O 6110  13.862   6.775  10.134 -0.4214 -0.1423 -0.0366
   46MOL0     C 6111  13.932   6.743  10.013 -0.3335 -0.5632  0.1938
   46MOL0     C 6112  14.063   6.814  10.040 -0.5666 -0.4953  0.3872
   46MOL0     C 6113  14.163   6.820   9.928  0.4737  0.5713 -1.2516
   46MOL0     C 6114  14.270   6.927   9.963  0.6536  0.4809  0.0508
   46MOL0     C 6115  14.388   6.917   9.861 -0.8479 -0.4753  0.0532
   46MOL0     C 6116  14.482   6.793   9.869 -0.1450  0.0854 -0.8355
   46MOL0     C 6117  14.577   6.809   9.992  0.2524  0.3610 -0.5537
   46MOL0     C 6118  14.678   6.692  10.002  0.1649 -0.4278 -0.5156
   46MOL0    Cl 6119  14.800   6.690   9.869 -0.1684 -0.2577  0.5854
   46MOL0     C 6120  13.646   6.830  10.204 -0.2074 -0.4739  0.6406
   46MOL0     C 6121  13.508   6.808  10.200 -0.5788  0.5336  0.3453
   46MOL0     O 6122  13.282   6.495  10.251  0.2784  0.1566  0.4157
   46MOL0     C 6123  13.073   6.656  10.000 -0.5606 -0.1798 -0.8323
   46MOL0     C 6124  12.943   6.654   9.963 -0.3408 -0.0395  0.5531
   46MOL0     N 6125  12.099   6.550  10.294  0.2695 -0.4572  0.0576
   46MOL0     N 6126  11.985   6.494  10.281 -0.1564  0.3422  0.1531
   46MOL0     C 6127  11.055   5.883  10.135  0.5164 -0.4320  0.0748
   46MOL0     C 6128  10.915   5.874  10.110  0.2814  0.9059 -0.3598
   46MOL0     C 6129  10.571   5.800   9.800  0.5552 -0.1071 -0.6275
   46MOL0     C 6130  10.484   5.775   9.906  0.0320 -0.2165 -1.5210
   46MOL0     C 6131  10.345   5.773   9.889  0.6286  0.3109 -0.0437
   46MOL0     C 6132  10.300   5.801   9.759  0.1607 -0.3957  0.0596
   46MOL0     O 6133  10.166   5.807   9.723  0.7641 -0.2655  0.3204
   46MOL0     C 6134  10.066   5.826   9.825 -0.3698 -0.9098 -0.1386
   46MOL0     C 6135  10.030   5.689   9.868 -0.3312 -0.3889  0.0027
   46MOL0     C 6136   9.943   5.680   9.991  1.0297 -0.7221 -0.8702
   46MOL0     C 6137   9.809   5.750   9.974 -0.2561  0.6363  0.1456
   46MOL0     C 6138   9.832   5.888  10.009  0.7724  0.1181  0.2715
   46MOL0     C 6139   9.860   5.994  10.048 -0.1123 -0.3190 -0.1376
   46MOL0     C 6140  10.385   5.801   9.650  0.3000 -0.8649 -0.4411
   46MOL0     C 6141  10.523   5.802   9.671  0.2045 -0.1277  0.4383
   46MOL0     C 6142  10.608   5.823   9.546 -0.2206 -0.4035 -0.1181
   46MOL0     H 6143  10.917   6.018   9.809 -0.0607 -1.1281 -0.1071
   46MOL0     H 6144  11.151   6.062   9.861  0.6000 -1.6562  0.1001
   46MOL0     H 6145  11.369   5.971  10.275  3.2088  0.9736 -1.9461
   46MOL0     H 6146  11.282   5.820  10.265  0.1503 -1.1321 -0.4713
   46MOL0     H 6147  11.459   5.763  10.062 -0.6326 -0.5717  0.4061
   46MOL0     H 6148  11.506   5.747  10.221 -0.7841 -0.6713 -0.5922
   46MOL0     H 6149  11.577   5.981  10.225  0.6437 -1.0939  0.8834
   46MOL0     H 6150  11.542   6.004  10.054 -1.3249  0.8628 -0.0951
   46MOL0     H 6151  11.744   5.795  10.163  2.2366  0.7867  0.0081
   46MOL0     H 6152  11.710   5.845   9.988 -1.9172 -1.7399 -0.2043
   46MOL0     H 6153  11.816   6.001  10.216  0.2234  0.0531 -0.9156
   46MOL0     H 6154  11.916   5.920  10.097  0.4056 -1.6412  3.3078
   46MOL0     H 6155  11.851   6.074   9.917 -0.2575 -0.1050 -0.0106
   46MOL0     H 6156  11.739   6.153  10.018  1.8055  1.7182  0.7790
   46MOL0     H 6157  11.967   6.256  10.001 -0.2561 -1.8589 -0.7511
   46MOL0     H 6158  12.030   6.110  10.082  1.2189 -0.3945 -0.8964
   46MOL0     H 6159  11.810   6.281  10.228 -1.2391  0.4223 -1.2774
   46MOL0     H 6160  11.944   6.183  10.293  1.2044 -1.0646 -1.5735
   46MOL0     H 6161  12.206   6.279  10.164  1.4216 -0.3427  1.9425
   46MOL0     H 6162  12.373   6.495  10.362  0.4613 -0.7644 -0.0935
   46MOL0     H 6163  12.391   6.392  10.214 -2.6466 -1.1342  0.5361
   46MOL0     H 6164  12.347   6.636  10.088 -0.2318  3.3890  1.5235
   46MOL0     H 6165  12.376   6.691  10.244 -2.0945 -2.7571  2.2284
   46MOL0     H 6166  12.606   6.563  10.249  1.5590  0.9863 -1.2413
   46MOL0     H 6167  12.575   6.703  10.143 -2.9579  1.3852  0.1220
   46MOL0     H 6168  12.539   6.527   9.953  0.5589 -0.0114 -0.5335
   46MOL0     H 6169  12.625   6.418  10.039 -0.3686  0.2702  0.2458
   46MOL0     H 6170  12.798   6.479  10.216  0.7721  1.4713  1.4039
   46MOL0     H 6171  13.055   6.455  10.267 -1.0452 -1.7467 -1.1654
   46MOL0     H 6172  13.526   6.501  10.041  1.3405 -1.2529  0.9821
   46MOL0     H 6173  13.746   6.558  10.013 -1.2965 -0.1429 -2.0991
   46MOL0     H 6174  13.949   6.640   9.978  0.2401  0.4701 -2.8879
   46MOL0     H 6175  13.879   6.795   9.933  1.5398  2.8428  0.9745
   46MOL0     H 6176  14.040   6.917  10.069 -3.3556 -0.6087 -1.1375
   46MOL0     H 6177  14.106   6.768  10.130  1.3297  3.2176  1.6242
   46MOL0     H 6178  14.211   6.722   9.930  1.2462  0.8525  3.3392
   46MOL0     H 6179  14.114   6.829   9.830 -0.8273  0.0024 -0.6751
   46MOL0     H 6180  14.314   6.909  10.062 -1.5630 -2.3275  0.6571
   46MOL0     H 6181  14.219   7.024   9.962 -0.2130  0.0362 -1.4912
   46MOL0     H 6182  14.436   7.015   9.867 -0.2376 -0.6311 -1.7225
   46MOL0     H 6183  14.344   6.917   9.761 -1.1617  0.6221  0.1735
   46MOL0     H 6184  14.422   6.703   9.887  0.9849 -0.4414  0.4623
   46MOL0     H 6185  14.532   6.801   9.772 -0.3000  1.9110 -0.7948
   46MOL0     H 6186  14.510   6.821  10.078 -2.1004 -0.7780 -2.1230
   46MOL0     H 6187  14.625   6.907   9.983 -0.0314  0.8365  2.1675
   46MOL0     H 6188  14.737   6.688  10.094 -0.2862 -0.9418 -0.2419
   46MOL0     H 6189  14.624   6.597   9.994  1.8273 -1.4531 -0.2011
   46MOL0     H 6190  13.690   6.922  10.242 -0.5835 -0.3477  0.7702
   46MOL0     H 6191  13.439   6.888  10.226 -2.0914 -0.6405  0.0528
   46MOL0     H 6192  13.155   6.706   9.949 -2.1249 -0.0401 -3.3379
   46MOL0     H 6193  12.921   6.717   9.877  1.1960  1.5207  1.2348
   46MOL0     H 6194  11.089   5.844  10.230  1.5033 -0.5155 -0.2994
   46MOL0     H 6195  10.848   5.831  10.183 -0.1376  0.1085 -1.1877
   46MOL0     H 6196  10.532   5.771  10.003  0.1690 -3.6560 -1.6139
   46MOL0     H 6197  10.280   5.772   9.976  2.3825  3.5038  1.4851
   46MOL0     H 6198   9.981   5.881   9.783 -0.3312  0.6850  1.7429
   46MOL0     H 6199  10.103   5.892   9.904 -0.3812 -1.5981  0.4445
   46MOL0     H 6200  10.120   5.627   9.875  0.4474  0.7515  0.3860
   46MOL0     H 6201   9.971   5.661   9.781  2.7383  1.6374 -2.9908
   46MOL0     H 6202  10.000   5.722  10.075  0.7392  2.0862 -1.9761
   46MOL0     H 6203   9.933   5.573  10.014  1.4655 -0.8699 -1.3345
   46MOL0     H 6204   9.775   5.742   9.870  1.3903 -2.5385 -0.2577
   46MOL0     H 6205   9.730   5.714  10.040 -0.5254  0.1750 -0.4239
   46MOL0     H 6206   9.889   6.093  10.076 -1.0242 -1.0355  3.9172
   46MOL0     H 6207  10.343   5.805   9.550 -3.2179  0.0469  0.9004
   46MOL0     H 6208  10.536   5.842   9.466 -1.0559  2.3857  1.1451
   46MOL0     H 6209  10.681   5.904   9.563  0.1629 -0.3867 -1.7278
   46MOL0     H 6210  10.658   5.728   9.526  2.5168  0.9290 -0.0737
   47MOL0     O 6211   3.959   6.354   5.775  0.2669 -0.2457 -0.2056
   47MOL0     C 6212   3.928   6.404   5.665 -0.1533 -0.0193  0.0403
   47MOL0     O 6213   4.015   6.430   5.568 -0.6586 -0.1923  0.1975
   47MOL0     C 6214   4.147   6.428   5.588  0.0551  0.7546  0.5033
   47MOL0     C 6215   4.224   6.542   5.603  0.5773 -0.0826 -0.4456
   47MOL0     C 6216   4.362   6.539   5.603 -0.3635 -0.0546  0.4196
   47MOL0     C 6217   4.429   6.415   5.588 -0.1441  0.4979 -0.0205
   47MOL0     O 6218   4.570   6.401   5.572  0.6322 -0.2990 -0.3607
   47MOL0     C 6219   4.648   6.520   5.614  0.3715  0.5628  1.1675
   47MOL0     C 6220   4.793   6.488   5.600  0.2934  0.7738  0.3089
   47MOL0     C 6221   4.845   6.475   5.461  0.0605 -0.2782 -0.2412
   47MOL0     C 6222   4.987   6.403   5.471 -0.4594 -0.2985  0.0814
   47MOL0     C 6223   5.030   6.379   5.320  0.2963 -0.6455 -0.5677
   47MOL0     C 6224   5.175   6.390   5.289 -1.4423 -0.0940 -0.4784
   47MOL0     C 6225   5.206   6.348   5.145 -0.5965  0.1202 -0.0459
   47MOL0     C 6226   5.358   6.372   5.121 -0.4286 -0.2402 -0.8555
   47MOL0     N 6227   5.382   6.336   4.979  0.4161  0.4814  0.3806
   47MOL0     C 6228   5.372   6.413   4.869  0.6878 -0.7616  0.7480
   47MOL0     C 6229   5.433   6.359   4.765 -0.0205  1.8706  0.0616
   47MOL0     C 6230   5.483   6.403   4.629  0.0602  0.0267 -0.3946
   47MOL0     C 6231   5.637   6.401   4.610 -0.0713 -0.7538  0.3495
   47MOL0     C 6232   5.689   6.285   4.516 -0.6839 -0.3845 -0.5852
   47MOL0     C 6233   5.831   6.321   4.464 -0.4031  0.4885  0.0258
   47MOL0     O 6234   5.923   6.329   4.570 -0.5053  0.2231  0.1603
   47MOL0     C 6235   6.058   6.327   4.561 -0.5577  0.8018  0.1483
   47MOL0     C 6236   6.133   6.310   4.438  0.4608  0.8913 -1.0100
   47MOL0     C 6237   6.273   6.289   4.450 -0.1548  0.7894  0.6733
   47MOL0     C 6238   6.343   6.290   4.564  0.8185  0.0231 -0.3069
   47MOL0     C 6239   6.491   6.259   4.575 -0.7335  0.1396  0.4154
   47MOL0     O 6240   6.550   6.261   4.694  0.1375  0.4354  0.3439
   47MOL0     C 6241   6.679   6.221   4.711 -0.4908 -0.8907 -1.3906
   47MOL0     C 6242   6.795   6.273   4.646  0.1640 -0.1263 -0.3704
   47MOL0     C 6243   6.915   6.201   4.666  0.3403  0.0843  0.5634
   47MOL0     C 6244   6.924   6.082   4.753 -0.6431 -0.2245  0.0900
   47MOL0     O 6245   7.038   6.014   4.788 -0.7373 -0.0616 -0.2904
   47MOL0     C 6246   7.170   6.038   4.741 -0.0657  0.4548 -0.4839
   47MOL0     C 6247   7.263   5.966   4.829  0.4154 -0.4517  0.3114
   47MOL0     C 6248   7.410   5.964   4.769 -0.1917  0.0613  0.4323
   47MOL0     C 6249   7.500   5.868   4.852  0.1000  0.4199  0.8816
   47MOL0     C 6250   7.629   5.850   4.767  0.1647  0.3887  0.2529
   47MOL0     C 6251   7.711   5.723   4.821 -0.3986  0.0397  0.4653
   47MOL0     C 6252   7.825   5.702   4.719  0.0901  1.0515  0.2786
   47MOL0     C 6253   7.919   5.589   4.763 -0.0801  0.0858 -0.0855
   47MOL0    Cl 6254   7.981   5.618   4.922  0.3735  0.1380 -0.1562
   47MOL0     C 6255   6.808   6.036   4.810  0.3229  0.4132  0.5608
   47MOL0     C 6256   6.684   6.103   4.790 -0.2535 -0.3246 -0.9371
   47MOL0     O 6257   6.549   6.231   4.471  0.0200 -0.5508 -0.4585
   47MOL0     C 6258   6.275   6.322   4.685  0.5479  0.2900  0.4081
   47MOL0     C 6259   6.141   6.338   4.677  0.5953  1.3842 -0.7170
   47MOL0     N 6260   5.486   6.237   4.819  0.1186  0.2745  0.2456
   47MOL0     N 6261   5.449   6.223   4.947 -0.0510 -0.5001  1.1205
   47MOL0     C 6262   4.347   6.301   5.577  0.3312  1.2180 -0.5330
   47MOL0     C 6263   4.206   6.308   5.584 -0.5685  0.6435  0.1190
   47MOL0     C 6264   3.782   6.434   5.628  0.7351 -0.3285 -1.0385
   47MOL0     C 6265   3.756   6.443   5.490 -0.0724 -0.5981 -0.1682
   47MOL0     C 6266   3.628   6.478   5.452  0.3907  0.3013 -0.3144
   47MOL0     C 6267   3.525   6.499   5.539  0.0399  0.0225  0.2385
   47MOL0     O 6268   3.408   6.540   5.482 -0.2883  0.0424  0.5377
   47MOL0     C 6269   3.283   6.491   5.539  0.3403  0.3713  0.3505
   47MOL0     C 6270   3.238   6.366   5.465 -0.0247 -0.5306  0.3465
   47MOL0     C 6271   3.215   6.402   5.319 -0.5546 -0.3370  0.3363
   47MOL0     C 6272   3.164   6.278   5.257  0.9529 -0.6872 -0.5646
   47MOL0     C 6273   3.116   6.299   5.122 -0.2502  0.5900 -0.2605
   47MOL0     C 6274   3.069   6.313   5.015  0.3268  0.4254 -0.8227
   47MOL0     C 6275   3.548   6.486   5.673  0.1290  0.5024 -0.4651
   47MOL0     C 6276   3.673   6.457   5.720  0.1049 -0.0075  0.0206
   47MOL0     C 6277   3.702   6.453   5.869  0.0793 -0.4271 -0.5633
   47MOL0     H 6278   4.167   6.634   5.612  1.0916  0.1669  0.4112
   47MOL0     H 6279   4.426   6.625   5.623  1.3868 -0.7558 -1.7877
   47MOL0     H 6280   4.625   6.604   5.548  2.1113 -0.6701 -1.1564
   47MOL0     H 6281   4.624   6.544   5.718  0.1708  1.7747  0.8570
   47MOL0     H 6282   4.795   6.389   5.646  0.5663  0.8744  0.5160
   47MOL0     H 6283   4.851   6.559   5.660  0.4145 -0.1545  1.3166
   47MOL0     H 6284   4.842   6.571   5.407  0.2447 -0.9471 -1.4879
   47MOL0     H 6285   4.789   6.406   5.397 -1.3165 -2.0063  2.6645
   47MOL0     H 6286   5.065   6.453   5.529 -0.7519  0.1702  0.0787
   47MOL0     H 6287   4.993   6.309   5.527 -0.6572  0.9990  2.4164
   47MOL0     H 6288   5.003   6.278   5.286  1.1423 -0.8133 -0.7575
   47MOL0     H 6289   4.980   6.455   5.260  0.8439 -0.0386 -0.2709
   47MOL0     H 6290   5.209   6.492   5.305  0.5359 -0.6897 -0.5167
   47MOL0     H 6291   5.229   6.319   5.353 -0.6866 -0.5175 -1.5579
   47MOL0     H 6292   5.159   6.409   5.068  0.5572  2.9283  1.3564
   47MOL0     H 6293   5.191   6.243   5.116  4.1411 -0.4005 -1.6668
   47MOL0     H 6294   5.373   6.480   5.134 -5.0329  0.5565 -0.2053
   47MOL0     H 6295   5.421   6.313   5.188 -0.9443  0.3974  0.2090
   47MOL0     H 6296   5.323   6.510   4.875  2.4313  0.1992  0.3125
   47MOL0     H 6297   5.440   6.330   4.559  0.6601 -1.3764  0.6328
   47MOL0     H 6298   5.438   6.501   4.612  0.4493  0.0539 -1.3596
   47MOL0     H 6299   5.655   6.504   4.580 -1.9188  0.8752  4.0537
   47MOL0     H 6300   5.691   6.391   4.705  0.0644 -0.4300  0.3086
   47MOL0     H 6301   5.626   6.281   4.427 -2.4989  1.5002  0.4968
   47MOL0     H 6302   5.687   6.189   4.568 -1.6300 -1.5132 -2.6206
   47MOL0     H 6303   5.822   6.413   4.404 -3.7609 -1.0213 -2.1092
   47MOL0     H 6304   5.856   6.240   4.395  0.4638  0.5717  0.2406
   47MOL0     H 6305   6.072   6.298   4.349 -2.7914  0.8203  1.0289
   47MOL0     H 6306   6.316   6.255   4.356 -2.3032 -0.9002  0.2103
   47MOL0     H 6307   6.779   6.358   4.580 -1.4229 -0.0667  0.0555
   47MOL0     H 6308   6.998   6.243   4.611 -0.5656  1.0279 -0.1389
   47MOL0     H 6309   7.174   5.993   4.642 -2.0585 -0.7024 -0.0953
   47MOL0     H 6310   7.199   6.141   4.717 -1.0235  1.1802  1.2876
   47MOL0     H 6311   7.278   6.015   4.927  0.8072  0.8769 -0.3844
   47MOL0     H 6312   7.228   5.866   4.856  0.8863 -0.6752  0.0965
   47MOL0     H 6313   7.406   5.929   4.665 -0.9668  0.6745  0.2464
   47MOL0     H 6314   7.441   6.069   4.765  0.2240  0.0217  1.9484
   47MOL0     H 6315   7.460   5.767   4.867 -0.0674 -0.2780 -3.0461
   47MOL0     H 6316   7.521   5.902   4.954  1.7350 -0.7650  0.9840
   47MOL0     H 6317   7.693   5.938   4.759 -0.7628  1.1389  0.8769
   47MOL0     H 6318   7.600   5.821   4.665  0.6737 -1.7497  0.6625
   47MOL0     H 6319   7.745   5.740   4.923 -0.6387  2.4383  0.1963
   47MOL0     H 6320   7.645   5.636   4.812  1.0217 -1.0857  0.5246
   47MOL0     H 6321   7.876   5.797   4.698  1.8548 -0.0240 -0.5331
   47MOL0     H 6322   7.785   5.678   4.621 -3.1993  1.0170  1.5131
   47MOL0     H 6323   7.863   5.495   4.763 -1.0267  0.5848  2.2862
   47MOL0     H 6324   7.999   5.575   4.689  1.0022 -0.3150  1.1396
   47MOL0     H 6325   6.819   5.955   4.881  2.2558  0.2382  0.1176
   47MOL0     H 6326   6.594   6.063   4.836 -0.1922  0.2641 -0.2839
   47MOL0     H 6327   6.324   6.293   4.777  0.3172 -1.9149 -0.1072
   47MOL0     H 6328   6.086   6.337   4.771  0.3975  1.1841 -0.8342
   47MOL0     H 6329   4.393   6.203   5.568  1.2005  1.2659  2.4328
   47MOL0     H 6330   4.141   6.222   5.584  0.0922  0.1327  0.2562
   47MOL0     H 6331   3.822   6.428   5.405 -2.3063 -1.1561 -1.9014
   47MOL0     H 6332   3.609   6.499   5.347 -2.9865  1.4541  0.4008
   47MOL0     H 6333   3.204   6.566   5.525  2.1139  3.3027  4.0809
   47MOL0     H 6334   3.285   6.475   5.647  0.7398  0.0398  0.2937
   47MOL0     H 6335   3.143   6.329   5.506 -0.8503 -1.1030 -1.9487
   47MOL0     H 6336   3.309   6.283   5.470 -0.1550 -0.8535 -2.0527
   47MOL0     H 6337   3.309   6.436   5.274 -0.5679 -1.7557 -0.8474
   47MOL0     H 6338   3.142   6.483   5.314  0.3187  0.5088  0.9919
   47MOL0     H 6339   3.240   6.200   5.251  0.0196 -1.5852 -0.9528
   47MOL0     H 6340   3.077   6.249   5.316  0.1598  1.0850 -0.7852
   47MOL0     H 6341   3.015   6.326   4.923 -0.4304  0.3432 -0.3961
   47MOL0     H 6342   3.473   6.525   5.741 -0.5472 -1.3460 -0.1011
   47MOL0     H 6343   3.726   6.348   5.892  0.1975 -0.4853 -0.9299
   47MOL0     H 6344   3.787   6.515   5.900  1.0745 -0.6686 -2.6002
   47MOL0     H 6345   3.614   6.476   5.929  1.5089 -3.7466  3.2979
   48MOL0     O 6346   7.506   1.505   7.787 -0.7464 -0.6219  0.4678
   48MOL0     C 6347   7.477   1.560   7.676 -0.1272  0.1332 -0.1603
   48MOL0     O 6348   7.565   1.603   7.583 -0.9803 -0.0418  0.3614
   48MOL0     C 6349   7.696   1.610   7.619 -0.6300 -0.2317 -0.4653
   48MOL0     C 6350   7.762   1.740   7.603  0.0820  0.4872  0.4118
   48MOL0     C 6351   7.894   1.767   7.628 -1.2169  0.4778  0.5460
   48MOL0     C 6352   7.973   1.662   7.668 -0.5083  0.2882  0.3666
   48MOL0     O 6353   8.106   1.693   7.684  0.6236 -0.0133  0.0419
   48MOL0     C 6354   8.139   1.728   7.817 -0.8336  0.4456  0.4924
   48MOL0     C 6355   8.287   1.706   7.848  0.4570  0.8759 -0.2655
   48MOL0     C 6356   8.305   1.752   7.996  0.3062 -0.7510 -0.6464
   48MOL0     C 6357   8.451   1.766   8.028 -0.3017 -0.1745  0.0160
   48MOL0     C 6358   8.505   1.622   8.063  0.4576 -0.6338  0.5869
   48MOL0     C 6359   8.659   1.617   8.035  0.3327  0.7050 -0.4999
   48MOL0     C 6360   8.729   1.548   8.156  0.0489  0.2534  0.2068
   48MOL0     C 6361   8.745   1.645   8.274 -0.1205  0.1863  0.9357
   48MOL0     N 6362   8.833   1.587   8.380  0.3087 -0.2220 -0.3234
   48MOL0     C 6363   8.824   1.463   8.439 -0.1548  0.8068 -0.6068
   48MOL0     C 6364   8.919   1.470   8.536  0.1348  0.5198 -0.4385
   48MOL0     C 6365   8.951   1.363   8.642 -0.0246 -0.2862  0.3390
   48MOL0     C 6366   9.079   1.384   8.745 -0.7903  0.3663 -0.5679
   48MOL0     C 6367   9.072   1.518   8.831  0.0362  0.1465 -0.5500
   48MOL0     C 6368   9.189   1.538   8.921 -0.2976  0.4483 -0.2889
   48MOL0     O 6369   9.306   1.564   8.845  0.1487 -1.0815 -0.2560
   48MOL0     C 6370   9.398   1.635   8.923 -0.0545  0.2222  0.2152
   48MOL0     C 6371   9.479   1.729   8.859 -0.1307  0.3176  0.4153
   48MOL0     C 6372   9.593   1.784   8.922  0.3072  0.7445  0.1302
   48MOL0     C 6373   9.616   1.752   9.053  0.1432  0.0695 -0.7777
   48MOL0     C 6374   9.727   1.824   9.126 -0.1885 -0.2577 -0.2263
   48MOL0     O 6375   9.764   1.945   9.087 -0.0804  0.2260  0.2371
   48MOL0     C 6376   9.879   1.991   9.155  0.3202  0.1784 -0.3521
   48MOL0     C 6377   9.877   2.041   9.285 -0.0597 -0.7185  0.5391
   48MOL0     C 6378   9.995   2.087   9.342 -0.1026 -0.6897  0.1333
   48MOL0     C 6379  10.114   2.085   9.273 -0.5057  0.0086  0.0112
   48MOL0     O 6380  10.231   2.127   9.332 -0.4806  0.0476  0.8333
   48MOL0     C 6381  10.288   2.255   9.305 -0.1485 -0.2018  0.1452
   48MOL0     C 6382  10.389   2.299   9.413  0.0947  0.2654  0.7241
   48MOL0     C 6383  10.503   2.390   9.347  0.5507 -1.2917  1.0096
   48MOL0     C 6384  10.601   2.434   9.453 -0.3276  0.2358 -1.1539
   48MOL0     C 6385  10.721   2.511   9.397  0.6247 -0.3762  1.1943
   48MOL0     C 6386  10.813   2.568   9.506  0.1404  0.2034 -0.7511
   48MOL0     C 6387  10.934   2.647   9.447 -0.3342  0.1396  0.3543
   48MOL0     C 6388  11.013   2.711   9.566  0.0857 -0.3709 -0.5116
   48MOL0    Cl 6389  11.132   2.822   9.507 -0.2795  0.0330  0.1177
   48MOL0     C 6390  10.115   2.033   9.144 -0.6854  0.2643 -1.1766
   48MOL0     C 6391   9.999   1.992   9.082 -0.0543 -0.4104  0.2574
   48MOL0     O 6392   9.781   1.759   9.222  0.3133  0.2961  0.0237
   48MOL0     C 6393   9.531   1.656   9.120  0.2500  0.0136  0.7404
   48MOL0     C 6394   9.425   1.600   9.051 -1.1510 -0.0487 -0.4411
   48MOL0     N 6395   8.988   1.586   8.530  0.6127 -1.1749  1.0217
   48MOL0     N 6396   8.941   1.653   8.428 -0.5583  0.0903  0.6919
   48MOL0     C 6397   7.916   1.535   7.695  0.0387  0.2841 -0.8177
   48MOL0     C 6398   7.776   1.514   7.668  0.0352  0.7364  0.0452
   48MOL0     C 6399   7.327   1.584   7.645 -0.0462 -0.3776  0.0206
   48MOL0     C 6400   7.300   1.647   7.523  0.7385  0.7039  0.3800
   48MOL0     C 6401   7.166   1.686   7.492  0.1277 -0.3327  0.5276
   48MOL0     C 6402   7.061   1.664   7.582 -0.5095  0.9271 -0.5324
   48MOL0     O 6403   6.937   1.704   7.537 -0.1020 -0.4389  0.0098
   48MOL0     C 6404   6.821   1.658   7.603  1.4114 -0.6522  0.9228
   48MOL0     C 6405   6.703   1.722   7.537  0.1977 -0.5727 -0.2792
   48MOL0     C 6406   6.664   1.643   7.409  0.2161 -0.3356  0.2917
   48MOL0     C 6407   6.549   1.715   7.352  0.1072 -0.5104  0.4347
   48MOL0     C 6408   6.516   1.652   7.220 -0.6692  0.3012 -0.5440
   48MOL0     C 6409   6.484   1.613   7.114 -0.8261  0.2095  0.1357
   48MOL0     C 6410   7.085   1.598   7.701 -0.1458 -0.2889  0.1305
   48MOL0     C 6411   7.218   1.556   7.736  0.0003 -0.3428 -0.1907
   48MOL0     C 6412   7.239   1.485   7.861  0.3608  0.3350  0.0067
   48MOL0     H 6413   7.709   1.818   7.549 -1.2474 -2.2596 -2.5509
   48MOL0     H 6414   7.926   1.868   7.609 -1.0778  0.5686  1.2367
   48MOL0     H 6415   8.126   1.836   7.829 -1.1789  0.6024 -1.0590
   48MOL0     H 6416   8.076   1.663   7.879  0.9789 -3.7114 -1.6691
   48MOL0     H 6417   8.352   1.761   7.780  1.2038  2.2565  1.4818
   48MOL0     H 6418   8.316   1.600   7.847  2.4049  1.1639  4.0246
   48MOL0     H 6419   8.257   1.692   8.073 -0.2057 -0.8179 -1.0133
   48MOL0     H 6420   8.261   1.851   8.005  0.6760 -0.7035  0.7916
   48MOL0     H 6421   8.501   1.812   7.942  0.9261  0.8108  1.2204
   48MOL0     H 6422   8.475   1.829   8.114  3.6369 -2.0157  0.4821
   48MOL0     H 6423   8.470   1.597   8.164  1.2837 -0.7999  0.8417
   48MOL0     H 6424   8.469   1.543   7.998  0.5885 -1.8228  1.9014
   48MOL0     H 6425   8.664   1.543   7.955 -0.9142 -0.9332  0.8599
   48MOL0     H 6426   8.705   1.711   8.005  1.9034 -0.8894 -3.5383
   48MOL0     H 6427   8.826   1.521   8.115 -0.2219  0.0678 -0.3280
   48MOL0     H 6428   8.681   1.457   8.194  2.9146 -1.2984  0.3869
   48MOL0     H 6429   8.780   1.737   8.227  0.4188  0.9092  2.6814
   48MOL0     H 6430   8.645   1.664   8.314 -0.7992  1.2670 -1.1392
   48MOL0     H 6431   8.754   1.380   8.428  0.3022  0.2459  0.5690
   48MOL0     H 6432   8.858   1.345   8.698 -0.8527 -0.6843 -1.0947
   48MOL0     H 6433   8.970   1.268   8.590 -0.6632 -0.2421  0.0000
   48MOL0     H 6434   9.089   1.292   8.803  0.4859  1.7077  1.5103
   48MOL0     H 6435   9.173   1.393   8.692  0.5619  1.7355  1.8649
   48MOL0     H 6436   8.980   1.512   8.891  0.9431  0.2013  0.8848
   48MOL0     H 6437   9.076   1.607   8.767 -0.4824  0.7748  0.2559
   48MOL0     H 6438   9.197   1.452   8.988  0.5423 -0.3252 -1.3639
   48MOL0     H 6439   9.161   1.627   8.978 -3.3811  0.0225 -0.9499
   48MOL0     H 6440   9.465   1.742   8.752 -0.1170 -1.9664  0.0832
   48MOL0     H 6441   9.670   1.846   8.877  0.8904  0.6688  0.9852
   48MOL0     H 6442   9.784   2.038   9.341  0.0127 -2.3683  0.6250
   48MOL0     H 6443   9.989   2.128   9.442 -1.7289 -0.8263  0.1162
   48MOL0     H 6444  10.323   2.251   9.201  2.0411  0.5243  0.7952
   48MOL0     H 6445  10.210   2.332   9.305  0.4245  0.3828  0.3102
   48MOL0     H 6446  10.342   2.347   9.499  0.4552  0.9748  0.5345
   48MOL0     H 6447  10.442   2.208   9.443 -0.2143  0.3174  1.4274
   48MOL0     H 6448  10.565   2.337   9.274  1.6899 -1.6362  2.1899
   48MOL0     H 6449  10.460   2.478   9.299 -0.3154 -0.9424  2.4083
   48MOL0     H 6450  10.639   2.348   9.508 -1.9391  0.2690  0.0612
   48MOL0     H 6451  10.555   2.500   9.526 -1.4444  0.6079 -2.1570
   48MOL0     H 6452  10.679   2.593   9.339  0.3526  2.8400  5.4154
   48MOL0     H 6453  10.789   2.447   9.340  1.4040  0.2460  1.4010
   48MOL0     H 6454  10.753   2.623   9.579 -0.6452 -0.7210 -0.6846
   48MOL0     H 6455  10.859   2.480   9.552 -1.5590 -1.6576 -2.4087
   48MOL0     H 6456  10.894   2.723   9.379 -0.6106 -0.2158  0.1135
   48MOL0     H 6457  11.000   2.586   9.385 -0.8425 -1.3862  1.2581
   48MOL0     H 6458  10.934   2.774   9.609  0.0620 -1.6721  1.4798
   48MOL0     H 6459  11.048   2.635   9.636 -1.2311 -0.9948 -0.4965
   48MOL0     H 6460  10.205   2.012   9.087  0.7406  0.8551  0.7570
   48MOL0     H 6461  10.000   1.958   8.979 -1.5809 -2.2972  0.8064
   48MOL0     H 6462   9.546   1.619   9.220 -0.1679 -1.9240  0.1258
   48MOL0     H 6463   9.377   1.512   9.093  1.2168 -0.2422  2.1486
   48MOL0     H 6464   7.976   1.448   7.724  0.2034  0.4163 -0.7596
   48MOL0     H 6465   7.741   1.412   7.685  0.0856  0.5372 -0.9600
   48MOL0     H 6466   7.383   1.677   7.461  1.9204  0.4227  1.7719
   48MOL0     H 6467   7.144   1.736   7.398  0.2452 -2.8554 -0.9332
   48MOL0     H 6468   6.811   1.695   7.706 -2.4098  1.1663  0.1119
   48MOL0     H 6469   6.820   1.549   7.600  1.9602 -0.6527 -2.5412
   48MOL0     H 6470   6.723   1.827   7.514  0.4161 -0.6881 -0.6244
   48MOL0     H 6471   6.618   1.712   7.606  1.4113 -1.7961  1.1037
   48MOL0     H 6472   6.618   1.548   7.437 -2.9579 -0.5004 -4.3532
   48MOL0     H 6473   6.751   1.632   7.344 -0.1873  3.6651 -1.1733
   48MOL0     H 6474   6.457   1.715   7.411  0.0936 -0.0776  0.4177
   48MOL0     H 6475   6.580   1.816   7.323 -1.2078 -1.1441 -3.9202
   48MOL0     H 6476   6.462   1.583   7.014  1.1903 -2.6291  0.4245
   48MOL0     H 6477   7.005   1.579   7.771  0.1746  1.3104  0.9762
   48MOL0     H 6478   7.143   1.445   7.895 -0.0960 -0.2867 -1.8632
   48MOL0     H 6479   7.306   1.399   7.854 -0.9811 -0.7985  0.5749
   48MOL0     H 6480   7.283   1.547   7.939  1.7931 -0.6470  0.0244
   49MOL0     O 6481   3.194   1.024   6.078  0.1136 -0.7065 -0.4975
   49MOL0     C 6482   3.121   0.943   6.032 -0.3732  0.2557 -0.9627
   49MOL0     O 6483   3.161   0.815   6.002  1.0250  0.1861 -0.1373
   49MOL0     C 6484   3.274   0.763   6.052 -0.1553 -0.0809 -0.2953
   49MOL0     C 6485   3.393   0.731   5.980 -0.0727 -0.4320  0.4206
   49MOL0     C 6486   3.504   0.665   6.035 -0.0635 -0.6871 -0.2443
   49MOL0     C 6487   3.501   0.629   6.168  0.3025  0.1724 -0.6854
   49MOL0     O 6488   3.595   0.549   6.227  0.1171  0.0482  0.8550
   49MOL0     C 6489   3.725   0.543   6.160 -0.2834  0.5980 -0.5242
   49MOL0     C 6490   3.798   0.417   6.219 -0.4709 -0.4310  0.3039
   49MOL0     C 6491   3.954   0.441   6.208  0.4320  0.4306 -0.4380
   49MOL0     C 6492   4.014   0.302   6.173  0.2430  0.4397 -0.0428
   49MOL0     C 6493   4.164   0.319   6.140 -0.4292 -0.2015 -0.5333
   49MOL0     C 6494   4.244   0.347   6.267  0.1370  0.0636  0.3523
   49MOL0     C 6495   4.397   0.358   6.243 -0.1184 -0.6126  0.5983
   49MOL0     C 6496   4.459   0.213   6.249 -0.7977  0.5595  0.2071
   49MOL0     N 6497   4.610   0.225   6.250  0.0049  0.1987 -0.2109
   49MOL0     C 6498   4.687   0.216   6.361 -0.1206  0.2121 -0.5347
   49MOL0     C 6499   4.820   0.227   6.317  0.0436 -0.5678  0.1711
   49MOL0     C 6500   4.945   0.219   6.404 -0.6073 -0.5295  0.4434
   49MOL0     C 6501   4.975   0.078   6.456 -0.0735 -0.2254  0.9297
   49MOL0     C 6502   5.069   0.065   6.573  0.1566  0.6922  0.7079
   49MOL0     C 6503   5.218   0.107   6.542  0.7357 -0.1830  0.3328
   49MOL0     O 6504   5.310   0.032   6.629  0.3357  0.6827 -0.0589
   49MOL0     C 6505   5.440   0.026   6.598 -0.8940  0.1940 -1.3211
   49MOL0     C 6506   5.502   0.134   6.527 -0.5585  0.3532 -0.2903
   49MOL0     C 6507   5.637   0.125   6.490 -0.7947 -0.5462  0.0217
   49MOL0     C 6508   5.724   0.022   6.518 -0.5860  0.1484 -0.2092
   49MOL0     C 6509   5.865   0.035   6.494 -0.1794  0.3685  0.9416
   49MOL0     O 6510   5.916   0.161   6.477  0.2358  0.6725 -0.3562
   49MOL0     C 6511   6.049   0.180   6.432  0.0169 -0.5113 -0.3455
   49MOL0     C 6512   6.118   0.288   6.489 -0.4667  0.0209 -0.6578
   49MOL0     C 6513   6.254   0.312   6.458  0.3845  0.0897  0.1828
   49MOL0     C 6514   6.321   0.253   6.353 -0.6033 -0.0011 -0.1697
   49MOL0     O 6515   6.445   0.309   6.317 -0.0149 -0.3104 -0.2584
   49MOL0     C 6516   6.550   0.235   6.250 -0.1492  0.3230 -0.4318
   49MOL0     C 6517   6.666   0.319   6.221 -0.2785  0.0449  0.4642
   49MOL0     C 6518   6.794   0.244   6.180  0.2266  0.8445 -0.6787
   49MOL0     C 6519   6.913   0.338   6.173 -0.4874 -0.5611  0.0735
   49MOL0     C 6520   7.035   0.293   6.099 -0.2442 -0.1606  0.5505
   49MOL0     C 6521   7.173   0.312   6.161 -0.1143  0.1205  0.3471
   49MOL0     C 6522   7.211   0.458   6.164  0.7770  0.0240 -0.1145
   49MOL0     C 6523   7.345   0.486   6.239  0.2793 -0.4956  0.2347
   49MOL0    Cl 6524   7.489   0.411   6.156  0.0521 -0.1065 -0.5678
   49MOL0     C 6525   6.253   0.146   6.285  0.4145  0.5921 -0.0544
   49MOL0     C 6526   6.126   0.108   6.331 -0.2236 -0.7250  0.2123
   49MOL0     O 6527   5.931  -0.069   6.504 -0.8052  0.9055  0.5256
   49MOL0     C 6528   5.661  -0.088   6.582 -0.3009 -0.4941 -0.7335
   49MOL0     C 6529   5.528  -0.081   6.615 -0.0653 -0.4189 -0.1830
   49MOL0     N 6530   4.818   0.255   6.186  0.7952 -0.7694  0.7649
   49MOL0     N 6531   4.693   0.256   6.147  0.0090  0.1421  0.5971
   49MOL0     C 6532   3.391   0.661   6.243  0.8849  0.8461  0.2825
   49MOL0     C 6533   3.278   0.716   6.183 -0.0842 -0.1375  0.1856
   49MOL0     C 6534   2.976   0.990   6.020 -0.6881  0.0366  0.3112
   49MOL0     C 6535   2.881   0.889   6.014 -0.5877 -0.2072 -1.0816
   49MOL0     C 6536   2.738   0.905   6.012  0.3906  0.0017 -0.5063
   49MOL0     C 6537   2.687   1.037   6.002  0.3373  0.4273 -0.6731
   49MOL0     O 6538   2.551   1.071   6.016 -0.0902  0.0460  0.0209
   49MOL0     C 6539   2.457   0.959   6.014 -0.3236  0.0923 -0.2807
   49MOL0     C 6540   2.321   0.998   5.970  0.0654 -0.5134  0.0586
   49MOL0     C 6541   2.268   1.100   6.064  0.1973 -0.8939 -0.8907
   49MOL0     C 6542   2.309   1.244   6.026 -0.6781 -0.4139 -0.0838
   49MOL0     C 6543   2.284   1.275   5.890  0.8285  0.3763  0.8991
   49MOL0     C 6544   2.252   1.309   5.777  0.9309  1.1843 -0.2334
   49MOL0     C 6545   2.781   1.150   5.992  0.4799 -0.3141  0.0659
   49MOL0     C 6546   2.925   1.123   6.001  0.4987  0.2855 -0.4138
   49MOL0     C 6547   3.018   1.234   5.998  0.5390 -0.1820  0.6106
   49MOL0     H 6548   3.397   0.753   5.873 -4.3663  2.7249  0.6136
   49MOL0     H 6549   3.585   0.642   5.966 -0.6793 -1.5159 -0.7037
   49MOL0     H 6550   3.708   0.526   6.053  0.0787  1.2035 -0.6837
   49MOL0     H 6551   3.788   0.632   6.168 -1.3262  1.3583 -0.6140
   49MOL0     H 6552   3.766   0.321   6.177  0.7760 -1.4508  1.5827
   49MOL0     H 6553   3.771   0.412   6.325 -0.4123 -1.2279  0.2857
   49MOL0     H 6554   3.981   0.486   6.304 -1.1199  0.6813 -0.0962
   49MOL0     H 6555   3.994   0.507   6.130  0.7293  0.2968 -0.3997
   49MOL0     H 6556   3.986   0.224   6.244 -0.7037 -0.0313 -0.9206
   49MOL0     H 6557   3.980   0.260   6.078 -2.3128 -0.0880  1.0323
   49MOL0     H 6558   4.194   0.228   6.086  3.0281  0.5614 -0.1318
   49MOL0     H 6559   4.182   0.402   6.071  1.4420  2.5531  2.9571
   49MOL0     H 6560   4.218   0.441   6.316  1.3887 -0.9988  3.2192
   49MOL0     H 6561   4.219   0.269   6.338 -1.0475 -1.9877 -2.1359
   49MOL0     H 6562   4.439   0.418   6.324  0.1693 -1.1648  0.8641
   49MOL0     H 6563   4.423   0.409   6.150  0.1846 -2.1668 -0.1934
   49MOL0     H 6564   4.424   0.170   6.343  1.9418 -0.6778  0.7477
   49MOL0     H 6565   4.419   0.150   6.168 -1.2029 -0.8063  1.4238
   49MOL0     H 6566   4.638   0.209   6.457  1.2362 -1.9777  0.0521
   49MOL0     H 6567   5.032   0.256   6.349  0.5993 -1.2505  1.8110
   49MOL0     H 6568   4.933   0.287   6.489 -0.1095 -0.0157  0.1114
   49MOL0     H 6569   4.884   0.036   6.501 -1.4932  1.2970 -0.4254
   49MOL0     H 6570   5.005   0.017   6.370  0.2779 -0.0983  0.9602
   49MOL0     H 6571   5.076  -0.040   6.602 -0.6926 -0.2213 -2.0712
   49MOL0     H 6572   5.034   0.127   6.656  0.9447  1.9901  0.0966
   49MOL0     H 6573   5.226   0.215   6.559 -1.1620  0.1498 -0.5227
   49MOL0     H 6574   5.242   0.072   6.441  0.1992 -0.9340  0.4574
   49MOL0     H 6575   5.448   0.224   6.501  0.9909  1.3175 -0.3327
   49MOL0     H 6576   5.683   0.211   6.443 -1.2941 -0.6089 -0.5869
   49MOL0     H 6577   6.069   0.344   6.568 -0.6549  0.3658 -1.0124
   49MOL0     H 6578   6.305   0.387   6.518  2.7663 -1.0114 -0.3450
   49MOL0     H 6579   6.572   0.152   6.318 -1.4464 -0.0608 -0.4663
   49MOL0     H 6580   6.514   0.188   6.158 -2.1145 -1.2490  1.0199
   49MOL0     H 6581   6.638   0.384   6.138 -3.8224 -1.2019  0.5068
   49MOL0     H 6582   6.690   0.392   6.299  1.4859  0.9902 -0.8953
   49MOL0     H 6583   6.798   0.159   6.249 -1.9631 -0.2560 -1.8118
   49MOL0     H 6584   6.780   0.199   6.082 -2.2680  1.5399 -0.7058
   49MOL0     H 6585   6.930   0.376   6.274  2.2293  0.4070 -0.6715
   49MOL0     H 6586   6.882   0.427   6.118  3.8526 -0.2400 -2.2520
   49MOL0     H 6587   7.039   0.335   5.998  0.1820 -0.1583  0.5661
   49MOL0     H 6588   7.023   0.186   6.080 -0.2593  0.1549 -1.3777
   49MOL0     H 6589   7.181   0.263   6.258  1.6154  0.0363  0.1910
   49MOL0     H 6590   7.239   0.261   6.090 -1.2297  1.5381 -1.8021
   49MOL0     H 6591   7.128   0.504   6.218 -0.1066 -0.8264 -0.7082
   49MOL0     H 6592   7.210   0.501   6.064  1.1715 -0.8190 -0.4897
   49MOL0     H 6593   7.369   0.592   6.247  0.6730 -0.3697 -1.9887
   49MOL0     H 6594   7.334   0.439   6.338 -1.7045 -0.0864  0.2464
   49MOL0     H 6595   6.299   0.102   6.197 -0.4363  0.4926 -0.4608
   49MOL0     H 6596   6.083   0.026   6.275  2.2778 -1.5444 -0.6033
   49MOL0     H 6597   5.724  -0.174   6.603  0.8250  0.5091  0.2369
   49MOL0     H 6598   5.489  -0.162   6.676  0.3249  0.2425  0.9978
   49MOL0     H 6599   3.383   0.626   6.345  0.7118 -2.8907 -0.8377
   49MOL0     H 6600   3.190   0.738   6.243  2.0773  1.2546  3.0979
   49MOL0     H 6601   2.911   0.784   6.018  2.5169  0.6347  0.7088
   49MOL0     H 6602   2.669   0.822   6.024 -0.6089  0.7511 -0.9859
   49MOL0     H 6603   2.456   0.903   6.108  2.3261  1.0280  0.4022
   49MOL0     H 6604   2.477   0.881   5.940 -0.5390 -1.0126  0.7872
   49MOL0     H 6605   2.265   0.905   5.961 -2.9235  1.2659 -1.3300
   49MOL0     H 6606   2.325   1.028   5.864  0.7015 -2.4853 -0.5197
   49MOL0     H 6607   2.290   1.077   6.169 -1.0387 -1.3444 -0.7186
   49MOL0     H 6608   2.160   1.100   6.045  0.3810 -0.7299 -2.0020
   49MOL0     H 6609   2.250   1.318   6.081 -0.9526  1.2435 -2.4759
   49MOL0     H 6610   2.411   1.270   6.059 -1.4393  0.1123  2.0095
   49MOL0     H 6611   2.214   1.326   5.679  1.7711 -1.3413 -1.0762
   49MOL0     H 6612   2.742   1.250   5.975  2.8318  0.2777 -2.8408
   49MOL0     H 6613   2.967   1.311   5.939  0.3925  0.6366  1.7851
   49MOL0     H 6614   3.039   1.274   6.097  0.7030 -1.6008  1.1820
   49MOL0     H 6615   3.114   1.214   5.948 -0.1254 -0.1460 -0.7240
   50MOL0     O 6616   7.954   5.292   1.551  0.1811 -0.4204  0.1857
   50MOL0     C 6617   7.914   5.178   1.590  0.0151 -0.9835  0.1805
   50MOL0     O 6618   7.993   5.065   1.590 -0.2385 -0.0350 -0.0713
   50MOL0     C 6619   8.115   5.087   1.547 -0.3028  0.4795  0.1020
   50MOL0     C 6620   8.142   5.096   1.410  0.4845  0.0238 -0.4574
   50MOL0     C 6621   8.271   5.113   1.354 -0.5779 -0.2521 -0.7461
   50MOL0     C 6622   8.382   5.144   1.447 -0.0093 -0.7215  0.5977
   50MOL0     O 6623   8.502   5.154   1.388 -0.7312  1.1076  0.3755
   50MOL0     C 6624   8.618   5.128   1.469 -1.5581  0.4467 -0.1589
   50MOL0     C 6625   8.742   5.164   1.385  0.5998  0.1221 -0.8284
   50MOL0     C 6626   8.851   5.060   1.408  0.0426 -0.4844 -0.1995
   50MOL0     C 6627   8.976   5.079   1.323  0.3760 -0.3662 -0.0848
   50MOL0     C 6628   9.086   4.967   1.343  0.1655 -0.5039 -0.4989
   50MOL0     C 6629   9.202   5.004   1.259  1.2245 -0.2693 -0.0888
   50MOL0     C 6630   9.327   4.918   1.270 -0.9189  0.2753 -0.2213
   50MOL0     C 6631   9.346   4.839   1.403 -0.0595  0.2448  1.0302
   50MOL0     N 6632   9.470   4.758   1.393 -0.6152  0.5062 -0.1009
   50MOL0     C 6633   9.463   4.621   1.357  0.1850 -1.0588  0.4043
   50MOL0     C 6634   9.564   4.559   1.419 -0.7349  0.4628 -0.6176
   50MOL0     C 6635   9.609   4.418   1.410 -1.0559  0.1841  0.4871
   50MOL0     C 6636   9.728   4.396   1.314  0.0015 -0.4204  0.0149
   50MOL0     C 6637   9.777   4.253   1.312  0.2178  0.3064  0.1069
   50MOL0     C 6638   9.876   4.221   1.201  0.3869  0.2539  0.7944
   50MOL0     O 6639   9.985   4.301   1.196  0.1904 -0.2801  0.5987
   50MOL0     C 6640  10.094   4.293   1.279 -0.9644  0.2238  0.0607
   50MOL0     C 6641  10.102   4.201   1.380 -0.0288 -0.1873 -0.7037
   50MOL0     C 6642  10.203   4.206   1.477  0.7168 -0.7113  0.4609
   50MOL0     C 6643  10.311   4.298   1.461  0.7449 -0.6036  1.1367
   50MOL0     C 6644  10.415   4.305   1.568 -0.3888 -0.5819  0.7692
   50MOL0     O 6645  10.529   4.363   1.525 -0.2773  0.4014  0.5431
   50MOL0     C 6646  10.624   4.392   1.619  0.5530 -0.1802  1.2161
   50MOL0     C 6647  10.755   4.357   1.576 -0.1013  0.1319 -0.8026
   50MOL0     C 6648  10.855   4.370   1.671 -0.4935  0.1415  0.1969
   50MOL0     C 6649  10.836   4.429   1.794 -0.1802 -0.4398  0.5606
   50MOL0     O 6650  10.945   4.424   1.877  0.3480  0.1091 -0.2495
   50MOL0     C 6651  11.017   4.546   1.866 -0.4091  0.9683  0.6358
   50MOL0     C 6652  11.087   4.572   1.997 -0.8023  0.1998 -0.1551
   50MOL0     C 6653  11.176   4.463   2.052 -0.3749 -0.1332 -0.2613
   50MOL0     C 6654  11.257   4.520   2.174  0.2658 -0.1158  0.9279
   50MOL0     C 6655  11.321   4.408   2.245 -0.4543 -0.4098 -0.3235
   50MOL0     C 6656  11.397   4.458   2.371  0.1258 -0.1682 -0.4373
   50MOL0     C 6657  11.302   4.493   2.484  0.2050  0.3496 -0.3413
   50MOL0     C 6658  11.374   4.474   2.620  0.3715  0.5852  0.6776
   50MOL0    Cl 6659  11.410   4.639   2.683  0.6174  0.3695 -0.0521
   50MOL0     C 6660  10.707   4.475   1.828 -0.1074  0.0077 -0.3683
   50MOL0     C 6661  10.602   4.463   1.737 -0.1447  0.9006 -0.3746
   50MOL0     O 6662  10.392   4.257   1.676 -0.4090 -0.3068 -0.1975
   50MOL0     C 6663  10.309   4.383   1.348 -0.2913 -0.5130 -0.8155
   50MOL0     C 6664  10.203   4.380   1.258  0.5188 -0.3229 -0.7409
   50MOL0     N 6665   9.641   4.658   1.478 -0.3576 -0.5763  0.1273
   50MOL0     N 6666   9.587   4.774   1.461  0.0473 -0.2903  0.1266
   50MOL0     C 6667   8.363   5.131   1.583  0.2138 -0.5581 -0.9841
   50MOL0     C 6668   8.230   5.100   1.636  0.1017 -0.8377  1.0856
   50MOL0     C 6669   7.788   5.172   1.667  1.4738  0.0164 -1.1254
   50MOL0     C 6670   7.746   5.049   1.719  0.1628  0.0974 -0.4691
   50MOL0     C 6671   7.614   5.037   1.773  0.0036  0.6537  0.2237
   50MOL0     C 6672   7.525   5.136   1.790  0.4578 -0.1790 -0.4268
   50MOL0     O 6673   7.401   5.103   1.827  0.0567 -1.0265  0.8216
   50MOL0     C 6674   7.351   5.155   1.945  1.2499 -0.0824 -0.4853
   50MOL0     C 6675   7.211   5.124   1.955  0.8269 -0.9264  0.9041
   50MOL0     C 6676   7.166   5.125   2.101  0.2677  0.1382  0.1406
   50MOL0     C 6677   7.018   5.162   2.120  0.2486  0.3682 -0.2970
   50MOL0     C 6678   6.938   5.082   2.029 -0.4183 -0.4991  0.1542
   50MOL0     C 6679   6.891   5.006   1.948  0.4681  0.1296 -0.1401
   50MOL0     C 6680   7.564   5.259   1.735  0.4893 -0.1267 -0.3504
   50MOL0     C 6681   7.686   5.280   1.679 -1.2358  0.4520 -1.1810
   50MOL0     C 6682   7.715   5.422   1.625  0.1467 -0.4875 -0.0860
   50MOL0     H 6683   8.058   5.090   1.341 -0.7351 -0.5345  1.0140
   50MOL0     H 6684   8.292   5.112   1.248  0.1871  1.5747 -0.6452
   50MOL0     H 6685   8.620   5.196   1.555 -1.5055  3.9784 -2.7461
   50MOL0     H 6686   8.632   5.023   1.496  2.3476  0.3063 -2.0212
   50MOL0     H 6687   8.779   5.263   1.413  0.5628  0.4712 -1.9499
   50MOL0     H 6688   8.705   5.162   1.282  2.9128  2.2957 -1.8187
   50MOL0     H 6689   8.821   4.957   1.386  0.3203 -0.8240  0.9262
   50MOL0     H 6690   8.875   5.058   1.515 -0.5584 -1.6021 -0.0740
   50MOL0     H 6691   8.949   5.074   1.217  0.9421 -0.1621 -0.2396
   50MOL0     H 6692   9.017   5.179   1.337 -2.2307  0.5632  1.7201
   50MOL0     H 6693   9.108   4.976   1.450 -2.8427  0.2032  0.1338
   50MOL0     H 6694   9.051   4.865   1.326 -2.3465  0.1241  0.5005
   50MOL0     H 6695   9.162   4.997   1.158  1.3000 -2.4294 -0.0349
   50MOL0     H 6696   9.224   5.108   1.285 -0.2888 -0.3570  1.7245
   50MOL0     H 6697   9.413   4.985   1.263  0.0727 -1.0869 -2.2369
   50MOL0     H 6698   9.335   4.846   1.188  0.2788  0.6586 -0.4668
   50MOL0     H 6699   9.357   4.911   1.485  1.5493  0.1545  0.9214
   50MOL0     H 6700   9.257   4.777   1.414  0.0619  0.0453  0.8984
   50MOL0     H 6701   9.376   4.584   1.305  0.5242  1.2797 -2.0316
   50MOL0     H 6702   9.635   4.387   1.512 -1.9917  2.1792  1.3763
   50MOL0     H 6703   9.532   4.350   1.374 -2.5138  1.8161  0.4257
   50MOL0     H 6704   9.699   4.417   1.211 -0.4782  0.5512  0.3389
   50MOL0     H 6705   9.811   4.464   1.338 -0.3706 -0.6828  2.2490
   50MOL0     H 6706   9.690   4.186   1.307  0.5439 -0.0965 -0.3196
   50MOL0     H 6707   9.822   4.227   1.408 -0.8933 -1.0986  0.2787
   50MOL0     H 6708   9.816   4.238   1.111  0.0949 -2.8813  0.2844
   50MOL0     H 6709   9.905   4.116   1.198 -2.3491 -0.5986  1.2021
   50MOL0     H 6710  10.018   4.138   1.404  0.5769 -0.0884  1.9360
   50MOL0     H 6711  10.197   4.145   1.567 -1.7903  0.1932  0.9882
   50MOL0     H 6712  10.779   4.325   1.475  1.4734  1.5596 -0.9211
   50MOL0     H 6713  10.952   4.331   1.645  0.0914 -0.3641  2.8616
   50MOL0     H 6714  11.083   4.541   1.779  0.7379  1.0046  1.4736
   50MOL0     H 6715  10.958   4.634   1.841  1.9617  2.7899  1.1235
   50MOL0     H 6716  11.142   4.667   1.990  0.5849 -0.6214 -0.7611
   50MOL0     H 6717  11.016   4.582   2.080 -0.4577 -1.7518  0.4130
   50MOL0     H 6718  11.116   4.376   2.083  3.2072 -1.7827  2.9239
   50MOL0     H 6719  11.253   4.429   1.982 -0.7552  2.7469 -2.2656
   50MOL0     H 6720  11.176   4.568   2.230 -1.2002 -1.3287 -0.0739
   50MOL0     H 6721  11.336   4.584   2.133  3.4633 -2.8535  2.3549
   50MOL0     H 6722  11.380   4.351   2.172 -0.4730 -3.1660  1.6495
   50MOL0     H 6723  11.255   4.327   2.277 -0.3351 -1.7381 -3.1573
   50MOL0     H 6724  11.461   4.378   2.410 -0.5790 -0.9019 -0.7596
   50MOL0     H 6725  11.457   4.544   2.340 -0.6774  0.0371 -1.4909
   50MOL0     H 6726  11.221   4.420   2.476  0.7461 -0.6818  2.3793
   50MOL0     H 6727  11.258   4.593   2.475 -2.6640 -0.8102 -0.2360
   50MOL0     H 6728  11.294   4.429   2.679 -2.6001  3.7578 -0.5477
   50MOL0     H 6729  11.461   4.410   2.611  0.2363  0.4067  0.6404
   50MOL0     H 6730  10.702   4.528   1.923 -2.0552 -2.1328  0.8222
   50MOL0     H 6731  10.506   4.495   1.777  0.0848  1.1843 -0.0409
   50MOL0     H 6732  10.386   4.459   1.335 -1.7385  1.3932  1.2034
   50MOL0     H 6733  10.191   4.451   1.177 -1.7164  0.7980  0.4766
   50MOL0     H 6734   8.431   5.159   1.663 -0.9421  2.6349 -1.0024
   50MOL0     H 6735   8.225   5.082   1.743  1.7340 -3.1375  0.8611
   50MOL0     H 6736   7.808   4.960   1.724  1.0262  0.7368  0.8255
   50MOL0     H 6737   7.599   4.935   1.806 -0.9315 -0.2503 -2.6893
   50MOL0     H 6738   7.360   5.264   1.949  2.0602  0.0714 -3.9601
   50MOL0     H 6739   7.405   5.102   2.024  0.2908 -0.8959 -0.3436
   50MOL0     H 6740   7.184   5.037   1.894  2.5245  0.0237 -1.3144
   50MOL0     H 6741   7.166   5.213   1.910  0.8284 -1.9788 -1.2960
   50MOL0     H 6742   7.228   5.182   2.170  0.3559 -1.9526  1.9144
   50MOL0     H 6743   7.159   5.022   2.138  0.6552 -0.7819 -2.1905
   50MOL0     H 6744   6.998   5.143   2.225  0.6153 -1.3107 -0.5102
   50MOL0     H 6745   6.998   5.269   2.110  1.3783  0.6521  0.3533
   50MOL0     H 6746   6.860   4.945   1.866 -1.3408 -0.3315  0.8331
   50MOL0     H 6747   7.488   5.337   1.730  0.0454 -0.6335 -1.9638
   50MOL0     H 6748   7.809   5.454   1.672 -0.8622 -0.8932  2.3699
   50MOL0     H 6749   7.722   5.424   1.516  1.1964 -3.0329 -0.1318
   50MOL0     H 6750   7.632   5.487   1.652  1.6579  2.0246 -1.1676
   51MOL0     O 6751   4.634   8.204   1.418 -0.2664 -0.7312  0.0521
   51MOL0     C 6752   4.646   8.326   1.440 -0.0447  0.0156  0.1923
   51MOL0     O 6753   4.763   8.395   1.437  0.0867 -0.2475  0.0668
   51MOL0     C 6754   4.876   8.327   1.456 -0.0492 -0.0496  0.1926
   51MOL0     C 6755   4.931   8.323   1.585 -0.3159 -0.1947 -0.4050
   51MOL0     C 6756   5.068   8.283   1.600 -0.0466  0.2918  0.3956
   51MOL0     C 6757   5.142   8.229   1.493  0.4652 -0.8071  0.5977
   51MOL0     O 6758   5.274   8.198   1.527 -0.0820  0.3930  0.7841
   51MOL0     C 6759   5.346   8.119   1.428  1.2010  0.1255 -0.2840
   51MOL0     C 6760   5.281   7.975   1.421  0.4526  0.2992  0.3629
   51MOL0     C 6761   5.348   7.911   1.300  0.2222 -0.3607 -0.2352
   51MOL0     C 6762   5.341   7.767   1.324  0.1975  0.4393  0.3696
   51MOL0     C 6763   5.433   7.696   1.235 -0.1154  0.5622 -0.4090
   51MOL0     C 6764   5.383   7.672   1.089 -0.3960 -0.3921  0.5075
   51MOL0     C 6765   5.273   7.567   1.080 -0.1752 -0.1655 -0.2998
   51MOL0     C 6766   5.228   7.544   0.942 -0.0779 -0.8712  0.4676
   51MOL0     N 6767   5.171   7.661   0.881  0.1846 -0.1686 -0.2898
   51MOL0     C 6768   5.106   7.761   0.955  0.5757 -0.5148 -0.5281
   51MOL0     C 6769   5.092   7.870   0.868  0.4388  0.8539  0.3111
   51MOL0     C 6770   5.044   7.999   0.913  0.8158 -0.9899  0.5056
   51MOL0     C 6771   4.891   7.991   0.949 -0.5722 -0.3321  0.4853
   51MOL0     C 6772   4.835   8.128   0.987 -0.3410  0.0311  0.4121
   51MOL0     C 6773   4.687   8.113   1.021 -0.0153 -0.1829 -0.3524
   51MOL0     O 6774   4.639   8.234   1.072 -0.2248 -0.2779  0.2156
   51MOL0     C 6775   4.507   8.252   1.108 -0.1465  0.2584  0.5840
   51MOL0     C 6776   4.420   8.137   1.117 -0.1427  0.3874  0.6068
   51MOL0     C 6777   4.282   8.152   1.147  0.3335  0.2678  0.3320
   51MOL0     C 6778   4.236   8.284   1.162  0.1522  0.8368  0.4985
   51MOL0     C 6779   4.093   8.313   1.199  0.0729 -0.1719  0.2680
   51MOL0     O 6780   4.043   8.432   1.148 -0.6708 -0.0665  0.2721
   51MOL0     C 6781   3.918   8.473   1.154 -0.0219  0.0818 -0.2006
   51MOL0     C 6782   3.825   8.430   1.251  0.2432 -0.3438 -0.8427
   51MOL0     C 6783   3.697   8.486   1.260  0.1147  0.2215  0.1090
   51MOL0     C 6784   3.658   8.578   1.157 -0.2508 -0.0751 -0.3714
   51MOL0     O 6785   3.532   8.633   1.173 -0.0874 -0.8825 -0.0693
   51MOL0     C 6786   3.492   8.754   1.115 -0.4022 -0.2541 -1.2358
   51MOL0     C 6787   3.345   8.788   1.151 -0.3660  0.1243  0.4692
   51MOL0     C 6788   3.244   8.704   1.067 -0.1300  0.3409 -0.5180
   51MOL0     C 6789   3.111   8.697   1.141  0.5297 -0.0536 -0.6201
   51MOL0     C 6790   2.991   8.732   1.059  0.3964 -0.5777 -0.3587
   51MOL0     C 6791   2.865   8.714   1.141 -0.2343  0.2349  0.8886
   51MOL0     C 6792   2.742   8.782   1.076 -0.1429  0.1835  0.1285
   51MOL0     C 6793   2.621   8.693   1.090  0.4296  0.9782  0.0613
   51MOL0    Cl 6794   2.462   8.764   1.049 -0.2299  0.0688 -0.2313
   51MOL0     C 6795   3.749   8.616   1.058 -0.0735  0.2827  0.7207
   51MOL0     C 6796   3.879   8.565   1.059 -0.1048 -0.2196  0.3165
   51MOL0     O 6797   4.025   8.233   1.258  0.0266 -0.3013  0.3551
   51MOL0     C 6798   4.322   8.399   1.155  0.4126 -0.2200 -0.3442
   51MOL0     C 6799   4.455   8.377   1.121 -0.6069 -0.0896 -0.0024
   51MOL0     N 6800   5.150   7.828   0.745 -0.0094  0.3607 -0.3578
   51MOL0     N 6801   5.202   7.710   0.756  1.3025  0.0996  0.6189
   51MOL0     C 6802   5.082   8.225   1.365 -0.3883 -0.4373  0.6087
   51MOL0     C 6803   4.954   8.288   1.350 -0.1266 -1.1892  0.0925
   51MOL0     C 6804   4.519   8.398   1.463  0.3479 -0.4246  0.0261
   51MOL0     C 6805   4.526   8.533   1.419 -0.6717 -0.2062 -0.1043
   51MOL0     C 6806   4.418   8.616   1.430 -0.1605  0.1392 -0.0660
   51MOL0     C 6807   4.301   8.576   1.483 -1.0570  1.5258 -0.5751
   51MOL0     O 6808   4.200   8.661   1.474 -0.5285 -0.2586 -0.2151
   51MOL0     C 6809   4.058   8.625   1.497 -0.9336 -0.4484 -0.4667
   51MOL0     C 6810   3.982   8.751   1.515  0.3312  0.0692 -0.2644
   51MOL0     C 6811   3.837   8.732   1.558 -0.0266  0.0238  0.1108
   51MOL0     C 6812   3.727   8.791   1.463 -0.3775  0.9575  0.4528
   51MOL0     C 6813   3.595   8.729   1.481 -0.1070 -0.1111 -0.5714
   51MOL0     C 6814   3.491   8.676   1.515  0.3883  0.0884 -0.4263
   51MOL0     C 6815   4.286   8.438   1.519 -0.6849 -0.3852  0.3826
   51MOL0     C 6816   4.393   8.348   1.507 -0.9494 -0.3536  0.0573
   51MOL0     C 6817   4.373   8.205   1.536  0.5210  0.5935  0.1072
   51MOL0     H 6818   4.867   8.336   1.672 -2.6699  1.5544 -2.2435
   51MOL0     H 6819   5.121   8.277   1.695  0.6169  1.5396  0.1278
   51MOL0     H 6820   5.339   8.161   1.327  0.5605 -1.8882 -1.1357
   51MOL0     H 6821   5.454   8.113   1.445  1.7608 -0.0608 -3.2634
   51MOL0     H 6822   5.172   7.981   1.408  0.7652  0.0761 -3.6683
   51MOL0     H 6823   5.313   7.918   1.508 -0.4445 -0.5285  0.1704
   51MOL0     H 6824   5.452   7.944   1.297 -0.7244  3.0450 -0.1128
   51MOL0     H 6825   5.301   7.941   1.206 -2.6555  0.7599  1.4294
   51MOL0     H 6826   5.356   7.733   1.427  0.1779 -3.1045 -0.6594
   51MOL0     H 6827   5.240   7.747   1.285  1.7730 -0.7489 -3.5639
   51MOL0     H 6828   5.530   7.747   1.235  1.1221 -1.6067 -1.9599
   51MOL0     H 6829   5.458   7.595   1.271 -2.8427  0.9623  3.0720
   51MOL0     H 6830   5.352   7.768   1.046 -1.0593 -0.8566 -0.0763
   51MOL0     H 6831   5.465   7.627   1.032  1.8664  3.2765  0.5807
   51MOL0     H 6832   5.183   7.595   1.134  0.2467 -2.2682  1.6329
   51MOL0     H 6833   5.304   7.480   1.137 -1.8570 -0.3577  0.3671
   51MOL0     H 6834   5.316   7.525   0.879 -0.3468 -0.4351 -0.0440
   51MOL0     H 6835   5.166   7.453   0.942 -0.1841 -0.9128  3.9968
   51MOL0     H 6836   5.068   7.757   1.056 -0.7435  0.2416 -0.9630
   51MOL0     H 6837   5.092   8.047   0.999  1.2290 -0.5112  0.0080
   51MOL0     H 6838   5.066   8.067   0.830  2.0187 -1.2984  0.5581
   51MOL0     H 6839   4.833   7.942   0.872 -0.7184 -0.7261  0.8430
   51MOL0     H 6840   4.883   7.927   1.037 -2.4554 -0.4816  0.2427
   51MOL0     H 6841   4.836   8.202   0.906  0.3251 -0.7931 -0.3468
   51MOL0     H 6842   4.888   8.165   1.075  3.2737  1.7367 -2.1958
   51MOL0     H 6843   4.693   8.036   1.099  2.7889 -0.5318 -0.7979
   51MOL0     H 6844   4.628   8.065   0.942 -0.6523 -1.4283  0.8233
   51MOL0     H 6845   4.460   8.036   1.110  2.9209  1.5834 -1.1922
   51MOL0     H 6846   4.208   8.075   1.166 -0.8386  1.4140  0.5827
   51MOL0     H 6847   3.856   8.362   1.330  0.4493 -3.6482 -3.5477
   51MOL0     H 6848   3.625   8.458   1.337 -2.0076  0.4422 -1.6798
   51MOL0     H 6849   3.555   8.837   1.149 -0.7785 -1.3540  2.6146
   51MOL0     H 6850   3.495   8.749   1.006 -2.1037  0.9344 -1.3761
   51MOL0     H 6851   3.330   8.764   1.257  0.9569  0.5072  0.7675
   51MOL0     H 6852   3.321   8.892   1.130  0.3726  0.2783  0.3586
   51MOL0     H 6853   3.245   8.748   0.967  1.4641  0.9539 -0.2673
   51MOL0     H 6854   3.289   8.605   1.054  3.5302  1.9485 -1.4656
   51MOL0     H 6855   3.114   8.771   1.221  2.3981 -2.4824  1.7285
   51MOL0     H 6856   3.104   8.596   1.183 -0.3877 -0.5605 -1.9288
   51MOL0     H 6857   2.983   8.657   0.980 -1.6510  2.7672 -3.7034
   51MOL0     H 6858   3.003   8.832   1.015  0.7833 -0.5981 -0.3005
   51MOL0     H 6859   2.857   8.608   1.165 -1.6152  0.7442  3.0364
   51MOL0     H 6860   2.878   8.765   1.237 -1.9588 -1.0510  1.8646
   51MOL0     H 6861   2.749   8.787   0.967 -4.1314  0.3460 -0.2692
   51MOL0     H 6862   2.712   8.882   1.107 -0.0323  0.5614 -0.9375
   51MOL0     H 6863   2.623   8.607   1.022 -0.1860  2.2336 -1.5898
   51MOL0     H 6864   2.622   8.661   1.195 -0.3064  2.4485  0.5337
   51MOL0     H 6865   3.725   8.697   0.991  1.7961 -1.1286 -1.8180
   51MOL0     H 6866   3.951   8.583   0.979 -0.2606 -1.7939 -0.2239
   51MOL0     H 6867   4.270   8.493   1.168 -1.0449 -0.9019 -0.9930
   51MOL0     H 6868   4.511   8.469   1.103 -2.6934  1.0739 -0.8378
   51MOL0     H 6869   5.125   8.177   1.278 -0.8527  0.5121 -0.1719
   51MOL0     H 6870   4.919   8.305   1.249 -0.1930  4.7874  0.7416
   51MOL0     H 6871   4.621   8.566   1.377 -1.0101 -2.2431 -2.7464
   51MOL0     H 6872   4.427   8.719   1.394  2.6517  0.4221  1.1551
   51MOL0     H 6873   4.050   8.555   1.581 -2.3703  0.1204 -0.1002
   51MOL0     H 6874   4.029   8.576   1.403  0.0833 -1.1225 -0.4477
   51MOL0     H 6875   3.990   8.819   1.430 -3.4721  1.7991  0.5648
   51MOL0     H 6876   4.034   8.806   1.595 -0.1600  0.6687 -0.3461
   51MOL0     H 6877   3.823   8.769   1.661  2.7919 -0.0959  0.6121
   51MOL0     H 6878   3.817   8.625   1.565  1.7768 -0.3103  0.8031
   51MOL0     H 6879   3.715   8.899   1.478  2.1580  1.3433  0.1270
   51MOL0     H 6880   3.768   8.778   1.363 -2.0551  1.6454 -0.3661
   51MOL0     H 6881   3.394   8.652   1.553  1.1920  2.4339  3.6943
   51MOL0     H 6882   4.189   8.405   1.556 -1.9824  0.8590 -1.7111
   51MOL0     H 6883   4.364   8.161   1.436 -0.7636  0.2932  0.3405
   51MOL0     H 6884   4.461   8.162   1.584  1.7389  3.7704  0.9853
   51MOL0     H 6885   4.279   8.192   1.589 -1.5465  1.1911 -3.1307
   52MOL0     O 6886   6.565  10.268   0.550  0.0956 -0.3621 -0.2050
   52MOL0     C 6887   6.450  10.220   0.547 -0.2508  1.2968 -0.4678
   52MOL0     O 6888   6.416  10.089   0.587  0.4870 -0.2908  1.2473
   52MOL0     C 6889   6.515  10.006   0.609  0.1868  0.8658 -0.5564
   52MOL0     C 6890   6.565   9.920   0.508 -0.0168  0.3279  0.1300
   52MOL0     C 6891   6.663   9.826   0.524  0.0498  0.1828 -0.6751
   52MOL0     C 6892   6.721   9.814   0.653 -0.0439  0.2076  0.0401
   52MOL0     O 6893   6.818   9.712   0.664  0.3561 -0.2539  0.3593
   52MOL0     C 6894   6.914   9.721   0.763  0.0327  0.8517 -0.0676
   52MOL0     C 6895   6.879   9.653   0.900  0.4863  0.3577  0.3231
   52MOL0     C 6896   7.018   9.630   0.962  0.5094 -0.1193 -0.3172
   52MOL0     C 6897   7.006   9.513   1.072 -0.6843 -0.0596  0.6005
   52MOL0     C 6898   7.132   9.487   1.160 -0.2779  1.1515 -0.5619
   52MOL0     C 6899   7.246   9.407   1.098  0.4452 -0.2424 -0.0256
   52MOL0     C 6900   7.375   9.495   1.061 -0.2571  0.0331  0.8786
   52MOL0     C 6901   7.489   9.402   1.011  0.5992  0.2486  0.6090
   52MOL0     N 6902   7.600   9.483   0.970 -0.5692  1.1531 -1.1540
   52MOL0     C 6903   7.710   9.521   1.048  0.2184  0.3692  0.5818
   52MOL0     C 6904   7.789   9.587   0.962 -0.0567 -0.4571  0.8731
   52MOL0     C 6905   7.930   9.628   0.995  0.6034 -0.0193  0.0313
   52MOL0     C 6906   8.025   9.631   0.875 -0.6160 -0.6561 -1.7325
   52MOL0     C 6907   8.153   9.710   0.899  0.8152  0.6250  0.3067
   52MOL0     C 6908   8.251   9.650   0.999  0.0478 -0.2116  0.7606
   52MOL0     O 6909   8.347   9.761   1.018 -0.3378  0.2362 -0.0842
   52MOL0     C 6910   8.463   9.723   1.075 -0.1188 -0.2151  0.4991
   52MOL0     C 6911   8.578   9.793   1.037 -0.0763  0.4051 -0.1453
   52MOL0     C 6912   8.698   9.767   1.103  0.1559 -0.2001 -0.1580
   52MOL0     C 6913   8.706   9.674   1.204 -0.0799  0.1698  0.4033
   52MOL0     C 6914   8.832   9.649   1.272 -0.6522  0.4676 -0.9088
   52MOL0     O 6915   8.850   9.526   1.335 -0.3683  0.0723 -0.2447
   52MOL0     C 6916   8.965   9.517   1.405 -0.1616  0.2970 -1.0532
   52MOL0     C 6917   8.979   9.536   1.544  0.0905  0.0431  0.1263
   52MOL0     C 6918   9.102   9.511   1.605  0.2855  0.0376 -0.3219
   52MOL0     C 6919   9.211   9.465   1.524 -0.2034  0.6509  0.0120
   52MOL0     O 6920   9.336   9.454   1.576 -0.9609 -0.5921  0.4526
   52MOL0     C 6921   9.348   9.347   1.666  0.4332  0.7078 -0.1132
   52MOL0     C 6922   9.487   9.276   1.681 -0.1049 -0.9822 -0.6365
   52MOL0     C 6923   9.512   9.183   1.560 -0.5162  0.7479 -0.1982
   52MOL0     C 6924   9.652   9.176   1.513 -0.0669 -0.6049  0.4313
   52MOL0     C 6925   9.733   9.308   1.500  0.1808 -0.2486  0.0497
   52MOL0     C 6926   9.875   9.279   1.444  0.3255  0.1209  0.7661
   52MOL0     C 6927   9.964   9.401   1.467  0.0268 -0.3481 -0.2710
   52MOL0     C 6928  10.091   9.420   1.388 -0.2402  1.2703 -0.1187
   52MOL0    Cl 6929  10.066   9.421   1.208 -0.2522  0.4566 -0.4773
   52MOL0     C 6930   9.195   9.439   1.385 -0.6956 -0.1564 -0.5443
   52MOL0     C 6931   9.070   9.470   1.331  0.5087  0.7144 -1.0953
   52MOL0     O 6932   8.924   9.731   1.256  0.6473 -0.5548 -0.3140
   52MOL0     C 6933   8.597   9.594   1.235 -0.8235 -0.7721 -0.2277
   52MOL0     C 6934   8.481   9.618   1.168  0.7798  0.6144 -0.0601
   52MOL0     N 6935   7.726   9.599   0.842  0.1385 -0.0635  0.2650
   52MOL0     N 6936   7.615   9.530   0.848  0.5760 -0.5055  0.5698
   52MOL0     C 6937   6.680   9.905   0.750  0.2717  0.1050  0.0070
   52MOL0     C 6938   6.575   9.993   0.730 -0.4124  0.4074 -1.0597
   52MOL0     C 6939   6.343  10.304   0.482  0.1432 -0.4355 -0.3760
   52MOL0     C 6940   6.210  10.263   0.509  0.1652 -0.7523 -0.2456
   52MOL0     C 6941   6.096  10.338   0.470  0.1071  0.2462  0.0910
   52MOL0     C 6942   6.118  10.446   0.389  1.1730  0.8693 -1.2393
   52MOL0     O 6943   6.012  10.506   0.310 -0.3625  0.1125 -0.1447
   52MOL0     C 6944   5.873  10.518   0.347 -0.1101 -0.6393 -0.2994
   52MOL0     C 6945   5.863  10.622   0.460 -0.2194  0.6265 -0.2598
   52MOL0     C 6946   5.730  10.598   0.535 -0.1807  0.5158 -0.0557
   52MOL0     C 6947   5.611  10.632   0.448  0.0870 -0.1980  1.1906
   52MOL0     C 6948   5.476  10.661   0.503  0.7543  0.6186 -0.2671
   52MOL0     C 6949   5.357  10.672   0.521 -0.3839 -0.1847  0.2370
   52MOL0     C 6950   6.248  10.490   0.359 -0.5578 -0.0148  0.3229
   52MOL0     C 6951   6.366  10.416   0.403 -1.1110 -0.6252 -0.0677
   52MOL0     C 6952   6.498  10.479   0.358 -0.1028  0.1791 -0.1846
   52MOL0     H 6953   6.514   9.941   0.415 -0.6896  1.5187  0.7508
   52MOL0     H 6954   6.702   9.775   0.436  2.6115  1.8965 -0.6234
   52MOL0     H 6955   7.007   9.676   0.728  0.3883  1.0611  0.5773
   52MOL0     H 6956   6.937   9.827   0.777 -2.6286  1.5765 -0.5707
   52MOL0     H 6957   6.833   9.554   0.886  1.6493 -0.2819  0.8687
   52MOL0     H 6958   6.810   9.714   0.960  0.8189  0.4461  0.6163
   52MOL0     H 6959   7.049   9.726   1.004 -0.5795 -0.1582  0.6436
   52MOL0     H 6960   7.095   9.594   0.894  0.8673 -4.0387  1.8633
   52MOL0     H 6961   6.917   9.533   1.132 -1.1892  0.9782 -0.4433
   52MOL0     H 6962   6.978   9.420   1.022 -0.6296 -0.0321  0.5187
   52MOL0     H 6963   7.173   9.575   1.211  1.4095 -0.0486  0.2713
   52MOL0     H 6964   7.085   9.429   1.240 -0.2604  0.2020 -1.2269
   52MOL0     H 6965   7.274   9.330   1.171 -0.1816 -0.6789 -0.2356
   52MOL0     H 6966   7.200   9.352   1.016  2.4923 -0.9146 -0.8006
   52MOL0     H 6967   7.416   9.554   1.144  0.3107  1.7413 -0.5626
   52MOL0     H 6968   7.356   9.561   0.976 -2.9875 -2.4360 -0.5803
   52MOL0     H 6969   7.524   9.336   1.092 -2.0000 -1.5002  0.4496
   52MOL0     H 6970   7.452   9.338   0.930  1.1923 -0.6022  0.9888
   52MOL0     H 6971   7.728   9.491   1.151 -1.0327 -0.2502  0.6281
   52MOL0     H 6972   7.920   9.725   1.043 -0.8277  0.4458 -1.1426
   52MOL0     H 6973   7.979   9.563   1.068 -0.7555  1.5294  2.4489
   52MOL0     H 6974   8.048   9.525   0.860 -2.5707 -1.1097 -1.8692
   52MOL0     H 6975   7.972   9.667   0.786 -0.4094  2.4852 -0.7005
   52MOL0     H 6976   8.131   9.809   0.939 -0.7196  0.1496  0.6844
   52MOL0     H 6977   8.209   9.727   0.806  0.5279  0.2753  0.0653
   52MOL0     H 6978   8.297   9.565   0.948 -0.5718  0.4480 -1.0073
   52MOL0     H 6979   8.201   9.618   1.090 -1.5953  1.4564  0.5052
   52MOL0     H 6980   8.571   9.870   0.961 -0.2447 -2.1893 -2.9661
   52MOL0     H 6981   8.788   9.820   1.073  0.0991 -0.4250 -0.7380
   52MOL0     H 6982   8.902   9.581   1.605  0.3687 -1.5951  1.7439
   52MOL0     H 6983   9.129   9.533   1.708  2.2108 -1.0650 -0.5321
   52MOL0     H 6984   9.329   9.399   1.760  3.2949  0.3360  0.7561
   52MOL0     H 6985   9.265   9.279   1.646  0.5801  0.3657  0.4286
   52MOL0     H 6986   9.555   9.361   1.689  1.6598 -2.4476  1.0984
   52MOL0     H 6987   9.490   9.219   1.774  2.6599  1.2279  0.7995
   52MOL0     H 6988   9.494   9.083   1.602  1.6166  0.0254 -0.9022
   52MOL0     H 6989   9.441   9.194   1.478 -0.3578 -1.0144 -0.6094
   52MOL0     H 6990   9.658   9.130   1.414  1.2196  3.3959 -1.5537
   52MOL0     H 6991   9.708   9.118   1.588  0.1761  0.0500  0.7676
   52MOL0     H 6992   9.749   9.350   1.599 -0.7872 -0.8938  0.4968
   52MOL0     H 6993   9.673   9.386   1.452 -1.0766 -1.3985 -0.3047
   52MOL0     H 6994   9.912   9.182   1.481 -0.1882  0.3082  1.8058
   52MOL0     H 6995   9.850   9.259   1.339 -2.4143  1.6070  1.0541
   52MOL0     H 6996   9.992   9.395   1.572 -0.3948  0.9938 -0.0726
   52MOL0     H 6997   9.899   9.488   1.456 -1.5378 -1.2783  1.1535
   52MOL0     H 6998  10.118   9.522   1.416 -1.8108  1.2754  1.6227
   52MOL0     H 6999  10.161   9.348   1.431 -1.9757  0.0764  0.8539
   52MOL0     H 7000   9.276   9.420   1.315 -1.9169  1.8031 -2.6323
   52MOL0     H 7001   9.059   9.437   1.228  0.9780 -0.8155 -0.6925
   52MOL0     H 7002   8.604   9.512   1.306 -0.1228  0.7313  1.5057
   52MOL0     H 7003   8.391   9.559   1.185 -0.9011  3.6010  2.5732
   52MOL0     H 7004   6.739   9.898   0.840 -1.5059  0.4953  1.2575
   52MOL0     H 7005   6.538  10.049   0.816  0.4397 -4.1510  2.6764
   52MOL0     H 7006   6.198  10.173   0.568  0.9786 -1.4909 -1.1701
   52MOL0     H 7007   5.996  10.298   0.483 -0.1413  0.2399 -1.6444
   52MOL0     H 7008   5.823  10.428   0.384 -1.8152  1.3281  2.6094
   52MOL0     H 7009   5.814  10.549   0.261 -1.1626 -0.2641  0.5370
   52MOL0     H 7010   5.874  10.726   0.429 -1.6693  1.2422  1.1259
   52MOL0     H 7011   5.937  10.611   0.540 -1.2825 -1.8665  0.4805
   52MOL0     H 7012   5.733  10.653   0.629  0.9828  1.8249 -0.8120
   52MOL0     H 7013   5.722  10.492   0.562 -1.2442 -0.1390 -2.6659
   52MOL0     H 7014   5.640  10.705   0.372 -2.6773 -0.8594 -0.6393
   52MOL0     H 7015   5.594  10.546   0.383  0.0848 -2.2401  3.7440
   52MOL0     H 7016   5.254  10.696   0.537 -0.5227 -0.0073 -0.8409
   52MOL0     H 7017   6.263  10.583   0.306  0.3807  1.2774  2.6883
   52MOL0     H 7018   6.560  10.402   0.310  1.2006  0.9872  0.1460
   52MOL0     H 7019   6.489  10.566   0.292  1.0196  0.7938  0.4346
   52MOL0     H 7020   6.553  10.515   0.445 -0.5469 -0.1829  0.2484
   53MOL0     O 7021  11.144   2.922   1.732 -0.2257 -0.1870  0.2070
   53MOL0     C 7022  11.157   2.939   1.609 -0.7765  0.8944  0.0637
   53MOL0     O 7023  11.272   2.953   1.541  0.1547  0.5191 -0.1542
   53MOL0     C 7024  11.392   2.974   1.605  0.2686 -0.8756 -0.2849
   53MOL0     C 7025  11.430   2.935   1.731 -0.3949  0.4935 -0.1125
   53MOL0     C 7026  11.553   2.967   1.775 -0.2537 -0.1206 -0.3192
   53MOL0     C 7027  11.653   3.027   1.692 -0.4184 -0.8106 -0.6541
   53MOL0     O 7028  11.780   3.045   1.746  0.0255  0.9637 -0.1795
   53MOL0     C 7029  11.889   3.101   1.657  0.5267 -0.6420 -0.2989
   53MOL0     C 7030  12.009   3.105   1.740  0.7263 -0.0158 -0.5792
   53MOL0     C 7031  12.125   3.159   1.654  0.1798 -0.6020 -0.1773
   53MOL0     C 7032  12.258   3.163   1.741 -0.1712  0.0720  0.2649
   53MOL0     C 7033  12.310   3.034   1.806  0.3015  0.1743  0.0500
   53MOL0     C 7034  12.441   3.046   1.875 -0.1398  0.7272 -0.0925
   53MOL0     C 7035  12.430   3.147   1.987  0.0689 -0.5992  0.0838
   53MOL0     C 7036  12.550   3.158   2.086  0.5262  0.4015 -0.2952
   53MOL0     N 7037  12.678   3.129   2.029  0.0231  1.0027  0.2084
   53MOL0     C 7038  12.762   3.216   1.968  0.3286  0.4835  0.3624
   53MOL0     C 7039  12.878   3.152   1.951 -0.2520  0.3432  0.2131
   53MOL0     C 7040  13.008   3.216   1.903  0.8882 -0.4094 -0.3367
   53MOL0     C 7041  13.078   3.288   2.026 -0.3023 -0.8923  0.2459
   53MOL0     C 7042  13.171   3.395   1.972 -0.4434  0.0678 -0.2499
   53MOL0     C 7043  13.290   3.335   1.888  0.2230 -0.0052  0.2737
   53MOL0     O 7044  13.386   3.441   1.857  0.1811 -0.5166 -0.2689
   53MOL0     C 7045  13.466   3.437   1.743  0.3286  0.6996 -0.0038
   53MOL0     C 7046  13.531   3.553   1.702  0.2401 -0.2033 -0.3198
   53MOL0     C 7047  13.618   3.552   1.593 -0.7233  0.2975  0.2056
   53MOL0     C 7048  13.641   3.431   1.524 -0.3722 -0.3127  0.0447
   53MOL0     C 7049  13.741   3.420   1.422  0.2373 -0.0028  0.3610
   53MOL0     O 7050  13.797   3.297   1.388  0.0455  0.5616  0.2316
   53MOL0     C 7051  13.911   3.300   1.297  0.6196 -0.5259  0.4011
   53MOL0     C 7052  14.038   3.335   1.341 -0.1553 -0.3926 -0.3608
   53MOL0     C 7053  14.150   3.330   1.266  0.0643  0.1308  0.1255
   53MOL0     C 7054  14.138   3.278   1.136 -0.2307 -0.2105  0.2861
   53MOL0     O 7055  14.248   3.254   1.065 -0.2736  0.1818 -0.2286
   53MOL0     C 7056  14.361   3.328   1.096  0.5068 -0.1792 -0.6595
   53MOL0     C 7057  14.466   3.290   0.992 -0.1419 -0.8279 -0.1864
   53MOL0     C 7058  14.596   3.361   1.039  0.6312  0.6808 -0.0580
   53MOL0     C 7059  14.707   3.361   0.930 -0.4527 -0.1122  0.3532
   53MOL0     C 7060  14.710   3.229   0.844  0.1580 -0.2282 -0.4463
   53MOL0     C 7061  14.837   3.227   0.764  0.3719 -0.2830  0.2616
   53MOL0     C 7062  14.838   3.120   0.656  1.1625 -0.2059  0.2687
   53MOL0     C 7063  14.772   3.149   0.528 -0.4783 -0.1392  0.2497
   53MOL0    Cl 7064  14.835   3.304   0.449 -0.4077 -0.3807  0.0488
   53MOL0     C 7065  14.015   3.239   1.085 -0.1541 -0.1755  0.5420
   53MOL0     C 7066  13.897   3.252   1.171 -1.0764  0.4883  0.1112
   53MOL0     O 7067  13.774   3.525   1.368 -0.0930 -0.2502 -0.3936
   53MOL0     C 7068  13.563   3.317   1.560 -0.1985 -0.7577 -0.6238
   53MOL0     C 7069  13.486   3.314   1.669  0.5735 -0.1124 -0.6533
   53MOL0     N 7070  12.869   3.029   1.991  0.7422  0.3981 -0.9452
   53MOL0     N 7071  12.753   3.008   2.032  1.1946 -0.6944 -0.1847
   53MOL0     C 7072  11.617   3.072   1.571 -0.3571  0.2169 -0.5502
   53MOL0     C 7073  11.488   3.043   1.526  0.2169  0.5073  0.3745
   53MOL0     C 7074  11.029   2.925   1.532 -0.1498  0.2198  0.4272
   53MOL0     C 7075  10.905   2.939   1.599 -0.5422 -0.7744 -1.4197
   53MOL0     C 7076  10.780   2.922   1.539 -0.4470  0.1827 -0.0653
   53MOL0     C 7077  10.782   2.900   1.391 -0.0326 -0.0645  0.1181
   53MOL0     O 7078  10.674   2.901   1.311 -0.3474  0.4344  0.5020
   53MOL0     C 7079  10.555   2.943   1.363 -0.1226 -0.1208 -0.4112
   53MOL0     C 7080  10.460   2.994   1.254  0.1419 -0.9200 -0.0441
   53MOL0     C 7081  10.430   2.889   1.151  0.4763  0.2703  0.3588
   53MOL0     C 7082  10.338   2.785   1.210  0.0078 -0.1055 -0.2425
   53MOL0     C 7083  10.284   2.699   1.099 -0.1526  0.3702  0.5008
   53MOL0     C 7084  10.251   2.610   1.016  0.4274 -0.4917  0.3627
   53MOL0     C 7085  10.903   2.893   1.327 -0.3693  1.3505  0.1392
   53MOL0     C 7086  11.026   2.906   1.391  1.0451  0.2689 -1.2634
   53MOL0     C 7087  11.154   2.904   1.305  0.0615  0.1106 -0.0143
   53MOL0     H 7088  11.367   2.864   1.784 -0.0612  0.6349  0.4781
   53MOL0     H 7089  11.589   2.926   1.869  1.5624  0.7648 -0.5831
   53MOL0     H 7090  11.902   3.039   1.568  1.5457 -1.1064  0.1563
   53MOL0     H 7091  11.862   3.201   1.623 -1.4368 -0.4295  1.6914
   53MOL0     H 7092  12.026   3.000   1.767  0.9836  0.3754  0.8469
   53MOL0     H 7093  11.986   3.157   1.833  1.2341 -2.2335  0.8816
   53MOL0     H 7094  12.107   3.262   1.622 -1.9005 -0.4615  1.2533
   53MOL0     H 7095  12.141   3.104   1.560 -1.1700  2.1414 -2.1556
   53MOL0     H 7096  12.338   3.202   1.678 -1.2541  0.1725 -1.0841
   53MOL0     H 7097  12.243   3.234   1.823 -0.6145  0.3694 -0.0683
   53MOL0     H 7098  12.245   2.984   1.878 -0.0017 -0.2564 -0.5130
   53MOL0     H 7099  12.324   2.965   1.721 -0.7161  1.6359 -1.3623
   53MOL0     H 7100  12.474   2.955   1.926  2.2201  1.2369 -0.5987
   53MOL0     H 7101  12.518   3.071   1.801  0.7590  1.8820  1.1853
   53MOL0     H 7102  12.338   3.131   2.043  0.0158  1.0974  0.5308
   53MOL0     H 7103  12.426   3.248   1.946  0.0614 -1.0212 -0.9935
   53MOL0     H 7104  12.556   3.257   2.132  0.0402  0.5364 -0.5181
   53MOL0     H 7105  12.530   3.080   2.161  1.0148 -0.6632 -1.2394
   53MOL0     H 7106  12.755   3.322   1.948  0.0947  0.2022 -1.1528
   53MOL0     H 7107  13.082   3.141   1.870  0.0559 -1.1810 -0.4790
   53MOL0     H 7108  12.974   3.282   1.823 -0.5112  0.3712  0.8501
   53MOL0     H 7109  13.012   3.337   2.098  0.8264  1.3184 -0.1474
   53MOL0     H 7110  13.132   3.215   2.088  0.4863  0.0192  0.6584
   53MOL0     H 7111  13.218   3.446   2.057 -1.0369 -0.4664  0.4137
   53MOL0     H 7112  13.111   3.462   1.910 -0.5813  1.9306  1.7638
   53MOL0     H 7113  13.262   3.286   1.794  3.4257 -1.2249 -0.1695
   53MOL0     H 7114  13.332   3.255   1.949 -0.0282  1.5557  2.5944
   53MOL0     H 7115  13.496   3.637   1.760 -2.0118 -0.8494 -0.6661
   53MOL0     H 7116  13.664   3.644   1.559  0.5552 -0.4879 -0.2762
   53MOL0     H 7117  14.037   3.377   1.441  0.0228 -1.1064 -0.0493
   53MOL0     H 7118  14.240   3.357   1.321 -0.6828  2.4898  0.3011
   53MOL0     H 7119  14.349   3.436   1.098  3.5619  0.2740 -0.8466
   53MOL0     H 7120  14.404   3.293   1.191 -0.9162 -2.5502 -0.8062
   53MOL0     H 7121  14.469   3.181   0.992 -0.7792 -0.8454  0.1672
   53MOL0     H 7122  14.451   3.328   0.891  1.0922 -1.6549 -0.7185
   53MOL0     H 7123  14.576   3.463   1.073  0.6743  0.5759  0.2860
   53MOL0     H 7124  14.632   3.300   1.123  2.1690 -0.0500 -1.1867
   53MOL0     H 7125  14.797   3.376   0.990 -2.7976  3.8155  3.4585
   53MOL0     H 7126  14.694   3.443   0.858  1.8560  1.2736  1.4111
   53MOL0     H 7127  14.632   3.214   0.769  1.1241 -1.2247 -1.2895
   53MOL0     H 7128  14.710   3.140   0.907  1.8883  1.3631  1.9777
   53MOL0     H 7129  14.858   3.321   0.711 -1.0639 -1.4674 -2.6147
   53MOL0     H 7130  14.918   3.196   0.830  0.9919 -1.9697 -1.2205
   53MOL0     H 7131  14.796   3.029   0.700  2.3510  0.1253  2.2327
   53MOL0     H 7132  14.943   3.100   0.634  1.1090  0.5436 -0.7637
   53MOL0     H 7133  14.776   3.068   0.456  1.0557  0.6378 -0.5915
   53MOL0     H 7134  14.665   3.162   0.548 -0.3516  0.0744  0.8178
   53MOL0     H 7135  14.020   3.193   0.987  0.2764 -1.3143  1.0738
   53MOL0     H 7136  13.797   3.219   1.142 -0.3000 -3.1717  1.0220
   53MOL0     H 7137  13.581   3.232   1.495 -1.0318  0.0165 -1.9196
   53MOL0     H 7138  13.439   3.220   1.695 -0.9804  0.6951 -0.4508
   53MOL0     H 7139  11.682   3.136   1.511 -1.3073  1.1771 -0.5866
   53MOL0     H 7140  11.463   3.086   1.430 -3.0089  3.1587  2.1852
   53MOL0     H 7141  10.919   2.941   1.707 -0.5016 -2.6832 -1.3564
   53MOL0     H 7142  10.693   2.933   1.603 -1.0302 -2.6773 -0.2426
   53MOL0     H 7143  10.564   3.036   1.420 -0.9523  1.2695 -2.4260
   53MOL0     H 7144  10.508   2.858   1.413 -1.6326  0.1702 -1.2720
   53MOL0     H 7145  10.490   3.087   1.206 -1.3976 -0.0023  0.7209
   53MOL0     H 7146  10.360   3.015   1.293 -0.2853  0.7271 -1.8782
   53MOL0     H 7147  10.521   2.841   1.114 -0.3641  0.1584 -1.7467
   53MOL0     H 7148  10.375   2.933   1.066 -0.8721  1.6997  1.8948
   53MOL0     H 7149  10.382   2.725   1.290  4.1930  0.6620 -1.7530
   53MOL0     H 7150  10.249   2.837   1.248 -1.0071  0.2994 -2.9199
   53MOL0     H 7151  10.220   2.539   0.942 -1.2306  0.2129  0.3562
   53MOL0     H 7152  10.905   2.882   1.219 -0.9800  0.6104  0.1915
   53MOL0     H 7153  11.195   3.004   1.316 -0.1812  0.1594  0.4832
   53MOL0     H 7154  11.231   2.829   1.321  0.6145 -0.0541 -2.9504
   53MOL0     H 7155  11.121   2.886   1.202  0.4021 -0.4088 -0.0361
   54MOL0     O 7156   8.150   1.046  10.150  0.0231  0.1460  0.2445
   54MOL0     C 7157   8.071   0.953  10.159 -0.4546  0.1109 -1.1599
   54MOL0     O 7158   8.096   0.826  10.191  0.3480  0.3767  0.6120
   54MOL0     C 7159   8.226   0.791  10.212  0.3042 -1.3366  0.7158
   54MOL0     C 7160   8.266   0.750  10.333  0.0800 -0.5256  0.6820
   54MOL0     C 7161   8.407   0.743  10.356  0.3320  0.5102  0.1327
   54MOL0     C 7162   8.503   0.750  10.254  0.6119  1.1782  0.1749
   54MOL0     O 7163   8.638   0.738  10.272 -0.3286 -0.0700 -0.2722
   54MOL0     C 7164   8.677   0.705  10.408 -0.8845 -0.0268  0.4009
   54MOL0     C 7165   8.825   0.675  10.414  0.2609  0.3592 -0.2713
   54MOL0     C 7166   8.913   0.801  10.417 -0.5276 -1.3686  0.4359
   54MOL0     C 7167   9.062   0.765  10.455  0.9286 -0.0446  0.5666
   54MOL0     C 7168   9.147   0.889  10.474  0.2591  0.1314 -0.0706
   54MOL0     C 7169   9.299   0.870  10.500  0.6775 -0.4994  1.0631
   54MOL0     C 7170   9.354   1.009  10.511 -0.8069  0.1603  0.0234
   54MOL0     C 7171   9.489   1.006  10.575  0.1616 -0.4663  0.3105
   54MOL0     N 7172   9.543   1.138  10.605  0.0352 -0.5765 -0.0104
   54MOL0     C 7173   9.671   1.155  10.649  0.2413  0.0133 -0.0787
   54MOL0     C 7174   9.680   1.288  10.681  0.1443  1.1170  0.1896
   54MOL0     C 7175   9.800   1.350  10.728 -1.2948 -0.6881 -0.4184
   54MOL0     C 7176   9.786   1.413  10.873 -0.1008  0.8253  0.0321
   54MOL0     C 7177   9.903   1.484  10.942  0.8147 -0.1105  0.0722
   54MOL0     C 7178   9.979   1.579  10.857 -0.1931  0.0982 -0.7756
   54MOL0     O 7179  10.055   1.511  10.758 -0.0227  0.3746  0.0397
   54MOL0     C 7180  10.178   1.574  10.718  0.2518  0.7906  0.4773
   54MOL0     C 7181  10.296   1.493  10.688 -0.2428  0.0663 -0.2695
   54MOL0     C 7182  10.418   1.562  10.658  0.9901 -0.2547 -0.1306
   54MOL0     C 7183  10.421   1.699  10.663  0.9125 -0.6214 -0.0644
   54MOL0     C 7184  10.546   1.777  10.645 -0.5318  0.6129  0.2242
   54MOL0     O 7185  10.662   1.695  10.656 -0.2678 -0.4608 -0.0731
   54MOL0     C 7186  10.791   1.736  10.658 -0.1592  0.5927 -0.2023
   54MOL0     C 7187  10.879   1.658  10.733 -0.2753 -0.4907  0.3356
   54MOL0     C 7188  11.011   1.695  10.746  0.6445 -0.4306 -0.5239
   54MOL0     C 7189  11.059   1.818  10.681 -0.1887 -0.0113  0.4365
   54MOL0     O 7190  11.184   1.861  10.678 -0.4766  0.3275  0.5331
   54MOL0     C 7191  11.268   1.828  10.793  0.3108  0.6257 -0.4202
   54MOL0     C 7192  11.400   1.902  10.764 -0.3164  0.8479  0.5384
   54MOL0     C 7193  11.510   1.849  10.846 -0.8709 -0.2287 -0.4927
   54MOL0     C 7194  11.647   1.904  10.803  0.1361  0.9546 -0.4797
   54MOL0     C 7195  11.762   1.865  10.890  0.0382  0.1732 -0.0907
   54MOL0     C 7196  11.896   1.898  10.823 -0.0127  0.7530  0.3678
   54MOL0     C 7197  12.001   1.826  10.883 -0.0672  0.6760 -0.9085
   54MOL0     C 7198  12.131   1.826  10.803 -0.5403 -0.6208 -0.3119
   54MOL0    Cl 7199  12.248   1.713  10.872 -0.0838  0.0483 -0.1121
   54MOL0     C 7200  10.974   1.891  10.598  0.0099  0.1071  0.3863
   54MOL0     C 7201  10.840   1.843  10.588  0.0045 -0.4540  0.3740
   54MOL0     O 7202  10.548   1.891  10.612 -0.0589 -0.1955 -0.7377
   54MOL0     C 7203  10.303   1.770  10.681 -0.4559  0.0508 -0.2421
   54MOL0     C 7204  10.181   1.714  10.707 -0.4703 -0.0563  0.1418
   54MOL0     N 7205   9.555   1.344  10.661  0.0508 -0.1242  0.3201
   54MOL0     N 7206   9.475   1.257  10.615 -0.0452 -0.4959 -0.4569
   54MOL0     C 7207   8.450   0.774  10.128  0.2957  0.6361  0.6680
   54MOL0     C 7208   8.317   0.791  10.109 -0.5845 -0.1356  0.0020
   54MOL0     C 7209   7.933   0.975  10.109 -0.2049 -0.5675 -0.5224
   54MOL0     C 7210   7.910   1.070  10.009  0.5813  0.0058  0.1943
   54MOL0     C 7211   7.790   1.104   9.955 -0.6018 -0.2152 -0.1126
   54MOL0     C 7212   7.676   1.032   9.996  0.3956  0.3687 -0.0328
   54MOL0     O 7213   7.548   1.060   9.958  0.8094 -0.3284  0.0757
   54MOL0     C 7214   7.521   1.195   9.935  0.3458 -0.2781  0.3202
   54MOL0     C 7215   7.376   1.217   9.894 -0.1988 -0.4491  0.3207
   54MOL0     C 7216   7.354   1.187   9.746 -0.2820 -0.4440 -0.5509
   54MOL0     C 7217   7.388   1.301   9.654 -0.3528 -0.8232 -0.5440
   54MOL0     C 7218   7.346   1.262   9.521  0.6433 -0.1511 -0.0311
   54MOL0     C 7219   7.335   1.233   9.403  0.3077 -0.3335  0.1611
   54MOL0     C 7220   7.696   0.938  10.095  0.2478 -0.8418 -0.6089
   54MOL0     C 7221   7.817   0.910  10.159 -0.6963  0.8152 -1.0258
   54MOL0     C 7222   7.827   0.828  10.284  0.2154  0.0366  1.1833
   54MOL0     H 7223   8.194   0.750  10.414 -2.4703  1.4379 -1.3906
   54MOL0     H 7224   8.439   0.717  10.456  4.0247  1.9217 -0.5301
   54MOL0     H 7225   8.660   0.788  10.477 -0.1532 -0.9066  1.6959
   54MOL0     H 7226   8.621   0.612  10.425 -1.8414  0.2968 -0.8521
   54MOL0     H 7227   8.845   0.617  10.323 -0.8018  1.6746 -1.3749
   54MOL0     H 7228   8.855   0.614  10.500 -2.1015 -0.5617 -0.0235
   54MOL0     H 7229   8.882   0.875  10.492 -0.2978 -0.9195  0.0938
   54MOL0     H 7230   8.935   0.846  10.319  3.9336 -3.4445  0.2236
   54MOL0     H 7231   9.070   0.700  10.543 -1.2497 -0.5682  0.4324
   54MOL0     H 7232   9.108   0.709  10.372 -0.9867 -1.5273  0.4413
   54MOL0     H 7233   9.135   0.955  10.387 -1.6407  2.7476  2.0306
   54MOL0     H 7234   9.100   0.947  10.554 -2.9446 -1.7182 -0.4686
   54MOL0     H 7235   9.315   0.803  10.586 -1.0700 -4.2268 -1.2611
   54MOL0     H 7236   9.348   0.814  10.420 -3.0944 -2.7196  0.0519
   54MOL0     H 7237   9.299   1.072  10.581  1.7808  0.4754  1.9248
   54MOL0     H 7238   9.364   1.055  10.412  0.8444  1.2560  0.6439
   54MOL0     H 7239   9.478   0.951  10.668 -2.4573 -3.2291 -1.4500
   54MOL0     H 7240   9.558   0.948  10.514 -1.8175 -2.6779  0.0140
   54MOL0     H 7241   9.745   1.076  10.654  0.6912  0.4780  0.6948
   54MOL0     H 7242   9.881   1.275  10.726  0.2330  0.8317  1.0133
   54MOL0     H 7243   9.829   1.433  10.663  0.5106  0.1207  1.3210
   54MOL0     H 7244   9.692   1.470  10.874 -1.4259 -1.1802  1.9114
   54MOL0     H 7245   9.774   1.333  10.947 -3.5536  2.0287  1.0143
   54MOL0     H 7246   9.983   1.416  10.973  1.1745 -0.0755 -0.7703
   54MOL0     H 7247   9.871   1.535  11.034  0.8309  2.0505 -1.0604
   54MOL0     H 7248  10.039   1.632  10.932 -0.8733 -1.6113  1.0580
   54MOL0     H 7249   9.908   1.646  10.808 -1.1475 -0.3819 -0.0713
   54MOL0     H 7250  10.288   1.385  10.695  0.1275  0.1242  1.7294
   54MOL0     H 7251  10.513   1.519  10.631  2.3372  3.1220 -1.3110
   54MOL0     H 7252  10.852   1.559  10.767  0.7864 -0.8366  0.2183
   54MOL0     H 7253  11.086   1.640  10.803  1.6720  1.0125 -0.4228
   54MOL0     H 7254  11.236   1.852  10.895 -0.9228  0.4075 -0.7383
   54MOL0     H 7255  11.300   1.724  10.783 -1.7156 -0.0312 -0.5899
   54MOL0     H 7256  11.427   1.883  10.660 -0.6418  0.6887  0.4836
   54MOL0     H 7257  11.393   2.011  10.773  0.8280  0.9996 -0.2660
   54MOL0     H 7258  11.497   1.887  10.948 -0.1887 -1.5162  0.1119
   54MOL0     H 7259  11.497   1.740  10.851 -1.6621 -0.0834  1.6340
   54MOL0     H 7260  11.650   2.013  10.799  0.9156  1.1852  2.9499
   54MOL0     H 7261  11.665   1.852  10.708  3.1121 -0.3742  0.6654
   54MOL0     H 7262  11.765   1.761  10.924  0.1055 -0.0984 -0.8944
   54MOL0     H 7263  11.748   1.929  10.977  0.9760 -2.1739  1.9257
   54MOL0     H 7264  11.904   1.874  10.716  1.6903  1.9301  0.1828
   54MOL0     H 7265  11.918   2.005  10.835  1.0312  0.9267 -2.3698
   54MOL0     H 7266  11.978   1.722  10.906 -3.6427  2.0169  2.8073
   54MOL0     H 7267  12.020   1.877  10.978  0.9575 -0.6245 -0.3701
   54MOL0     H 7268  12.114   1.807  10.697 -0.6910  0.2646 -0.4568
   54MOL0     H 7269  12.172   1.927  10.810  1.1869 -1.3791  2.2520
   54MOL0     H 7270  11.011   1.973  10.537 -1.3102  0.5164  0.1025
   54MOL0     H 7271  10.784   1.888  10.506  1.9877 -2.1788 -2.1196
   54MOL0     H 7272  10.313   1.878  10.675 -3.0446  0.4206  0.9628
   54MOL0     H 7273  10.104   1.786  10.733 -0.4263 -0.0127  0.1507
   54MOL0     H 7274   8.514   0.799  10.044 -2.6598  1.4151 -1.5351
   54MOL0     H 7275   8.286   0.818  10.008 -1.6995  2.3240  0.9225
   54MOL0     H 7276   7.998   1.124   9.978  0.1790 -0.1924 -1.3814
   54MOL0     H 7277   7.786   1.190   9.889 -3.1891 -1.7624 -2.1877
   54MOL0     H 7278   7.588   1.227   9.855 -0.0227  0.5332  0.3342
   54MOL0     H 7279   7.539   1.253  10.026 -0.3446 -1.8628  1.5353
   54MOL0     H 7280   7.350   1.322   9.904  1.9808  0.5741 -3.1664
   54MOL0     H 7281   7.316   1.159   9.966  0.4176 -0.2477  1.0149
   54MOL0     H 7282   7.246   1.175   9.736 -0.6736  3.1427 -1.9381
   54MOL0     H 7283   7.404   1.093   9.719  1.7093  0.4185 -0.0954
   54MOL0     H 7284   7.334   1.390   9.686 -2.4619 -1.6435 -1.5714
   54MOL0     H 7285   7.495   1.321   9.648 -0.5837  1.4148  1.2648
   54MOL0     H 7286   7.319   1.212   9.299 -2.3522  1.5770  0.0878
   54MOL0     H 7287   7.610   0.888  10.138  0.0281 -0.0131 -0.0627
   54MOL0     H 7288   7.727   0.810  10.323 -1.0219  1.0616 -1.2822
   54MOL0     H 7289   7.881   0.737  10.258  2.2428  1.6635 -0.7744
   54MOL0     H 7290   7.893   0.883  10.352 -0.0817  0.7268  0.9306
   55MOL0     O 7291   0.889   1.871   5.010  0.1748 -0.1261  0.4532
   55MOL0     C 7292   0.794   1.800   5.005  0.0334  0.9036  0.0710
   55MOL0     O 7293   0.767   1.706   4.910 -0.3417  0.0155  0.2125
   55MOL0     C 7294   0.839   1.712   4.792  0.7844 -0.1348  0.5602
   55MOL0     C 7295   0.974   1.694   4.779 -1.0320 -0.2298  0.3550
   55MOL0     C 7296   1.042   1.728   4.664 -0.8790 -0.1337 -0.2266
   55MOL0     C 7297   0.973   1.789   4.561  0.4690 -0.6928  0.3415
   55MOL0     O 7298   1.040   1.810   4.439  0.3629 -0.2916  0.0006
   55MOL0     C 7299   0.979   1.900   4.342 -0.3142  0.6201  0.5025
   55MOL0     C 7300   1.095   1.974   4.270  0.1909 -0.1076  0.2932
   55MOL0     C 7301   1.062   2.050   4.135 -0.1052 -0.3181  0.4559
   55MOL0     C 7302   0.926   2.118   4.138  0.6092 -0.3184  0.3193
   55MOL0     C 7303   0.898   2.206   4.016 -0.2196 -0.3319  0.0978
   55MOL0     C 7304   0.765   2.285   4.017 -0.3612  0.9772 -0.0010
   55MOL0     C 7305   0.749   2.381   4.125  0.2788 -0.6767 -0.5004
   55MOL0     C 7306   0.865   2.483   4.135 -0.2600  0.1395 -0.0417
   55MOL0     N 7307   0.831   2.598   4.214  0.6377  0.1712 -0.9143
   55MOL0     C 7308   0.886   2.620   4.337  0.2666 -1.0010  0.3801
   55MOL0     C 7309   0.818   2.730   4.389  0.0462 -0.3629 -0.1542
   55MOL0     C 7310   0.841   2.792   4.523 -0.6513 -0.2158 -0.3448
   55MOL0     C 7311   0.970   2.873   4.509  0.0973 -0.5190 -0.4591
   55MOL0     C 7312   0.950   3.010   4.433 -1.5011  1.0607  0.4130
   55MOL0     C 7313   0.874   3.100   4.528  0.2221  0.0136 -0.1971
   55MOL0     O 7314   0.932   3.094   4.665  0.4667 -0.0402  0.1651
   55MOL0     C 7315   1.013   3.201   4.710 -0.1341 -0.2483 -0.4729
   55MOL0     C 7316   1.125   3.241   4.642  0.3635 -0.7237  0.7332
   55MOL0     C 7317   1.198   3.352   4.682 -1.0511  0.2404 -0.3762
   55MOL0     C 7318   1.178   3.418   4.803 -0.7632  0.4413 -0.3372
   55MOL0     C 7319   1.266   3.533   4.853 -0.3747 -0.1931  0.7704
   55MOL0     O 7320   1.251   3.573   4.980 -0.0157 -0.5021  0.7227
   55MOL0     C 7321   1.329   3.683   5.011  0.4462 -1.0688  0.2002
   55MOL0     C 7322   1.447   3.669   5.067 -1.1274  0.6651  0.9078
   55MOL0     C 7323   1.516   3.769   5.127  0.1489 -1.2771 -0.2163
   55MOL0     C 7324   1.458   3.900   5.126  0.1110 -0.6969 -0.0309
   55MOL0     O 7325   1.525   3.995   5.201  0.1009  0.1520  0.2329
   55MOL0     C 7326   1.474   4.126   5.220  0.1832  0.7080  0.2431
   55MOL0     C 7327   1.554   4.186   5.333 -1.2750  0.4092 -0.2119
   55MOL0     C 7328   1.688   4.246   5.290 -0.0511  0.1911  0.3835
   55MOL0     C 7329   1.742   4.338   5.393 -1.0419  0.3681  0.7096
   55MOL0     C 7330   1.873   4.410   5.357  0.4262 -0.3217 -0.3064
   55MOL0     C 7331   1.868   4.491   5.223  0.1169  0.8158 -0.7363
   55MOL0     C 7332   1.995   4.587   5.195  0.4909  0.5850 -0.2195
   55MOL0     C 7333   2.124   4.546   5.256  0.4220  0.1165 -0.6704
   55MOL0    Cl 7334   2.251   4.653   5.180 -0.5533  0.3755  0.4090
   55MOL0     C 7335   1.339   3.919   5.059  0.1771  0.4887 -0.1279
   55MOL0     C 7336   1.270   3.812   5.009 -0.4436  0.1422 -0.0977
   55MOL0     O 7337   1.340   3.578   4.759 -0.4562  0.0490  0.1155
   55MOL0     C 7338   1.061   3.379   4.878 -0.0606 -0.3877  0.1349
   55MOL0     C 7339   0.983   3.263   4.835 -0.4313  0.2899  0.2759
   55MOL0     N 7340   0.723   2.766   4.294 -0.1810 -0.0186  0.2245
   55MOL0     N 7341   0.743   2.697   4.186  0.2396  0.2472 -1.0566
   55MOL0     C 7342   0.839   1.798   4.567  0.6441  0.0048  0.0794
   55MOL0     C 7343   0.772   1.765   4.684 -0.7928  0.4587  0.0215
   55MOL0     C 7344   0.698   1.817   5.113  0.7618  0.4509  0.0259
   55MOL0     C 7345   0.578   1.742   5.100 -0.3706 -0.3860 -0.6338
   55MOL0     C 7346   0.477   1.746   5.190 -0.1560 -0.1527 -0.2510
   55MOL0     C 7347   0.490   1.820   5.307 -0.5222  0.6880 -0.0407
   55MOL0     O 7348   0.389   1.810   5.396 -0.3175  0.6469 -0.6956
   55MOL0     C 7349   0.404   1.876   5.527 -0.4243  0.5394  0.6867
   55MOL0     C 7350   0.362   2.025   5.517 -0.2847 -0.8990  0.4936
   55MOL0     C 7351   0.401   2.102   5.650 -0.5760  0.2515  0.1299
   55MOL0     C 7352   0.542   2.160   5.667 -0.3953 -0.0839  0.9058
   55MOL0     C 7353   0.602   2.234   5.555 -0.1097  0.0740  0.2334
   55MOL0     C 7354   0.621   2.299   5.460  0.2943 -0.1831  0.1132
   55MOL0     C 7355   0.612   1.882   5.332  0.1160  0.3172  0.2797
   55MOL0     C 7356   0.718   1.885   5.239 -0.1963 -0.5526  0.8778
   55MOL0     C 7357   0.836   1.971   5.267  1.0356 -0.0802 -1.1157
   55MOL0     H 7358   1.035   1.654   4.860 -2.3476 -0.2123  1.3825
   55MOL0     H 7359   1.148   1.705   4.657 -0.9326 -0.7556  0.7253
   55MOL0     H 7360   0.933   1.833   4.269  1.4541  1.4033 -1.4503
   55MOL0     H 7361   0.911   1.973   4.386 -0.2570  1.3221 -0.5334
   55MOL0     H 7362   1.178   1.904   4.252  1.0888  0.5188  1.8096
   55MOL0     H 7363   1.114   2.050   4.346 -1.7809 -0.2374  0.9624
   55MOL0     H 7364   1.042   1.969   4.064 -2.8591 -1.5212  2.4168
   55MOL0     H 7365   1.148   2.108   4.102  0.8278 -1.3575  0.9850
   55MOL0     H 7366   0.846   2.045   4.148 -0.8022  0.8471 -1.7040
   55MOL0     H 7367   0.932   2.185   4.225  3.2672 -0.2982  0.2160
   55MOL0     H 7368   0.992   2.262   4.006  1.4093 -2.1763  3.3398
   55MOL0     H 7369   0.902   2.139   3.930 -0.4784 -0.3915  0.1309
   55MOL0     H 7370   0.744   2.340   3.925 -3.0956  1.8637  1.0479
   55MOL0     H 7371   0.677   2.221   4.028  0.4253 -0.5569 -1.9747
   55MOL0     H 7372   0.740   2.332   4.222 -2.0700 -2.3653 -1.4538
   55MOL0     H 7373   0.653   2.432   4.114  1.1022  1.6680  2.0257
   55MOL0     H 7374   0.958   2.439   4.174 -0.6139 -1.4103 -0.8398
   55MOL0     H 7375   0.885   2.515   4.032  1.7836 -1.0190 -0.0726
   55MOL0     H 7376   0.975   2.576   4.380  0.6849  0.4029  1.0058
   55MOL0     H 7377   0.764   2.869   4.532  0.8336  1.1297  1.4783
   55MOL0     H 7378   0.835   2.722   4.607  1.9397  0.5047  0.5409
   55MOL0     H 7379   1.022   2.892   4.603 -1.6018 -1.4331  0.7251
   55MOL0     H 7380   1.044   2.815   4.454 -0.5029 -1.4430 -0.3125
   55MOL0     H 7381   0.901   2.989   4.337 -1.2261 -2.4384  0.8774
   55MOL0     H 7382   1.051   3.047   4.413 -0.9843 -1.4863 -2.6849
   55MOL0     H 7383   0.770   3.066   4.530 -0.6015  2.1777 -2.1691
   55MOL0     H 7384   0.867   3.196   4.476  0.6867  0.3490  0.3470
   55MOL0     H 7385   1.144   3.208   4.540 -0.4587  0.2817  0.2417
   55MOL0     H 7386   1.278   3.387   4.616 -1.1396  0.3743 -0.4124
   55MOL0     H 7387   1.482   3.566   5.067  0.6912  1.2631  0.6421
   55MOL0     H 7388   1.615   3.748   5.165  0.5133 -1.2115 -1.1035
   55MOL0     H 7389   1.483   4.188   5.130  1.1405  0.2137 -0.0159
   55MOL0     H 7390   1.370   4.115   5.249  1.2769 -2.1721  3.7743
   55MOL0     H 7391   1.490   4.260   5.382 -0.2388  0.8378  0.5291
   55MOL0     H 7392   1.572   4.114   5.414 -1.3025  1.5106  0.7983
   55MOL0     H 7393   1.764   4.171   5.267  1.1575  1.5719 -0.2982
   55MOL0     H 7394   1.658   4.300   5.200 -1.8190 -0.0152  0.8234
   55MOL0     H 7395   1.770   4.284   5.485  2.5722  2.6702  1.1753
   55MOL0     H 7396   1.668   4.413   5.423  1.0304  2.2956  1.3102
   55MOL0     H 7397   1.957   4.341   5.363 -1.3485 -2.4641  1.3660
   55MOL0     H 7398   1.897   4.469   5.446 -0.1416 -1.3347  0.5366
   55MOL0     H 7399   1.852   4.423   5.139  2.5446 -0.2398 -0.4296
   55MOL0     H 7400   1.774   4.547   5.218  0.3130  1.5483  1.9018
   55MOL0     H 7401   1.965   4.688   5.223 -1.5688  0.4371 -1.6906
   55MOL0     H 7402   2.015   4.582   5.087 -1.0936 -2.1420 -0.4774
   55MOL0     H 7403   2.114   4.562   5.364 -1.6950 -1.3530 -0.6012
   55MOL0     H 7404   2.148   4.439   5.250  0.6930  0.0360  1.0979
   55MOL0     H 7405   1.296   4.018   5.056 -0.2237  0.6041  3.6381
   55MOL0     H 7406   1.172   3.824   4.962 -2.3386 -0.5696  3.3047
   55MOL0     H 7407   1.058   3.433   4.972  3.5338  1.7145 -0.7565
   55MOL0     H 7408   0.901   3.228   4.897  0.2137 -0.4631  0.7120
   55MOL0     H 7409   0.776   1.833   4.486  1.9690  1.9836 -0.1795
   55MOL0     H 7410   0.668   1.794   4.697 -0.8854  0.5296 -0.8195
   55MOL0     H 7411   0.541   1.713   5.002 -2.2479  0.1256 -0.1210
   55MOL0     H 7412   0.380   1.704   5.170  0.4267 -0.5262 -2.5426
   55MOL0     H 7413   0.503   1.858   5.571 -0.0389  0.0293 -0.3525
   55MOL0     H 7414   0.346   1.814   5.596  1.4901  0.3183  2.1952
   55MOL0     H 7415   0.254   2.019   5.496  0.1518 -2.0318 -1.7436
   55MOL0     H 7416   0.411   2.075   5.433 -1.2758  0.0984  0.4815
   55MOL0     H 7417   0.388   2.032   5.733  3.1904 -2.3560 -1.1644
   55MOL0     H 7418   0.329   2.183   5.660 -0.3976  0.4465 -0.1381
   55MOL0     H 7419   0.544   2.222   5.757 -1.0301 -2.0121  2.3290
   55MOL0     H 7420   0.595   2.071   5.704 -3.9449 -1.4447  3.2471
   55MOL0     H 7421   0.624   2.365   5.376  1.2272 -0.7814 -0.3372
   55MOL0     H 7422   0.635   1.932   5.425 -1.0502 -1.6777  1.7160
   55MOL0     H 7423   0.873   2.034   5.186  1.1342  1.0329 -0.2239
   55MOL0     H 7424   0.821   2.040   5.351 -0.3555 -1.3431 -0.2758
   55MOL0     H 7425   0.920   1.907   5.299 -1.9501 -2.8691  2.0238
   56MOL0     O 7426   0.554   1.037   7.348 -0.7173  0.1020 -0.1884
   56MOL0     C 7427   0.621   1.130   7.381 -0.2083  0.1707  0.1536
   56MOL0     O 7428   0.750   1.137   7.355  0.0180 -0.2360  0.0146
   56MOL0     C 7429   0.833   1.034   7.319 -0.7697 -0.6244 -0.1202
   56MOL0     C 7430   0.812   0.894   7.332  0.1173  1.2287  0.0346
   56MOL0     C 7431   0.910   0.798   7.290  0.0213 -0.2741  0.6712
   56MOL0     C 7432   1.026   0.843   7.226 -0.0710  0.0161  0.8730
   56MOL0     O 7433   1.139   0.768   7.180 -0.1974 -0.5859 -0.2398
   56MOL0     C 7434   1.170   0.640   7.232  0.4754  0.5099  0.4514
   56MOL0     C 7435   1.239   0.648   7.367 -0.1386  0.8696 -0.7451
   56MOL0     C 7436   1.262   0.506   7.412 -0.1824 -0.8489 -0.4021
   56MOL0     C 7437   1.318   0.503   7.561  0.6087 -0.2536 -0.2237
   56MOL0     C 7438   1.317   0.353   7.610 -0.7759  0.7940 -0.1224
   56MOL0     C 7439   1.308   0.351   7.765  0.1846 -0.5166 -0.3364
   56MOL0     C 7440   1.403   0.435   7.849  0.1607 -0.6323 -0.3989
   56MOL0     C 7441   1.545   0.384   7.838 -0.1513 -0.4271  0.1641
   56MOL0     N 7442   1.615   0.407   7.963 -0.3377 -0.1864 -0.2265
   56MOL0     C 7443   1.682   0.307   8.023 -0.1903  0.5059  0.8074
   56MOL0     C 7444   1.783   0.368   8.093 -0.2984  0.6163 -0.7466
   56MOL0     C 7445   1.884   0.311   8.192  0.1719 -0.2425  0.2315
   56MOL0     C 7446   1.984   0.412   8.262 -0.1902  0.9489 -0.2513
   56MOL0     C 7447   2.062   0.342   8.380 -0.2496 -0.2085 -0.1242
   56MOL0     C 7448   2.210   0.369   8.373 -0.5563  0.5430 -0.2006
   56MOL0     O 7449   2.292   0.284   8.452 -0.2898  0.2690 -0.2359
   56MOL0     C 7450   2.291   0.301   8.594 -0.5834  0.0403  0.1008
   56MOL0     C 7451   2.354   0.201   8.662 -0.7054  0.9716 -0.2097
   56MOL0     C 7452   2.379   0.208   8.802  1.1524 -0.5095  0.4000
   56MOL0     C 7453   2.320   0.308   8.876 -0.0562 -0.1397  0.4429
   56MOL0     C 7454   2.351   0.307   9.018 -0.4162  0.1941  0.2436
   56MOL0     O 7455   2.266   0.366   9.106  0.4049  0.2798 -0.2562
   56MOL0     C 7456   2.323   0.412   9.220  0.2753 -0.0264 -0.6963
   56MOL0     C 7457   2.441   0.482   9.232 -0.2003 -0.4547  1.4112
   56MOL0     C 7458   2.476   0.552   9.346 -0.1457 -0.0699  0.1868
   56MOL0     C 7459   2.399   0.542   9.457 -0.7105  0.0312 -0.0505
   56MOL0     O 7460   2.429   0.587   9.578 -0.0363  0.3191  0.2660
   56MOL0     C 7461   2.570   0.602   9.606  0.7819 -0.2887 -0.0654
   56MOL0     C 7462   2.621   0.744   9.618  0.9964  0.4223 -0.4817
   56MOL0     C 7463   2.761   0.768   9.564 -0.3943  0.2805 -0.5470
   56MOL0     C 7464   2.860   0.708   9.658 -0.5658 -0.2785 -0.2698
   56MOL0     C 7465   3.015   0.728   9.607  0.8117 -0.3342 -0.2386
   56MOL0     C 7466   3.114   0.609   9.632  0.1722  0.5561  0.2945
   56MOL0     C 7467   3.239   0.647   9.561 -0.1732 -0.6439 -0.4052
   56MOL0     C 7468   3.329   0.533   9.527 -0.1639 -0.2903  0.7725
   56MOL0    Cl 7469   3.485   0.603   9.475  0.4238  0.0007 -0.2825
   56MOL0     C 7470   2.279   0.479   9.455  0.7190 -0.7198 -1.1506
   56MOL0     C 7471   2.237   0.415   9.338  0.5186  0.0171 -0.1278
   56MOL0     O 7472   2.457   0.255   9.053  0.0769  0.5626  0.7557
   56MOL0     C 7473   2.238   0.408   8.805  0.0488 -0.2592 -0.0248
   56MOL0     C 7474   2.229   0.401   8.662 -0.4118 -0.8946  0.8804
   56MOL0     N 7475   1.768   0.504   8.094 -0.7297 -0.5213 -0.2656
   56MOL0     N 7476   1.671   0.525   8.009  0.2281 -0.1114  0.2875
   56MOL0     C 7477   1.047   0.976   7.226  0.3962  0.1747 -0.9328
   56MOL0     C 7478   0.951   1.075   7.269 -0.3199  0.3178  0.1013
   56MOL0     C 7479   0.561   1.242   7.451  0.5296  0.0301 -0.1966
   56MOL0     C 7480   0.646   1.319   7.524 -0.3676  0.7772 -1.0374
   56MOL0     C 7481   0.609   1.418   7.613 -0.4702 -0.4850 -0.0661
   56MOL0     C 7482   0.476   1.445   7.633  0.9950 -0.1669 -0.2939
   56MOL0     O 7483   0.448   1.537   7.727 -0.4690  0.5047  0.1098
   56MOL0     C 7484   0.319   1.569   7.768 -0.0225 -0.2279 -0.5905
   56MOL0     C 7485   0.267   1.675   7.670 -0.3927  0.5242 -0.1713
   56MOL0     C 7486   0.125   1.717   7.700  0.4618 -0.9952 -0.3693
   56MOL0     C 7487   0.029   1.603   7.687 -0.8658 -0.2105 -0.4867
   56MOL0     C 7488  -0.010   1.556   7.557 -0.2650  0.2787  0.6608
   56MOL0     C 7489  -0.043   1.539   7.440  0.8771  0.6317  0.7172
   56MOL0     C 7490   0.381   1.369   7.558 -0.2107 -0.2887 -0.2649
   56MOL0     C 7491   0.423   1.266   7.468 -0.4388  0.4219 -0.6741
   56MOL0     C 7492   0.321   1.199   7.389 -0.6082 -0.3079 -0.0750
   56MOL0     H 7493   0.718   0.860   7.373 -1.0844  1.3253 -2.4496
   56MOL0     H 7494   0.881   0.694   7.305 -2.0623  0.0353 -0.6978
   56MOL0     H 7495   1.082   0.579   7.255  0.8952  0.5668  2.3635
   56MOL0     H 7496   1.238   0.597   7.158 -1.4644  0.2989 -1.3259
   56MOL0     H 7497   1.182   0.712   7.435  0.9910  2.0892 -0.8963
   56MOL0     H 7498   1.338   0.694   7.357 -0.3657  2.5348  3.0292
   56MOL0     H 7499   1.340   0.466   7.347 -0.7371 -1.2030 -0.8640
   56MOL0     H 7500   1.174   0.441   7.402  1.0376 -2.5401 -0.5419
   56MOL0     H 7501   1.419   0.543   7.550  0.6593 -0.7720 -1.8791
   56MOL0     H 7502   1.243   0.560   7.617 -2.2460 -3.5251 -0.3290
   56MOL0     H 7503   1.226   0.308   7.570 -0.0887 -2.1405  1.3171
   56MOL0     H 7504   1.409   0.299   7.586 -1.4196  0.0090 -0.8778
   56MOL0     H 7505   1.208   0.391   7.784  0.5758  0.1010  0.4727
   56MOL0     H 7506   1.301   0.247   7.797 -1.1087 -0.4696 -0.3905
   56MOL0     H 7507   1.362   0.437   7.950  0.2996 -2.0968 -0.2949
   56MOL0     H 7508   1.402   0.537   7.809 -2.5194 -1.6322 -3.2751
   56MOL0     H 7509   1.550   0.277   7.814  1.6527 -0.2072 -0.5573
   56MOL0     H 7510   1.598   0.437   7.759  0.4024 -0.7884  0.2872
   56MOL0     H 7511   1.663   0.203   7.999  3.2924  0.1224 -0.8334
   56MOL0     H 7512   1.823   0.273   8.273  1.7702  2.6236  3.0156
   56MOL0     H 7513   1.945   0.230   8.152  1.3458  0.4768  0.5125
   56MOL0     H 7514   2.058   0.453   8.194  1.1491  2.5357  2.0401
   56MOL0     H 7515   1.941   0.499   8.312  3.6061  1.9298  1.6664
   56MOL0     H 7516   2.034   0.236   8.383 -4.9663  0.8042  0.0216
   56MOL0     H 7517   2.018   0.383   8.471  2.5977 -0.6673  1.5602
   56MOL0     H 7518   2.233   0.475   8.388  1.5277  0.2972 -1.4203
   56MOL0     H 7519   2.241   0.344   8.271 -1.6903 -0.0720 -0.4212
   56MOL0     H 7520   2.394   0.115   8.610 -0.0111  0.6840  0.7582
   56MOL0     H 7521   2.431   0.125   8.850  1.5373 -0.1114  0.6799
   56MOL0     H 7522   2.503   0.497   9.144 -2.1810  0.9843  0.1760
   56MOL0     H 7523   2.570   0.606   9.345 -0.1789  0.0056 -1.2627
   56MOL0     H 7524   2.591   0.543   9.695 -2.6558 -2.1376 -0.2801
   56MOL0     H 7525   2.627   0.550   9.529 -1.3553 -1.8110 -0.7340
   56MOL0     H 7526   2.555   0.812   9.564 -0.9819 -2.3785 -1.7980
   56MOL0     H 7527   2.620   0.763   9.726  0.9853  0.0220 -0.4105
   56MOL0     H 7528   2.776   0.719   9.468  2.5164 -2.4871  1.1296
   56MOL0     H 7529   2.779   0.875   9.556 -2.8361  0.8902  1.0372
   56MOL0     H 7530   2.849   0.599   9.658  3.0858 -0.9052 -3.6110
   56MOL0     H 7531   2.845   0.733   9.763 -1.2021  0.3370 -0.5054
   56MOL0     H 7532   3.054   0.817   9.659 -0.8986 -0.1664  0.8417
   56MOL0     H 7533   3.003   0.749   9.501 -2.1900 -2.0608 -0.3463
   56MOL0     H 7534   3.138   0.605   9.739 -1.4966 -0.3460  0.6565
   56MOL0     H 7535   3.079   0.512   9.596  0.4206  0.3058  0.7120
   56MOL0     H 7536   3.282   0.713   9.637 -0.8690  0.0853 -0.6324
   56MOL0     H 7537   3.224   0.704   9.469 -1.3795 -2.4556 -1.4119
   56MOL0     H 7538   3.342   0.465   9.611  1.7460 -0.3052  0.5140
   56MOL0     H 7539   3.294   0.472   9.443  0.6705 -0.2769  0.3980
   56MOL0     H 7540   2.218   0.472   9.544  0.9694  1.0816 -0.7971
   56MOL0     H 7541   2.136   0.378   9.326 -0.0477  1.3353  0.3196
   56MOL0     H 7542   2.200   0.488   8.868  2.8247  1.8276 -0.8097
   56MOL0     H 7543   2.169   0.470   8.604  3.8704 -0.1244 -3.3044
   56MOL0     H 7544   1.139   1.011   7.181  0.6645 -0.7016 -1.0830
   56MOL0     H 7545   0.977   1.181   7.260  0.6372 -0.0770 -2.9637
   56MOL0     H 7546   0.754   1.310   7.527 -0.4389 -1.1717  3.4859
   56MOL0     H 7547   0.684   1.461   7.679 -1.0136  1.0791 -0.4221
   56MOL0     H 7548   0.327   1.609   7.870  2.0709  0.5965 -1.0373
   56MOL0     H 7549   0.266   1.473   7.768  3.8077 -2.5695  0.7529
   56MOL0     H 7550   0.267   1.652   7.563 -4.0121 -0.8676 -0.0073
   56MOL0     H 7551   0.329   1.764   7.687 -0.4216  0.8009 -1.4179
   56MOL0     H 7552   0.090   1.794   7.630 -2.5599 -0.6395  1.3485
   56MOL0     H 7553   0.122   1.756   7.802 -1.2866 -1.4583 -0.2065
   56MOL0     H 7554   0.069   1.518   7.742  1.6286  1.0643 -0.1600
   56MOL0     H 7555  -0.056   1.638   7.745 -1.2734 -2.7974  0.6208
   56MOL0     H 7556  -0.065   1.523   7.336 -0.5743 -2.4372  1.3694
   56MOL0     H 7557   0.276   1.375   7.584  0.1503 -1.5345  1.7103
   56MOL0     H 7558   0.224   1.244   7.411  0.5124  1.0032  2.6510
   56MOL0     H 7559   0.341   1.201   7.281  0.7211  0.9686  0.1637
   56MOL0     H 7560   0.314   1.095   7.424 -0.1777  0.1902  1.5869
   57MOL0     O 7561   2.802   4.226   9.846  0.1645  0.3146 -0.3194
   57MOL0     C 7562   2.801   4.123   9.775  0.0610  0.6088  0.1754
   57MOL0     O 7563   2.916   4.043   9.746 -0.4519  0.5163  0.1358
   57MOL0     C 7564   3.032   4.072   9.807 -0.6422  0.0689  0.8044
   57MOL0     C 7565   3.079   3.991   9.921 -0.4875  1.0763  0.6708
   57MOL0     C 7566   3.202   4.032   9.976 -0.2968  0.0436 -0.0585
   57MOL0     C 7567   3.275   4.146   9.926 -0.4986  0.3591 -0.2882
   57MOL0     O 7568   3.396   4.181   9.991  0.5366  0.1848 -0.1834
   57MOL0     C 7569   3.502   4.211   9.901 -1.2417 -0.5548 -0.4053
   57MOL0     C 7570   3.635   4.200   9.982 -0.0709  0.0734 -0.1006
   57MOL0     C 7571   3.754   4.255   9.897  0.4377  0.1590  1.3517
   57MOL0     C 7572   3.885   4.296   9.978 -0.4433  0.5664 -0.5403
   57MOL0     C 7573   3.971   4.406   9.905  0.5272 -0.7910  0.6868
   57MOL0     C 7574   4.102   4.428   9.975  0.5515 -0.1548  0.9511
   57MOL0     C 7575   4.168   4.552   9.905 -0.1480  0.2446  0.6542
   57MOL0     C 7576   4.309   4.588   9.956  0.9328 -0.1203 -0.6184
   57MOL0     N 7577   4.400   4.486  10.012  0.3669  0.0646 -0.7145
   57MOL0     C 7578   4.387   4.424  10.136 -0.0838 -0.6103  1.0606
   57MOL0     C 7579   4.507   4.370  10.158 -0.7514  0.8245  0.5585
   57MOL0     C 7580   4.558   4.292  10.272  0.0279 -0.5072 -0.1756
   57MOL0     C 7581   4.639   4.394  10.355 -0.3432 -0.4438  0.1615
   57MOL0     C 7582   4.734   4.321  10.446 -0.3884 -0.1574  0.4549
   57MOL0     C 7583   4.855   4.406  10.488  0.0559  0.1210  0.9772
   57MOL0     O 7584   4.911   4.343  10.599  0.1764  0.4079 -0.5694
   57MOL0     C 7585   5.046   4.327  10.597 -0.2312 -0.1961  0.3049
   57MOL0     C 7586   5.125   4.381  10.697 -1.0445  0.2971 -0.3186
   57MOL0     C 7587   5.268   4.344  10.702  1.3532  1.0614 -0.4278
   57MOL0     C 7588   5.322   4.254  10.606  0.0608 -0.5982  0.2864
   57MOL0     C 7589   5.462   4.230  10.613 -1.3321  0.0958 -0.0747
   57MOL0     O 7590   5.531   4.285  10.722 -0.0945 -0.1811 -0.1398
   57MOL0     C 7591   5.670   4.268  10.734 -0.6296  0.4306  0.3990
   57MOL0     C 7592   5.755   4.375  10.776 -0.3561  0.0220 -0.6958
   57MOL0     C 7593   5.889   4.356  10.818 -0.3535 -0.1140  0.8862
   57MOL0     C 7594   5.950   4.222  10.818 -0.0708 -0.3185 -0.0400
   57MOL0     O 7595   6.075   4.215  10.849  0.4524 -0.1543 -0.1281
   57MOL0     C 7596   6.145   4.102  10.837  0.1735  0.2417  0.4719
   57MOL0     C 7597   6.278   4.111  10.911 -0.9485 -0.1816  0.1689
   57MOL0     C 7598   6.364   3.989  10.868 -0.2103 -0.4537 -0.6350
   57MOL0     C 7599   6.486   3.991  10.962  0.5016 -0.6763  0.4455
   57MOL0     C 7600   6.560   3.864  10.954  0.4047  0.0778 -0.1306
   57MOL0     C 7601   6.576   3.813  10.806 -0.5545  0.0864 -0.3199
   57MOL0     C 7602   6.670   3.692  10.805 -0.3636  0.0522 -0.1987
   57MOL0     C 7603   6.829   3.709  10.818  0.3761 -0.3161 -0.7110
   57MOL0    Cl 7604   6.874   3.732  10.993  0.4072 -0.0149 -0.0983
   57MOL0     C 7605   5.877   4.123  10.749  0.5676  0.0920 -0.9730
   57MOL0     C 7606   5.739   4.141  10.723 -0.4997 -0.5234  0.0902
   57MOL0     O 7607   5.510   4.159  10.526 -0.0099 -0.4140 -0.1258
   57MOL0     C 7608   5.239   4.205  10.505 -0.1539  0.5764  0.1142
   57MOL0     C 7609   5.103   4.239  10.502  0.9594  0.6463 -0.5550
   57MOL0     N 7610   4.582   4.390  10.036  0.4242 -1.1580  0.2655
   57MOL0     N 7611   4.517   4.460   9.948  0.5673 -0.0339 -0.2226
   57MOL0     C 7612   3.218   4.218   9.818  1.0674  0.2074 -0.6885
   57MOL0     C 7613   3.093   4.186   9.762 -1.3618  1.1560 -0.1872
   57MOL0     C 7614   2.677   4.083   9.699  0.4073  0.9822 -1.7578
   57MOL0     C 7615   2.672   3.955   9.645 -0.1721  0.1976  0.6031
   57MOL0     C 7616   2.557   3.906   9.575  0.5266 -0.1870 -0.0981
   57MOL0     C 7617   2.438   3.983   9.572  0.1418 -0.6906  0.7831
   57MOL0     O 7618   2.315   3.942   9.518 -0.4295  0.2606 -0.4370
   57MOL0     C 7619   2.300   3.819   9.445  0.0671  0.3711  0.2594
   57MOL0     C 7620   2.148   3.809   9.426  0.3693 -0.4131 -0.8457
   57MOL0     C 7621   2.087   3.903   9.321  0.8920  0.6944  0.6167
   57MOL0     C 7622   1.933   3.895   9.314  0.3293 -0.0067  0.0931
   57MOL0     C 7623   1.883   3.763   9.259 -0.7057  0.1040  0.1665
   57MOL0     C 7624   1.853   3.652   9.216 -0.6714 -0.5579  0.2836
   57MOL0     C 7625   2.440   4.105   9.631  1.3531  0.1965 -0.2200
   57MOL0     C 7626   2.558   4.153   9.690 -0.7785 -0.8313  0.3717
   57MOL0     C 7627   2.552   4.295   9.727  0.2625 -0.3937  0.3318
   57MOL0     H 7628   3.019   3.909   9.957 -0.5403  1.6330  1.9188
   57MOL0     H 7629   3.257   3.986  10.057  1.8675  3.3475  0.5439
   57MOL0     H 7630   3.509   4.148   9.811 -3.4083  1.9494 -2.4617
   57MOL0     H 7631   3.500   4.317   9.876  2.3616 -0.3769 -0.5736
   57MOL0     H 7632   3.657   4.099  10.017  3.8876  0.0504 -2.1681
   57MOL0     H 7633   3.612   4.259  10.072 -2.2932 -0.5858 -0.1785
   57MOL0     H 7634   3.711   4.339   9.842  2.7175  0.8244  0.4521
   57MOL0     H 7635   3.780   4.177   9.825  0.5863 -0.6159  2.2286
   57MOL0     H 7636   3.852   4.339  10.074 -1.1249  0.5097 -0.7437
   57MOL0     H 7637   3.945   4.207   9.995  1.9294  1.6671 -2.5064
   57MOL0     H 7638   3.986   4.373   9.801  0.8337  0.8156  0.1859
   57MOL0     H 7639   3.909   4.497   9.903  2.0962  0.3064 -0.3786
   57MOL0     H 7640   4.089   4.443  10.082 -0.9319  0.2985  0.7306
   57MOL0     H 7641   4.166   4.340   9.965  0.1374 -0.7905  3.2839
   57MOL0     H 7642   4.097   4.635   9.914  0.2341  0.4603  1.7645
   57MOL0     H 7643   4.174   4.536   9.797 -0.0727  0.5171  0.6175
   57MOL0     H 7644   4.361   4.632   9.871 -0.5688  0.4222 -1.2896
   57MOL0     H 7645   4.293   4.664  10.034  1.3027  0.8381 -1.4505
   57MOL0     H 7646   4.295   4.418  10.194 -1.0199 -1.7999 -0.4776
   57MOL0     H 7647   4.485   4.250  10.342  2.9007 -2.6637  1.7822
   57MOL0     H 7648   4.623   4.214  10.230  0.9770  0.2824 -0.2151
   57MOL0     H 7649   4.700   4.459  10.292  0.9870  0.6064  2.4227
   57MOL0     H 7650   4.572   4.463  10.406  0.4921 -0.6709  1.6174
   57MOL0     H 7651   4.780   4.240  10.387  0.2560  1.5252 -1.4817
   57MOL0     H 7652   4.686   4.281  10.535  0.2661 -0.8340  0.5112
   57MOL0     H 7653   4.821   4.506  10.513 -0.5206 -0.0364  0.8367
   57MOL0     H 7654   4.927   4.422  10.406 -3.1269  1.0412 -1.8764
   57MOL0     H 7655   5.084   4.444  10.775 -2.4101  0.8464 -1.4313
   57MOL0     H 7656   5.329   4.373  10.787 -0.7547  0.5124  1.3610
   57MOL0     H 7657   5.712   4.473  10.765  1.2448  0.8519  0.1320
   57MOL0     H 7658   5.946   4.443  10.848 -1.5916  0.9519  0.2071
   57MOL0     H 7659   6.096   4.027  10.898  0.8305 -1.2819 -0.7825
   57MOL0     H 7660   6.157   4.074  10.731  1.2480  1.6684  0.1801
   57MOL0     H 7661   6.324   4.207  10.885 -0.4627 -0.8830 -1.7426
   57MOL0     H 7662   6.262   4.115  11.019  2.7235  0.0122  0.8574
   57MOL0     H 7663   6.315   3.893  10.887  0.4432 -0.5462  0.6479
   57MOL0     H 7664   6.387   4.007  10.762  1.0300 -1.6774 -0.5995
   57MOL0     H 7665   6.456   4.009  11.065 -2.1269 -2.6827  0.1331
   57MOL0     H 7666   6.552   4.073  10.931 -0.4806  0.1352  0.4438
   57MOL0     H 7667   6.499   3.798  11.016  0.5950 -0.4974 -0.5437
   57MOL0     H 7668   6.659   3.867  11.001  1.6405 -0.7733 -2.4561
   57MOL0     H 7669   6.478   3.775  10.774 -1.1021 -0.0989  1.5124
   57MOL0     H 7670   6.610   3.890  10.736 -0.5724  1.5950  1.2673
   57MOL0     H 7671   6.664   3.651  10.703  2.8576  0.8931 -0.8673
   57MOL0     H 7672   6.632   3.618  10.875  2.0862 -1.9381 -0.8410
   57MOL0     H 7673   6.873   3.617  10.779  0.4736 -0.3801 -0.4512
   57MOL0     H 7674   6.858   3.796  10.758 -0.4170 -0.2871 -1.0710
   57MOL0     H 7675   5.916   4.022  10.753 -0.9454 -0.5950 -2.2983
   57MOL0     H 7676   5.671   4.058  10.709 -0.0436 -0.7642 -0.7116
   57MOL0     H 7677   5.271   4.152  10.417  0.6740 -0.0380  0.7640
   57MOL0     H 7678   5.042   4.192  10.426 -0.8596  2.2536 -0.1898
   57MOL0     H 7679   3.267   4.309   9.785  0.1873  0.8083 -0.3894
   57MOL0     H 7680   3.057   4.247   9.679 -0.0952  2.6268  0.2901
   57MOL0     H 7681   2.763   3.896   9.644  0.4233  1.0667 -1.8479
   57MOL0     H 7682   2.563   3.803   9.540  3.6103 -0.3868  0.6969
   57MOL0     H 7683   2.333   3.739   9.511  0.8262  1.4710  1.2477
   57MOL0     H 7684   2.354   3.819   9.350 -0.3257 -0.0628  0.0335
   57MOL0     H 7685   2.093   3.814   9.520 -1.1858  2.1811 -1.7763
   57MOL0     H 7686   2.127   3.708   9.388  1.9843 -0.3254 -2.1079
   57MOL0     H 7687   2.111   3.877   9.217 -1.8675  0.8011 -0.1182
   57MOL0     H 7688   2.113   4.005   9.351  2.6025  0.5976 -0.4157
   57MOL0     H 7689   1.890   3.919   9.411  0.5621  2.1597 -0.2902
   57MOL0     H 7690   1.907   3.976   9.245 -0.1802 -0.4326 -0.2302
   57MOL0     H 7691   1.805   3.570   9.168  0.7930 -2.0111  1.1752
   57MOL0     H 7692   2.350   4.165   9.638  1.0950 -0.3295  1.6111
   57MOL0     H 7693   2.453   4.340   9.714  0.2802 -0.2206  0.7594
   57MOL0     H 7694   2.580   4.294   9.833  2.5116  0.5450 -0.1916
   57MOL0     H 7695   2.626   4.357   9.677 -0.8324  0.9471  0.3053
   58MOL0     O 7696   3.727   7.901  10.507  0.1933 -0.4434 -0.1578
   58MOL0     C 7697   3.716   8.016  10.544  0.0432  0.2821 -0.4979
   58MOL0     O 7698   3.601   8.093  10.532 -0.5532  0.0371 -0.4876
   58MOL0     C 7699   3.479   8.037  10.506 -0.3661  0.2360 -0.0600
   58MOL0     C 7700   3.441   7.934  10.586  0.2282 -0.2767  0.4253
   58MOL0     C 7701   3.326   7.866  10.561 -0.0817 -0.3386  0.3825
   58MOL0     C 7702   3.233   7.914  10.468  0.3453 -0.1368  0.4724
   58MOL0     O 7703   3.122   7.839  10.460  0.9943 -0.1053 -0.0254
   58MOL0     C 7704   3.028   7.870  10.349  0.2543 -0.3246 -0.3194
   58MOL0     C 7705   2.943   7.996  10.371  0.0055 -0.3158  1.0910
   58MOL0     C 7706   2.866   7.978  10.498  0.4675  0.0052  0.3618
   58MOL0     C 7707   2.751   8.083  10.507 -0.1654  0.1733 -0.3647
   58MOL0     C 7708   2.693   8.104  10.644  0.2484  0.2426 -0.6565
   58MOL0     C 7709   2.780   8.174  10.747 -0.0949 -0.0736  0.6508
   58MOL0     C 7710   2.696   8.201  10.867  0.2830  1.2281  0.1391
   58MOL0     C 7711   2.761   8.292  10.979 -0.2377 -0.1421 -1.0273
   58MOL0     N 7712   2.784   8.430  10.931 -0.0302 -0.1573  0.0387
   58MOL0     C 7713   2.915   8.475  10.909 -0.0291 -1.1949  0.9912
   58MOL0     C 7714   2.896   8.599  10.868 -0.2707 -0.1652  0.2060
   58MOL0     C 7715   2.990   8.707  10.833  0.2011 -0.3945 -0.1377
   58MOL0     C 7716   3.039   8.695  10.693  0.3191  0.1250  0.0886
   58MOL0     C 7717   3.143   8.792  10.652 -0.1297 -0.1365  0.6283
   58MOL0     C 7718   3.079   8.930  10.598 -0.8941  0.8424  0.2025
   58MOL0     O 7719   3.176   9.030  10.561 -0.3716 -0.4180  0.1815
   58MOL0     C 7720   3.259   9.010  10.451  0.1738 -0.6609  0.2785
   58MOL0     C 7721   3.377   9.083  10.436  0.7452  0.1575  0.5850
   58MOL0     C 7722   3.474   9.057  10.336  0.7694 -0.1717 -0.9260
   58MOL0     C 7723   3.441   8.968  10.238 -0.7920  1.0312 -0.2263
   58MOL0     C 7724   3.536   8.942  10.129  0.7148  0.1900  0.5770
   58MOL0     O 7725   3.519   8.822  10.054  0.1336 -0.6661  0.0997
   58MOL0     C 7726   3.607   8.800   9.952 -0.1205  0.2085 -0.3128
   58MOL0     C 7727   3.590   8.876   9.838 -0.0737 -0.1832  0.2647
   58MOL0     C 7728   3.657   8.841   9.726  0.8324 -0.0001 -0.7838
   58MOL0     C 7729   3.732   8.727   9.722 -0.2767  0.3243 -0.2215
   58MOL0     O 7730   3.794   8.687   9.607 -0.1967 -0.5111  0.1480
   58MOL0     C 7731   3.789   8.556   9.564  0.5057  0.3259  0.9803
   58MOL0     C 7732   3.655   8.547   9.485  0.0453  0.0205 -1.0906
   58MOL0     C 7733   3.631   8.414   9.423 -0.4670  0.3111  0.1639
   58MOL0     C 7734   3.697   8.408   9.283  0.5616 -0.8605 -0.6530
   58MOL0     C 7735   3.693   8.262   9.236 -0.4115 -0.1196 -0.3951
   58MOL0     C 7736   3.780   8.254   9.114  0.3229 -0.6834  0.5211
   58MOL0     C 7737   3.804   8.114   9.062  0.1061 -0.3461  0.2672
   58MOL0     C 7738   3.928   8.097   8.981 -0.1636  0.4993  0.0522
   58MOL0    Cl 7739   4.082   8.144   9.080  0.0668  0.2387  0.0809
   58MOL0     C 7740   3.758   8.647   9.835 -0.0183 -0.2290 -0.1055
   58MOL0     C 7741   3.682   8.682   9.953 -0.6321  0.3318  0.0117
   58MOL0     O 7742   3.633   9.014  10.118  0.1821  0.1078  0.6380
   58MOL0     C 7743   3.321   8.901  10.244  0.1302  0.2445  0.0239
   58MOL0     C 7744   3.234   8.910  10.354  0.1010 -0.3537  0.0643
   58MOL0     N 7745   2.759   8.624  10.852 -0.1195 -0.0264 -0.9459
   58MOL0     N 7746   2.694   8.520  10.883  0.2899 -0.0182 -0.3904
   58MOL0     C 7747   3.275   8.023  10.382  0.7094  0.0530  0.4614
   58MOL0     C 7748   3.397   8.085  10.409 -0.0485 -0.3270  0.3020
   58MOL0     C 7749   3.841   8.083  10.582  0.1302 -0.5632 -0.1204
   58MOL0     C 7750   3.963   8.013  10.572  0.4754  0.7819  0.9537
   58MOL0     C 7751   4.080   8.069  10.624  0.2096  0.0165  0.6334
   58MOL0     C 7752   4.093   8.193  10.675  0.7184 -0.1935  0.4156
   58MOL0     O 7753   4.208   8.241  10.738 -0.3052 -0.5961  0.1669
   58MOL0     C 7754   4.317   8.289  10.653 -0.1974  0.1527 -0.4788
   58MOL0     C 7755   4.288   8.426  10.584  0.5586 -0.4265 -0.7340
   58MOL0     C 7756   4.399   8.476  10.487  0.1959 -0.5549 -1.2528
   58MOL0     C 7757   4.371   8.616  10.443  0.4619 -0.4255 -0.2678
   58MOL0     C 7758   4.437   8.715  10.534 -0.1116  0.8661 -0.5072
   58MOL0     C 7759   4.506   8.785  10.604 -0.7418 -0.8817  0.2981
   58MOL0     C 7760   3.966   8.257  10.695  0.0188  0.0147 -1.1698
   58MOL0     C 7761   3.850   8.209  10.642 -0.3767 -0.1219  0.3241
   58MOL0     C 7762   3.723   8.291  10.679 -0.0543 -0.4774  0.9205
   58MOL0     H 7763   3.493   7.909  10.677  0.4427 -1.7999 -0.0767
   58MOL0     H 7764   3.311   7.772  10.613  2.6191 -1.5281 -0.8155
   58MOL0     H 7765   3.073   7.870  10.250  0.1538  1.9347 -0.4232
   58MOL0     H 7766   2.957   7.786  10.357 -2.1943  1.6886  0.6908
   58MOL0     H 7767   2.872   8.011  10.289  0.2497 -1.9009  0.5406
   58MOL0     H 7768   2.997   8.090  10.383 -3.5794  1.9145  1.0497
   58MOL0     H 7769   2.938   8.011  10.573  1.1733 -0.3356 -0.1637
   58MOL0     H 7770   2.840   7.874  10.519  0.8030  0.1611  1.6814
   58MOL0     H 7771   2.780   8.178  10.462  1.3860  0.0088  0.2214
   58MOL0     H 7772   2.668   8.037  10.451  0.2113 -2.1376  0.8541
   58MOL0     H 7773   2.608   8.172  10.629  1.5290  1.4047 -3.3366
   58MOL0     H 7774   2.659   8.006  10.678 -0.4007 -1.1849 -4.8472
   58MOL0     H 7775   2.876   8.125  10.767  0.5135  1.1414  0.7965
   58MOL0     H 7776   2.805   8.269  10.699  0.9887 -0.3053  0.7369
   58MOL0     H 7777   2.682   8.101  10.909  1.6344  0.5910 -0.8540
   58MOL0     H 7778   2.600   8.233  10.825 -1.9754 -3.7619  0.7651
   58MOL0     H 7779   2.696   8.298  11.067 -1.2169  1.5414 -1.8225
   58MOL0     H 7780   2.858   8.260  11.017 -0.0410  1.7576  0.1444
   58MOL0     H 7781   3.010   8.424  10.913 -1.1704 -4.0061 -2.2669
   58MOL0     H 7782   2.937   8.802  10.843  1.3906  0.4530 -1.4129
   58MOL0     H 7783   3.079   8.704  10.896  2.4409 -2.5304 -3.0649
   58MOL0     H 7784   3.077   8.594  10.681 -0.5820 -0.5085  2.2718
   58MOL0     H 7785   2.950   8.714  10.630  0.0382  2.8173  1.1476
   58MOL0     H 7786   3.209   8.737  10.584 -1.4376 -0.2323 -0.6047
   58MOL0     H 7787   3.197   8.814  10.745 -1.1472 -1.2983  1.5085
   58MOL0     H 7788   3.011   8.964  10.676  1.9132  1.8262  2.3907
   58MOL0     H 7789   3.011   8.902  10.516 -1.6952  0.0629  1.1020
   58MOL0     H 7790   3.403   9.157  10.511  1.6177 -1.8818  2.4214
   58MOL0     H 7791   3.566   9.114  10.342  2.6666 -3.0047 -1.0879
   58MOL0     H 7792   3.530   8.966   9.825 -0.1229 -0.2968 -0.3456
   58MOL0     H 7793   3.626   8.906   9.644 -1.0342  1.3663  0.8852
   58MOL0     H 7794   3.876   8.529   9.503  0.3813 -1.8506  1.6737
   58MOL0     H 7795   3.781   8.485   9.646 -1.6313 -1.8130 -0.9112
   58MOL0     H 7796   3.576   8.565   9.558  0.0187  0.7638 -1.2925
   58MOL0     H 7797   3.642   8.631   9.416 -0.7050  1.1049  0.3051
   58MOL0     H 7798   3.681   8.338   9.484  2.3690  0.7681 -1.3853
   58MOL0     H 7799   3.522   8.412   9.421 -0.5749 -2.9168  2.2107
   58MOL0     H 7800   3.802   8.433   9.303 -0.1117 -0.0922  2.2372
   58MOL0     H 7801   3.652   8.477   9.211 -2.6409 -0.4670  1.5540
   58MOL0     H 7802   3.591   8.231   9.208 -0.9722  1.0876  0.2078
   58MOL0     H 7803   3.721   8.200   9.322 -0.8245  0.9318  0.5185
   58MOL0     H 7804   3.729   8.320   9.044 -0.6205 -1.9140  0.0285
   58MOL0     H 7805   3.881   8.291   9.135 -0.3109  0.3232  1.9936
   58MOL0     H 7806   3.719   8.086   8.999 -1.3203  2.9512  0.5502
   58MOL0     H 7807   3.801   8.049   9.149 -1.5245 -0.6960 -0.0151
   58MOL0     H 7808   3.940   8.001   8.931 -1.6124  0.9638 -1.2822
   58MOL0     H 7809   3.919   8.164   8.895 -0.3931 -1.1371 -1.2579
   58MOL0     H 7810   3.831   8.567   9.829  1.6482  1.3559 -3.0528
   58MOL0     H 7811   3.682   8.621  10.042 -1.3499  2.0330  1.2271
   58MOL0     H 7812   3.284   8.834  10.167  0.6814  1.6766 -1.5557
   58MOL0     H 7813   3.147   8.845  10.359  0.7334 -1.1508  3.5150
   58MOL0     H 7814   3.206   8.061  10.307  0.1196 -0.9174  0.4946
   58MOL0     H 7815   3.424   8.166  10.343 -0.1191  0.4210  1.1714
   58MOL0     H 7816   3.968   7.917  10.522  3.1998  0.6170  1.4305
   58MOL0     H 7817   4.165   8.002  10.615  0.2215  0.1865 -0.7193
   58MOL0     H 7818   4.350   8.224  10.572  0.3016  0.8207 -0.8264
   58MOL0     H 7819   4.406   8.299  10.715 -0.4708  0.0385 -0.0628
   58MOL0     H 7820   4.264   8.505  10.656  0.7797  0.8083 -1.9723
   58MOL0     H 7821   4.196   8.413  10.526  0.5907 -0.8573 -0.6890
   58MOL0     H 7822   4.402   8.403  10.405 -0.8652 -3.0233  0.7555
   58MOL0     H 7823   4.495   8.467  10.539 -0.5369 -0.5974  0.1194
   58MOL0     H 7824   4.401   8.638  10.340 -0.0128  2.3281  0.1229
   58MOL0     H 7825   4.263   8.633  10.442  0.6599  0.9641 -0.0726
   58MOL0     H 7826   4.578   8.842  10.659  2.7399 -1.6192 -3.0651
   58MOL0     H 7827   3.975   8.353  10.746  1.4382 -0.7044  0.0077
   58MOL0     H 7828   3.746   8.387  10.727  1.1751 -0.8891  1.1904
   58MOL0     H 7829   3.676   8.314  10.583  1.0515 -1.3594  0.1306
   58MOL0     H 7830   3.658   8.233  10.744 -0.5544 -0.4085  0.4895
   59MOL0     O 7831  10.553   6.897   4.987  0.8534  0.1308 -0.3228
   59MOL0     C 7832  10.535   6.845   5.096 -0.6573 -0.2833 -0.3223
   59MOL0     O 7833  10.631   6.814   5.193 -0.2464  0.2970  0.2046
   59MOL0     C 7834  10.746   6.887   5.195 -0.2225  0.8494  0.5440
   59MOL0     C 7835  10.792   6.925   5.317 -0.9071 -0.1894 -0.5249
   59MOL0     C 7836  10.902   7.020   5.331 -0.0069 -0.1810  0.0323
   59MOL0     C 7837  10.974   7.068   5.218 -0.0777 -0.2230 -0.0453
   59MOL0     O 7838  11.068   7.166   5.217  0.4033 -0.3403 -0.2120
   59MOL0     C 7839  11.118   7.228   5.341  0.1985  0.2599  0.1714
   59MOL0     C 7840  11.169   7.363   5.318 -1.0561 -0.6863 -0.0310
   59MOL0     C 7841  11.324   7.384   5.326  0.4834  0.0883  0.0877
   59MOL0     C 7842  11.355   7.529   5.304 -0.7343  0.6411  0.4232
   59MOL0     C 7843  11.504   7.565   5.266  0.5301 -0.2576 -0.5556
   59MOL0     C 7844  11.599   7.528   5.371 -0.2919  0.3371 -0.4905
   59MOL0     C 7845  11.741   7.584   5.344  0.1301 -0.6106 -0.5052
   59MOL0     C 7846  11.841   7.541   5.456 -0.2645  0.2719  0.5830
   59MOL0     N 7847  11.974   7.563   5.415 -0.4037  0.1453 -0.1629
   59MOL0     C 7848  12.069   7.650   5.468  0.4624 -0.4375 -0.2811
   59MOL0     C 7849  12.173   7.637   5.389 -0.5746 -0.7784  0.7371
   59MOL0     C 7850  12.300   7.715   5.412  0.7489 -1.0476  0.7400
   59MOL0     C 7851  12.413   7.618   5.457  0.1679 -0.1150  0.4561
   59MOL0     C 7852  12.402   7.582   5.599  0.2030  0.1490 -0.4553
   59MOL0     C 7853  12.542   7.537   5.649  0.5252  0.8001 -0.1736
   59MOL0     O 7854  12.640   7.644   5.658 -0.6370 -0.4146  0.2253
   59MOL0     C 7855  12.776   7.616   5.636  0.4358  0.5106 -0.8466
   59MOL0     C 7856  12.827   7.488   5.641 -0.5876  0.4138  0.7127
   59MOL0     C 7857  12.969   7.469   5.616  0.6442 -0.0017 -0.1482
   59MOL0     C 7858  13.054   7.576   5.579  0.4089 -0.6340  0.4386
   59MOL0     C 7859  13.199   7.559   5.550  0.4232 -0.2063 -1.2982
   59MOL0     O 7860  13.271   7.671   5.520 -0.8466 -0.1652 -0.1841
   59MOL0     C 7861  13.407   7.677   5.511 -0.4166 -0.8688  0.3373
   59MOL0     C 7862  13.509   7.576   5.503 -0.9996  1.2295 -0.8749
   59MOL0     C 7863  13.642   7.606   5.469 -0.5739 -0.3595  0.2605
   59MOL0     C 7864  13.684   7.744   5.461 -0.4715  0.5985  0.6946
   59MOL0     O 7865  13.814   7.765   5.430  0.2272  0.0987  0.3729
   59MOL0     C 7866  13.892   7.833   5.527 -0.5588 -0.0047 -0.3413
   59MOL0     C 7867  14.026   7.882   5.470  0.2969  0.2650 -1.2172
   59MOL0     C 7868  14.010   8.011   5.390 -0.1128 -0.2931  0.1895
   59MOL0     C 7869  14.125   8.032   5.288  0.2464 -0.2320 -0.4174
   59MOL0     C 7870  14.097   8.159   5.197  0.9961  0.2255 -0.4905
   59MOL0     C 7871  14.216   8.195   5.117 -0.2703  0.1981 -0.5681
   59MOL0     C 7872  14.191   8.314   5.029 -0.4083 -0.6578 -0.1148
   59MOL0     C 7873  14.312   8.357   4.950 -0.2689  0.5364  0.1002
   59MOL0    Cl 7874  14.456   8.390   5.053 -0.2767 -0.0260 -0.3577
   59MOL0     C 7875  13.590   7.840   5.477 -0.1768 -0.8100  1.2127
   59MOL0     C 7876  13.453   7.816   5.506  0.3576 -0.4358 -0.1421
   59MOL0     O 7877  13.244   7.445   5.558 -0.6977  0.4433  0.9589
   59MOL0     C 7878  12.993   7.702   5.567  0.2009 -0.0416  1.0374
   59MOL0     C 7879  12.862   7.718   5.603  0.7470  1.0971 -0.6033
   59MOL0     N 7880  12.151   7.547   5.289  0.1538 -0.5760  0.3595
   59MOL0     N 7881  12.032   7.501   5.310  0.6809  0.2461  0.2099
   59MOL0     C 7882  10.921   7.033   5.089 -0.2994  0.2280 -0.6118
   59MOL0     C 7883  10.807   6.942   5.079  0.3617  0.4315  0.9082
   59MOL0     C 7884  10.397   6.796   5.123  0.1499 -0.1663  0.9208
   59MOL0     C 7885  10.350   6.814   5.251  0.3860  0.6830 -0.2709
   59MOL0     C 7886  10.221   6.782   5.284 -0.2538 -0.1835 -0.6073
   59MOL0     C 7887  10.130   6.734   5.195  1.1564 -0.5443 -0.2965
   59MOL0     O 7888   9.996   6.700   5.227 -0.1953  0.7293 -0.1133
   59MOL0     C 7889   9.936   6.779   5.330  0.0434  0.1329 -0.7026
   59MOL0     C 7890   9.801   6.734   5.369 -1.0451 -1.0512 -0.8822
   59MOL0     C 7891   9.698   6.729   5.255  0.3086  0.7292  0.3838
   59MOL0     C 7892   9.583   6.640   5.286  0.4529 -1.2894 -0.2907
   59MOL0     C 7893   9.510   6.630   5.162  1.0004 -0.2375 -0.0824
   59MOL0     C 7894   9.446   6.622   5.065 -0.1476  0.6942  0.2287
   59MOL0     C 7895  10.175   6.703   5.067  0.5561  0.2070 -0.4392
   59MOL0     C 7896  10.313   6.728   5.028 -0.2038 -0.8720  0.5902
   59MOL0     C 7897  10.363   6.681   4.893 -0.5939 -0.8699 -1.2299
   59MOL0     H 7898  10.770   6.872   5.409  1.5837 -1.6759 -0.6718
   59MOL0     H 7899  10.934   7.044   5.431  1.2721  0.3533 -0.4758
   59MOL0     H 7900  11.038   7.237   5.415 -1.5091  1.5274 -1.7164
   59MOL0     H 7901  11.205   7.169   5.368  1.7039  1.9132 -0.7962
   59MOL0     H 7902  11.124   7.417   5.402  0.2600 -1.3045  1.1196
   59MOL0     H 7903  11.143   7.406   5.221  1.1972 -2.5327 -1.5800
   59MOL0     H 7904  11.362   7.317   5.249 -0.0916  0.2446 -0.3417
   59MOL0     H 7905  11.360   7.356   5.426  0.6215 -1.9248 -0.4957
   59MOL0     H 7906  11.289   7.561   5.223 -0.4443  2.8922  0.9993
   59MOL0     H 7907  11.316   7.593   5.384 -1.0086 -0.8449  1.5286
   59MOL0     H 7908  11.532   7.535   5.164 -1.7555 -1.0217 -1.0256
   59MOL0     H 7909  11.504   7.673   5.254 -0.8710 -0.3222 -1.4052
   59MOL0     H 7910  11.553   7.577   5.457 -0.5769  0.5975 -0.7899
   59MOL0     H 7911  11.593   7.421   5.393 -0.9220  0.9829  3.3118
   59MOL0     H 7912  11.730   7.693   5.343  0.6598 -0.4615  2.3869
   59MOL0     H 7913  11.767   7.545   5.245  2.0613  1.1140 -0.7481
   59MOL0     H 7914  11.806   7.582   5.551 -0.3464  1.0565  0.2254
   59MOL0     H 7915  11.828   7.433   5.466 -1.8562  0.5008  1.2368
   59MOL0     H 7916  12.055   7.722   5.549  0.8490 -2.0881  1.3126
   59MOL0     H 7917  12.325   7.757   5.314 -1.6784 -2.7429 -0.6990
   59MOL0     H 7918  12.292   7.792   5.490  4.2055 -1.1855  1.4071
   59MOL0     H 7919  12.420   7.530   5.392 -3.6921 -1.5201  1.6350
   59MOL0     H 7920  12.506   7.672   5.442 -1.3168  1.7284 -3.4593
   59MOL0     H 7921  12.322   7.511   5.620 -0.6043  1.4608  1.1111
   59MOL0     H 7922  12.383   7.670   5.661  1.9653  1.4823 -1.7038
   59MOL0     H 7923  12.576   7.457   5.582  2.8389 -1.1726  3.0287
   59MOL0     H 7924  12.542   7.483   5.745 -1.4483  2.3482  0.7806
   59MOL0     H 7925  12.756   7.407   5.656 -0.5414 -0.1613 -1.8329
   59MOL0     H 7926  12.994   7.363   5.621 -3.3948 -1.3436 -3.2218
   59MOL0     H 7927  13.477   7.476   5.529 -5.1631  2.7761  0.9487
   59MOL0     H 7928  13.723   7.534   5.457 -0.0352 -0.2930  2.7746
   59MOL0     H 7929  13.835   7.924   5.552 -0.2626 -0.4589  2.3182
   59MOL0     H 7930  13.897   7.776   5.620 -1.6106 -0.8386 -0.7765
   59MOL0     H 7931  14.103   7.893   5.547 -0.3309 -1.4570 -0.2813
   59MOL0     H 7932  14.065   7.805   5.403 -0.3220 -0.5104 -0.7016
   59MOL0     H 7933  13.919   8.006   5.330 -0.2053  0.6785  0.2287
   59MOL0     H 7934  14.001   8.099   5.455  1.3808 -0.3877  0.5666
   59MOL0     H 7935  14.136   7.941   5.229 -0.8620  0.4287 -1.7038
   59MOL0     H 7936  14.213   8.056   5.349 -1.1375  1.6575  0.9496
   59MOL0     H 7937  14.061   8.245   5.254  0.8847  0.0754 -0.3326
   59MOL0     H 7938  14.021   8.136   5.121  2.2454  0.0874 -1.7347
   59MOL0     H 7939  14.303   8.202   5.183  1.9930 -1.5179 -3.1209
   59MOL0     H 7940  14.250   8.114   5.051  0.6144  1.4775 -1.7459
   59MOL0     H 7941  14.158   8.400   5.089  0.4541  1.2464 -2.2283
   59MOL0     H 7942  14.110   8.279   4.964 -1.1119 -1.2851  1.0637
   59MOL0     H 7943  14.334   8.278   4.878  0.7301  1.1585 -0.2994
   59MOL0     H 7944  14.281   8.446   4.895 -0.8180 -0.4829 -1.2795
   59MOL0     H 7945  13.616   7.941   5.447  0.3753 -1.4581 -0.6145
   59MOL0     H 7946  13.391   7.905   5.506 -0.5825 -1.0799 -0.6578
   59MOL0     H 7947  13.053   7.790   5.544 -1.7923  0.8286 -1.2645
   59MOL0     H 7948  12.819   7.817   5.592 -0.1274  0.9821  1.4122
   59MOL0     H 7949  10.990   7.059   5.008  1.9579 -0.5720  0.9460
   59MOL0     H 7950  10.772   6.918   4.980  0.4816  1.3691  0.6251
   59MOL0     H 7951  10.418   6.853   5.327  1.0800  2.4105 -1.6825
   59MOL0     H 7952  10.204   6.801   5.390  3.0683 -1.5258  0.3029
   59MOL0     H 7953   9.947   6.886   5.311 -1.6127  1.2888  3.6109
   59MOL0     H 7954   9.990   6.765   5.425  1.5181  2.1787 -1.1901
   59MOL0     H 7955   9.756   6.803   5.442 -0.4091 -0.2103 -1.2635
   59MOL0     H 7956   9.806   6.638   5.420 -0.3093 -0.0834  0.9588
   59MOL0     H 7957   9.738   6.686   5.163 -1.2376  1.0530 -0.4673
   59MOL0     H 7958   9.653   6.826   5.237 -1.0373  0.3842  1.7008
   59MOL0     H 7959   9.602   6.539   5.324 -1.7928 -1.3929  0.7211
   59MOL0     H 7960   9.529   6.687   5.369 -0.7491 -3.0024 -0.0388
   59MOL0     H 7961   9.377   6.606   4.985  2.0729 -3.5012 -1.1357
   59MOL0     H 7962  10.100   6.648   5.012 -0.9308 -0.1429  1.8146
   59MOL0     H 7963  10.467   6.695   4.863 -0.9538  2.0138 -1.4396
   59MOL0     H 7964  10.346   6.573   4.890  0.9054 -1.1612 -0.5565
   59MOL0     H 7965  10.302   6.730   4.818 -0.7014 -1.0210 -1.2416
   60MOL0     O 7966   1.850   5.043   8.696  0.1290 -0.2384 -0.2605
   60MOL0     C 7967   1.819   5.093   8.811 -0.0345  1.0026 -0.4238
   60MOL0     O 7968   1.912   5.133   8.913  0.2815  0.1549 -0.2617
   60MOL0     C 7969   2.051   5.141   8.893  0.0124 -0.3752  0.5715
   60MOL0     C 7970   2.114   5.197   8.778 -0.5661  0.1151 -0.4179
   60MOL0     C 7971   2.256   5.197   8.770  0.8893 -0.1447  0.6479
   60MOL0     C 7972   2.330   5.144   8.873  0.0917 -0.4882 -0.5358
   60MOL0     O 7973   2.469   5.147   8.879 -0.1628 -0.0960  0.2058
   60MOL0     C 7974   2.546   5.233   8.795 -1.3300  0.7355  0.2382
   60MOL0     C 7975   2.692   5.243   8.854  0.6304 -0.2545 -0.1660
   60MOL0     C 7976   2.761   5.356   8.784 -0.1281 -0.2578 -0.3082
   60MOL0     C 7977   2.912   5.356   8.819 -0.5495 -0.0058 -0.2911
   60MOL0     C 7978   2.980   5.479   8.761 -0.4666 -0.2924  1.0679
   60MOL0     C 7979   3.078   5.455   8.650  0.6609 -0.2748 -0.2680
   60MOL0     C 7980   3.195   5.554   8.635  0.5118  0.1908  0.0922
   60MOL0     C 7981   3.318   5.510   8.699 -1.0005 -0.1985 -0.2182
   60MOL0     N 7982   3.411   5.620   8.728  0.5283  0.8348  0.3515
   60MOL0     C 7983   3.428   5.690   8.843 -0.3519 -0.1917  0.1135
   60MOL0     C 7984   3.535   5.769   8.820 -0.0231  0.5223 -0.6522
   60MOL0     C 7985   3.599   5.864   8.921 -0.7569 -0.6413  0.4315
   60MOL0     C 7986   3.757   5.858   8.931  0.0857 -0.4771  0.6574
   60MOL0     C 7987   3.826   5.982   8.865 -0.1770  0.1607 -0.7361
   60MOL0     C 7988   3.969   5.976   8.903 -0.4938  0.0235  0.4304
   60MOL0     O 7989   3.988   6.018   9.039  0.0950 -0.1352 -0.3578
   60MOL0     C 7990   4.107   6.073   9.078 -0.3259  0.4305 -0.0065
   60MOL0     C 7991   4.230   6.050   9.010 -0.4575 -1.0594  0.1288
   60MOL0     C 7992   4.351   6.098   9.063  0.8489  0.4552  0.1515
   60MOL0     C 7993   4.357   6.175   9.180 -1.2058 -0.1351 -0.9063
   60MOL0     C 7994   4.489   6.220   9.244 -0.6409  0.3869  0.4646
   60MOL0     O 7995   4.610   6.181   9.186  0.2109  0.2820 -0.1925
   60MOL0     C 7996   4.716   6.188   9.271 -2.3402 -1.0764 -0.6608
   60MOL0     C 7997   4.815   6.283   9.244  0.5496 -0.3525  0.9350
   60MOL0     C 7998   4.923   6.307   9.327 -0.9333  1.3072  0.1437
   60MOL0     C 7999   4.941   6.233   9.449  0.1241 -0.4169  0.7659
   60MOL0     O 8000   5.024   6.266   9.552  0.5899 -0.3944  0.3879
   60MOL0     C 8001   5.145   6.333   9.516  0.5023 -0.3084 -0.2050
   60MOL0     C 8002   5.249   6.249   9.436 -0.1717 -0.1843 -0.4693
   60MOL0     C 8003   5.383   6.311   9.483  0.3840 -0.4637  0.9402
   60MOL0     C 8004   5.507   6.264   9.414 -0.1299 -0.7233 -0.6330
   60MOL0     C 8005   5.625   6.320   9.490  0.0949 -0.9354  0.1550
   60MOL0     C 8006   5.761   6.299   9.416 -0.4654 -0.1669  0.3450
   60MOL0     C 8007   5.883   6.322   9.508 -0.1010 -0.6584  0.0321
   60MOL0     C 8008   5.914   6.471   9.507  0.5740 -0.4495 -0.1928
   60MOL0    Cl 8009   6.057   6.521   9.587  0.3174  0.0685  0.1931
   60MOL0     C 8010   4.838   6.138   9.477  0.2165 -0.9864  0.3011
   60MOL0     C 8011   4.731   6.114   9.390 -0.3584 -0.2314 -0.1108
   60MOL0     O 8012   4.484   6.283   9.352 -0.7268 -0.2517  0.2839
   60MOL0     C 8013   4.234   6.203   9.238 -0.2813  1.1589  0.0734
   60MOL0     C 8014   4.111   6.152   9.186 -0.9558 -0.5183 -0.1196
   60MOL0     N 8015   3.570   5.759   8.691  0.1396  0.3751  0.5807
   60MOL0     N 8016   3.499   5.672   8.635 -0.3509  0.1511  0.3302
   60MOL0     C 8017   2.268   5.083   8.981 -0.5058  0.5269 -0.6117
   60MOL0     C 8018   2.131   5.090   9.002 -0.0189 -0.1137  1.1631
   60MOL0     C 8019   1.678   5.123   8.841 -0.3677 -0.2475  0.4629
   60MOL0     C 8020   1.646   5.208   8.944  0.3926  1.1961 -0.4198
   60MOL0     C 8021   1.510   5.237   8.971 -0.7795 -0.0569  0.2733
   60MOL0     C 8022   1.406   5.194   8.895  0.4435  0.3514 -0.2272
   60MOL0     O 8023   1.277   5.220   8.940  0.7385 -0.4049 -0.4205
   60MOL0     C 8024   1.159   5.185   8.871 -0.7399 -0.1679 -1.0992
   60MOL0     C 8025   1.092   5.055   8.932  0.0627 -0.5413  0.5096
   60MOL0     C 8026   1.055   5.063   9.087  0.5909 -0.2664  0.3753
   60MOL0     C 8027   1.025   4.927   9.147  0.5731 -0.1836 -0.0828
   60MOL0     C 8028   0.894   4.874   9.094 -0.4384  0.2797  0.1228
   60MOL0     C 8029   0.795   4.827   9.055  0.3207 -0.3702  0.7042
   60MOL0     C 8030   1.435   5.104   8.795 -0.1675  0.2879  0.4530
   60MOL0     C 8031   1.563   5.066   8.771 -0.6429 -0.3762 -0.1439
   60MOL0     C 8032   1.576   4.944   8.676  0.2070  0.2252  0.9500
   60MOL0     H 8033   2.063   5.238   8.691 -0.2208  0.7447 -0.3278
   60MOL0     H 8034   2.316   5.244   8.693  2.2057 -0.4733  1.4454
   60MOL0     H 8035   2.554   5.191   8.695 -0.0042  0.6941  0.3454
   60MOL0     H 8036   2.501   5.332   8.785  1.2725  1.7427 -3.2206
   60MOL0     H 8037   2.751   5.153   8.834  0.6039 -0.4551  0.6295
   60MOL0     H 8038   2.703   5.268   8.960  0.2101 -3.1501  0.6773
   60MOL0     H 8039   2.709   5.447   8.815  0.9204  0.6131 -1.0305
   60MOL0     H 8040   2.747   5.345   8.676  2.1648 -2.0645 -0.5108
   60MOL0     H 8041   2.921   5.356   8.928  1.6039  6.0337 -0.0950
   60MOL0     H 8042   2.957   5.263   8.783  2.1115 -0.1825  3.0403
   60MOL0     H 8043   2.913   5.555   8.721  1.5705  0.7417 -0.5663
   60MOL0     H 8044   3.048   5.518   8.837  0.2274  0.0279  0.3023
   60MOL0     H 8045   3.116   5.352   8.657  0.5136 -0.2571  1.3947
   60MOL0     H 8046   3.017   5.448   8.559  1.2600 -0.9699 -0.6301
   60MOL0     H 8047   3.162   5.648   8.679  0.4765  0.0074  0.4607
   60MOL0     H 8048   3.208   5.577   8.529 -1.0782 -1.7368 -0.5867
   60MOL0     H 8049   3.303   5.464   8.797  1.1505 -0.2876  0.1074
   60MOL0     H 8050   3.375   5.438   8.640  3.2121  1.0721  1.9332
   60MOL0     H 8051   3.366   5.685   8.931 -0.3298  0.0395  0.1400
   60MOL0     H 8052   3.569   5.967   8.900  0.4282 -0.3181  0.2289
   60MOL0     H 8053   3.560   5.843   9.021 -0.9245 -1.2942  0.2346
   60MOL0     H 8054   3.783   5.846   9.037 -1.8630 -3.3889  0.9354
   60MOL0     H 8055   3.789   5.768   8.879  2.0042 -0.3013  1.4543
   60MOL0     H 8056   3.777   6.076   8.890  1.2990  0.5181  1.0301
   60MOL0     H 8057   3.838   5.980   8.756  2.6158  2.0967 -0.5485
   60MOL0     H 8058   4.031   6.033   8.834 -2.3111  1.8706  0.2118
   60MOL0     H 8059   4.015   5.877   8.899  1.1052  0.6891  1.5750
   60MOL0     H 8060   4.236   5.994   8.917 -0.0329 -0.9993  0.1169
   60MOL0     H 8061   4.443   6.069   9.014  0.4648 -0.1546 -0.2307
   60MOL0     H 8062   4.802   6.339   9.152 -4.8673 -0.6236  1.1841
   60MOL0     H 8063   4.992   6.377   9.282  1.5846 -2.9795 -3.4952
   60MOL0     H 8064   5.119   6.423   9.460 -1.2333 -1.3437 -1.1554
   60MOL0     H 8065   5.178   6.366   9.615  0.3169 -0.7382  0.0000
   60MOL0     H 8066   5.247   6.144   9.468 -0.4162 -0.4760 -1.4104
   60MOL0     H 8067   5.221   6.262   9.331 -3.0637 -0.5404  0.1786
   60MOL0     H 8068   5.370   6.420   9.479 -1.4261 -0.6629 -1.4903
   60MOL0     H 8069   5.403   6.296   9.589  1.2424 -2.4408  0.5388
   60MOL0     H 8070   5.503   6.291   9.308 -0.1065 -0.2770 -0.5251
   60MOL0     H 8071   5.513   6.156   9.404  1.1978 -0.6684 -0.5806
   60MOL0     H 8072   5.632   6.275   9.589 -0.3541  0.7407  0.9830
   60MOL0     H 8073   5.625   6.428   9.506  4.6829 -0.5935 -0.7800
   60MOL0     H 8074   5.753   6.195   9.382 -2.9155  0.7226 -2.1591
   60MOL0     H 8075   5.758   6.365   9.329 -0.8280  1.2619  1.4105
   60MOL0     H 8076   5.976   6.269   9.488  0.7693 -0.2194  2.4986
   60MOL0     H 8077   5.855   6.289   9.609  1.2879  0.2821  0.7573
   60MOL0     H 8078   5.930   6.495   9.401 -1.0354 -2.1961 -0.9017
   60MOL0     H 8079   5.832   6.527   9.553 -2.9711 -3.8903 -1.6918
   60MOL0     H 8080   4.838   6.079   9.568 -0.3898 -1.3289  0.0842
   60MOL0     H 8081   4.649   6.044   9.405 -2.3425  0.9343 -4.2459
   60MOL0     H 8082   4.216   6.267   9.324  1.6883  0.8984  0.7376
   60MOL0     H 8083   4.022   6.166   9.247 -0.5570  0.5666  0.2365
   60MOL0     H 8084   2.326   5.031   9.056 -0.3704  0.4978 -0.7365
   60MOL0     H 8085   2.076   5.069   9.093 -0.4088  0.1940  1.0044
   60MOL0     H 8086   1.722   5.250   9.009 -1.6167  4.2590  0.1886
   60MOL0     H 8087   1.500   5.300   9.059  3.5360 -1.7128  2.2132
   60MOL0     H 8088   1.186   5.175   8.765 -0.4519 -1.6328 -0.9068
   60MOL0     H 8089   1.092   5.270   8.889  0.3239  0.3046  1.0108
   60MOL0     H 8090   1.158   4.968   8.925  0.4811 -0.7035  4.2040
   60MOL0     H 8091   0.996   5.048   8.880 -0.0585 -1.1794  0.8002
   60MOL0     H 8092   0.963   5.122   9.094 -0.0079 -0.9243 -1.3586
   60MOL0     H 8093   1.132   5.107   9.150  1.2073  1.2029 -1.3224
   60MOL0     H 8094   1.105   4.854   9.134  0.7772 -0.2103  1.1695
   60MOL0     H 8095   1.009   4.948   9.254  1.3085 -0.5270  0.1019
   60MOL0     H 8096   0.705   4.783   9.017  0.2516  0.6147 -0.3251
   60MOL0     H 8097   1.345   5.058   8.755 -1.1052  2.3428  0.0288
   60MOL0     H 8098   1.653   4.948   8.599 -2.1908 -1.7639 -1.7795
   60MOL0     H 8099   1.590   4.850   8.729 -0.0509  0.9703  2.4018
   60MOL0     H 8100   1.490   4.939   8.608  1.3766  2.7255 -0.8973
   61MOL0     O 8101   3.066   7.057   2.343 -0.0795  0.2300 -0.1381
   61MOL0     C 8102   3.073   6.937   2.325 -0.5235 -0.1698  0.1032
   61MOL0     O 8103   3.188   6.862   2.339 -0.3512  0.3582  0.1787
   61MOL0     C 8104   3.318   6.916   2.341  0.4330 -1.0317  0.4966
   61MOL0     C 8105   3.427   6.842   2.293 -0.5056 -0.1071 -0.1463
   61MOL0     C 8106   3.555   6.882   2.296  0.1997  0.2210  0.2901
   61MOL0     C 8107   3.595   7.001   2.344  0.2008  0.4899 -0.6484
   61MOL0     O 8108   3.734   7.029   2.346  0.1368 -0.0570 -0.0648
   61MOL0     C 8109   3.778   7.132   2.441 -0.2920  0.2923 -0.8765
   61MOL0     C 8110   3.929   7.143   2.434  0.2329  0.1964 -0.3552
   61MOL0     C 8111   3.984   7.281   2.477 -0.4537 -0.1400 -1.2192
   61MOL0     C 8112   4.137   7.267   2.514  0.1756 -0.2581 -0.3471
   61MOL0     C 8113   4.201   7.406   2.561  0.2307  0.1705 -0.0260
   61MOL0     C 8114   4.125   7.484   2.674 -0.8467 -0.5118  0.5110
   61MOL0     C 8115   4.216   7.599   2.719  0.4186  1.2743  0.5386
   61MOL0     C 8116   4.156   7.690   2.826  0.9518 -0.7310  0.2373
   61MOL0     N 8117   4.164   7.621   2.952 -0.1596 -0.4216 -0.9776
   61MOL0     C 8118   4.256   7.657   3.044  0.2993  0.1294 -0.2395
   61MOL0     C 8119   4.223   7.573   3.153  0.4597  0.3916  0.1988
   61MOL0     C 8120   4.319   7.542   3.264 -0.8459  0.2735 -0.7922
   61MOL0     C 8121   4.461   7.531   3.212 -0.0137 -0.2332 -0.0753
   61MOL0     C 8122   4.548   7.471   3.314  0.6775 -0.0094 -0.1756
   61MOL0     C 8123   4.694   7.460   3.267  0.1881  0.2132  0.8321
   61MOL0     O 8124   4.750   7.597   3.246 -0.3385  0.1283  0.2067
   61MOL0     C 8125   4.808   7.647   3.132 -0.4490  0.8716 -0.0310
   61MOL0     C 8126   4.748   7.649   3.008  0.2285  0.8591 -0.2150
   61MOL0     C 8127   4.823   7.691   2.900 -0.5365 -0.7580 -0.3181
   61MOL0     C 8128   4.955   7.746   2.912 -0.9097  0.1301 -0.4554
   61MOL0     C 8129   5.032   7.785   2.786 -0.4741 -0.6266 -0.1935
   61MOL0     O 8130   4.961   7.790   2.666  0.1654  0.3001  0.6899
   61MOL0     C 8131   5.015   7.828   2.550  0.6900  0.0014  0.2315
   61MOL0     C 8132   5.133   7.766   2.511  0.0131  0.2725  0.7469
   61MOL0     C 8133   5.192   7.802   2.391 -0.6339  0.1412 -0.5454
   61MOL0     C 8134   5.130   7.891   2.302  0.0056 -0.5726  0.5200
   61MOL0     O 8135   5.165   7.926   2.174  0.8056 -0.4158  0.3579
   61MOL0     C 8136   5.297   7.898   2.120  0.6541 -0.2034 -0.2004
   61MOL0     C 8137   5.307   8.014   2.019  0.6259 -0.6087 -1.3122
   61MOL0     C 8138   5.421   7.989   1.924 -1.1165  0.3995  0.3393
   61MOL0     C 8139   5.389   7.884   1.815  0.5468  0.4384 -0.0354
   61MOL0     C 8140   5.515   7.829   1.761 -0.2858 -0.3283  0.3525
   61MOL0     C 8141   5.606   7.926   1.679 -0.6783  0.4133  0.2334
   61MOL0     C 8142   5.730   7.846   1.615  1.3653 -0.7613  0.2156
   61MOL0     C 8143   5.799   7.949   1.530 -1.1611 -0.0755  0.0294
   61MOL0    Cl 8144   5.960   7.894   1.477 -0.1924 -0.3422 -0.1024
   61MOL0     C 8145   5.014   7.960   2.354 -0.4604 -0.4263 -0.3157
   61MOL0     C 8146   4.953   7.915   2.468  0.6451 -0.3449  0.8311
   61MOL0     O 8147   5.150   7.822   2.789  0.0554  0.4979 -0.2972
   61MOL0     C 8148   5.015   7.737   3.039  0.3836  0.5525 -0.2274
   61MOL0     C 8149   4.946   7.685   3.146  0.2047  0.9066 -0.6627
   61MOL0     N 8150   4.111   7.495   3.124  0.2614  1.0590  0.0848
   61MOL0     N 8151   4.073   7.526   3.000 -0.0518  0.6128 -0.3936
   61MOL0     C 8152   3.493   7.090   2.391  0.8115 -0.6088  0.4510
   61MOL0     C 8153   3.358   7.042   2.396  0.4592 -0.1277  1.3243
   61MOL0     C 8154   2.947   6.860   2.295 -0.1054 -0.0307 -0.6068
   61MOL0     C 8155   2.959   6.723   2.258 -0.4368 -0.3799 -0.5615
   61MOL0     C 8156   2.847   6.650   2.219 -0.0190 -0.2013  0.8815
   61MOL0     C 8157   2.722   6.715   2.206 -0.9749  0.5035  0.2388
   61MOL0     O 8158   2.611   6.653   2.147  0.7022  0.1976 -1.0326
   61MOL0     C 8159   2.629   6.525   2.087 -0.9877  0.3256 -0.5463
   61MOL0     C 8160   2.507   6.491   2.012  0.9322  0.2661 -0.3540
   61MOL0     C 8161   2.517   6.354   1.934 -0.1157 -0.5772  0.5928
   61MOL0     C 8162   2.387   6.312   1.869  0.1517 -0.5585  0.5143
   61MOL0     C 8163   2.360   6.408   1.758  1.0320  0.0644 -0.0388
   61MOL0     C 8164   2.328   6.468   1.653 -0.4888  0.0112 -0.8045
   61MOL0     C 8165   2.708   6.850   2.237 -0.8314 -0.0011  0.3834
   61MOL0     C 8166   2.820   6.919   2.288 -0.0580 -0.1697 -0.1140
   61MOL0     C 8167   2.786   7.049   2.339 -0.1447 -0.2100  0.4779
   61MOL0     H 8168   3.394   6.744   2.259  2.0038 -1.7247  1.7277
   61MOL0     H 8169   3.627   6.811   2.257 -0.3234  1.3100 -2.9713
   61MOL0     H 8170   3.750   7.232   2.406  0.0355  1.2478  1.3652
   61MOL0     H 8171   3.738   7.127   2.543 -2.4463  2.9566 -1.4827
   61MOL0     H 8172   3.957   7.119   2.331  0.7136 -2.4979  0.3229
   61MOL0     H 8173   3.972   7.069   2.502  2.9498 -0.7539 -2.9194
   61MOL0     H 8174   3.929   7.306   2.568  1.9533  2.8950 -0.4185
   61MOL0     H 8175   3.970   7.358   2.401 -1.5601  1.6477  0.7027
   61MOL0     H 8176   4.152   7.192   2.593  0.8757  0.3948  0.1663
   61MOL0     H 8177   4.184   7.227   2.424 -0.9827 -2.5210 -0.0201
   61MOL0     H 8178   4.301   7.376   2.591 -0.4825 -1.0367  1.2180
   61MOL0     H 8179   4.207   7.469   2.471 -0.5114 -0.4288 -0.5059
   61MOL0     H 8180   4.036   7.527   2.627  0.0962  0.3293 -0.5624
   61MOL0     H 8181   4.096   7.408   2.748 -0.7732 -0.5197  0.5319
   61MOL0     H 8182   4.237   7.656   2.628 -0.2880 -1.4561 -1.4940
   61MOL0     H 8183   4.307   7.563   2.766  0.3112  0.4946  0.1650
   61MOL0     H 8184   4.214   7.783   2.820 -1.6007  1.1003  1.9182
   61MOL0     H 8185   4.051   7.708   2.801  0.7035 -2.3073  0.0882
   61MOL0     H 8186   4.336   7.729   3.029  0.0636  0.4012 -0.2043
   61MOL0     H 8187   4.325   7.620   3.340  1.5019 -0.0909 -0.5393
   61MOL0     H 8188   4.293   7.450   3.317 -1.7884 -0.0209 -1.7177
   61MOL0     H 8189   4.469   7.461   3.128  4.2827 -2.0205  1.5580
   61MOL0     H 8190   4.487   7.633   3.179 -0.5596  0.0033  0.2107
   61MOL0     H 8191   4.511   7.371   3.337 -0.5691  0.3045 -0.7241
   61MOL0     H 8192   4.547   7.526   3.409  2.4731 -2.5007  1.4177
   61MOL0     H 8193   4.697   7.404   3.173 -0.1420  0.9828  0.3540
   61MOL0     H 8194   4.740   7.396   3.343 -3.1080 -0.8099  2.1176
   61MOL0     H 8195   4.646   7.613   3.000 -0.0322  1.3829  0.6451
   61MOL0     H 8196   4.770   7.684   2.805  0.0160 -1.4608 -0.5840
   61MOL0     H 8197   5.186   7.686   2.562 -1.3391 -1.4789 -0.4395
   61MOL0     H 8198   5.279   7.738   2.379  0.7598  1.3178  2.3067
   61MOL0     H 8199   5.378   7.905   2.194  0.0994 -1.7673  0.6134
   61MOL0     H 8200   5.299   7.801   2.069  5.4680 -1.0372  1.0558
   61MOL0     H 8201   5.210   8.019   1.968 -0.9046  0.1514  1.4680
   61MOL0     H 8202   5.318   8.102   2.082  0.8527  0.5873 -2.9583
   61MOL0     H 8203   5.458   8.082   1.880  1.5815 -0.4487  0.6041
   61MOL0     H 8204   5.502   7.949   1.986 -2.5655  1.9915  3.4915
   61MOL0     H 8205   5.333   7.942   1.740  1.1253 -0.9640 -1.6268
   61MOL0     H 8206   5.322   7.807   1.855 -1.5023  2.4481  0.6029
   61MOL0     H 8207   5.483   7.755   1.688  1.6879  1.6468 -2.7138
   61MOL0     H 8208   5.570   7.774   1.838 -1.2300  0.0327  1.3217
   61MOL0     H 8209   5.556   7.973   1.594 -0.2746 -0.9217 -0.7992
   61MOL0     H 8210   5.645   8.003   1.746  2.9729  0.0572 -1.2118
   61MOL0     H 8211   5.702   7.769   1.542 -1.1714  0.5599 -0.3327
   61MOL0     H 8212   5.788   7.803   1.697  1.3560  2.1572  1.8539
   61MOL0     H 8213   5.736   7.974   1.444 -2.9204 -2.0851  0.6515
   61MOL0     H 8214   5.823   8.040   1.585  1.1487  0.2563 -1.4080
   61MOL0     H 8215   4.973   8.044   2.298  0.7724  1.8421  1.9365
   61MOL0     H 8216   4.860   7.958   2.503  2.1158  0.7394  3.6977
   61MOL0     H 8217   5.118   7.768   3.049 -0.1745  2.8954 -0.9731
   61MOL0     H 8218   4.991   7.675   3.244  0.2175  2.5732 -0.4766
   61MOL0     H 8219   3.524   7.186   2.429 -0.1468  0.1246 -0.5357
   61MOL0     H 8220   3.285   7.106   2.446  0.6572 -0.5387  2.1416
   61MOL0     H 8221   3.055   6.673   2.262 -0.2119  0.1015  0.4002
   61MOL0     H 8222   2.852   6.542   2.221 -4.2030 -0.5969  4.2209
   61MOL0     H 8223   2.641   6.451   2.166 -0.1611 -0.9229 -1.7986
   61MOL0     H 8224   2.721   6.517   2.027 -0.2293  0.5046  0.5588
   61MOL0     H 8225   2.474   6.566   1.940  2.2435 -0.8268 -2.1808
   61MOL0     H 8226   2.429   6.490   2.089  1.0285  0.9960 -0.2470
   61MOL0     H 8227   2.551   6.276   2.003 -0.7865 -2.0630 -0.6884
   61MOL0     H 8228   2.599   6.363   1.861  0.6468  0.5054  1.5475
   61MOL0     H 8229   2.398   6.207   1.841  1.4626 -0.2183 -0.3185
   61MOL0     H 8230   2.308   6.319   1.945  2.2027  0.2539  2.6646
   61MOL0     H 8231   2.302   6.524   1.565  0.8792  0.6618 -0.8220
   61MOL0     H 8232   2.606   6.885   2.235 -1.4919 -1.8282  0.1998
   61MOL0     H 8233   2.681   7.071   2.357 -0.0418  0.1642  0.6360
   61MOL0     H 8234   2.828   7.062   2.439 -0.0550  0.2085  0.3883
   61MOL0     H 8235   2.833   7.121   2.271  0.3443  0.9742  2.0048
   62MOL0     O 8236   4.367   8.047   7.553 -0.1411  0.0954  0.0623
   62MOL0     C 8237   4.251   8.105   7.530 -0.5808 -0.1794  0.2788
   62MOL0     O 8238   4.191   8.105   7.406 -0.5928  0.1324  0.5011
   62MOL0     C 8239   4.244   8.180   7.308 -0.3187 -0.0271  0.7371
   62MOL0     C 8240   4.193   8.166   7.176 -0.0175 -0.0782 -0.6396
   62MOL0     C 8241   4.242   8.240   7.066  0.2442  0.2175 -0.3100
   62MOL0     C 8242   4.355   8.319   7.082  0.3043 -0.3415  0.4915
   62MOL0     O 8243   4.417   8.377   6.984 -1.1761  0.0762 -0.0769
   62MOL0     C 8244   4.364   8.401   6.850 -0.6764 -0.5172  0.3164
   62MOL0     C 8245   4.475   8.406   6.744 -1.0060  0.2934 -0.0160
   62MOL0     C 8246   4.583   8.296   6.740  0.1181  0.0430  0.4199
   62MOL0     C 8247   4.536   8.162   6.677 -0.3163  0.3889  0.3361
   62MOL0     C 8248   4.670   8.090   6.645  0.4585 -0.3626  0.0073
   62MOL0     C 8249   4.659   7.965   6.572  0.5975 -0.2255 -0.9887
   62MOL0     C 8250   4.788   7.895   6.556  0.2317 -1.1467 -0.0845
   62MOL0     C 8251   4.840   7.830   6.686 -0.1546  0.7420  0.0904
   62MOL0     N 8252   4.954   7.747   6.646 -0.7315 -0.0200  0.3525
   62MOL0     C 8253   4.937   7.642   6.550 -0.3699 -0.4853 -0.2350
   62MOL0     C 8254   5.067   7.591   6.556  0.2503 -0.1557  0.0419
   62MOL0     C 8255   5.107   7.465   6.481 -0.5868  0.3365  0.1352
   62MOL0     C 8256   5.254   7.444   6.479 -0.4040 -0.2257 -0.0233
   62MOL0     C 8257   5.315   7.335   6.383 -0.3982 -0.4234  0.0009
   62MOL0     C 8258   5.310   7.356   6.233 -0.3538 -0.5667  0.2197
   62MOL0     O 8259   5.352   7.247   6.152  0.4486 -0.1341 -0.3579
   62MOL0     C 8260   5.493   7.231   6.135  0.2568  0.9199 -0.0059
   62MOL0     C 8261   5.577   7.321   6.067  0.3483 -0.2087 -0.1131
   62MOL0     C 8262   5.720   7.304   6.071 -0.2774  0.1341 -0.2413
   62MOL0     C 8263   5.774   7.179   6.117 -0.3313  0.7393  0.3307
   62MOL0     C 8264   5.916   7.159   6.131 -0.1585  0.5564 -0.1015
   62MOL0     O 8265   5.991   7.265   6.083 -0.0488 -0.0930  0.2997
   62MOL0     C 8266   6.124   7.276   6.118 -0.0542 -0.6187  0.5405
   62MOL0     C 8267   6.179   7.239   6.239  0.5694 -0.3203 -0.6162
   62MOL0     C 8268   6.323   7.250   6.266  0.1807 -0.1882  0.1629
   62MOL0     C 8269   6.407   7.309   6.167  0.3924 -0.1008  0.7124
   62MOL0     O 8270   6.543   7.335   6.181 -0.5925  0.3517  0.2888
   62MOL0     C 8271   6.591   7.337   6.315  0.4033  0.1849  0.0560
   62MOL0     C 8272   6.734   7.371   6.331  0.5064 -0.0183  0.3255
   62MOL0     C 8273   6.816   7.239   6.285 -0.2639  0.1353 -0.0465
   62MOL0     C 8274   6.965   7.242   6.288  0.7473 -0.1613  0.7824
   62MOL0     C 8275   7.012   7.299   6.156 -0.1985 -0.4082  0.0030
   62MOL0     C 8276   7.152   7.249   6.112 -0.4372  0.2085  0.2515
   62MOL0     C 8277   7.218   7.342   6.015  0.1753  0.8559  0.8002
   62MOL0     C 8278   7.230   7.275   5.879  0.7233  0.2672  0.6863
   62MOL0    Cl 8279   7.083   7.303   5.789  0.1470  0.0531  0.5217
   62MOL0     C 8280   6.348   7.339   6.046 -1.0669 -0.5493 -0.0928
   62MOL0     C 8281   6.210   7.337   6.023  0.1887  0.9057 -0.0027
   62MOL0     O 8282   5.962   7.055   6.185 -0.1176 -0.9089 -0.7757
   62MOL0     C 8283   5.678   7.084   6.167  0.1244  0.3586  0.2162
   62MOL0     C 8284   5.545   7.116   6.169 -0.8178 -0.3679 -0.1801
   62MOL0     N 8285   5.145   7.654   6.645 -0.5804  0.1222  0.2098
   62MOL0     N 8286   5.076   7.744   6.708 -0.3758  0.4304 -0.0312
   62MOL0     C 8287   4.404   8.338   7.216  0.3518  0.3120 -0.2298
   62MOL0     C 8288   4.350   8.268   7.325 -0.0140  0.2165 -0.5156
   62MOL0     C 8289   4.186   8.171   7.640  0.7568  0.0542  0.5332
   62MOL0     C 8290   4.049   8.210   7.616 -0.2741 -0.0033 -0.2018
   62MOL0     C 8291   3.979   8.286   7.708  0.8159 -0.0433 -0.5644
   62MOL0     C 8292   4.038   8.318   7.832  0.1555  0.4014  0.7778
   62MOL0     O 8293   3.972   8.376   7.929 -0.0361 -0.2135 -0.3025
   62MOL0     C 8294   3.972   8.307   8.056  0.0441 -0.9875 -0.5144
   62MOL0     C 8295   3.855   8.216   8.057  0.0427  0.1069 -0.9159
   62MOL0     C 8296   3.715   8.289   8.067 -0.5349  0.1636 -0.5919
   62MOL0     C 8297   3.703   8.369   8.194  0.3965  0.1492  0.5982
   62MOL0     C 8298   3.564   8.394   8.221  0.3923  0.3444 -0.2679
   62MOL0     C 8299   3.453   8.425   8.251 -0.1936 -0.0723  0.1485
   62MOL0     C 8300   4.176   8.294   7.846 -0.7812 -0.0927 -0.7310
   62MOL0     C 8301   4.250   8.227   7.753  0.3537  0.0170  0.0860
   62MOL0     C 8302   4.394   8.205   7.778  0.2512 -0.2919  0.4238
   62MOL0     H 8303   4.103   8.106   7.165 -0.4910  0.8588 -2.2910
   62MOL0     H 8304   4.198   8.220   6.969 -0.4404  1.9020 -0.3821
   62MOL0     H 8305   4.310   8.314   6.813  0.9291 -0.6300 -1.9505
   62MOL0     H 8306   4.313   8.498   6.849  3.2005  1.7445 -1.3635
   62MOL0     H 8307   4.528   8.501   6.749  2.8516 -1.4884 -2.2442
   62MOL0     H 8308   4.421   8.411   6.649 -2.8930 -0.1782  1.0013
   62MOL0     H 8309   4.620   8.269   6.839  0.0027  1.8183  0.9877
   62MOL0     H 8310   4.669   8.338   6.687  0.5922 -1.9285 -0.4348
   62MOL0     H 8311   4.482   8.092   6.741 -0.0607 -0.2709 -0.1552
   62MOL0     H 8312   4.479   8.182   6.586  1.5537 -0.5372 -1.1168
   62MOL0     H 8313   4.737   8.155   6.588  0.1270 -0.7817 -0.8877
   62MOL0     H 8314   4.723   8.070   6.739 -0.3235  0.3421  0.6065
   62MOL0     H 8315   4.581   7.901   6.614  1.8236 -1.4375 -0.5299
   62MOL0     H 8316   4.626   7.985   6.469  0.4789  0.9872 -0.7362
   62MOL0     H 8317   4.870   7.961   6.526  0.8870 -0.6709  2.5234
   62MOL0     H 8318   4.775   7.824   6.474 -2.7635 -0.5636 -0.2085
   62MOL0     H 8319   4.873   7.910   6.753 -0.5275  0.8496  0.1480
   62MOL0     H 8320   4.763   7.760   6.719  0.2786 -1.1843 -2.5817
   62MOL0     H 8321   4.856   7.600   6.491  1.4117 -1.0215 -2.4266
   62MOL0     H 8322   5.050   7.383   6.524 -0.7553  1.7604  2.8165
   62MOL0     H 8323   5.077   7.472   6.376  2.0661 -3.0179 -1.0165
   62MOL0     H 8324   5.304   7.539   6.455 -1.4305  1.0567  2.4390
   62MOL0     H 8325   5.283   7.428   6.583 -0.2420  1.0406  0.1515
   62MOL0     H 8326   5.273   7.235   6.395  0.4603 -0.9980 -1.5403
   62MOL0     H 8327   5.422   7.326   6.404 -0.3203  1.0587  0.3818
   62MOL0     H 8328   5.379   7.440   6.219  1.3192 -1.7227  1.3239
   62MOL0     H 8329   5.213   7.401   6.207 -0.1904  1.0154  2.0961
   62MOL0     H 8330   5.524   7.402   6.017  0.8948 -0.1752 -0.6481
   62MOL0     H 8331   5.780   7.385   6.033  0.7247  1.0387  2.9424
   62MOL0     H 8332   6.106   7.210   6.314 -0.0929  0.5871 -0.8866
   62MOL0     H 8333   6.359   7.231   6.366  0.2316 -1.5239 -0.0851
   62MOL0     H 8334   6.535   7.415   6.368 -0.9482 -0.3426 -0.5639
   62MOL0     H 8335   6.584   7.242   6.369 -2.0783 -0.3390 -1.0907
   62MOL0     H 8336   6.759   7.456   6.266  0.5559  0.9374  1.5447
   62MOL0     H 8337   6.762   7.410   6.429 -0.0505 -0.2643  0.5852
   62MOL0     H 8338   6.788   7.153   6.347  3.0001 -0.5796  0.6361
   62MOL0     H 8339   6.781   7.210   6.186 -1.5541 -0.5229  0.5635
   62MOL0     H 8340   7.004   7.140   6.295 -0.2247 -0.7967 -1.8982
   62MOL0     H 8341   7.001   7.304   6.371  4.0881 -1.8745  0.7966
   62MOL0     H 8342   7.003   7.408   6.165  0.4062 -0.3081 -0.5169
   62MOL0     H 8343   6.945   7.274   6.074  0.2116 -1.5136 -0.0041
   62MOL0     H 8344   7.218   7.245   6.199 -0.3438 -1.1846  0.1389
   62MOL0     H 8345   7.130   7.148   6.074  0.7588  0.1385 -0.2827
   62MOL0     H 8346   7.317   7.363   6.055  0.1081  1.8759  0.4501
   62MOL0     H 8347   7.175   7.439   5.987  3.3743  1.4838 -2.7415
   62MOL0     H 8348   7.323   7.306   5.832  0.5689  3.2663  2.1060
   62MOL0     H 8349   7.237   7.168   5.897  1.2226  0.1633 -0.0958
   62MOL0     H 8350   6.414   7.385   5.974 -1.4562  2.1184  1.1513
   62MOL0     H 8351   6.168   7.366   5.927  1.0039  3.7135  0.4222
   62MOL0     H 8352   5.712   6.991   6.211 -1.7532  1.4315  4.4514
   62MOL0     H 8353   5.480   7.033   6.198  0.7036 -1.3669  0.4693
   62MOL0     H 8354   4.487   8.405   7.235  1.5741 -1.4634  0.9969
   62MOL0     H 8355   4.386   8.297   7.423 -0.5437  1.2430 -0.6110
   62MOL0     H 8356   4.000   8.187   7.522 -1.8738  0.6445  0.4318
   62MOL0     H 8357   3.874   8.307   7.690  1.1062  2.6985  0.4747
   62MOL0     H 8358   3.950   8.384   8.130  1.8924  0.7497 -1.6879
   62MOL0     H 8359   4.067   8.257   8.078  1.1060  0.7595 -1.0036
   62MOL0     H 8360   3.861   8.161   8.151 -2.1163  1.1501 -0.0923
   62MOL0     H 8361   3.859   8.143   7.977  2.1014 -0.4738 -0.3601
   62MOL0     H 8362   3.631   8.219   8.070 -0.9299  0.6661  0.1929
   62MOL0     H 8363   3.688   8.357   7.986 -0.6900 -0.2051 -0.8540
   62MOL0     H 8364   3.721   8.302   8.279 -3.6583 -0.7202  0.9906
   62MOL0     H 8365   3.769   8.455   8.206  1.8065 -0.8605  0.3290
   62MOL0     H 8366   3.353   8.461   8.264  0.3314  1.9440 -0.9997
   62MOL0     H 8367   4.226   8.325   7.937 -1.1912 -1.2382 -0.0929
   62MOL0     H 8368   4.427   8.247   7.873  4.4785 -1.5435 -0.2823
   62MOL0     H 8369   4.424   8.100   7.773 -1.2834 -0.8121  1.5550
   62MOL0     H 8370   4.446   8.260   7.699  1.0499  2.0236  2.4262
   63MOL0     O 8371   8.837   7.220   9.730 -0.5407 -0.0574 -0.5033
   63MOL0     C 8372   8.764   7.136   9.769 -0.4942  0.2236 -0.3359
   63MOL0     O 8373   8.758   7.089   9.895  0.1642 -0.0407  0.4723
   63MOL0     C 8374   8.856   7.109   9.993 -0.5193 -0.3257  0.1842
   63MOL0     C 8375   8.812   7.050  10.117 -0.6504 -0.0505  0.8272
   63MOL0     C 8376   8.893   7.052  10.233  0.4892 -0.0853 -0.8600
   63MOL0     C 8377   9.029   7.100  10.220 -0.3571 -0.5025 -0.1975
   63MOL0     O 8378   9.113   7.130  10.321 -0.2142  0.7990 -1.0887
   63MOL0     C 8379   9.060   7.182  10.446 -0.0351  0.5774  0.8386
   63MOL0     C 8380   9.130   7.318  10.465 -0.0104  0.6471 -0.0975
   63MOL0     C 8381   9.274   7.304  10.496 -0.6905  0.0173 -0.2502
   63MOL0     C 8382   9.368   7.404  10.425  0.4735 -0.5024 -0.5488
   63MOL0     C 8383   9.502   7.408  10.487  0.2336 -0.4401  0.2500
   63MOL0     C 8384   9.587   7.295  10.425 -1.4636 -0.4915 -0.4713
   63MOL0     C 8385   9.744   7.311  10.458  0.2008 -0.4838 -0.3228
   63MOL0     C 8386   9.795   7.304  10.606  0.0820 -0.1969  0.2887
   63MOL0     N 8387   9.931   7.260  10.625 -0.7033 -1.3773 -0.3759
   63MOL0     C 8388   9.984   7.141  10.591  0.3119 -0.1592  0.3750
   63MOL0     C 8389  10.118   7.155  10.599 -0.0815  0.1782 -0.1929
   63MOL0     C 8390  10.224   7.067  10.528  0.0981 -0.6317  0.5014
   63MOL0     C 8391  10.275   6.957  10.614  0.2831  0.7539 -0.5179
   63MOL0     C 8392  10.388   6.858  10.564  0.0073  0.2787  0.2055
   63MOL0     C 8393  10.527   6.926  10.553  0.0456  0.3487  0.1760
   63MOL0     O 8394  10.615   6.857  10.464  0.4290 -0.2764  0.3461
   63MOL0     C 8395  10.739   6.906  10.442  0.1401  0.1881  0.2761
   63MOL0     C 8396  10.761   7.028  10.377 -1.2749 -0.4150  0.0712
   63MOL0     C 8397  10.891   7.083  10.365  0.4623  0.8230  0.0295
   63MOL0     C 8398  11.002   7.011  10.429  0.4502  0.6868 -0.1612
   63MOL0     C 8399  11.146   7.057  10.423  0.5830  0.6598 -0.3529
   63MOL0     O 8400  11.180   7.128  10.315  0.0505  0.8200  0.5570
   63MOL0     C 8401  11.319   7.157  10.294 -0.2155 -0.2634  0.3537
   63MOL0     C 8402  11.413   7.061  10.258 -0.3007 -0.2435  0.0123
   63MOL0     C 8403  11.553   7.099  10.239  0.2520  0.2080  0.0613
   63MOL0     C 8404  11.601   7.228  10.277  0.7009  0.4957  0.9296
   63MOL0     O 8405  11.731   7.271  10.279 -0.2273  0.3157  0.1582
   63MOL0     C 8406  11.834   7.194  10.214 -0.6576 -0.8465  0.1381
   63MOL0     C 8407  11.933   7.296  10.159 -0.4552 -0.6112 -0.0699
   63MOL0     C 8408  12.081   7.241  10.136 -0.6453 -0.8605  0.2734
   63MOL0     C 8409  12.084   7.109  10.066 -0.4543 -0.4264 -0.8443
   63MOL0     C 8410  12.217   7.097   9.983 -0.0443 -0.5412  0.2859
   63MOL0     C 8411  12.239   6.953   9.942 -0.3775 -0.2708  0.5354
   63MOL0     C 8412  12.381   6.927   9.893 -0.9983 -0.1410  0.4393
   63MOL0     C 8413  12.386   6.962   9.743 -0.5773  0.4866  0.5081
   63MOL0    Cl 8414  12.556   6.909   9.705  0.0035  0.1002 -0.3893
   63MOL0     C 8415  11.498   7.317  10.316  0.2674 -0.0408 -0.5272
   63MOL0     C 8416  11.363   7.284  10.325  0.4466 -0.2129  0.0529
   63MOL0     O 8417  11.222   7.023  10.515 -0.0454 -0.3583 -0.1497
   63MOL0     C 8418  10.974   6.891  10.500 -0.0010 -0.1903 -0.8218
   63MOL0     C 8419  10.843   6.839  10.496 -0.4411 -0.3075  0.1286
   63MOL0     N 8420  10.138   7.281  10.653  0.4699 -0.2296  0.5652
   63MOL0     N 8421  10.026   7.344  10.661 -1.0262  0.4470 -0.6887
   63MOL0     C 8422   9.066   7.159  10.092  0.3112  0.5580  0.6205
   63MOL0     C 8423   8.987   7.162   9.982  0.6835 -0.7333 -0.3101
   63MOL0     C 8424   8.655   7.093   9.682  0.3418  0.1530 -0.6321
   63MOL0     C 8425   8.527   7.064   9.739 -0.1096 -0.0256  0.2287
   63MOL0     C 8426   8.429   7.007   9.663  0.3058  0.3145  0.7468
   63MOL0     C 8427   8.448   6.981   9.521 -0.2168 -0.0738 -0.6596
   63MOL0     O 8428   8.343   6.934   9.442  0.3852 -0.2255 -0.1312
   63MOL0     C 8429   8.357   6.912   9.296 -0.1240 -0.4666 -0.0468
   63MOL0     C 8430   8.220   6.901   9.229  0.8158 -0.2927  0.1134
   63MOL0     C 8431   8.118   6.801   9.300  1.1253  0.8197  0.5631
   63MOL0     C 8432   8.013   6.753   9.198  0.0957 -0.8341 -0.3750
   63MOL0     C 8433   7.930   6.873   9.150  0.7215  0.3420 -0.6393
   63MOL0     C 8434   7.858   6.965   9.117  0.6267 -0.3708  0.1864
   63MOL0     C 8435   8.574   6.990   9.472 -0.0682  0.0646 -0.2202
   63MOL0     C 8436   8.676   7.050   9.546  1.2743 -0.0465 -0.7719
   63MOL0     C 8437   8.805   7.056   9.485 -1.5199 -0.3992  0.3291
   63MOL0     H 8438   8.710   7.012  10.115 -0.1996 -1.2959 -0.4082
   63MOL0     H 8439   8.859   7.019  10.330 -1.7318  1.7044 -0.9511
   63MOL0     H 8440   8.954   7.207  10.441 -0.0224  0.3840 -0.8815
   63MOL0     H 8441   9.083   7.117  10.531  2.3467  0.2539  0.0324
   63MOL0     H 8442   9.098   7.372  10.555  2.2236 -1.7544  2.3234
   63MOL0     H 8443   9.119   7.387  10.381 -0.2313  0.1628 -0.4661
   63MOL0     H 8444   9.315   7.203  10.482  1.1152  0.9918 -2.7062
   63MOL0     H 8445   9.284   7.323  10.603 -1.2013  1.6162 -0.4667
   63MOL0     H 8446   9.361   7.381  10.318 -1.0207  2.3794 -1.1626
   63MOL0     H 8447   9.315   7.498  10.439 -2.7206 -2.1730 -0.5017
   63MOL0     H 8448   9.559   7.498  10.462  0.7298 -1.2514 -1.7598
   63MOL0     H 8449   9.490   7.391  10.594  2.7603 -1.6387  0.4273
   63MOL0     H 8450   9.546   7.205  10.471  0.0980  0.1427  2.4192
   63MOL0     H 8451   9.574   7.291  10.317 -1.0839  2.5223 -0.7173
   63MOL0     H 8452   9.784   7.401  10.410 -0.5014 -1.9367 -4.0005
   63MOL0     H 8453   9.787   7.230  10.399  1.4134  0.4512 -0.7676
   63MOL0     H 8454   9.785   7.401  10.655 -1.1838 -0.5638  0.8069
   63MOL0     H 8455   9.743   7.224  10.661  0.9854 -1.8398 -1.1465
   63MOL0     H 8456   9.926   7.063  10.542  1.1680  0.7778 -2.2861
   63MOL0     H 8457  10.191   7.034  10.429  0.5530  2.8393 -0.9799
   63MOL0     H 8458  10.306   7.133  10.499  0.9054 -0.6761  2.4966
   63MOL0     H 8459  10.306   7.001  10.709 -1.0676 -0.2282  0.4183
   63MOL0     H 8460  10.196   6.886  10.641 -1.6947  2.7975 -0.6846
   63MOL0     H 8461  10.358   6.817  10.468  0.3907  0.1980  0.1178
   63MOL0     H 8462  10.408   6.779  10.637  2.0980 -0.5705 -1.1819
   63MOL0     H 8463  10.568   6.933  10.654  3.1819  0.1983 -0.9949
   63MOL0     H 8464  10.511   7.026  10.511 -1.0495 -0.1714 -0.7094
   63MOL0     H 8465  10.668   7.066  10.335 -2.6607 -1.9710  1.5867
   63MOL0     H 8466  10.900   7.177  10.312  3.1383  1.2270  1.0693
   63MOL0     H 8467  11.396   6.957  10.235  2.2966 -1.2092  1.9833
   63MOL0     H 8468  11.626   7.021  10.218 -0.0048  0.1496 -0.6293
   63MOL0     H 8469  11.882   7.124  10.282 -0.3404 -0.7956 -0.0288
   63MOL0     H 8470  11.806   7.139  10.124  2.5354  2.1428 -3.0028
   63MOL0     H 8471  11.896   7.343  10.067  0.0735 -0.9669 -0.4687
   63MOL0     H 8472  11.935   7.372  10.238 -0.8733 -1.5920  0.9007
   63MOL0     H 8473  12.132   7.314  10.074 -1.0283 -1.1673 -0.4171
   63MOL0     H 8474  12.124   7.226  10.235 -0.1422 -2.7590 -0.1885
   63MOL0     H 8475  12.004   7.105   9.991 -2.2134  2.3009  0.7310
   63MOL0     H 8476  12.074   7.027  10.138  0.7730  1.1331  1.1916
   63MOL0     H 8477  12.304   7.129  10.041 -0.4795  0.2580  0.5196
   63MOL0     H 8478  12.201   7.151   9.890 -2.6048 -2.0297 -0.2398
   63MOL0     H 8479  12.221   6.897  10.035  3.7993 -1.0575  1.0943
   63MOL0     H 8480  12.177   6.917   9.860  3.9525 -0.4591 -3.0639
   63MOL0     H 8481  12.397   6.819   9.906 -2.2640 -0.0690  3.2426
   63MOL0     H 8482  12.455   6.980   9.952 -2.1111  2.3156 -0.2448
   63MOL0     H 8483  12.331   6.894   9.677 -2.2047  0.9132  1.3671
   63MOL0     H 8484  12.380   7.068   9.717  6.7929  0.9145 -1.6961
   63MOL0     H 8485  11.528   7.415  10.353  1.1096 -1.9274  4.7019
   63MOL0     H 8486  11.306   7.375  10.337  1.5375  0.5401 -0.3149
   63MOL0     H 8487  11.050   6.833  10.554  0.1588 -1.1651 -2.0435
   63MOL0     H 8488  10.834   6.742  10.543  0.2635 -1.1542 -1.4202
   63MOL0     H 8489   9.166   7.199  10.080  1.4019 -2.0470  0.2604
   63MOL0     H 8490   9.024   7.210   9.892  1.0607  0.9780  0.7131
   63MOL0     H 8491   8.511   7.093   9.843  0.2289  2.6275 -0.3859
   63MOL0     H 8492   8.331   6.984   9.704  0.1811 -0.9334 -0.1793
   63MOL0     H 8493   8.428   6.831   9.277  1.3521 -0.0186  2.8688
   63MOL0     H 8494   8.409   6.999   9.254  1.5224 -2.2888 -2.0117
   63MOL0     H 8495   8.235   6.874   9.124  1.3154 -0.0277  0.1148
   63MOL0     H 8496   8.172   6.999   9.226  1.6978  0.3579  3.6299
   63MOL0     H 8497   8.067   6.842   9.387  3.4827  0.7788  2.0467
   63MOL0     H 8498   8.170   6.708   9.327  1.9220  1.0632 -0.0782
   63MOL0     H 8499   8.077   6.708   9.122  1.5604  0.1745  0.2309
   63MOL0     H 8500   7.950   6.672   9.237  1.4569 -2.2517 -1.0158
   63MOL0     H 8501   7.810   7.060   9.104  0.8175 -0.2926  0.0307
   63MOL0     H 8502   8.594   6.974   9.366  2.0424 -0.3254  0.1778
   63MOL0     H 8503   8.831   7.159   9.458 -1.5643 -1.0393 -2.5602
   63MOL0     H 8504   8.872   7.003   9.552  0.0978  0.9141 -0.1777
   63MOL0     H 8505   8.819   6.994   9.396  1.2783 -2.2587  1.9045
   64MOL0     O 8506   5.981   1.732  10.211 -0.0798  0.3551 -0.0022
   64MOL0     C 8507   5.962   1.813  10.299  0.0790  0.0014 -0.1474
   64MOL0     O 8508   6.059   1.901  10.343 -1.1449 -0.2948  0.6262
   64MOL0     C 8509   6.185   1.903  10.273  0.6372  0.2688  0.3871
   64MOL0     C 8510   6.300   1.883  10.337 -0.6559  0.0362  0.6012
   64MOL0     C 8511   6.424   1.897  10.270  0.2872 -0.3961 -0.0614
   64MOL0     C 8512   6.426   1.927  10.135  0.3961 -0.0231  0.1155
   64MOL0     O 8513   6.550   1.925  10.083 -0.0541 -0.4009  0.0400
   64MOL0     C 8514   6.571   2.006   9.963  0.2847  0.1344  0.0212
   64MOL0     C 8515   6.714   2.033   9.939 -0.2905  0.6059 -0.4288
   64MOL0     C 8516   6.786   1.898   9.908  0.0109 -1.0581 -0.0612
   64MOL0     C 8517   6.937   1.917   9.939 -0.1737  0.1609  0.5937
   64MOL0     C 8518   7.033   1.841   9.852 -0.1658  0.8795  0.0061
   64MOL0     C 8519   7.016   1.688   9.849  0.5221  0.0179 -0.0585
   64MOL0     C 8520   7.132   1.618   9.786  0.1763 -1.0297 -0.1923
   64MOL0     C 8521   7.137   1.643   9.634 -0.1185  0.5171 -0.0473
   64MOL0     N 8522   7.035   1.588   9.550  0.8448 -0.9038 -0.3143
   64MOL0     C 8523   6.996   1.453   9.539 -0.1414  0.2077  0.4976
   64MOL0     C 8524   6.888   1.450   9.456 -0.8772  0.3349  0.1539
   64MOL0     C 8525   6.819   1.332   9.390  0.6282  1.0747 -0.4566
   64MOL0     C 8526   6.862   1.190   9.427 -0.2663  0.0867 -0.5590
   64MOL0     C 8527   6.799   1.098   9.315  0.5868  0.6078  0.3466
   64MOL0     C 8528   6.875   1.090   9.181  0.4828  0.3062 -1.1522
   64MOL0     O 8529   6.985   1.002   9.200 -0.1149 -0.4741  0.0416
   64MOL0     C 8530   7.080   1.015   9.101  0.8987 -0.2262 -0.1673
   64MOL0     C 8531   7.079   1.088   8.983  0.1547  0.4992  0.4457
   64MOL0     C 8532   7.186   1.079   8.893 -0.1424 -0.1957 -0.3132
   64MOL0     C 8533   7.309   1.013   8.937  0.2821 -0.5500 -0.5389
   64MOL0     C 8534   7.419   1.017   8.844 -1.0642 -0.2967  0.0111
   64MOL0     O 8535   7.393   1.075   8.716  0.2125 -0.0141 -0.9880
   64MOL0     C 8536   7.486   1.038   8.618 -0.4075 -0.6493 -0.2253
   64MOL0     C 8537   7.495   0.909   8.566 -0.5418 -0.5761  0.6710
   64MOL0     C 8538   7.578   0.883   8.457  0.3337 -0.6379 -0.3512
   64MOL0     C 8539   7.668   0.982   8.414 -0.2730  0.2995  0.5692
   64MOL0     O 8540   7.765   0.961   8.323 -0.3986  0.1393  0.8832
   64MOL0     C 8541   7.806   0.833   8.273  0.6878 -0.0267 -0.0950
   64MOL0     C 8542   7.942   0.844   8.219  0.1423 -0.4133 -0.2942
   64MOL0     C 8543   8.045   0.794   8.315  0.4087 -0.2935  0.6840
   64MOL0     C 8544   8.179   0.804   8.252  0.4962 -0.3359 -0.4109
   64MOL0     C 8545   8.285   0.735   8.341 -0.1016 -0.0495 -0.9338
   64MOL0     C 8546   8.416   0.703   8.271  0.0351 -0.0350 -0.4770
   64MOL0     C 8547   8.522   0.650   8.373  1.0847  0.5249  0.3089
   64MOL0     C 8548   8.647   0.612   8.297  0.1666  0.2693  0.8989
   64MOL0    Cl 8549   8.737   0.745   8.230 -0.2311 -0.2209 -0.1478
   64MOL0     C 8550   7.658   1.108   8.464 -0.1723 -0.2125  0.4038
   64MOL0     C 8551   7.565   1.138   8.563  0.3713 -0.5824 -0.0229
   64MOL0     O 8552   7.529   0.979   8.878 -0.3917 -0.0180  0.5601
   64MOL0     C 8553   7.313   0.965   9.067 -0.6694 -0.6838  0.7848
   64MOL0     C 8554   7.196   0.951   9.139  0.0505  0.1540 -0.8462
   64MOL0     N 8555   6.852   1.577   9.433 -0.4907 -0.0085  0.2261
   64MOL0     N 8556   6.938   1.660   9.479  0.5810 -0.4541 -0.0371
   64MOL0     C 8557   6.308   1.967  10.075  0.0399 -0.0446  0.0551
   64MOL0     C 8558   6.186   1.954  10.141 -0.8767  0.2770 -0.2538
   64MOL0     C 8559   5.823   1.807  10.367  0.2715 -0.4725 -0.0080
   64MOL0     C 8560   5.806   1.901  10.469  0.2370 -0.1687 -0.3038
   64MOL0     C 8561   5.691   1.912  10.546 -0.3252 -0.0560  0.7107
   64MOL0     C 8562   5.578   1.845  10.503  1.0101 -0.2165  0.0790
   64MOL0     O 8563   5.469   1.863  10.580  0.2281  0.6038 -0.3361
   64MOL0     C 8564   5.346   1.808  10.541 -0.5764 -0.0033  0.2423
   64MOL0     C 8565   5.250   1.866  10.649 -0.4359  0.7023 -0.6991
   64MOL0     C 8566   5.123   1.783  10.670 -0.0608 -0.3406 -0.7524
   64MOL0     C 8567   5.034   1.868  10.763 -0.1610  0.4438 -0.1149
   64MOL0     C 8568   4.973   1.981  10.688  0.0140  0.7326 -0.2192
   64MOL0     C 8569   4.924   2.076  10.635  0.6734 -0.3809 -0.2249
   64MOL0     C 8570   5.583   1.758  10.394  0.0452  0.1280 -0.4255
   64MOL0     C 8571   5.706   1.735  10.325  0.2948  0.0639 -0.6660
   64MOL0     C 8572   5.694   1.651  10.204 -1.1214  0.3059 -0.0445
   64MOL0     H 8573   6.300   1.880  10.446 -1.7110  0.1259  0.6152
   64MOL0     H 8574   6.512   1.877  10.330  0.8059 -1.8162 -1.2463
   64MOL0     H 8575   6.536   1.961   9.869  2.3782  0.3242 -0.9086
   64MOL0     H 8576   6.521   2.103   9.969  2.8064  1.4037  2.2991
   64MOL0     H 8577   6.753   2.074  10.033  2.5579  0.4226 -1.4357
   64MOL0     H 8578   6.731   2.108   9.861  0.0157 -1.2537 -2.2105
   64MOL0     H 8579   6.765   1.861   9.807 -4.9593 -0.5618  0.5337
   64MOL0     H 8580   6.746   1.817   9.970  1.1715 -2.3042 -0.8816
   64MOL0     H 8581   6.964   2.021   9.914  1.5910 -0.8867 -2.3579
   64MOL0     H 8582   6.965   1.886  10.040  0.0573 -2.3080 -0.1720
   64MOL0     H 8583   7.027   1.890   9.754 -1.7632  3.0784  1.1383
   64MOL0     H 8584   7.131   1.868   9.892 -0.7334  1.6292  0.9191
   64MOL0     H 8585   6.996   1.644   9.948 -0.4224 -2.3670 -1.2301
   64MOL0     H 8586   6.928   1.660   9.790  0.0486  0.4757  0.4147
   64MOL0     H 8587   7.138   1.514   9.819  1.3212 -0.6741  0.7830
   64MOL0     H 8588   7.218   1.664   9.835 -2.1854 -0.7440  4.2258
   64MOL0     H 8589   7.140   1.752   9.630  0.4003  0.4552 -2.1469
   64MOL0     H 8590   7.230   1.593   9.606 -1.0863 -0.4941 -1.5742
   64MOL0     H 8591   7.057   1.370   9.573  1.9543  0.7385 -1.6742
   64MOL0     H 8592   6.713   1.331   9.419  0.2535 -1.9007 -1.5902
   64MOL0     H 8593   6.836   1.345   9.283  3.0884 -0.0613 -0.2643
   64MOL0     H 8594   6.968   1.167   9.413 -0.1571 -1.7771  2.4315
   64MOL0     H 8595   6.832   1.165   9.529  2.1884  4.7232  1.6184
   64MOL0     H 8596   6.694   1.119   9.295  0.9095 -0.2214 -2.6353
   64MOL0     H 8597   6.795   0.998   9.359 -0.9204  1.1194  1.4495
   64MOL0     H 8598   6.903   1.190   9.146  1.7158 -0.1457 -1.4977
   64MOL0     H 8599   6.806   1.050   9.106 -1.9052  0.8100  0.6412
   64MOL0     H 8600   6.986   1.137   8.956 -0.2352  0.2113  1.2359
   64MOL0     H 8601   7.171   1.128   8.798  0.0953  4.9149  1.9757
   64MOL0     H 8602   7.432   0.828   8.602  1.8968 -1.5746  2.9756
   64MOL0     H 8603   7.581   0.785   8.410 -0.0223  0.3330 -2.5057
   64MOL0     H 8604   7.801   0.757   8.352 -1.6685 -0.0162 -0.1663
   64MOL0     H 8605   7.738   0.800   8.194  3.1323 -1.6100 -1.6509
   64MOL0     H 8606   7.956   0.792   8.124 -2.8871 -2.2886  0.1309
   64MOL0     H 8607   7.964   0.946   8.187 -2.6181 -0.6275 -3.4967
   64MOL0     H 8608   8.044   0.856   8.405 -0.9693  2.5804 -1.1487
   64MOL0     H 8609   8.036   0.690   8.347 -2.5685 -0.0137  1.0333
   64MOL0     H 8610   8.202   0.910   8.239  1.0664 -0.6223 -1.9610
   64MOL0     H 8611   8.171   0.749   8.158 -0.0989 -3.0469  1.1067
   64MOL0     H 8612   8.244   0.637   8.369  3.4357 -1.8290 -1.4808
   64MOL0     H 8613   8.304   0.780   8.439  0.3295  0.2184 -1.1400
   64MOL0     H 8614   8.409   0.633   8.188 -0.8815  0.4492 -0.8214
   64MOL0     H 8615   8.449   0.797   8.226 -0.2533 -0.2399 -1.1156
   64MOL0     H 8616   8.483   0.565   8.430 -1.1044  2.1857  1.4385
   64MOL0     H 8617   8.551   0.724   8.447 -2.1053 -0.1474  2.4281
   64MOL0     H 8618   8.717   0.552   8.355  2.4376 -0.4562 -2.3261
   64MOL0     H 8619   8.623   0.550   8.210  2.0885  0.7721 -0.0548
   64MOL0     H 8620   7.716   1.181   8.410 -3.6580  3.6052  1.3457
   64MOL0     H 8621   7.559   1.237   8.606  2.8682 -0.4147  0.1124
   64MOL0     H 8622   7.402   0.935   9.120 -0.7122 -2.0118  0.1397
   64MOL0     H 8623   7.196   0.897   9.232  0.7850  0.6786 -0.5320
   64MOL0     H 8624   6.311   1.989   9.969 -1.6245 -3.2655 -0.7890
   64MOL0     H 8625   6.091   1.985  10.099 -0.8296 -0.4139 -0.8866
   64MOL0     H 8626   5.893   1.959  10.496 -0.2514  0.3785  0.0989
   64MOL0     H 8627   5.712   1.957  10.642  2.7011 -1.2484  0.7120
   64MOL0     H 8628   5.338   1.700  10.550  0.6865 -0.4093 -2.5324
   64MOL0     H 8629   5.313   1.841  10.442 -1.0860 -0.9001  0.1024
   64MOL0     H 8630   5.239   1.973  10.631 -0.5709  0.3502 -3.0343
   64MOL0     H 8631   5.296   1.865  10.749 -1.0256 -2.9217 -0.3158
   64MOL0     H 8632   5.155   1.695  10.726  2.0598  1.1392  0.5159
   64MOL0     H 8633   5.076   1.751  10.577 -0.6451 -0.1279 -0.5318
   64MOL0     H 8634   4.961   1.812  10.822  1.2522  0.6044  1.9117
   64MOL0     H 8635   5.092   1.917  10.843 -1.7090  2.0663  0.0638
   64MOL0     H 8636   4.876   2.159  10.586  2.4441  0.0605 -1.3062
   64MOL0     H 8637   5.493   1.708  10.360 -0.6489  0.5218  0.7677
   64MOL0     H 8638   5.612   1.669  10.133  1.3460 -0.0925 -3.2198
   64MOL0     H 8639   5.783   1.674  10.144 -1.1477  0.4565 -0.0264
   64MOL0     H 8640   5.698   1.548  10.239 -0.7619  0.8068  1.4603
   65MOL0     O 8641   9.770   2.588   5.091 -0.0519 -0.0301  0.2537
   65MOL0     C 8642   9.689   2.620   5.176  0.1061 -0.2125 -1.1769
   65MOL0     O 8643   9.721   2.661   5.308  0.4506 -0.0222 -0.7332
   65MOL0     C 8644   9.857   2.688   5.334  1.0185 -0.2018 -0.0632
   65MOL0     C 8645   9.936   2.768   5.256 -0.1671  0.0021 -0.1355
   65MOL0     C 8646  10.064   2.805   5.300 -0.1621 -0.3150  0.7749
   65MOL0     C 8647  10.122   2.758   5.417  1.3733  0.2022  0.2286
   65MOL0     O 8648  10.245   2.802   5.446 -0.1560  0.1109 -0.7901
   65MOL0     C 8649  10.346   2.719   5.525  0.2970 -1.0657 -0.2031
   65MOL0     C 8650  10.477   2.741   5.465  0.4078  0.2545  0.0698
   65MOL0     C 8651  10.575   2.655   5.538 -0.7206 -0.1359  0.7800
   65MOL0     C 8652  10.722   2.689   5.483 -0.5060  0.2508 -0.1207
   65MOL0     C 8653  10.829   2.617   5.566 -0.0448  0.0951 -0.1068
   65MOL0     C 8654  10.970   2.652   5.523 -0.0297 -0.4116 -0.0748
   65MOL0     C 8655  11.019   2.793   5.570  1.2358 -0.2242 -0.0724
   65MOL0     C 8656  11.152   2.827   5.508 -0.3756 -0.2899 -0.7411
   65MOL0     N 8657  11.265   2.786   5.593 -0.3688  0.8193 -0.7572
   65MOL0     C 8658  11.330   2.850   5.691 -0.4211 -0.8604  0.4007
   65MOL0     C 8659  11.437   2.780   5.722  0.4357  0.1480  1.3858
   65MOL0     C 8660  11.543   2.826   5.808  0.5833  0.4402  0.8633
   65MOL0     C 8661  11.653   2.916   5.746  0.3248 -0.2178 -0.5578
   65MOL0     C 8662  11.755   2.941   5.859 -0.1272  0.2705 -0.2842
   65MOL0     C 8663  11.878   3.023   5.804 -0.4304 -0.8172  0.2307
   65MOL0     O 8664  11.995   3.020   5.900 -0.2594 -0.1330  0.0352
   65MOL0     C 8665  12.104   3.099   5.868 -0.1620  0.8383  0.6934
   65MOL0     C 8666  12.122   3.189   5.762  0.2474  0.4527  0.2305
   65MOL0     C 8667  12.239   3.259   5.737  1.3433  0.5332  0.8405
   65MOL0     C 8668  12.342   3.248   5.830 -0.4196  0.0968  0.2107
   65MOL0     C 8669  12.472   3.305   5.814  0.1843 -0.3362 -0.4824
   65MOL0     O 8670  12.576   3.253   5.881  0.0849  0.2447  0.0638
   65MOL0     C 8671  12.693   3.316   5.862 -1.2778  0.4334 -0.6362
   65MOL0     C 8672  12.782   3.259   5.771  0.1194  0.0438  0.0972
   65MOL0     C 8673  12.904   3.329   5.766  0.1981 -0.3664  0.5821
   65MOL0     C 8674  12.931   3.440   5.839  0.2994 -0.1116  0.1515
   65MOL0     O 8675  13.051   3.500   5.811 -0.4840 -0.1776  0.4363
   65MOL0     C 8676  13.125   3.534   5.930 -0.1111 -0.0621  0.3464
   65MOL0     C 8677  13.243   3.431   5.959  0.5889  0.1033 -0.7473
   65MOL0     C 8678  13.342   3.467   6.079  0.5865 -0.1001  0.3035
   65MOL0     C 8679  13.293   3.468   6.221  0.2234  0.0493 -0.4385
   65MOL0     C 8680  13.397   3.536   6.307  0.7579 -0.0577  0.2100
   65MOL0     C 8681  13.511   3.440   6.340 -0.3190  0.3064 -0.9471
   65MOL0     C 8682  13.641   3.508   6.383  0.1723 -0.0964 -0.5310
   65MOL0     C 8683  13.671   3.533   6.536  0.1570 -0.2832  0.1417
   65MOL0    Cl 8684  13.842   3.591   6.549 -0.2043 -0.0279  0.0596
   65MOL0     C 8685  12.841   3.490   5.931  0.0383  0.5684  0.1219
   65MOL0     C 8686  12.718   3.423   5.943 -0.7231 -1.4213 -0.1837
   65MOL0     O 8687  12.475   3.407   5.736 -0.4246  0.1197 -0.3362
   65MOL0     C 8688  12.327   3.158   5.942 -0.0093 -0.0994  0.4474
   65MOL0     C 8689  12.211   3.083   5.951 -0.2494  0.4285  0.2834
   65MOL0     N 8690  11.444   2.674   5.631  0.5399 -0.8621 -0.0545
   65MOL0     N 8691  11.337   2.679   5.561  0.0759 -0.2687  0.0881
   65MOL0     C 8692  10.042   2.677   5.501  0.8765 -0.0804  0.4067
   65MOL0     C 8693   9.913   2.646   5.455  0.0789 -0.0989 -0.6415
   65MOL0     C 8694   9.543   2.621   5.151  0.4912  0.6482  0.8419
   65MOL0     C 8695   9.453   2.676   5.246 -0.3255  0.7259  0.3181
   65MOL0     C 8696   9.320   2.683   5.231  0.0062  0.0147 -0.1744
   65MOL0     C 8697   9.259   2.642   5.117 -0.7239  0.2322  0.6740
   65MOL0     O 8698   9.125   2.658   5.084 -0.3629  0.5899 -0.0600
   65MOL0     C 8699   9.057   2.769   5.133  0.6298  1.0333  0.1994
   65MOL0     C 8700   8.951   2.799   5.033  0.6055  1.0656 -0.1164
   65MOL0     C 8701   9.005   2.853   4.905 -0.3679  0.9922 -0.0899
   65MOL0     C 8702   9.077   2.990   4.904  0.3921  0.0788 -0.2236
   65MOL0     C 8703   9.005   3.098   4.965 -0.2723  0.4480 -0.0825
   65MOL0     C 8704   8.949   3.199   5.004  0.1290 -0.2598 -0.5604
   65MOL0     C 8705   9.344   2.576   5.017  0.1774  0.2117 -0.9931
   65MOL0     C 8706   9.484   2.567   5.035 -0.2853  0.1429  0.8461
   65MOL0     C 8707   9.566   2.492   4.926 -0.4847  0.0071  0.3447
   65MOL0     H 8708   9.905   2.808   5.161  1.5624 -0.8582 -1.1052
   65MOL0     H 8709  10.125   2.868   5.235  2.4442 -1.8142  1.6046
   65MOL0     H 8710  10.359   2.757   5.627 -1.2498 -0.5618 -0.1625
   65MOL0     H 8711  10.313   2.615   5.534 -1.8439 -0.5672 -1.3870
   65MOL0     H 8712  10.507   2.845   5.480  2.4998 -0.1854 -0.7403
   65MOL0     H 8713  10.473   2.710   5.360 -0.3444 -1.2681  0.5222
   65MOL0     H 8714  10.543   2.553   5.514  0.2601 -0.1621 -0.5599
   65MOL0     H 8715  10.572   2.669   5.646 -0.7700  0.7951  0.6618
   65MOL0     H 8716  10.729   2.652   5.380 -1.8019  2.6075 -1.1327
   65MOL0     H 8717  10.735   2.796   5.500 -0.4230  0.1397  0.5561
   65MOL0     H 8718  10.816   2.637   5.673  1.4115 -0.0386  0.1028
   65MOL0     H 8719  10.804   2.512   5.553 -4.4416  0.6840  1.6946
   65MOL0     H 8720  11.040   2.586   5.576  2.7930  3.3443  1.3781
   65MOL0     H 8721  10.974   2.640   5.415 -2.6978 -0.8558 -0.2017
   65MOL0     H 8722  11.009   2.804   5.679 -1.2137 -3.0662  0.1197
   65MOL0     H 8723  10.944   2.861   5.528 -0.1972 -3.2477 -2.8858
   65MOL0     H 8724  11.163   2.768   5.417  0.8318 -1.1247 -0.0911
   65MOL0     H 8725  11.159   2.933   5.483 -1.0562  0.1421  0.7326
   65MOL0     H 8726  11.304   2.947   5.733  0.8862  1.2457 -3.2187
   65MOL0     H 8727  11.493   2.878   5.890  0.8163 -0.1221  1.3687
   65MOL0     H 8728  11.590   2.739   5.855 -0.4661  0.6911  2.4430
   65MOL0     H 8729  11.704   2.881   5.656 -0.8535 -1.4131 -0.7741
   65MOL0     H 8730  11.607   3.013   5.722 -2.1356 -0.6952  1.7508
   65MOL0     H 8731  11.789   2.840   5.883 -1.3926 -0.3889 -1.1672
   65MOL0     H 8732  11.710   2.984   5.949 -1.1599  1.7077 -1.4508
   65MOL0     H 8733  11.838   3.124   5.797  2.6430  0.5101  0.3557
   65MOL0     H 8734  11.903   2.984   5.705  1.1782 -0.8779  0.6274
   65MOL0     H 8735  12.042   3.205   5.690  0.0309 -0.7822  0.1844
   65MOL0     H 8736  12.247   3.314   5.644 -0.7587 -1.9830 -0.9544
   65MOL0     H 8737  12.761   3.165   5.722  3.4850 -0.7799 -0.0428
   65MOL0     H 8738  12.985   3.307   5.697  2.3120  1.4513  2.3267
   65MOL0     H 8739  13.163   3.634   5.911  0.9489 -0.0995  2.0866
   65MOL0     H 8740  13.063   3.536   6.020 -2.0857 -0.4368 -0.9323
   65MOL0     H 8741  13.219   3.327   5.985  1.7746  0.0793  0.3574
   65MOL0     H 8742  13.302   3.423   5.867 -0.7711 -0.5627 -1.5979
   65MOL0     H 8743  13.421   3.392   6.069 -0.3704 -1.4856  2.4411
   65MOL0     H 8744  13.378   3.568   6.060 -0.8625  0.2914 -0.5027
   65MOL0     H 8745  13.263   3.370   6.260  1.1672  0.6387  1.9381
   65MOL0     H 8746  13.199   3.524   6.215 -0.0012 -0.4176 -1.4314
   65MOL0     H 8747  13.341   3.557   6.399  0.2805  0.0735 -0.1066
   65MOL0     H 8748  13.438   3.625   6.260  1.4279 -0.1190  0.6574
   65MOL0     H 8749  13.478   3.377   6.423  0.2430  0.9660 -0.2077
   65MOL0     H 8750  13.533   3.379   6.251 -0.4509 -0.6577 -0.3302
   65MOL0     H 8751  13.646   3.613   6.353  2.2125  0.8189  2.5632
   65MOL0     H 8752  13.725   3.454   6.337 -0.8227 -0.2153 -2.3062
   65MOL0     H 8753  13.598   3.613   6.553 -0.6009 -1.2661  1.7821
   65MOL0     H 8754  13.657   3.445   6.599 -0.8401 -1.9502 -2.2589
   65MOL0     H 8755  12.858   3.584   5.984  1.4029  0.8542 -0.7797
   65MOL0     H 8756  12.643   3.471   6.005 -1.3306  0.0362 -1.9528
   65MOL0     H 8757  12.416   3.145   6.002  1.1651 -1.7883 -1.5416
   65MOL0     H 8758  12.194   3.011   6.031  2.2578 -0.0636  0.4594
   65MOL0     H 8759  10.079   2.661   5.601  3.0885  1.2819 -0.1254
   65MOL0     H 8760   9.840   2.604   5.524 -0.4076 -0.1220 -1.1665
   65MOL0     H 8761   9.497   2.692   5.344 -1.5742  1.2054  0.8262
   65MOL0     H 8762   9.269   2.714   5.322 -0.7167 -1.6955  0.0347
   65MOL0     H 8763   9.115   2.861   5.145  0.2444  1.0702  2.0601
   65MOL0     H 8764   9.022   2.748   5.234 -1.5103  2.1484 -0.2458
   65MOL0     H 8765   8.890   2.870   5.090 -1.5791  0.5368 -1.6710
   65MOL0     H 8766   8.891   2.709   5.018  3.0527 -1.4860  3.6629
   65MOL0     H 8767   8.916   2.855   4.841 -3.1017  1.0799  3.4340
   65MOL0     H 8768   9.071   2.773   4.870 -0.4253  1.1334 -0.5313
   65MOL0     H 8769   9.170   2.984   4.961  0.7756 -1.2755 -0.9347
   65MOL0     H 8770   9.098   3.017   4.800 -0.0270 -3.5675 -1.4071
   65MOL0     H 8771   8.908   3.291   5.040  0.1202 -0.0578 -1.0906
   65MOL0     H 8772   9.289   2.522   4.941  0.3935 -1.6596  0.1208
   65MOL0     H 8773   9.646   2.549   4.880 -1.0435  0.6565  0.1655
   65MOL0     H 8774   9.614   2.401   4.964 -1.0817 -1.1013 -1.3819
   65MOL0     H 8775   9.504   2.454   4.843 -0.7303 -2.5315  1.5847
   66MOL0     O 8776   4.130   2.613   0.023 -0.2401 -0.9136 -0.4039
   66MOL0     C 8777   4.049   2.521   0.056 -0.3156 -0.2169  0.5824
   66MOL0     O 8778   4.082   2.387   0.042 -0.3287 -0.0289  0.3891
   66MOL0     C 8779   4.197   2.345  -0.017  0.0682 -0.2265 -0.5093
   66MOL0     C 8780   4.323   2.403   0.011  0.3178  0.2227  0.3122
   66MOL0     C 8781   4.432   2.374  -0.069 -0.2753 -0.4551  0.4281
   66MOL0     C 8782   4.429   2.289  -0.186 -0.0742  0.0712  0.4387
   66MOL0     O 8783   4.528   2.263  -0.277 -0.5678 -0.2083  0.3220
   66MOL0     C 8784   4.660   2.313  -0.251 -0.2341 -0.4113 -0.1842
   66MOL0     C 8785   4.753   2.279  -0.366 -0.7539 -0.2442 -0.2626
   66MOL0     C 8786   4.872   2.387  -0.373 -0.3750  0.3593  0.5869
   66MOL0     C 8787   5.003   2.310  -0.359 -0.0444 -0.4923 -0.2062
   66MOL0     C 8788   5.128   2.390  -0.390 -0.5688  0.4147  0.1228
   66MOL0     C 8789   5.240   2.292  -0.389  0.5585 -0.6777 -0.1083
   66MOL0     C 8790   5.355   2.367  -0.461  0.4781 -0.4335  0.7711
   66MOL0     C 8791   5.475   2.269  -0.458 -0.1844  0.1132 -1.0037
   66MOL0     N 8792   5.589   2.316  -0.533  0.3120  0.0696  0.7178
   66MOL0     C 8793   5.597   2.422  -0.619  0.1835 -0.3676  0.0019
   66MOL0     C 8794   5.723   2.420  -0.671  0.3914  0.0300  0.2977
   66MOL0     C 8795   5.784   2.519  -0.771  0.2337 -0.0665 -0.5949
   66MOL0     C 8796   5.916   2.574  -0.718  0.6777 -0.1217 -0.4650
   66MOL0     C 8797   5.973   2.668  -0.820  0.3838 -1.0532  0.5913
   66MOL0     C 8798   6.113   2.727  -0.781 -0.8715 -0.6318  1.0339
   66MOL0     O 8799   6.144   2.843  -0.874 -0.3671  0.2394 -0.2643
   66MOL0     C 8800   6.281   2.862  -0.871  0.2911 -0.5654 -0.1662
   66MOL0     C 8801   6.330   2.983  -0.829 -0.7992 -0.3252 -1.2533
   66MOL0     C 8802   6.463   3.015  -0.833  0.3345  0.0532 -0.3156
   66MOL0     C 8803   6.550   2.926  -0.907  0.2268 -0.3778  0.0872
   66MOL0     C 8804   6.695   2.958  -0.928 -0.2644 -0.5833  0.3894
   66MOL0     O 8805   6.758   2.928  -1.047  0.1287 -0.2361 -0.1173
   66MOL0     C 8806   6.886   2.952  -1.063 -0.9770  0.4840 -0.3986
   66MOL0     C 8807   6.942   2.954  -1.191 -0.1005 -0.0595 -0.2064
   66MOL0     C 8808   7.077   2.979  -1.224 -0.6116  0.8028  0.5290
   66MOL0     C 8809   7.168   2.976  -1.115  0.2520  0.7204  0.6735
   66MOL0     O 8810   7.299   3.011  -1.142 -0.1905 -0.1612  0.3596
   66MOL0     C 8811   7.399   2.979  -1.049  0.9293  0.5927  0.4609
   66MOL0     C 8812   7.524   2.938  -1.123 -0.2516 -0.1467 -0.0932
   66MOL0     C 8813   7.494   2.835  -1.234  0.8177 -0.5112 -0.2920
   66MOL0     C 8814   7.419   2.718  -1.188  0.2626  0.2760  0.1420
   66MOL0     C 8815   7.410   2.601  -1.291  0.2040 -0.2255 -0.3358
   66MOL0     C 8816   7.325   2.635  -1.418  0.4817 -0.9047 -0.0626
   66MOL0     C 8817   7.171   2.655  -1.404  0.4127  0.4465 -0.8712
   66MOL0     C 8818   7.089   2.717  -1.511 -0.9598  0.0740 -0.6273
   66MOL0    Cl 8819   7.045   2.606  -1.651 -0.0489 -0.2154  0.5121
   66MOL0     C 8820   7.121   2.971  -0.989  0.1802  0.2616 -0.2686
   66MOL0     C 8821   6.983   2.959  -0.959 -0.5665  0.4888 -0.4404
   66MOL0     O 8822   6.740   3.028  -0.837  0.2524  0.1122 -0.5633
   66MOL0     C 8823   6.503   2.801  -0.957 -0.0487 -0.1981 -0.6595
   66MOL0     C 8824   6.367   2.773  -0.940 -0.0603  0.2355  0.0724
   66MOL0     N 8825   5.781   2.307  -0.619  0.4462  0.2529  0.1926
   66MOL0     N 8826   5.700   2.240  -0.545  0.2139  0.4481 -1.4338
   66MOL0     C 8827   4.300   2.222  -0.206  0.1583  1.1877  0.2036
   66MOL0     C 8828   4.189   2.248  -0.122 -0.2504  0.5355  0.3932
   66MOL0     C 8829   3.908   2.548   0.085 -1.0846  0.9753 -0.6999
   66MOL0     C 8830   3.812   2.443   0.097  0.0680 -0.4103 -0.0105
   66MOL0     C 8831   3.679   2.472   0.130 -0.3033  0.2488  0.3766
   66MOL0     C 8832   3.638   2.606   0.136  0.4475  0.3721 -0.0440
   66MOL0     O 8833   3.507   2.642   0.138 -0.3032 -0.8063  0.8312
   66MOL0     C 8834   3.402   2.551   0.158 -0.8084  0.2585 -0.8353
   66MOL0     C 8835   3.396   2.506   0.304  0.0284  0.5938  0.0372
   66MOL0     C 8836   3.398   2.624   0.403 -0.1005 -0.2751 -0.6075
   66MOL0     C 8837   3.296   2.736   0.380 -0.6984  0.1476  0.0519
   66MOL0     C 8838   3.157   2.693   0.420 -0.0753 -0.4442  0.5826
   66MOL0     C 8839   3.047   2.647   0.427 -1.0194  0.0573 -0.9189
   66MOL0     C 8840   3.735   2.701   0.143  0.0605  0.7919 -0.6090
   66MOL0     C 8841   3.866   2.678   0.111  0.2824 -0.7894 -0.3383
   66MOL0     C 8842   3.953   2.803   0.095 -0.4356 -0.6257  0.0680
   66MOL0     H 8843   4.350   2.483   0.080 -1.2184  0.9927  0.0516
   66MOL0     H 8844   4.525   2.417  -0.034 -1.1704  1.5697  0.4722
   66MOL0     H 8845   4.653   2.420  -0.229 -0.6499 -0.8114  1.8588
   66MOL0     H 8846   4.706   2.276  -0.159  1.0813  1.9059  0.1603
   66MOL0     H 8847   4.691   2.287  -0.456 -3.4575 -0.2232  1.5061
   66MOL0     H 8848   4.786   2.177  -0.344  1.5557  1.1760  4.1113
   66MOL0     H 8849   4.866   2.470  -0.302  1.8298 -1.0736  2.5793
   66MOL0     H 8850   4.881   2.436  -0.471 -0.9967  0.7494  0.7154
   66MOL0     H 8851   5.010   2.257  -0.263 -0.5389 -0.9482 -0.4163
   66MOL0     H 8852   5.012   2.240  -0.442  1.9239 -0.6025  0.0657
   66MOL0     H 8853   5.117   2.441  -0.486 -0.9414  0.2514  0.0778
   66MOL0     H 8854   5.148   2.471  -0.319 -0.6832  0.8725 -0.3627
   66MOL0     H 8855   5.274   2.265  -0.289 -0.6447  0.0848  0.5272
   66MOL0     H 8856   5.214   2.201  -0.444 -4.7509  0.0398  0.7210
   66MOL0     H 8857   5.378   2.456  -0.403  1.0622 -1.1356  1.6530
   66MOL0     H 8858   5.327   2.382  -0.566  0.7954 -3.2784  0.1897
   66MOL0     H 8859   5.517   2.270  -0.357 -3.2752  1.3204  0.4049
   66MOL0     H 8860   5.450   2.167  -0.488  2.8154 -0.2898 -2.5795
   66MOL0     H 8861   5.519   2.494  -0.638  0.0513  0.4775  3.1899
   66MOL0     H 8862   5.795   2.472  -0.869 -0.1202 -0.2760 -0.5393
   66MOL0     H 8863   5.712   2.601  -0.777  0.7550  1.1689  4.7670
   66MOL0     H 8864   5.904   2.629  -0.624 -2.8698 -2.8839  0.9595
   66MOL0     H 8865   5.983   2.490  -0.701 -3.1229 -3.1302  1.1121
   66MOL0     H 8866   5.910   2.756  -0.838  0.1342 -0.9274  1.9762
   66MOL0     H 8867   5.974   2.608  -0.912  0.2674 -0.1241 -0.0314
   66MOL0     H 8868   6.180   2.643  -0.803 -1.4925 -0.4597 -1.9173
   66MOL0     H 8869   6.118   2.760  -0.677  1.3822  0.6727  0.5909
   66MOL0     H 8870   6.268   3.062  -0.787  1.3732  0.8781 -0.1665
   66MOL0     H 8871   6.500   3.111  -0.800 -1.3213  0.8211 -0.5411
   66MOL0     H 8872   6.863   2.951  -1.266 -0.6663  1.4382  0.2979
   66MOL0     H 8873   7.094   2.980  -1.331 -2.0747 -0.8078  0.2299
   66MOL0     H 8874   7.422   3.064  -0.985 -0.2556  1.2612  0.0343
   66MOL0     H 8875   7.374   2.892  -0.986  1.9167 -0.2113 -0.2195
   66MOL0     H 8876   7.558   3.026  -1.178 -0.4065 -0.7583 -1.1860
   66MOL0     H 8877   7.606   2.906  -1.058  1.1879 -1.6372 -2.5083
   66MOL0     H 8878   7.446   2.882  -1.321 -0.3970 -0.6750  0.2705
   66MOL0     H 8879   7.596   2.816  -1.267  2.4169  2.1987  2.5393
   66MOL0     H 8880   7.319   2.732  -1.147  0.4039  1.0674  0.2247
   66MOL0     H 8881   7.487   2.679  -1.112 -0.3133  0.5227  0.7932
   66MOL0     H 8882   7.356   2.519  -1.245 -0.1348  0.7824  1.1474
   66MOL0     H 8883   7.513   2.568  -1.310  1.3762  0.4334  3.7676
   66MOL0     H 8884   7.378   2.725  -1.452 -2.2676  0.4326 -1.1030
   66MOL0     H 8885   7.340   2.561  -1.498 -0.8916 -0.5374 -0.6874
   66MOL0     H 8886   7.145   2.711  -1.313  2.4707  1.5513 -0.9129
   66MOL0     H 8887   7.125   2.557  -1.390  3.5995 -0.9343  1.1413
   66MOL0     H 8888   6.992   2.741  -1.466 -0.4236  3.1853 -0.9015
   66MOL0     H 8889   7.121   2.814  -1.551 -1.4523  0.5965  0.2163
   66MOL0     H 8890   7.187   2.978  -0.903  1.0192 -1.4366 -0.7445
   66MOL0     H 8891   6.963   2.943  -0.853  0.9339 -2.7624 -0.5210
   66MOL0     H 8892   6.563   2.725  -1.007 -0.0820  0.5107 -1.8118
   66MOL0     H 8893   6.328   2.675  -0.967 -1.2023  0.7758 -0.3156
   66MOL0     H 8894   4.282   2.146  -0.281  2.6787  2.0631 -1.3947
   66MOL0     H 8895   4.100   2.192  -0.147  0.5482 -0.7372  0.3015
   66MOL0     H 8896   3.836   2.338   0.090  0.6790 -0.2034 -1.2516
   66MOL0     H 8897   3.613   2.389   0.154 -0.4803  0.8489  2.1204
   66MOL0     H 8898   3.406   2.459   0.098  1.0369 -1.6695  1.9785
   66MOL0     H 8899   3.304   2.591   0.131 -0.6116 -0.0915 -2.1284
   66MOL0     H 8900   3.483   2.442   0.317 -0.0165  0.7180  0.9793
   66MOL0     H 8901   3.309   2.443   0.324  3.0147 -3.8642  0.2978
   66MOL0     H 8902   3.493   2.678   0.394  1.7326 -3.1562  0.0548
   66MOL0     H 8903   3.397   2.594   0.508 -2.8809  1.0206 -0.1773
   66MOL0     H 8904   3.341   2.820   0.434 -2.1434 -0.0974  1.7388
   66MOL0     H 8905   3.297   2.770   0.276 -0.7440  0.8796  0.2858
   66MOL0     H 8906   2.946   2.616   0.446  0.1890 -3.6367  0.4620
   66MOL0     H 8907   3.700   2.803   0.156  1.6894  1.3142 -0.1750
   66MOL0     H 8908   3.994   2.819  -0.005  2.0244 -3.3836  0.4982
   66MOL0     H 8909   3.889   2.888   0.122 -2.5836 -2.3693  0.8080
   66MOL0     H 8910   4.037   2.801   0.165 -0.3277 -5.0826  0.1089
   67MOL0     O 8911   4.506   8.830   3.002  0.0345 -0.5189 -0.4686
   67MOL0     C 8912   4.505   8.831   2.879 -0.6848 -1.1027  0.6574
   67MOL0     O 8913   4.602   8.841   2.789  0.9299 -0.3792  0.1130
   67MOL0     C 8914   4.731   8.853   2.822 -0.1735 -0.0015 -0.0000
   67MOL0     C 8915   4.792   8.840   2.949  0.0806  0.3592 -0.0828
   67MOL0     C 8916   4.933   8.870   2.964  0.8069 -0.4538 -0.8462
   67MOL0     C 8917   5.005   8.898   2.850  0.2808  0.3374  0.4387
   67MOL0     O 8918   5.132   8.930   2.887  0.1565 -0.1526  0.1807
   67MOL0     C 8919   5.219   8.976   2.784 -0.1057 -0.1131 -0.0959
   67MOL0     C 8920   5.352   8.991   2.848 -0.5101 -1.8081  0.8266
   67MOL0     C 8921   5.438   8.868   2.869  0.0280  0.1323  0.7372
   67MOL0     C 8922   5.577   8.904   2.925  0.2506 -0.3238  0.1075
   67MOL0     C 8923   5.676   8.786   2.897 -0.3427  0.5927  0.5204
   67MOL0     C 8924   5.811   8.802   2.964 -0.3415  0.0757 -0.1016
   67MOL0     C 8925   5.908   8.684   2.944 -0.5832  0.0029 -0.0509
   67MOL0     C 8926   5.938   8.644   2.803  0.5034  0.7957  0.1788
   67MOL0     N 8927   6.009   8.511   2.812 -0.0848 -0.3300  0.3357
   67MOL0     C 8928   6.139   8.482   2.855 -0.5043 -0.7722 -0.3241
   67MOL0     C 8929   6.179   8.367   2.809 -0.2437  0.0220 -0.7888
   67MOL0     C 8930   6.315   8.300   2.824 -0.2729 -0.1249 -0.1124
   67MOL0     C 8931   6.425   8.395   2.773  0.6657 -0.4823 -0.4343
   67MOL0     C 8932   6.421   8.451   2.638 -0.1412 -0.3639  0.3165
   67MOL0     C 8933   6.554   8.521   2.599  0.0872  0.0043 -0.1141
   67MOL0     O 8934   6.647   8.414   2.584 -0.4708 -0.4383 -0.0111
   67MOL0     C 8935   6.782   8.452   2.566  0.4881 -0.1735  0.0694
   67MOL0     C 8936   6.825   8.583   2.543  1.3111  0.2909  0.9958
   67MOL0     C 8937   6.959   8.605   2.511  0.1600 -0.2066 -1.4572
   67MOL0     C 8938   7.056   8.502   2.519  0.0886  0.8871  0.4335
   67MOL0     C 8939   7.199   8.524   2.519  0.3298  0.7965  0.9760
   67MOL0     O 8940   7.276   8.414   2.505  0.2428 -0.1886  0.4424
   67MOL0     C 8941   7.411   8.431   2.493  0.2154  0.7965  0.2267
   67MOL0     C 8942   7.484   8.431   2.371  0.5653 -0.4533  0.4502
   67MOL0     C 8943   7.623   8.441   2.372  0.4968  0.4381  0.1577
   67MOL0     C 8944   7.692   8.449   2.498 -0.2456 -0.0369  0.2289
   67MOL0     O 8945   7.828   8.468   2.502  0.2353  0.1731  0.7266
   67MOL0     C 8946   7.907   8.354   2.555 -0.1664  0.0140  0.2555
   67MOL0     C 8947   7.872   8.217   2.502  0.0076 -0.1655 -0.3569
   67MOL0     C 8948   7.919   8.109   2.592 -0.1760  0.0825  0.2188
   67MOL0     C 8949   8.076   8.088   2.602 -0.7360 -0.6650 -0.4989
   67MOL0     C 8950   8.097   7.953   2.668  0.1958 -0.1957  0.1862
   67MOL0     C 8951   8.241   7.920   2.707  0.0801  0.3713 -0.0096
   67MOL0     C 8952   8.253   7.764   2.716  0.3819 -0.6635 -0.1953
   67MOL0     C 8953   8.401   7.709   2.720 -0.1121  0.3436 -0.8762
   67MOL0    Cl 8954   8.479   7.784   2.870  0.2788  0.0244  0.3067
   67MOL0     C 8955   7.621   8.450   2.614  0.0190 -0.1497  0.3270
   67MOL0     C 8956   7.480   8.441   2.611  0.4056 -0.5927 -0.3736
   67MOL0     O 8957   7.238   8.639   2.516 -0.3563 -0.1039  0.0545
   67MOL0     C 8958   7.010   8.368   2.546  0.1527 -0.5646 -0.9158
   67MOL0     C 8959   6.878   8.347   2.564  0.0511  0.4451 -0.7196
   67MOL0     N 8960   6.074   8.323   2.733  0.0361  0.6393  0.1700
   67MOL0     N 8961   5.973   8.403   2.747 -0.1306  0.4289 -0.8395
   67MOL0     C 8962   4.944   8.909   2.729  0.0739 -0.6433  0.9244
   67MOL0     C 8963   4.808   8.885   2.708 -0.9411  0.3098 -0.1455
   67MOL0     C 8964   4.371   8.830   2.815 -0.4034 -0.5174  0.1901
   67MOL0     C 8965   4.265   8.760   2.882  0.4349  0.4735 -0.1952
   67MOL0     C 8966   4.135   8.741   2.828 -0.0688  0.0789  0.1042
   67MOL0     C 8967   4.109   8.815   2.713  0.4648 -0.1863  0.7285
   67MOL0     O 8968   3.980   8.817   2.645  0.1185 -0.3814  0.4868
   67MOL0     C 8969   3.865   8.755   2.707 -0.4911 -0.3073  0.3569
   67MOL0     C 8970   3.735   8.795   2.635 -0.4362 -0.4412  0.0280
   67MOL0     C 8971   3.620   8.728   2.709 -0.4781 -0.2013 -0.0978
   67MOL0     C 8972   3.488   8.800   2.678  0.0037  0.1685  0.0882
   67MOL0     C 8973   3.452   8.782   2.535 -0.4867  0.6037 -0.2905
   67MOL0     C 8974   3.423   8.745   2.424  0.2659 -0.2644  0.5649
   67MOL0     C 8975   4.215   8.882   2.642  0.0949  1.4094  0.3120
   67MOL0     C 8976   4.341   8.885   2.688 -0.5765  0.4100 -0.6111
   67MOL0     C 8977   4.440   8.961   2.603 -0.2305  0.3107  0.0192
   67MOL0     H 8978   4.732   8.819   3.037  2.5843 -0.2369  1.6063
   67MOL0     H 8979   4.987   8.860   3.058 -0.2447 -3.6988 -0.4395
   67MOL0     H 8980   5.227   8.901   2.704  0.2590 -2.3691  1.9433
   67MOL0     H 8981   5.196   9.075   2.744  1.0047  0.7232  1.2311
   67MOL0     H 8982   5.342   9.049   2.940 -0.0247  0.6526 -0.5789
   67MOL0     H 8983   5.403   9.062   2.782 -0.7195 -0.7936  1.7183
   67MOL0     H 8984   5.447   8.814   2.775  0.2851 -1.9492  1.8887
   67MOL0     H 8985   5.384   8.796   2.931 -2.6752  2.3634  1.1614
   67MOL0     H 8986   5.613   8.983   2.860  0.3869 -0.2070  0.3236
   67MOL0     H 8987   5.573   8.938   3.029  0.2006 -0.4751  0.1561
   67MOL0     H 8988   5.625   8.696   2.931  0.8299 -0.8948 -1.4717
   67MOL0     H 8989   5.687   8.763   2.791  0.5065  2.0556  0.2516
   67MOL0     H 8990   5.852   8.894   2.921  2.5922  0.7327  3.5055
   67MOL0     H 8991   5.795   8.827   3.069 -2.1483  1.3156 -0.6438
   67MOL0     H 8992   5.854   8.603   2.994  1.8167 -2.0704 -0.5583
   67MOL0     H 8993   6.002   8.697   2.999 -0.2106 -0.6007 -0.5235
   67MOL0     H 8994   5.842   8.639   2.751 -0.1122  0.3687  1.3230
   67MOL0     H 8995   6.001   8.721   2.756 -2.7012  3.6508  0.1548
   67MOL0     H 8996   6.203   8.554   2.907 -0.4403 -0.3081 -1.0309
   67MOL0     H 8997   6.337   8.274   2.928 -2.2496 -0.4114  0.2861
   67MOL0     H 8998   6.323   8.200   2.778  1.9776 -0.7308  1.4266
   67MOL0     H 8999   6.436   8.470   2.851 -0.9828 -0.4732 -0.1892
   67MOL0     H 9000   6.514   8.331   2.771  0.2812 -1.0713  0.8015
   67MOL0     H 9001   6.340   8.525   2.643 -0.4601 -0.7552  1.0193
   67MOL0     H 9002   6.385   8.361   2.587 -1.1166 -0.5026  1.2031
   67MOL0     H 9003   6.585   8.588   2.680  2.6343 -2.2678  0.9616
   67MOL0     H 9004   6.542   8.571   2.502  0.3894 -4.6778 -2.8857
   67MOL0     H 9005   6.756   8.664   2.521  2.0875  0.1034 -2.6617
   67MOL0     H 9006   6.985   8.704   2.475 -0.3265  1.3639  2.0842
   67MOL0     H 9007   7.425   8.429   2.280 -1.7581  1.9803  1.7774
   67MOL0     H 9008   7.673   8.439   2.275 -0.9810  3.9129 -0.8193
   67MOL0     H 9009   8.009   8.366   2.517 -0.0648 -0.9455  0.2064
   67MOL0     H 9010   7.896   8.359   2.664 -4.3213  1.1165 -0.0265
   67MOL0     H 9011   7.766   8.212   2.475  0.2695 -0.4013 -1.4222
   67MOL0     H 9012   7.926   8.203   2.407 -0.4128  4.1123 -1.4030
   67MOL0     H 9013   7.876   8.123   2.692  3.2565 -2.9372  2.4060
   67MOL0     H 9014   7.877   8.017   2.552 -2.0210  1.0842 -0.2311
   67MOL0     H 9015   8.119   8.156   2.676  1.2314 -2.5290  0.1871
   67MOL0     H 9016   8.127   8.089   2.505 -0.7145 -1.7442 -0.5107
   67MOL0     H 9017   8.056   7.876   2.601 -1.7680  0.7581  0.2218
   67MOL0     H 9018   8.027   7.961   2.752 -1.5369 -0.6417 -1.1587
   67MOL0     H 9019   8.302   7.968   2.630 -0.7284  2.3571  0.5090
   67MOL0     H 9020   8.276   7.967   2.799 -0.0825  0.8195 -0.1707
   67MOL0     H 9021   8.190   7.708   2.646  0.3595 -0.1154 -0.6175
   67MOL0     H 9022   8.207   7.730   2.810 -0.5622  0.5837 -0.1788
   67MOL0     H 9023   8.402   7.600   2.729 -0.0917  0.4371  0.3036
   67MOL0     H 9024   8.459   7.745   2.634  1.7559  1.1461  0.6435
   67MOL0     H 9025   7.668   8.467   2.710  2.3269  1.2720 -0.9723
   67MOL0     H 9026   7.424   8.449   2.704 -0.8183 -1.8049 -0.9754
   67MOL0     H 9027   7.075   8.282   2.565  1.9395  0.7430 -0.8400
   67MOL0     H 9028   6.854   8.248   2.600 -0.3082  0.6754 -0.3136
   67MOL0     H 9029   4.996   8.946   2.641  1.6937  0.1042  2.1476
   67MOL0     H 9030   4.769   8.906   2.609  0.6111 -0.5252 -0.9847
   67MOL0     H 9031   4.284   8.719   2.981  1.5246  1.3507 -0.0270
   67MOL0     H 9032   4.069   8.666   2.870  0.0959  0.6618  1.4648
   67MOL0     H 9033   3.861   8.775   2.814  1.4468 -0.4138  0.4777
   67MOL0     H 9034   3.894   8.650   2.693  1.6423  0.6219 -3.4464
   67MOL0     H 9035   3.746   8.768   2.530 -1.1446  0.2999 -0.2531
   67MOL0     H 9036   3.717   8.902   2.643  1.4306 -0.1487  0.6813
   67MOL0     H 9037   3.628   8.719   2.818 -2.5263 -1.4921 -0.0025
   67MOL0     H 9038   3.615   8.624   2.675  2.1662 -1.1831  2.1482
   67MOL0     H 9039   3.412   8.751   2.741  0.0945 -0.5191 -0.3215
   67MOL0     H 9040   3.492   8.907   2.700  0.3849  0.3726 -0.9281
   67MOL0     H 9041   3.386   8.696   2.337  2.4935  1.1044 -1.2698
   67MOL0     H 9042   4.187   8.936   2.552 -2.2779  0.6592  0.5210
   67MOL0     H 9043   4.399   9.010   2.514  1.8828  0.0629 -1.1486
   67MOL0     H 9044   4.481   9.045   2.660 -3.2486  2.2108 -0.3772
   67MOL0     H 9045   4.513   8.887   2.567 -0.3540  0.2460 -0.1000
   68MOL0     O 9046   3.958   2.806   4.596  0.3466 -0.2384  0.0462
   68MOL0     C 9047   3.950   2.701   4.648 -0.0619 -0.6089 -0.5554
   68MOL0     O 9048   4.030   2.602   4.619 -0.4160 -0.4703 -0.6083
   68MOL0     C 9049   4.128   2.612   4.527 -0.5229 -0.4416 -0.1271
   68MOL0     C 9050   4.262   2.663   4.553 -0.7135  0.3511  0.2982
   68MOL0     C 9051   4.358   2.653   4.449 -0.2811 -0.8924  0.2337
   68MOL0     C 9052   4.329   2.588   4.331 -0.2709 -0.5646  1.0898
   68MOL0     O 9053   4.431   2.594   4.232 -0.4121  0.1653 -0.0465
   68MOL0     C 9054   4.447   2.476   4.167 -0.3601  0.2849 -0.3529
   68MOL0     C 9055   4.558   2.483   4.059 -0.6187 -0.2126 -0.2397
   68MOL0     C 9056   4.679   2.525   4.127  0.0095  0.0661  0.0901
   68MOL0     C 9057   4.796   2.532   4.024  0.0153  1.1176  0.0444
   68MOL0     C 9058   4.837   2.397   3.962  0.5707  0.5847  0.3303
   68MOL0     C 9059   4.897   2.289   4.050  0.0786  0.4064  0.2180
   68MOL0     C 9060   4.914   2.158   3.969  0.3402  0.4529 -0.2094
   68MOL0     C 9061   4.995   2.052   4.048 -0.1996 -0.1300 -0.0949
   68MOL0     N 9062   5.122   2.117   4.093  0.9598  0.1270  0.4785
   68MOL0     C 9063   5.234   2.135   4.014  0.6620 -0.0610 -0.1795
   68MOL0     C 9064   5.324   2.196   4.093  0.4185  0.0750 -0.1529
   68MOL0     C 9065   5.454   2.238   4.050 -1.1431 -0.1056 -0.0795
   68MOL0     C 9066   5.565   2.120   4.054  0.1726 -0.4818  0.3159
   68MOL0     C 9067   5.704   2.146   3.999  0.6196 -0.7139  0.4344
   68MOL0     C 9068   5.780   2.247   4.085 -0.3636  0.4153  0.6060
   68MOL0     O 9069   5.821   2.199   4.216 -0.0578 -0.0538  0.0154
   68MOL0     C 9070   5.928   2.118   4.242 -0.5747  0.6084  0.8638
   68MOL0     C 9071   5.910   2.010   4.335  0.2566 -0.5819 -0.0610
   68MOL0     C 9072   6.017   1.917   4.353  0.1800  0.8579 -0.0444
   68MOL0     C 9073   6.140   1.934   4.294 -1.2015 -0.3578  0.3596
   68MOL0     C 9074   6.257   1.854   4.317 -0.2389  0.3678 -0.9963
   68MOL0     O 9075   6.383   1.896   4.286 -0.0842 -0.2380 -0.2125
   68MOL0     C 9076   6.495   1.829   4.332  0.3837  0.7096  0.3996
   68MOL0     C 9077   6.608   1.902   4.372 -0.7240  0.3983 -0.9340
   68MOL0     C 9078   6.731   1.836   4.404 -0.1980 -0.0894 -0.0228
   68MOL0     C 9079   6.741   1.689   4.398 -0.3013 -0.1007 -0.2157
   68MOL0     O 9080   6.855   1.617   4.439 -0.0493  0.1358 -0.3690
   68MOL0     C 9081   6.952   1.678   4.523 -0.8079 -0.7656  0.6155
   68MOL0     C 9082   7.079   1.593   4.516 -0.7106 -0.2472  0.0047
   68MOL0     C 9083   7.207   1.674   4.554 -0.0842 -0.0665 -0.2419
   68MOL0     C 9084   7.329   1.585   4.561  0.4265 -0.2523 -0.5217
   68MOL0     C 9085   7.456   1.665   4.595 -0.3234 -0.0115  0.4190
   68MOL0     C 9086   7.465   1.698   4.749 -0.2884  0.0714  0.0985
   68MOL0     C 9087   7.475   1.570   4.836 -0.4661 -0.1741 -0.1912
   68MOL0     C 9088   7.555   1.589   4.965  0.8972 -0.3055 -0.7418
   68MOL0    Cl 9089   7.726   1.619   4.926 -0.4347  0.2584 -0.0134
   68MOL0     C 9090   6.626   1.618   4.353  0.5305  0.2995  0.0268
   68MOL0     C 9091   6.511   1.694   4.314 -0.1043  0.1563  0.3397
   68MOL0     O 9092   6.228   1.751   4.364 -0.7552  0.1126  0.0729
   68MOL0     C 9093   6.149   2.044   4.204 -1.1418 -0.3895 -0.2236
   68MOL0     C 9094   6.046   2.130   4.174  0.0708 -0.1711  0.0383
   68MOL0     N 9095   5.259   2.211   4.216  0.3814  1.0975  0.2738
   68MOL0     N 9096   5.139   2.162   4.218  0.4377 -0.8767  0.6104
   68MOL0     C 9097   4.194   2.552   4.300 -0.1693  0.1170 -0.0085
   68MOL0     C 9098   4.095   2.563   4.399 -0.7763 -0.1506 -0.4136
   68MOL0     C 9099   3.840   2.672   4.747 -0.4331  0.0484 -0.3848
   68MOL0     C 9100   3.785   2.543   4.755 -0.3507 -0.7918 -0.3783
   68MOL0     C 9101   3.700   2.504   4.850  0.1464  0.7195 -0.4267
   68MOL0     C 9102   3.657   2.594   4.948  0.3111  0.1080  0.4697
   68MOL0     O 9103   3.584   2.547   5.057 -0.5847 -0.3354  0.3858
   68MOL0     C 9104   3.555   2.636   5.159  0.2161 -0.4103 -0.1025
   68MOL0     C 9105   3.485   2.573   5.275 -0.4967  0.0749 -0.2158
   68MOL0     C 9106   3.342   2.551   5.250  0.0538 -0.3612  0.3613
   68MOL0     C 9107   3.297   2.429   5.342  0.0314  0.5363  0.2535
   68MOL0     C 9108   3.153   2.411   5.330 -0.0329  0.1582  0.5743
   68MOL0     C 9109   3.034   2.400   5.311  0.9464 -0.1584 -0.7927
   68MOL0     C 9110   3.689   2.733   4.931 -0.5831 -0.5719 -0.5148
   68MOL0     C 9111   3.787   2.773   4.835  0.7008  0.4185  0.2151
   68MOL0     C 9112   3.852   2.904   4.841 -0.6570 -0.2266 -0.2049
   68MOL0     H 9113   4.281   2.705   4.652  0.0127  0.2455  0.2095
   68MOL0     H 9114   4.461   2.683   4.462  0.0231 -1.5061 -0.6064
   68MOL0     H 9115   4.459   2.392   4.236 -2.6649  1.3365  1.4550
   68MOL0     H 9116   4.354   2.448   4.116  0.0718  1.5717 -1.9671
   68MOL0     H 9117   4.537   2.547   3.972 -1.6392 -1.8390 -1.2493
   68MOL0     H 9118   4.580   2.380   4.028 -0.6714 -0.1510 -0.4902
   68MOL0     H 9119   4.698   2.454   4.209 -3.4768 -0.4853  0.5856
   68MOL0     H 9120   4.659   2.626   4.164 -1.3358  0.4041 -1.4402
   68MOL0     H 9121   4.769   2.600   3.943 -1.5069  1.2032  0.5897
   68MOL0     H 9122   4.889   2.574   4.063 -0.2798  1.7153  0.1221
   68MOL0     H 9123   4.749   2.352   3.914  0.8052 -1.0358  1.3366
   68MOL0     H 9124   4.908   2.412   3.881 -0.9391  2.2106 -0.7706
   68MOL0     H 9125   4.988   2.314   4.106 -0.8103 -1.0013  2.4097
   68MOL0     H 9126   4.815   2.261   4.116 -3.2391  1.3869 -3.1427
   68MOL0     H 9127   4.965   2.183   3.876  0.5435  3.0786  0.5419
   68MOL0     H 9128   4.818   2.117   3.936  0.6932 -0.0661 -0.6023
   68MOL0     H 9129   4.929   2.026   4.131 -0.0950  1.8272  0.6596
   68MOL0     H 9130   5.008   1.971   3.976  0.1971 -2.3859  2.3350
   68MOL0     H 9131   5.249   2.100   3.913  1.8945 -1.0396  0.3161
   68MOL0     H 9132   5.457   2.272   3.946 -1.5116  1.5673  0.4290
   68MOL0     H 9133   5.491   2.322   4.110 -2.5670  0.9121 -0.5749
   68MOL0     H 9134   5.572   2.085   4.158  0.9378 -1.5268 -0.0704
   68MOL0     H 9135   5.526   2.031   4.004  1.2320 -1.6714  1.5123
   68MOL0     H 9136   5.688   2.177   3.895 -2.2906 -0.3182  0.9016
   68MOL0     H 9137   5.762   2.053   3.995  0.9793 -0.6088  2.2880
   68MOL0     H 9138   5.699   2.321   4.092 -2.9910 -1.9299 -1.8611
   68MOL0     H 9139   5.862   2.298   4.034 -0.8182  0.6688  0.1016
   68MOL0     H 9140   5.814   2.016   4.386 -0.2859  1.4220 -1.1939
   68MOL0     H 9141   5.997   1.836   4.421 -0.1129 -0.9052 -2.1257
   68MOL0     H 9142   6.587   2.007   4.390  1.8003  0.7429  0.4264
   68MOL0     H 9143   6.809   1.907   4.432 -3.0648  3.1918  0.2350
   68MOL0     H 9144   6.984   1.773   4.479  2.3129 -1.4590  1.1288
   68MOL0     H 9145   6.924   1.709   4.624 -3.7034 -2.0375  0.3105
   68MOL0     H 9146   7.066   1.499   4.570 -0.0546  0.4096  1.3460
   68MOL0     H 9147   7.090   1.565   4.411 -0.0490  0.7284 -0.1943
   68MOL0     H 9148   7.225   1.742   4.470 -0.4788 -1.0094 -1.1084
   68MOL0     H 9149   7.199   1.721   4.653  1.3641  0.0386 -0.1478
   68MOL0     H 9150   7.342   1.545   4.460  0.3763 -0.2360 -0.5349
   68MOL0     H 9151   7.312   1.502   4.630  2.8885  1.2029  2.0338
   68MOL0     H 9152   7.454   1.755   4.532  1.0285 -1.7361 -2.2764
   68MOL0     H 9153   7.548   1.611   4.573 -0.3018  1.5658 -4.8663
   68MOL0     H 9154   7.553   1.761   4.765  1.2595 -1.8689 -0.3792
   68MOL0     H 9155   7.377   1.758   4.772  1.0134  2.2461 -0.3017
   68MOL0     H 9156   7.520   1.487   4.781 -1.4006 -0.8811  0.0890
   68MOL0     H 9157   7.375   1.535   4.863 -0.2763 -0.6853 -0.1574
   68MOL0     H 9158   7.526   1.675   5.026  3.0080  0.1076 -0.2058
   68MOL0     H 9159   7.542   1.496   5.020  1.9654  0.4079  0.7939
   68MOL0     H 9160   6.615   1.511   4.339 -1.6544  0.5616 -0.7243
   68MOL0     H 9161   6.432   1.643   4.260 -0.1459  0.3861  0.1861
   68MOL0     H 9162   6.249   2.061   4.164 -2.2814  0.1866 -3.0386
   68MOL0     H 9163   6.057   2.217   4.110  0.4822 -0.9036 -0.9132
   68MOL0     H 9164   4.166   2.528   4.198 -1.0151  5.2972 -1.2605
   68MOL0     H 9165   3.993   2.539   4.372 -0.8141  1.6478 -2.1095
   68MOL0     H 9166   3.827   2.459   4.701  1.0120 -0.9854  0.9233
   68MOL0     H 9167   3.683   2.399   4.870  1.9191 -0.2969 -3.5582
   68MOL0     H 9168   3.488   2.711   5.117  0.3615 -0.3415 -0.2141
   68MOL0     H 9169   3.638   2.692   5.203 -1.3580  1.2751  0.8604
   68MOL0     H 9170   3.504   2.638   5.360  1.3252  0.2925 -0.7472
   68MOL0     H 9171   3.540   2.483   5.305  0.3542  0.9440  0.9189
   68MOL0     H 9172   3.334   2.512   5.149 -0.8220  0.0259  0.2683
   68MOL0     H 9173   3.280   2.641   5.264  3.2747  1.8822  1.4584
   68MOL0     H 9174   3.349   2.339   5.309 -1.3417 -0.5737  1.0395
   68MOL0     H 9175   3.322   2.454   5.445 -0.9189 -0.4371  0.7353
   68MOL0     H 9176   2.932   2.406   5.279 -0.0053  0.0509  2.0338
   68MOL0     H 9177   3.652   2.804   5.005 -1.3601  1.6703 -2.8608
   68MOL0     H 9178   3.838   2.959   4.748 -1.4539 -2.1745 -1.2931
   68MOL0     H 9179   3.813   2.973   4.917 -0.4073  1.1900 -1.3173
   68MOL0     H 9180   3.959   2.888   4.856 -0.7766  0.3061  1.5193
   69MOL0     O 9181   2.097  10.148   3.709  0.3167 -0.4072 -0.1505
   69MOL0     C 9182   2.019  10.126   3.618  0.8105 -0.0341  0.0603
   69MOL0     O 9183   2.050  10.084   3.491  0.0782 -0.2856 -0.2284
   69MOL0     C 9184   2.185  10.069   3.470  0.2989  0.6810 -0.5433
   69MOL0     C 9185   2.273  10.181   3.476  0.9857  0.7777  0.3305
   69MOL0     C 9186   2.397  10.177   3.422  1.4416 -0.0091  0.3910
   69MOL0     C 9187   2.446  10.058   3.374  0.4429  0.3192  0.7162
   69MOL0     O 9188   2.573  10.039   3.332 -0.1336  0.6040 -0.3358
   69MOL0     C 9189   2.666  10.147   3.347  0.3102 -0.3596 -0.8406
   69MOL0     C 9190   2.769  10.133   3.233 -0.3096  0.1958 -0.0541
   69MOL0     C 9191   2.869  10.251   3.214  0.7488  0.3131  0.5328
   69MOL0     C 9192   2.967  10.227   3.096 -0.6206 -0.8898 -0.2422
   69MOL0     C 9193   3.083  10.327   3.123 -0.2019 -0.6902 -0.0468
   69MOL0     C 9194   3.180  10.327   3.011  0.5287 -0.1649  0.1450
   69MOL0     C 9195   3.321  10.356   3.069 -0.3230 -1.7317 -0.0249
   69MOL0     C 9196   3.423  10.387   2.952 -0.2253  0.1458  1.0533
   69MOL0     N 9197   3.550  10.426   3.004 -0.1122  0.2842 -0.7119
   69MOL0     C 9198   3.637  10.338   3.062  0.5006 -0.7514  0.4227
   69MOL0     C 9199   3.743  10.400   3.099  0.2984  0.0167 -0.2670
   69MOL0     C 9200   3.866  10.345   3.169 -0.2082  0.4753  0.5981
   69MOL0     C 9201   3.989  10.312   3.081 -0.0783  0.9850 -0.6832
   69MOL0     C 9202   4.055  10.445   3.042 -0.3846 -0.1776  0.2894
   69MOL0     C 9203   4.196  10.431   2.971 -0.7509 -0.1018  0.3135
   69MOL0     O 9204   4.210  10.317   2.887 -0.4196  0.8756  0.0227
   69MOL0     C 9205   4.333  10.312   2.815  0.2687 -0.4100  0.2027
   69MOL0     C 9206   4.448  10.380   2.856 -0.2369  0.1927 -1.0319
   69MOL0     C 9207   4.570  10.356   2.800 -0.2919  0.0955  0.1416
   69MOL0     C 9208   4.587  10.278   2.680  0.9259  0.1805 -0.5100
   69MOL0     C 9209   4.713  10.263   2.609 -0.7096 -0.3032 -0.2153
   69MOL0     O 9210   4.715  10.198   2.488  0.1003 -1.1995  0.0816
   69MOL0     C 9211   4.830  10.218   2.418  1.0887  0.4927 -0.5227
   69MOL0     C 9212   4.908  10.105   2.385 -0.7343  0.4609  0.0861
   69MOL0     C 9213   5.020  10.126   2.295 -0.3203 -0.6421  0.1361
   69MOL0     C 9214   5.047  10.252   2.238 -0.0689 -0.2114  0.6242
   69MOL0     O 9215   5.154  10.267   2.150 -0.4222  0.1200 -0.1529
   69MOL0     C 9216   5.233  10.385   2.152  0.0406  0.2648  0.4748
   69MOL0     C 9217   5.350  10.362   2.063  0.6076  0.2255  0.2797
   69MOL0     C 9218   5.455  10.281   2.130 -0.6148  0.1023 -0.7411
   69MOL0     C 9219   5.570  10.237   2.039  0.5848  0.8281  0.6976
   69MOL0     C 9220   5.657  10.123   2.088 -0.7791 -0.6260  0.3539
   69MOL0     C 9221   5.795  10.120   2.016  0.0255 -0.2709  0.1272
   69MOL0     C 9222   5.874   9.997   2.059 -0.8067 -0.0141  0.5597
   69MOL0     C 9223   6.016  10.014   2.007  0.6580 -0.3556 -0.1120
   69MOL0    Cl 9224   6.122   9.878   2.060  0.2398 -0.6697 -0.1993
   69MOL0     C 9225   4.971  10.357   2.280  0.5498 -0.4580  0.0635
   69MOL0     C 9226   4.863  10.343   2.368  0.0922  0.5886 -0.4500
   69MOL0     O 9227   4.816  10.303   2.668  0.4721 -0.7811  0.5872
   69MOL0     C 9228   4.465  10.207   2.632 -0.3782 -0.4591  0.0338
   69MOL0     C 9229   4.344  10.224   2.707  0.0055  0.4092 -0.2619
   69MOL0     N 9230   3.721  10.532   3.079  0.5060  0.7121  0.1455
   69MOL0     N 9231   3.611  10.549   3.018  0.4520  0.1719 -0.1469
   69MOL0     C 9232   2.369   9.937   3.386 -0.3068  0.6907  0.5382
   69MOL0     C 9233   2.240   9.943   3.433 -0.0882 -0.9896  0.0598
   69MOL0     C 9234   1.871  10.124   3.651  0.8771 -0.0498 -0.2463
   69MOL0     C 9235   1.785  10.191   3.560  0.1941  0.6391  0.2266
   69MOL0     C 9236   1.655  10.216   3.588  0.0975  0.3235 -0.5803
   69MOL0     C 9237   1.589  10.162   3.690 -0.1715  0.1018 -0.3449
   69MOL0     O 9238   1.456  10.180   3.706 -1.1225  0.7443 -0.4543
   69MOL0     C 9239   1.387  10.144   3.833  0.6912 -0.5112 -0.5896
   69MOL0     C 9240   1.330  10.005   3.829  0.2105  0.4561  0.0139
   69MOL0     C 9241   1.180  10.017   3.789 -1.4053 -0.2186  0.0011
   69MOL0     C 9242   1.181  10.067   3.646 -0.0838 -0.0419 -0.0329
   69MOL0     C 9243   1.040  10.073   3.606 -0.9615  0.1088 -0.1518
   69MOL0     C 9244   0.924  10.070   3.583 -0.8631 -0.0274  0.7584
   69MOL0     C 9245   1.673  10.088   3.782  0.1297  0.1477  0.2078
   69MOL0     C 9246   1.817  10.074   3.774  0.2247 -0.1197 -0.7355
   69MOL0     C 9247   1.881   9.994   3.884 -0.1435  0.0033 -0.1402
   69MOL0     H 9248   2.236  10.275   3.515  1.5202 -0.3327  3.8855
   69MOL0     H 9249   2.452  10.270   3.415 -2.0219  2.2863  0.9629
   69MOL0     H 9250   2.623  10.247   3.339  0.3560  0.1174  2.7825
   69MOL0     H 9251   2.725  10.133   3.439  3.2737 -0.1125 -2.5755
   69MOL0     H 9252   2.712  10.114   3.142 -1.0553 -0.2003  0.4839
   69MOL0     H 9253   2.831  10.045   3.255  0.1979  0.5592  0.0073
   69MOL0     H 9254   2.923  10.255   3.309  0.0577 -0.6728  0.9819
   69MOL0     H 9255   2.808  10.342   3.200  0.9401  0.4903  0.8377
   69MOL0     H 9256   3.015  10.128   3.101  2.3577  0.4385 -0.2405
   69MOL0     H 9257   2.920  10.241   2.999  1.3429  2.5723 -0.8515
   69MOL0     H 9258   3.030  10.422   3.133 -0.6181 -0.9898  0.7312
   69MOL0     H 9259   3.140  10.297   3.211  1.8634 -0.4672 -1.2554
   69MOL0     H 9260   3.177  10.237   2.949 -0.9010 -0.0076 -0.0274
   69MOL0     H 9261   3.153  10.409   2.943  3.0340  3.0248  2.6477
   69MOL0     H 9262   3.359  10.271   3.127 -0.0730 -0.4639  1.7938
   69MOL0     H 9263   3.301  10.445   3.130 -0.5328  0.1686 -2.7275
   69MOL0     H 9264   3.438  10.299   2.889 -0.4497  0.4083  0.6301
   69MOL0     H 9265   3.377  10.458   2.883 -0.7916  0.2146  1.4856
   69MOL0     H 9266   3.627  10.230   3.064 -0.3940 -0.6876  0.1092
   69MOL0     H 9267   3.899  10.416   3.245 -3.1455  1.4210  1.1362
   69MOL0     H 9268   3.819  10.261   3.222 -3.8087  1.0487 -1.3738
   69MOL0     H 9269   4.060  10.258   3.144 -1.9525  1.0749  1.6515
   69MOL0     H 9270   3.958  10.245   3.000  2.7838 -1.0288 -0.2733
   69MOL0     H 9271   4.062  10.519   3.121 -1.1581 -0.8477  0.9992
   69MOL0     H 9272   3.996  10.491   2.962  2.2682  0.5210 -1.4088
   69MOL0     H 9273   4.269  10.417   3.051  0.4227  1.8210 -0.3515
   69MOL0     H 9274   4.223  10.521   2.915  0.2585 -1.0664 -0.8381
   69MOL0     H 9275   4.437  10.454   2.935  1.5164 -0.2981 -0.2801
   69MOL0     H 9276   4.665  10.398   2.832 -1.0730  1.7948  0.3557
   69MOL0     H 9277   4.881  10.010   2.429  0.8910 -0.8360 -1.5876
   69MOL0     H 9278   5.090  10.048   2.265 -2.4729 -1.8766 -2.0193
   69MOL0     H 9279   5.186  10.467   2.097 -0.6509  0.9299  2.0180
   69MOL0     H 9280   5.253  10.417   2.255  1.5067 -1.2575  0.6943
   69MOL0     H 9281   5.315  10.304   1.977 -1.4974  1.8175 -0.0393
   69MOL0     H 9282   5.379  10.459   2.020  0.3978 -0.4491 -1.4701
   69MOL0     H 9283   5.507  10.343   2.204  2.0182 -2.7459 -0.0435
   69MOL0     H 9284   5.403  10.193   2.168 -1.4920  1.1127  0.4734
   69MOL0     H 9285   5.632  10.324   2.014  0.6864  0.1251 -1.8222
   69MOL0     H 9286   5.527  10.205   1.944 -1.1290 -1.1544  2.0561
   69MOL0     H 9287   5.605  10.028   2.078 -0.5998 -0.5473 -1.9709
   69MOL0     H 9288   5.681  10.144   2.193  1.5333  3.8238 -0.8101
   69MOL0     H 9289   5.765  10.116   1.911  0.0771  1.3656  0.0279
   69MOL0     H 9290   5.847  10.213   2.040  0.4543 -0.8071  1.3437
   69MOL0     H 9291   5.825   9.910   2.016 -1.5878 -0.0914  1.5577
   69MOL0     H 9292   5.873   9.984   2.168 -0.6506 -0.3296  0.5253
   69MOL0     H 9293   6.015   9.998   1.899 -2.4849  0.1592 -0.2563
   69MOL0     H 9294   6.050  10.115   2.032  2.5659 -1.5007  2.2826
   69MOL0     H 9295   4.991  10.451   2.229 -0.8317  0.2870  0.8475
   69MOL0     H 9296   4.801  10.426   2.400  1.4784  0.6491  2.3756
   69MOL0     H 9297   4.468  10.148   2.541  1.0250  1.2738 -1.1235
   69MOL0     H 9298   4.254  10.167   2.690 -1.7310  3.0673 -0.6669
   69MOL0     H 9299   2.410   9.839   3.363 -3.1373 -1.3905  3.3471
   69MOL0     H 9300   2.165   9.865   3.430 -1.6694  0.3211  2.0912
   69MOL0     H 9301   1.836  10.208   3.466  2.1402  1.6307  1.3854
   69MOL0     H 9302   1.600  10.274   3.514 -0.8666  0.3984  0.1880
   69MOL0     H 9303   1.312  10.223   3.846  1.4425 -0.0588  1.3837
   69MOL0     H 9304   1.454  10.151   3.919 -1.1456 -2.9474  1.1846
   69MOL0     H 9305   1.333   9.956   3.927 -1.8290  0.1426 -0.0354
   69MOL0     H 9306   1.387   9.944   3.758 -0.4954  0.8291 -0.8903
   69MOL0     H 9307   1.111  10.078   3.849 -2.4800  1.1620 -2.4920
   69MOL0     H 9308   1.131   9.919   3.787 -1.6741 -0.1562  1.9078
   69MOL0     H 9309   1.220  10.169   3.639  0.6570 -0.3168 -0.0136
   69MOL0     H 9310   1.248  10.004   3.586 -2.4756 -0.5266 -2.3532
   69MOL0     H 9311   0.817  10.069   3.575 -1.0634 -3.3256  2.1157
   69MOL0     H 9312   1.633  10.047   3.874 -1.7818 -1.2141 -1.1378
   69MOL0     H 9313   1.824   9.988   3.977 -1.0353 -1.2006 -0.7505
   69MOL0     H 9314   1.889   9.890   3.851 -0.0500 -0.8278  2.2728
   69MOL0     H 9315   1.977  10.038   3.914 -1.1648  0.8200  2.1784
   70MOL0     O 9316  10.650   0.151   4.976  0.1111 -0.3776 -0.4488
   70MOL0     C 9317  10.640   0.093   4.876  0.2155 -0.2928  0.1732
   70MOL0     O 9318  10.750   0.050   4.801 -0.0760 -0.6662  0.4989
   70MOL0     C 9319  10.875   0.099   4.796  0.3960 -0.2735 -0.8462
   70MOL0     C 9320  10.928   0.212   4.866 -0.0102 -0.5857  0.0999
   70MOL0     C 9321  11.070   0.249   4.852 -0.0163 -0.3310  0.7644
   70MOL0     C 9322  11.156   0.170   4.774 -0.3897  0.1101  0.0975
   70MOL0     O 9323  11.295   0.187   4.778  0.2456 -0.1641 -0.3942
   70MOL0     C 9324  11.356   0.196   4.642  0.3857 -0.0033 -0.4073
   70MOL0     C 9325  11.506   0.211   4.656 -0.1492 -0.0514 -0.1729
   70MOL0     C 9326  11.600   0.183   4.530  0.5257 -0.3289  0.1112
   70MOL0     C 9327  11.722   0.258   4.571 -0.4220  1.2635  0.7891
   70MOL0     C 9328  11.835   0.221   4.463 -0.4856  0.1198  0.2155
   70MOL0     C 9329  11.959   0.315   4.475  0.5415 -0.1783  0.4737
   70MOL0     C 9330  11.921   0.454   4.434  0.7306  0.2375  0.0886
   70MOL0     C 9331  12.048   0.534   4.395 -0.9245  0.3686 -0.3995
   70MOL0     N 9332  12.104   0.576   4.521  0.0031  0.0169  0.0441
   70MOL0     C 9333  12.080   0.698   4.581  0.1010  0.4484  0.4494
   70MOL0     C 9334  12.170   0.711   4.678 -0.4370  1.4021  0.0354
   70MOL0     C 9335  12.177   0.834   4.764 -0.1696 -0.0371  0.2918
   70MOL0     C 9336  12.318   0.892   4.751 -0.7711  0.5007 -0.5450
   70MOL0     C 9337  12.325   1.019   4.836 -0.0554  0.1957 -0.3000
   70MOL0     C 9338  12.218   1.136   4.821  0.2774  0.1625  0.6816
   70MOL0     O 9339  12.209   1.186   4.690  0.1164  0.2525  0.2845
   70MOL0     C 9340  12.297   1.274   4.632 -0.5760  0.3696 -0.5421
   70MOL0     C 9341  12.423   1.309   4.688  0.2061  0.4998  0.1665
   70MOL0     C 9342  12.509   1.390   4.613  0.5686 -0.1146  0.1073
   70MOL0     C 9343  12.479   1.433   4.486 -0.3300  0.2531  0.1998
   70MOL0     C 9344  12.579   1.518   4.416 -0.0215  0.0833  0.0909
   70MOL0     O 9345  12.679   1.571   4.488 -0.1127  0.0724  1.0581
   70MOL0     C 9346  12.772   1.654   4.433 -0.6013 -0.4234 -0.4088
   70MOL0     C 9347  12.762   1.793   4.465 -0.4847 -0.9568 -0.3568
   70MOL0     C 9348  12.854   1.880   4.405  0.2769 -0.6595  0.4224
   70MOL0     C 9349  12.949   1.825   4.310 -0.0718 -0.7031  0.0990
   70MOL0     O 9350  13.030   1.911   4.240  0.0240  0.7218 -0.6107
   70MOL0     C 9351  13.173   1.899   4.261 -0.1758  0.5246  1.2228
   70MOL0     C 9352  13.209   1.939   4.404 -0.3591 -0.1662 -0.4134
   70MOL0     C 9353  13.351   1.913   4.436 -0.6516 -0.1448 -0.2231
   70MOL0     C 9354  13.452   2.003   4.359 -0.5884 -0.5374 -0.2576
   70MOL0     C 9355  13.601   1.967   4.390 -0.6615  0.3292 -0.1943
   70MOL0     C 9356  13.643   2.018   4.533 -0.5140  0.6488 -0.0529
   70MOL0     C 9357  13.774   1.946   4.579  0.5628 -0.9166 -0.1293
   70MOL0     C 9358  13.838   2.009   4.704  0.3228 -0.0549  0.9262
   70MOL0    Cl 9359  13.921   2.174   4.671  0.1066 -0.0714 -0.2272
   70MOL0     C 9360  12.961   1.690   4.279  0.0236  0.3893  0.4045
   70MOL0     C 9361  12.877   1.605   4.344  0.0910 -0.1561  0.4709
   70MOL0     O 9362  12.556   1.547   4.302 -0.3636 -0.7298  0.4636
   70MOL0     C 9363  12.360   1.393   4.422 -0.1947 -0.5711  0.3036
   70MOL0     C 9364  12.270   1.317   4.500 -0.5145 -0.4745 -0.6631
   70MOL0     N 9365  12.250   0.590   4.684 -0.3155 -0.0137  0.0598
   70MOL0     N 9366  12.200   0.512   4.595  0.0022 -0.1169 -0.9686
   70MOL0     C 9367  11.102   0.059   4.713  1.3971 -0.5260 -0.4884
   70MOL0     C 9368  10.966   0.021   4.722 -0.4187  0.0501 -0.5358
   70MOL0     C 9369  10.513   0.029   4.837  0.1684 -0.1685 -0.3150
   70MOL0     C 9370  10.519  -0.109   4.802 -0.5789 -0.2945  0.0539
   70MOL0     C 9371  10.401  -0.172   4.766 -0.0534  0.0665 -0.2578
   70MOL0     C 9372  10.277  -0.110   4.765 -0.4043  0.4959  0.3004
   70MOL0     O 9373  10.179  -0.196   4.730 -0.4141 -0.6818 -0.1478
   70MOL0     C 9374  10.046  -0.144   4.749  0.0743  0.0711 -0.8955
   70MOL0     C 9375   9.957  -0.264   4.721  1.1106 -0.1893  0.8635
   70MOL0     C 9376   9.917  -0.282   4.571  0.7108  0.1176  0.0906
   70MOL0     C 9377   9.793  -0.361   4.554  0.1006 -0.0916 -0.2188
   70MOL0     C 9378   9.803  -0.495   4.624 -0.2565  0.1564  0.3395
   70MOL0     C 9379   9.816  -0.597   4.681 -1.4616 -0.2444  0.7117
   70MOL0     C 9380  10.275   0.017   4.807  0.0341 -0.2680 -0.1695
   70MOL0     C 9381  10.386   0.092   4.840 -0.8021 -0.1660  0.6878
   70MOL0     C 9382  10.375   0.234   4.868 -0.2388 -0.2377  0.2631
   70MOL0     H 9383  10.863   0.273   4.928 -1.1034 -2.7296  1.1818
   70MOL0     H 9384  11.124   0.323   4.910 -0.1481  0.6861 -0.3937
   70MOL0     H 9385  11.342   0.105   4.584 -0.2098 -0.3093  0.1963
   70MOL0     H 9386  11.318   0.282   4.586 -1.5597 -0.3362  0.3009
   70MOL0     H 9387  11.529   0.143   4.738 -1.3192  0.5706  0.6844
   70MOL0     H 9388  11.521   0.313   4.692 -1.1953 -0.0562  0.3128
   70MOL0     H 9389  11.551   0.198   4.433 -2.8176 -0.0193  1.6801
   70MOL0     H 9390  11.621   0.076   4.519 -1.0787 -0.7611  0.8825
   70MOL0     H 9391  11.697   0.364   4.565 -3.2773  0.8061  2.9405
   70MOL0     H 9392  11.755   0.234   4.672 -1.2488 -0.0943  0.7565
   70MOL0     H 9393  11.871   0.118   4.474 -0.8575 -0.7707 -4.7265
   70MOL0     H 9394  11.795   0.227   4.361  0.6210  0.5847 -0.2058
   70MOL0     H 9395  12.003   0.315   4.576  0.0781 -0.3007  0.6798
   70MOL0     H 9396  12.039   0.280   4.409  1.0209  0.9625  0.4311
   70MOL0     H 9397  11.874   0.512   4.513  0.2508  0.1684 -0.1422
   70MOL0     H 9398  11.856   0.446   4.346  0.9224  0.3358 -0.0622
   70MOL0     H 9399  12.127   0.476   4.346  1.7895 -0.7344  4.5926
   70MOL0     H 9400  12.026   0.624   4.337  0.0700  0.2368 -0.9970
   70MOL0     H 9401  12.010   0.774   4.547  1.4250  0.9534 -1.2947
   70MOL0     H 9402  12.114   0.917   4.732  2.0520  2.3149  1.6221
   70MOL0     H 9403  12.159   0.803   4.867  0.7169  0.3697  0.5838
   70MOL0     H 9404  12.388   0.819   4.794 -1.0960 -0.5074 -1.6722
   70MOL0     H 9405  12.362   0.911   4.653  0.8551  0.1735  0.0854
   70MOL0     H 9406  12.421   1.061   4.804  0.2704  0.3959  0.8871
   70MOL0     H 9407  12.334   0.989   4.941 -5.7213  3.2535  1.4893
   70MOL0     H 9408  12.244   1.220   4.886  0.7958 -1.8874  3.2970
   70MOL0     H 9409  12.117   1.100   4.841  0.0755  0.7176  0.6653
   70MOL0     H 9410  12.463   1.270   4.781 -1.4393 -1.1005  0.2477
   70MOL0     H 9411  12.606   1.406   4.660  0.1646  0.9628  0.6139
   70MOL0     H 9412  12.671   1.822   4.515  0.0646  0.1381  0.0303
   70MOL0     H 9413  12.844   1.988   4.415 -1.3197 -0.7154 -0.2540
   70MOL0     H 9414  13.206   1.796   4.251 -0.2578  0.5116  1.0853
   70MOL0     H 9415  13.235   1.952   4.187 -0.4562 -0.3262  0.3540
   70MOL0     H 9416  13.197   2.047   4.416 -0.9535 -0.3976  1.2838
   70MOL0     H 9417  13.147   1.891   4.480  1.7139 -1.6167  0.4459
   70MOL0     H 9418  13.362   1.920   4.545  0.1700  1.9793 -0.4050
   70MOL0     H 9419  13.370   1.809   4.406 -2.3701  0.1718 -2.6644
   70MOL0     H 9420  13.427   2.103   4.396 -1.8647 -0.9505  0.0620
   70MOL0     H 9421  13.428   2.003   4.252  0.7856 -2.0874 -0.5982
   70MOL0     H 9422  13.661   2.015   4.312 -1.5668 -2.7912 -3.0288
   70MOL0     H 9423  13.615   1.859   4.393  0.6283  0.4638  2.9822
   70MOL0     H 9424  13.652   2.125   4.514 -0.7358  0.1816 -3.2918
   70MOL0     H 9425  13.561   2.007   4.604  0.4210  0.6257  1.0632
   70MOL0     H 9426  13.851   1.953   4.502 -0.8678  1.8230 -1.4848
   70MOL0     H 9427  13.759   1.840   4.599  1.2456 -0.9459  0.2621
   70MOL0     H 9428  13.753   2.014   4.774 -1.0484  0.0413 -0.6759
   70MOL0     H 9429  13.907   1.940   4.752  3.0041  1.3395 -0.7029
   70MOL0     H 9430  13.047   1.661   4.220  3.8032  0.8135  5.0497
   70MOL0     H 9431  12.875   1.497   4.329 -0.7223 -0.3760  1.9712
   70MOL0     H 9432  12.330   1.429   4.324  2.0509  1.0862  0.1553
   70MOL0     H 9433  12.175   1.287   4.457 -0.5822 -0.4913 -0.4995
   70MOL0     H 9434  11.163  -0.021   4.673 -2.5805 -3.6668 -1.0036
   70MOL0     H 9435  10.944  -0.075   4.675  0.1071 -0.6418  0.5926
   70MOL0     H 9436  10.612  -0.163   4.811 -0.1114  0.4145 -0.3830
   70MOL0     H 9437  10.410  -0.271   4.723 -1.0568  0.2747 -0.9857
   70MOL0     H 9438  10.046  -0.063   4.676 -0.8465  0.4630 -0.4741
   70MOL0     H 9439  10.026  -0.104   4.849  0.7517 -1.9769  0.1313
   70MOL0     H 9440   9.865  -0.248   4.778  1.0195 -0.6811  0.8527
   70MOL0     H 9441  10.000  -0.360   4.751  4.2256 -0.0465 -2.4987
   70MOL0     H 9442   9.987  -0.330   4.501 -1.8031 -0.6379 -2.0659
   70MOL0     H 9443   9.893  -0.184   4.527 -3.1495 -1.4172 -1.6236
   70MOL0     H 9444   9.700  -0.324   4.598  1.5223  2.1267  1.1141
   70MOL0     H 9445   9.769  -0.381   4.449 -0.9605  2.4344 -0.5162
   70MOL0     H 9446   9.822  -0.697   4.718 -1.7352  0.1586  1.8791
   70MOL0     H 9447  10.183   0.074   4.800  0.7149  0.9428  0.4608
   70MOL0     H 9448  10.422   0.259   4.964 -1.7723 -1.8029  1.4721
   70MOL0     H 9449  10.451   0.287   4.809 -1.0440  1.5895  0.7909
   70MOL0     H 9450  10.282   0.289   4.851 -0.4129 -0.3169  0.9513
   71MOL0     O 9451   3.288   6.796   3.508  0.1640 -0.1733 -0.0749
   71MOL0     C 9452   3.238   6.912   3.490  0.5322 -0.6273 -1.3272
   71MOL0     O 9453   3.271   7.019   3.569  0.3447 -0.6365 -0.2040
   71MOL0     C 9454   3.379   7.021   3.662 -0.1407 -0.3672 -0.5635
   71MOL0     C 9455   3.368   7.094   3.786 -1.0267 -0.7317  0.3924
   71MOL0     C 9456   3.484   7.108   3.876  0.4068  0.9428  0.0047
   71MOL0     C 9457   3.605   7.043   3.845 -0.1231  0.1550 -0.5465
   71MOL0     O 9458   3.710   7.063   3.930  0.2979  0.5918 -0.8102
   71MOL0     C 9459   3.843   7.036   3.887 -0.0884 -0.1868 -0.3786
   71MOL0     C 9460   3.950   7.073   3.990 -0.5052  0.1619  0.5614
   71MOL0     C 9461   3.953   7.222   4.020 -0.1206 -0.0246  0.5153
   71MOL0     C 9462   4.038   7.250   4.142  0.5100 -0.3029 -0.1630
   71MOL0     C 9463   4.028   7.401   4.170 -0.0811  0.5355  0.4343
   71MOL0     C 9464   4.122   7.437   4.296 -0.2491  0.1681  0.8101
   71MOL0     C 9465   4.270   7.455   4.258  0.3726 -0.7764  0.0820
   71MOL0     C 9466   4.301   7.581   4.175  0.2848  0.2053 -0.6788
   71MOL0     N 9467   4.443   7.613   4.178 -0.6858 -0.1392  0.1064
   71MOL0     C 9468   4.528   7.636   4.073 -0.9860 -0.4211 -0.5311
   71MOL0     C 9469   4.646   7.689   4.117  0.2380 -0.0020 -0.2577
   71MOL0     C 9470   4.763   7.725   4.024  0.1875  1.1354  0.1956
   71MOL0     C 9471   4.893   7.764   4.087 -0.1482 -0.7890  0.3047
   71MOL0     C 9472   5.008   7.789   3.990  0.1977  0.5807  0.0573
   71MOL0     C 9473   5.129   7.835   4.077 -0.8934 -0.2285 -0.9138
   71MOL0     O 9474   5.227   7.889   3.988 -0.5036 -0.2578 -0.2173
   71MOL0     C 9475   5.356   7.910   4.037 -0.4659 -0.7933 -0.7316
   71MOL0     C 9476   5.395   7.914   4.176 -0.5791  0.3330  0.3961
   71MOL0     C 9477   5.532   7.914   4.211  0.4175 -0.4469  0.8858
   71MOL0     C 9478   5.633   7.917   4.113 -0.0269 -0.5546  0.8178
   71MOL0     C 9479   5.777   7.906   4.139 -0.7491 -0.5677 -0.3022
   71MOL0     O 9480   5.862   7.898   4.028 -0.3228  0.7600 -0.1106
   71MOL0     C 9481   5.995   7.862   4.055 -0.1535  0.2254  0.7909
   71MOL0     C 9482   6.023   7.731   4.103 -0.5190 -1.4030  0.5539
   71MOL0     C 9483   6.154   7.681   4.109 -0.4786 -1.1401 -0.3368
   71MOL0     C 9484   6.258   7.774   4.082  0.1178  0.2831 -0.5338
   71MOL0     O 9485   6.379   7.730   4.094 -0.8511 -0.8321  0.0077
   71MOL0     C 9486   6.463   7.765   3.983 -0.9162 -0.2140  1.2341
   71MOL0     C 9487   6.594   7.679   3.987  0.3981  0.3466 -0.1006
   71MOL0     C 9488   6.709   7.702   3.881  0.1976  0.3250 -0.7024
   71MOL0     C 9489   6.808   7.591   3.897 -0.0284  1.3747  0.8830
   71MOL0     C 9490   6.916   7.582   3.787  0.9154  0.0213  0.0293
   71MOL0     C 9491   6.871   7.554   3.650  0.2648  0.4950 -0.8061
   71MOL0     C 9492   6.992   7.556   3.552  0.0477  0.8330  0.1977
   71MOL0     C 9493   6.938   7.518   3.414 -0.0883  0.3016  0.6852
   71MOL0    Cl 9494   7.060   7.534   3.288 -0.2188 -0.1969  0.0072
   71MOL0     C 9495   6.232   7.904   4.032 -0.7947 -0.0085 -0.4293
   71MOL0     C 9496   6.094   7.951   4.021 -0.5380 -0.3749 -0.1982
   71MOL0     O 9497   5.811   7.896   4.258 -0.5254 -0.5141 -0.8432
   71MOL0     C 9498   5.589   7.915   3.975  0.4455 -0.5550 -0.1602
   71MOL0     C 9499   5.455   7.920   3.943 -0.2273 -1.2708  0.0519
   71MOL0     N 9500   4.631   7.712   4.253 -0.1216 -0.4729 -0.1943
   71MOL0     N 9501   4.512   7.665   4.283 -0.4720 -0.5849 -0.0992
   71MOL0     C 9502   3.611   6.959   3.735  0.0999  0.3083  0.7232
   71MOL0     C 9503   3.508   6.947   3.644  0.1561  0.2363  0.0516
   71MOL0     C 9504   3.128   6.922   3.404 -0.0804 -0.6787 -0.3231
   71MOL0     C 9505   3.122   6.827   3.305  0.6144 -0.1474 -0.2350
   71MOL0     C 9506   3.016   6.821   3.213  0.3402  0.3009  0.8802
   71MOL0     C 9507   2.919   6.923   3.215 -0.9808 -0.8172 -0.3410
   71MOL0     O 9508   2.816   6.922   3.129  0.4372  0.2046 -0.0408
   71MOL0     C 9509   2.792   6.813   3.040  0.2201  0.6328 -0.1978
   71MOL0     C 9510   2.663   6.827   2.972 -0.0816 -0.0533  0.2470
   71MOL0     C 9511   2.543   6.805   3.070 -0.7808 -0.7795 -0.1653
   71MOL0     C 9512   2.405   6.820   3.004  0.4112  0.1586  0.7444
   71MOL0     C 9513   2.383   6.949   2.939  0.1246 -0.0023 -0.1880
   71MOL0     C 9514   2.346   7.061   2.893  0.1910  0.8466  0.8370
   71MOL0     C 9515   2.932   7.024   3.315 -0.2444 -0.2716  0.2880
   71MOL0     C 9516   3.033   7.025   3.410  0.3898 -0.6600 -0.1105
   71MOL0     C 9517   3.014   7.138   3.512 -0.1205  0.1172 -0.1802
   71MOL0     H 9518   3.279   7.143   3.823 -1.7637 -0.9834 -0.9615
   71MOL0     H 9519   3.482   7.175   3.961  2.2055  1.2858 -0.1696
   71MOL0     H 9520   3.859   6.929   3.867  0.9509  0.4886 -3.6988
   71MOL0     H 9521   3.848   7.090   3.792  1.2133 -1.1865 -0.9061
   71MOL0     H 9522   4.041   7.039   3.940 -2.2419 -0.6829 -2.2798
   71MOL0     H 9523   3.939   7.019   4.084  1.0189 -1.5258 -0.1785
   71MOL0     H 9524   3.849   7.251   4.039 -0.0793 -0.5356  1.5863
   71MOL0     H 9525   3.989   7.275   3.931 -2.3830 -3.2646 -2.5810
   71MOL0     H 9526   3.997   7.197   4.228 -0.3824 -1.8119 -1.4699
   71MOL0     H 9527   4.141   7.218   4.126  0.7429  1.3221 -2.4558
   71MOL0     H 9528   4.057   7.453   4.078 -1.1363 -0.5497 -0.5297
   71MOL0     H 9529   3.928   7.438   4.197  0.7942  3.3916  0.1704
   71MOL0     H 9530   4.087   7.523   4.354 -0.1355  0.9236 -0.2044
   71MOL0     H 9531   4.115   7.347   4.358  0.4007 -0.3073  0.2146
   71MOL0     H 9532   4.301   7.365   4.203 -0.9394 -2.6856  2.2642
   71MOL0     H 9533   4.327   7.460   4.351  0.9462  1.7345 -0.3472
   71MOL0     H 9534   4.271   7.556   4.073 -3.9315 -1.7749  0.8206
   71MOL0     H 9535   4.236   7.658   4.218  0.5587 -1.1449  2.4594
   71MOL0     H 9536   4.499   7.618   3.970  1.6832  1.8561 -1.8088
   71MOL0     H 9537   4.772   7.628   3.973 -2.7721  0.2743  1.0960
   71MOL0     H 9538   4.735   7.809   3.960 -3.6235  0.4080  0.6239
   71MOL0     H 9539   4.869   7.847   4.154 -0.7528  0.7837 -1.7553
   71MOL0     H 9540   4.919   7.683   4.155  2.0076 -1.7697 -1.5793
   71MOL0     H 9541   4.983   7.854   3.906  0.5373 -2.4763 -2.6012
   71MOL0     H 9542   5.024   7.698   3.930 -0.7836  0.2224  0.3261
   71MOL0     H 9543   5.175   7.747   4.124  0.2848  1.4364  1.2302
   71MOL0     H 9544   5.116   7.909   4.156  2.1052  0.8887 -1.3410
   71MOL0     H 9545   5.326   7.916   4.259 -1.4091 -0.3651 -0.2641
   71MOL0     H 9546   5.557   7.920   4.317 -2.2619 -0.3654  1.5757
   71MOL0     H 9547   5.942   7.668   4.138  0.4045 -0.8653  4.0342
   71MOL0     H 9548   6.180   7.586   4.154  1.2184 -0.1770  0.8222
   71MOL0     H 9549   6.428   7.723   3.888  0.6611 -1.6975  1.2671
   71MOL0     H 9550   6.500   7.867   3.972  0.1689 -0.8811 -2.6463
   71MOL0     H 9551   6.632   7.699   4.088 -3.1297 -0.9077  1.6699
   71MOL0     H 9552   6.560   7.574   3.986  3.0052 -0.5533 -0.1757
   71MOL0     H 9553   6.665   7.704   3.780  1.4406 -0.2512 -1.2768
   71MOL0     H 9554   6.750   7.804   3.889  0.5265  0.0723  1.0652
   71MOL0     H 9555   6.752   7.497   3.894 -0.2729  1.5375 -0.1240
   71MOL0     H 9556   6.858   7.603   3.993 -1.9058  4.3468  1.6223
   71MOL0     H 9557   6.993   7.506   3.805 -0.9629 -2.1542 -0.6516
   71MOL0     H 9558   6.977   7.672   3.798  3.1405 -1.6002  2.0981
   71MOL0     H 9559   6.825   7.456   3.664 -0.5867  0.6664 -2.2103
   71MOL0     H 9560   6.796   7.627   3.617 -0.6984 -0.5581 -0.9798
   71MOL0     H 9561   7.073   7.495   3.593  0.8149  0.9572 -1.0843
   71MOL0     H 9562   7.035   7.656   3.548  1.2644  0.2873 -1.2580
   71MOL0     H 9563   6.908   7.413   3.425 -0.4582  0.6304  4.1464
   71MOL0     H 9564   6.850   7.579   3.391 -0.1091 -0.8723 -3.0491
   71MOL0     H 9565   6.314   7.971   4.007  2.1076 -3.3354 -0.5814
   71MOL0     H 9566   6.060   8.045   3.979 -1.4908 -0.3210  0.6299
   71MOL0     H 9567   5.660   7.912   3.893 -0.7524 -5.1098 -1.3362
   71MOL0     H 9568   5.427   7.920   3.838  0.8571 -0.8414 -0.2503
   71MOL0     H 9569   3.696   6.899   3.705  2.8330  2.5926  3.2908
   71MOL0     H 9570   3.522   6.890   3.553  1.8667  1.9426 -0.8499
   71MOL0     H 9571   3.204   6.756   3.297  1.0309  0.4458 -1.7322
   71MOL0     H 9572   3.011   6.732   3.150 -1.1665  1.2162 -0.3582
   71MOL0     H 9573   2.784   6.722   3.100 -0.1369 -0.7118 -2.1784
   71MOL0     H 9574   2.876   6.798   2.971  3.0875  0.1293  3.1226
   71MOL0     H 9575   2.656   6.752   2.893  1.5958  0.7150 -0.6836
   71MOL0     H 9576   2.653   6.924   2.923  1.2741  0.3192  0.6407
   71MOL0     H 9577   2.545   6.883   3.147  2.3671 -0.3026 -0.6120
   71MOL0     H 9578   2.541   6.712   3.128 -1.2787 -0.7092 -0.0667
   71MOL0     H 9579   2.374   6.745   2.931  0.1026 -0.3960  1.4333
   71MOL0     H 9580   2.343   6.818   3.094 -2.4472  2.2757 -1.0134
   71MOL0     H 9581   2.320   7.152   2.842 -1.4403  3.0307  5.0588
   71MOL0     H 9582   2.849   7.094   3.307 -1.0730 -1.4515 -3.1342
   71MOL0     H 9583   3.026   7.234   3.460 -1.3267 -0.8328 -2.3552
   71MOL0     H 9584   2.912   7.128   3.550 -2.3641 -0.5348 -5.4111
   71MOL0     H 9585   3.076   7.127   3.601 -1.2071  1.6283  0.8033
   72MOL0     O 9586   7.986   4.398  10.234  0.1850 -0.4558 -0.6557
   72MOL0     C 9587   7.926   4.366  10.128 -0.0418 -0.1237 -0.3629
   72MOL0     O 9588   7.982   4.299  10.026 -0.2697 -0.0882 -0.2258
   72MOL0     C 9589   8.119   4.321  10.006 -0.3723  0.5609 -0.4657
   72MOL0     C 9590   8.153   4.403   9.902  0.4140 -0.3116 -0.3525
   72MOL0     C 9591   8.281   4.427   9.868  0.1769 -0.1300  0.2628
   72MOL0     C 9592   8.383   4.372   9.942 -0.2729  0.1910  0.1273
   72MOL0     O 9593   8.521   4.386   9.919 -0.2221 -0.1542  0.5028
   72MOL0     C 9594   8.558   4.458   9.801 -0.2018 -0.0382  0.0123
   72MOL0     C 9595   8.709   4.448   9.779  0.1374  0.4612  0.1470
   72MOL0     C 9596   8.779   4.531   9.889  0.0367  0.0246 -0.3767
   72MOL0     C 9597   8.933   4.550   9.858  0.0735 -0.2638 -0.2913
   72MOL0     C 9598   9.010   4.646   9.942 -0.4601 -0.5090  0.1179
   72MOL0     C 9599   9.152   4.678   9.895 -0.1952 -0.3069 -0.2129
   72MOL0     C 9600   9.231   4.751  10.007  0.1562 -0.0262 -0.0626
   72MOL0     C 9601   9.384   4.753   9.992  0.3815 -0.5516 -0.1003
   72MOL0     N 9602   9.451   4.840  10.087 -0.6324  0.6505  0.5401
   72MOL0     C 9603   9.436   4.835  10.230  1.1166 -0.1845  0.7491
   72MOL0     C 9604   9.532   4.920  10.264  0.5856 -0.1539  0.0736
   72MOL0     C 9605   9.587   4.940  10.403 -0.3267  0.7191  0.0699
   72MOL0     C 9606   9.734   4.885  10.421 -0.7950 -0.4265 -0.4306
   72MOL0     C 9607   9.800   4.899  10.564 -0.1324 -0.4381  0.5460
   72MOL0     C 9608   9.942   4.845  10.579 -0.5023  0.3563 -0.2709
   72MOL0     O 9609   9.961   4.884  10.707  0.6809 -0.4008  0.2822
   72MOL0     C 9610  10.086   4.858  10.762  0.4906 -0.1069  0.0689
   72MOL0     C 9611  10.115   4.911  10.884 -0.1312  0.8076  0.0838
   72MOL0     C 9612  10.233   4.889  10.949 -0.2926 -0.4806  0.5427
   72MOL0     C 9613  10.339   4.829  10.878  1.1436  0.0669  0.5395
   72MOL0     C 9614  10.479   4.838  10.926  0.4487  0.1175  0.2770
   72MOL0     O 9615  10.494   4.875  11.056  0.5548 -0.1121  0.1222
   72MOL0     C 9616  10.614   4.843  11.117  0.7930  0.8509  0.8381
   72MOL0     C 9617  10.658   4.706  11.120 -0.2959 -0.5220 -0.3413
   72MOL0     C 9618  10.785   4.684  11.171  0.2468  0.3658  0.4701
   72MOL0     C 9619  10.870   4.783  11.216 -0.1515  0.0357 -0.0265
   72MOL0     O 9620  11.001   4.762  11.245 -0.4990  0.2116 -0.2295
   72MOL0     C 9621  11.063   4.632  11.266 -0.0099 -0.4106  0.5464
   72MOL0     C 9622  11.213   4.649  11.315 -0.6663  0.0514  0.4494
   72MOL0     C 9623  11.271   4.519  11.358  0.0944 -0.5463  0.0421
   72MOL0     C 9624  11.406   4.533  11.423 -0.4531 -0.1895  0.3745
   72MOL0     C 9625  11.477   4.403  11.436  0.4945  0.9991 -0.6675
   72MOL0     C 9626  11.617   4.418  11.513 -0.1659 -0.0270 -0.6784
   72MOL0     C 9627  11.678   4.280  11.551  0.1637  0.8689  0.5858
   72MOL0     C 9628  11.804   4.297  11.635 -0.0388  0.3972 -0.1087
   72MOL0    Cl 9629  11.829   4.148  11.733 -0.0672  0.5668 -0.2638
   72MOL0     C 9630  10.824   4.916  11.221  0.6059  0.0570  0.4578
   72MOL0     C 9631  10.699   4.945  11.173 -0.1215  0.5433 -0.3477
   72MOL0     O 9632  10.574   4.806  10.848 -0.8958 -1.3570  0.7348
   72MOL0     C 9633  10.307   4.761  10.765  0.3225 -0.6536  0.1269
   72MOL0     C 9634  10.178   4.760  10.711  0.6636 -0.0379 -0.5001
   72MOL0     N 9635   9.591   4.972  10.151 -0.9353 -0.0485  0.4527
   72MOL0     N 9636   9.541   4.928  10.038 -0.3161 -0.1241  0.1080
   72MOL0     C 9637   8.354   4.295  10.051  0.4231 -0.6906 -0.6289
   72MOL0     C 9638   8.222   4.269  10.092  0.1963  0.5614 -0.4564
   72MOL0     C 9639   7.781   4.393  10.111  0.1185  0.0825  0.0556
   72MOL0     C 9640   7.746   4.464   9.989  0.0103  0.4255  0.5848
   72MOL0     C 9641   7.614   4.502   9.957  0.0937  0.6103 -0.0038
   72MOL0     C 9642   7.517   4.455  10.044  0.7024  0.6677  0.6916
   72MOL0     O 9643   7.394   4.494  10.008  0.5859 -0.1725  0.0165
   72MOL0     C 9644   7.284   4.462  10.093 -0.3701 -0.1903  0.5139
   72MOL0     C 9645   7.152   4.515  10.037 -0.5293 -0.5322  0.0175
   72MOL0     C 9646   7.032   4.439  10.094 -0.2481  0.7408 -0.1006
   72MOL0     C 9647   7.026   4.407  10.245  0.2826  0.5450  0.2813
   72MOL0     C 9648   6.902   4.342  10.269  0.0824 -0.5686 -0.7790
   72MOL0     C 9649   6.789   4.296  10.283 -0.2003 -0.0559 -0.2772
   72MOL0     C 9650   7.545   4.388  10.163  0.5850  0.6201 -0.3753
   72MOL0     C 9651   7.680   4.362  10.203 -0.7494  0.2952  0.4212
   72MOL0     C 9652   7.706   4.298  10.335 -0.0685  0.1709  0.3729
   72MOL0     H 9653   8.079   4.450   9.838  1.7744  1.0690 -0.9531
   72MOL0     H 9654   8.299   4.483   9.777  1.3870  1.5356  1.4634
   72MOL0     H 9655   8.519   4.404   9.714  0.0770  0.1883 -0.2593
   72MOL0     H 9656   8.520   4.560   9.797  0.9679  0.3848 -0.9119
   72MOL0     H 9657   8.731   4.501   9.686 -1.5003  0.8477 -0.0558
   72MOL0     H 9658   8.759   4.351   9.783  4.7659  2.5116 -1.1997
   72MOL0     H 9659   8.778   4.478   9.985 -0.2739  0.2088 -0.2744
   72MOL0     H 9660   8.731   4.629   9.903  0.8806  0.3194  0.5888
   72MOL0     H 9661   8.970   4.448   9.874 -1.0902 -0.2854  3.2532
   72MOL0     H 9662   8.945   4.577   9.753 -1.0665  0.3185 -0.2828
   72MOL0     H 9663   8.953   4.739   9.939 -0.9619 -0.8205 -1.6165
   72MOL0     H 9664   9.015   4.612  10.045  2.6503 -2.5749 -0.5788
   72MOL0     H 9665   9.200   4.581   9.881  0.3688 -0.2663  1.2667
   72MOL0     H 9666   9.154   4.730   9.798  0.1023 -1.5462 -0.8839
   72MOL0     H 9667   9.213   4.709  10.107  1.8735  0.0502  0.3138
   72MOL0     H 9668   9.200   4.855  10.019 -0.4528 -0.1136 -0.8481
   72MOL0     H 9669   9.424   4.652  10.008  0.7642 -0.3575  0.1986
   72MOL0     H 9670   9.409   4.791   9.893 -0.5810  0.1694 -0.0786
   72MOL0     H 9671   9.375   4.772  10.293  0.5245 -0.8660 -0.4785
   72MOL0     H 9672   9.586   5.046  10.431 -0.1857  0.1881  2.1970
   72MOL0     H 9673   9.521   4.877  10.462  0.2493  0.1191  0.0847
   72MOL0     H 9674   9.727   4.778  10.404 -1.5562 -0.7122  1.5167
   72MOL0     H 9675   9.797   4.937  10.348 -0.8902  0.0989 -0.1474
   72MOL0     H 9676   9.729   4.848  10.630 -0.6296  1.2025  1.3309
   72MOL0     H 9677   9.794   5.006  10.589 -0.9860 -0.1700 -0.7193
   72MOL0     H 9678  10.017   4.876  10.505 -1.0636  2.0283 -0.1634
   72MOL0     H 9679   9.938   4.735  10.572 -0.0109  0.4251 -3.6712
   72MOL0     H 9680  10.029   4.967  10.921 -0.6021 -0.8869  1.7196
   72MOL0     H 9681  10.248   4.939  11.044  0.5064  1.6534 -0.6317
   72MOL0     H 9682  10.601   4.617  11.094  0.2360 -1.6660  2.1313
   72MOL0     H 9683  10.821   4.582  11.177 -0.0488  0.3201  1.6729
   72MOL0     H 9684  11.012   4.572  11.341 -0.9048  0.3773  0.5864
   72MOL0     H 9685  11.063   4.568  11.177  2.8997  2.1436 -1.5203
   72MOL0     H 9686  11.274   4.691  11.234  0.4457 -0.4986  0.9689
   72MOL0     H 9687  11.218   4.720  11.398  0.3419  0.1162  0.3488
   72MOL0     H 9688  11.208   4.466  11.430 -0.2429  0.8306  0.8041
   72MOL0     H 9689  11.273   4.462  11.265 -0.5040 -1.3325  0.4986
   72MOL0     H 9690  11.392   4.580  11.521  2.4242 -0.1027  0.8188
   72MOL0     H 9691  11.463   4.606  11.365 -0.2917 -0.5745  0.0449
   72MOL0     H 9692  11.491   4.358  11.337  1.1610 -0.9814  0.2665
   72MOL0     H 9693  11.416   4.333  11.493  1.0997 -1.5961 -2.9643
   72MOL0     H 9694  11.679   4.472  11.441 -1.0843  1.9325 -0.0691
   72MOL0     H 9695  11.600   4.480  11.601 -3.6238 -3.2386  1.2185
   72MOL0     H 9696  11.710   4.223  11.463  2.1500  2.6707  0.0689
   72MOL0     H 9697  11.606   4.217  11.606  0.9535 -3.9489 -3.1405
   72MOL0     H 9698  11.885   4.331  11.570 -1.0210  2.3273 -0.3948
   72MOL0     H 9699  11.791   4.365  11.719  0.5329 -0.5307  0.7474
   72MOL0     H 9700  10.897   4.988  11.257  1.4547  0.9789 -2.7340
   72MOL0     H 9701  10.675   5.050  11.166  0.7637  0.8677  1.1016
   72MOL0     H 9702  10.386   4.698  10.725  0.3557 -0.4347 -0.1579
   72MOL0     H 9703  10.147   4.695  10.629 -1.8102 -0.2455  0.5245
   72MOL0     H 9704   8.434   4.253  10.112  0.3556 -0.6101 -0.4829
   72MOL0     H 9705   8.190   4.216  10.181 -0.6156 -0.3881 -1.2752
   72MOL0     H 9706   7.817   4.497   9.914  0.1940 -0.1464  0.4967
   72MOL0     H 9707   7.601   4.549   9.860  1.7958  0.4361 -0.3581
   72MOL0     H 9708   7.301   4.504  10.193  3.4312 -0.3632  0.0692
   72MOL0     H 9709   7.275   4.355  10.114 -1.1717 -0.3906 -0.7269
   72MOL0     H 9710   7.163   4.508   9.929  3.0724  2.2495 -0.0060
   72MOL0     H 9711   7.142   4.624  10.041  0.8865 -0.3873 -0.0260
   72MOL0     H 9712   7.030   4.340  10.047 -4.9157  0.1705  0.8162
   72MOL0     H 9713   6.935   4.476  10.058 -0.8011 -0.4098  0.1598
   72MOL0     H 9714   7.112   4.344  10.270  1.3567  2.4379  1.6751
   72MOL0     H 9715   7.020   4.498  10.306 -2.1834  0.4038  0.3344
   72MOL0     H 9716   6.693   4.251  10.295 -0.7661  1.3610  0.9005
   72MOL0     H 9717   7.466   4.355  10.230  0.3513  0.6422 -0.6430
   72MOL0     H 9718   7.611   4.263  10.376  1.1392 -0.2384  2.9951
   72MOL0     H 9719   7.770   4.210  10.331  0.6285  0.6847 -2.7053
   72MOL0     H 9720   7.754   4.377  10.393 -1.2681  1.3916 -0.2246
   73MOL0     O 9721   3.917   8.947   1.790 -0.1258  0.5726 -0.4550
   73MOL0     C 9722   3.905   9.033   1.867 -0.1310 -0.1334 -0.2777
   73MOL0     O 9723   4.009   9.066   1.958 -0.3227  0.6471  0.8434
   73MOL0     C 9724   4.144   9.039   1.928 -0.0566 -1.2055  0.4917
   73MOL0     C 9725   4.197   9.040   1.796  1.0522 -0.5294  0.1854
   73MOL0     C 9726   4.333   9.016   1.779  0.3086  0.2958  0.6824
   73MOL0     C 9727   4.421   9.005   1.890  0.2158  0.3798  0.6203
   73MOL0     O 9728   4.548   8.959   1.862  0.6223 -0.4770 -0.0964
   73MOL0     C 9729   4.648   9.008   1.952  0.6774  0.1961 -0.2153
   73MOL0     C 9730   4.737   9.110   1.887 -0.9085 -0.0525  0.3767
   73MOL0     C 9731   4.788   9.225   1.977  0.7835 -0.0240  0.2111
   73MOL0     C 9732   4.888   9.198   2.092 -0.0958 -0.7439  0.4782
   73MOL0     C 9733   4.901   9.324   2.173 -0.5922 -0.0599  0.1822
   73MOL0     C 9734   4.979   9.280   2.305 -0.0030 -0.6473  0.6537
   73MOL0     C 9735   4.995   9.401   2.406  0.2203 -0.4905 -0.8896
   73MOL0     C 9736   5.058   9.345   2.529  0.5451  0.1336 -0.4580
   73MOL0     N 9737   5.201   9.298   2.506 -1.0566  0.2367 -0.0371
   73MOL0     C 9738   5.315   9.375   2.518 -0.0101  0.7480 -0.2139
   73MOL0     C 9739   5.414   9.292   2.478 -0.1915  0.5387 -0.3861
   73MOL0     C 9740   5.557   9.335   2.471  0.0811  0.8448 -0.4180
   73MOL0     C 9741   5.668   9.248   2.413 -0.5255  0.6889  0.3926
   73MOL0     C 9742   5.668   9.110   2.490 -0.1872  0.3978 -0.5648
   73MOL0     C 9743   5.803   9.043   2.469  0.9424 -0.1380 -0.7504
   73MOL0     O 9744   5.900   9.104   2.553  0.5133 -0.0532 -0.2016
   73MOL0     C 9745   6.021   9.043   2.588  0.0812 -0.5892 -0.4552
   73MOL0     C 9746   6.057   8.907   2.568 -0.0275  0.3852  0.3664
   73MOL0     C 9747   6.181   8.857   2.608 -0.0736 -0.9670 -0.7166
   73MOL0     C 9748   6.268   8.945   2.685  0.1899  0.5897  0.9160
   73MOL0     C 9749   6.392   8.902   2.737  0.4615  0.2750 -0.0073
   73MOL0     O 9750   6.469   9.006   2.787  0.0760 -0.2913  0.0996
   73MOL0     C 9751   6.601   8.971   2.811  0.4203 -0.4071 -0.3335
   73MOL0     C 9752   6.653   9.000   2.933 -0.0918 -0.3475  0.6462
   73MOL0     C 9753   6.782   8.964   2.972  0.6661  0.0161  0.7173
   73MOL0     C 9754   6.867   8.911   2.876  0.7373  0.5477  0.4704
   73MOL0     O 9755   6.999   8.869   2.893 -0.1455 -0.1553  0.2287
   73MOL0     C 9756   7.069   8.913   3.013  0.3747  0.2343  0.1706
   73MOL0     C 9757   7.211   8.872   3.022  0.0308  0.0164  0.1483
   73MOL0     C 9758   7.296   8.899   2.890 -0.0863  0.5196  1.1579
   73MOL0     C 9759   7.446   8.890   2.936  0.2173 -0.0292 -0.4319
   73MOL0     C 9760   7.548   8.894   2.816  0.3504 -0.2932 -0.2577
   73MOL0     C 9761   7.680   8.912   2.880  0.0464 -0.0873  0.6770
   73MOL0     C 9762   7.789   8.924   2.767  0.8859  0.4917  0.4375
   73MOL0     C 9763   7.923   8.919   2.826 -0.0625  0.5062 -0.0839
   73MOL0    Cl 9764   8.040   8.965   2.701  0.0245 -0.3024  0.2020
   73MOL0     C 9765   6.818   8.887   2.749 -0.3419  0.0771 -0.0225
   73MOL0     C 9766   6.688   8.911   2.718 -0.4160 -0.1290  0.2223
   73MOL0     O 9767   6.429   8.781   2.730 -0.0283 -0.0257 -0.0635
   73MOL0     C 9768   6.215   9.064   2.719  0.3193 -0.1383 -0.5953
   73MOL0     C 9769   6.103   9.116   2.672 -0.3112  0.0881  0.3804
   73MOL0     N 9770   5.368   9.172   2.439  0.3125 -0.2688  0.2941
   73MOL0     N 9771   5.239   9.175   2.457  0.2408 -0.1939 -0.0656
   73MOL0     C 9772   4.367   9.003   2.018  0.5184  0.0068  0.0488
   73MOL0     C 9773   4.228   9.026   2.038  0.2732  0.2331  0.3423
   73MOL0     C 9774   3.776   9.096   1.880 -1.2380 -0.0444  0.1647
   73MOL0     C 9775   3.664   9.037   1.806 -1.2388 -0.1664 -0.0053
   73MOL0     C 9776   3.540   9.109   1.793  0.8907 -0.5449  0.3000
   73MOL0     C 9777   3.525   9.235   1.860 -0.6805  0.1587 -0.0065
   73MOL0     O 9778   3.408   9.312   1.863  0.2308 -0.1814  0.4373
   73MOL0     C 9779   3.300   9.276   1.774 -0.0045  0.8181  0.4967
   73MOL0     C 9780   3.224   9.153   1.834  0.1926  0.0962 -0.1505
   73MOL0     C 9781   3.163   9.202   1.966  0.1525  0.3426  0.2503
   73MOL0     C 9782   3.232   9.143   2.088  0.0363 -0.2920  0.2204
   73MOL0     C 9783   3.169   9.181   2.217 -0.1290  0.3490  0.4898
   73MOL0     C 9784   3.118   9.212   2.323  0.0248 -0.3097  0.0534
   73MOL0     C 9785   3.635   9.293   1.923 -0.0963 -0.1586  0.0315
   73MOL0     C 9786   3.756   9.224   1.932 -0.0647 -0.2592  0.9471
   73MOL0     C 9787   3.871   9.319   1.988 -0.8014 -0.0272  0.2340
   73MOL0     H 9788   4.136   9.057   1.708  1.6041  2.3978  0.2838
   73MOL0     H 9789   4.380   9.006   1.682 -0.6721 -1.4858  0.3564
   73MOL0     H 9790   4.606   9.063   2.037 -3.8285 -0.2958 -1.8071
   73MOL0     H 9791   4.706   8.925   1.994 -0.5722  0.6233  2.5929
   73MOL0     H 9792   4.676   9.157   1.810 -4.0290  0.0165  2.6670
   73MOL0     H 9793   4.822   9.050   1.852 -0.0681  0.3307  1.6847
   73MOL0     H 9794   4.695   9.261   2.023  0.4340 -0.9779  0.2623
   73MOL0     H 9795   4.822   9.308   1.914 -1.7943 -0.7636 -2.3754
   73MOL0     H 9796   4.849   9.118   2.155 -0.2593  0.3401  1.7870
   73MOL0     H 9797   4.984   9.164   2.052  1.5471  1.5691  2.2198
   73MOL0     H 9798   4.944   9.407   2.116  0.5963 -1.2442 -0.7086
   73MOL0     H 9799   4.801   9.367   2.191  0.3381  1.7931  1.2224
   73MOL0     H 9800   4.927   9.202   2.361  1.4659 -2.2723 -0.1508
   73MOL0     H 9801   5.079   9.250   2.271  0.4608  0.2090  1.2454
   73MOL0     H 9802   4.894   9.436   2.429  0.1398 -0.4999 -1.2314
   73MOL0     H 9803   5.053   9.490   2.379 -2.8909  1.8929 -0.2674
   73MOL0     H 9804   5.060   9.430   2.598 -0.8672  2.1267 -2.7050
   73MOL0     H 9805   4.995   9.263   2.565 -1.1707  1.3124 -0.6501
   73MOL0     H 9806   5.320   9.483   2.529 -1.1486  1.1467 -2.8199
   73MOL0     H 9807   5.570   9.436   2.433  0.1084  1.5290  1.3173
   73MOL0     H 9808   5.590   9.348   2.575  0.6337 -1.1832 -0.2934
   73MOL0     H 9809   5.663   9.234   2.305 -1.3441  1.4923  0.3159
   73MOL0     H 9810   5.762   9.302   2.431  2.9006 -3.6595 -2.4606
   73MOL0     H 9811   5.588   9.046   2.452  1.9535 -1.7280 -1.7706
   73MOL0     H 9812   5.666   9.114   2.599 -0.2052  0.6949 -0.5727
   73MOL0     H 9813   5.834   9.057   2.365 -1.4175  1.9418 -1.2807
   73MOL0     H 9814   5.784   8.936   2.480 -0.6496  0.1404 -0.6302
   73MOL0     H 9815   5.985   8.840   2.521  0.6223 -0.2021  0.1979
   73MOL0     H 9816   6.203   8.753   2.585 -1.5034 -2.1741  2.7847
   73MOL0     H 9817   6.589   9.050   3.005  1.0249  0.8887  0.8221
   73MOL0     H 9818   6.810   8.993   3.073  1.8676 -1.8184  0.9586
   73MOL0     H 9819   7.049   9.019   3.031 -2.3156  0.1754 -1.8578
   73MOL0     H 9820   7.021   8.865   3.100  3.4789 -1.0405  1.3101
   73MOL0     H 9821   7.253   8.901   3.119  0.8116  0.6837 -0.3719
   73MOL0     H 9822   7.199   8.765   3.037  0.6179  0.2035  2.2359
   73MOL0     H 9823   7.273   8.822   2.817 -0.9419  0.5400  1.3972
   73MOL0     H 9824   7.291   8.991   2.830  2.6212 -1.1819 -2.0008
   73MOL0     H 9825   7.472   8.801   2.992  2.3344  0.1895 -0.9930
   73MOL0     H 9826   7.461   8.976   3.002  1.5708 -0.7481  0.2234
   73MOL0     H 9827   7.526   8.973   2.743 -1.4155 -0.5615 -0.0561
   73MOL0     H 9828   7.541   8.804   2.755 -0.2818 -0.3075 -0.1724
   73MOL0     H 9829   7.686   8.994   2.952 -0.6400  0.2509  0.3561
   73MOL0     H 9830   7.700   8.825   2.944 -1.4542 -1.9707 -1.2922
   73MOL0     H 9831   7.767   9.020   2.718  0.9117  1.8176  2.8763
   73MOL0     H 9832   7.776   8.844   2.694 -0.5448 -2.2662  3.4945
   73MOL0     H 9833   7.929   8.996   2.903  2.2725  0.5778 -0.2835
   73MOL0     H 9834   7.940   8.820   2.868 -2.1539  0.4270  0.7034
   73MOL0     H 9835   6.884   8.845   2.674  1.7000 -0.3432  1.9180
   73MOL0     H 9836   6.652   8.885   2.619 -1.9620  1.3988  0.3223
   73MOL0     H 9837   6.273   9.135   2.778  3.8727 -2.7031 -0.6393
   73MOL0     H 9838   6.063   9.215   2.696 -0.8578 -0.5780  2.4147
   73MOL0     H 9839   4.433   8.978   2.100  1.4886 -0.4347 -0.8477
   73MOL0     H 9840   4.186   9.004   2.136  1.6964 -3.6593  0.2703
   73MOL0     H 9841   3.661   8.934   1.772 -2.1029 -0.6686  1.5061
   73MOL0     H 9842   3.461   9.051   1.746  1.2449 -0.3165 -0.5968
   73MOL0     H 9843   3.340   9.245   1.677 -0.7901  0.2637  0.3298
   73MOL0     H 9844   3.221   9.346   1.745 -1.5839 -1.8644 -2.4585
   73MOL0     H 9845   3.281   9.061   1.852  1.3408  1.0115  1.1694
   73MOL0     H 9846   3.144   9.124   1.766  0.3688 -1.6738  0.3594
   73MOL0     H 9847   3.062   9.162   1.959  0.1756  0.4022 -0.5464
   73MOL0     H 9848   3.156   9.311   1.970 -1.2976  0.3673 -1.5361
   73MOL0     H 9849   3.228   9.033   2.094  0.9659 -0.3877 -0.6726
   73MOL0     H 9850   3.337   9.172   2.094  0.8774 -3.0881  0.8687
   73MOL0     H 9851   3.081   9.240   2.420  4.6435 -1.8804  2.5487
   73MOL0     H 9852   3.623   9.397   1.950 -1.0101 -0.0468 -0.7382
   73MOL0     H 9853   3.911   9.292   2.086  2.6235 -0.4776 -1.1384
   73MOL0     H 9854   3.958   9.321   1.922 -0.0249 -3.8798  0.9298
   73MOL0     H 9855   3.843   9.425   1.995  0.0688  0.2680 -0.5200
   74MOL0     O 9856   5.716   9.617   3.996 -0.0749 -0.2385 -0.1068
   74MOL0     C 9857   5.658   9.643   3.891 -0.5346  0.6415 -0.0847
   74MOL0     O 9858   5.726   9.676   3.782 -0.4479 -0.7913  0.4774
   74MOL0     C 9859   5.861   9.708   3.789 -0.2411  0.3995  1.0855
   74MOL0     C 9860   5.905   9.831   3.756 -0.1097  0.2957  0.6149
   74MOL0     C 9861   6.039   9.864   3.762 -0.6287  0.5333 -0.4386
   74MOL0     C 9862   6.135   9.769   3.817  0.2423 -0.1529  0.0149
   74MOL0     O 9863   6.264   9.790   3.836 -0.1426 -0.1180  0.0100
   74MOL0     C 9864   6.326   9.916   3.789 -1.0876 -0.1660 -0.4047
   74MOL0     C 9865   6.473   9.912   3.809 -0.1402  0.2088  0.5445
   74MOL0     C 9866   6.528  10.037   3.748  0.1845 -0.0011 -0.6268
   74MOL0     C 9867   6.674  10.041   3.773 -1.7640  0.3746  0.0623
   74MOL0     C 9868   6.757  10.120   3.666 -0.2597 -0.1057 -0.1275
   74MOL0     C 9869   6.707  10.263   3.638 -0.7766  0.0007 -0.1198
   74MOL0     C 9870   6.714  10.358   3.766  0.3021  0.4447  0.1695
   74MOL0     C 9871   6.844  10.352   3.850 -0.0624 -0.4427 -0.0423
   74MOL0     N 9872   6.962  10.381   3.771  0.5473  0.5567 -0.3212
   74MOL0     C 9873   6.994  10.488   3.696 -0.0351  0.1349 -0.3245
   74MOL0     C 9874   7.120  10.459   3.658 -0.6775  0.2280  0.9477
   74MOL0     C 9875   7.198  10.536   3.552 -0.1991 -0.0716 -0.5255
   74MOL0     C 9876   7.213  10.447   3.427 -0.6158  0.5094  0.4593
   74MOL0     C 9877   7.267  10.536   3.308  0.7692  0.5208 -0.5681
   74MOL0     C 9878   7.273  10.444   3.181  0.5133 -0.0070 -0.2414
   74MOL0     O 9879   7.361  10.486   3.083 -0.1230  0.0257  1.2665
   74MOL0     C 9880   7.491  10.494   3.110  0.1799 -0.4361  0.9971
   74MOL0     C 9881   7.576  10.548   3.026  0.2145 -0.3610  0.1034
   74MOL0     C 9882   7.709  10.563   3.053  0.0308 -0.4034  0.1314
   74MOL0     C 9883   7.759  10.507   3.170  0.3790  1.1797 -0.0450
   74MOL0     C 9884   7.901  10.517   3.195 -0.3581 -0.1414  0.3367
   74MOL0     O 9885   7.945  10.481   3.315  0.4828 -0.7628  0.6661
   74MOL0     C 9886   8.075  10.505   3.359 -0.1218  0.4070  0.3469
   74MOL0     C 9887   8.195  10.528   3.287 -0.2036 -0.3556 -0.1781
   74MOL0     C 9888   8.318  10.540   3.347 -1.3904  0.7745 -0.4800
   74MOL0     C 9889   8.339  10.502   3.483  0.0159  0.0507  1.0170
   74MOL0     O 9890   8.458  10.490   3.552  0.1690 -0.7156  0.1442
   74MOL0     C 9891   8.577  10.534   3.482 -0.1327 -0.3582 -0.2833
   74MOL0     C 9892   8.714  10.522   3.559  0.1059  0.3723 -0.1107
   74MOL0     C 9893   8.833  10.521   3.455  0.7933 -1.1566  0.9795
   74MOL0     C 9894   8.908  10.661   3.437  0.3304 -0.3980  0.2962
   74MOL0     C 9895   9.022  10.645   3.331  0.0988 -0.3383 -0.0201
   74MOL0     C 9896   9.149  10.572   3.386  1.0761 -0.8294  0.6055
   74MOL0     C 9897   9.212  10.669   3.487  0.5647  0.2764  0.1293
   74MOL0     C 9898   9.360  10.677   3.459  0.3649  0.4699 -0.3363
   74MOL0    Cl 9899   9.393  10.761   3.306 -0.0538  0.5745 -0.3449
   74MOL0     C 9900   8.220  10.467   3.548  0.0360  0.5384  0.1835
   74MOL0     C 9901   8.090  10.466   3.488 -0.0969 -0.3247 -0.5357
   74MOL0     O 9902   7.974  10.550   3.103 -0.3600 -0.4953 -0.3411
   74MOL0     C 9903   7.676  10.436   3.254 -0.5534  0.9183 -0.3453
   74MOL0     C 9904   7.544  10.431   3.227 -0.0986 -0.2301 -0.2566
   74MOL0     N 9905   7.172  10.349   3.728 -0.1209 -0.2956  0.5121
   74MOL0     N 9906   7.068  10.305   3.796  0.4662  0.4962 -0.1586
   74MOL0     C 9907   6.093   9.644   3.833  0.2368  0.1482 -1.4256
   74MOL0     C 9908   5.959   9.613   3.821  0.4317  0.1105  0.5845
   74MOL0     C 9909   5.516   9.631   3.875 -0.2268  0.7649 -0.6715
   74MOL0     C 9910   5.462   9.665   3.756 -0.2880 -1.1771  0.8798
   74MOL0     C 9911   5.323   9.650   3.722  0.3917 -0.3383 -0.6104
   74MOL0     C 9912   5.232   9.604   3.821 -0.4201  0.1556 -0.2405
   74MOL0     O 9913   5.106   9.593   3.780 -0.0266 -0.1174  0.3056
   74MOL0     C 9914   5.000   9.533   3.862 -0.4624 -0.6509  0.3599
   74MOL0     C 9915   4.957   9.629   3.976 -0.1400 -0.7048  0.3504
   74MOL0     C 9916   4.816   9.583   4.022  0.2451  0.4642 -0.7148
   74MOL0     C 9917   4.822   9.479   4.129 -0.8127  0.4966  0.5766
   74MOL0     C 9918   4.687   9.422   4.150 -0.7766 -0.9865  0.3208
   74MOL0     C 9919   4.577   9.389   4.163  0.1084 -1.0224  0.7284
   74MOL0     C 9920   5.289   9.562   3.947 -0.2182 -0.4184  0.7277
   74MOL0     C 9921   5.426   9.573   3.970 -0.7720  0.1107 -0.7274
   74MOL0     C 9922   5.474   9.536   4.108 -0.8465  0.2400 -0.1828
   74MOL0     H 9923   5.836   9.910   3.726  0.9554  0.7311 -0.7708
   74MOL0     H 9924   6.080   9.963   3.743  3.5543 -0.9350 -0.1742
   74MOL0     H 9925   6.300   9.938   3.685 -1.8072  0.8113 -0.0309
   74MOL0     H 9926   6.295   9.999   3.853  2.2139  1.6925 -0.9661
   74MOL0     H 9927   6.515   9.829   3.752 -2.9514  0.1511 -1.6849
   74MOL0     H 9928   6.490   9.905   3.917 -0.7239  0.1173  0.6331
   74MOL0     H 9929   6.479  10.117   3.805 -1.5372  0.8834 -3.1436
   74MOL0     H 9930   6.498  10.048   3.643  1.4787 -0.6584 -1.0842
   74MOL0     H 9931   6.685  10.080   3.875  2.7523 -2.4148  0.9055
   74MOL0     H 9932   6.718   9.941   3.772 -0.8042  0.7564 -2.6591
   74MOL0     H 9933   6.865  10.121   3.683 -0.2215  1.7149 -0.2887
   74MOL0     H 9934   6.745  10.066   3.572  0.6189  2.3857 -1.7740
   74MOL0     H 9935   6.765  10.300   3.552  2.5072 -2.5063  0.7919
   74MOL0     H 9936   6.605  10.262   3.600 -0.2977  0.6055 -1.5221
   74MOL0     H 9937   6.629  10.326   3.827  0.7693 -0.4115  0.3778
   74MOL0     H 9938   6.706  10.459   3.724  1.8372 -0.3827 -2.3068
   74MOL0     H 9939   6.842  10.427   3.930 -0.3170 -0.3833 -0.1034
   74MOL0     H 9940   6.850  10.251   3.894 -0.6506 -1.2876 -1.8201
   74MOL0     H 9941   6.928  10.569   3.667  0.9818  0.3218 -2.2539
   74MOL0     H 9942   7.143  10.625   3.522 -0.7688 -0.3949 -0.4516
   74MOL0     H 9943   7.290  10.569   3.603 -0.0966  0.1219 -0.8354
   74MOL0     H 9944   7.281  10.363   3.444 -0.1097  0.4104 -1.6990
   74MOL0     H 9945   7.114  10.408   3.404 -0.1800 -0.6878  0.5361
   74MOL0     H 9946   7.364  10.584   3.322  0.3637  0.4759  3.6495
   74MOL0     H 9947   7.187  10.607   3.286  1.6183  1.1678 -1.6478
   74MOL0     H 9948   7.174  10.431   3.135 -1.0444  0.2424  2.8064
   74MOL0     H 9949   7.308  10.342   3.200  0.6143  0.0992  0.1440
   74MOL0     H 9950   7.540  10.606   2.941  1.4963 -0.3358 -0.4496
   74MOL0     H 9951   7.765  10.623   2.982 -0.0291 -1.4704 -0.8382
   74MOL0     H 9952   8.195  10.533   3.179 -0.2851  0.6319 -0.1412
   74MOL0     H 9953   8.405  10.560   3.284 -0.1371 -2.3030  0.0797
   74MOL0     H 9954   8.590  10.472   3.394  2.0880  1.3255 -1.2392
   74MOL0     H 9955   8.563  10.639   3.454 -1.3016 -0.3076  0.3834
   74MOL0     H 9956   8.726  10.605   3.628  0.5578  0.6100 -0.4699
   74MOL0     H 9957   8.714  10.430   3.617 -0.8983  0.6561  0.3644
   74MOL0     H 9958   8.903  10.442   3.485  0.5771 -1.5813  0.3907
   74MOL0     H 9959   8.797  10.491   3.357 -0.2091  2.2244  0.1943
   74MOL0     H 9960   8.954  10.701   3.528 -0.1965 -0.0620  0.4185
   74MOL0     H 9961   8.843  10.743   3.405  1.1057  0.0152 -0.2758
   74MOL0     H 9962   9.041  10.745   3.292 -2.6300 -0.2325 -1.2978
   74MOL0     H 9963   8.999  10.591   3.238  2.3203 -2.6273  0.6562
   74MOL0     H 9964   9.128  10.471   3.424 -0.8708 -0.5302  0.4093
   74MOL0     H 9965   9.207  10.579   3.294  0.2982  3.2498  0.2357
   74MOL0     H 9966   9.191  10.634   3.588 -0.6333  0.6576  0.0383
   74MOL0     H 9967   9.167  10.768   3.469  0.3990  0.0881 -0.5060
   74MOL0     H 9968   9.399  10.739   3.540 -1.8973  1.2623  0.2206
   74MOL0     H 9969   9.414  10.581   3.463  1.5982  0.9388 -3.1081
   74MOL0     H 9970   8.234  10.430   3.650  1.7439  0.1600 -0.1547
   74MOL0     H 9971   8.007  10.431   3.550  0.9077  0.6056  1.4227
   74MOL0     H 9972   7.717  10.388   3.343 -0.8383 -0.1251 -0.7582
   74MOL0     H 9973   7.477  10.384   3.298  0.6952  0.4849  1.0073
   74MOL0     H 9974   6.164   9.566   3.861 -0.7048 -1.0639 -2.2964
   74MOL0     H 9975   5.933   9.510   3.844  4.1021 -0.6407  2.0420
   74MOL0     H 9976   5.524   9.705   3.676  0.6590  1.7143  2.8996
   74MOL0     H 9977   5.282   9.671   3.624  0.1166 -1.1866 -0.6893
   74MOL0     H 9978   5.038   9.441   3.907  0.6169 -0.7399 -0.6902
   74MOL0     H 9979   4.914   9.501   3.803  0.4212  1.5254 -2.3136
   74MOL0     H 9980   4.952   9.732   3.942  2.0010 -1.2500 -1.9131
   74MOL0     H 9981   5.029   9.619   4.059  0.5734 -1.7967 -0.3655
   74MOL0     H 9982   4.763   9.538   3.937 -1.0120 -0.8009  0.6901
   74MOL0     H 9983   4.758   9.668   4.056 -1.1101 -0.8694  0.4265
   74MOL0     H 9984   4.887   9.404   4.083 -1.7380  0.3294 -0.4977
   74MOL0     H 9985   4.869   9.515   4.222  0.0195 -2.4315  1.3812
   74MOL0     H 9986   4.472   9.366   4.156  0.1307 -0.8582 -4.2117
   74MOL0     H 9987   5.219   9.528   4.023 -2.6667 -1.6194 -1.8736
   74MOL0     H 9988   5.524   9.612   4.169 -0.7455 -2.3567  3.2842
   74MOL0     H 9989   5.387   9.506   4.166 -1.4119  0.0086 -1.1271
   74MOL0     H 9990   5.539   9.448   4.099 -0.1523  0.8433 -1.3420
   75MOL0     O 9991  10.442   8.186   9.880 -0.3303 -0.7699 -0.4092
   75MOL0     C 9992  10.442   8.064   9.862  0.0166 -0.4403 -0.9206
   75MOL0     O 9993  10.542   7.994   9.805  0.8704  0.1220 -0.3315
   75MOL0     C 9994  10.665   8.051   9.820 -0.2526  0.1042  0.3494
   75MOL0     C 9995  10.781   7.991   9.877  1.3151 -0.2216  0.0997
   75MOL0     C 9996  10.910   8.049   9.870 -0.2660 -0.8163  1.0025
   75MOL0     C 9997  10.935   8.171   9.800  0.5454  0.2258 -0.1499
   75MOL0     O 9998  11.052   8.236   9.759  0.8220 -0.6970  0.2426
   75MOL0     C 9999  11.171   8.183   9.804  0.4517  0.7000 -0.2622
   75MOL0     C10000  11.278   8.284   9.781 -0.3311 -0.5887  0.5828
   75MOL0     C10001  11.276   8.331   9.630  0.3438  0.1894  0.3628
   75MOL0     C10002  11.372   8.449   9.608 -0.2533 -0.3663  0.8552
   75MOL0     C10003  11.344   8.508   9.462  0.4123 -0.1474 -0.3202
   75MOL0     C10004  11.462   8.579   9.402  0.3814  0.2449 -0.0747
   75MOL0     C10005  11.550   8.486   9.321 -0.4490  0.2526  0.0610
   75MOL0     C10006  11.685   8.567   9.291  0.2258 -0.4819  0.3468
   75MOL0     N10007  11.754   8.631   9.400  0.6373 -0.0563 -0.0164
   75MOL0     C10008  11.840   8.564   9.483  0.1506  0.3204 -1.0630
   75MOL0     C10009  11.889   8.662   9.563 -1.0422 -0.6755 -0.4273
   75MOL0     C10010  11.976   8.632   9.684 -0.6098 -0.4481  0.0080
   75MOL0     C10011  12.127   8.617   9.643 -0.0215  0.7171  0.1482
   75MOL0     C10012  12.198   8.569   9.767 -0.1702 -0.6933 -0.2713
   75MOL0     C10013  12.350   8.566   9.736 -0.1370 -0.2368 -0.1638
   75MOL0     O10014  12.422   8.488   9.830  0.0985 -0.5744 -0.1512
   75MOL0     C10015  12.558   8.471   9.808  0.3301  0.3974 -0.2661
   75MOL0     C10016  12.636   8.539   9.717 -0.1942 -0.4026  0.8789
   75MOL0     C10017  12.771   8.521   9.698 -0.1040  0.8974 -1.1280
   75MOL0     C10018  12.839   8.431   9.784  0.1082 -0.5975 -0.2015
   75MOL0     C10019  12.975   8.393   9.745  1.1341 -0.0918  0.2030
   75MOL0     O10020  13.028   8.430   9.616 -0.0651  0.0469 -0.6398
   75MOL0     C10021  13.150   8.385   9.592 -0.0773  0.6756 -0.2303
   75MOL0     C10022  13.249   8.479   9.576  0.1231 -0.4630  0.1771
   75MOL0     C10023  13.376   8.432   9.544  0.9081  0.0534 -0.2983
   75MOL0     C10024  13.405   8.298   9.536 -0.7210 -0.8523  0.0651
   75MOL0     O10025  13.530   8.257   9.506 -0.7238 -0.2497 -0.3277
   75MOL0     C10026  13.646   8.330   9.554  0.5149 -0.3649  0.5477
   75MOL0     C10027  13.706   8.402   9.428 -0.1974  0.7801 -0.6508
   75MOL0     C10028  13.846   8.479   9.449  0.7547  0.9801  0.1378
   75MOL0     C10029  13.961   8.384   9.481 -0.0667 -0.4336  0.2599
   75MOL0     C10030  14.027   8.311   9.363 -0.9073  0.4115 -0.8892
   75MOL0     C10031  14.140   8.213   9.403 -1.1612 -0.1515  1.1699
   75MOL0     C10032  14.201   8.155   9.278  0.1022 -0.0236  0.2998
   75MOL0     C10033  14.281   8.033   9.316 -0.2512 -0.4115  0.2732
   75MOL0    Cl10034  14.361   7.976   9.171 -0.2399 -0.5857  0.0958
   75MOL0     C10035  13.307   8.206   9.558  0.6094  0.6813 -0.4154
   75MOL0     C10036  13.180   8.243   9.581 -0.2904  0.2391 -0.5429
   75MOL0     O10037  13.030   8.322   9.832  0.3165 -0.4669  0.7768
   75MOL0     C10038  12.766   8.367   9.883 -1.1577  0.1126  0.3645
   75MOL0     C10039  12.631   8.388   9.892  0.3758 -0.2562  0.4024
   75MOL0     N10040  11.846   8.785   9.527 -0.3890  0.0390 -0.1974
   75MOL0     N10041  11.761   8.761   9.428  0.9802 -0.3100 -0.0199
   75MOL0     C10042  10.823   8.235   9.748 -0.6443  0.2053  0.1858
   75MOL0     C10043  10.693   8.177   9.752 -0.7927 -0.6951  0.2800
   75MOL0     C10044  10.306   7.994   9.858 -0.3336  1.1471  0.3589
   75MOL0     C10045  10.280   7.902   9.750 -0.3538  0.6478 -1.0183
   75MOL0     C10046  10.170   7.822   9.746  0.1386  0.7122  0.9713
   75MOL0     C10047  10.082   7.818   9.853  0.1001 -0.1253 -0.2302
   75MOL0     O10048   9.976   7.737   9.843  0.1807 -0.0431 -0.7844
   75MOL0     C10049   9.865   7.812   9.791 -0.1064 -0.4138 -0.3787
   75MOL0     C10050   9.867   7.821   9.641 -0.8583  0.5104  0.3111
   75MOL0     C10051   9.893   7.694   9.561 -0.3894  0.3065  0.4611
   75MOL0     C10052   9.869   7.716   9.413  0.6577  0.3257 -0.2865
   75MOL0     C10053   9.959   7.801   9.329 -0.4931 -1.3397 -0.2379
   75MOL0     C10054  10.026   7.878   9.260  0.0546 -0.0436  0.0863
   75MOL0     C10055  10.101   7.904   9.956 -1.0762 -0.3481 -0.0418
   75MOL0     C10056  10.209   7.990   9.966  0.4571 -0.8370 -0.5328
   75MOL0     C10057  10.226   8.086  10.088  0.5870  0.0142  0.3099
   75MOL0     H10058  10.760   7.894   9.921 -2.0596 -0.3057 -1.3726
   75MOL0     H10059  10.994   8.001   9.919  2.6594  2.7676 -0.0511
   75MOL0     H10060  11.171   8.156   9.910 -1.0863  3.3105  0.5187
   75MOL0     H10061  11.181   8.092   9.744 -1.9630 -1.2772  2.1003
   75MOL0     H10062  11.378   8.240   9.791  0.1600  0.2025 -0.6204
   75MOL0     H10063  11.263   8.369   9.848  0.6418  0.1788 -0.1388
   75MOL0     H10064  11.179   8.370   9.598  1.2300  1.7586 -0.5321
   75MOL0     H10065  11.300   8.243   9.569  1.5301 -1.2954  2.7954
   75MOL0     H10066  11.346   8.532   9.675  0.6800  1.3894 -0.8315
   75MOL0     H10067  11.474   8.414   9.624 -0.9893 -2.8076  0.5337
   75MOL0     H10068  11.313   8.435   9.387  1.2411  3.4402 -4.6164
   75MOL0     H10069  11.261   8.579   9.467  0.0385 -0.6570  2.8719
   75MOL0     H10070  11.428   8.650   9.326 -0.8702 -0.8225 -0.5412
   75MOL0     H10071  11.517   8.632   9.480 -1.8152 -1.5036  2.8793
   75MOL0     H10072  11.506   8.458   9.224  1.5285 -2.6587 -0.1191
   75MOL0     H10073  11.568   8.402   9.389  0.0934  1.1127  1.0181
   75MOL0     H10074  11.759   8.495   9.253  0.6634  0.3945 -0.5119
   75MOL0     H10075  11.673   8.645   9.215 -1.1723 -0.0505  0.9742
   75MOL0     H10076  11.868   8.459   9.484  0.6482  0.4549 -0.2030
   75MOL0     H10077  11.964   8.720   9.749  3.1355 -1.6284  2.6252
   75MOL0     H10078  11.934   8.547   9.738 -2.4066  0.2125 -0.2534
   75MOL0     H10079  12.141   8.544   9.563 -0.9451  1.1334 -0.4189
   75MOL0     H10080  12.172   8.707   9.600 -1.4905  0.8287 -1.2510
   75MOL0     H10081  12.167   8.466   9.784  1.8493 -1.4704 -1.0086
   75MOL0     H10082  12.178   8.631   9.855 -1.7418 -1.9755  0.3166
   75MOL0     H10083  12.386   8.669   9.728 -2.0379  0.4341 -0.6434
   75MOL0     H10084  12.358   8.524   9.635 -0.9587  1.0685 -0.7933
   75MOL0     H10085  12.583   8.607   9.652 -3.0630 -3.7428 -0.6381
   75MOL0     H10086  12.832   8.590   9.641  1.8749 -1.0131 -1.4417
   75MOL0     H10087  13.235   8.585   9.592 -0.9639 -0.5344 -0.2379
   75MOL0     H10088  13.451   8.509   9.536 -0.0904  0.9654 -1.1982
   75MOL0     H10089  13.618   8.406   9.627 -0.9309  0.0607 -0.3838
   75MOL0     H10090  13.704   8.253   9.605 -0.1303 -0.5182  1.0654
   75MOL0     H10091  13.720   8.331   9.346  3.5741  2.6904 -1.9190
   75MOL0     H10092  13.633   8.477   9.396 -2.5790 -1.0061  0.3465
   75MOL0     H10093  13.857   8.534   9.355 -2.9569 -0.4336 -1.2899
   75MOL0     H10094  13.841   8.549   9.533 -0.3455 -1.3289  2.1111
   75MOL0     H10095  13.927   8.299   9.541 -2.3212 -1.6274 -2.4719
   75MOL0     H10096  14.034   8.447   9.533 -1.3151 -0.2027  1.7905
   75MOL0     H10097  14.076   8.380   9.293  0.2885 -0.7845 -1.2553
   75MOL0     H10098  13.950   8.261   9.304  1.1114 -0.7137 -2.7111
   75MOL0     H10099  14.216   8.269   9.459  0.4523 -1.4647  0.3583
   75MOL0     H10100  14.102   8.132   9.466  1.4320 -1.6426  0.9480
   75MOL0     H10101  14.267   8.228   9.229 -0.3877  0.1687 -0.0862
   75MOL0     H10102  14.128   8.129   9.201 -0.3156  1.8958 -0.0000
   75MOL0     H10103  14.361   8.066   9.382 -1.1175 -2.7913  2.7095
   75MOL0     H10104  14.224   7.956   9.369 -0.6237 -0.0507  0.4035
   75MOL0     H10105  13.322   8.099   9.565 -0.5443  0.6239  4.1863
   75MOL0     H10106  13.115   8.169   9.626  1.5589 -0.7270  0.6773
   75MOL0     H10107  12.814   8.290   9.944  0.3587  0.5070 -0.2804
   75MOL0     H10108  12.581   8.332   9.970 -1.2630  0.5386 -0.0283
   75MOL0     H10109  10.836   8.332   9.702  0.1737 -0.4714 -1.0465
   75MOL0     H10110  10.604   8.222   9.709 -1.7074  0.4196  3.0951
   75MOL0     H10111  10.347   7.893   9.665 -0.6564 -1.4816 -1.0889
   75MOL0     H10112  10.132   7.760   9.665 -0.6192  0.2685  1.6428
   75MOL0     H10113   9.864   7.917   9.824 -0.9905 -0.6390  0.3723
   75MOL0     H10114   9.774   7.762   9.824 -0.3243  0.2034 -0.0131
   75MOL0     H10115   9.945   7.890   9.608 -0.6930  0.8221  1.3292
   75MOL0     H10116   9.771   7.862   9.607  0.6304  3.3003 -0.8216
   75MOL0     H10117   9.833   7.608   9.590  0.7604 -1.2598 -1.5372
   75MOL0     H10118   9.991   7.645   9.563 -1.2519 -1.5081 -0.0979
   75MOL0     H10119   9.864   7.611   9.380 -1.3485 -0.4774  2.2405
   75MOL0     H10120   9.772   7.762   9.394  1.3835  0.9546 -2.9077
   75MOL0     H10121  10.095   7.947   9.217  0.6766 -0.0611  1.0197
   75MOL0     H10122  10.027   7.899  10.035  1.1216  3.6339  2.6210
   75MOL0     H10123  10.144   8.079  10.160 -0.3414  0.2075 -0.7028
   75MOL0     H10124  10.322   8.059  10.133  0.0734 -2.0066  0.2637
   75MOL0     H10125  10.226   8.191  10.055  0.1196  0.2664  1.0717
   76MOL0     O10126   7.640   0.585   1.857 -0.6987  0.0106  0.5172
   76MOL0     C10127   7.673   0.522   1.755 -0.1577  0.9780  0.3346
   76MOL0     O10128   7.773   0.428   1.755  0.3063  0.6964  1.2019
   76MOL0     C10129   7.846   0.418   1.869  0.8097  0.3066 -0.2293
   76MOL0     C10130   7.810   0.311   1.952  0.2513  0.4973 -0.5095
   76MOL0     C10131   7.880   0.287   2.072  0.1573  0.3680  0.4934
   76MOL0     C10132   7.989   0.371   2.112  0.4237 -0.3324  0.0016
   76MOL0     O10133   8.049   0.344   2.232  0.0122  0.0374  0.1510
   76MOL0     C10134   8.134   0.229   2.232 -0.1096 -0.2228 -0.5924
   76MOL0     C10135   8.283   0.271   2.227  0.1187  0.4844 -0.1062
   76MOL0     C10136   8.356   0.145   2.263 -0.8763  0.3591  0.1501
   76MOL0     C10137   8.502   0.139   2.187 -0.0959 -0.4673  0.1329
   76MOL0     C10138   8.593   0.018   2.229  0.9669 -0.4361 -0.6874
   76MOL0     C10139   8.638   0.015   2.370  0.1072 -0.2930  0.0263
   76MOL0     C10140   8.720   0.141   2.412  0.9402  0.3865  0.2623
   76MOL0     C10141   8.794   0.129   2.541  0.4333 -0.8902  0.2850
   76MOL0     N10142   8.704   0.107   2.658 -0.9959  0.1588  0.1881
   76MOL0     C10143   8.666   0.200   2.746  0.0238 -0.1187  0.3014
   76MOL0     C10144   8.614   0.138   2.848 -0.1493  0.0284  0.4746
   76MOL0     C10145   8.577   0.197   2.984 -0.0014  0.0732 -0.3104
   76MOL0     C10146   8.700   0.202   3.078 -0.4392 -0.0401 -0.1271
   76MOL0     C10147   8.746   0.061   3.127 -0.7418  0.3061  0.8539
   76MOL0     C10148   8.870   0.079   3.216  0.4430  0.6270  0.3311
   76MOL0     O10149   8.930  -0.045   3.216 -0.5947 -0.5344  0.3946
   76MOL0     C10150   9.045  -0.049   3.298 -0.1755  0.5931  1.1639
   76MOL0     C10151   9.131  -0.159   3.277 -0.0895  0.3627 -0.3468
   76MOL0     C10152   9.252  -0.169   3.345  0.1575  0.3892 -0.2470
   76MOL0     C10153   9.292  -0.075   3.438 -0.4684  0.3109 -0.3931
   76MOL0     C10154   9.430  -0.086   3.509  0.3036 -0.9264 -0.1039
   76MOL0     O10155   9.506  -0.192   3.484 -0.5586 -0.1456 -0.8733
   76MOL0     C10156   9.626  -0.213   3.552 -0.3094  0.1478  0.0845
   76MOL0     C10157   9.728  -0.295   3.497 -0.6367 -1.0276  1.0080
   76MOL0     C10158   9.855  -0.328   3.553  0.1470  0.1807  0.6025
   76MOL0     C10159   9.889  -0.268   3.678  0.4924 -0.4434  0.2260
   76MOL0     O10160  10.006  -0.286   3.738 -0.4167 -0.2178 -0.2926
   76MOL0     C10161  10.117  -0.300   3.657 -0.0709 -0.3714  0.3012
   76MOL0     C10162  10.235  -0.292   3.747  0.2628  0.0378 -0.5561
   76MOL0     C10163  10.365  -0.325   3.677  0.4509 -0.9672  0.2567
   76MOL0     C10164  10.483  -0.293   3.764  0.6267 -0.9119 -0.1021
   76MOL0     C10165  10.619  -0.298   3.703  0.4038  0.0245  0.2839
   76MOL0     C10166  10.728  -0.273   3.807  0.5514  0.3001 -0.1827
   76MOL0     C10167  10.866  -0.314   3.750 -0.7229 -0.0189 -0.7389
   76MOL0     C10168  10.973  -0.339   3.860 -0.4440  0.2782  0.3109
   76MOL0    Cl10169  11.011  -0.176   3.929  0.0721 -0.0359 -0.1615
   76MOL0     C10170   9.792  -0.184   3.735  0.2372  0.5975  0.4805
   76MOL0     C10171   9.662  -0.166   3.683 -0.8601 -0.5117  0.7796
   76MOL0     O10172   9.460   0.017   3.574  0.4641 -0.1291 -0.2912
   76MOL0     C10173   9.202   0.025   3.477  0.7496 -0.4001  0.0004
   76MOL0     C10174   9.085   0.035   3.400 -0.0024 -1.0352 -0.3397
   76MOL0     N10175   8.608   0.002   2.818  0.3418  0.7437  0.1876
   76MOL0     N10176   8.662  -0.013   2.703 -0.1543 -0.1992 -0.5921
   76MOL0     C10177   8.020   0.475   2.026  0.4736  0.3527 -0.9857
   76MOL0     C10178   7.959   0.493   1.901 -0.7887 -0.1270 -0.1708
   76MOL0     C10179   7.595   0.558   1.629 -0.2008  0.0477 -0.3593
   76MOL0     C10180   7.468   0.604   1.643  0.5623 -0.6724 -0.2834
   76MOL0     C10181   7.391   0.651   1.538  0.8995  0.8967 -0.4975
   76MOL0     C10182   7.438   0.637   1.409 -0.2105  0.3568 -0.1977
   76MOL0     O10183   7.373   0.697   1.301 -0.7384  0.7103  0.0178
   76MOL0     C10184   7.234   0.721   1.305  0.3178  0.8650  0.5314
   76MOL0     C10185   7.189   0.766   1.174 -0.7136 -0.1506  0.5158
   76MOL0     C10186   7.202   0.921   1.168 -0.4808 -0.4358 -0.3888
   76MOL0     C10187   7.069   0.983   1.225 -0.2407 -0.7229  0.4009
   76MOL0     C10188   6.955   0.989   1.131  0.0297  0.1405  0.0517
   76MOL0     C10189   6.857   0.987   1.058  0.6193  0.0734 -0.0669
   76MOL0     C10190   7.561   0.578   1.383  0.3874 -0.6055 -0.8480
   76MOL0     C10191   7.644   0.536   1.498  0.7150 -0.3148  0.2458
   76MOL0     C10192   7.774   0.477   1.462 -0.4380  0.2387 -0.0569
   76MOL0     H10193   7.731   0.241   1.928 -0.7542  1.7295 -0.9030
   76MOL0     H10194   7.844   0.219   2.148  2.6360 -1.9958 -0.2879
   76MOL0     H10195   8.123   0.176   2.327 -0.6019  0.3995 -0.2978
   76MOL0     H10196   8.115   0.163   2.147 -1.0175 -0.5220 -0.1628
   76MOL0     H10197   8.295   0.347   2.305  0.0968  1.5451 -1.1082
   76MOL0     H10198   8.318   0.304   2.128 -1.8141 -2.6041 -1.9920
   76MOL0     H10199   8.299   0.053   2.248  2.1108 -1.8133  1.1189
   76MOL0     H10200   8.385   0.151   2.369 -0.4911  0.5447  0.0371
   76MOL0     H10201   8.487   0.132   2.078  3.6849  2.0671 -0.7634
   76MOL0     H10202   8.560   0.227   2.216 -1.2397 -0.0657  1.2462
   76MOL0     H10203   8.529  -0.070   2.218  1.5572 -0.7687 -1.6179
   76MOL0     H10204   8.674  -0.001   2.158  2.9221 -1.1577  1.5802
   76MOL0     H10205   8.549   0.010   2.434  1.0615 -1.3966  1.3279
   76MOL0     H10206   8.703  -0.072   2.380  2.3146  1.0107 -1.7382
   76MOL0     H10207   8.660   0.232   2.411  2.2300  1.3413  2.4185
   76MOL0     H10208   8.794   0.151   2.332  0.2351 -0.6827 -0.5574
   76MOL0     H10209   8.868   0.049   2.531 -0.0005 -1.2955  0.2556
   76MOL0     H10210   8.857   0.215   2.563  3.0280 -2.7490  0.6085
   76MOL0     H10211   8.679   0.307   2.732  3.3699 -0.5831 -1.3255
   76MOL0     H10212   8.541   0.300   2.976 -1.2678 -0.3967 -1.0312
   76MOL0     H10213   8.501   0.139   3.037 -0.5302  0.5920 -0.4890
   76MOL0     H10214   8.780   0.256   3.026  1.0618 -0.6625  1.4592
   76MOL0     H10215   8.668   0.256   3.168  0.4668 -1.6480  1.2013
   76MOL0     H10216   8.768  -0.004   3.042  0.2817 -0.0878  1.4034
   76MOL0     H10217   8.666   0.009   3.181 -0.9574  2.5255  2.8907
   76MOL0     H10218   8.845   0.116   3.316  0.4495 -2.2631  1.4937
   76MOL0     H10219   8.937   0.153   3.172  1.2868  0.5501  1.4390
   76MOL0     H10220   9.109  -0.233   3.200 -0.1312  0.7968 -0.7552
   76MOL0     H10221   9.322  -0.252   3.334  0.5619  0.7406 -0.3736
   76MOL0     H10222   9.707  -0.334   3.397  0.6664  0.8939 -0.0843
   76MOL0     H10223   9.924  -0.387   3.494 -0.6369  1.6010 -1.8981
   76MOL0     H10224  10.115  -0.400   3.612 -0.5660 -0.2100 -0.0428
   76MOL0     H10225  10.130  -0.222   3.582  2.6067  0.0387  1.1008
   76MOL0     H10226  10.244  -0.189   3.783 -0.2793  0.5382 -1.8062
   76MOL0     H10227  10.220  -0.370   3.823 -0.7601 -0.7907 -1.5725
   76MOL0     H10228  10.354  -0.429   3.643 -0.9842 -0.9203  0.5088
   76MOL0     H10229  10.370  -0.272   3.581 -0.5216 -1.4251 -0.0711
   76MOL0     H10230  10.476  -0.363   3.848  0.8036 -1.6576 -0.6991
   76MOL0     H10231  10.475  -0.192   3.806 -0.6904 -1.3855  0.8505
   76MOL0     H10232  10.637  -0.230   3.619  4.4126  2.3736  2.7101
   76MOL0     H10233  10.627  -0.392   3.647 -0.0665 -0.6305  1.2885
   76MOL0     H10234  10.721  -0.165   3.827 -3.2852 -0.0761  1.4362
   76MOL0     H10235  10.706  -0.336   3.894 -1.3535 -0.8489 -1.4170
   76MOL0     H10236  10.900  -0.245   3.672 -2.1019  2.7187  0.9143
   76MOL0     H10237  10.858  -0.414   3.705  3.7259 -1.2592  0.6396
   76MOL0     H10238  10.928  -0.402   3.937  3.0122 -1.1944  1.3194
   76MOL0     H10239  11.062  -0.385   3.818  0.1008  1.6539 -0.0930
   76MOL0     H10240   9.813  -0.133   3.829 -0.1485  0.9574  0.3716
   76MOL0     H10241   9.588  -0.112   3.741 -0.2605  4.3370 -2.3680
   76MOL0     H10242   9.226   0.087   3.563  0.2522 -0.9586  0.5475
   76MOL0     H10243   9.042   0.133   3.418  0.7708 -0.7876  0.2124
   76MOL0     H10244   8.081   0.550   2.075 -1.1320  0.8600  0.3105
   76MOL0     H10245   7.968   0.582   1.840 -4.3553  2.4315  2.5765
   76MOL0     H10246   7.416   0.614   1.738 -1.1247  1.6592 -1.3313
   76MOL0     H10247   7.293   0.695   1.555 -0.6169 -2.9361  2.1590
   76MOL0     H10248   7.210   0.790   1.387  0.3332 -1.2750  2.4318
   76MOL0     H10249   7.184   0.627   1.326  0.4360  1.0112  1.5351
   76MOL0     H10250   7.087   0.740   1.145 -0.3338 -3.7783  1.9152
   76MOL0     H10251   7.255   0.718   1.102 -1.6029  0.8878 -1.0510
   76MOL0     H10252   7.209   0.949   1.063 -2.9667  0.6749 -0.3166
   76MOL0     H10253   7.289   0.963   1.220  0.3260 -0.5546 -1.5891
   76MOL0     H10254   7.051   0.934   1.321  1.4474 -0.9591  0.6149
   76MOL0     H10255   7.086   1.091   1.234  1.7804 -1.1854  3.4918
   76MOL0     H10256   6.780   1.001   0.985 -0.1223 -0.4797  0.5903
   76MOL0     H10257   7.594   0.562   1.281  2.6446 -1.2761 -0.0685
   76MOL0     H10258   7.775   0.369   1.474  0.9743  0.2643  0.1320
   76MOL0     H10259   7.825   0.504   1.368  1.2724  1.2839  1.1199
   76MOL0     H10260   7.849   0.515   1.532  0.5758 -2.2815  0.3062
   77MOL0     O10261   3.009  10.561   1.897  0.2362  0.2511  0.0723
   77MOL0     C10262   2.965  10.511   1.792  0.0055 -0.2299 -0.8021
   77MOL0     O10263   3.036  10.482   1.682  0.1698  0.0691 -0.2094
   77MOL0     C10264   3.175  10.508   1.671 -0.5446 -0.9676 -0.2225
   77MOL0     C10265   3.267  10.443   1.749 -0.5102  0.4475 -0.1733
   77MOL0     C10266   3.408  10.465   1.737 -0.5065 -0.2742 -0.6203
   77MOL0     C10267   3.458  10.567   1.654  0.4130  0.1059 -0.4728
   77MOL0     O10268   3.588  10.599   1.637  0.0566 -0.3600  0.1089
   77MOL0     C10269   3.672  10.521   1.723 -0.0947 -0.6573  0.1052
   77MOL0     C10270   3.815  10.561   1.691 -0.0110 -0.5146 -0.0627
   77MOL0     C10271   3.868  10.525   1.554 -0.0320 -0.2324  1.5138
   77MOL0     C10272   4.008  10.578   1.524 -0.2547 -0.3471 -0.8043
   77MOL0     C10273   4.068  10.520   1.393 -0.5513 -0.2729 -0.5273
   77MOL0     C10274   4.221  10.537   1.406 -0.7816  0.1987 -0.1986
   77MOL0     C10275   4.307  10.452   1.310  0.4066  0.1625 -0.4026
   77MOL0     C10276   4.266  10.302   1.294 -0.4578 -0.4324  0.3453
   77MOL0     N10277   4.382  10.220   1.240  0.2649  0.0071  0.1326
   77MOL0     C10278   4.430  10.226   1.111  0.5382  0.6048  0.3924
   77MOL0     C10279   4.517  10.122   1.105  0.0364 -0.7865 -0.5126
   77MOL0     C10280   4.585  10.059   0.980  0.5528 -0.1369  0.4995
   77MOL0     C10281   4.728  10.104   0.957  0.3558  0.7030 -0.5510
   77MOL0     C10282   4.826   9.992   1.014 -0.2646 -0.1278  0.2458
   77MOL0     C10283   4.854   9.975   1.153 -0.1547 -0.5632  0.1219
   77MOL0     O10284   4.937   9.855   1.164 -0.1426  0.6497 -0.5326
   77MOL0     C10285   4.989   9.823   1.292 -0.5106  0.0081  0.3528
   77MOL0     C10286   4.958   9.882   1.414  0.0866  0.4362 -0.4314
   77MOL0     C10287   5.020   9.836   1.533  0.4149  0.2331 -0.1351
   77MOL0     C10288   5.064   9.702   1.535  0.3031  0.6224 -0.7032
   77MOL0     C10289   5.115   9.637   1.657  0.7491 -0.5469  0.0372
   77MOL0     O10290   5.185   9.524   1.639 -0.2101 -0.4608  0.0254
   77MOL0     C10291   5.236   9.447   1.739  0.0887  0.4497 -1.0215
   77MOL0     C10292   5.172   9.432   1.865 -0.2091  0.1916  0.9174
   77MOL0     C10293   5.226   9.342   1.962  0.1726  0.3415 -0.5651
   77MOL0     C10294   5.339   9.269   1.925  0.1478  0.8065  0.0572
   77MOL0     O10295   5.407   9.175   2.000 -0.4333  0.3074 -0.5011
   77MOL0     C10296   5.326   9.107   2.100  0.7491 -0.0277  0.1246
   77MOL0     C10297   5.429   9.021   2.162 -0.7963 -0.2087  0.4562
   77MOL0     C10298   5.505   8.921   2.066 -0.0696  0.4003  0.7086
   77MOL0     C10299   5.592   8.817   2.147 -0.5776  0.1837 -0.6203
   77MOL0     C10300   5.693   8.738   2.059 -0.0396 -1.2234 -1.3950
   77MOL0     C10301   5.822   8.815   2.021 -0.3486  0.8127  0.1759
   77MOL0     C10302   5.900   8.714   1.939  0.4337  0.3415 -0.3236
   77MOL0     C10303   6.044   8.775   1.904 -0.3066  0.0967 -0.4166
   77MOL0    Cl10304   6.158   8.659   1.842  0.0810  0.6881  0.3025
   77MOL0     C10305   5.401   9.285   1.802 -0.1622  0.6269 -0.6047
   77MOL0     C10306   5.349   9.373   1.712  0.4942  0.6046 -0.1185
   77MOL0     O10307   5.088   9.694   1.764 -0.7656  0.9050  0.0822
   77MOL0     C10308   5.095   9.636   1.414  0.1140 -0.5169 -0.5129
   77MOL0     C10309   5.055   9.701   1.292 -0.6833  0.1911  0.1494
   77MOL0     N10310   4.520  10.063   1.230  0.4326 -0.2559 -0.4059
   77MOL0     N10311   4.454  10.133   1.310 -0.4731 -0.0390  0.1335
   77MOL0     C10312   3.361  10.636   1.576  0.0640 -0.2508 -0.0578
   77MOL0     C10313   3.227  10.616   1.597  0.3598  0.1271 -0.6343
   77MOL0     C10314   2.825  10.491   1.776  0.1732 -0.0842  0.4753
   77MOL0     C10315   2.776  10.373   1.734  0.4020 -0.9323 -0.2715
   77MOL0     C10316   2.639  10.354   1.713 -0.3856 -0.2546  0.2437
   77MOL0     C10317   2.549  10.452   1.750 -0.5986 -0.0005 -0.0546
   77MOL0     O10318   2.408  10.425   1.737 -0.7098 -0.7944  0.0578
   77MOL0     C10319   2.321  10.512   1.658  0.4529  1.0113  0.8666
   77MOL0     C10320   2.194  10.440   1.621  1.1423  1.2370  0.7140
   77MOL0     C10321   2.111  10.515   1.511  0.3560 -0.3715 -0.4144
   77MOL0     C10322   2.001  10.607   1.595 -0.9942 -0.3226 -0.0039
   77MOL0     C10323   1.880  10.620   1.513 -0.0281 -0.3229  0.3774
   77MOL0     C10324   1.773  10.628   1.443 -0.5880  0.8724 -1.0516
   77MOL0     C10325   2.601  10.574   1.788 -0.1484 -0.3280  0.7301
   77MOL0     C10326   2.742  10.602   1.797  0.7872 -0.2400  0.3387
   77MOL0     C10327   2.793  10.742   1.806 -0.0904  0.3830 -0.5979
   77MOL0     H10328   3.242  10.358   1.811  1.7934 -1.9126 -2.2334
   77MOL0     H10329   3.466  10.406   1.807  2.7999  2.3164 -0.8809
   77MOL0     H10330   3.646  10.542   1.827 -0.4957 -2.1469  0.3283
   77MOL0     H10331   3.662  10.415   1.695  1.8803 -0.4641 -1.6196
   77MOL0     H10332   3.874  10.514   1.771 -2.4269 -0.4752  1.8599
   77MOL0     H10333   3.823  10.669   1.709 -1.7986 -0.4451  0.4756
   77MOL0     H10334   3.790  10.576   1.497 -1.3817 -0.5050  3.0453
   77MOL0     H10335   3.873  10.416   1.543  1.1846  0.0163 -0.9074
   77MOL0     H10336   4.000  10.687   1.521  1.2729 -0.1767  0.4375
   77MOL0     H10337   4.081  10.565   1.604  1.0611  3.2351 -1.2428
   77MOL0     H10338   4.058  10.411   1.391  0.2041 -0.3491 -0.6572
   77MOL0     H10339   4.023  10.548   1.296  0.1963 -2.1878 -1.4678
   77MOL0     H10340   4.243  10.638   1.370  0.9185 -0.8710 -2.3870
   77MOL0     H10341   4.258  10.517   1.507 -0.2547  0.5987 -0.3095
   77MOL0     H10342   4.413  10.455   1.333 -0.1577 -2.7804  3.7029
   77MOL0     H10343   4.304  10.489   1.207 -0.3812 -0.5090 -0.6405
   77MOL0     H10344   4.232  10.262   1.390 -0.7226 -0.5421  0.2083
   77MOL0     H10345   4.172  10.293   1.238 -2.2293  0.7241  2.9339
   77MOL0     H10346   4.392  10.291   1.033  0.7088  1.8957  1.3548
   77MOL0     H10347   4.587   9.950   0.985  1.4207 -0.0677  4.7003
   77MOL0     H10348   4.527  10.097   0.895 -1.5923  1.8256  2.6866
   77MOL0     H10349   4.720  10.118   0.849 -0.6679 -1.0710 -0.7404
   77MOL0     H10350   4.753  10.206   0.989 -0.4232  0.8529 -0.4028
   77MOL0     H10351   4.924  10.010   0.970  0.4508 -2.0098  0.9999
   77MOL0     H10352   4.795   9.895   0.975 -0.4284 -0.6981  1.7361
   77MOL0     H10353   4.768   9.978   1.219  0.9478  1.4104  1.5611
   77MOL0     H10354   4.912  10.061   1.188  0.1444  0.4510 -2.5999
   77MOL0     H10355   4.916   9.982   1.407 -0.1693  0.3300 -0.4240
   77MOL0     H10356   5.020   9.890   1.628 -0.6523  0.6449 -0.3472
   77MOL0     H10357   5.083   9.489   1.890 -1.2594 -0.1107 -1.8203
   77MOL0     H10358   5.194   9.338   2.065 -0.4209  1.4060 -0.6851
   77MOL0     H10359   5.276   9.166   2.177 -0.0519 -2.3915  1.5102
   77MOL0     H10360   5.255   9.046   2.043  1.3816 -0.8478  0.1928
   77MOL0     H10361   5.503   9.087   2.208  0.6351 -2.8939  2.3353
   77MOL0     H10362   5.388   8.958   2.242 -1.1691 -0.0343  0.4022
   77MOL0     H10363   5.443   8.866   1.994  1.4379 -0.5467  0.0766
   77MOL0     H10364   5.569   8.980   2.000  0.2693 -1.3563 -0.5956
   77MOL0     H10365   5.527   8.744   2.197 -0.0586  0.2868  0.2281
   77MOL0     H10366   5.645   8.879   2.220 -2.8088  1.2865  0.1535
   77MOL0     H10367   5.641   8.693   1.974  1.1843 -1.1137 -2.2302
   77MOL0     H10368   5.721   8.646   2.112  3.9551 -0.0461 -1.0681
   77MOL0     H10369   5.795   8.894   1.951  2.2247  0.2671 -1.5830
   77MOL0     H10370   5.880   8.854   2.105 -1.3757  0.3629  1.1140
   77MOL0     H10371   5.846   8.682   1.849  1.2753  2.9601 -1.8925
   77MOL0     H10372   5.918   8.623   1.996 -2.0319 -0.1208 -0.1706
   77MOL0     H10373   6.044   8.853   1.827 -0.7018  1.8958  1.3367
   77MOL0     H10374   6.086   8.818   1.995  1.8695  0.2061 -1.4126
   77MOL0     H10375   5.487   9.225   1.777  0.5639  0.4165  2.0875
   77MOL0     H10376   5.402   9.388   1.618 -0.4256 -0.0580 -0.7692
   77MOL0     H10377   5.152   9.545   1.402  3.5576  1.4494 -0.3387
   77MOL0     H10378   5.094   9.653   1.204  2.2484  1.7652  0.4633
   77MOL0     H10379   3.402  10.702   1.501 -0.5265  1.6064  1.1713
   77MOL0     H10380   3.163  10.684   1.542 -1.1257 -0.2694  0.5643
   77MOL0     H10381   2.841  10.286   1.726  0.8333 -0.5914 -0.5232
   77MOL0     H10382   2.599  10.265   1.665  0.1870 -1.4272  1.8717
   77MOL0     H10383   2.370  10.548   1.567  0.5382  0.4957  0.7048
   77MOL0     H10384   2.286  10.598   1.715  0.9335  2.9782 -1.6068
   77MOL0     H10385   2.140  10.413   1.712 -0.6899  2.4308  0.0221
   77MOL0     H10386   2.226  10.347   1.572  1.4109  0.5598  2.1194
   77MOL0     H10387   2.064  10.441   1.446  1.0551  0.1414 -1.5181
   77MOL0     H10388   2.175  10.579   1.449  0.5381 -1.6610 -1.5943
   77MOL0     H10389   1.977  10.553   1.687  0.5050 -1.7149 -0.3852
   77MOL0     H10390   2.034  10.709   1.620 -1.0694 -0.0813 -0.8657
   77MOL0     H10391   1.677  10.639   1.396 -0.1397 -1.5490 -2.7160
   77MOL0     H10392   2.536  10.659   1.805  0.0193 -0.5097  2.6090
   77MOL0     H10393   2.709  10.810   1.822  1.2869  1.9643  0.2407
   77MOL0     H10394   2.858  10.754   1.894 -0.8222  2.4556 -0.2780
   77MOL0     H10395   2.847  10.771   1.716 -0.3819 -1.5523 -1.4363
   78MOL0     O10396   2.866   7.094   9.376  0.2147  0.4069  0.2139
   78MOL0     C10397   2.846   7.080   9.498  0.2247  0.4230 -0.4757
   78MOL0     O10398   2.931   7.127   9.596 -0.0463 -0.8905  0.2951
   78MOL0     C10399   3.062   7.163   9.581  0.0477  0.1323 -0.3493
   78MOL0     C10400   3.151   7.107   9.495 -0.3877 -0.6639  0.1802
   78MOL0     C10401   3.282   7.158   9.471  0.4548 -0.3692  0.1687
   78MOL0     C10402   3.333   7.253   9.560 -0.4956 -0.1425  0.8315
   78MOL0     O10403   3.464   7.304   9.562  0.4190  0.4704  0.6199
   78MOL0     C10404   3.546   7.279   9.448 -0.5469 -0.3247  0.4305
   78MOL0     C10405   3.687   7.351   9.455  0.3085  0.2629 -0.3205
   78MOL0     C10406   3.784   7.309   9.340 -0.3016 -0.5910  0.2270
   78MOL0     C10407   3.929   7.293   9.390 -0.5087  0.3130  0.6758
   78MOL0     C10408   4.027   7.322   9.270  0.0881  0.2136 -0.0776
   78MOL0     C10409   4.177   7.302   9.304 -0.3942 -0.3097 -0.6814
   78MOL0     C10410   4.248   7.415   9.390  0.5676  0.3324  0.0997
   78MOL0     C10411   4.386   7.373   9.423 -0.0658 -0.9933  0.3712
   78MOL0     N10412   4.468   7.345   9.306  0.8195  0.2352  0.9771
   78MOL0     C10413   4.492   7.432   9.202 -0.1931 -0.1860 -0.6755
   78MOL0     C10414   4.539   7.354   9.101  0.2744 -0.4370  0.7809
   78MOL0     C10415   4.578   7.386   8.960  0.6920 -0.5479 -0.6958
   78MOL0     C10416   4.715   7.466   8.955 -0.6504 -0.4766 -0.9237
   78MOL0     C10417   4.737   7.530   8.819 -0.0933 -0.3765  0.9737
   78MOL0     C10418   4.866   7.616   8.826  0.1413  0.0637  0.5238
   78MOL0     O10419   4.990   7.529   8.817 -0.9968  0.5883  0.2649
   78MOL0     C10420   5.101   7.550   8.894  0.9967 -0.2027  0.5194
   78MOL0     C10421   5.200   7.458   8.881  0.0928 -0.1700  1.7053
   78MOL0     C10422   5.323   7.474   8.936 -0.5939 -0.2170 -0.2736
   78MOL0     C10423   5.346   7.589   9.010 -0.7258 -0.3439  0.4119
   78MOL0     C10424   5.480   7.608   9.062  1.2347  0.1812  0.4839
   78MOL0     O10425   5.578   7.521   9.014  0.4111  0.0060 -0.0534
   78MOL0     C10426   5.704   7.572   9.042 -0.1770  0.8575 -0.4474
   78MOL0     C10427   5.750   7.692   9.000 -0.8229  0.3842  0.8019
   78MOL0     C10428   5.872   7.743   9.055 -0.0126 -0.1243 -0.2344
   78MOL0     C10429   5.959   7.667   9.137  0.0936  0.1365  0.1533
   78MOL0     O10430   6.069   7.736   9.189  0.1160 -0.6530 -0.4267
   78MOL0     C10431   6.193   7.661   9.190  0.5113  0.4088 -0.0250
   78MOL0     C10432   6.221   7.601   9.053 -0.1666 -0.1250  1.2280
   78MOL0     C10433   6.333   7.505   9.064 -0.9676 -0.1332  1.1566
   78MOL0     C10434   6.279   7.372   9.005 -0.4705 -0.1285  1.0724
   78MOL0     C10435   6.375   7.260   9.034 -0.5378  0.0286  0.1044
   78MOL0     C10436   6.491   7.259   8.938  0.0850 -0.0435  0.2261
   78MOL0     C10437   6.573   7.128   8.957  0.0671  0.2788  0.8227
   78MOL0     C10438   6.675   7.105   8.847 -0.9328 -0.1183 -0.5552
   78MOL0    Cl10439   6.783   6.982   8.878 -0.4133  0.2953  0.0017
   78MOL0     C10440   5.905   7.540   9.187  1.0218 -0.0721  0.2843
   78MOL0     C10441   5.789   7.488   9.131  0.5716  0.2022  0.3823
   78MOL0     O10442   5.491   7.705   9.137 -0.6615 -0.8776 -0.1678
   78MOL0     C10443   5.243   7.685   9.027 -0.3599 -0.5546 -0.0546
   78MOL0     C10444   5.117   7.666   8.969 -0.1335 -0.2482 -0.9790
   78MOL0     N10445   4.549   7.221   9.147 -0.0583  0.6997  0.0656
   78MOL0     N10446   4.507   7.216   9.271 -0.3008 -0.2562 -0.1556
   78MOL0     C10447   3.249   7.295   9.655 -0.2368  0.2603 -0.0043
   78MOL0     C10448   3.113   7.266   9.665  0.0394  0.5994  0.4712
   78MOL0     C10449   2.717   7.024   9.545 -0.0375  0.0367 -0.0215
   78MOL0     C10450   2.666   7.074   9.664  0.1426  0.1888  0.1297
   78MOL0     C10451   2.553   7.009   9.720 -0.9931  0.1097 -0.1828
   78MOL0     C10452   2.490   6.897   9.663 -0.6906  0.7814  0.1239
   78MOL0     O10453   2.380   6.827   9.708  0.3932 -0.3118 -0.2083
   78MOL0     C10454   2.307   6.890   9.809  0.4213 -0.2773 -0.4909
   78MOL0     C10455   2.164   6.817   9.799  0.3415 -0.2356 -0.5010
   78MOL0     C10456   2.077   6.870   9.677 -0.1859 -1.1798 -0.1438
   78MOL0     C10457   1.937   6.806   9.671  1.0551  0.5937 -0.2358
   78MOL0     C10458   1.846   6.903   9.739 -0.8450  0.7581  0.1787
   78MOL0     C10459   1.783   6.996   9.782 -1.0416  0.5722  0.0221
   78MOL0     C10460   2.547   6.849   9.543 -0.6296 -0.4304 -1.3585
   78MOL0     C10461   2.655   6.914   9.481 -0.7548 -0.3013  0.4336
   78MOL0     C10462   2.711   6.844   9.366 -0.5356 -0.9358  0.5542
   78MOL0     H10463   3.121   7.024   9.432  0.6280 -1.0899  0.2318
   78MOL0     H10464   3.354   7.126   9.397  0.2455  2.2251 -1.2635
   78MOL0     H10465   3.565   7.174   9.426 -2.6647 -0.5281 -0.6706
   78MOL0     H10466   3.495   7.322   9.361  1.3695 -1.0665 -1.1335
   78MOL0     H10467   3.730   7.319   9.550  0.6997 -3.9761 -1.6915
   78MOL0     H10468   3.686   7.460   9.464 -0.7490  0.0609  5.3133
   78MOL0     H10469   3.783   7.386   9.263  1.1188 -1.5269 -0.7788
   78MOL0     H10470   3.754   7.216   9.291 -2.7177  0.2244  0.0417
   78MOL0     H10471   3.947   7.354   9.479 -0.0066 -0.6671  1.2648
   78MOL0     H10472   3.938   7.190   9.426 -2.9429  0.3415  1.5722
   78MOL0     H10473   4.004   7.252   9.189 -0.1578  0.8450 -0.5611
   78MOL0     H10474   4.010   7.418   9.221  0.3361 -0.0801 -0.7400
   78MOL0     H10475   4.187   7.208   9.358  1.6790  0.2857  0.0658
   78MOL0     H10476   4.226   7.297   9.206  0.0664 -1.4179 -0.4090
   78MOL0     H10477   4.195   7.429   9.485 -2.1462 -4.3670 -0.4021
   78MOL0     H10478   4.258   7.503   9.325  0.8640  1.1268  1.1996
   78MOL0     H10479   4.438   7.455   9.472 -0.7430 -1.5294  2.0274
   78MOL0     H10480   4.385   7.299   9.503 -2.0809  0.8178  2.1055
   78MOL0     H10481   4.464   7.537   9.204 -3.0956 -0.8811 -0.3655
   78MOL0     H10482   4.582   7.294   8.901 -0.6676  0.1155 -1.8941
   78MOL0     H10483   4.494   7.441   8.916  0.5474 -1.9168 -2.2445
   78MOL0     H10484   4.716   7.544   9.032 -1.2505 -1.3562 -0.0133
   78MOL0     H10485   4.802   7.406   8.983 -0.4648  0.4877  0.6768
   78MOL0     H10486   4.650   7.595   8.805  0.5492  0.1316 -0.9267
   78MOL0     H10487   4.732   7.461   8.735  1.0974  1.5183 -0.7572
   78MOL0     H10488   4.864   7.677   8.916  3.0834  1.7283 -0.4047
   78MOL0     H10489   4.867   7.683   8.739 -0.0741  0.5271  0.8748
   78MOL0     H10490   5.178   7.369   8.822  1.7749  0.6149 -0.2443
   78MOL0     H10491   5.399   7.398   8.926 -0.8905 -0.4552 -0.8442
   78MOL0     H10492   5.683   7.750   8.938  0.5952 -0.9011 -2.1395
   78MOL0     H10493   5.918   7.837   9.025  0.2567 -0.0295  0.4524
   78MOL0     H10494   6.280   7.720   9.221 -0.1207  1.4327 -0.1360
   78MOL0     H10495   6.186   7.572   9.253  0.1029 -0.5564 -1.3939
   78MOL0     H10496   6.128   7.556   9.018  1.3328 -0.4145 -2.9450
   78MOL0     H10497   6.253   7.672   8.976  0.4925 -0.6223  1.0330
   78MOL0     H10498   6.416   7.541   9.003 -0.3636 -1.0852  1.3938
   78MOL0     H10499   6.367   7.479   9.164  0.7588  0.9738  0.9106
   78MOL0     H10500   6.269   7.383   8.897  1.0049  1.2643  1.0312
   78MOL0     H10501   6.183   7.354   9.053 -1.4431  0.8814 -0.4270
   78MOL0     H10502   6.316   7.172   9.007 -2.1040  1.0781 -0.0793
   78MOL0     H10503   6.405   7.251   9.139 -1.3827 -1.7658  0.2339
   78MOL0     H10504   6.455   7.258   8.834 -2.9655  0.6106  1.1803
   78MOL0     H10505   6.562   7.340   8.954 -0.8601  0.4063  2.5236
   78MOL0     H10506   6.506   7.041   8.960  0.7718 -0.3017  0.2260
   78MOL0     H10507   6.628   7.144   9.050  3.1395 -1.7616 -0.4840
   78MOL0     H10508   6.624   7.096   8.750 -0.5766 -1.2348 -0.6491
   78MOL0     H10509   6.736   7.195   8.841  0.6666 -1.2229 -2.1515
   78MOL0     H10510   5.959   7.488   9.265  0.7976 -1.6321 -0.5778
   78MOL0     H10511   5.763   7.391   9.173 -0.4659  0.6583  0.8557
   78MOL0     H10512   5.261   7.782   9.073 -2.4854 -0.0614 -0.1569
   78MOL0     H10513   5.034   7.736   8.974 -2.1744 -2.4934 -1.7558
   78MOL0     H10514   3.280   7.369   9.729 -0.1069  1.2170 -0.9942
   78MOL0     H10515   3.054   7.312   9.744  1.8264  3.2114  0.4437
   78MOL0     H10516   2.709   7.153   9.724 -0.3268 -1.9919  3.5698
   78MOL0     H10517   2.506   7.037   9.814 -0.4817 -2.3510  0.8869
   78MOL0     H10518   2.288   6.997   9.796 -0.3503 -0.1764  1.2013
   78MOL0     H10519   2.345   6.874   9.910 -0.6906 -0.1764 -0.0393
   78MOL0     H10520   2.106   6.824   9.891 -1.2444  3.0851 -1.6131
   78MOL0     H10521   2.190   6.711   9.793  0.5148 -0.1354 -2.1459
   78MOL0     H10522   2.130   6.832   9.589 -0.3062 -0.7806 -0.3906
   78MOL0     H10523   2.077   6.979   9.673  1.5750 -1.1186 -4.2479
   78MOL0     H10524   1.907   6.783   9.568  0.5535  1.0213 -0.1919
   78MOL0     H10525   1.936   6.711   9.725  1.9937  0.1125 -1.0448
   78MOL0     H10526   1.738   7.076   9.838 -0.8840 -0.7326  2.0926
   78MOL0     H10527   2.496   6.762   9.503 -0.8269 -0.8652 -0.2046
   78MOL0     H10528   2.806   6.802   9.401  1.4989  1.0251 -2.1714
   78MOL0     H10529   2.635   6.771   9.335 -0.1017 -1.5837  0.9952
   78MOL0     H10530   2.737   6.915   9.288  0.0668 -1.1361  0.5710
   79MOL0     O10531   1.787   7.260   8.938 -0.3281  0.5696  0.1203
   79MOL0     C10532   1.752   7.299   8.829 -0.7161 -0.2048 -0.5065
   79MOL0     O10533   1.821   7.263   8.713  0.3816 -0.0828 -0.2796
   79MOL0     C10534   1.942   7.206   8.731  0.2485  0.3128  0.7543
   79MOL0     C10535   1.975   7.076   8.685  0.0372  0.5400 -0.6016
   79MOL0     C10536   2.107   7.025   8.688  0.2758 -0.2512  0.8465
   79MOL0     C10537   2.219   7.097   8.738  0.4631  0.4467 -0.3252
   79MOL0     O10538   2.338   7.035   8.746 -0.5028 -0.4541 -0.9397
   79MOL0     C10539   2.445   7.122   8.770 -0.9653 -0.4536  0.9325
   79MOL0     C10540   2.565   7.030   8.796 -0.3780 -0.9572 -0.5956
   79MOL0     C10541   2.692   7.108   8.766 -0.1490  0.2544 -0.1361
   79MOL0     C10542   2.708   7.218   8.879 -0.2010 -0.2554 -0.3041
   79MOL0     C10543   2.862   7.231   8.908 -0.7319 -0.3707 -0.2902
   79MOL0     C10544   2.906   7.316   9.035  0.0269  0.8142  0.0749
   79MOL0     C10545   3.058   7.329   9.051  0.5662  0.2962  0.0831
   79MOL0     C10546   3.086   7.405   9.182 -0.8378 -0.0035  0.5704
   79MOL0     N10547   3.201   7.495   9.158  0.3449  0.3063 -0.1696
   79MOL0     C10548   3.193   7.605   9.074  0.0207 -0.3519 -0.1004
   79MOL0     C10549   3.306   7.673   9.097  0.1773  0.1880  0.3152
   79MOL0     C10550   3.353   7.798   9.023  0.4918  0.5533  0.3119
   79MOL0     C10551   3.502   7.831   9.019  0.3929 -0.6841 -0.5380
   79MOL0     C10552   3.576   7.734   8.928  0.3504  1.0023  0.3400
   79MOL0     C10553   3.721   7.776   8.906  0.1457  0.0654 -0.1663
   79MOL0     O10554   3.793   7.660   8.855 -0.0792 -0.1011 -0.0829
   79MOL0     C10555   3.929   7.674   8.852 -0.6086 -0.2917 -0.3695
   79MOL0     C10556   4.005   7.598   8.950 -0.1436 -0.5128  0.1240
   79MOL0     C10557   4.141   7.623   8.976  0.0552 -0.0672 -0.2283
   79MOL0     C10558   4.211   7.719   8.897 -0.5969 -1.2488 -0.8873
   79MOL0     C10559   4.346   7.760   8.937 -0.4643 -0.4160  0.1126
   79MOL0     O10560   4.390   7.877   8.891  0.3656  0.0842 -0.5991
   79MOL0     C10561   4.517   7.913   8.927  0.1201 -0.3051 -0.1541
   79MOL0     C10562   4.619   7.904   8.829  0.2482  0.4330 -0.3693
   79MOL0     C10563   4.748   7.947   8.855 -0.2832  0.7397 -0.1479
   79MOL0     C10564   4.786   7.989   8.987 -0.5880  0.8738 -1.0384
   79MOL0     O10565   4.917   8.027   9.010  0.4022 -0.5852 -0.8741
   79MOL0     C10566   4.957   8.056   9.144 -1.2706  1.1673  0.3206
   79MOL0     C10567   5.112   8.069   9.153  0.3092 -0.2360  0.1344
   79MOL0     C10568   5.163   8.153   9.268  0.0400 -0.6949 -0.3753
   79MOL0     C10569   5.309   8.177   9.242  0.3877 -0.3817  0.3316
   79MOL0     C10570   5.370   8.277   9.348 -0.5332 -0.2132 -0.0330
   79MOL0     C10571   5.519   8.311   9.335  0.1001 -0.1521 -0.1852
   79MOL0     C10572   5.557   8.362   9.195 -0.7979 -0.3200 -0.4751
   79MOL0     C10573   5.702   8.414   9.191  0.5713 -0.1234  0.8271
   79MOL0    Cl10574   5.684   8.591   9.234  0.5848 -0.0173  0.2700
   79MOL0     C10575   4.685   7.999   9.085 -0.1419 -0.2653  0.3331
   79MOL0     C10576   4.554   7.960   9.049  1.4633 -0.6600 -0.2238
   79MOL0     O10577   4.405   7.688   9.014 -1.2983  0.1003  0.2292
   79MOL0     C10578   4.138   7.797   8.801  0.4676  0.1372 -0.3154
   79MOL0     C10579   4.003   7.768   8.774 -0.0060  0.1206  0.2499
   79MOL0     N10580   3.391   7.600   9.185  0.5103  0.5626 -0.2259
   79MOL0     N10581   3.327   7.491   9.215  0.0909 -0.2852  0.7893
   79MOL0     C10582   2.190   7.233   8.781 -0.8630 -0.9531 -0.7479
   79MOL0     C10583   2.058   7.285   8.760  0.3364 -0.4467 -1.2164
   79MOL0     C10584   1.633   7.376   8.834  0.1437  0.3658 -1.1948
   79MOL0     C10585   1.509   7.322   8.885  0.1439  0.0459 -0.3422
   79MOL0     C10586   1.385   7.390   8.873 -0.4193 -0.1547  0.3553
   79MOL0     C10587   1.384   7.511   8.804  0.1289  0.1704 -0.1245
   79MOL0     O10588   1.265   7.579   8.782 -0.3747  0.0099  0.2423
   79MOL0     C10589   1.128   7.526   8.812 -0.2776  0.4899  0.8087
   79MOL0     C10590   1.084   7.533   8.956 -0.2533 -0.3888 -0.2258
   79MOL0     C10591   0.931   7.558   8.951 -0.0877  0.4390  0.4722
   79MOL0     C10592   0.861   7.549   9.089  0.0513  0.3958  0.1475
   79MOL0     C10593   0.722   7.574   9.070  0.9873 -0.6284  0.3409
   79MOL0     C10594   0.600   7.605   9.057 -0.3434 -0.7757 -0.0327
   79MOL0     C10595   1.504   7.568   8.760 -0.2593  1.1837 -0.1086
   79MOL0     C10596   1.628   7.504   8.773  0.4937 -0.6063  0.5369
   79MOL0     C10597   1.756   7.574   8.734  0.0632 -1.0143  0.1115
   79MOL0     H10598   1.899   7.000   8.671  1.3609 -1.0482  0.5395
   79MOL0     H10599   2.107   6.923   8.652 -0.9593  0.3831 -1.1000
   79MOL0     H10600   2.447   7.193   8.687 -0.8176 -0.8625  0.5834
   79MOL0     H10601   2.426   7.174   8.864  0.4501  0.7549  0.5848
   79MOL0     H10602   2.574   6.942   8.732  2.8588 -3.3957  2.7113
   79MOL0     H10603   2.568   6.998   8.901 -0.9690  3.5492  0.9812
   79MOL0     H10604   2.685   7.161   8.671 -2.1519  2.1920  0.9988
   79MOL0     H10605   2.774   7.036   8.766 -1.0868 -0.8480  0.9096
   79MOL0     H10606   2.675   7.314   8.838  0.4814 -0.1108 -0.5458
   79MOL0     H10607   2.648   7.197   8.967  1.4068 -1.9397  0.4473
   79MOL0     H10608   2.904   7.132   8.930 -1.4651 -0.5564  0.3309
   79MOL0     H10609   2.900   7.275   8.815 -0.8856  1.2582  0.3818
   79MOL0     H10610   2.858   7.413   9.028 -1.0486  0.4096  1.4195
   79MOL0     H10611   2.869   7.259   9.121  2.4482 -1.9163 -0.5304
   79MOL0     H10612   3.096   7.391   8.969 -1.1474  2.6109  0.9213
   79MOL0     H10613   3.098   7.228   9.057  1.3281  0.4349 -1.9543
   79MOL0     H10614   2.999   7.467   9.209 -0.7415  0.3633  0.0533
   79MOL0     H10615   3.102   7.324   9.255  0.0743 -2.8087 -2.5185
   79MOL0     H10616   3.116   7.640   9.007 -0.3807  3.2074  1.9833
   79MOL0     H10617   3.325   7.795   8.918 -1.1406 -4.2451  0.6179
   79MOL0     H10618   3.296   7.882   9.062  0.7751  1.2003 -0.6434
   79MOL0     H10619   3.513   7.929   8.971  1.8054 -0.4431  0.2263
   79MOL0     H10620   3.538   7.838   9.122 -3.5201  0.2671  0.9517
   79MOL0     H10621   3.522   7.723   8.834 -1.8648 -0.6987  1.7180
   79MOL0     H10622   3.585   7.633   8.967 -0.3098  1.2505  1.1483
   79MOL0     H10623   3.757   7.816   9.002 -2.4509  0.9075  0.5530
   79MOL0     H10624   3.720   7.852   8.827 -3.4038  2.9916  2.3309
   79MOL0     H10625   3.942   7.524   8.999 -0.3218 -2.3130 -2.6073
   79MOL0     H10626   4.181   7.575   9.065 -0.7762  1.0017  0.7483
   79MOL0     H10627   4.588   7.870   8.730  0.5594 -3.0497  0.5871
   79MOL0     H10628   4.825   7.946   8.778  1.7081  1.0254  1.7472
   79MOL0     H10629   4.920   8.151   9.182 -0.5769  1.6118 -0.1102
   79MOL0     H10630   4.921   7.976   9.210 -0.5946  1.1376  0.6540
   79MOL0     H10631   5.152   7.966   9.154  1.0890  0.0443  1.8387
   79MOL0     H10632   5.144   8.114   9.059  1.0347 -3.2182 -1.1887
   79MOL0     H10633   5.110   8.247   9.257  0.4533 -0.5876 -1.6715
   79MOL0     H10634   5.153   8.116   9.371 -2.3876 -0.6752 -0.5616
   79MOL0     H10635   5.319   8.232   9.148 -2.2711 -1.4069 -0.6412
   79MOL0     H10636   5.363   8.084   9.220  1.8492  0.2661  1.0047
   79MOL0     H10637   5.349   8.236   9.447  1.7388  2.2430  1.5960
   79MOL0     H10638   5.319   8.374   9.349 -2.2704 -0.9744  4.0000
   79MOL0     H10639   5.547   8.384   9.411 -1.5196 -0.0884  0.3799
   79MOL0     H10640   5.573   8.219   9.359  5.9613  2.7956 -0.2444
   79MOL0     H10641   5.484   8.439   9.168  1.6410  2.5519  0.5020
   79MOL0     H10642   5.553   8.276   9.128 -0.7015 -1.7981  1.3423
   79MOL0     H10643   5.773   8.364   9.258  1.6038  0.7732  0.4162
   79MOL0     H10644   5.733   8.402   9.086  0.0045 -0.2295  0.6675
   79MOL0     H10645   4.714   8.032   9.185  2.1246 -3.3260  0.8274
   79MOL0     H10646   4.487   7.951   9.134  0.4809 -0.4309 -0.9533
   79MOL0     H10647   4.182   7.873   8.737 -1.1561  0.8188 -0.6805
   79MOL0     H10648   3.946   7.830   8.705  0.9405 -1.5650 -2.1928
   79MOL0     H10649   2.266   7.302   8.816 -1.1050 -0.8894 -0.3387
   79MOL0     H10650   2.021   7.383   8.786  0.8380 -0.1414 -1.6197
   79MOL0     H10651   1.508   7.221   8.922  0.4450 -0.1227 -0.7798
   79MOL0     H10652   1.290   7.357   8.912 -1.2567  1.2776 -0.4020
   79MOL0     H10653   1.124   7.422   8.779 -1.1276  0.6749  0.2981
   79MOL0     H10654   1.075   7.591   8.742  4.3948  2.3687 -1.4633
   79MOL0     H10655   1.128   7.620   9.004 -2.1408 -0.0859  1.0770
   79MOL0     H10656   1.111   7.453   9.026 -0.7896  2.0188  2.9624
   79MOL0     H10657   0.888   7.489   8.878 -1.6736  2.7131 -0.8773
   79MOL0     H10658   0.926   7.656   8.902  1.2698  0.7579  0.9320
   79MOL0     H10659   0.873   7.452   9.137  0.5114  0.2119 -0.3360
   79MOL0     H10660   0.897   7.622   9.162  0.9741  0.1149 -0.0227
   79MOL0     H10661   0.499   7.642   9.051  1.1303  4.2479  1.8220
   79MOL0     H10662   1.497   7.665   8.712 -1.1235  0.6850 -1.0343
   79MOL0     H10663   1.838   7.543   8.801 -0.6775 -0.3004  1.3998
   79MOL0     H10664   1.793   7.550   8.634  0.7409 -0.0723  0.1116
   79MOL0     H10665   1.741   7.682   8.745  0.3093 -1.0397  0.7937
   80MOL0     O10666  10.421   1.371   6.439  0.6464 -0.0507  0.1335
   80MOL0     C10667  10.437   1.252   6.462 -0.0255 -1.1468  0.5493
   80MOL0     O10668  10.543   1.174   6.447 -0.3401 -1.2072  0.4941
   80MOL0     C10669  10.665   1.238   6.413 -0.4079  1.2148  0.2262
   80MOL0     C10670  10.778   1.236   6.500  0.0406 -0.1490  0.1715
   80MOL0     C10671  10.908   1.276   6.458  0.7541 -0.7035 -0.3289
   80MOL0     C10672  10.926   1.318   6.325  0.1515  0.6935 -1.0808
   80MOL0     O10673  11.043   1.358   6.271 -0.1940 -0.3139  0.3474
   80MOL0     C10674  11.163   1.354   6.349 -0.9894  0.0985  0.1997
   80MOL0     C10675  11.286   1.365   6.253  0.9379 -0.1594  0.1887
   80MOL0     C10676  11.415   1.401   6.329  0.4000 -0.2641 -0.2574
   80MOL0     C10677  11.534   1.367   6.244  0.6152  0.0178  0.3337
   80MOL0     C10678  11.670   1.410   6.296  0.4655 -0.5307  0.5856
   80MOL0     C10679  11.699   1.341   6.434  0.2742 -0.1102  0.1932
   80MOL0     C10680  11.848   1.351   6.478  0.5801  0.1026 -0.4387
   80MOL0     C10681  11.932   1.242   6.405 -0.0417 -0.8205  0.2835
   80MOL0     N10682  12.079   1.237   6.456  0.7908 -0.5115 -0.0502
   80MOL0     C10683  12.168   1.341   6.463  0.8507 -0.1862  0.2149
   80MOL0     C10684  12.265   1.294   6.541  0.4611  0.4598 -0.2281
   80MOL0     C10685  12.396   1.370   6.560  0.9203 -0.2441  0.0840
   80MOL0     C10686  12.386   1.499   6.614 -0.4305 -0.4706  0.0616
   80MOL0     C10687  12.520   1.541   6.685  0.4637  0.2504  0.1198
   80MOL0     C10688  12.509   1.688   6.728 -0.5875  0.0495 -0.0234
   80MOL0     O10689  12.550   1.716   6.867  0.0932 -0.0336 -0.1612
   80MOL0     C10690  12.673   1.685   6.919 -0.0552 -0.0629  0.9108
   80MOL0     C10691  12.686   1.687   7.060  0.5074 -0.3381 -0.6885
   80MOL0     C10692  12.815   1.658   7.107  0.2352 -0.2334  0.8459
   80MOL0     C10693  12.925   1.640   7.025  0.2735 -0.7602  0.4871
   80MOL0     C10694  13.060   1.611   7.076  0.7147 -0.2665 -0.2111
   80MOL0     O10695  13.156   1.571   6.988  0.3780  0.1081 -0.7932
   80MOL0     C10696  13.285   1.535   7.033  0.1782 -0.1351  0.5957
   80MOL0     C10697  13.387   1.630   7.035 -0.4904  1.1323  0.5200
   80MOL0     C10698  13.517   1.588   7.065  0.2882  0.7433 -0.0377
   80MOL0     C10699  13.543   1.448   7.087 -0.5546  0.0631  0.4004
   80MOL0     O10700  13.668   1.399   7.128  0.2330 -0.0227  0.5133
   80MOL0     C10701  13.782   1.475   7.088  0.0215  0.5938  0.7393
   80MOL0     C10702  13.906   1.389   7.078  1.1349 -0.7965 -1.0248
   80MOL0     C10703  13.949   1.330   7.208  0.5404  0.4408 -0.1697
   80MOL0     C10704  13.896   1.185   7.219 -0.1201  0.6352  0.4096
   80MOL0     C10705  13.942   1.125   7.353 -0.7107 -0.4433 -0.4438
   80MOL0     C10706  13.935   0.975   7.331  0.4306  0.3668 -0.1568
   80MOL0     C10707  13.951   0.903   7.470  0.0330 -0.5182  0.2018
   80MOL0     C10708  13.817   0.859   7.534  0.2835  0.2161  0.2380
   80MOL0    Cl10709  13.865   0.829   7.707  0.6945 -0.1304  0.0914
   80MOL0     C10710  13.442   1.361   7.082  0.2734  0.8500  0.6500
   80MOL0     C10711  13.305   1.401   7.063  0.2523 -0.3262  0.1018
   80MOL0     O10712  13.079   1.615   7.201  0.3679  0.3906 -0.0992
   80MOL0     C10713  12.904   1.640   6.884 -0.5143 -0.5008 -0.0863
   80MOL0     C10714  12.780   1.664   6.829 -0.0395  0.2385  0.3253
   80MOL0     N10715  12.227   1.169   6.591 -0.1205 -0.3625  0.0726
   80MOL0     N10716  12.119   1.135   6.532  0.8713  0.0772 -0.0103
   80MOL0     C10717  10.819   1.321   6.233  0.0617  1.2099 -0.3617
   80MOL0     C10718  10.689   1.276   6.277 -0.1185 -0.4825  0.2055
   80MOL0     C10719  10.315   1.175   6.497  0.1914 -0.5265 -0.2278
   80MOL0     C10720  10.190   1.205   6.437 -0.6657  0.1723  0.0147
   80MOL0     C10721  10.078   1.173   6.506 -0.0246 -0.2173 -0.1719
   80MOL0     C10722  10.085   1.099   6.621  0.1843  0.5687 -0.9210
   80MOL0     O10723   9.963   1.067   6.679 -0.2275 -0.3384  0.3191
   80MOL0     C10724   9.950   1.096   6.819  1.0120 -0.2472 -0.1487
   80MOL0     C10725   9.829   1.187   6.833 -0.7933 -0.2919 -0.2783
   80MOL0     C10726   9.695   1.113   6.811 -0.4903  0.2556  0.0059
   80MOL0     C10727   9.584   1.207   6.863  0.8541 -1.0958  0.4857
   80MOL0     C10728   9.455   1.148   6.876  0.8581  0.2754  1.0901
   80MOL0     C10729   9.345   1.086   6.881 -0.4268  0.4224  0.1898
   80MOL0     C10730  10.204   1.050   6.679 -0.0717 -0.3547 -0.2087
   80MOL0     C10731  10.323   1.096   6.616  0.5752  0.0737 -0.2307
   80MOL0     C10732  10.449   1.039   6.686 -0.3145  0.0227 -0.4530
   80MOL0     H10733  10.765   1.193   6.599  4.2778  2.1180  1.9882
   80MOL0     H10734  10.985   1.284   6.534  1.2129  2.9647 -0.9708
   80MOL0     H10735  11.165   1.437   6.420  0.7122  0.5318 -0.2960
   80MOL0     H10736  11.186   1.261   6.402  3.8197 -0.4423 -2.2991
   80MOL0     H10737  11.272   1.441   6.175 -1.7603  0.3421  1.0665
   80MOL0     H10738  11.300   1.272   6.197  3.2202  0.8140 -0.9987
   80MOL0     H10739  11.429   1.348   6.423 -1.2743 -2.0698 -0.9655
   80MOL0     H10740  11.419   1.509   6.350 -0.3539 -0.3064  0.1163
   80MOL0     H10741  11.528   1.260   6.221  1.1528  0.3381 -1.3914
   80MOL0     H10742  11.527   1.421   6.150 -0.3097 -0.5800  0.0475
   80MOL0     H10743  11.750   1.394   6.223  0.4767  2.0684 -0.0649
   80MOL0     H10744  11.664   1.519   6.306 -3.7532 -0.5570  0.2033
   80MOL0     H10745  11.637   1.403   6.499  2.9654  0.9493  1.8767
   80MOL0     H10746  11.671   1.236   6.420 -2.4839  0.5923 -0.1274
   80MOL0     H10747  11.854   1.335   6.586 -2.8311  3.6794  0.5110
   80MOL0     H10748  11.879   1.455   6.463 -2.2146  0.7756 -2.2288
   80MOL0     H10749  11.894   1.142   6.428 -0.6318 -0.6764 -0.0208
   80MOL0     H10750  11.925   1.265   6.298  0.4864 -0.7368  0.2655
   80MOL0     H10751  12.160   1.442   6.423 -1.2893 -1.5713 -3.2521
   80MOL0     H10752  12.455   1.304   6.624  1.2935  0.1819  0.1836
   80MOL0     H10753  12.441   1.384   6.461  1.0391  0.1015  0.1850
   80MOL0     H10754  12.377   1.569   6.530 -1.3436  0.5590  0.9993
   80MOL0     H10755  12.309   1.502   6.691  2.4698 -0.4037  3.2165
   80MOL0     H10756  12.606   1.530   6.619 -0.7211  0.5566 -1.5493
   80MOL0     H10757  12.531   1.476   6.772 -0.1248 -0.7476 -0.5312
   80MOL0     H10758  12.409   1.733   6.724  0.3572  2.2626 -0.2933
   80MOL0     H10759  12.573   1.742   6.657 -1.5961 -1.4896 -2.2194
   80MOL0     H10760  12.607   1.697   7.133  1.6406  1.3544  0.3771
   80MOL0     H10761  12.819   1.660   7.215 -2.3612 -0.1425  1.0002
   80MOL0     H10762  13.381   1.735   7.006  0.5306  0.8713 -0.7140
   80MOL0     H10763  13.591   1.667   7.073  1.0445  0.1062 -0.6975
   80MOL0     H10764  13.769   1.515   6.986 -2.3086  1.0749  1.1526
   80MOL0     H10765  13.796   1.552   7.164 -0.8786 -0.2255  1.7766
   80MOL0     H10766  13.897   1.311   7.002  0.9618 -2.0720  0.2553
   80MOL0     H10767  13.977   1.468   7.053 -0.3033 -0.2909 -3.8178
   80MOL0     H10768  14.058   1.338   7.220  0.3299  1.8194  1.0576
   80MOL0     H10769  13.901   1.384   7.290 -1.6082 -3.5368  1.4429
   80MOL0     H10770  13.945   1.121   7.145  0.1393  1.1957  0.0958
   80MOL0     H10771  13.787   1.177   7.216 -0.0503 -2.2001  1.6059
   80MOL0     H10772  13.875   1.165   7.431 -0.7532 -0.9620 -0.2100
   80MOL0     H10773  14.039   1.160   7.388 -1.9586  1.1325  1.7007
   80MOL0     H10774  13.838   0.944   7.291  0.5110 -1.2208  0.7917
   80MOL0     H10775  14.011   0.943   7.259 -0.7265  0.9795 -1.6896
   80MOL0     H10776  13.998   0.982   7.529 -0.2907 -0.4215  0.3331
   80MOL0     H10777  14.012   0.812   7.462 -3.0198 -2.6611 -0.7524
   80MOL0     H10778  13.753   0.948   7.528  0.2770  0.0984 -2.1368
   80MOL0     H10779  13.785   0.768   7.484  0.3855 -1.0996  2.4476
   80MOL0     H10780  13.480   1.260   7.092  1.5687  0.9617 -2.2243
   80MOL0     H10781  13.225   1.328   7.074 -1.6150  1.9927  3.8256
   80MOL0     H10782  12.991   1.620   6.822  0.9047  2.0233  0.9570
   80MOL0     H10783  12.761   1.664   6.722 -2.0134  0.3988  0.6451
   80MOL0     H10784  10.846   1.351   6.132  0.9763  2.5931  0.2706
   80MOL0     H10785  10.604   1.264   6.210 -0.4174 -3.1895  0.9761
   80MOL0     H10786  10.202   1.265   6.347  2.1084  0.6112  0.6019
   80MOL0     H10787   9.983   1.211   6.470  0.2038  0.0628 -0.4949
   80MOL0     H10788  10.034   1.148   6.865  1.1942 -0.9669  0.3565
   80MOL0     H10789   9.938   1.002   6.875 -1.1429 -0.5493 -0.9930
   80MOL0     H10790   9.837   1.274   6.767  0.9539 -0.1393  0.0981
   80MOL0     H10791   9.825   1.229   6.933 -0.0493  1.4619 -0.9422
   80MOL0     H10792   9.697   1.022   6.872  0.4002  0.3909  0.1969
   80MOL0     H10793   9.694   1.080   6.706  2.3613 -0.2285  0.0646
   80MOL0     H10794   9.603   1.238   6.966  1.7019  1.1120 -0.2822
   80MOL0     H10795   9.590   1.300   6.805  0.3883  0.2625  2.5286
   80MOL0     H10796   9.259   1.023   6.881 -0.1443 -0.0100  2.0260
   80MOL0     H10797  10.207   0.996   6.773  0.1953 -0.3206 -0.1967
   80MOL0     H10798  10.439   0.962   6.764  2.8209 -0.6737 -0.6169
   80MOL0     H10799  10.511   0.988   6.612  2.0454  0.5824  1.0121
   80MOL0     H10800  10.512   1.124   6.712  0.3221 -0.6864  0.4044
   81MOL0     O10801   9.126  10.998   9.629  0.3805  0.3812 -0.2610
   81MOL0     C10802   9.118  10.875   9.661 -0.0401  0.3092  1.1807
   81MOL0     O10803   9.227  10.799   9.689 -0.0842  0.1738  0.0679
   81MOL0     C10804   9.357  10.820   9.656  0.4701  0.1021  0.3109
   81MOL0     C10805   9.442  10.710   9.645  0.4767  0.2154 -0.2789
   81MOL0     C10806   9.584  10.726   9.635 -0.8440  0.6096 -0.1197
   81MOL0     C10807   9.640  10.850   9.611  0.1874 -0.3768 -0.9382
   81MOL0     O10808   9.773  10.889   9.589 -0.0912  0.1389  0.8138
   81MOL0     C10809   9.882  10.794   9.610 -0.3665  0.4545 -0.1680
   81MOL0     C10810  10.020  10.870   9.576  0.0562  0.3799 -0.4903
   81MOL0     C10811  10.130  10.761   9.566 -1.2129 -0.3241 -0.8333
   81MOL0     C10812  10.245  10.810   9.656  0.7118 -0.2917 -0.0286
   81MOL0     C10813  10.369  10.729   9.641 -0.2224 -0.5885  0.1062
   81MOL0     C10814  10.463  10.768   9.762 -0.7403 -1.0256 -0.2099
   81MOL0     C10815  10.425  10.685   9.889  0.2809 -0.5345 -0.0716
   81MOL0     C10816  10.466  10.546   9.884  0.1014  0.0027 -0.0990
   81MOL0     N10817  10.608  10.529   9.887 -0.5887 -0.5017  0.0358
   81MOL0     C10818  10.702  10.582   9.968 -0.0806 -1.3683 -0.8126
   81MOL0     C10819  10.825  10.557   9.910  0.4003  0.5233  0.2072
   81MOL0     C10820  10.956  10.604   9.962  0.1177 -0.1151 -1.4255
   81MOL0     C10821  11.049  10.483   9.977 -0.3214 -0.3086 -0.1035
   81MOL0     C10822  11.187  10.522  10.013  0.5936 -0.0744 -0.6125
   81MOL0     C10823  11.276  10.396  10.020 -0.5815  0.1796  0.4495
   81MOL0     O10824  11.409  10.435  10.018  0.1048 -0.8429  0.8769
   81MOL0     C10825  11.511  10.345  10.005  0.0549  0.0916  0.2060
   81MOL0     C10826  11.629  10.397   9.965 -0.5165  0.0405 -0.9569
   81MOL0     C10827  11.744  10.323   9.964 -0.2951  0.7381 -0.0575
   81MOL0     C10828  11.745  10.192  10.010  0.3112 -0.0963  0.3277
   81MOL0     C10829  11.868  10.100   9.996  0.0365 -0.0373 -0.4016
   81MOL0     O10830  11.981  10.157   9.946 -0.1820  0.1564  0.0501
   81MOL0     C10831  12.083  10.091   9.889 -0.2522  0.0879  0.1391
   81MOL0     C10832  12.112   9.958   9.902  0.6275  0.1755  1.0573
   81MOL0     C10833  12.232   9.903   9.849  1.0900  0.2758 -0.2234
   81MOL0     C10834  12.327   9.987   9.785  0.2493 -0.4661  0.3096
   81MOL0     O10835  12.442   9.931   9.728  0.1881 -0.5588  0.1914
   81MOL0     C10836  12.494   9.798   9.742 -1.0208 -0.4629  0.4200
   81MOL0     C10837  12.628   9.784   9.668  0.0066  1.1006 -0.3212
   81MOL0     C10838  12.675   9.641   9.673 -0.4572 -0.2998  0.6998
   81MOL0     C10839  12.800   9.608   9.582 -0.2515  0.0215 -0.0234
   81MOL0     C10840  12.933   9.651   9.644  0.8662 -0.0799 -0.1594
   81MOL0     C10841  13.049   9.619   9.563 -0.7744 -0.2959 -0.6479
   81MOL0     C10842  13.187   9.650   9.629  0.6562 -0.6027 -0.0514
   81MOL0     C10843  13.296   9.581   9.553  0.4229  0.3594  0.7988
   81MOL0    Cl10844  13.449   9.617   9.629 -0.2377 -0.2160 -0.3484
   81MOL0     C10845  12.292  10.124   9.769  0.2125  0.1798 -0.0655
   81MOL0     C10846  12.172  10.168   9.822 -0.5205  0.4872 -1.2570
   81MOL0     O10847  11.846   9.982  10.026  0.1691 -0.2846  0.7513
   81MOL0     C10848  11.622  10.139  10.055  0.0416  0.5408 -0.0811
   81MOL0     C10849  11.506  10.211  10.046 -0.0466 -0.8865 -0.1859
   81MOL0     N10850  10.800  10.476   9.805  0.6567  0.1792  0.0105
   81MOL0     N10851  10.677  10.448   9.801  0.6191 -0.7688 -1.0384
   81MOL0     C10852   9.544  10.955   9.621 -0.0532 -0.0658 -0.3842
   81MOL0     C10853   9.412  10.943   9.649 -0.5998 -0.0860  0.7445
   81MOL0     C10854   8.983  10.803   9.657 -0.8204 -0.0291  0.0213
   81MOL0     C10855   8.870  10.878   9.679 -0.2855  0.1398 -0.4519
   81MOL0     C10856   8.744  10.825   9.649 -0.1294 -0.1262 -0.3637
   81MOL0     C10857   8.733  10.692   9.598 -0.3168 -0.1728  0.1699
   81MOL0     O10858   8.618  10.636   9.550 -0.0127 -0.8574  0.4577
   81MOL0     C10859   8.493  10.713   9.570 -0.9286 -0.4207  0.4248
   81MOL0     C10860   8.372  10.632   9.513  0.0014 -0.4155  0.8914
   81MOL0     C10861   8.397  10.602   9.363 -0.0005 -0.6076  0.3251
   81MOL0     C10862   8.315  10.481   9.319 -0.3638  0.3217 -0.1931
   81MOL0     C10863   8.177  10.482   9.361  0.1812 -0.3774  0.3799
   81MOL0     C10864   8.065  10.473   9.396  0.6672 -0.6306 -0.2828
   81MOL0     C10865   8.848  10.618   9.586 -0.0515 -0.6315  1.0074
   81MOL0     C10866   8.972  10.670   9.614 -0.2927  0.1079 -0.5978
   81MOL0     C10867   9.085  10.572   9.584  0.1051  0.1412 -0.2816
   81MOL0     H10868   9.391  10.615   9.661 -0.4023  1.3021  5.4482
   81MOL0     H10869   9.635  10.631   9.648 -4.9506 -1.5480  2.2110
   81MOL0     H10870   9.872  10.763   9.715  1.1369  0.9000  0.1366
   81MOL0     H10871   9.861  10.710   9.543  0.2572 -1.0948  1.5066
   81MOL0     H10872  10.030  10.938   9.661  1.4478  1.7774 -1.7269
   81MOL0     H10873  10.015  10.923   9.481  1.6858  1.1518 -0.1798
   81MOL0     H10874  10.177  10.745   9.469  0.0103 -2.8792  0.0913
   81MOL0     H10875  10.099  10.662   9.601 -0.5906  0.1791  1.2772
   81MOL0     H10876  10.267  10.915   9.635  2.0951 -1.1649 -3.6405
   81MOL0     H10877  10.203  10.806   9.757 -0.5352 -1.0978 -0.5467
   81MOL0     H10878  10.331  10.626   9.645 -1.4902 -0.1351  3.2982
   81MOL0     H10879  10.415  10.760   9.547 -1.2264  0.8872  0.0580
   81MOL0     H10880  10.569  10.748   9.745 -0.2649  0.4476  0.7946
   81MOL0     H10881  10.463  10.878   9.765 -1.7622 -0.9834 -1.0530
   81MOL0     H10882  10.319  10.704   9.910  0.3088 -0.5423  0.0758
   81MOL0     H10883  10.478  10.730   9.973  1.8118 -1.9223 -0.2567
   81MOL0     H10884  10.416  10.504   9.972 -0.0357  0.0625 -0.1488
   81MOL0     H10885  10.430  10.500   9.791 -0.8103  1.5352 -0.5323
   81MOL0     H10886  10.694  10.626  10.067  4.3476 -2.2508  0.1542
   81MOL0     H10887  11.001  10.669   9.886  2.3189 -0.9569 -0.9178
   81MOL0     H10888  10.947  10.660  10.055 -1.2435 -2.1271 -0.2643
   81MOL0     H10889  11.010  10.412  10.050  0.6494  1.3296  2.1000
   81MOL0     H10890  11.063  10.433   9.880  1.7826  2.1144 -1.1551
   81MOL0     H10891  11.191  10.571  10.111  1.0267  1.7202 -1.4825
   81MOL0     H10892  11.232  10.602   9.954 -0.6728  1.5537  0.4919
   81MOL0     H10893  11.260  10.338   9.929 -0.4389 -1.9101  1.6959
   81MOL0     H10894  11.254  10.342  10.113 -0.3393 -2.8275 -1.0974
   81MOL0     H10895  11.650  10.500   9.940  2.2151 -0.5147 -1.2834
   81MOL0     H10896  11.841  10.365   9.937  2.0727 -2.8747  1.9914
   81MOL0     H10897  12.047   9.891   9.957 -1.7145  1.4469 -0.0252
   81MOL0     H10898  12.252   9.798   9.863 -0.7074 -0.2936 -1.5401
   81MOL0     H10899  12.517   9.775   9.846  1.3676  0.0831  0.0694
   81MOL0     H10900  12.435   9.718   9.697  0.2173 -0.7644 -0.7445
   81MOL0     H10901  12.614   9.803   9.561 -1.0478 -1.8638 -0.8073
   81MOL0     H10902  12.708   9.841   9.715 -0.1263  2.4095 -1.6162
   81MOL0     H10903  12.702   9.626   9.778  1.4477  1.1472  0.4805
   81MOL0     H10904  12.592   9.573   9.650 -1.5919  0.7828  1.4744
   81MOL0     H10905  12.786   9.650   9.482 -0.8951  2.5217  1.0200
   81MOL0     H10906  12.793   9.501   9.561  4.0567 -0.3384 -0.4138
   81MOL0     H10907  12.926   9.596   9.738  1.9001 -0.4942 -0.3141
   81MOL0     H10908  12.920   9.759   9.654  0.5418  0.0220 -1.4714
   81MOL0     H10909  13.044   9.512   9.542  0.2554 -0.7285  1.1141
   81MOL0     H10910  13.058   9.670   9.466 -0.2764  0.7175 -0.0815
   81MOL0     H10911  13.193   9.608   9.730  1.0820  1.3381  0.7758
   81MOL0     H10912  13.200   9.758   9.640  0.7433 -0.7849  2.0882
   81MOL0     H10913  13.280   9.473   9.564  0.3127  0.2569 -0.2696
   81MOL0     H10914  13.294   9.610   9.448 -0.3438 -0.8462  0.4718
   81MOL0     H10915  12.371  10.190   9.735  1.8919 -1.2943  0.8337
   81MOL0     H10916  12.141  10.271   9.805  1.5297  1.1629 -1.1886
   81MOL0     H10917  11.611  10.037  10.088 -0.5802 -0.3394 -2.7431
   81MOL0     H10918  11.412  10.167  10.079  0.2137 -2.7970 -1.7874
   81MOL0     H10919   9.575  11.059   9.610 -1.4262  0.4015 -0.0405
   81MOL0     H10920   9.351  11.030   9.671  0.4647  1.0815 -0.6934
   81MOL0     H10921   8.881  10.985   9.695  1.6945 -0.0142 -0.5173
   81MOL0     H10922   8.667  10.900   9.659  2.0891  2.6547 -2.5502
   81MOL0     H10923   8.502  10.807   9.515  0.9898 -1.5303 -1.3475
   81MOL0     H10924   8.475  10.727   9.677  4.4636  2.3764  1.3313
   81MOL0     H10925   8.277  10.686   9.514  0.3933  0.3138  3.0031
   81MOL0     H10926   8.372  10.542   9.575 -2.0978 -0.0886  1.4464
   81MOL0     H10927   8.501  10.579   9.338  0.2139  1.4665 -0.9048
   81MOL0     H10928   8.372  10.687   9.298 -2.1872 -1.5523 -0.1530
   81MOL0     H10929   8.326  10.461   9.212 -0.1432 -3.1811  0.3722
   81MOL0     H10930   8.368  10.397   9.364  0.0319 -0.2268 -1.6272
   81MOL0     H10931   7.961  10.493   9.411  0.8203  2.0061 -2.0346
   81MOL0     H10932   8.844  10.517   9.547  0.0100 -0.9364  1.7855
   81MOL0     H10933   9.048  10.485   9.529  0.7886  0.4566 -1.2799
   81MOL0     H10934   9.162  10.623   9.524 -1.5718  1.7841 -1.1502
   81MOL0     H10935   9.137  10.540   9.675  0.4837 -0.5884 -0.7380
   82MOL0     O10936   5.858   3.545  10.718 -0.2299 -0.1386  0.1522
   82MOL0     C10937   5.816   3.629  10.632  0.4503  0.0770 -0.4310
   82MOL0     O10938   5.889   3.688  10.536 -1.2340 -0.0295  0.4055
   82MOL0     C10939   6.026   3.677  10.537 -0.1761  0.3465  0.7450
   82MOL0     C10940   6.104   3.671  10.650 -0.4809  0.1659 -0.3422
   82MOL0     C10941   6.243   3.664  10.627 -0.6143  0.4748  0.1127
   82MOL0     C10942   6.302   3.670  10.507  0.7757 -0.4752  0.8253
   82MOL0     O10943   6.441   3.657  10.499  0.5255 -0.1422  0.1102
   82MOL0     C10944   6.519   3.686  10.384 -0.4324 -0.1511  0.2379
   82MOL0     C10945   6.659   3.724  10.425  0.3194  0.3454 -0.0290
   82MOL0     C10946   6.728   3.818  10.317 -0.0186  0.9332  0.2416
   82MOL0     C10947   6.874   3.842  10.340  0.3156  0.5260 -0.4337
   82MOL0     C10948   6.888   3.949  10.446  0.4431 -0.8451 -0.6588
   82MOL0     C10949   7.041   3.985  10.465  0.0574  0.2533  0.2935
   82MOL0     C10950   7.064   4.069  10.586  0.1174  0.6658 -0.1968
   82MOL0     C10951   7.216   4.089  10.605 -0.1567 -0.0726  0.2667
   82MOL0     N10952   7.251   4.225  10.571 -0.3974 -0.3057 -0.1151
   82MOL0     C10953   7.294   4.313  10.664  0.2267 -0.0865 -0.3419
   82MOL0     C10954   7.344   4.415  10.594  0.7122  0.5224  0.7342
   82MOL0     C10955   7.413   4.532  10.655  0.2725  1.0236 -0.1630
   82MOL0     C10956   7.564   4.526  10.638 -0.6119  0.2183  0.4677
   82MOL0     C10957   7.606   4.675  10.667 -1.2786 -0.5107  0.7282
   82MOL0     C10958   7.755   4.679  10.712  0.5847  0.3917  0.1283
   82MOL0     O10959   7.835   4.634  10.600 -0.3972  0.1565 -0.5889
   82MOL0     C10960   7.972   4.648  10.613  0.2907  0.3507  0.0762
   82MOL0     C10961   8.040   4.677  10.726 -0.0334 -0.3052  0.0474
   82MOL0     C10962   8.179   4.683  10.732 -0.3205 -0.1363 -0.2832
   82MOL0     C10963   8.252   4.658  10.620  0.0727 -0.7323  1.0653
   82MOL0     C10964   8.401   4.675  10.633  0.7761  0.4998 -0.5084
   82MOL0     O10965   8.462   4.661  10.752 -0.2115 -0.8593 -0.7446
   82MOL0     C10966   8.600   4.661  10.749  0.7324 -0.3622  0.0119
   82MOL0     C10967   8.676   4.781  10.772  0.0138 -0.0190 -0.5232
   82MOL0     C10968   8.815   4.788  10.776 -0.1160  0.8342  1.0956
   82MOL0     C10969   8.885   4.666  10.738  0.4280 -0.1771 -0.0108
   82MOL0     O10970   9.015   4.652  10.731  0.6208 -0.4306  0.5931
   82MOL0     C10971   9.097   4.772  10.748 -0.1474  0.0876 -0.3716
   82MOL0     C10972   9.132   4.775  10.894  0.2214  0.5267 -0.0907
   82MOL0     C10973   9.153   4.636  10.964 -0.2893  0.7373 -0.4590
   82MOL0     C10974   9.200   4.662  11.101 -0.8208 -0.0402  0.0681
   82MOL0     C10975   9.242   4.534  11.171  0.4270 -1.0377  0.5768
   82MOL0     C10976   9.300   4.551  11.311  0.0773 -0.6452 -0.1451
   82MOL0     C10977   9.435   4.624  11.331 -0.0861  0.2669  0.3174
   82MOL0     C10978   9.543   4.614  11.215  0.1615  0.5085 -0.1079
   82MOL0    Cl10979   9.605   4.440  11.220  0.1061  0.2654  0.0503
   82MOL0     C10980   8.810   4.548  10.709 -0.1210 -1.0688 -0.2789
   82MOL0     C10981   8.671   4.548  10.706  1.1311  0.1322  0.0153
   82MOL0     O10982   8.457   4.702  10.530 -0.0007 -0.0159 -0.0364
   82MOL0     C10983   8.185   4.614  10.495 -0.2135 -0.4551  0.0503
   82MOL0     C10984   8.041   4.606  10.501  0.4170 -0.0624 -0.2733
   82MOL0     N10985   7.321   4.393  10.466 -1.1228  0.3046  0.2768
   82MOL0     N10986   7.275   4.275  10.450  0.2042  0.3238 -0.0236
   82MOL0     C10987   6.216   3.682  10.393  0.1044 -0.1465  0.8375
   82MOL0     C10988   6.082   3.686  10.409  1.0521  0.1902  0.7135
   82MOL0     C10989   5.675   3.679  10.647  0.4952 -0.7086  0.1806
   82MOL0     C10990   5.601   3.612  10.751  0.3693  0.0661  0.2038
   82MOL0     C10991   5.470   3.654  10.781  0.3174  0.0403  0.5901
   82MOL0     C10992   5.415   3.760  10.707 -0.3182 -0.1481 -0.0008
   82MOL0     O10993   5.294   3.798  10.762 -0.0150 -0.4367  0.2310
   82MOL0     C10994   5.248   3.931  10.729  0.2019  0.2110  0.3032
   82MOL0     C10995   5.106   3.959  10.779 -0.3444  1.3215  0.4000
   82MOL0     C10996   5.013   3.834  10.772  0.0689 -0.0905 -0.2547
   82MOL0     C10997   4.998   3.791  10.631  0.2915 -0.4540 -0.2669
   82MOL0     C10998   4.911   3.885  10.556 -0.3599 -0.1546 -0.1073
   82MOL0     C10999   4.864   3.966  10.485  0.5188 -0.0738  0.4020
   82MOL0     C11000   5.479   3.820  10.606 -0.4842  0.8680  0.6929
   82MOL0     C11001   5.613   3.780  10.565  0.1865  0.0407 -0.1783
   82MOL0     C11002   5.673   3.858  10.449 -0.0806 -1.6512 -0.5620
   82MOL0     H11003   6.068   3.676  10.752 -0.1348 -1.7206 -0.0832
   82MOL0     H11004   6.309   3.652  10.712  1.2326  1.0862 -1.1575
   82MOL0     H11005   6.543   3.598  10.324 -3.2558 -3.4278  3.3999
   82MOL0     H11006   6.477   3.774  10.334 -2.0521 -0.5790  0.7657
   82MOL0     H11007   6.726   3.640  10.443  0.8561  0.6510 -0.5954
   82MOL0     H11008   6.654   3.778  10.521 -0.7832 -1.0735  0.7488
   82MOL0     H11009   6.678   3.915  10.309 -3.2690 -0.6973 -1.3498
   82MOL0     H11010   6.722   3.776  10.216 -0.6808  0.9900  0.2496
   82MOL0     H11011   6.920   3.752  10.384  3.4870  1.8749 -0.7598
   82MOL0     H11012   6.926   3.854  10.245 -2.2018  0.7703 -1.8717
   82MOL0     H11013   6.846   4.048  10.426  2.5188 -0.1769 -1.9555
   82MOL0     H11014   6.849   3.926  10.546  0.9081  0.2632 -0.1975
   82MOL0     H11015   7.092   3.889  10.478 -2.3847 -1.1615  0.0871
   82MOL0     H11016   7.074   4.031  10.372  0.6724 -0.8927 -0.0811
   82MOL0     H11017   7.022   4.025  10.677  1.5843  3.3601  1.9469
   82MOL0     H11018   7.015   4.165  10.567 -0.4447  0.3710 -0.2444
   82MOL0     H11019   7.230   4.068  10.711 -1.5008 -0.0740  0.4527
   82MOL0     H11020   7.276   4.015  10.551  0.4392  0.6080 -0.0274
   82MOL0     H11021   7.310   4.292  10.769  1.9043  0.6743 -0.4129
   82MOL0     H11022   7.365   4.621  10.614 -0.3043  1.3923  1.2588
   82MOL0     H11023   7.387   4.541  10.760 -0.1161  1.3952 -0.2893
   82MOL0     H11024   7.607   4.466  10.718  0.1220 -0.0205 -0.0972
   82MOL0     H11025   7.598   4.479  10.546 -0.6301 -1.7723  1.4303
   82MOL0     H11026   7.541   4.728  10.737  1.0173  4.0462 -0.1993
   82MOL0     H11027   7.597   4.746  10.584  0.4154  0.0581  0.9962
   82MOL0     H11028   7.770   4.617  10.801 -0.9247  1.0924  0.9053
   82MOL0     H11029   7.786   4.782  10.733 -0.6417  1.0461 -1.1290
   82MOL0     H11030   7.979   4.696  10.814  0.3358  1.2387 -0.0107
   82MOL0     H11031   8.217   4.726  10.824  1.8419  0.2476 -1.2807
   82MOL0     H11032   8.624   4.874  10.797  2.6399  0.7323  2.8826
   82MOL0     H11033   8.868   4.883  10.779 -1.2843  1.5029  0.8901
   82MOL0     H11034   9.190   4.748  10.696 -0.4391 -1.1900 -0.3438
   82MOL0     H11035   9.077   4.868  10.700  2.6567  0.9150 -0.0334
   82MOL0     H11036   9.218   4.842  10.894  0.4694  0.2076 -0.0804
   82MOL0     H11037   9.064   4.832  10.959  2.2688  1.0840  1.6406
   82MOL0     H11038   9.066   4.570  10.971 -1.3666  2.3199  3.2445
   82MOL0     H11039   9.233   4.584  10.910 -0.8683 -0.7568  0.0595
   82MOL0     H11040   9.122   4.711  11.160 -2.6386 -2.1014 -0.4975
   82MOL0     H11041   9.289   4.726  11.103  0.5409 -1.8719  1.0999
   82MOL0     H11042   9.314   4.485  11.105 -1.0368  0.9083 -2.6692
   82MOL0     H11043   9.157   4.467  11.182 -0.9317 -0.0344 -2.6699
   82MOL0     H11044   9.227   4.596  11.379  0.8693  0.1624  0.1925
   82MOL0     H11045   9.317   4.450  11.348 -0.9558 -0.3969  1.0690
   82MOL0     H11046   9.491   4.580  11.414  3.7476  1.4519 -1.4208
   82MOL0     H11047   9.430   4.732  11.346  5.2765  0.8421  0.0222
   82MOL0     H11048   9.504   4.632  11.114 -0.7155  0.7803  0.2722
   82MOL0     H11049   9.623   4.686  11.235  0.2135  0.1815  0.9367
   82MOL0     H11050   8.867   4.461  10.678  3.4289  0.5651  1.1130
   82MOL0     H11051   8.609   4.462  10.682  1.8687 -0.1643 -0.8885
   82MOL0     H11052   8.244   4.579  10.411 -1.8331 -0.1844 -1.2485
   82MOL0     H11053   7.980   4.572  10.418 -0.8022  0.6429  0.3142
   82MOL0     H11054   6.244   3.676  10.288 -2.9709 -1.7549 -0.0251
   82MOL0     H11055   6.010   3.702  10.330  0.5421  0.5500  1.2478
   82MOL0     H11056   5.639   3.525  10.804 -0.5110  0.6123  1.8232
   82MOL0     H11057   5.411   3.612  10.862  0.8230 -0.3115  0.7835
   82MOL0     H11058   5.250   3.928  10.620 -1.5147  1.0754  0.2243
   82MOL0     H11059   5.308   4.008  10.779 -1.1097  1.6240 -0.2284
   82MOL0     H11060   5.073   4.056  10.741 -0.7074  1.3493  0.7767
   82MOL0     H11061   5.120   3.984  10.885  0.0157  2.6710  0.0489
   82MOL0     H11062   4.915   3.846  10.819  0.3280 -1.5431  0.6875
   82MOL0     H11063   5.065   3.754  10.824  0.8842  1.9019  2.2203
   82MOL0     H11064   5.095   3.768  10.587  1.0636  1.4462  0.3212
   82MOL0     H11065   4.937   3.702  10.618 -2.0070  0.9547  0.2332
   82MOL0     H11066   4.830   4.048  10.425  0.5589  0.0832  0.5884
   82MOL0     H11067   5.436   3.904  10.552  0.6399 -0.5116 -2.6310
   82MOL0     H11068   5.752   3.927  10.481 -2.3209  1.2247 -0.8720
   82MOL0     H11069   5.712   3.791  10.371 -0.0731 -0.2263 -1.8359
   82MOL0     H11070   5.598   3.925  10.407  0.7286 -0.5296 -0.2890
   83MOL0     O11071   7.085   5.675   3.682 -0.0288 -0.3552 -0.5608
   83MOL0     C11072   7.002   5.594   3.643  0.2967 -0.4166  0.4069
   83MOL0     O11073   7.028   5.476   3.588  0.5887  0.4523 -0.2771
   83MOL0     C11074   7.156   5.426   3.575 -0.6372  0.2208  0.7096
   83MOL0     C11075   7.261   5.497   3.511 -0.5227  0.1749 -0.8947
   83MOL0     C11076   7.387   5.443   3.509 -1.1191 -0.0456 -0.3900
   83MOL0     C11077   7.412   5.312   3.573  0.5357 -0.4406 -0.4576
   83MOL0     O11078   7.531   5.258   3.579 -0.5547  0.0385  0.0975
   83MOL0     C11079   7.645   5.346   3.550  0.2403 -0.0891 -0.1015
   83MOL0     C11080   7.769   5.280   3.623 -0.7288 -1.0095  0.1016
   83MOL0     C11081   7.904   5.360   3.627  1.1339 -0.2302 -0.5950
   83MOL0     C11082   8.005   5.309   3.733  0.1232  0.3046  0.1669
   83MOL0     C11083   8.142   5.357   3.709 -0.8130  0.6351 -0.4358
   83MOL0     C11084   8.254   5.319   3.809 -0.4210  0.3578 -0.5078
   83MOL0     C11085   8.356   5.425   3.840 -0.3672 -0.1673  0.2519
   83MOL0     C11086   8.300   5.502   3.963 -0.4633 -0.9309 -0.6258
   83MOL0     N11087   8.362   5.639   3.959  0.4251  0.8245 -0.5590
   83MOL0     C11088   8.479   5.663   4.011  0.7765  0.4863 -0.2211
   83MOL0     C11089   8.525   5.772   3.943  0.1779 -1.4090 -0.7522
   83MOL0     C11090   8.659   5.841   3.948 -0.0429 -0.6808  0.4547
   83MOL0     C11091   8.769   5.746   3.915 -0.4293 -0.8151 -0.1899
   83MOL0     C11092   8.905   5.800   3.952  0.1047 -0.4224  0.2221
   83MOL0     C11093   9.003   5.693   3.934  0.1869 -0.2654 -0.4903
   83MOL0     O11094   9.134   5.753   3.900  0.4475  0.6417  0.1601
   83MOL0     C11095   9.210   5.804   4.001 -0.0734  0.4221 -0.3356
   83MOL0     C11096   9.172   5.806   4.137 -0.3233 -0.3140 -0.0811
   83MOL0     C11097   9.261   5.863   4.231 -0.2731 -0.0995 -0.2028
   83MOL0     C11098   9.390   5.902   4.200  0.3483 -0.6100 -0.9058
   83MOL0     C11099   9.486   5.933   4.302 -0.3341 -0.0554 -0.9078
   83MOL0     O11100   9.615   5.950   4.256  0.8398 -0.6104 -0.2506
   83MOL0     C11101   9.718   5.944   4.346 -0.7870 -0.5698 -0.1329
   83MOL0     C11102   9.776   5.816   4.365 -0.4508  0.2690  0.4167
   83MOL0     C11103   9.891   5.800   4.442  0.6669 -0.3004  0.4012
   83MOL0     C11104   9.946   5.898   4.517 -0.0105  0.0061  0.0160
   83MOL0     O11105  10.055   5.871   4.591 -0.2634 -0.3264  0.2291
   83MOL0     C11106  10.155   5.980   4.593  0.0320  0.3382  0.0249
   83MOL0     C11107  10.283   5.924   4.644 -0.4155 -0.3942 -0.7818
   83MOL0     C11108  10.395   6.027   4.646 -0.2221 -0.7517 -0.2640
   83MOL0     C11109  10.502   5.970   4.744 -0.1524  0.7850  0.5589
   83MOL0     C11110  10.617   6.070   4.743 -0.1549  0.7384  0.0487
   83MOL0     C11111  10.712   6.040   4.856  0.0289  1.4250  0.1437
   83MOL0     C11112  10.853   6.105   4.828  0.7005 -0.3254 -0.5951
   83MOL0     C11113  10.937   6.097   4.958 -0.8354  0.2637  0.1235
   83MOL0    Cl11114  11.118   6.107   4.926 -0.0414  0.0725 -0.3390
   83MOL0     C11115   9.878   6.021   4.516 -0.1013  0.2572 -1.4086
   83MOL0     C11116   9.767   6.045   4.432 -0.2072 -0.0907  0.2562
   83MOL0     O11117   9.453   5.948   4.420 -0.1318  1.0096  0.4568
   83MOL0     C11118   9.424   5.888   4.064 -0.5474  0.5452 -0.7498
   83MOL0     C11119   9.335   5.840   3.974  0.2790 -0.5953  0.8047
   83MOL0     N11120   8.426   5.822   3.863  0.1432 -0.0772  0.0748
   83MOL0     N11121   8.327   5.739   3.875 -1.0677 -0.1730  0.4261
   83MOL0     C11122   7.307   5.242   3.624  0.3804  0.2921 -0.5725
   83MOL0     C11123   7.181   5.302   3.633 -0.0482 -0.3353  0.2907
   83MOL0     C11124   6.863   5.635   3.635 -0.4090 -0.2502  0.5340
   83MOL0     C11125   6.788   5.602   3.526  0.0451  0.4415 -0.3582
   83MOL0     C11126   6.657   5.625   3.517  1.3908  0.7633 -0.1388
   83MOL0     C11127   6.589   5.701   3.610  0.8106 -0.6635  0.1696
   83MOL0     O11128   6.466   5.755   3.577 -0.2284 -0.3793 -1.4096
   83MOL0     C11129   6.380   5.772   3.689 -0.5005  0.1781  0.4132
   83MOL0     C11130   6.230   5.778   3.642  0.6110 -0.6340 -0.1384
   83MOL0     C11131   6.190   5.933   3.647  0.1556 -0.4412  0.1448
   83MOL0     C11132   6.038   5.947   3.617 -0.0200  0.5666 -0.0218
   83MOL0     C11133   5.997   6.089   3.596 -0.9007 -0.3341  1.0570
   83MOL0     C11134   5.974   6.202   3.589  0.5435  0.4284  0.0026
   83MOL0     C11135   6.662   5.745   3.719  0.0716  0.1351 -0.5161
   83MOL0     C11136   6.796   5.705   3.744  0.0769  0.5655  0.2363
   83MOL0     C11137   6.874   5.755   3.864 -0.6111 -0.1789 -0.2911
   83MOL0     H11138   7.237   5.594   3.468  1.1858  0.6527 -0.8336
   83MOL0     H11139   7.465   5.499   3.458 -3.0875  2.9277 -0.3830
   83MOL0     H11140   7.667   5.350   3.443  0.6262 -1.4403 -0.1018
   83MOL0     H11141   7.635   5.453   3.570  1.5003  1.0401 -4.3941
   83MOL0     H11142   7.792   5.190   3.565  2.8947  0.4633 -1.0579
   83MOL0     H11143   7.753   5.249   3.726  1.2720 -1.8799  0.1901
   83MOL0     H11144   7.882   5.463   3.655  0.3050  0.5631 -3.7647
   83MOL0     H11145   7.948   5.343   3.529  0.3162 -0.5893 -0.9113
   83MOL0     H11146   7.978   5.335   3.836 -0.7867 -0.0799  0.0376
   83MOL0     H11147   8.001   5.200   3.733 -2.6055  0.3345  1.0732
   83MOL0     H11148   8.171   5.307   3.616  0.9853 -2.0193  1.4194
   83MOL0     H11149   8.136   5.466   3.700  0.1567  0.6558 -1.0121
   83MOL0     H11150   8.215   5.287   3.906  0.5190 -1.4784 -0.6890
   83MOL0     H11151   8.308   5.233   3.768  0.2173  0.4477  0.1194
   83MOL0     H11152   8.372   5.490   3.753 -1.8152 -0.8561 -0.5766
   83MOL0     H11153   8.453   5.379   3.858 -0.9384 -1.9046 -0.7881
   83MOL0     H11154   8.192   5.517   3.970  0.1356  4.9552  2.0390
   83MOL0     H11155   8.340   5.454   4.053  2.2252 -1.3854 -1.9666
   83MOL0     H11156   8.533   5.606   4.086  0.1193 -0.6607 -0.5821
   83MOL0     H11157   8.649   5.920   3.874 -1.7041 -1.1033  0.1722
   83MOL0     H11158   8.670   5.881   4.049  0.0345 -0.7569  0.4772
   83MOL0     H11159   8.750   5.660   3.980 -2.4167 -0.1157  0.2301
   83MOL0     H11160   8.777   5.705   3.814  2.5331 -4.7048  1.3726
   83MOL0     H11161   8.905   5.835   4.056  0.7953 -1.6711  0.6692
   83MOL0     H11162   8.931   5.884   3.887  4.1044 -3.0780 -2.0258
   83MOL0     H11163   8.969   5.629   3.852 -1.1492 -0.0274 -0.1594
   83MOL0     H11164   9.004   5.623   4.018 -1.6519 -1.5004 -1.4159
   83MOL0     H11165   9.079   5.763   4.172 -0.0657  0.8713  2.1987
   83MOL0     H11166   9.230   5.858   4.335 -3.9184 -1.0678 -1.1897
   83MOL0     H11167   9.746   5.726   4.313  0.0359  0.0684  0.4811
   83MOL0     H11168   9.919   5.695   4.437  1.0313 -0.2846  1.7892
   83MOL0     H11169  10.156   6.000   4.486 -2.7984 -1.0113 -0.3317
   83MOL0     H11170  10.126   6.066   4.655  1.5525  0.4854  0.5786
   83MOL0     H11171  10.267   5.889   4.747  0.4015  0.1765 -0.4574
   83MOL0     H11172  10.310   5.842   4.577 -1.9950  0.3429 -2.3954
   83MOL0     H11173  10.422   6.038   4.541 -0.3503  2.1102 -0.0692
   83MOL0     H11174  10.354   6.120   4.685 -0.8941  0.5650 -3.7991
   83MOL0     H11175  10.537   5.870   4.715  1.3966  1.3291  0.4016
   83MOL0     H11176  10.473   5.962   4.849  3.0597 -1.3053  1.4597
   83MOL0     H11177  10.592   6.175   4.758 -2.3686  0.4119 -1.0047
   83MOL0     H11178  10.678   6.062   4.652  0.7792  0.6260  0.6720
   83MOL0     H11179  10.662   6.082   4.943  1.2286 -0.8236  2.0345
   83MOL0     H11180  10.724   5.933   4.875  1.3012  0.6452 -3.9781
   83MOL0     H11181  10.840   6.210   4.800  2.0792  0.2034  0.6189
   83MOL0     H11182  10.905   6.060   4.744  1.6971  0.1146 -0.2275
   83MOL0     H11183  10.916   6.182   5.023  1.3197 -0.0114  1.2698
   83MOL0     H11184  10.911   6.011   5.019  2.4507 -1.2176 -0.3342
   83MOL0     H11185   9.917   6.100   4.580  1.2242 -1.8167  0.4967
   83MOL0     H11186   9.712   6.139   4.427 -1.8694 -0.9970  0.9470
   83MOL0     H11187   9.521   5.911   4.022  0.1124  0.0920  0.4922
   83MOL0     H11188   9.373   5.818   3.875  2.7230 -1.7457  1.9200
   83MOL0     H11189   7.315   5.143   3.669  1.7449  0.8273  0.4471
   83MOL0     H11190   7.103   5.246   3.682 -1.2106  1.9086  1.1665
   83MOL0     H11191   6.830   5.532   3.454 -2.9012 -1.7082 -0.1804
   83MOL0     H11192   6.592   5.588   3.439 -1.2834 -0.7612  2.6197
   83MOL0     H11193   6.401   5.861   3.748 -4.5810  1.9968 -0.5538
   83MOL0     H11194   6.387   5.685   3.755  0.3974 -1.0112 -1.1724
   83MOL0     H11195   6.176   5.713   3.712  1.2690  1.1402  2.1375
   83MOL0     H11196   6.217   5.744   3.539  0.6798 -2.6594  0.4783
   83MOL0     H11197   6.256   5.978   3.572 -2.1057  0.2672 -1.5027
   83MOL0     H11198   6.219   5.954   3.750 -0.0318 -0.2507  0.1567
   83MOL0     H11199   6.009   5.891   3.528  1.2407  0.3602 -0.3233
   83MOL0     H11200   5.983   5.922   3.708  0.1581  1.5755  0.3788
   83MOL0     H11201   5.948   6.306   3.599  2.6314  0.8243  2.0988
   83MOL0     H11202   6.621   5.812   3.794 -1.1315 -0.6791 -0.4231
   83MOL0     H11203   6.937   5.842   3.846 -0.4011  0.0792  1.5624
   83MOL0     H11204   6.811   5.787   3.947  1.9623  0.3727  1.5634
   83MOL0     H11205   6.943   5.677   3.898  0.5784  0.7716 -0.4661
   84MOL0     O11206   9.607   9.040   2.684 -0.3246  0.2868 -0.3835
   84MOL0     C11207   9.549   9.083   2.589 -0.7085 -0.3085  0.0915
   84MOL0     O11208   9.606   9.115   2.462  0.5374 -0.3067 -0.4037
   84MOL0     C11209   9.738   9.111   2.443 -0.6607 -0.8094  0.2609
   84MOL0     C11210   9.798   9.213   2.371  0.4582 -0.5326  0.3770
   84MOL0     C11211   9.930   9.237   2.375 -0.1602 -0.7864  0.1135
   84MOL0     C11212  10.011   9.139   2.428 -0.4273  0.1452 -0.7275
   84MOL0     O11213  10.141   9.160   2.424  0.2628 -0.2749 -0.8793
   84MOL0     C11214  10.225   9.103   2.522  0.0449  0.0824 -1.1972
   84MOL0     C11215  10.381   9.124   2.491  0.0694  0.5624 -0.1262
   84MOL0     C11216  10.413   9.257   2.558  0.3741 -0.9118  0.1815
   84MOL0     C11217  10.562   9.295   2.529 -0.7888  0.4545 -0.6843
   84MOL0     C11218  10.618   9.421   2.589  0.2813  0.3811  0.5455
   84MOL0     C11219  10.670   9.401   2.736  0.9944 -0.1057  0.7474
   84MOL0     C11220  10.733   9.530   2.794 -0.3183 -1.4004  0.4998
   84MOL0     C11221  10.785   9.505   2.936  0.0971  0.4306  0.3137
   84MOL0     N11222  10.880   9.608   2.978 -0.0946 -0.7954 -0.4871
   84MOL0     C11223  10.854   9.743   2.983 -0.3959  0.3210  0.4680
   84MOL0     C11224  10.969   9.794   3.029  0.2705 -0.3497 -0.3461
   84MOL0     C11225  10.997   9.935   3.075  0.8499 -0.3292  0.3451
   84MOL0     C11226  11.024  10.010   2.951 -0.3871 -0.6755 -0.3750
   84MOL0     C11227  11.038  10.154   2.989 -0.7998 -0.2997 -0.0384
   84MOL0     C11228  11.164  10.176   3.076  0.7987 -0.4005  0.1524
   84MOL0     O11229  11.186  10.321   3.085  0.7927 -0.6101  0.4384
   84MOL0     C11230  11.297  10.351   3.160 -0.5636  0.8100  0.0550
   84MOL0     C11231  11.411  10.389   3.090  0.8844  0.1400  0.1797
   84MOL0     C11232  11.523  10.436   3.160 -0.1786 -0.2915  0.5456
   84MOL0     C11233  11.522  10.420   3.295  0.2450  0.4132 -0.0582
   84MOL0     C11234  11.650  10.459   3.367  0.1790 -0.9485 -0.1015
   84MOL0     O11235  11.673  10.413   3.489 -0.0501  0.0078 -0.3871
   84MOL0     C11236  11.786  10.448   3.550 -0.5503 -0.3448 -0.5178
   84MOL0     C11237  11.803  10.580   3.605  0.0712 -0.5557  0.0000
   84MOL0     C11238  11.933  10.616   3.647  0.2153  0.2796 -0.2066
   84MOL0     C11239  12.041  10.520   3.628  0.5927 -1.3243  0.7284
   84MOL0     O11240  12.171  10.562   3.652  0.2264 -0.3556 -0.0798
   84MOL0     C11241  12.281  10.477   3.633 -0.5203 -0.3580  0.1363
   84MOL0     C11242  12.404  10.549   3.685  0.4756  0.4591  0.2388
   84MOL0     C11243  12.537  10.497   3.623  0.0841 -0.1881 -0.0210
   84MOL0     C11244  12.652  10.591   3.629 -0.6659 -0.1368  0.2728
   84MOL0     C11245  12.793  10.518   3.600 -0.1135 -0.6723  0.6585
   84MOL0     C11246  12.902  10.623   3.619 -0.3713 -0.5229 -0.5214
   84MOL0     C11247  13.047  10.561   3.596  0.8039  0.6634  0.8801
   84MOL0     C11248  13.148  10.674   3.580 -0.4484  0.4237 -0.2317
   84MOL0    Cl11249  13.296  10.598   3.534 -0.2231  0.2366  0.0741
   84MOL0     C11250  12.016  10.398   3.573 -0.7675  0.7607 -0.4119
   84MOL0     C11251  11.890  10.359   3.540 -0.4498 -0.4611  0.6599
   84MOL0     O11252  11.717  10.545   3.304 -0.1804  0.1590 -0.3134
   84MOL0     C11253  11.419  10.360   3.369 -0.1642 -0.6250  0.5796
   84MOL0     C11254  11.302  10.334   3.298 -0.0078 -0.4559 -0.4538
   84MOL0     N11255  11.063   9.703   3.041  0.0754 -0.3209 -0.4267
   84MOL0     N11256  11.010   9.588   3.020 -0.1800 -0.3065  0.0061
   84MOL0     C11257   9.955   9.028   2.488  0.1357 -0.1226  0.1838
   84MOL0     C11258   9.819   9.009   2.497  0.0859 -0.6172  1.3326
   84MOL0     C11259   9.404   9.094   2.587  0.1794 -0.5228  0.1914
   84MOL0     C11260   9.356   9.216   2.553 -0.3526 -0.7711  0.2882
   84MOL0     C11261   9.213   9.234   2.547 -1.7068  0.1146 -1.3883
   84MOL0     C11262   9.131   9.133   2.590 -0.2541 -0.0267 -0.5624
   84MOL0     O11263   8.996   9.144   2.624  1.0084  0.4521  0.2489
   84MOL0     C11264   8.923   9.244   2.551 -0.7697 -0.1724  0.7793
   84MOL0     C11265   8.772   9.207   2.531 -0.1459 -0.3334  0.0027
   84MOL0     C11266   8.711   9.163   2.661 -0.0955  0.1158  1.1220
   84MOL0     C11267   8.571   9.110   2.627 -0.8390  0.0625  0.5715
   84MOL0     C11268   8.500   9.063   2.746  0.1815 -0.1920 -0.2115
   84MOL0     C11269   8.441   9.040   2.854  0.1597  0.4659 -0.4905
   84MOL0     C11270   9.184   9.007   2.623  0.0228  0.3711  0.2975
   84MOL0     C11271   9.326   8.983   2.620 -0.0227 -0.8596 -0.1575
   84MOL0     C11272   9.371   8.840   2.644  0.8521 -0.0789 -0.3399
   84MOL0     H11273   9.728   9.279   2.321 -2.9487 -3.0281  1.4838
   84MOL0     H11274   9.978   9.327   2.339  0.7259 -1.3790 -0.2275
   84MOL0     H11275  10.198   9.145   2.620 -1.6314 -2.8558 -0.2459
   84MOL0     H11276  10.225   8.994   2.519  1.8918 -0.1141  1.6032
   84MOL0     H11277  10.400   9.128   2.383 -2.3289 -0.1107 -0.6309
   84MOL0     H11278  10.432   9.036   2.532 -1.9364  0.1011  1.5569
   84MOL0     H11279  10.396   9.250   2.666 -0.8140  0.2397  0.1032
   84MOL0     H11280  10.346   9.334   2.519 -1.3644 -2.6750 -0.5098
   84MOL0     H11281  10.622   9.209   2.561  0.3054  0.9267 -1.3962
   84MOL0     H11282  10.572   9.302   2.420  0.9583  0.3102 -0.5631
   84MOL0     H11283  10.696   9.458   2.521  0.1227 -2.0257 -1.0858
   84MOL0     H11284  10.538   9.495   2.583 -1.1611 -1.1076  0.5500
   84MOL0     H11285  10.587   9.375   2.802  0.5986  1.9180  1.1029
   84MOL0     H11286  10.740   9.317   2.732  0.9850 -0.0955 -2.1702
   84MOL0     H11287  10.653   9.604   2.804 -0.2728 -1.5952  2.9631
   84MOL0     H11288  10.810   9.576   2.731 -3.7655  2.3711 -1.4629
   84MOL0     H11289  10.700   9.499   3.005 -1.0402 -2.3459 -1.1615
   84MOL0     H11290  10.836   9.409   2.934  2.0209  1.4012  0.9082
   84MOL0     H11291  10.755   9.786   2.975 -1.6191 -1.9290  2.3940
   84MOL0     H11292  10.915   9.975   3.134  1.1607 -0.3618  0.8103
   84MOL0     H11293  11.085   9.930   3.140  0.5825 -0.0501  0.7303
   84MOL0     H11294  11.115   9.977   2.900 -1.3867 -5.0850  0.2401
   84MOL0     H11295  10.939   9.999   2.883 -0.4380 -2.8205 -0.0471
   84MOL0     H11296  10.950  10.186   3.044  0.5829  1.2784  1.3512
   84MOL0     H11297  11.049  10.215   2.899  0.1859 -0.3767  0.0141
   84MOL0     H11298  11.251  10.126   3.035 -0.1436 -0.5489 -1.7935
   84MOL0     H11299  11.154  10.130   3.175  0.6566 -0.1062  0.2774
   84MOL0     H11300  11.407  10.408   2.984 -0.6733  0.5554  0.2879
   84MOL0     H11301  11.604  10.470   3.097 -1.2730  0.7747 -0.3528
   84MOL0     H11302  11.711  10.633   3.627 -0.5214 -2.9036  4.0641
   84MOL0     H11303  11.954  10.709   3.699 -1.3269  1.8701 -2.2548
   84MOL0     H11304  12.275  10.382   3.688 -0.4135  1.0083  2.6672
   84MOL0     H11305  12.287  10.438   3.531 -2.4390 -0.1412 -0.0988
   84MOL0     H11306  12.389  10.656   3.670  1.4620  0.4452 -0.9901
   84MOL0     H11307  12.405  10.543   3.794  0.2706 -0.3406  0.2073
   84MOL0     H11308  12.568  10.412   3.684  0.1158 -0.5639 -0.5535
   84MOL0     H11309  12.531  10.460   3.520  1.1103 -2.7757  0.7722
   84MOL0     H11310  12.655  10.634   3.729 -2.3936 -1.5499  0.9752
   84MOL0     H11311  12.643  10.666   3.550  0.0857  0.7109  0.9780
   84MOL0     H11312  12.795  10.479   3.497 -1.0418 -0.5973  0.6125
   84MOL0     H11313  12.819  10.437   3.669 -2.2147 -0.3795  1.8728
   84MOL0     H11314  12.895  10.705   3.547  0.5973  0.1167  0.0916
   84MOL0     H11315  12.904  10.658   3.722  2.2863 -3.3501  0.5508
   84MOL0     H11316  13.054  10.498   3.506 -0.8634 -0.9681  1.8171
   84MOL0     H11317  13.079  10.501   3.682  1.6867  0.7985  0.6595
   84MOL0     H11318  13.110  10.750   3.511 -0.9259 -0.1174 -0.5666
   84MOL0     H11319  13.184  10.727   3.669  1.4906 -0.7794 -0.2305
   84MOL0     H11320  12.100  10.334   3.546  1.5103  2.5739  1.9580
   84MOL0     H11321  11.884  10.256   3.506 -1.9671  0.2492 -1.3943
   84MOL0     H11322  11.420  10.338   3.475  2.8633  0.0915  0.7862
   84MOL0     H11323  11.218  10.296   3.355 -0.2036 -1.9767 -1.6868
   84MOL0     H11324  10.007   8.945   2.534  2.2183  0.2080 -1.4336
   84MOL0     H11325   9.780   8.921   2.546  0.4452 -1.6519 -0.1859
   84MOL0     H11326   9.421   9.301   2.533  2.1683 -2.2972  1.4891
   84MOL0     H11327   9.176   9.335   2.533 -0.5711  0.6170 -0.9573
   84MOL0     H11328   8.969   9.262   2.453  0.7767 -0.1886  1.4660
   84MOL0     H11329   8.944   9.344   2.591  0.6968  0.4728 -1.3873
   84MOL0     H11330   8.760   9.123   2.461  2.6258 -0.5327 -0.3591
   84MOL0     H11331   8.710   9.286   2.488 -0.6579  0.0641  1.4009
   84MOL0     H11332   8.681   9.249   2.722 -3.0067 -1.3456  1.9329
   84MOL0     H11333   8.773   9.083   2.701 -1.9331 -2.4574 -0.7915
   84MOL0     H11334   8.507   9.189   2.588 -0.8108 -0.4766 -0.6129
   84MOL0     H11335   8.582   9.027   2.556  0.5717 -0.5339  1.4376
   84MOL0     H11336   8.395   8.995   2.940 -1.1673 -0.5014 -1.6796
   84MOL0     H11337   9.118   8.924   2.649 -0.0448  0.0771 -0.7439
   84MOL0     H11338   9.427   8.824   2.737 -0.9070 -0.1127  0.7594
   84MOL0     H11339   9.285   8.776   2.664  0.4760  1.1747  2.6864
   84MOL0     H11340   9.419   8.805   2.552  3.1188  1.6052  0.0918
   85MOL0     O11341   4.979   1.508   7.659  0.0523 -0.1443  0.2018
   85MOL0     C11342   4.913   1.512   7.763 -0.8817 -0.4054 -0.8107
   85MOL0     O11343   4.958   1.551   7.882  0.3036 -0.2607  0.5231
   85MOL0     C11344   5.076   1.621   7.894  0.0676 -1.1314  0.4250
   85MOL0     C11345   5.204   1.579   7.860 -1.0994 -0.4487 -0.4145
   85MOL0     C11346   5.318   1.658   7.878  0.0946  0.0640 -0.0824
   85MOL0     C11347   5.305   1.784   7.924  0.2448  0.4055 -0.6443
   85MOL0     O11348   5.423   1.851   7.959 -0.2121  0.3370  0.1075
   85MOL0     C11349   5.426   1.982   7.911  0.0225 -0.0417  0.1342
   85MOL0     C11350   5.513   2.083   7.989 -0.2428  0.5076  0.5262
   85MOL0     C11351   5.659   2.030   8.003  0.3075  0.7758 -0.3358
   85MOL0     C11352   5.725   2.090   8.135 -0.2564  0.0070 -0.9987
   85MOL0     C11353   5.873   2.062   8.137  0.4450 -0.2175 -0.2565
   85MOL0     C11354   5.933   2.110   8.273  0.3038  0.7982 -0.1055
   85MOL0     C11355   6.087   2.085   8.298  0.2773  0.3764 -0.2815
   85MOL0     C11356   6.178   2.164   8.208 -0.5521 -0.3617 -0.0528
   85MOL0     N11357   6.321   2.151   8.230 -0.7339 -0.6127 -0.2089
   85MOL0     C11358   6.382   2.163   8.361 -0.4078 -0.2304  0.2750
   85MOL0     C11359   6.506   2.128   8.339  0.1034 -0.0387 -1.0456
   85MOL0     C11360   6.621   2.128   8.434 -0.1834 -0.1758 -0.2016
   85MOL0     C11361   6.760   2.145   8.364 -0.3864 -0.1452  0.3718
   85MOL0     C11362   6.766   2.300   8.304  0.5258  0.8242  0.5395
   85MOL0     C11363   6.872   2.320   8.198 -0.4006 -0.8501 -0.8765
   85MOL0     O11364   6.985   2.237   8.239  0.2143 -0.1971 -0.6038
   85MOL0     C11365   7.049   2.270   8.359 -1.0820 -0.0602  0.0229
   85MOL0     C11366   7.140   2.169   8.403 -0.3334 -0.1928  0.5838
   85MOL0     C11367   7.218   2.183   8.517  0.3386 -0.4200 -0.5351
   85MOL0     C11368   7.209   2.300   8.595  0.3268 -0.8481  0.1784
   85MOL0     C11369   7.303   2.323   8.707 -0.4843  0.4819  0.1128
   85MOL0     O11370   7.353   2.211   8.768 -0.7409 -0.2718 -0.4536
   85MOL0     C11371   7.433   2.239   8.880  0.1915 -0.4063 -1.2234
   85MOL0     C11372   7.569   2.284   8.880  0.6773  0.5785  0.0143
   85MOL0     C11373   7.637   2.298   9.001  0.2854 -0.3120  0.3513
   85MOL0     C11374   7.575   2.273   9.121  0.0138  0.5079  0.0466
   85MOL0     O11375   7.653   2.285   9.230  0.1134 -0.3250  1.4456
   85MOL0     C11376   7.577   2.320   9.342 -0.3642 -0.3105 -0.0747
   85MOL0     C11377   7.665   2.393   9.439  0.3743  0.2736  0.2863
   85MOL0     C11378   7.758   2.290   9.521 -0.1332 -0.0756  0.3332
   85MOL0     C11379   7.857   2.380   9.606 -0.0606  0.4799 -0.4788
   85MOL0     C11380   7.941   2.286   9.694  0.4884  0.1490 -0.4992
   85MOL0     C11381   8.045   2.360   9.784 -0.0444 -0.3004 -0.1444
   85MOL0     C11382   8.115   2.269   9.887  0.2997  0.7176  1.0043
   85MOL0     C11383   8.208   2.345   9.977 -0.3672  0.1578 -0.0277
   85MOL0    Cl11384   8.249   2.246  10.117  0.0927  0.1921  0.2835
   85MOL0     C11385   7.445   2.224   9.122  0.0214  0.3727  0.9648
   85MOL0     C11386   7.373   2.209   8.997  0.6482  0.0231 -0.6836
   85MOL0     O11387   7.344   2.442   8.734  0.3776  0.0872  0.0152
   85MOL0     C11388   7.122   2.400   8.555 -0.5930 -0.6447 -0.6714
   85MOL0     C11389   7.043   2.388   8.441  0.5019  0.1260  0.4108
   85MOL0     N11390   6.519   2.100   8.201 -0.0891  0.1095  0.2333
   85MOL0     N11391   6.414   2.125   8.133 -0.2358 -0.7550  0.7491
   85MOL0     C11392   5.177   1.836   7.962  0.4823  0.5120 -0.9439
   85MOL0     C11393   5.065   1.756   7.950 -0.0631  0.2587 -0.1798
   85MOL0     C11394   4.775   1.455   7.757  0.0855 -0.9175  0.6102
   85MOL0     C11395   4.709   1.426   7.631  0.4156 -1.1307 -0.0912
   85MOL0     C11396   4.581   1.371   7.624  0.4274 -0.3340  0.8684
   85MOL0     C11397   4.525   1.323   7.732 -0.1144 -1.1101  0.2898
   85MOL0     O11398   4.410   1.249   7.712  0.0406 -0.3256  0.0872
   85MOL0     C11399   4.373   1.148   7.800  0.6233 -0.4310  0.3710
   85MOL0     C11400   4.266   1.190   7.915 -0.4424  0.3312 -0.0257
   85MOL0     C11401   4.150   1.269   7.853 -0.7005  0.0763 -0.4664
   85MOL0     C11402   4.030   1.301   7.948  0.2345  0.3293 -0.5810
   85MOL0     C11403   4.067   1.395   8.056 -0.0449  0.1327  0.3459
   85MOL0     C11404   4.100   1.466   8.151  0.2418 -0.6138 -0.3036
   85MOL0     C11405   4.573   1.355   7.859  0.2310  1.0339  0.5626
   85MOL0     C11406   4.700   1.425   7.875 -0.6911  0.0704 -0.3033
   85MOL0     C11407   4.752   1.438   8.016  0.4568  0.6890  0.3830
   85MOL0     H11408   5.228   1.480   7.823  0.8599 -0.3481  0.4624
   85MOL0     H11409   5.416   1.612   7.867 -0.3846 -0.4618 -2.5821
   85MOL0     H11410   5.468   1.992   7.810  1.9828  1.6102  1.0418
   85MOL0     H11411   5.325   2.024   7.906  0.9194  2.2500 -0.3572
   85MOL0     H11412   5.464   2.074   8.087 -0.9030 -2.4131  0.0393
   85MOL0     H11413   5.513   2.184   7.948  2.8135 -0.2381 -1.6550
   85MOL0     H11414   5.711   2.072   7.917  0.6545  3.0715  0.9102
   85MOL0     H11415   5.653   1.922   7.988  0.2242  0.7707 -0.2695
   85MOL0     H11416   5.711   2.199   8.142  1.0038  0.0783  1.3756
   85MOL0     H11417   5.673   2.037   8.215 -1.6530  2.1838 -0.3600
   85MOL0     H11418   5.889   1.956   8.115  3.3314 -0.0518  0.6548
   85MOL0     H11419   5.922   2.122   8.059 -1.4983  0.2946 -1.1389
   85MOL0     H11420   5.917   2.218   8.279 -1.0813  0.8524 -3.0210
   85MOL0     H11421   5.887   2.046   8.348  1.4970 -3.2097 -2.4760
   85MOL0     H11422   6.114   1.982   8.320  0.2551  0.7593  1.7165
   85MOL0     H11423   6.086   2.142   8.391 -1.0845 -0.3384  0.1648
   85MOL0     H11424   6.146   2.137   8.107  0.1560  0.7695 -0.5970
   85MOL0     H11425   6.156   2.271   8.211  2.3573  0.3165  2.7160
   85MOL0     H11426   6.334   2.192   8.454 -1.0971  0.3406 -0.2440
   85MOL0     H11427   6.616   2.196   8.520  3.4120 -0.1108  0.1107
   85MOL0     H11428   6.612   2.026   8.471  0.7341 -1.8799 -4.1682
   85MOL0     H11429   6.844   2.128   8.432 -0.6457  1.1265  1.0470
   85MOL0     H11430   6.769   2.075   8.280  0.6458  0.4007 -0.0013
   85MOL0     H11431   6.780   2.372   8.385  0.2177  0.7747  0.6354
   85MOL0     H11432   6.669   2.326   8.261  0.3342 -0.4688  0.1539
   85MOL0     H11433   6.886   2.428   8.195 -2.0407 -0.6294 -1.6334
   85MOL0     H11434   6.830   2.281   8.105 -4.5067  0.3185  0.2776
   85MOL0     H11435   7.163   2.080   8.346  1.1555  1.9818 -2.4895
   85MOL0     H11436   7.289   2.107   8.547 -0.2973 -0.3548  1.2845
   85MOL0     H11437   7.618   2.309   8.786 -0.5858 -0.0055 -0.8428
   85MOL0     H11438   7.742   2.322   9.016 -0.2312  1.2267  1.7292
   85MOL0     H11439   7.494   2.387   9.318 -0.5620 -0.4111  0.3146
   85MOL0     H11440   7.531   2.231   9.387  1.1217 -0.6369  0.8417
   85MOL0     H11441   7.730   2.460   9.383  0.5015  1.1362  1.4375
   85MOL0     H11442   7.600   2.437   9.515 -1.3458 -2.0808  0.2917
   85MOL0     H11443   7.702   2.223   9.587 -2.4351  2.2154  0.8827
   85MOL0     H11444   7.817   2.232   9.450  1.6773  0.9727  0.9216
   85MOL0     H11445   7.798   2.444   9.672 -1.6356  0.7857 -2.1259
   85MOL0     H11446   7.926   2.445   9.551  1.0339  0.0831  0.3659
   85MOL0     H11447   8.003   2.229   9.624  0.8673  0.1297 -0.1490
   85MOL0     H11448   7.878   2.212   9.745 -1.4327 -0.3339 -3.2795
   85MOL0     H11449   8.126   2.402   9.724  0.1948  0.3165  0.5980
   85MOL0     H11450   7.982   2.433   9.835  1.1085 -0.7628  2.0354
   85MOL0     H11451   8.173   2.192   9.836  0.5463  2.1780 -1.0238
   85MOL0     H11452   8.036   2.218   9.944  1.9851  1.4543  4.2229
   85MOL0     H11453   8.302   2.365   9.924  0.9046 -2.1618  1.1776
   85MOL0     H11454   8.166   2.437  10.019 -0.1712 -1.4456  4.2037
   85MOL0     H11455   7.391   2.191   9.210  0.1949 -0.7145  0.6793
   85MOL0     H11456   7.279   2.154   8.999  1.9501 -2.3592 -0.1373
   85MOL0     H11457   7.115   2.498   8.600  0.2446 -0.6223 -0.5723
   85MOL0     H11458   6.967   2.461   8.419 -0.3250 -0.2599  1.8451
   85MOL0     H11459   5.157   1.939   7.991  2.8549  0.9074 -0.4467
   85MOL0     H11460   4.965   1.790   7.976 -0.0566  0.2777 -0.1804
   85MOL0     H11461   4.768   1.451   7.544 -0.3667 -1.2349 -0.6560
   85MOL0     H11462   4.548   1.349   7.523  2.6038  1.7718 -0.4108
   85MOL0     H11463   4.466   1.108   7.842  1.2127  0.2445 -0.2538
   85MOL0     H11464   4.334   1.060   7.748  3.2504 -2.7365  2.0221
   85MOL0     H11465   4.319   1.258   7.982  0.5434  1.9619 -2.3409
   85MOL0     H11466   4.237   1.106   7.979 -1.4021  0.6403 -0.0351
   85MOL0     H11467   4.120   1.206   7.769  2.4473 -1.3491 -0.6651
   85MOL0     H11468   4.190   1.366   7.823 -2.0045  0.8869  0.3119
   85MOL0     H11469   3.950   1.345   7.887  0.3427  2.9540  1.0200
   85MOL0     H11470   3.993   1.203   7.976  2.0801 -1.0974 -2.7771
   85MOL0     H11471   4.124   1.538   8.226 -0.3766 -1.6061  0.8924
   85MOL0     H11472   4.535   1.303   7.947  1.9111  0.3491  0.9132
   85MOL0     H11473   4.839   1.376   8.038  0.2178 -0.6609 -2.0690
   85MOL0     H11474   4.779   1.543   8.033 -0.1764  1.1103 -1.0062
   85MOL0     H11475   4.675   1.411   8.089  0.2216 -0.3605 -0.2355
   86MOL0     O11476   1.765   3.234   9.583  0.4590  1.0430  0.1847
   86MOL0     C11477   1.783   3.279   9.696  0.7250 -0.1821  0.5784
   86MOL0     O11478   1.908   3.312   9.740 -0.6627 -0.2625  0.1425
   86MOL0     C11479   2.026   3.322   9.667  0.4887 -0.2244  0.0100
   86MOL0     C11480   2.026   3.386   9.541 -0.6902  0.6853 -0.3470
   86MOL0     C11481   2.145   3.403   9.473 -0.2590 -0.6234 -0.4847
   86MOL0     C11482   2.271   3.366   9.529 -0.0043 -0.6790 -0.1925
   86MOL0     O11483   2.379   3.381   9.446 -0.5615 -0.7635 -0.2880
   86MOL0     C11484   2.505   3.317   9.472  0.1471  0.0846 -0.7032
   86MOL0     C11485   2.633   3.354   9.406 -0.7968  0.6630  0.7353
   86MOL0     C11486   2.608   3.334   9.257 -0.2146 -1.3928 -0.0204
   86MOL0     C11487   2.730   3.316   9.176 -0.0803  0.4147  0.2795
   86MOL0     C11488   2.705   3.313   9.034 -1.1127  0.2948  0.6287
   86MOL0     C11489   2.834   3.266   8.970  0.3767  0.2221 -0.3475
   86MOL0     C11490   2.848   3.265   8.820  0.0640  0.6864  0.1227
   86MOL0     C11491   2.991   3.232   8.794  0.2907  0.2282 -0.2053
   86MOL0     N11492   3.037   3.270   8.662  0.1132 -0.0055 -0.8324
   86MOL0     C11493   3.099   3.179   8.589 -0.1263 -0.5006 -0.2745
   86MOL0     C11494   3.174   3.255   8.503 -0.7592 -0.2371  1.2990
   86MOL0     C11495   3.272   3.204   8.400 -0.8567  0.9013  0.8573
   86MOL0     C11496   3.409   3.247   8.436 -0.8141 -0.0187  0.1437
   86MOL0     C11497   3.517   3.200   8.344 -0.3174 -0.4307 -0.7181
   86MOL0     C11498   3.658   3.250   8.367 -0.2285  0.3223 -0.1848
   86MOL0     O11499   3.698   3.210   8.499  0.4516 -0.1598 -0.2809
   86MOL0     C11500   3.827   3.244   8.532 -0.5058  0.3940 -0.1840
   86MOL0     C11501   3.924   3.296   8.447  0.4241  0.6399  0.6411
   86MOL0     C11502   4.056   3.314   8.492 -0.2762  0.0084  1.1497
   86MOL0     C11503   4.089   3.279   8.624  0.8807 -0.1926 -0.2289
   86MOL0     C11504   4.229   3.284   8.662  0.2694  0.4374 -0.0791
   86MOL0     O11505   4.272   3.207   8.765 -0.2065 -0.3144  0.4549
   86MOL0     C11506   4.408   3.209   8.800  0.6081 -0.0621 -0.5311
   86MOL0     C11507   4.430   3.200   8.940 -0.3850 -0.0169 -0.0764
   86MOL0     C11508   4.555   3.201   8.998 -0.0246  0.3009  0.3819
   86MOL0     C11509   4.665   3.217   8.918 -0.1181  0.2078 -0.6340
   86MOL0     O11510   4.791   3.219   8.974  0.1415  0.6387 -0.7977
   86MOL0     C11511   4.896   3.250   8.888 -0.3552 -0.5952  1.0110
   86MOL0     C11512   5.020   3.277   8.983  0.2746  0.0774  0.1144
   86MOL0     C11513   5.140   3.336   8.907 -0.5530 -0.0359 -0.3412
   86MOL0     C11514   5.225   3.225   8.839  0.9628 -0.0809  1.2631
   86MOL0     C11515   5.337   3.282   8.747  0.3879  0.0336  0.5618
   86MOL0     C11516   5.444   3.365   8.831 -1.2042 -0.1268 -0.2421
   86MOL0     C11517   5.576   3.391   8.762  0.1881 -0.3952 -0.3681
   86MOL0     C11518   5.635   3.526   8.793 -0.1596  0.2202 -0.4220
   86MOL0    Cl11519   5.677   3.553   8.963  0.3527  0.6818  0.0731
   86MOL0     C11520   4.650   3.213   8.781  1.0118 -0.1541  0.2922
   86MOL0     C11521   4.523   3.214   8.721  0.0926  0.4057  0.0790
   86MOL0     O11522   4.305   3.359   8.597 -0.2011 -0.6200  0.5429
   86MOL0     C11523   3.988   3.238   8.713  0.7486 -0.3100 -0.0067
   86MOL0     C11524   3.860   3.211   8.666  0.5002 -0.2855  0.0275
   86MOL0     N11525   3.140   3.387   8.520 -0.7288 -0.8826  0.5391
   86MOL0     N11526   3.061   3.399   8.622 -0.2854 -0.1144  0.3617
   86MOL0     C11527   2.266   3.301   9.653  0.6068 -0.1396  0.5174
   86MOL0     C11528   2.146   3.284   9.723 -0.8298  0.1646  0.0034
   86MOL0     C11529   1.666   3.294   9.785 -0.4768 -0.0339 -1.1847
   86MOL0     C11530   1.680   3.371   9.906 -0.8786  0.0815  0.2928
   86MOL0     C11531   1.580   3.380  10.005 -0.0797 -0.0597  0.3840
   86MOL0     C11532   1.461   3.312   9.982  0.6343 -1.0060 -0.0345
   86MOL0     O11533   1.349   3.329  10.060  0.4847  0.0178  0.0623
   86MOL0     C11534   1.352   3.382  10.195  0.6798 -0.1338 -0.1452
   86MOL0     C11535   1.203   3.419  10.235  0.1540  0.6204 -0.3871
   86MOL0     C11536   1.176   3.457  10.381 -0.1458  0.5663  0.5588
   86MOL0     C11537   1.034   3.423  10.415 -1.0601 -0.0832 -0.4064
   86MOL0     C11538   0.939   3.487  10.324  0.3648 -0.6396  0.1714
   86MOL0     C11539   0.845   3.542  10.266  0.3601  0.1796  0.1169
   86MOL0     C11540   1.438   3.235   9.865 -0.3410  0.1391 -0.6911
   86MOL0     C11541   1.541   3.227   9.767  0.6993  0.6948 -0.6400
   86MOL0     C11542   1.499   3.135   9.649  0.5860  0.2138 -0.1162
   86MOL0     H11543   1.935   3.415   9.490  0.9567 -0.0677 -4.0141
   86MOL0     H11544   2.154   3.424   9.367  1.2489 -0.4399 -0.3351
   86MOL0     H11545   2.542   3.337   9.573  2.1803 -2.2509 -0.8962
   86MOL0     H11546   2.482   3.211   9.456 -1.4538  0.0678  1.2775
   86MOL0     H11547   2.720   3.303   9.448 -1.2683  2.8162  4.8589
   86MOL0     H11548   2.655   3.461   9.414 -0.9974  0.7764 -0.1601
   86MOL0     H11549   2.566   3.428   9.222  2.8073  1.1780  2.5252
   86MOL0     H11550   2.534   3.256   9.235 -0.8447 -0.0126 -3.2930
   86MOL0     H11551   2.804   3.393   9.198  1.4527 -0.1143 -2.6469
   86MOL0     H11552   2.765   3.215   9.199 -2.9228 -0.2519  2.3232
   86MOL0     H11553   2.632   3.234   9.014 -1.2141  0.3048  0.9587
   86MOL0     H11554   2.661   3.402   8.988  1.0062  1.6624  1.0893
   86MOL0     H11555   2.911   3.331   9.013  2.1240 -1.5932 -0.6258
   86MOL0     H11556   2.858   3.163   8.997 -0.7077 -0.7221 -2.7120
   86MOL0     H11557   2.818   3.368   8.794  1.9136  1.8863  2.4230
   86MOL0     H11558   2.782   3.193   8.770  1.3927  0.3432 -1.2268
   86MOL0     H11559   3.054   3.284   8.866  2.4429 -2.0140 -0.3272
   86MOL0     H11560   3.011   3.126   8.816 -0.7275  0.0278 -0.2068
   86MOL0     H11561   3.108   3.072   8.604  1.4385 -0.2995  0.3951
   86MOL0     H11562   3.272   3.095   8.408  0.8951  0.7307 -0.8047
   86MOL0     H11563   3.242   3.231   8.298 -1.9742  0.2904  1.0029
   86MOL0     H11564   3.406   3.356   8.439 -1.4685 -0.0518  1.7586
   86MOL0     H11565   3.435   3.211   8.536 -0.5068 -3.0878 -0.9272
   86MOL0     H11566   3.503   3.239   8.242  0.5716  1.8573 -0.0364
   86MOL0     H11567   3.524   3.091   8.347  1.9257 -0.3302 -0.4410
   86MOL0     H11568   3.670   3.355   8.339 -0.7486 -0.1509 -2.4304
   86MOL0     H11569   3.722   3.199   8.293  1.3047 -2.5610  2.8367
   86MOL0     H11570   3.894   3.314   8.344  1.6722  2.4173  0.5528
   86MOL0     H11571   4.125   3.345   8.415 -1.9340  4.2350  1.0938
   86MOL0     H11572   4.345   3.193   9.006  2.5572  1.4651  4.3040
   86MOL0     H11573   4.565   3.184   9.105 -1.3814 -0.2110  0.4454
   86MOL0     H11574   4.916   3.170   8.816 -3.5213 -0.6807  0.0776
   86MOL0     H11575   4.877   3.348   8.842  1.4300 -0.0923  1.2506
   86MOL0     H11576   4.999   3.357   9.055  0.1487  0.2573 -0.1176
   86MOL0     H11577   5.032   3.180   9.032 -1.8749 -0.6764 -0.7174
   86MOL0     H11578   5.090   3.402   8.835 -1.3041  1.6958  1.6598
   86MOL0     H11579   5.206   3.400   8.966  0.2082  0.1906 -1.4237
   86MOL0     H11580   5.162   3.168   8.771  2.5863 -0.9094  0.3862
   86MOL0     H11581   5.271   3.163   8.917  3.0752  0.5215  0.5828
   86MOL0     H11582   5.293   3.339   8.664  0.4800 -1.1094 -0.2912
   86MOL0     H11583   5.406   3.206   8.708  1.5696  1.8757 -1.1447
   86MOL0     H11584   5.389   3.453   8.865 -2.5464  0.1276 -2.8580
   86MOL0     H11585   5.480   3.318   8.924 -1.1847  0.9481  0.3053
   86MOL0     H11586   5.552   3.388   8.656 -2.4414  2.0133  0.0304
   86MOL0     H11587   5.656   3.318   8.780  0.1391 -0.8773 -1.9934
   86MOL0     H11588   5.731   3.535   8.742  2.2819 -1.5928  3.3959
   86MOL0     H11589   5.560   3.603   8.769 -0.2977 -0.0656 -0.9273
   86MOL0     H11590   4.737   3.206   8.717  0.5787  1.4571 -0.5111
   86MOL0     H11591   4.520   3.212   8.612 -2.0643 -4.0610 -0.0024
   86MOL0     H11592   4.016   3.218   8.816 -1.8145 -1.5527  0.5218
   86MOL0     H11593   3.784   3.172   8.734 -0.3391  0.8767 -0.1998
   86MOL0     H11594   2.359   3.266   9.696  0.8461  0.8818  0.8439
   86MOL0     H11595   2.152   3.241   9.822 -0.0947  1.8770  0.7421
   86MOL0     H11596   1.774   3.422   9.926  0.6885 -2.2361 -0.7378
   86MOL0     H11597   1.609   3.445  10.087  1.2662 -0.6167  0.3709
   86MOL0     H11598   1.405   3.476  10.207 -0.1759  0.8322 -3.1044
   86MOL0     H11599   1.390   3.306  10.264  0.2545 -1.2049 -1.0525
   86MOL0     H11600   1.149   3.324  10.221  0.0623  0.7210 -0.7246
   86MOL0     H11601   1.158   3.489  10.164 -2.0049  1.3516  1.5861
   86MOL0     H11602   1.197   3.564  10.394  1.3396  0.1593  1.7180
   86MOL0     H11603   1.242   3.401  10.447 -0.4124  0.4678  0.7465
   86MOL0     H11604   1.016   3.316  10.422  1.7177 -0.5742  0.1193
   86MOL0     H11605   1.011   3.466  10.513  0.0929 -0.3461 -0.0124
   86MOL0     H11606   0.758   3.587  10.222  0.1771  0.0448  0.3390
   86MOL0     H11607   1.342   3.185   9.856  0.0429 -0.5965 -0.8282
   86MOL0     H11608   1.582   3.065   9.631 -0.4222 -1.1325  0.3232
   86MOL0     H11609   1.417   3.071   9.681  0.6365  1.5262  2.9824
   86MOL0     H11610   1.478   3.194   9.559 -0.7573 -0.3252 -0.1678
   87MOL0     O11611   5.663  10.195   7.726 -0.5089 -0.5017  0.0915
   87MOL0     C11612   5.599  10.118   7.793 -0.0458  0.6009 -1.7252
   87MOL0     O11613   5.656  10.023   7.866 -0.7304  0.1858 -0.9490
   87MOL0     C11614   5.795   9.990   7.854 -1.5310 -0.3496  0.1702
   87MOL0     C11615   5.816   9.889   7.759  0.3361 -0.4904  0.3724
   87MOL0     C11616   5.944   9.855   7.731  0.2944 -0.2261  0.1550
   87MOL0     C11617   6.060   9.908   7.795  0.9126 -0.2275  0.6497
   87MOL0     O11618   6.183   9.861   7.766  0.1194 -0.2040 -0.0799
   87MOL0     C11619   6.246   9.919   7.653 -0.2337  0.6309  0.6735
   87MOL0     C11620   6.329  10.043   7.691 -0.0980 -0.3592 -0.2190
   87MOL0     C11621   6.447  10.012   7.781 -0.8064  0.1383  0.0750
   87MOL0     C11622   6.564   9.956   7.699  0.0723 -0.6331  0.2128
   87MOL0     C11623   6.674   9.912   7.798 -0.0574 -0.2096 -0.7337
   87MOL0     C11624   6.771   9.832   7.719 -0.5200 -0.0198  0.3858
   87MOL0     C11625   6.890   9.785   7.803 -0.0620 -0.1973 -0.6817
   87MOL0     C11626   6.980   9.895   7.867 -0.0050  0.2739 -0.0187
   87MOL0     N11627   7.066   9.954   7.766 -0.2212 -0.6895 -0.2143
   87MOL0     C11628   7.172   9.896   7.692 -0.3067  0.0865  0.8650
   87MOL0     C11629   7.215   9.993   7.616  0.5211  0.7359  0.5359
   87MOL0     C11630   7.319   9.975   7.523  0.0000  0.3278 -0.5690
   87MOL0     C11631   7.419  10.080   7.513 -0.7128  0.1364 -0.7631
   87MOL0     C11632   7.519  10.051   7.402 -0.2567  0.0588  0.2409
   87MOL0     C11633   7.589  10.183   7.366 -0.3137  0.2595  0.9240
   87MOL0     O11634   7.695  10.149   7.272 -0.1028 -0.2215 -0.3049
   87MOL0     C11635   7.760  10.252   7.204 -0.0238 -0.5298 -0.0183
   87MOL0     C11636   7.764  10.384   7.253  0.5082  0.3463 -0.1386
   87MOL0     C11637   7.851  10.479   7.202  0.1043  0.0412 -0.3510
   87MOL0     C11638   7.933  10.450   7.093 -0.2151  0.2042 -0.0398
   87MOL0     C11639   8.011  10.549   7.024  0.0388 -0.3908 -0.9462
   87MOL0     O11640   8.106  10.508   6.939 -0.6548  0.0704  0.2578
   87MOL0     C11641   8.187  10.597   6.865  0.4725  0.0214  0.7764
   87MOL0     C11642   8.269  10.665   6.960 -0.3076 -0.4750 -0.3179
   87MOL0     C11643   8.380  10.741   6.917  0.2380  0.2577 -0.0201
   87MOL0     C11644   8.416  10.728   6.781 -0.8076 -0.6578 -0.3688
   87MOL0     O11645   8.532  10.788   6.741  0.1101 -0.3162 -0.5815
   87MOL0     C11646   8.660  10.726   6.767 -0.0246 -0.1798  0.5776
   87MOL0     C11647   8.758  10.844   6.763  0.6039 -0.7168 -0.1804
   87MOL0     C11648   8.908  10.805   6.781 -0.1385  0.6405 -0.3240
   87MOL0     C11649   8.983  10.907   6.865  0.3843 -0.3706  0.7406
   87MOL0     C11650   9.135  10.874   6.867 -0.4149  0.3095 -0.3158
   87MOL0     C11651   9.201  11.002   6.916  0.8560 -0.3419  0.3773
   87MOL0     C11652   9.354  10.975   6.917  0.0387  0.3254 -0.3979
   87MOL0     C11653   9.424  11.098   6.971 -0.6205 -0.4542 -0.4494
   87MOL0    Cl11654   9.595  11.089   6.925 -0.1748  0.0550  0.1647
   87MOL0     C11655   8.348  10.643   6.694 -0.2507 -0.4100 -0.4603
   87MOL0     C11656   8.236  10.572   6.739 -0.1464  1.1027 -0.3967
   87MOL0     O11657   7.984  10.663   7.057 -1.0072 -0.0134 -0.0397
   87MOL0     C11658   7.927  10.319   7.038 -0.0896  0.5261 -0.6372
   87MOL0     C11659   7.845  10.224   7.098  0.4665 -0.3474  0.9117
   87MOL0     N11660   7.157  10.107   7.650  0.1935 -0.5665 -0.0984
   87MOL0     N11661   7.064  10.088   7.739  0.3132  0.4094  0.0238
   87MOL0     C11662   6.038  10.008   7.890  0.3800  0.5968  0.0539
   87MOL0     C11663   5.905  10.052   7.923  0.5635 -0.3582  0.2420
   87MOL0     C11664   5.447  10.107   7.798 -0.2950 -0.4150 -0.7524
   87MOL0     C11665   5.379  10.214   7.741  0.5623  0.6527 -0.5110
   87MOL0     C11666   5.238  10.217   7.747 -0.8504 -0.0491  0.4725
   87MOL0     C11667   5.163  10.112   7.801  0.4959 -0.0610  0.5504
   87MOL0     O11668   5.021  10.109   7.803 -0.1430 -0.9891 -0.5532
   87MOL0     C11669   4.949  10.226   7.766  1.0554  1.0716  0.2480
   87MOL0     C11670   4.802  10.204   7.798 -0.1050 -0.2781 -0.0594
   87MOL0     C11671   4.762  10.212   7.951 -0.2206 -0.0210  0.5193
   87MOL0     C11672   4.641  10.123   7.987  0.8624  0.5935  0.2606
   87MOL0     C11673   4.515  10.183   7.938 -0.4179  0.0239 -0.4057
   87MOL0     C11674   4.439  10.258   7.882 -0.2689 -0.4086 -0.4855
   87MOL0     C11675   5.235  10.010   7.851  0.5517  0.4695  0.2206
   87MOL0     C11676   5.373  10.003   7.862  0.1031  0.6107  0.2273
   87MOL0     C11677   5.426   9.871   7.915 -0.2610 -0.2663  0.4100
   87MOL0     H11678   5.727   9.848   7.710  0.5302 -0.7644  0.2474
   87MOL0     H11679   5.964   9.771   7.665 -1.3877  0.0180 -0.7359
   87MOL0     H11680   6.313   9.841   7.616 -1.5482  0.6686 -2.0982
   87MOL0     H11681   6.176   9.936   7.570  1.2159  2.7260 -0.2311
   87MOL0     H11682   6.259  10.109   7.743 -0.3132 -1.6741  1.2480
   87MOL0     H11683   6.368  10.094   7.603 -0.1459  1.1767  0.6139
   87MOL0     H11684   6.421   9.944   7.862 -0.6908 -2.2332 -1.7924
   87MOL0     H11685   6.474  10.112   7.819 -1.9690  0.3696  0.3155
   87MOL0     H11686   6.527   9.862   7.656  0.6197 -0.6608 -0.2084
   87MOL0     H11687   6.591  10.019   7.614 -1.0801 -2.1684 -1.3562
   87MOL0     H11688   6.731   9.996   7.838 -0.1661 -0.1148 -0.7759
   87MOL0     H11689   6.639   9.852   7.882 -0.1782  2.7036  1.4525
   87MOL0     H11690   6.720   9.751   7.666 -0.4847 -0.6826  1.3559
   87MOL0     H11691   6.813   9.891   7.637  0.9489  0.3840  1.3833
   87MOL0     H11692   6.951   9.725   7.735  1.9518  0.5181  0.4021
   87MOL0     H11693   6.848   9.713   7.874 -0.2890 -0.7324 -1.3505
   87MOL0     H11694   6.914   9.960   7.925 -0.5430  0.1647 -0.5019
   87MOL0     H11695   7.043   9.853   7.946  1.1521 -0.8807 -1.5033
   87MOL0     H11696   7.202   9.792   7.702 -2.0636 -0.3809  1.7700
   87MOL0     H11697   7.360   9.873   7.527 -0.8480 -0.1019 -2.0993
   87MOL0     H11698   7.268   9.985   7.427 -0.3747  2.2361 -0.1941
   87MOL0     H11699   7.369  10.176   7.495 -1.2909  0.3171  1.4944
   87MOL0     H11700   7.466  10.086   7.612 -0.2686  0.5425 -0.9958
   87MOL0     H11701   7.480  10.005   7.310  0.0400  2.3010 -1.0839
   87MOL0     H11702   7.593   9.987   7.449 -1.7984 -0.2931  2.3055
   87MOL0     H11703   7.641  10.230   7.450  3.1889 -3.2972  1.0298
   87MOL0     H11704   7.518  10.251   7.319  0.1463  1.7577  2.2848
   87MOL0     H11705   7.711  10.407   7.345  1.5857 -0.3284  0.6790
   87MOL0     H11706   7.864  10.574   7.252  4.0268 -1.6294  2.3238
   87MOL0     H11707   8.244  10.661   7.066 -0.0856 -0.3799 -0.2623
   87MOL0     H11708   8.441  10.793   6.990 -1.5480  1.2586  0.8179
   87MOL0     H11709   8.666  10.676   6.864  1.1595 -0.1573  0.5302
   87MOL0     H11710   8.685  10.657   6.686  2.2575  0.6590  0.5029
   87MOL0     H11711   8.752  10.898   6.668 -1.7934  0.8116  0.7398
   87MOL0     H11712   8.720  10.918   6.835 -0.8344 -0.9038 -0.7240
   87MOL0     H11713   8.927  10.712   6.836  2.6695  1.9498  1.0737
   87MOL0     H11714   8.942  10.776   6.681  0.0859  0.2173 -0.1267
   87MOL0     H11715   8.943  10.914   6.966  1.5103  0.0626  1.1715
   87MOL0     H11716   8.969  11.003   6.816  0.8605 -1.0657 -0.8193
   87MOL0     H11717   9.175  10.843   6.770 -1.4359 -2.2025 -0.0221
   87MOL0     H11718   9.151  10.783   6.926  2.8639  0.8322 -0.2366
   87MOL0     H11719   9.176  11.088   6.853 -1.0027 -0.6174  0.6643
   87MOL0     H11720   9.176  11.029   7.019  1.2402  1.2500  0.0671
   87MOL0     H11721   9.397  10.953   6.819  1.2918  1.1037 -0.0523
   87MOL0     H11722   9.391  10.888   6.973  1.4803 -0.7522 -2.8638
   87MOL0     H11723   9.379  11.190   6.933  2.8768  0.6035 -2.4830
   87MOL0     H11724   9.411  11.079   7.078 -1.5766 -1.7658 -0.7642
   87MOL0     H11725   8.389  10.624   6.596  0.3078 -1.0120 -0.1145
   87MOL0     H11726   8.189  10.493   6.682  3.2171 -0.3503 -1.3745
   87MOL0     H11727   7.983  10.294   6.948 -0.7252  3.4414 -1.9502
   87MOL0     H11728   7.864  10.128   7.051 -0.9240 -0.2520  0.0911
   87MOL0     H11729   6.123  10.058   7.935  1.1195  0.4318 -1.1056
   87MOL0     H11730   5.889  10.121   8.005  2.7578 -0.9636  1.2325
   87MOL0     H11731   5.438  10.291   7.693 -0.5728  0.4276 -2.3731
   87MOL0     H11732   5.177  10.291   7.695 -2.6722 -1.7063  0.1082
   87MOL0     H11733   4.948  10.242   7.657 -1.6232  0.6112  0.1377
   87MOL0     H11734   4.990  10.310   7.822  2.5832 -0.4007  1.4077
   87MOL0     H11735   4.784  10.105   7.754  1.8260 -0.5949 -0.2255
   87MOL0     H11736   4.746  10.284   7.750 -3.2788 -1.7761  0.8435
   87MOL0     H11737   4.757  10.315   7.986  0.3582 -0.5523  2.2848
   87MOL0     H11738   4.850  10.174   8.005  0.9376  1.4329 -0.2489
   87MOL0     H11739   4.656  10.028   7.936 -0.3208  0.0925  0.8167
   87MOL0     H11740   4.630  10.105   8.094 -0.0050  0.7430  0.2105
   87MOL0     H11741   4.356  10.322   7.859  1.1588  1.8756  0.3363
   87MOL0     H11742   5.167   9.931   7.883  1.0196 -0.4732 -1.0352
   87MOL0     H11743   5.348   9.800   7.945 -0.1795 -0.8916 -0.7929
   87MOL0     H11744   5.483   9.823   7.835 -1.6886 -1.9809  0.3745
   87MOL0     H11745   5.491   9.893   8.000  0.5252 -0.7314 -0.0541
   88MOL0     O11746   4.411   3.352   6.654  0.4223  0.6527  0.3031
   88MOL0     C11747   4.432   3.401   6.761 -0.8160  0.7640  0.7976
   88MOL0     O11748   4.544   3.363   6.828 -0.2822 -0.5212 -0.4924
   88MOL0     C11749   4.652   3.322   6.747  0.8141  0.5810 -0.3924
   88MOL0     C11750   4.714   3.202   6.784  0.4669 -0.3503 -0.3749
   88MOL0     C11751   4.835   3.168   6.721 -0.1259 -0.2279 -0.1482
   88MOL0     C11752   4.891   3.253   6.620  0.2423 -0.2590 -0.4376
   88MOL0     O11753   5.007   3.232   6.553 -0.6330 -0.6002 -0.6081
   88MOL0     C11754   5.069   3.108   6.579  1.1251  0.3920  0.5165
   88MOL0     C11755   5.188   3.103   6.492 -0.0345  0.4423 -0.7775
   88MOL0     C11756   5.235   2.960   6.490  0.6337  0.1384 -0.1783
   88MOL0     C11757   5.370   2.924   6.423 -0.1043 -0.6718  0.5917
   88MOL0     C11758   5.411   2.770   6.411 -0.2109 -0.1963 -0.5304
   88MOL0     C11759   5.458   2.705   6.549 -0.0743  0.1133  0.0466
   88MOL0     C11760   5.475   2.551   6.543  0.5794 -0.4796  0.4703
   88MOL0     C11761   5.340   2.472   6.547 -0.3709 -0.2902  0.7485
   88MOL0     N11762   5.365   2.330   6.536  0.2702 -0.2613 -0.1667
   88MOL0     C11763   5.445   2.251   6.619  0.0207  0.0233  0.6335
   88MOL0     C11764   5.452   2.132   6.554 -0.7423  0.1202 -0.0815
   88MOL0     C11765   5.508   2.017   6.628  0.7402 -0.1920 -0.1344
   88MOL0     C11766   5.657   1.992   6.591  0.1509  0.5024 -0.0997
   88MOL0     C11767   5.686   1.978   6.444  0.4075 -0.1285  0.0806
   88MOL0     C11768   5.832   1.959   6.414 -0.1468 -0.4271  1.0316
   88MOL0     O11769   5.838   1.917   6.278  0.2016 -0.4864 -0.0426
   88MOL0     C11770   5.961   1.894   6.222 -0.1932 -0.1238 -0.3111
   88MOL0     C11771   6.087   1.907   6.287  0.2537 -0.3047  0.4104
   88MOL0     C11772   6.203   1.887   6.211  0.1751  0.4564 -0.7474
   88MOL0     C11773   6.204   1.841   6.077  0.4903 -0.4997 -0.1586
   88MOL0     C11774   6.323   1.807   6.004  0.2006 -0.2576 -0.2192
   88MOL0     O11775   6.441   1.825   6.074  0.2442 -0.6857  0.4569
   88MOL0     C11776   6.565   1.802   6.024  0.2690 -0.3827 -0.3710
   88MOL0     C11777   6.656   1.745   6.112  0.5409 -0.0350  0.1703
   88MOL0     C11778   6.789   1.716   6.084  0.4807  0.0346  0.3151
   88MOL0     C11779   6.844   1.761   5.958  0.1823 -0.0019  0.0075
   88MOL0     O11780   6.980   1.741   5.939 -0.9081  0.6435  0.9096
   88MOL0     C11781   7.014   1.717   5.800 -0.2715  0.6110  0.1839
   88MOL0     C11782   7.160   1.690   5.782 -0.1203 -0.1727 -0.5688
   88MOL0     C11783   7.195   1.548   5.826 -0.2585  0.0697 -0.6552
   88MOL0     C11784   7.333   1.517   5.787  1.1079  0.7894 -0.0930
   88MOL0     C11785   7.359   1.370   5.816 -0.2488  0.2506 -0.6150
   88MOL0     C11786   7.509   1.333   5.804 -0.0382  0.3153 -0.6273
   88MOL0     C11787   7.552   1.312   5.663  0.1680 -0.3100  1.0337
   88MOL0     C11788   7.690   1.251   5.650  0.5818  0.6346 -0.4767
   88MOL0    Cl11789   7.807   1.383   5.632 -0.3566 -0.0351 -0.6318
   88MOL0     C11790   6.754   1.833   5.868 -1.2517  0.4426 -0.3053
   88MOL0     C11791   6.619   1.852   5.900  0.5965  1.0141  0.4305
   88MOL0     O11792   6.303   1.775   5.887 -0.1425 -0.3251 -0.8636
   88MOL0     C11793   6.074   1.817   6.019  0.1364 -0.0341  0.3770
   88MOL0     C11794   5.959   1.845   6.091 -0.1420  0.2202  1.2697
   88MOL0     N11795   5.383   2.128   6.433  0.7264 -0.1866  0.1078
   88MOL0     N11796   5.355   2.256   6.420  0.7258 -0.3853 -0.8974
   88MOL0     C11797   4.826   3.370   6.591  0.2913 -0.2661  0.1421
   88MOL0     C11798   4.710   3.407   6.656 -0.5772 -0.8450 -0.5972
   88MOL0     C11799   4.336   3.506   6.814 -0.2079  0.4134  0.9710
   88MOL0     C11800   4.376   3.597   6.909  0.0464 -0.3467  0.3672
   88MOL0     C11801   4.287   3.694   6.964 -0.2760 -0.1076 -0.5407
   88MOL0     C11802   4.151   3.692   6.940  0.0174  0.0084  0.9700
   88MOL0     O11803   4.057   3.783   6.983 -0.2723  0.0451  0.3679
   88MOL0     C11804   4.110   3.914   7.024  0.4295 -0.1120  0.4433
   88MOL0     C11805   3.993   4.003   7.072 -0.1859  0.6355  0.2195
   88MOL0     C11806   3.961   3.963   7.217 -0.1214 -0.1494 -0.5808
   88MOL0     C11807   3.831   4.017   7.269  0.5648 -0.5585  0.2165
   88MOL0     C11808   3.840   4.158   7.296 -0.1377  0.6164 -0.2159
   88MOL0     C11809   3.855   4.269   7.341  0.3977  0.6935  0.1358
   88MOL0     C11810   4.109   3.599   6.844 -0.7525 -0.2804  0.7958
   88MOL0     C11811   4.200   3.510   6.772  0.2809  0.4299 -0.4284
   88MOL0     C11812   4.141   3.416   6.672 -0.4809 -0.7581  1.1037
   88MOL0     H11813   4.674   3.143   6.865 -0.7895 -0.5725 -1.1193
   88MOL0     H11814   4.890   3.077   6.740  0.2320 -0.1685 -0.8486
   88MOL0     H11815   5.106   3.092   6.680  1.8503 -0.6901  0.0987
   88MOL0     H11816   4.992   3.034   6.556  1.0333  0.9496 -1.1282
   88MOL0     H11817   5.264   3.163   6.542 -1.4006  1.5535  0.0596
   88MOL0     H11818   5.162   3.134   6.390  0.7531 -0.0497 -1.1351
   88MOL0     H11819   5.157   2.907   6.434  0.0821  0.3406  0.3871
   88MOL0     H11820   5.235   2.916   6.590  1.4804 -1.3062 -0.7754
   88MOL0     H11821   5.354   2.958   6.320 -1.4174 -2.3510  0.2065
   88MOL0     H11822   5.441   2.986   6.480  0.0329 -1.0923  0.8825
   88MOL0     H11823   5.331   2.709   6.370 -0.1978 -2.4154  2.3656
   88MOL0     H11824   5.498   2.749   6.348  0.3082 -3.7940  1.1189
   88MOL0     H11825   5.557   2.744   6.574 -1.3589  1.3034  4.0390
   88MOL0     H11826   5.398   2.720   6.639  1.5606  0.1478  1.1720
   88MOL0     H11827   5.541   2.535   6.629  1.5291  1.4358  0.1628
   88MOL0     H11828   5.528   2.519   6.453 -0.2361 -0.6194  0.0305
   88MOL0     H11829   5.285   2.509   6.634 -0.5087  2.0521 -0.2614
   88MOL0     H11830   5.282   2.504   6.460 -1.2543 -1.5840  0.8405
   88MOL0     H11831   5.480   2.265   6.721 -2.0169  2.3565  1.1179
   88MOL0     H11832   5.494   2.028   6.736  0.3268 -0.5620 -0.1461
   88MOL0     H11833   5.452   1.927   6.602  1.7494 -1.3867  1.5977
   88MOL0     H11834   5.717   2.070   6.639  0.6206 -0.8097  1.5416
   88MOL0     H11835   5.679   1.892   6.629 -3.4889 -0.0778  0.8054
   88MOL0     H11836   5.653   2.067   6.389  0.3460  0.4328  0.9993
   88MOL0     H11837   5.628   1.895   6.404  1.6803 -1.1043  0.2166
   88MOL0     H11838   5.874   1.878   6.474 -0.9134 -0.9493  0.8825
   88MOL0     H11839   5.880   2.055   6.438 -1.5566  0.3080  1.0350
   88MOL0     H11840   6.104   1.921   6.393  0.6355 -1.1838  0.4768
   88MOL0     H11841   6.300   1.907   6.258 -0.8764  1.8595  0.9823
   88MOL0     H11842   6.625   1.725   6.214 -0.5553 -1.2118 -0.3668
   88MOL0     H11843   6.851   1.661   6.155  1.3101 -0.9231 -1.1127
   88MOL0     H11844   6.951   1.637   5.761  2.2250 -0.0344 -2.8971
   88MOL0     H11845   6.998   1.806   5.738 -3.8374 -2.1847 -3.3822
   88MOL0     H11846   7.188   1.701   5.676  1.1277  0.8247 -0.1659
   88MOL0     H11847   7.227   1.757   5.837 -3.0691 -0.3422  3.6961
   88MOL0     H11848   7.189   1.533   5.934  0.4813 -1.1110 -0.7642
   88MOL0     H11849   7.123   1.476   5.787  1.5532 -2.3695  0.2232
   88MOL0     H11850   7.392   1.581   5.853 -1.7079  3.1935  0.3102
   88MOL0     H11851   7.344   1.555   5.685 -3.2860  0.6572 -0.8253
   88MOL0     H11852   7.299   1.303   5.754 -0.2481 -0.9927  0.6551
   88MOL0     H11853   7.323   1.352   5.918 -1.7763 -0.0994 -1.1872
   88MOL0     H11854   7.579   1.398   5.857  2.1530 -1.7151 -0.8770
   88MOL0     H11855   7.522   1.236   5.854 -0.2393  1.6560  2.2296
   88MOL0     H11856   7.539   1.413   5.623 -1.0969 -1.0147 -0.4343
   88MOL0     H11857   7.481   1.240   5.620 -1.0806  1.5352 -0.1465
   88MOL0     H11858   7.717   1.190   5.737 -1.6267 -1.5476 -1.2190
   88MOL0     H11859   7.684   1.192   5.558  1.7202  0.1962 -0.2914
   88MOL0     H11860   6.796   1.875   5.778  2.2852 -1.1045  0.4685
   88MOL0     H11861   6.556   1.917   5.841  0.3904  0.6528  0.2462
   88MOL0     H11862   6.071   1.779   5.918  2.6858  1.3172 -0.2980
   88MOL0     H11863   5.858   1.829   6.053 -1.0753  1.4197  3.0971
   88MOL0     H11864   4.869   3.428   6.510 -0.0168  1.6068  1.2376
   88MOL0     H11865   4.660   3.500   6.629 -2.8973 -1.8178  0.0591
   88MOL0     H11866   4.479   3.603   6.942 -0.2061  2.0118  0.9383
   88MOL0     H11867   4.320   3.763   7.040 -0.7949 -1.3668  0.8890
   88MOL0     H11868   4.153   3.949   6.929  0.6868 -0.7430  0.3170
   88MOL0     H11869   4.186   3.913   7.102 -1.7001 -0.7927  2.6264
   88MOL0     H11870   3.904   3.990   7.009 -0.9233  0.1334  1.3442
   88MOL0     H11871   4.033   4.104   7.071 -1.8979  1.3473 -0.5129
   88MOL0     H11872   4.041   4.001   7.281  2.4611 -0.6478 -3.2498
   88MOL0     H11873   3.957   3.854   7.225 -1.5886 -0.0758 -0.0674
   88MOL0     H11874   3.755   3.987   7.196 -0.0151  2.1114 -0.3788
   88MOL0     H11875   3.805   3.965   7.361  0.5364 -3.6204 -1.3888
   88MOL0     H11876   3.886   4.359   7.389 -2.4457  0.7255  2.2060
   88MOL0     H11877   4.005   3.607   6.813 -0.4033  1.8111  0.0221
   88MOL0     H11878   4.171   3.451   6.573 -0.9448 -0.1708  1.1650
   88MOL0     H11879   4.175   3.313   6.688  2.1078  0.1778  2.0892
   88MOL0     H11880   4.032   3.419   6.680 -0.7026 -1.3332 -1.0709
   89MOL0     O11881   5.462   4.065   0.288  0.4171 -0.0331  0.2550
   89MOL0     C11882   5.388   4.079   0.385  0.0997 -0.2192 -0.0251
   89MOL0     O11883   5.426   4.047   0.514 -0.4319  0.2503 -0.0972
   89MOL0     C11884   5.544   3.983   0.531  0.1819  0.4389 -0.4520
   89MOL0     C11885   5.668   4.042   0.498 -0.2188 -0.0727 -0.0837
   89MOL0     C11886   5.788   3.984   0.532 -0.5835  0.1437  0.4091
   89MOL0     C11887   5.785   3.855   0.593  0.1040 -0.7024  0.0365
   89MOL0     O11888   5.901   3.786   0.629  0.6872  0.4449  0.0625
   89MOL0     C11889   6.021   3.852   0.661  0.2740 -0.1424 -0.2559
   89MOL0     C11890   6.139   3.748   0.694 -0.0040 -0.2301 -0.2753
   89MOL0     C11891   6.259   3.815   0.756 -0.3180 -0.4927 -0.7722
   89MOL0     C11892   6.352   3.714   0.818  0.1780 -0.4368  0.4426
   89MOL0     C11893   6.425   3.632   0.712 -0.1649  0.2725  0.4728
   89MOL0     C11894   6.544   3.547   0.772  0.7141 -0.0722  0.0143
   89MOL0     C11895   6.570   3.424   0.681 -0.6024 -0.9114 -0.5674
   89MOL0     C11896   6.652   3.311   0.752  0.6731 -0.1991  0.1011
   89MOL0     N11897   6.795   3.351   0.763 -0.5208 -0.2864 -0.4476
   89MOL0     C11898   6.900   3.316   0.673  1.5927 -1.9213  0.8355
   89MOL0     C11899   7.001   3.405   0.700  0.7433 -0.6757  0.5664
   89MOL0     C11900   7.138   3.405   0.629 -0.0626  0.5531  0.0964
   89MOL0     C11901   7.166   3.531   0.546  0.3108 -0.3926  0.0418
   89MOL0     C11902   7.317   3.555   0.511 -0.2001 -0.1715 -0.3053
   89MOL0     C11903   7.409   3.579   0.635 -0.6351 -0.3860 -0.5703
   89MOL0     O11904   7.538   3.635   0.612  0.1601 -0.3541  0.1975
   89MOL0     C11905   7.646   3.555   0.575  0.0559 -0.4596  0.6160
   89MOL0     C11906   7.762   3.622   0.570  0.3730 -0.7770  0.1650
   89MOL0     C11907   7.880   3.566   0.529 -0.1291 -0.1459 -0.5881
   89MOL0     C11908   7.887   3.430   0.509  0.2662 -0.1337 -0.5867
   89MOL0     C11909   8.017   3.371   0.469 -0.1089 -0.4902  0.5821
   89MOL0     O11910   8.120   3.446   0.420 -0.2075 -0.1858 -0.4540
   89MOL0     C11911   8.236   3.400   0.376  0.2895 -0.1203  0.8028
   89MOL0     C11912   8.305   3.468   0.278 -0.3930  0.5156 -0.0537
   89MOL0     C11913   8.420   3.410   0.225 -0.4732  0.6066  0.3051
   89MOL0     C11914   8.479   3.290   0.272  0.8238  0.9068  0.6647
   89MOL0     O11915   8.585   3.229   0.214  0.7509 -0.1484 -0.1785
   89MOL0     C11916   8.678   3.321   0.156  0.5852  0.2443  0.9110
   89MOL0     C11917   8.819   3.269   0.195  0.2176 -0.1030 -0.1025
   89MOL0     C11918   8.872   3.149   0.115 -0.3455 -0.0524  0.7537
   89MOL0     C11919   9.022   3.142   0.139 -0.0381 -0.1893  0.1346
   89MOL0     C11920   9.089   3.052   0.032  0.5917 -1.0761  0.4165
   89MOL0     C11921   9.240   3.043   0.051 -0.0684 -0.3260 -0.4309
   89MOL0     C11922   9.300   2.958  -0.066  0.2076 -0.0697 -0.0348
   89MOL0     C11923   9.452   2.962  -0.061 -0.2109 -0.4179  0.4634
   89MOL0    Cl11924   9.501   2.916   0.111  0.0914 -0.2487 -0.2938
   89MOL0     C11925   8.419   3.235   0.388 -0.8358  0.1568  0.4686
   89MOL0     C11926   8.303   3.292   0.438 -0.8059 -0.2551 -0.7837
   89MOL0     O11927   8.013   3.252   0.493  0.1664  0.3107  0.2340
   89MOL0     C11928   7.769   3.347   0.519 -0.4992  0.9616 -0.0804
   89MOL0     C11929   7.650   3.416   0.538  0.3644  0.3342 -0.2761
   89MOL0     N11930   6.965   3.483   0.808  0.5906  0.1430  0.0803
   89MOL0     N11931   6.846   3.453   0.845 -0.0865  0.3430 -0.4503
   89MOL0     C11932   5.672   3.781   0.608 -0.0978 -0.9012 -0.0255
   89MOL0     C11933   5.555   3.858   0.578  0.3282  0.6482 -0.3134
   89MOL0     C11934   5.245   4.108   0.371  0.0092 -0.0311  0.5585
   89MOL0     C11935   5.148   4.051   0.462 -0.9899  0.3818  0.5416
   89MOL0     C11936   5.004   4.071   0.450 -0.3144  0.3757 -0.1338
   89MOL0     C11937   4.952   4.150   0.348  0.0133 -0.3152 -0.8206
   89MOL0     O11938   4.821   4.179   0.323  0.2399 -0.1571  0.4568
   89MOL0     C11939   4.723   4.128   0.410 -1.3267  0.4672 -0.0279
   89MOL0     C11940   4.586   4.152   0.348  0.7093  0.0711  1.2983
   89MOL0     C11941   4.483   4.084   0.434  0.4665 -0.3078  0.3103
   89MOL0     C11942   4.359   4.069   0.344 -0.9438 -1.1020 -0.4021
   89MOL0     C11943   4.265   3.988   0.414  0.8791  0.8332 -0.0815
   89MOL0     C11944   4.175   3.927   0.467 -0.2764 -0.3036  0.3071
   89MOL0     C11945   5.049   4.201   0.258 -0.0020  0.6623 -0.1936
   89MOL0     C11946   5.185   4.183   0.263  0.4482 -0.7141 -0.1146
   89MOL0     C11947   5.252   4.226   0.145 -0.0211  0.0643  0.1045
   89MOL0     H11948   5.674   4.136   0.442  2.1809  0.3372  0.7403
   89MOL0     H11949   5.882   4.033   0.507  1.3038 -3.0186  0.6835
   89MOL0     H11950   6.051   3.913   0.575  0.1340 -0.4023 -0.4921
   89MOL0     H11951   5.995   3.912   0.749  2.0364  0.1730  0.1007
   89MOL0     H11952   6.177   3.706   0.601  3.5651  0.9793  0.4735
   89MOL0     H11953   6.103   3.666   0.757 -2.4715 -0.5561 -1.9484
   89MOL0     H11954   6.229   3.882   0.837 -1.7586 -0.9747 -0.8815
   89MOL0     H11955   6.308   3.873   0.677 -0.3095  1.9304  0.9004
   89MOL0     H11956   6.425   3.757   0.888 -0.5894  0.4658  0.7048
   89MOL0     H11957   6.306   3.637   0.879  0.4502  0.7451  2.2223
   89MOL0     H11958   6.348   3.564   0.674  0.5309  0.3889 -1.2215
   89MOL0     H11959   6.471   3.699   0.638 -2.2806 -0.0678 -1.2599
   89MOL0     H11960   6.637   3.603   0.783  0.5740  0.0471  0.6526
   89MOL0     H11961   6.528   3.513   0.875  0.1663  1.9783  0.6590
   89MOL0     H11962   6.608   3.458   0.585 -2.2683  0.3218 -0.8358
   89MOL0     H11963   6.477   3.370   0.662 -0.0840 -2.4619  0.9914
   89MOL0     H11964   6.612   3.292   0.852 -0.8940  2.6233  0.0998
   89MOL0     H11965   6.637   3.213   0.705 -0.4987 -0.3017  0.6479
   89MOL0     H11966   6.898   3.252   0.585 -0.8504  2.2567 -2.5290
   89MOL0     H11967   7.224   3.378   0.691 -0.6775 -1.7810  0.0341
   89MOL0     H11968   7.137   3.319   0.561  1.4727 -2.0802  3.1617
   89MOL0     H11969   7.116   3.527   0.448 -1.8781  2.3538  0.9147
   89MOL0     H11970   7.117   3.613   0.599  0.4133  1.3264 -2.3308
   89MOL0     H11971   7.327   3.649   0.457  1.3280 -0.1716 -0.0736
   89MOL0     H11972   7.347   3.467   0.453  0.7393 -0.0676  0.0051
   89MOL0     H11973   7.407   3.496   0.706  0.3945 -0.2924 -0.4141
   89MOL0     H11974   7.364   3.653   0.702  1.8763 -2.3810  3.7415
   89MOL0     H11975   7.755   3.725   0.604  0.5129 -1.5926  2.9665
   89MOL0     H11976   7.969   3.628   0.520  0.0975 -0.5693 -1.3572
   89MOL0     H11977   8.269   3.560   0.232 -1.1568 -0.0530 -0.6179
   89MOL0     H11978   8.461   3.469   0.143  0.8128  1.6749  1.6548
   89MOL0     H11979   8.680   3.309   0.047  0.0099 -1.8555  1.0751
   89MOL0     H11980   8.667   3.424   0.190  0.4848  0.5438  0.0007
   89MOL0     H11981   8.894   3.348   0.183  0.5721 -0.3254  0.5685
   89MOL0     H11982   8.819   3.235   0.299 -4.2931 -2.8171 -0.7079
   89MOL0     H11983   8.830   3.052   0.145 -0.3072 -0.0938  0.6745
   89MOL0     H11984   8.851   3.155   0.007 -1.2230  2.7918  1.0049
   89MOL0     H11985   9.041   3.106   0.241 -0.4507 -0.4142  0.1361
   89MOL0     H11986   9.074   3.237   0.131 -0.0184 -0.1184  0.9943
   89MOL0     H11987   9.061   3.104  -0.060 -1.5005 -2.1672  0.3778
   89MOL0     H11988   9.050   2.949   0.032 -1.3119 -0.5028 -2.8231
   89MOL0     H11989   9.274   3.147   0.054  0.0531 -0.3751 -0.0554
   89MOL0     H11990   9.263   2.997   0.148  0.7373  1.1649  0.1208
   89MOL0     H11991   9.271   3.002  -0.162 -0.3762  2.0043  1.0417
   89MOL0     H11992   9.268   2.853  -0.071  0.7711 -0.3284  1.3574
   89MOL0     H11993   9.500   2.899  -0.137  0.6827  1.5643 -0.7022
   89MOL0     H11994   9.484   3.063  -0.086  1.7510 -0.3885  2.7306
   89MOL0     H11995   8.473   3.165   0.452  0.0530  3.5111  3.7569
   89MOL0     H11996   8.260   3.248   0.527 -2.9467  1.4160 -0.8875
   89MOL0     H11997   7.752   3.243   0.493  1.3978  0.6677 -0.2587
   89MOL0     H11998   7.557   3.361   0.537  0.8932 -0.5825 -0.7852
   89MOL0     H11999   5.664   3.686   0.659  0.2704 -0.2803  1.2391
   89MOL0     H12000   5.462   3.805   0.592  0.9861 -0.6827 -0.8864
   89MOL0     H12001   5.195   3.990   0.539  1.0033  1.7882  0.5152
   89MOL0     H12002   4.941   4.020   0.522  1.2065  0.9802  1.7116
   89MOL0     H12003   4.729   4.185   0.503 -1.0545  1.3752 -0.5886
   89MOL0     H12004   4.727   4.019   0.417 -0.0121  0.3940 -1.4553
   89MOL0     H12005   4.573   4.115   0.246 -2.6927  2.5765  0.6387
   89MOL0     H12006   4.569   4.260   0.345 -1.9006 -0.3196 -0.5729
   89MOL0     H12007   4.464   4.135   0.530  3.3104  0.8722  0.3359
   89MOL0     H12008   4.511   3.985   0.470 -1.1075 -0.1381  2.2021
   89MOL0     H12009   4.312   4.167   0.332  2.8334  1.1051  1.2487
   89MOL0     H12010   4.400   4.024   0.253  2.7651  0.4939  0.2750
   89MOL0     H12011   4.088   3.884   0.511 -0.3119  1.3903  2.0372
   89MOL0     H12012   5.000   4.257   0.179  2.4070  1.6292 -1.1233
   89MOL0     H12013   5.188   4.258   0.062 -0.0903  0.8039  0.4321
   89MOL0     H12014   5.324   4.306   0.167 -0.1900  0.0308  0.7944
   89MOL0     H12015   5.293   4.126   0.129 -0.1742 -0.1756  1.1157
   90MOL0     O12016   5.110   7.452   7.131 -0.1326  0.4042 -0.0411
   90MOL0     C12017   5.010   7.521   7.140  0.4024 -0.9622 -0.2469
   90MOL0     O12018   4.976   7.604   7.243  0.6893  0.1278  0.8333
   90MOL0     C12019   5.056   7.602   7.351 -0.2472  0.4378  0.6200
   90MOL0     C12020   5.176   7.673   7.354  0.6705  0.2755  0.1704
   90MOL0     C12021   5.251   7.673   7.476 -0.3032  0.1200  0.1065
   90MOL0     C12022   5.228   7.588   7.582 -0.9411 -0.8622 -0.1059
   90MOL0     O12023   5.306   7.576   7.693 -0.6184  0.8183 -0.0261
   90MOL0     C12024   5.412   7.671   7.717  0.1349  0.8972  0.2458
   90MOL0     C12025   5.350   7.805   7.778  0.6692 -0.4766  1.3861
   90MOL0     C12026   5.451   7.904   7.843  0.5546 -0.4786  0.6840
   90MOL0     C12027   5.522   7.852   7.965 -0.9242 -0.4378  0.7008
   90MOL0     C12028   5.637   7.952   7.986 -0.8383 -0.5461 -0.1107
   90MOL0     C12029   5.690   7.955   8.123  0.3749 -0.2016 -0.0254
   90MOL0     C12030   5.773   8.076   8.149 -0.5508  0.0100 -0.2606
   90MOL0     C12031   5.884   8.109   8.056 -0.3537  0.9341  0.1778
   90MOL0     N12032   6.002   8.023   8.071 -0.4767 -0.8170 -0.6134
   90MOL0     C12033   6.103   8.052   8.156  0.1907  0.8845  0.1494
   90MOL0     C12034   6.199   7.960   8.123  0.2155  0.2545 -0.4461
   90MOL0     C12035   6.333   7.949   8.186 -0.1253  0.8287 -0.6822
   90MOL0     C12036   6.428   8.050   8.121  0.0732 -0.0955  0.5483
   90MOL0     C12037   6.573   8.015   8.117 -0.4612  0.8014  1.1241
   90MOL0     C12038   6.639   7.990   8.259  0.5044  0.7326  0.2517
   90MOL0     O12039   6.650   8.109   8.335  0.7250 -0.2987 -0.1847
   90MOL0     C12040   6.774   8.140   8.376 -0.0596 -0.1289 -0.4307
   90MOL0     C12041   6.862   8.199   8.286  0.0476 -0.0108 -0.1441
   90MOL0     C12042   6.989   8.233   8.328 -0.2243 -0.6491 -0.2435
   90MOL0     C12043   7.049   8.195   8.450 -0.2003  0.3191  0.3831
   90MOL0     C12044   7.188   8.243   8.492 -0.5322 -0.0433 -0.8718
   90MOL0     O12045   7.281   8.273   8.396  0.2546 -1.1077 -0.3678
   90MOL0     C12046   7.409   8.317   8.431 -0.0835  0.4882  0.8577
   90MOL0     C12047   7.506   8.249   8.351  0.1621 -0.2345 -0.1346
   90MOL0     C12048   7.641   8.290   8.365  0.3336  1.2289 -0.5192
   90MOL0     C12049   7.681   8.370   8.468  0.6715  0.3109  0.0049
   90MOL0     O12050   7.810   8.384   8.501 -0.0773 -0.4553  0.1717
   90MOL0     C12051   7.849   8.511   8.558 -0.3651 -0.3218  0.5058
   90MOL0     C12052   7.995   8.514   8.588  0.4349  0.2376  0.1141
   90MOL0     C12053   8.084   8.561   8.474 -0.2421  0.0396  0.0486
   90MOL0     C12054   8.235   8.592   8.520  0.0777 -0.8922 -0.8822
   90MOL0     C12055   8.331   8.617   8.407 -0.1449  0.3966 -0.1437
   90MOL0     C12056   8.468   8.648   8.464  0.2178 -0.3564  0.2063
   90MOL0     C12057   8.567   8.658   8.351 -0.2289 -0.3339 -0.0627
   90MOL0     C12058   8.705   8.704   8.404 -0.0360 -0.3059  0.1322
   90MOL0    Cl12059   8.832   8.673   8.290  0.1356 -0.0036  0.3284
   90MOL0     C12060   7.582   8.422   8.552 -0.2410 -0.7430 -0.7113
   90MOL0     C12061   7.448   8.399   8.531 -0.7362 -0.0572 -0.4480
   90MOL0     O12062   7.206   8.254   8.613 -0.1892 -0.1064 -0.3045
   90MOL0     C12063   6.962   8.128   8.534 -0.6662  0.3806  0.0068
   90MOL0     C12064   6.827   8.099   8.501  0.6622  0.4221  0.3500
   90MOL0     N12065   6.152   7.878   8.024 -0.4247 -0.8737  0.8159
   90MOL0     N12066   6.036   7.914   7.993  1.2108 -0.1030  0.8303
   90MOL0     C12067   5.109   7.515   7.569  0.6490 -0.1071 -0.2985
   90MOL0     C12068   5.020   7.527   7.464  0.4006  0.6147 -0.0343
   90MOL0     C12069   4.911   7.527   7.029 -0.2996  0.4594 -0.3375
   90MOL0     C12070   4.800   7.612   7.046  0.3334 -0.1791  0.8808
   90MOL0     C12071   4.702   7.624   6.943 -0.0488  0.2113 -0.0372
   90MOL0     C12072   4.704   7.535   6.837  0.0269  0.6722 -0.1324
   90MOL0     O12073   4.598   7.505   6.759  0.4003 -0.4548 -0.3499
   90MOL0     C12074   4.463   7.564   6.767 -0.8638  0.6211  0.9784
   90MOL0     C12075   4.347   7.479   6.813  0.1747  0.3950 -0.2746
   90MOL0     C12076   4.340   7.455   6.968 -0.2147 -0.2096  1.4837
   90MOL0     C12077   4.249   7.341   7.014  0.0763 -0.3191  0.2366
   90MOL0     C12078   4.106   7.366   6.964 -0.0078 -0.7312  0.1500
   90MOL0     C12079   3.999   7.390   6.909  0.8341  0.4823  0.2760
   90MOL0     C12080   4.817   7.460   6.825 -0.1867 -0.3203  0.7822
   90MOL0     C12081   4.916   7.450   6.911 -0.4903  0.1989 -0.2613
   90MOL0     C12082   5.046   7.382   6.867 -0.1720  0.4464 -1.2520
   90MOL0     H12083   5.201   7.736   7.270  0.4029  3.2597  2.1706
   90MOL0     H12084   5.346   7.725   7.479  0.3275 -1.0474  1.9581
   90MOL0     H12085   5.474   7.619   7.791 -1.3029 -2.9483 -1.0209
   90MOL0     H12086   5.478   7.692   7.632  1.0847  1.4927  1.1122
   90MOL0     H12087   5.286   7.766   7.858 -0.5170 -1.7016 -0.0827
   90MOL0     H12088   5.290   7.851   7.699  0.8821  0.2004  1.6155
   90MOL0     H12089   5.400   8.001   7.855 -0.7512 -0.3660 -3.6724
   90MOL0     H12090   5.526   7.922   7.766  0.9969  0.0142  1.2226
   90MOL0     H12091   5.445   7.853   8.043 -1.0731  0.7361  0.5633
   90MOL0     H12092   5.556   7.749   7.959 -2.0661 -1.0034  2.8040
   90MOL0     H12093   5.719   7.933   7.917 -1.2539  0.5166 -0.9215
   90MOL0     H12094   5.603   8.054   7.965 -0.6129 -0.5854 -0.6622
   90MOL0     H12095   5.611   7.942   8.197  2.6482 -1.7089  2.3086
   90MOL0     H12096   5.755   7.867   8.134  1.6839  0.9195  1.7918
   90MOL0     H12097   5.803   8.066   8.253  1.9674  0.4329 -0.8768
   90MOL0     H12098   5.705   8.163   8.143  1.0335  1.3316  0.2283
   90MOL0     H12099   5.853   8.111   7.951  0.7004  1.1880 -0.1435
   90MOL0     H12100   5.914   8.212   8.078  3.0722 -0.0614  0.8261
   90MOL0     H12101   6.118   8.134   8.227  0.6041  1.0858 -0.1662
   90MOL0     H12102   6.327   7.980   8.290 -1.8490 -0.7887 -0.2397
   90MOL0     H12103   6.368   7.846   8.173 -0.6983  0.5346  0.0062
   90MOL0     H12104   6.405   8.059   8.015 -0.5626  2.0573  0.8147
   90MOL0     H12105   6.416   8.154   8.154 -0.2205  0.3837 -1.0109
   90MOL0     H12106   6.624   8.101   8.072 -2.5471  2.3526  1.5779
   90MOL0     H12107   6.585   7.923   8.059 -0.3199  1.6233 -0.2137
   90MOL0     H12108   6.733   7.934   8.249  1.4763  2.3410 -0.0228
   90MOL0     H12109   6.569   7.922   8.307  1.4239 -1.1732 -0.9991
   90MOL0     H12110   6.827   8.219   8.185 -0.5916  0.2070  0.1127
   90MOL0     H12111   7.059   8.271   8.255  2.0712 -0.6687  1.8170
   90MOL0     H12112   7.473   8.186   8.269  0.8206 -0.8434  0.0519
   90MOL0     H12113   7.712   8.235   8.305 -2.7931 -3.8037 -0.2056
   90MOL0     H12114   7.822   8.588   8.485 -2.1453 -1.5839 -0.2454
   90MOL0     H12115   7.808   8.543   8.654  0.9170  1.7285  0.4412
   90MOL0     H12116   8.008   8.584   8.672 -0.5342  1.6759 -0.8934
   90MOL0     H12117   8.024   8.416   8.625  0.3957 -0.1771 -0.9323
   90MOL0     H12118   8.091   8.488   8.392 -1.7565  0.6784 -0.6824
   90MOL0     H12119   8.049   8.653   8.428 -0.9344 -0.2090  0.0559
   90MOL0     H12120   8.266   8.507   8.582  0.1262  1.7204  2.9868
   90MOL0     H12121   8.244   8.675   8.590 -5.0171 -0.4251 -0.3924
   90MOL0     H12122   8.300   8.701   8.344 -3.1763 -1.9089 -2.0410
   90MOL0     H12123   8.346   8.525   8.350  2.5254  0.4058  0.4152
   90MOL0     H12124   8.461   8.746   8.513  0.5019  1.5856 -3.2728
   90MOL0     H12125   8.501   8.568   8.530 -0.4347  0.2554  1.3075
   90MOL0     H12126   8.525   8.719   8.271  0.4880 -1.1343 -1.0753
   90MOL0     H12127   8.582   8.561   8.301 -0.0615 -0.6144  0.5217
   90MOL0     H12128   8.698   8.812   8.420 -1.1955  0.0708 -2.4493
   90MOL0     H12129   8.730   8.656   8.499  0.1853  0.0945  0.2801
   90MOL0     H12130   7.609   8.480   8.639  1.3993  0.4638 -1.9577
   90MOL0     H12131   7.373   8.433   8.602 -0.5117 -2.2580  0.9610
   90MOL0     H12132   6.993   8.105   8.636 -2.6396 -2.7093  0.0487
   90MOL0     H12133   6.754   8.056   8.570 -0.1487  1.9680  0.5256
   90MOL0     H12134   5.094   7.449   7.653  0.2156  0.7133  0.2756
   90MOL0     H12135   4.929   7.467   7.460  1.2288 -0.7549  0.7459
   90MOL0     H12136   4.787   7.675   7.133 -1.5860  0.6474  0.0656
   90MOL0     H12137   4.625   7.699   6.959  0.7824  1.0408  0.1494
   90MOL0     H12138   4.449   7.577   6.660  1.1996 -2.1711  0.2419
   90MOL0     H12139   4.456   7.660   6.819 -1.3409 -0.5951  3.3196
   90MOL0     H12140   4.348   7.388   6.752  0.2997  0.9544 -1.1245
   90MOL0     H12141   4.250   7.519   6.784 -1.7841 -3.5261  0.1187
   90MOL0     H12142   4.330   7.551   7.019 -0.6248  0.6618 -0.1588
   90MOL0     H12143   4.439   7.419   6.997  0.9484  2.4713  1.1153
   90MOL0     H12144   4.283   7.245   6.973  1.6969  0.2158  0.2565
   90MOL0     H12145   4.244   7.336   7.123  0.6205 -1.8752  0.2176
   90MOL0     H12146   3.905   7.421   6.867  0.3585  1.6946  2.1175
   90MOL0     H12147   4.825   7.403   6.733  2.8904 -1.1619  1.4816
   90MOL0     H12148   5.133   7.445   6.887 -0.7712  2.4274 -4.1800
   90MOL0     H12149   5.065   7.294   6.928 -0.3909  1.9041  1.0395
   90MOL0     H12150   5.040   7.352   6.762 -3.1722  0.7298 -1.2467
   91MOL0     O12151  10.962   0.203   1.431 -0.1535  0.6573 -0.5867
   91MOL0     C12152  10.977   0.179   1.551  0.2111 -0.2550 -0.2359
   91MOL0     O12153  11.076   0.234   1.630 -0.3475  0.4658  0.1857
   91MOL0     C12154  11.172   0.317   1.564 -0.2317  0.9136 -0.6487
   91MOL0     C12155  11.152   0.449   1.547 -0.2608 -0.2630 -0.1114
   91MOL0     C12156  11.260   0.530   1.505 -0.6386 -0.2735 -0.7309
   91MOL0     C12157  11.389   0.473   1.467  0.6912 -0.5496 -0.9247
   91MOL0     O12158  11.492   0.552   1.428 -1.1647 -0.1202  0.0156
   91MOL0     C12159  11.538   0.667   1.500  0.7335  0.0477  0.8005
   91MOL0     C12160  11.597   0.624   1.630 -0.4195  0.6071  0.3474
   91MOL0     C12161  11.732   0.553   1.597 -0.0086  0.5721  0.5992
   91MOL0     C12162  11.861   0.640   1.563 -0.4772  0.5132  1.1588
   91MOL0     C12163  11.986   0.563   1.516 -0.8166  0.3917 -0.1748
   91MOL0     C12164  12.121   0.638   1.529  0.4168 -0.6577  0.0199
   91MOL0     C12165  12.242   0.546   1.505 -0.3767 -0.0485  0.4294
   91MOL0     C12166  12.372   0.601   1.567 -0.5340  0.2792 -1.0801
   91MOL0     N12167  12.425   0.716   1.497  0.5100  0.1233 -0.2643
   91MOL0     C12168  12.471   0.710   1.368  0.0312  0.7764  0.5677
   91MOL0     C12169  12.511   0.831   1.333 -0.0550 -0.2436 -0.0138
   91MOL0     C12170  12.604   0.858   1.216  0.9485  0.0459 -0.7566
   91MOL0     C12171  12.750   0.831   1.254  0.7827  0.2004 -0.2169
   91MOL0     C12172  12.849   0.767   1.152  0.4226 -0.1098 -0.0570
   91MOL0     C12173  12.826   0.619   1.106 -0.8538  0.4486  0.7539
   91MOL0     O12174  12.840   0.540   1.229 -0.4440 -0.0071 -0.0053
   91MOL0     C12175  12.735   0.466   1.291 -0.4890 -0.8840  0.0014
   91MOL0     C12176  12.612   0.422   1.232 -0.3508  0.0377  0.4105
   91MOL0     C12177  12.524   0.344   1.297  0.0744  0.3062  0.4874
   91MOL0     C12178  12.545   0.297   1.423  0.2529 -0.4399 -0.7728
   91MOL0     C12179  12.449   0.200   1.476 -0.1746  0.1890 -0.0720
   91MOL0     O12180  12.336   0.170   1.406  0.0711  0.4571 -0.4987
   91MOL0     C12181  12.249   0.067   1.445  0.3589 -0.1878 -0.8600
   91MOL0     C12182  12.139   0.095   1.537  0.1552 -0.1810  0.2204
   91MOL0     C12183  12.043  -0.010   1.570  0.2840 -0.3108 -0.4989
   91MOL0     C12184  12.056  -0.133   1.518 -0.4324  0.0018 -0.0809
   91MOL0     O12185  11.969  -0.239   1.555  0.1241  0.0209 -1.1168
   91MOL0     C12186  11.905  -0.222   1.684  0.1979 -0.6349 -0.0963
   91MOL0     C12187  11.805  -0.338   1.719 -0.2336  0.1160 -0.3008
   91MOL0     C12188  11.753  -0.338   1.865  0.3371 -0.4229  0.2909
   91MOL0     C12189  11.633  -0.433   1.886  0.8047  0.2416  0.1509
   91MOL0     C12190  11.585  -0.437   2.032  0.2229  0.2767  0.0380
   91MOL0     C12191  11.534  -0.584   2.070 -0.1959  0.1202  0.6121
   91MOL0     C12192  11.428  -0.643   1.982  0.6693 -0.9834  0.2434
   91MOL0     C12193  11.288  -0.631   2.042 -0.1790 -0.3790  0.2610
   91MOL0    Cl12194  11.272  -0.750   2.163 -0.4811 -0.1702 -0.4165
   91MOL0     C12195  12.155  -0.156   1.429  0.8103 -1.0476 -0.0300
   91MOL0     C12196  12.243  -0.061   1.387 -1.4907 -0.0157  0.0622
   91MOL0     O12197  12.466   0.160   1.592  0.2519  0.8410  0.1288
   91MOL0     C12198  12.659   0.343   1.492 -0.5072 -0.8727 -0.2920
   91MOL0     C12199  12.751   0.430   1.428  0.6846  0.2383  0.2206
   91MOL0     N12200  12.484   0.914   1.441  0.0262  0.2340  0.5064
   91MOL0     N12201  12.425   0.846   1.530  0.6233 -0.9444 -0.5099
   91MOL0     C12202  11.400   0.337   1.477  0.1223 -0.2788 -0.5285
   91MOL0     C12203  11.296   0.256   1.523 -0.0338 -0.1798  0.0804
   91MOL0     C12204  10.871   0.097   1.618 -0.0700  0.7980  0.4160
   91MOL0     C12205  10.890   0.061   1.752  0.1541  0.5705 -0.3789
   91MOL0     C12206  10.806  -0.013   1.834 -0.3560 -0.0190  0.2030
   91MOL0     C12207  10.683  -0.058   1.783 -0.1011 -0.1871 -0.2709
   91MOL0     O12208  10.593  -0.130   1.850 -0.1190  0.3690 -0.3592
   91MOL0     C12209  10.642  -0.259   1.895 -0.2773  0.1830  0.1710
   91MOL0     C12210  10.547  -0.376   1.903 -0.7957  0.0060  0.5838
   91MOL0     C12211  10.445  -0.355   2.011  0.2648 -0.6982  0.0963
   91MOL0     C12212  10.343  -0.455   2.027 -0.1718  0.4365 -0.1126
   91MOL0     C12213  10.270  -0.441   2.156  0.4179  0.0867  0.1061
   91MOL0     C12214  10.208  -0.434   2.261 -0.2096 -0.8483 -0.0264
   91MOL0     C12215  10.657  -0.020   1.651 -0.1216 -0.3994  0.3763
   91MOL0     C12216  10.747   0.051   1.565  0.8934 -0.7498 -0.5968
   91MOL0     C12217  10.686   0.102   1.440 -0.3548 -0.2412  0.5270
   91MOL0     H12218  11.057   0.486   1.585 -0.3740  0.6319 -1.2133
   91MOL0     H12219  11.256   0.639   1.500  1.6533 -0.1972 -2.7134
   91MOL0     H12220  11.608   0.737   1.454  0.6248  0.7680  1.6990
   91MOL0     H12221  11.456   0.736   1.522  2.5035  2.6146 -0.1868
   91MOL0     H12222  11.531   0.555   1.684 -1.3618  1.9633  0.9712
   91MOL0     H12223  11.622   0.711   1.690 -0.5760  1.9998 -1.5140
   91MOL0     H12224  11.720   0.481   1.516 -0.9903  0.8828  0.4466
   91MOL0     H12225  11.759   0.483   1.677 -1.1971  0.3644  0.8435
   91MOL0     H12226  11.837   0.708   1.481 -2.9122  0.1864  1.5382
   91MOL0     H12227  11.883   0.704   1.649  3.8781 -0.2928  0.8925
   91MOL0     H12228  12.008   0.470   1.569 -0.1956  0.3019 -0.5727
   91MOL0     H12229  11.971   0.531   1.412  0.8383  0.0198 -0.3339
   91MOL0     H12230  12.120   0.718   1.455  0.9063 -0.2863  0.4069
   91MOL0     H12231  12.124   0.671   1.633  2.6318 -1.3485  0.2394
   91MOL0     H12232  12.259   0.542   1.397 -1.8120  3.7630 -0.1117
   91MOL0     H12233  12.224   0.449   1.552 -0.2605  0.8601  2.4570
   91MOL0     H12234  12.362   0.633   1.671  1.0598  0.5486 -0.9958
   91MOL0     H12235  12.449   0.523   1.565 -0.8763 -0.1466  0.7931
   91MOL0     H12236  12.471   0.623   1.303 -0.0006 -0.0693  1.6736
   91MOL0     H12237  12.583   0.788   1.134 -0.2560  0.3347 -0.7059
   91MOL0     H12238  12.581   0.960   1.182  1.6121  0.6714  0.6055
   91MOL0     H12239  12.798   0.920   1.296  2.4672 -0.2707 -1.0700
   91MOL0     H12240  12.763   0.758   1.334  0.9565  0.2249 -0.2230
   91MOL0     H12241  12.948   0.777   1.197  0.3714  0.2919 -0.0383
   91MOL0     H12242  12.854   0.829   1.062  0.0576 -1.5718 -1.1424
   91MOL0     H12243  12.906   0.601   1.034 -2.7831  0.8340 -1.5919
   91MOL0     H12244  12.730   0.604   1.057 -0.7327 -3.1812  1.3686
   91MOL0     H12245  12.602   0.452   1.128  1.1542 -1.4425 -0.2063
   91MOL0     H12246  12.441   0.305   1.238 -0.0914  3.1520 -1.3428
   91MOL0     H12247  12.135   0.193   1.582  2.5868 -0.6953  1.7478
   91MOL0     H12248  11.969   0.028   1.640  2.4155 -0.6695  2.0862
   91MOL0     H12249  11.982  -0.237   1.761  0.1014 -3.9379 -0.5061
   91MOL0     H12250  11.852  -0.127   1.699 -1.5320 -1.7719  1.4702
   91MOL0     H12251  11.720  -0.342   1.651 -0.4030 -2.8963 -0.0795
   91MOL0     H12252  11.858  -0.434   1.718  0.3210  0.2753  3.0027
   91MOL0     H12253  11.831  -0.367   1.936  1.1031 -1.2106 -0.8380
   91MOL0     H12254  11.725  -0.236   1.893 -0.4271  0.3511 -2.9013
   91MOL0     H12255  11.662  -0.534   1.856  0.9072 -0.2488  1.8328
   91MOL0     H12256  11.550  -0.404   1.821  1.0076  2.3185  0.7588
   91MOL0     H12257  11.500  -0.368   2.039  0.1589  0.2538 -0.4594
   91MOL0     H12258  11.666  -0.408   2.099 -1.2092  2.2014  1.0339
   91MOL0     H12259  11.629  -0.634   2.051  0.7572  2.3529 -0.8379
   91MOL0     H12260  11.508  -0.599   2.175 -3.3433 -0.6558 -0.1753
   91MOL0     H12261  11.460  -0.747   1.971  5.1421  0.0433  1.4574
   91MOL0     H12262  11.411  -0.596   1.884  0.5827 -3.2234 -0.8771
   91MOL0     H12263  11.266  -0.530   2.076 -4.1630 -1.1246  0.4290
   91MOL0     H12264  11.224  -0.652   1.956  1.3713  1.9862 -1.5891
   91MOL0     H12265  12.183  -0.254   1.392  1.9263 -1.3598  1.5177
   91MOL0     H12266  12.319  -0.090   1.315 -0.0212 -2.0357  2.2450
   91MOL0     H12267  12.676   0.316   1.596 -0.3598  0.2520 -0.0185
   91MOL0     H12268  12.846   0.453   1.476  0.0131  1.0318  1.2070
   91MOL0     H12269  11.494   0.297   1.442 -0.3421  0.2534 -2.4821
   91MOL0     H12270  11.316   0.149   1.517 -1.1337 -0.4553  1.0116
   91MOL0     H12271  10.978   0.096   1.805 -0.7167  3.1373 -0.4447
   91MOL0     H12272  10.824  -0.026   1.940 -1.2537  0.2145  0.3985
   91MOL0     H12273  10.680  -0.250   1.996 -1.2032 -1.0608  0.6507
   91MOL0     H12274  10.730  -0.290   1.838  0.0094  0.1554  0.6353
   91MOL0     H12275  10.611  -0.462   1.922  1.9064  1.2413 -1.9003
   91MOL0     H12276  10.498  -0.383   1.805 -0.8722  1.0296  0.5336
   91MOL0     H12277  10.396  -0.257   2.015  1.3428 -0.1297 -0.2549
   91MOL0     H12278  10.510  -0.355   2.100 -0.2344  2.1583  0.5708
   91MOL0     H12279  10.262  -0.439   1.956 -1.7249 -0.4319  1.3714
   91MOL0     H12280  10.387  -0.555   2.027 -0.5078  0.2003  2.4769
   91MOL0     H12281  10.155  -0.435   2.354  1.1924 -1.8431  0.7971
   91MOL0     H12282  10.563  -0.052   1.608 -0.2637  0.7843 -0.2198
   91MOL0     H12283  10.585   0.139   1.455  0.2909  1.6207  0.5435
   91MOL0     H12284  10.739   0.182   1.387  0.2598  0.9380  2.7873
   91MOL0     H12285  10.686   0.013   1.376 -1.4296 -0.5946  0.9976
   92MOL0     O12286   8.599   2.855   5.553 -0.2388 -0.0639 -0.4029
   92MOL0     C12287   8.597   2.913   5.445  0.6295 -0.8978 -0.4386
   92MOL0     O12288   8.686   2.995   5.395 -0.3063 -0.3052  0.0436
   92MOL0     C12289   8.789   3.054   5.471  0.2840 -0.8643 -0.0489
   92MOL0     C12290   8.893   3.116   5.402 -0.1528  0.1516  0.3013
   92MOL0     C12291   8.994   3.176   5.475 -0.2376 -0.1252 -0.2957
   92MOL0     C12292   8.998   3.173   5.615 -0.3183  0.7146  0.0523
   92MOL0     O12293   9.099   3.216   5.694  0.0460  0.3391  0.3207
   92MOL0     C12294   9.193   3.309   5.635 -0.3395 -1.1237 -0.3058
   92MOL0     C12295   9.310   3.345   5.735 -0.1954 -0.6165  0.8567
   92MOL0     C12296   9.440   3.381   5.664  0.0448 -0.1329  0.4783
   92MOL0     C12297   9.410   3.489   5.552 -0.4524  0.4198 -1.2652
   92MOL0     C12298   9.524   3.520   5.472  0.1334 -0.1852 -0.5819
   92MOL0     C12299   9.532   3.423   5.352  0.1384  0.2742  0.1208
   92MOL0     C12300   9.670   3.423   5.284  0.0050  0.4830 -0.0673
   92MOL0     C12301   9.680   3.348   5.153  0.3455  0.0244 -0.4678
   92MOL0     N12302   9.826   3.353   5.131 -0.1607 -0.9594 -0.0023
   92MOL0     C12303   9.920   3.254   5.172 -0.1484 -0.2055 -1.2904
   92MOL0     C12304  10.047   3.306   5.145  0.1051 -0.6589  0.4757
   92MOL0     C12305  10.170   3.232   5.165 -1.1386  0.4289  0.4764
   92MOL0     C12306  10.297   3.322   5.180  0.5409  0.2405  0.3271
   92MOL0     C12307  10.297   3.361   5.329 -0.2004 -0.3666 -0.1047
   92MOL0     C12308  10.428   3.437   5.378  1.0653  0.0044  0.2542
   92MOL0     O12309  10.552   3.376   5.352  0.5111  0.4610 -0.5432
   92MOL0     C12310  10.667   3.448   5.372  0.2520 -0.4094  0.0847
   92MOL0     C12311  10.681   3.547   5.470  0.8070 -0.0433  0.1833
   92MOL0     C12312  10.796   3.619   5.488  0.5819  0.2246  0.1669
   92MOL0     C12313  10.917   3.582   5.430 -0.8471  1.0745  0.2215
   92MOL0     C12314  11.050   3.646   5.444  0.0775  0.6570  0.3353
   92MOL0     O12315  11.160   3.586   5.399 -0.2172 -0.1389 -0.3006
   92MOL0     C12316  11.272   3.669   5.384  0.5039  0.1311 -0.2034
   92MOL0     C12317  11.278   3.750   5.265  1.6760 -0.6968 -0.5922
   92MOL0     C12318  11.395   3.809   5.232  0.0247 -0.1927  0.4065
   92MOL0     C12319  11.511   3.794   5.307 -0.3021  0.2156 -0.6144
   92MOL0     O12320  11.627   3.854   5.276  0.6261  0.7970  0.4712
   92MOL0     C12321  11.620   3.978   5.201  0.1224  0.3749 -0.8432
   92MOL0     C12322  11.556   4.087   5.290 -0.6313 -0.0711  0.6869
   92MOL0     C12323  11.594   4.222   5.224 -0.2156 -0.4717 -0.2160
   92MOL0     C12324  11.523   4.343   5.289  0.2816  0.1510 -0.2879
   92MOL0     C12325  11.619   4.462   5.320 -0.9202 -0.2308  0.2053
   92MOL0     C12326  11.671   4.536   5.187 -0.2203  1.0563  0.2543
   92MOL0     C12327  11.790   4.638   5.199  1.1084  0.3043 -0.1316
   92MOL0     C12328  11.883   4.624   5.073  0.3163 -0.4672 -0.5489
   92MOL0    Cl12329  11.987   4.771   5.087  0.1647 -0.1727  0.0288
   92MOL0     C12330  11.502   3.722   5.430  0.0165 -0.0909 -0.8340
   92MOL0     C12331  11.380   3.664   5.462  0.3193  0.3119 -0.6112
   92MOL0     O12332  11.045   3.749   5.508 -0.1965 -0.9718 -0.0802
   92MOL0     C12333  10.905   3.481   5.331 -0.5836 -0.0145 -0.3995
   92MOL0     C12334  10.785   3.420   5.300 -0.3128  0.2823 -0.4076
   92MOL0     N12335  10.031   3.438   5.087 -1.1062  0.0837  0.0569
   92MOL0     N12336   9.902   3.460   5.080  0.8256 -0.2103  0.5531
   92MOL0     C12337   8.893   3.111   5.677  0.2355 -0.3316  0.1869
   92MOL0     C12338   8.786   3.053   5.610  0.6379  0.2557  0.1216
   92MOL0     C12339   8.469   2.877   5.367 -0.0264 -0.6330  0.2121
   92MOL0     C12340   8.371   2.813   5.437 -0.0231 -0.3513 -0.0794
   92MOL0     C12341   8.252   2.772   5.376 -0.3888  0.0988 -0.5113
   92MOL0     C12342   8.223   2.795   5.245 -0.0845  0.8368 -0.1951
   92MOL0     O12343   8.106   2.747   5.183  0.1330 -0.2785 -0.2837
   92MOL0     C12344   8.049   2.634   5.231 -0.1371  0.3686  0.8483
   92MOL0     C12345   7.936   2.582   5.127 -0.3286 -0.7123  0.8034
   92MOL0     C12346   7.941   2.437   5.110  0.8007  0.8372 -0.1444
   92MOL0     C12347   7.845   2.402   5.000  0.3738 -0.0191 -0.4949
   92MOL0     C12348   7.889   2.421   4.862  0.4444  0.0599 -0.4140
   92MOL0     C12349   7.924   2.435   4.744 -0.3289  0.1066 -0.0336
   92MOL0     C12350   8.323   2.869   5.170  0.0403 -1.1185 -0.0258
   92MOL0     C12351   8.445   2.907   5.229 -0.0142 -0.3943 -0.0658
   92MOL0     C12352   8.549   2.962   5.129 -0.5420 -0.4065  0.0277
   92MOL0     H12353   8.892   3.110   5.294 -1.9543 -2.3764  0.3544
   92MOL0     H12354   9.060   3.229   5.407 -1.0426  1.6373  0.2316
   92MOL0     H12355   9.243   3.262   5.549  2.7968  0.0829  0.7015
   92MOL0     H12356   9.145   3.406   5.625  0.6789 -0.4218  1.1934
   92MOL0     H12357   9.327   3.263   5.805  0.8172 -0.5802  0.6632
   92MOL0     H12358   9.286   3.428   5.802  3.7840  0.8179  0.7768
   92MOL0     H12359   9.480   3.292   5.616 -2.2621  0.3014 -2.5258
   92MOL0     H12360   9.508   3.420   5.740  0.0437 -1.4825  1.1936
   92MOL0     H12361   9.328   3.454   5.489 -0.3858 -2.8987  0.2946
   92MOL0     H12362   9.369   3.582   5.592 -1.8330  0.4066 -2.5525
   92MOL0     H12363   9.507   3.617   5.424 -3.3027 -1.3503 -1.9971
   92MOL0     H12364   9.607   3.511   5.543 -1.6555  1.3533  1.8373
   92MOL0     H12365   9.503   3.318   5.365 -0.3059  0.4763  0.8077
   92MOL0     H12366   9.459   3.464   5.282  2.3728  3.0880 -0.7426
   92MOL0     H12367   9.738   3.384   5.360 -0.5700 -0.7315 -0.1589
   92MOL0     H12368   9.701   3.524   5.256 -0.1172  0.7085  0.5863
   92MOL0     H12369   9.649   3.243   5.156  1.1285 -0.1807  1.2938
   92MOL0     H12370   9.632   3.406   5.074 -0.3525  1.1328  0.7434
   92MOL0     H12371   9.899   3.163   5.227 -0.7425  1.0904  0.7229
   92MOL0     H12372  10.158   3.171   5.254  0.7789 -0.2907  0.2937
   92MOL0     H12373  10.175   3.172   5.074 -1.2652  1.0017  0.0821
   92MOL0     H12374  10.384   3.268   5.142  0.0694  1.6973 -3.1844
   92MOL0     H12375  10.295   3.410   5.116  0.7031  0.6927  0.9299
   92MOL0     H12376  10.302   3.261   5.374  1.6362 -0.7421 -1.0261
   92MOL0     H12377  10.211   3.421   5.360  0.3924 -1.2362  3.7752
   92MOL0     H12378  10.426   3.469   5.482  1.6814 -0.0313  0.2762
   92MOL0     H12379  10.419   3.522   5.310  1.2773 -1.0712 -1.1786
   92MOL0     H12380  10.597   3.586   5.526  1.0492  2.4938 -1.0697
   92MOL0     H12381  10.796   3.697   5.563 -0.7882 -0.9640  1.4409
   92MOL0     H12382  11.191   3.762   5.201  0.0626  1.0873  1.7888
   92MOL0     H12383  11.398   3.869   5.142  0.5620 -2.2957 -1.0546
   92MOL0     H12384  11.720   4.014   5.173 -0.2539  0.9527 -1.5056
   92MOL0     H12385  11.579   3.966   5.100  3.6471  1.2995 -2.5662
   92MOL0     H12386  11.447   4.080   5.292 -0.7197 -0.5045 -2.0840
   92MOL0     H12387  11.596   4.090   5.392 -0.8116 -2.8118  0.8929
   92MOL0     H12388  11.702   4.235   5.234  0.2585 -2.3743 -2.1277
   92MOL0     H12389  11.575   4.217   5.116 -0.8991  1.2916 -0.1980
   92MOL0     H12390  11.482   4.310   5.385 -0.0578  2.0815  0.2634
   92MOL0     H12391  11.438   4.357   5.222 -0.3164  1.6144  0.7342
   92MOL0     H12392  11.699   4.427   5.386 -1.5718  0.5901  1.4566
   92MOL0     H12393  11.567   4.542   5.372 -0.5926  0.8850 -1.1324
   92MOL0     H12394  11.711   4.455   5.126  1.0362  0.3991  1.8781
   92MOL0     H12395  11.581   4.576   5.139 -1.0382 -1.2351 -0.2246
   92MOL0     H12396  11.846   4.620   5.291  0.2726  0.1847  0.3701
   92MOL0     H12397  11.754   4.741   5.204  2.1583  0.6674  0.3590
   92MOL0     H12398  11.936   4.528   5.075 -1.0446 -1.2605  2.2007
   92MOL0     H12399  11.823   4.633   4.982 -1.0365 -0.1098  0.3405
   92MOL0     H12400  11.579   3.720   5.507 -1.9599  0.9902  1.3041
   92MOL0     H12401  11.376   3.610   5.556  2.1852  1.1792  0.0050
   92MOL0     H12402  10.996   3.463   5.275 -0.2377 -1.1608  0.4915
   92MOL0     H12403  10.768   3.347   5.221 -0.2830  1.4479 -1.5116
   92MOL0     H12404   8.880   3.102   5.785  2.2469 -3.4407  0.3115
   92MOL0     H12405   8.716   3.006   5.678  0.1407  0.4636 -0.2410
   92MOL0     H12406   8.368   2.800   5.545 -0.7923 -1.1044 -0.1761
   92MOL0     H12407   8.179   2.714   5.432  0.0468 -1.5169 -1.5408
   92MOL0     H12408   7.996   2.646   5.326  2.9189  0.6826  2.6502
   92MOL0     H12409   8.122   2.553   5.234  1.9287  2.0822 -0.1556
   92MOL0     H12410   7.957   2.637   5.035 -2.0550  1.0562  1.4115
   92MOL0     H12411   7.835   2.615   5.154  0.0256 -0.1654  1.4945
   92MOL0     H12412   7.906   2.389   5.202  0.9198 -1.3763 -1.1667
   92MOL0     H12413   8.041   2.402   5.085  0.2221  0.5712 -2.3111
   92MOL0     H12414   7.820   2.296   5.012 -0.1378  0.4548  4.8863
   92MOL0     H12415   7.743   2.442   5.013  0.7977  2.0866 -2.7213
   92MOL0     H12416   7.950   2.458   4.643  0.1494 -0.0135  0.0574
   92MOL0     H12417   8.311   2.873   5.062  0.1667 -2.0332 -0.0813
   92MOL0     H12418   8.592   3.059   5.158 -0.0225 -0.0407 -1.8058
   92MOL0     H12419   8.626   2.886   5.116  1.4968  1.4393  0.6190
   92MOL0     H12420   8.508   2.967   5.027  0.8821 -2.0188 -0.6692
   93MOL0     O12421   2.086   7.185   6.659  0.0054  0.6687  0.2791
   93MOL0     C12422   2.027   7.222   6.557  0.6469 -0.1001  0.2318
   93MOL0     O12423   1.895   7.244   6.541  0.1652 -0.8939 -0.3185
   93MOL0     C12424   1.800   7.192   6.628 -0.0510  0.3325  0.0079
   93MOL0     C12425   1.813   7.103   6.735 -1.0416  0.4679  0.2172
   93MOL0     C12426   1.707   7.083   6.826 -0.7890  0.3352  0.0489
   93MOL0     C12427   1.583   7.143   6.803 -0.6190 -0.0934 -0.0118
   93MOL0     O12428   1.484   7.110   6.891  0.2872  0.3463 -0.4593
   93MOL0     C12429   1.354   7.077   6.841  0.2862  0.9357  0.1914
   93MOL0     C12430   1.247   7.080   6.953 -0.5964  0.0099 -0.6339
   93MOL0     C12431   1.107   7.120   6.906 -0.7055  0.1897 -0.3243
   93MOL0     C12432   1.028   7.012   6.846  0.4542 -0.1773 -0.3808
   93MOL0     C12433   0.891   7.047   6.805  0.1202 -0.5787  0.2349
   93MOL0     C12434   0.806   6.941   6.759 -0.4056  0.7794  0.7893
   93MOL0     C12435   0.823   6.902   6.608 -0.1924  0.5201 -0.5727
   93MOL0     C12436   0.692   6.840   6.554 -0.4215 -0.0528  0.3733
   93MOL0     N12437   0.707   6.768   6.428  0.8072  0.0339  0.6825
   93MOL0     C12438   0.777   6.813   6.319  0.7393  0.4070  0.0170
   93MOL0     C12439   0.796   6.704   6.243  0.3814  0.7396 -0.0249
   93MOL0     C12440   0.870   6.683   6.106 -0.6321  0.3900 -0.0640
   93MOL0     C12441   1.023   6.686   6.104  0.2620  0.1097 -1.0438
   93MOL0     C12442   1.078   6.580   6.201 -0.0282 -0.0623  1.7793
   93MOL0     C12443   1.234   6.584   6.189  0.3542  0.2043 -0.8494
   93MOL0     O12444   1.273   6.503   6.302  0.0529  0.0636  0.1181
   93MOL0     C12445   1.411   6.492   6.309  0.3382 -0.2052  0.1396
   93MOL0     C12446   1.451   6.464   6.440  0.7188 -1.0421  1.2179
   93MOL0     C12447   1.588   6.446   6.475 -0.0443 -0.6277 -0.0020
   93MOL0     C12448   1.687   6.465   6.374 -0.0427 -0.3477 -0.4714
   93MOL0     C12449   1.830   6.440   6.406 -0.2457  1.1931 -0.8820
   93MOL0     O12450   1.914   6.422   6.292 -0.0162 -0.1349  0.1142
   93MOL0     C12451   2.047   6.395   6.319 -0.3781  0.5106  0.0752
   93MOL0     C12452   2.124   6.465   6.408 -0.9600  0.8036  0.9268
   93MOL0     C12453   2.261   6.431   6.417 -0.3439  0.8438  0.1878
   93MOL0     C12454   2.319   6.323   6.339 -0.2245 -0.4489 -0.1246
   93MOL0     O12455   2.447   6.295   6.377 -0.7237  0.7678 -0.5376
   93MOL0     C12456   2.519   6.185   6.314  0.0900 -0.0035  0.2641
   93MOL0     C12457   2.565   6.232   6.172 -0.8561 -0.0837  0.4583
   93MOL0     C12458   2.671   6.337   6.171 -0.1150  0.0711 -0.3294
   93MOL0     C12459   2.805   6.288   6.234  0.1927 -0.0355  0.2288
   93MOL0     C12460   2.913   6.396   6.222 -0.7413  0.5663  0.5311
   93MOL0     C12461   2.993   6.386   6.093 -0.5287  0.0839  0.5328
   93MOL0     C12462   3.117   6.477   6.086 -0.4736 -0.9620 -0.1916
   93MOL0     C12463   3.219   6.466   6.209 -0.0631  0.9138  0.2879
   93MOL0    Cl12464   3.259   6.300   6.254 -0.1516 -0.2990  0.3043
   93MOL0     C12465   2.239   6.251   6.251  0.5644 -1.0665  0.5110
   93MOL0     C12466   2.105   6.288   6.238 -0.5545 -0.5700 -0.7719
   93MOL0     O12467   1.868   6.427   6.524  0.3507 -0.0725  0.5142
   93MOL0     C12468   1.641   6.518   6.247  0.1771  0.5316 -0.5825
   93MOL0     C12469   1.508   6.528   6.215  0.3472 -0.6779  0.7165
   93MOL0     N12470   0.728   6.598   6.297  0.5515 -0.2289 -0.0218
   93MOL0     N12471   0.686   6.638   6.416 -0.0518  0.7140  0.6202
   93MOL0     C12472   1.563   7.224   6.693  0.5664  0.4938  0.1259
   93MOL0     C12473   1.671   7.249   6.611 -1.2508 -0.2229  0.7994
   93MOL0     C12474   2.118   7.263   6.440 -0.2213  0.4226  0.2867
   93MOL0     C12475   2.055   7.333   6.334  0.4431  0.0207  0.0144
   93MOL0     C12476   2.133   7.374   6.228 -0.4390  0.3497 -0.2710
   93MOL0     C12477   2.272   7.353   6.228 -0.2629  0.6013  0.3068
   93MOL0     O12478   2.359   7.390   6.126  0.4397  0.4008 -0.4513
   93MOL0     C12479   2.308   7.434   6.001 -0.2520  1.1215 -0.5245
   93MOL0     C12480   2.418   7.447   5.885 -0.7077  1.0496  0.1734
   93MOL0     C12481   2.550   7.508   5.928  0.5877  1.3384 -1.6037
   93MOL0     C12482   2.633   7.520   5.798 -0.1301 -0.1256  0.1006
   93MOL0     C12483   2.763   7.588   5.814 -0.2266  0.9031 -0.6683
   93MOL0     C12484   2.865   7.629   5.854  0.0289 -0.0011  0.2721
   93MOL0     C12485   2.332   7.283   6.332  0.0152  0.0271 -0.0481
   93MOL0     C12486   2.255   7.242   6.440  0.6568  0.3151 -0.0902
   93MOL0     C12487   2.336   7.183   6.554  0.0060  0.2996  0.0272
   93MOL0     H12488   1.913   7.064   6.750 -0.6381  0.9553 -1.0475
   93MOL0     H12489   1.732   7.026   6.915 -0.2736  1.1984  0.4623
   93MOL0     H12490   1.314   7.163   6.786  0.4836  1.6884  1.1922
   93MOL0     H12491   1.351   6.984   6.784 -0.1024  1.1502 -0.1483
   93MOL0     H12492   1.284   7.154   7.024  1.5858 -2.8585  1.4432
   93MOL0     H12493   1.234   6.982   6.999 -0.9634 -1.0523 -2.8624
   93MOL0     H12494   1.119   7.195   6.828  0.7980 -1.6013 -1.9201
   93MOL0     H12495   1.056   7.163   6.993 -0.0215 -0.7893  0.6013
   93MOL0     H12496   1.086   6.984   6.758 -0.8730 -2.5061 -0.5773
   93MOL0     H12497   1.026   6.927   6.915  0.6273  0.7146  0.7556
   93MOL0     H12498   0.841   7.104   6.884 -0.7771 -1.2658  0.1770
   93MOL0     H12499   0.901   7.122   6.726 -0.7068  0.3109  0.9529
   93MOL0     H12500   0.810   6.857   6.829 -0.6489  0.3511  0.2960
   93MOL0     H12501   0.701   6.974   6.764 -0.9952 -0.9073  0.3894
   93MOL0     H12502   0.901   6.825   6.604 -0.0773  0.6629 -1.3641
   93MOL0     H12503   0.864   6.984   6.548 -1.4534  1.2530 -0.4681
   93MOL0     H12504   0.656   6.764   6.623  0.6734  0.1687  1.2312
   93MOL0     H12505   0.606   6.908   6.548 -1.4734 -1.1520  2.2700
   93MOL0     H12506   0.818   6.911   6.296 -1.5762  2.0282  2.2942
   93MOL0     H12507   0.840   6.582   6.078  1.6987 -0.2765 -0.4040
   93MOL0     H12508   0.835   6.760   6.037 -2.1908 -3.1844 -3.7252
   93MOL0     H12509   1.046   6.655   6.001  0.9648  1.5299 -1.3279
   93MOL0     H12510   1.069   6.783   6.119 -0.8855  0.6916 -1.1706
   93MOL0     H12511   1.043   6.484   6.162  1.0925  0.7759 -1.6570
   93MOL0     H12512   1.036   6.604   6.299 -2.0509  2.4616  0.4192
   93MOL0     H12513   1.276   6.685   6.199 -1.4711  0.9909 -0.5328
   93MOL0     H12514   1.276   6.542   6.098  2.0301  0.4618 -0.2196
   93MOL0     H12515   1.381   6.457   6.523 -1.9678  1.8414 -0.5768
   93MOL0     H12516   1.619   6.410   6.573 -2.8941 -1.0711  0.8307
   93MOL0     H12517   2.074   6.540   6.468 -1.6854  0.3053  0.9620
   93MOL0     H12518   2.319   6.482   6.493 -3.2662  3.8911  0.5847
   93MOL0     H12519   2.608   6.149   6.367  0.6855  0.5691 -0.3393
   93MOL0     H12520   2.458   6.095   6.300 -0.5358  0.7808 -2.6311
   93MOL0     H12521   2.599   6.142   6.120  2.3493  0.3809  1.5688
   93MOL0     H12522   2.485   6.277   6.112  0.7476 -0.2834 -1.9597
   93MOL0     H12523   2.682   6.360   6.065  0.3488 -1.7861 -0.7070
   93MOL0     H12524   2.650   6.429   6.227  2.0525  0.9976 -0.9251
   93MOL0     H12525   2.839   6.188   6.206  1.3817 -0.1649  2.0315
   93MOL0     H12526   2.781   6.291   6.341  0.1056 -0.4699  0.2227
   93MOL0     H12527   2.972   6.360   6.307 -0.5462  0.3131  0.2920
   93MOL0     H12528   2.884   6.498   6.248  2.3054  1.4336  0.8874
   93MOL0     H12529   3.018   6.281   6.078  0.8714  0.1539  2.0598
   93MOL0     H12530   2.935   6.411   6.004  1.3370 -0.1900 -0.8185
   93MOL0     H12531   3.084   6.581   6.094 -4.0713 -2.0488  1.2668
   93MOL0     H12532   3.171   6.462   5.992  1.3012 -0.2698  0.6695
   93MOL0     H12533   3.311   6.524   6.198  0.7233  0.0593  1.9996
   93MOL0     H12534   3.168   6.509   6.296 -0.4070  0.4859  0.3000
   93MOL0     H12535   2.274   6.165   6.194  0.5671 -1.2952  0.8565
   93MOL0     H12536   2.038   6.233   6.172  0.3318 -1.7550 -0.6973
   93MOL0     H12537   1.722   6.541   6.178  1.5638 -1.2484  0.3761
   93MOL0     H12538   1.483   6.559   6.114 -0.3490 -1.1948  0.7219
   93MOL0     H12539   1.465   7.265   6.670 -0.0819 -0.5455  0.9441
   93MOL0     H12540   1.657   7.325   6.535  0.0396  0.0604  0.8157
   93MOL0     H12541   1.947   7.335   6.325  0.3625 -1.7168  0.3297
   93MOL0     H12542   2.083   7.427   6.147 -0.1780  2.6976  0.9986
   93MOL0     H12543   2.268   7.532   6.031  1.6559  1.5157  0.9671
   93MOL0     H12544   2.230   7.366   5.966  1.9324 -2.7700  1.5059
   93MOL0     H12545   2.376   7.497   5.797 -0.2201  0.3980 -0.4350
   93MOL0     H12546   2.453   7.350   5.848 -0.3451  1.7713 -1.4798
   93MOL0     H12547   2.607   7.447   5.999 -1.2582  1.0345 -0.3146
   93MOL0     H12548   2.528   7.601   5.983 -0.8327 -0.1771  0.5798
   93MOL0     H12549   2.644   7.422   5.751  1.1004 -0.3932  0.8970
   93MOL0     H12550   2.575   7.586   5.732 -1.5318 -2.5586 -1.2442
   93MOL0     H12551   2.966   7.645   5.889  0.8295  1.1840 -2.3463
   93MOL0     H12552   2.436   7.255   6.319 -0.0264  0.0118 -0.3451
   93MOL0     H12553   2.298   7.083   6.573 -2.1807  1.4475  2.3915
   93MOL0     H12554   2.443   7.171   6.535  0.3108  0.1043  1.7012
   93MOL0     H12555   2.338   7.244   6.646  1.0656 -1.5161  1.2803
   94MOL0     O12556   8.715   2.979   3.934 -0.1279 -0.4512 -0.4289
   94MOL0     C12557   8.757   2.874   3.879  0.4056  0.2613  0.5276
   94MOL0     O12558   8.889   2.838   3.875  0.5633  0.4008  0.5606
   94MOL0     C12559   8.985   2.908   3.946  0.5310 -0.2210  0.3872
   94MOL0     C12560   8.975   2.978   4.066  0.7903 -0.4147 -0.6259
   94MOL0     C12561   9.092   3.029   4.129 -0.9630 -0.9110  0.9001
   94MOL0     C12562   9.218   3.016   4.067 -0.0414  0.3694 -0.1379
   94MOL0     O12563   9.332   3.063   4.124  0.4370  0.2591 -0.0505
   94MOL0     C12564   9.313   3.193   4.183 -0.3607  0.8670  0.4483
   94MOL0     C12565   9.450   3.266   4.174 -0.2957 -0.7353  0.2507
   94MOL0     C12566   9.464   3.342   4.033 -0.1692 -0.0286 -0.1909
   94MOL0     C12567   9.603   3.421   4.043 -0.6792 -0.7157  0.1472
   94MOL0     C12568   9.651   3.482   3.905  0.2231  0.1476 -0.2071
   94MOL0     C12569   9.716   3.376   3.819  0.0578 -0.2674  0.1317
   94MOL0     C12570   9.760   3.427   3.682  0.3221 -0.0410  1.2364
   94MOL0     C12571   9.831   3.328   3.590  0.0154 -0.2216  0.2216
   94MOL0     N12572   9.963   3.312   3.623 -0.2478 -0.4925  0.3348
   94MOL0     C12573  10.015   3.233   3.718  0.1119  0.2522  1.0279
   94MOL0     C12574  10.152   3.237   3.704 -0.3242  0.4403 -0.1792
   94MOL0     C12575  10.257   3.166   3.787 -0.5354  0.2068  0.6663
   94MOL0     C12576  10.382   3.250   3.805 -0.1862 -1.0053 -0.1482
   94MOL0     C12577  10.482   3.249   3.690 -0.4763 -0.1600  0.1303
   94MOL0     C12578  10.576   3.372   3.696 -0.4209 -0.2350 -0.5546
   94MOL0     O12579  10.682   3.367   3.600  0.2816 -0.0705  0.0787
   94MOL0     C12580  10.806   3.315   3.620 -0.2530 -0.0903  0.7120
   94MOL0     C12581  10.834   3.246   3.736  0.6828  0.1580  0.3288
   94MOL0     C12582  10.951   3.167   3.753  0.5100  0.0459  0.4446
   94MOL0     C12583  11.045   3.165   3.645 -0.2622 -0.7946  0.5924
   94MOL0     C12584  11.172   3.094   3.658 -0.1351 -0.3413 -0.8547
   94MOL0     O12585  11.259   3.101   3.551  0.6163  0.0260 -0.2339
   94MOL0     C12586  11.383   3.041   3.569  0.5527 -0.5209 -0.1715
   94MOL0     C12587  11.491   3.117   3.594  0.0645  0.0498  0.4371
   94MOL0     C12588  11.612   3.050   3.620 -0.0196  0.2371 -0.3298
   94MOL0     C12589  11.623   2.912   3.602  0.5334 -0.2479  0.4819
   94MOL0     O12590  11.745   2.851   3.625  0.6523  0.4792 -0.1256
   94MOL0     C12591  11.808   2.873   3.752 -0.4950  0.4278  0.2067
   94MOL0     C12592  11.734   2.832   3.875  1.2103 -0.2845  0.2451
   94MOL0     C12593  11.714   2.683   3.877 -0.2637  0.3187 -0.0058
   94MOL0     C12594  11.677   2.633   4.018  0.4636  0.2421  0.7049
   94MOL0     C12595  11.522   2.650   4.040  0.3353 -0.3481 -0.7143
   94MOL0     C12596  11.436   2.523   4.025 -0.0548 -0.4867 -0.4145
   94MOL0     C12597  11.290   2.552   4.045 -0.8593  0.2455 -0.4725
   94MOL0     C12598  11.191   2.439   4.006 -0.5645 -0.8787  0.2017
   94MOL0    Cl12599  11.028   2.492   4.064 -0.0689  0.1850  0.1947
   94MOL0     C12600  11.506   2.835   3.561 -0.6631 -0.2546  0.5242
   94MOL0     C12601  11.388   2.901   3.547 -0.0542  0.3383  0.6574
   94MOL0     O12602  11.197   3.040   3.770  0.0874 -0.1578  0.7581
   94MOL0     C12603  11.013   3.238   3.523  0.2983 -0.8201  0.7105
   94MOL0     C12604  10.892   3.309   3.506 -0.6388 -0.1035  0.9555
   94MOL0     N12605  10.171   3.339   3.614 -0.8415  0.2186 -0.6018
   94MOL0     N12606  10.061   3.388   3.564 -0.1396 -0.0497 -0.7704
   94MOL0     C12607   9.222   2.947   3.947  0.0861 -0.1224 -0.3688
   94MOL0     C12608   9.112   2.899   3.881 -0.4079 -0.5748  0.3426
   94MOL0     C12609   8.655   2.788   3.807 -0.1536 -0.5239 -0.3189
   94MOL0     C12610   8.546   2.858   3.756 -0.0514  0.2136  1.0318
   94MOL0     C12611   8.445   2.797   3.685  0.2519  0.0010  0.3743
   94MOL0     C12612   8.455   2.656   3.648  0.2957 -0.8712  0.1031
   94MOL0     O12613   8.374   2.592   3.569  0.0584  0.8388 -0.3084
   94MOL0     C12614   8.235   2.630   3.587 -0.2336  0.8558 -0.2455
   94MOL0     C12615   8.140   2.511   3.566 -1.0588  0.5973  0.3594
   94MOL0     C12616   8.001   2.563   3.531 -0.7898  0.3322 -0.5146
   94MOL0     C12617   7.892   2.459   3.494 -0.3601 -1.1332  0.1403
   94MOL0     C12618   7.769   2.518   3.444  0.2923  0.4560 -0.5009
   94MOL0     C12619   7.662   2.574   3.428 -0.3141  0.1297  1.0352
   94MOL0     C12620   8.568   2.596   3.698 -0.0256 -0.4164  0.0792
   94MOL0     C12621   8.658   2.651   3.782 -0.8633  0.5632  0.7267
   94MOL0     C12622   8.767   2.565   3.844  0.7865 -0.1998 -0.0141
   94MOL0     H12623   8.881   2.987   4.120  1.7996 -0.2334  1.1937
   94MOL0     H12624   9.072   3.078   4.223 -0.0321  0.7925  0.2507
   94MOL0     H12625   9.230   3.250   4.142  0.0824  1.6080  0.5724
   94MOL0     H12626   9.288   3.184   4.289  1.2967  2.1582  0.9931
   94MOL0     H12627   9.531   3.193   4.184  0.7575  0.0737 -1.6629
   94MOL0     H12628   9.445   3.338   4.255 -2.8611 -0.7709  0.2236
   94MOL0     H12629   9.380   3.411   4.020 -0.6194 -0.6805 -0.7691
   94MOL0     H12630   9.465   3.271   3.950 -0.0345  0.4248 -0.5817
   94MOL0     H12631   9.597   3.494   4.124  1.0008 -1.8805  1.4120
   94MOL0     H12632   9.680   3.348   4.072 -1.6260 -1.9605 -0.3581
   94MOL0     H12633   9.561   3.526   3.860 -0.1265  0.2690  0.5794
   94MOL0     H12634   9.725   3.561   3.920 -0.5867  1.3816 -2.3486
   94MOL0     H12635   9.805   3.333   3.866  0.3357 -1.5359 -1.4538
   94MOL0     H12636   9.642   3.300   3.792 -1.8569  0.9787  1.6298
   94MOL0     H12637   9.819   3.519   3.686 -3.1104  2.3443  1.4201
   94MOL0     H12638   9.677   3.456   3.617  0.6830  2.4954  1.7837
   94MOL0     H12639   9.772   3.236   3.584 -0.2069 -0.0089 -1.3516
   94MOL0     H12640   9.824   3.370   3.489 -1.5831  0.1880  0.4676
   94MOL0     H12641   9.964   3.163   3.783  2.8262 -1.5191  1.4107
   94MOL0     H12642  10.218   3.151   3.888 -0.2073  0.3654  0.8179
   94MOL0     H12643  10.272   3.068   3.740 -0.7389 -0.0582  1.1448
   94MOL0     H12644  10.355   3.353   3.827  0.9303 -0.7153 -0.1172
   94MOL0     H12645  10.425   3.217   3.900  0.5239  1.5432  0.4755
   94MOL0     H12646  10.416   3.265   3.604 -0.9924 -0.0758  0.5364
   94MOL0     H12647  10.542   3.158   3.678  0.6709  0.6786 -0.7434
   94MOL0     H12648  10.625   3.371   3.794  1.1125  0.2141 -1.2852
   94MOL0     H12649  10.522   3.467   3.690 -1.8194 -0.0880  6.4132
   94MOL0     H12650  10.760   3.228   3.813  2.0913 -2.0321  1.3043
   94MOL0     H12651  10.972   3.112   3.844  3.7641 -0.9489 -0.7568
   94MOL0     H12652  11.489   3.226   3.598  0.0438  0.0361  0.8830
   94MOL0     H12653  11.696   3.117   3.636  0.5399 -1.1099  2.9705
   94MOL0     H12654  11.898   2.812   3.751  0.7946  2.2293  0.7751
   94MOL0     H12655  11.838   2.978   3.753  0.0096  0.2838  0.2387
   94MOL0     H12656  11.789   2.860   3.966 -0.3152  2.8174  0.3508
   94MOL0     H12657  11.635   2.879   3.879  0.8054 -1.1593  1.0079
   94MOL0     H12658  11.641   2.659   3.800  1.9298  1.2324 -2.5138
   94MOL0     H12659  11.809   2.634   3.855  0.0427  1.0444 -0.3328
   94MOL0     H12660  11.734   2.688   4.094  0.2196  1.3236  0.1247
   94MOL0     H12661  11.690   2.525   4.014 -0.6413  0.1352 -1.8371
   94MOL0     H12662  11.481   2.735   3.985  0.5482 -0.6298 -1.3146
   94MOL0     H12663  11.520   2.683   4.144  0.8503  0.5882 -0.9851
   94MOL0     H12664  11.456   2.473   3.930 -0.2665 -0.4323 -0.4886
   94MOL0     H12665  11.459   2.453   4.107 -0.4171  0.8279  0.8589
   94MOL0     H12666  11.253   2.642   3.995  1.5971  2.7444  1.8465
   94MOL0     H12667  11.281   2.569   4.153 -1.9827  0.6029 -0.6048
   94MOL0     H12668  11.179   2.425   3.898  0.0553 -2.3238  0.2948
   94MOL0     H12669  11.219   2.338   4.039 -0.5304 -1.4204 -1.3920
   94MOL0     H12670  11.512   2.728   3.544 -1.4169 -0.2349  0.0760
   94MOL0     H12671  11.298   2.847   3.519  0.8887 -0.1364 -1.7430
   94MOL0     H12672  11.082   3.250   3.441  0.1832 -1.3147  0.5388
   94MOL0     H12673  10.885   3.359   3.410  1.8241 -1.2781  0.0799
   94MOL0     H12674   9.320   2.939   3.899 -0.5150 -1.4173 -1.4404
   94MOL0     H12675   9.122   2.828   3.800 -1.3845 -0.0171 -0.2808
   94MOL0     H12676   8.534   2.965   3.773 -0.2530  0.5375 -0.9110
   94MOL0     H12677   8.362   2.858   3.652  0.2845 -0.6876 -1.1093
   94MOL0     H12678   8.225   2.706   3.509 -1.4084  0.6817 -0.2770
   94MOL0     H12679   8.223   2.667   3.689  1.1356 -0.7153  0.5474
   94MOL0     H12680   8.142   2.443   3.653 -2.5052  0.2273  0.1212
   94MOL0     H12681   8.177   2.456   3.479  1.3093  0.6139  1.2894
   94MOL0     H12682   8.015   2.628   3.444  0.4704 -0.3568 -0.8514
   94MOL0     H12683   7.964   2.615   3.620 -1.1636 -0.4447 -0.2084
   94MOL0     H12684   7.938   2.392   3.420  1.1686  0.3657 -0.3306
   94MOL0     H12685   7.864   2.395   3.578  0.1141  1.8383  2.7368
   94MOL0     H12686   7.573   2.633   3.421  0.6908  1.5617 -0.7578
   94MOL0     H12687   8.565   2.488   3.686  1.6573 -0.5551  0.6477
   94MOL0     H12688   8.788   2.600   3.946 -1.9965  1.1035  0.2113
   94MOL0     H12689   8.730   2.463   3.853 -1.5261  0.6585  1.1665
   94MOL0     H12690   8.858   2.576   3.784 -1.7360  2.1292 -3.9045
   95MOL0     O12691   2.483   0.265   7.670  0.3430 -0.4932 -0.1231
   95MOL0     C12692   2.452   0.382   7.640  0.3462 -0.8677  0.0329
   95MOL0     O12693   2.536   0.493   7.662 -0.0150 -0.0956  0.2079
   95MOL0     C12694   2.666   0.482   7.707 -0.0152  0.1415  0.4287
   95MOL0     C12695   2.706   0.553   7.820 -0.4598  0.0368  0.0744
   95MOL0     C12696   2.840   0.547   7.871 -0.4247 -0.0776 -1.1809
   95MOL0     C12697   2.934   0.458   7.809  0.5114  0.6213  0.1248
   95MOL0     O12698   3.063   0.457   7.838 -0.0562  0.5074 -0.4950
   95MOL0     C12699   3.082   0.390   7.963  0.1451  0.7564  0.5336
   95MOL0     C12700   3.139   0.487   8.079  0.8755 -0.0451 -0.4404
   95MOL0     C12701   3.202   0.412   8.195 -0.6381  0.4883  0.2857
   95MOL0     C12702   3.110   0.360   8.296 -0.5934 -0.1151 -0.0550
   95MOL0     C12703   3.183   0.307   8.417  0.3267 -0.8464 -1.1584
   95MOL0     C12704   3.260   0.182   8.388 -0.2228  0.4803 -0.2250
   95MOL0     C12705   3.310   0.109   8.512 -0.4690 -0.1441 -0.4426
   95MOL0     C12706   3.391  -0.024   8.475 -0.5667  0.3969 -0.4718
   95MOL0     N12707   3.394  -0.101   8.599  0.0800  0.2747  0.0294
   95MOL0     C12708   3.496  -0.105   8.695  1.3431 -0.0899 -0.3321
   95MOL0     C12709   3.449  -0.179   8.803 -0.5427 -0.5692  0.7979
   95MOL0     C12710   3.517  -0.245   8.918  0.5892  0.5072  0.7214
   95MOL0     C12711   3.665  -0.237   8.920  0.3605 -0.0214  0.4185
   95MOL0     C12712   3.714  -0.328   9.025 -0.9256 -0.5851 -0.1941
   95MOL0     C12713   3.865  -0.323   9.042  0.2093  0.0121 -0.4513
   95MOL0     O12714   3.914  -0.190   9.058  0.1973  0.7067 -0.2393
   95MOL0     C12715   4.050  -0.170   9.068 -0.4230  0.1568  0.3021
   95MOL0     C12716   4.150  -0.271   9.063  0.1373  0.0131  0.1200
   95MOL0     C12717   4.280  -0.233   9.078 -0.3212 -0.1336 -0.7938
   95MOL0     C12718   4.320  -0.103   9.101  0.9191  0.2308 -0.7728
   95MOL0     C12719   4.458  -0.060   9.096  0.0008  0.1157 -0.0438
   95MOL0     O12720   4.552  -0.160   9.062  0.7479 -0.4095 -0.4274
   95MOL0     C12721   4.685  -0.130   9.043  0.0998  0.1890  0.3760
   95MOL0     C12722   4.785  -0.217   9.092  0.1200  0.1663  0.0325
   95MOL0     C12723   4.917  -0.201   9.063  0.3915  0.3844 -0.4652
   95MOL0     C12724   4.961  -0.083   9.017 -0.3848 -0.3036  1.0176
   95MOL0     O12725   5.095  -0.073   9.011  0.0110  0.5904  0.2797
   95MOL0     C12726   5.157   0.029   8.917 -0.1324 -0.1790 -0.5628
   95MOL0     C12727   5.211   0.146   9.004 -0.9790 -0.2553 -0.1933
   95MOL0     C12728   5.325   0.104   9.100  0.9432  0.7008 -0.1016
   95MOL0     C12729   5.410   0.216   9.137 -0.1213 -0.2520 -0.8388
   95MOL0     C12730   5.495   0.167   9.249  0.4061 -0.1532  0.5674
   95MOL0     C12731   5.609   0.264   9.277  0.1693 -0.7028 -0.0040
   95MOL0     C12732   5.700   0.231   9.394 -0.5595 -0.2051 -0.2825
   95MOL0     C12733   5.768   0.091   9.385 -0.4074  0.1339  0.3245
   95MOL0    Cl12734   5.663  -0.039   9.452 -0.2555 -0.4879  0.0380
   95MOL0     C12735   4.866   0.016   8.971 -0.0276 -0.0045  0.3826
   95MOL0     C12736   4.730  -0.011   8.988  1.0338 -0.0530  0.9318
   95MOL0     O12737   4.483   0.051   9.137  0.1109 -0.1256  0.2124
   95MOL0     C12738   4.224  -0.004   9.130  0.0115 -0.4803 -0.0538
   95MOL0     C12739   4.092  -0.040   9.097  0.0665  1.1540 -0.3152
   95MOL0     N12740   3.320  -0.221   8.759 -0.0666  0.3084  1.1383
   95MOL0     N12741   3.292  -0.175   8.647  0.4955 -0.5961  0.5140
   95MOL0     C12742   2.891   0.396   7.691 -0.0902  0.3739 -0.0445
   95MOL0     C12743   2.759   0.403   7.637 -0.3153 -0.5167  0.0290
   95MOL0     C12744   2.319   0.411   7.583 -0.1972 -0.0402  0.8080
   95MOL0     C12745   2.283   0.546   7.568 -0.9894 -0.0109  0.0641
   95MOL0     C12746   2.168   0.589   7.502  0.1169  0.8915  0.1917
   95MOL0     C12747   2.083   0.494   7.441 -0.3916  0.5178 -0.3877
   95MOL0     O12748   1.975   0.536   7.368 -0.9275  0.0968  0.4679
   95MOL0     C12749   1.930   0.673   7.377  0.3401  0.2843 -0.3309
   95MOL0     C12750   1.782   0.675   7.344  1.4650 -0.4407  0.4838
   95MOL0     C12751   1.760   0.720   7.194  0.1510 -0.4295  0.1862
   95MOL0     C12752   1.615   0.743   7.153  0.4820 -0.6448  0.7923
   95MOL0     C12753   1.592   0.841   7.044 -0.4560  0.3152 -0.9143
   95MOL0     C12754   1.561   0.906   6.949 -0.2390  0.0679  0.3482
   95MOL0     C12755   2.118   0.362   7.450  0.2742 -0.4181  0.2158
   95MOL0     C12756   2.231   0.318   7.521  0.8117  0.4971 -0.0361
   95MOL0     C12757   2.245   0.169   7.514  0.2387  0.4776  0.0579
   95MOL0     H12758   2.639   0.617   7.877  0.1269  1.7796 -1.1159
   95MOL0     H12759   2.870   0.605   7.957 -0.7256 -0.1746 -1.0078
   95MOL0     H12760   3.008   0.323   8.008  1.7154 -0.3780  1.6018
   95MOL0     H12761   3.158   0.314   7.941 -1.5207 -0.2149 -2.3277
   95MOL0     H12762   3.063   0.557   8.116  0.4555  0.9441 -2.9371
   95MOL0     H12763   3.214   0.551   8.031 -0.3277 -0.7646 -3.4564
   95MOL0     H12764   3.262   0.489   8.246 -1.1359  0.7182  0.5286
   95MOL0     H12765   3.266   0.329   8.163 -1.4190  0.1854 -0.5136
   95MOL0     H12766   3.041   0.435   8.335 -0.9035 -0.2737 -0.2871
   95MOL0     H12767   3.042   0.286   8.252  1.4740 -1.4681 -1.1423
   95MOL0     H12768   3.253   0.378   8.464 -0.9858 -0.5986  0.5180
   95MOL0     H12769   3.110   0.291   8.496  0.1168 -2.6701 -1.6859
   95MOL0     H12770   3.197   0.119   8.325 -2.3346  0.2633  1.9522
   95MOL0     H12771   3.353   0.193   8.331  0.3403 -0.7418  0.4331
   95MOL0     H12772   3.224   0.078   8.572 -0.1286 -3.7978 -1.5621
   95MOL0     H12773   3.370   0.169   8.581  0.3004  0.9345 -2.0066
   95MOL0     H12774   3.332  -0.085   8.406 -2.9768  0.1628  1.6429
   95MOL0     H12775   3.487   0.010   8.435 -0.1553  2.7479  2.1932
   95MOL0     H12776   3.591  -0.054   8.688  0.7762  0.8151 -2.2775
   95MOL0     H12777   3.473  -0.198   9.006 -0.9643  1.0417 -0.2974
   95MOL0     H12778   3.490  -0.351   8.923  0.4079  0.6274  3.4370
   95MOL0     H12779   3.711  -0.274   8.828  1.4693 -0.4605  1.1383
   95MOL0     H12780   3.699  -0.135   8.941 -0.3031  0.4229 -0.5949
   95MOL0     H12781   3.691  -0.433   9.006 -0.8158 -0.6983  0.2846
   95MOL0     H12782   3.665  -0.309   9.121  0.8926  1.3155  0.4503
   95MOL0     H12783   3.906  -0.357   8.947  2.1229  1.6710 -0.2750
   95MOL0     H12784   3.898  -0.390   9.122  0.3981  0.8960  0.2231
   95MOL0     H12785   4.132  -0.375   9.037 -0.9241  0.2073  0.0343
   95MOL0     H12786   4.359  -0.306   9.060 -1.7965 -2.0462  0.1345
   95MOL0     H12787   4.753  -0.314   9.129 -0.3521 -0.1000 -1.0438
   95MOL0     H12788   4.982  -0.287   9.073  0.8138  0.6928 -0.5288
   95MOL0     H12789   5.230  -0.022   8.853 -0.3782 -1.7914  0.3683
   95MOL0     H12790   5.082   0.078   8.854 -0.6725  0.9040  0.8681
   95MOL0     H12791   5.247   0.229   8.942  3.4334 -1.8850 -0.0986
   95MOL0     H12792   5.122   0.181   9.059 -1.4785  0.7811 -1.5846
   95MOL0     H12793   5.269   0.068   9.187 -2.0353  2.7704 -0.9757
   95MOL0     H12794   5.372   0.017   9.056 -0.9336 -0.1446 -0.5196
   95MOL0     H12795   5.358   0.307   9.168  0.4096 -1.0747  2.9325
   95MOL0     H12796   5.477   0.242   9.053 -0.2056  3.5646  0.0800
   95MOL0     H12797   5.533   0.067   9.226  0.9477  0.1686  0.0248
   95MOL0     H12798   5.440   0.166   9.344  0.7123  0.4063  0.7580
   95MOL0     H12799   5.672   0.287   9.190  0.8645 -1.3625  0.3136
   95MOL0     H12800   5.555   0.357   9.298 -0.2367 -0.0754 -3.3066
   95MOL0     H12801   5.654   0.245   9.492  1.4628  1.7425  0.4950
   95MOL0     H12802   5.777   0.309   9.398  0.7978 -1.5000 -0.2487
   95MOL0     H12803   5.796   0.080   9.280  1.6315  3.5074  0.3708
   95MOL0     H12804   5.864   0.101   9.438 -0.3041 -0.7590  0.3257
   95MOL0     H12805   4.895   0.110   8.925 -0.6469  0.4778  0.9538
   95MOL0     H12806   4.658   0.060   8.950  2.9191  2.5420  1.9093
   95MOL0     H12807   4.242   0.098   9.161 -0.0834 -0.7666  0.9875
   95MOL0     H12808   4.023   0.040   9.122  0.2420  0.9617  0.8145
   95MOL0     H12809   2.967   0.347   7.631 -0.5801  0.3190 -0.6204
   95MOL0     H12810   2.729   0.346   7.550  0.4056 -2.0627  0.7693
   95MOL0     H12811   2.343   0.616   7.626 -1.1010 -0.0009  0.1681
   95MOL0     H12812   2.142   0.694   7.499 -1.4947  0.5226  0.0592
   95MOL0     H12813   1.993   0.748   7.327 -1.3944  0.3882 -2.5571
   95MOL0     H12814   1.929   0.700   7.483  1.2607 -1.2289  0.0859
   95MOL0     H12815   1.736   0.746   7.413 -1.8741 -1.6665 -0.3014
   95MOL0     H12816   1.737   0.578   7.367 -0.6393  0.7518  1.7270
   95MOL0     H12817   1.811   0.642   7.136 -0.1577 -2.3064  2.2586
   95MOL0     H12818   1.818   0.809   7.170 -1.3840  0.6244  0.2952
   95MOL0     H12819   1.572   0.648   7.122 -4.4439  1.1358  1.2966
   95MOL0     H12820   1.557   0.765   7.243 -0.8467  0.1852 -0.2301
   95MOL0     H12821   1.530   0.966   6.867 -3.2014 -1.8949 -0.1294
   95MOL0     H12822   2.039   0.301   7.408 -1.8703  1.5304  1.1752
   95MOL0     H12823   2.212   0.121   7.607 -1.3722 -2.8573 -2.0323
   95MOL0     H12824   2.177   0.128   7.439 -2.3353  0.5684  2.1935
   95MOL0     H12825   2.345   0.146   7.476 -0.7977  0.3853 -2.8394
   96MOL0     O12826   2.173   3.674   2.300 -0.5312  0.1833  0.2261
   96MOL0     C12827   2.167   3.550   2.281 -0.4322 -0.4284  0.7223
   96MOL0     O12828   2.265   3.478   2.213  0.3525  0.0633 -0.7268
   96MOL0     C12829   2.369   3.545   2.158 -1.2486 -0.1235  0.2450
   96MOL0     C12830   2.344   3.630   2.051 -0.0935  0.1896  0.5932
   96MOL0     C12831   2.444   3.687   1.975 -0.5691  0.6633  0.3019
   96MOL0     C12832   2.577   3.671   2.017 -0.3379  0.7012 -0.3776
   96MOL0     O12833   2.680   3.725   1.946  0.1241  0.1614 -1.0183
   96MOL0     C12834   2.784   3.639   1.911 -0.2012 -0.4197  0.8535
   96MOL0     C12835   2.876   3.694   1.798 -0.2503 -0.5553  0.4050
   96MOL0     C12836   2.800   3.694   1.668  0.0337 -0.4294  0.7377
   96MOL0     C12837   2.888   3.705   1.550 -0.7867 -0.6522  0.3906
   96MOL0     C12838   2.812   3.705   1.414 -0.0934 -0.6393  0.6752
   96MOL0     C12839   2.910   3.694   1.292 -0.0659 -0.3236  0.4027
   96MOL0     C12840   2.982   3.822   1.263 -0.0392 -0.3085 -0.9362
   96MOL0     C12841   3.052   3.822   1.124  0.1848  0.0095 -0.5974
   96MOL0     N12842   3.183   3.891   1.124  0.2473  0.3530 -0.5048
   96MOL0     C12843   3.204   4.030   1.127  1.1110 -0.4419  0.0181
   96MOL0     C12844   3.336   4.048   1.135  0.5335  0.0307  0.3538
   96MOL0     C12845   3.410   4.173   1.146 -0.4930 -0.8934 -0.4748
   96MOL0     C12846   3.493   4.199   1.021 -1.0361 -0.1398  1.2684
   96MOL0     C12847   3.545   4.345   1.019  0.1528 -0.4042  0.5223
   96MOL0     C12848   3.662   4.355   1.123  0.3779  0.6305 -0.4090
   96MOL0     O12849   3.734   4.475   1.117  0.2447 -0.0392  0.1148
   96MOL0     C12850   3.866   4.464   1.140 -0.4231 -0.5309 -0.0718
   96MOL0     C12851   3.927   4.389   1.248 -0.4582  0.8193  0.1869
   96MOL0     C12852   4.069   4.392   1.264  0.5809 -1.0166 -1.0097
   96MOL0     C12853   4.153   4.461   1.176  0.0772 -1.0228  0.4195
   96MOL0     C12854   4.302   4.464   1.193 -0.2662  0.5242 -0.3864
   96MOL0     O12855   4.372   4.535   1.101 -0.0914  1.1696 -0.0131
   96MOL0     C12856   4.512   4.539   1.101  0.7281  1.0431  0.0985
   96MOL0     C12857   4.605   4.446   1.143  0.0186  0.7812 -1.0375
   96MOL0     C12858   4.746   4.459   1.135  0.9517 -0.0383  0.7529
   96MOL0     C12859   4.792   4.577   1.077  0.7215 -1.0375  0.0690
   96MOL0     O12860   4.930   4.583   1.059 -0.0869  0.2413  0.0096
   96MOL0     C12861   4.978   4.657   0.946 -0.4587  0.5306 -0.6865
   96MOL0     C12862   5.131   4.638   0.926 -0.2319  0.6112 -0.5040
   96MOL0     C12863   5.212   4.672   1.052 -0.0719  0.4054 -0.0262
   96MOL0     C12864   5.367   4.652   1.028  0.1325 -0.1436 -0.1863
   96MOL0     C12865   5.449   4.656   1.156  0.1553  1.3224 -0.1476
   96MOL0     C12866   5.601   4.659   1.135 -0.8566  0.0658  0.6238
   96MOL0     C12867   5.674   4.677   1.263 -0.3275 -0.4125 -0.4551
   96MOL0     C12868   5.807   4.616   1.262  0.1282  0.1450 -0.5871
   96MOL0    Cl12869   5.917   4.697   1.135 -0.3933  0.0583 -0.3133
   96MOL0     C12870   4.701   4.681   1.036 -0.0166  0.0357 -0.2903
   96MOL0     C12871   4.566   4.664   1.048  0.2100  0.2377  0.1491
   96MOL0     O12872   4.354   4.402   1.293  0.3223 -0.3626 -0.8463
   96MOL0     C12873   4.091   4.534   1.067  0.0692 -0.0305 -0.5217
   96MOL0     C12874   3.953   4.534   1.056  0.4649 -0.0499 -0.0155
   96MOL0     N12875   3.394   3.921   1.145  0.1672 -0.4882  0.0492
   96MOL0     N12876   3.299   3.828   1.141 -0.5048 -0.4733 -0.6186
   96MOL0     C12877   2.596   3.589   2.127 -0.5288 -0.2215 -0.6125
   96MOL0     C12878   2.493   3.538   2.207  0.4087 -0.6724  0.2735
   96MOL0     C12879   2.041   3.477   2.327 -0.1975 -0.9862  0.4122
   96MOL0     C12880   2.043   3.341   2.352 -0.1854 -0.7992 -0.0931
   96MOL0     C12881   1.939   3.258   2.368  0.3143 -0.3603  0.3405
   96MOL0     C12882   1.811   3.311   2.374 -0.2371  0.5928 -0.1569
   96MOL0     O12883   1.707   3.220   2.403 -0.3506 -0.2371  0.2482
   96MOL0     C12884   1.571   3.257   2.381  0.1048 -0.5114  0.4552
   96MOL0     C12885   1.481   3.140   2.341 -0.4763  0.2384 -0.9820
   96MOL0     C12886   1.493   3.011   2.444  0.6133 -0.0966  0.2018
   96MOL0     C12887   1.385   2.911   2.400  0.5043 -0.5470 -0.3079
   96MOL0     C12888   1.353   2.832   2.520  0.6312  0.7026  0.0931
   96MOL0     C12889   1.316   2.774   2.621 -0.9741  1.0990 -0.5860
   96MOL0     C12890   1.797   3.446   2.349 -0.4472 -0.8765  0.1345
   96MOL0     C12891   1.911   3.532   2.329  0.3396 -1.3922  0.5306
   96MOL0     C12892   1.880   3.671   2.298 -0.5945  0.2513 -0.7601
   96MOL0     H12893   2.243   3.642   2.013 -0.7534 -0.1120  2.1866
   96MOL0     H12894   2.410   3.740   1.887  0.1371  0.0517 -0.3517
   96MOL0     H12895   2.845   3.624   2.000  1.4478 -1.0862 -0.3315
   96MOL0     H12896   2.744   3.543   1.879 -1.1563 -0.0815  1.0050
   96MOL0     H12897   2.962   3.627   1.791 -0.6268 -1.1006  0.8102
   96MOL0     H12898   2.914   3.794   1.817 -0.3866 -0.5637  0.7388
   96MOL0     H12899   2.739   3.785   1.674  3.4863  2.4374 -2.7710
   96MOL0     H12900   2.740   3.603   1.653 -0.8627 -0.0499  1.8576
   96MOL0     H12901   2.948   3.796   1.557  2.0525 -2.4350  1.3194
   96MOL0     H12902   2.967   3.629   1.546  0.6119  0.7632  0.0878
   96MOL0     H12903   2.746   3.617   1.416  1.0275 -1.5013  1.2811
   96MOL0     H12904   2.750   3.791   1.390  2.8543  1.5523  0.4310
   96MOL0     H12905   2.989   3.619   1.299 -0.0150 -0.4660 -1.2921
   96MOL0     H12906   2.835   3.675   1.215  0.1481 -0.0411  0.1184
   96MOL0     H12907   3.067   3.837   1.330 -0.6837  2.1946 -0.5602
   96MOL0     H12908   2.926   3.915   1.267  0.2038 -0.0662 -2.4364
   96MOL0     H12909   3.068   3.718   1.093  4.5650  0.2535  0.2925
   96MOL0     H12910   2.981   3.862   1.051 -0.3276  0.5030  0.1577
   96MOL0     H12911   3.136   4.114   1.128  2.9162  1.1612  3.1821
   96MOL0     H12912   3.337   4.254   1.152 -0.4590 -0.4519 -3.8897
   96MOL0     H12913   3.468   4.176   1.239  0.9888 -6.2066 -0.9180
   96MOL0     H12914   3.577   4.131   1.005 -0.9580  0.2569 -0.1293
   96MOL0     H12915   3.424   4.182   0.938 -1.8368 -1.0805  2.0992
   96MOL0     H12916   3.467   4.420   1.032 -0.1319 -0.1725 -1.9081
   96MOL0     H12917   3.591   4.367   0.921  1.2771  2.3784  1.5696
   96MOL0     H12918   3.737   4.275   1.119  0.9227  1.1476 -0.8150
   96MOL0     H12919   3.620   4.353   1.224  0.4235 -1.5500 -0.4004
   96MOL0     H12920   3.855   4.335   1.308 -2.0252  1.0595 -1.3950
   96MOL0     H12921   4.117   4.353   1.353 -1.9989  1.8316  1.8762
   96MOL0     H12922   4.568   4.352   1.183 -0.1838  1.4562  0.4400
   96MOL0     H12923   4.812   4.376   1.159  0.9885  0.4326  2.4072
   96MOL0     H12924   4.915   4.631   0.860  0.6385  0.5082 -1.5174
   96MOL0     H12925   4.976   4.764   0.969  0.9038  0.1110  1.7025
   96MOL0     H12926   5.158   4.537   0.892  1.5380  1.2476 -1.0723
   96MOL0     H12927   5.159   4.701   0.841 -0.9219 -1.2026 -2.1782
   96MOL0     H12928   5.184   4.771   1.088 -2.1023 -0.6693  1.6428
   96MOL0     H12929   5.170   4.607   1.130 -3.7279  3.6662  1.0280
   96MOL0     H12930   5.404   4.722   0.953 -1.5920  2.0740  0.9114
   96MOL0     H12931   5.377   4.555   0.978 -1.7814 -0.0891 -0.7623
   96MOL0     H12932   5.422   4.565   1.211  1.2003  0.0081 -1.7275
   96MOL0     H12933   5.422   4.748   1.210  1.3944  2.4004 -1.2773
   96MOL0     H12934   5.634   4.570   1.081  0.3363  1.8471 -1.7820
   96MOL0     H12935   5.618   4.749   1.075 -1.9489 -1.1183 -1.5643
   96MOL0     H12936   5.615   4.639   1.347  2.3390  0.4386  1.9885
   96MOL0     H12937   5.687   4.780   1.298 -1.7091  0.0081 -1.1443
   96MOL0     H12938   5.841   4.626   1.365 -1.7760 -1.5818  0.2780
   96MOL0     H12939   5.795   4.510   1.236  0.9279 -0.3240  0.8653
   96MOL0     H12940   4.745   4.772   0.995  1.4196 -0.0267  1.0068
   96MOL0     H12941   4.497   4.741   1.016  0.1560 -0.2721 -0.9798
   96MOL0     H12942   4.154   4.586   0.995  0.5242 -1.2974 -1.0555
   96MOL0     H12943   3.897   4.597   0.987 -2.5925 -0.2329  2.0902
   96MOL0     H12944   2.700   3.591   2.158 -0.3131 -3.2671 -0.8568
   96MOL0     H12945   2.511   3.488   2.302  0.4934  1.1521  1.2674
   96MOL0     H12946   2.145   3.306   2.365  0.2615  0.6470  0.3819
   96MOL0     H12947   1.956   3.152   2.383  2.3338  0.0138  1.0756
   96MOL0     H12948   1.562   3.330   2.300 -1.0779 -1.7638 -0.5959
   96MOL0     H12949   1.540   3.293   2.479  0.2967  1.9454 -0.3207
   96MOL0     H12950   1.530   3.097   2.253 -0.3148  0.4842 -1.0106
   96MOL0     H12951   1.379   3.171   2.318 -1.4793  1.2107  3.7669
   96MOL0     H12952   1.467   3.047   2.544 -1.3155  0.3060 -0.4002
   96MOL0     H12953   1.584   2.952   2.434  0.5384 -0.6578  2.2760
   96MOL0     H12954   1.295   2.969   2.381 -0.4419 -1.4502  1.1458
   96MOL0     H12955   1.415   2.842   2.320 -2.7692 -1.3504 -1.0081
   96MOL0     H12956   1.285   2.732   2.715  1.0952 -2.6750 -1.3895
   96MOL0     H12957   1.700   3.494   2.349 -0.3750 -0.6683 -1.4609
   96MOL0     H12958   1.783   3.713   2.324  0.7078  3.5057 -0.5695
   96MOL0     H12959   1.955   3.733   2.350  0.4058 -2.7686  1.7090
   96MOL0     H12960   1.904   3.676   2.192  1.8625 -3.0236 -0.5080
   97MOL0     O12961  11.040   8.742   9.004 -0.5368  0.3779 -0.8787
   97MOL0     C12962  11.013   8.648   9.079 -0.7821  1.1267  0.5411
   97MOL0     O12963  11.088   8.530   9.086  0.3962  0.6087  0.4911
   97MOL0     C12964  11.203   8.526   9.002  0.1705 -0.4206 -0.7214
   97MOL0     C12965  11.303   8.619   9.021  1.0790 -0.4256 -0.8997
   97MOL0     C12966  11.430   8.604   8.960 -0.5222 -0.1633  0.9306
   97MOL0     C12967  11.464   8.493   8.877  0.4726  0.7651  0.6194
   97MOL0     O12968  11.583   8.468   8.807  0.3104 -0.0001  0.2680
   97MOL0     C12969  11.640   8.590   8.750  1.3758  0.0279 -0.0071
   97MOL0     C12970  11.794   8.564   8.714 -0.1360  0.7521 -0.5920
   97MOL0     C12971  11.796   8.457   8.611 -0.3975 -0.0487 -0.2472
   97MOL0     C12972  11.939   8.469   8.519 -0.7339 -0.6966 -0.0746
   97MOL0     C12973  11.937   8.394   8.385  0.1639 -0.3146  0.0739
   97MOL0     C12974  12.065   8.429   8.304 -0.5788 -0.4230 -0.0570
   97MOL0     C12975  12.063   8.377   8.160 -0.2597  0.4751  0.1680
   97MOL0     C12976  12.190   8.416   8.088 -0.7423 -0.5470  0.3816
   97MOL0     N12977  12.311   8.360   8.150 -0.5998 -0.2459 -0.6018
   97MOL0     C12978  12.399   8.421   8.240  0.2613  0.1810 -0.7251
   97MOL0     C12979  12.510   8.344   8.242 -0.7323  0.2108 -0.3028
   97MOL0     C12980  12.625   8.354   8.335 -0.4227  0.6964 -0.6384
   97MOL0     C12981  12.728   8.455   8.297 -0.4130  0.4847 -0.0091
   97MOL0     C12982  12.680   8.596   8.287  0.0223  1.1481  0.3222
   97MOL0     C12983  12.783   8.695   8.236 -0.2000 -0.5164  1.0882
   97MOL0     O12984  12.893   8.709   8.320 -0.1705  0.3860  0.5347
   97MOL0     C12985  13.010   8.691   8.252 -0.5903 -0.2021 -0.1352
   97MOL0     C12986  13.100   8.599   8.301  0.3683  0.1574 -0.7346
   97MOL0     C12987  13.235   8.600   8.250  0.7706 -0.1405 -0.1953
   97MOL0     C12988  13.272   8.693   8.153  0.2469 -0.5271 -0.5374
   97MOL0     C12989  13.416   8.698   8.108  0.4514 -0.0863 -0.8488
   97MOL0     O12990  13.469   8.576   8.114 -0.5411 -0.0091 -1.0134
   97MOL0     C12991  13.605   8.562   8.104  0.2751  1.2534  0.1854
   97MOL0     C12992  13.683   8.547   7.984 -0.4075  0.1057 -0.6093
   97MOL0     C12993  13.822   8.543   7.989 -0.0765 -0.4982  0.4267
   97MOL0     C12994  13.889   8.546   8.117  0.4493  0.2019  0.5481
   97MOL0     O12995  14.018   8.549   8.149 -0.2338 -0.3548 -0.1221
   97MOL0     C12996  14.107   8.482   8.062  0.4987 -0.2884 -0.1872
   97MOL0     C12997  14.253   8.496   8.077  0.3698 -0.4041  0.3755
   97MOL0     C12998  14.324   8.417   7.973  0.5325  0.5440 -0.6784
   97MOL0     C12999  14.468   8.420   8.016  0.9177  0.3106 -0.2350
   97MOL0     C13000  14.544   8.365   7.893 -0.3022 -0.4674 -0.3278
   97MOL0     C13001  14.691   8.375   7.904 -0.4319  0.0040 -0.6700
   97MOL0     C13002  14.768   8.324   7.780  0.2062  0.1165 -0.5357
   97MOL0     C13003  14.757   8.428   7.669  0.0246  0.1228 -0.3474
   97MOL0    Cl13004  14.909   8.401   7.577 -0.2965 -0.0948 -0.1515
   97MOL0     C13005  13.812   8.570   8.229  0.7150 -0.2528 -0.7607
   97MOL0     C13006  13.675   8.579   8.226  0.4605  0.0982  0.3039
   97MOL0     O13007  13.463   8.796   8.053 -0.5095  0.1311  0.2870
   97MOL0     C13008  13.174   8.783   8.103  0.4819 -0.3325  0.9342
   97MOL0     C13009  13.045   8.776   8.152  0.5592  0.3795 -0.1980
   97MOL0     N13010  12.487   8.233   8.158 -0.4087  0.0898 -0.3302
   97MOL0     N13011  12.373   8.254   8.096  0.3249  0.0495  0.1707
   97MOL0     C13012  11.367   8.396   8.868 -0.0928 -0.1911  0.2231
   97MOL0     C13013  11.243   8.417   8.926  0.2020  0.4642  0.2619
   97MOL0     C13014  10.908   8.661   9.179  0.4774 -0.2849 -0.1033
   97MOL0     C13015  10.941   8.616   9.309 -0.3956  0.4215  1.2377
   97MOL0     C13016  10.855   8.639   9.416 -0.4493  0.4395  0.0682
   97MOL0     C13017  10.730   8.695   9.394 -0.1744 -0.2438  0.1010
   97MOL0     O13018  10.654   8.716   9.499 -0.1256  0.0479 -0.4420
   97MOL0     C13019  10.699   8.818   9.592 -0.6238  0.3349 -0.7906
   97MOL0     C13020  10.594   8.827   9.708 -0.7613 -0.1345 -0.4810
   97MOL0     C13021  10.573   8.697   9.790 -0.4186 -0.6762  0.0692
   97MOL0     C13022  10.694   8.622   9.833 -0.2793  0.0692 -0.7119
   97MOL0     C13023  10.786   8.692   9.922 -0.3810 -0.0386 -0.3550
   97MOL0     C13024  10.881   8.737   9.986 -0.0661  0.4276 -0.6347
   97MOL0     C13025  10.688   8.740   9.269  0.0755 -0.4276 -0.0481
   97MOL0     C13026  10.781   8.729   9.159  0.2869  0.6644 -0.2795
   97MOL0     C13027  10.739   8.771   9.015 -0.1359  0.0737  0.0091
   97MOL0     H13028  11.297   8.705   9.087 -0.5779 -0.1413 -1.3739
   97MOL0     H13029  11.501   8.683   8.981 -1.0705  0.1241  1.7540
   97MOL0     H13030  11.578   8.620   8.665 -1.0012  0.4028  1.7659
   97MOL0     H13031  11.638   8.665   8.829 -0.2797  0.2279 -0.1976
   97MOL0     H13032  11.844   8.526   8.803  1.6286 -0.1489 -1.9027
   97MOL0     H13033  11.848   8.652   8.679  0.1615  1.1310  0.7967
   97MOL0     H13034  11.714   8.471   8.540  0.0376  0.5510 -0.6385
   97MOL0     H13035  11.798   8.361   8.663 -1.1977 -0.9642 -1.8412
   97MOL0     H13036  11.974   8.572   8.506 -2.5508 -0.2084 -1.7488
   97MOL0     H13037  12.014   8.415   8.577 -0.3099  0.9237  0.9621
   97MOL0     H13038  11.914   8.288   8.398 -2.6997  0.4204  2.0604
   97MOL0     H13039  11.847   8.431   8.333 -1.0200 -4.0911 -0.8664
   97MOL0     H13040  12.083   8.537   8.297  4.4228 -1.1103 -2.7489
   97MOL0     H13041  12.157   8.389   8.349 -0.4539 -1.6635 -1.3347
   97MOL0     H13042  11.974   8.416   8.110 -0.1333 -0.1037 -0.5208
   97MOL0     H13043  12.058   8.268   8.159  1.1070  0.3942  0.5329
   97MOL0     H13044  12.181   8.391   7.982 -0.3497  1.3581 -0.1533
   97MOL0     H13045  12.187   8.525   8.097  2.3052 -0.1929 -1.3659
   97MOL0     H13046  12.375   8.512   8.296 -0.0422 -1.5696  2.2296
   97MOL0     H13047  12.599   8.385   8.437 -0.8959  0.9416 -0.8314
   97MOL0     H13048  12.679   8.260   8.353  2.0761  1.9988 -0.8131
   97MOL0     H13049  12.819   8.446   8.357 -0.2258  0.8563 -0.2367
   97MOL0     H13050  12.763   8.417   8.201  0.4624  0.4158  0.3270
   97MOL0     H13051  12.649   8.619   8.390 -1.2279  0.0260  0.2258
   97MOL0     H13052  12.591   8.614   8.226 -0.3862  2.0785  1.1621
   97MOL0     H13053  12.737   8.793   8.244  0.6133 -0.1677  1.6337
   97MOL0     H13054  12.789   8.694   8.127  0.2392 -0.9594  1.1117
   97MOL0     H13055  13.073   8.531   8.381 -3.5066  3.2605  0.9247
   97MOL0     H13056  13.311   8.530   8.282  0.4195 -0.1061  0.7558
   97MOL0     H13057  13.628   8.523   7.893 -0.1805 -0.1715 -0.6776
   97MOL0     H13058  13.874   8.549   7.894 -1.5769  0.6726 -0.3635
   97MOL0     H13059  14.080   8.376   8.060 -0.5399 -0.0362 -2.4602
   97MOL0     H13060  14.085   8.515   7.960  2.7352  2.9308  0.2482
   97MOL0     H13061  14.286   8.600   8.069  0.7516 -0.5057  0.5973
   97MOL0     H13062  14.289   8.471   8.177  0.5220  4.1991  1.7422
   97MOL0     H13063  14.294   8.313   7.987 -0.9003  1.2024  1.7037
   97MOL0     H13064  14.301   8.451   7.872 -2.2471 -1.0011 -0.6686
   97MOL0     H13065  14.489   8.366   8.109 -1.1490  0.7827  0.5456
   97MOL0     H13066  14.497   8.524   8.033  0.1434  0.1282  2.7549
   97MOL0     H13067  14.509   8.423   7.807 -0.3015  0.5432  0.3427
   97MOL0     H13068  14.521   8.258   7.888 -0.9723 -0.3579  0.2338
   97MOL0     H13069  14.728   8.473   7.935 -2.8350  1.3206 -1.7156
   97MOL0     H13070  14.711   8.306   7.987  1.4610  1.1711 -0.0913
   97MOL0     H13071  14.729   8.227   7.749  0.4542 -0.4260  0.8008
   97MOL0     H13072  14.873   8.307   7.804 -0.1950  0.0336  1.3025
   97MOL0     H13073  14.665   8.411   7.613 -0.0727  0.2343 -0.2239
   97MOL0     H13074  14.755   8.529   7.712 -3.1237  1.0026 -2.2632
   97MOL0     H13075  13.859   8.592   8.324 -0.1766  2.5527 -0.8718
   97MOL0     H13076  13.619   8.592   8.318 -0.9700  0.9194 -0.6338
   97MOL0     H13077  13.193   8.859   8.028  1.2113  0.6455  2.0573
   97MOL0     H13078  12.970   8.850   8.126  1.8908  1.3540 -1.4285
   97MOL0     H13079  11.395   8.309   8.810 -0.3648  0.2493 -0.5886
   97MOL0     H13080  11.177   8.331   8.924  1.3932 -0.5459  1.8985
   97MOL0     H13081  11.037   8.572   9.334 -1.1663 -1.0409  1.7267
   97MOL0     H13082  10.895   8.614   9.514  2.8445 -0.2614 -1.3152
   97MOL0     H13083  10.701   8.908   9.531  0.0384  0.2529 -0.8911
   97MOL0     H13084  10.799   8.805   9.635 -0.7647  2.1664  0.1623
   97MOL0     H13085  10.492   8.856   9.680 -0.4287  1.0617 -0.5167
   97MOL0     H13086  10.614   8.914   9.771 -1.8263 -1.8378  2.4056
   97MOL0     H13087  10.504   8.635   9.733 -0.2881 -0.4549 -0.3373
   97MOL0     H13088  10.504   8.734   9.866 -1.6198  1.0183 -1.7584
   97MOL0     H13089  10.660   8.541   9.898  1.1985  0.0260  0.0613
   97MOL0     H13090  10.748   8.584   9.745 -1.8853  0.6606 -2.0032
   97MOL0     H13091  10.966   8.785  10.029  0.5115  0.5523 -1.8806
   97MOL0     H13092  10.588   8.780   9.259 -0.0578 -0.0563  2.2405
   97MOL0     H13093  10.634   8.751   8.993 -0.0159  0.0734 -0.5748
   97MOL0     H13094  10.768   8.874   8.994  1.0387 -0.7650 -3.0507
   97MOL0     H13095  10.796   8.721   8.936  0.7560  0.2930  0.4984
   98MOL0     O13096   8.864   2.046   1.197 -0.0422 -0.7148 -0.2726
   98MOL0     C13097   8.844   1.931   1.219  0.3297  1.1110 -0.0299
   98MOL0     O13098   8.933   1.843   1.277  0.3094  0.2649  0.8797
   98MOL0     C13099   9.052   1.878   1.338 -0.5365 -0.1286 -0.0306
   98MOL0     C13100   9.168   1.790   1.325  0.2109  0.0025  0.8372
   98MOL0     C13101   9.292   1.821   1.392  0.2579 -0.3509  0.3659
   98MOL0     C13102   9.305   1.924   1.478 -0.1620  0.1994 -0.3271
   98MOL0     O13103   9.423   1.931   1.540 -0.1956  0.4754  0.1393
   98MOL0     C13104   9.459   2.065   1.589  0.5014  0.2828 -0.2722
   98MOL0     C13105   9.607   2.078   1.602 -0.4116 -0.7613  0.2043
   98MOL0     C13106   9.639   2.195   1.690  0.0180  0.7881  0.8084
   98MOL0     C13107   9.788   2.236   1.666 -0.4679 -0.0709 -0.2042
   98MOL0     C13108   9.819   2.376   1.728 -0.2699  0.5324  0.0737
   98MOL0     C13109   9.959   2.422   1.694  0.5704  0.4387  0.1030
   98MOL0     C13110   9.975   2.571   1.732 -0.1506  0.3519  0.0261
   98MOL0     C13111  10.120   2.598   1.695 -0.0169  0.0474 -0.7227
   98MOL0     N13112  10.135   2.736   1.654  0.2761  0.4287  1.0996
   98MOL0     C13113  10.123   2.845   1.735 -0.1511  0.2173  0.3675
   98MOL0     C13114  10.154   2.949   1.658  0.1073  0.0487  0.1114
   98MOL0     C13115  10.179   3.099   1.690 -0.6676 -0.3583 -0.1072
   98MOL0     C13116  10.330   3.120   1.718  0.7369  0.1648  0.2045
   98MOL0     C13117  10.360   3.265   1.774 -0.4692 -0.2603  0.2871
   98MOL0     C13118  10.446   3.274   1.905  0.0718 -0.2888 -0.1441
   98MOL0     O13119  10.429   3.399   1.956 -0.3233  0.2295 -0.9000
   98MOL0     C13120  10.543   3.435   2.026  0.7382 -0.5615  0.5796
   98MOL0     C13121  10.598   3.363   2.132 -0.1122 -0.2483 -0.5938
   98MOL0     C13122  10.727   3.399   2.177 -0.0552  0.4730  0.0540
   98MOL0     C13123  10.793   3.508   2.120  0.2521 -0.1694 -0.0433
   98MOL0     C13124  10.929   3.532   2.158 -0.1762  0.2593 -0.7743
   98MOL0     O13125  11.005   3.607   2.078 -0.3774 -0.1667  1.1384
   98MOL0     C13126  11.137   3.625   2.106 -1.0926 -0.3838  0.8784
   98MOL0     C13127  11.171   3.679   2.229  0.3455 -0.4759  0.5598
   98MOL0     C13128  11.303   3.687   2.280 -0.6063  1.3908  0.0823
   98MOL0     C13129  11.405   3.657   2.189  0.3997  0.3343  0.2838
   98MOL0     O13130  11.530   3.660   2.237 -0.5627 -0.1690  0.2411
   98MOL0     C13131  11.646   3.651   2.142 -0.2065 -0.3310  0.3864
   98MOL0     C13132  11.650   3.783   2.067 -1.0395 -0.2369 -0.0980
   98MOL0     C13133  11.782   3.795   1.980 -0.1607 -0.6630 -0.3420
   98MOL0     C13134  11.798   3.915   1.878 -0.1189 -0.8874  0.0026
   98MOL0     C13135  11.928   3.908   1.790 -0.0441 -0.5587 -0.1091
   98MOL0     C13136  12.057   3.907   1.877  0.0814  0.2376  1.3358
   98MOL0     C13137  12.170   3.892   1.776  0.6279 -0.6577 -0.0260
   98MOL0     C13138  12.295   3.839   1.853 -0.4207 -0.2898 -1.0035
   98MOL0    Cl13139  12.362   3.968   1.967 -0.2066  0.0300 -0.5274
   98MOL0     C13140  11.372   3.599   2.060 -0.3955 -0.5251 -0.1682
   98MOL0     C13141  11.233   3.597   2.017 -0.8102 -0.4578 -0.2772
   98MOL0     O13142  10.965   3.475   2.264 -0.0471  0.1426 -0.2970
   98MOL0     C13143  10.739   3.582   2.014 -0.2487  0.6068  0.6924
   98MOL0     C13144  10.610   3.547   1.974 -0.4678 -0.6135 -0.4006
   98MOL0     N13145  10.168   2.906   1.531 -0.2475 -0.6651 -0.0580
   98MOL0     N13146  10.165   2.778   1.522  0.2220 -0.0138 -0.6925
   98MOL0     C13147   9.186   2.005   1.495 -0.7777 -0.5023  0.1401
   98MOL0     C13148   9.060   1.985   1.436 -0.3000  0.5970  0.8356
   98MOL0     C13149   8.715   1.876   1.177  0.1161 -1.3636  0.2011
   98MOL0     C13150   8.710   1.748   1.123  0.1654  0.2173 -0.2493
   98MOL0     C13151   8.599   1.707   1.053 -0.6905  0.1240 -0.0773
   98MOL0     C13152   8.491   1.794   1.034 -0.1348 -0.8305  0.6766
   98MOL0     O13153   8.378   1.751   0.965  0.7120  0.9521  0.4200
   98MOL0     C13154   8.289   1.851   0.912 -0.6478  0.2546  0.9333
   98MOL0     C13155   8.173   1.784   0.841 -0.5115 -0.4110  0.0188
   98MOL0     C13156   8.068   1.883   0.798  0.8885 -0.5752  1.0708
   98MOL0     C13157   7.949   1.804   0.738  0.3509 -0.2833 -0.2180
   98MOL0     C13158   7.830   1.887   0.709  0.2946 -0.0756 -0.3067
   98MOL0     C13159   7.725   1.943   0.700  0.8236 -0.4509 -0.1870
   98MOL0     C13160   8.491   1.918   1.109  0.4015 -0.5168  0.2071
   98MOL0     C13161   8.597   1.963   1.175  0.6150 -0.5061 -0.2737
   98MOL0     C13162   8.589   2.109   1.229  0.0899  0.2015  0.4647
   98MOL0     H13163   9.152   1.711   1.253 -3.2223  0.7742  0.6132
   98MOL0     H13164   9.381   1.763   1.369  1.6864  2.3104 -1.2890
   98MOL0     H13165   9.430   2.146   1.523 -0.5987  3.8276  4.0772
   98MOL0     H13166   9.407   2.082   1.684  0.7639 -0.7548  0.0734
   98MOL0     H13167   9.655   2.096   1.506 -1.1341  1.2029  0.1693
   98MOL0     H13168   9.650   1.987   1.646  3.1999  0.9522  0.5625
   98MOL0     H13169   9.624   2.166   1.795  0.9890  1.3442  1.1098
   98MOL0     H13170   9.568   2.276   1.670  0.0714  0.1661 -2.2823
   98MOL0     H13171   9.860   2.168   1.712 -0.9222 -0.9938 -0.8293
   98MOL0     H13172   9.816   2.238   1.560 -0.7761  3.7426 -0.3467
   98MOL0     H13173   9.738   2.441   1.693  0.8115  2.2107  0.5642
   98MOL0     H13174   9.802   2.362   1.835  0.0725 -2.1900 -0.1665
   98MOL0     H13175  10.033   2.363   1.750  3.3434  0.4088 -3.3173
   98MOL0     H13176   9.967   2.418   1.585 -6.7129 -0.6084 -0.8772
   98MOL0     H13177   9.965   2.583   1.840  1.7350  1.9711  0.0672
   98MOL0     H13178   9.903   2.633   1.677  0.0874  0.0825 -0.5893
   98MOL0     H13179  10.182   2.580   1.784  2.0334  0.1660 -2.0579
   98MOL0     H13180  10.161   2.530   1.619  0.8081 -0.9049  0.5262
   98MOL0     H13181  10.090   2.861   1.837 -2.6424 -1.0321 -0.1577
   98MOL0     H13182  10.141   3.167   1.613 -1.0773  0.4649  0.8005
   98MOL0     H13183  10.141   3.127   1.789  0.1584 -2.1096  0.7559
   98MOL0     H13184  10.364   3.049   1.795  0.2690  0.3367  0.5700
   98MOL0     H13185  10.398   3.108   1.633  0.3748  2.3738 -0.4595
   98MOL0     H13186  10.262   3.306   1.800 -0.1333  0.1893  0.8587
   98MOL0     H13187  10.414   3.322   1.697  0.5609  0.1773  1.3065
   98MOL0     H13188  10.549   3.238   1.910  0.2714  0.3680  0.6068
   98MOL0     H13189  10.399   3.215   1.984  1.4926  1.6952  2.3200
   98MOL0     H13190  10.548   3.280   2.181 -1.2770  1.2749  0.9413
   98MOL0     H13191  10.774   3.338   2.253  2.2971 -0.9003 -2.3031
   98MOL0     H13192  11.097   3.705   2.304 -0.9982 -2.1151 -0.1259
   98MOL0     H13193  11.310   3.698   2.388 -3.3682  1.9836  0.2798
   98MOL0     H13194  11.741   3.636   2.193  0.4545 -1.8515 -1.1803
   98MOL0     H13195  11.636   3.561   2.081  2.4522 -1.0347  0.8555
   98MOL0     H13196  11.562   3.799   2.004 -1.9380 -1.5236  0.7834
   98MOL0     H13197  11.647   3.864   2.141  0.5291  0.9210 -1.2405
   98MOL0     H13198  11.863   3.819   2.050 -0.1245 -1.7674  0.0192
   98MOL0     H13199  11.791   3.696   1.935 -2.8205 -0.8150 -0.7276
   98MOL0     H13200  11.809   4.013   1.925  0.7796 -0.6772 -0.6146
   98MOL0     H13201  11.711   3.924   1.813 -0.0538  2.9974  0.2324
   98MOL0     H13202  11.930   3.983   1.710  0.1451  0.4313  0.7935
   98MOL0     H13203  11.921   3.815   1.733 -0.1425  0.3127 -1.5715
   98MOL0     H13204  12.060   3.993   1.944  1.5946  0.7320  0.6697
   98MOL0     H13205  12.076   3.819   1.940  5.2655  0.7988  1.0037
   98MOL0     H13206  12.188   3.994   1.742 -1.4350 -0.6154 -1.1672
   98MOL0     H13207  12.148   3.828   1.690  1.2535  0.6761 -1.2074
   98MOL0     H13208  12.280   3.744   1.906  3.8755 -1.7065 -1.9146
   98MOL0     H13209  12.369   3.826   1.773 -1.2693  0.1079 -1.8687
   98MOL0     H13210  11.437   3.555   1.985 -0.6243 -2.1855  0.5664
   98MOL0     H13211  11.191   3.563   1.923 -0.8570  1.0142 -0.8310
   98MOL0     H13212  10.798   3.659   1.966  1.9508  0.0975  2.4276
   98MOL0     H13213  10.567   3.607   1.894  0.6201  2.2676  1.0395
   98MOL0     H13214   9.181   2.094   1.557  3.4374  0.0281  0.0186
   98MOL0     H13215   8.971   2.046   1.452 -1.0644  0.0425 -1.0679
   98MOL0     H13216   8.799   1.686   1.115 -0.6250 -1.3489  1.9250
   98MOL0     H13217   8.592   1.614   0.998  0.8893 -0.2137  0.2616
   98MOL0     H13218   8.346   1.916   0.845 -0.3826  0.3970  1.2929
   98MOL0     H13219   8.243   1.910   0.991 -1.8364 -0.3939  0.7566
   98MOL0     H13220   8.137   1.706   0.910 -0.4185  0.5194  1.1449
   98MOL0     H13221   8.212   1.734   0.752  0.1071 -0.1672  0.1491
   98MOL0     H13222   8.106   1.956   0.727 -1.9866  2.1487  2.1324
   98MOL0     H13223   8.023   1.936   0.883 -2.0134 -1.3811  0.1477
   98MOL0     H13224   7.979   1.754   0.645 -0.8106 -1.0689 -0.1861
   98MOL0     H13225   7.926   1.728   0.813  1.8547  0.8358  1.4793
   98MOL0     H13226   7.629   1.988   0.687  1.0865 -0.1226 -1.0387
   98MOL0     H13227   8.405   1.983   1.102 -1.9068 -3.5047 -1.4063
   98MOL0     H13228   8.489   2.153   1.219  0.5132  0.8204 -1.8899
   98MOL0     H13229   8.610   2.105   1.336 -1.2072 -0.3724  0.7115
   98MOL0     H13230   8.665   2.167   1.174 -1.1190 -0.5512 -2.1458
   99MOL0     O13231   5.346   2.847   8.446 -0.3862 -0.0409  0.1256
   99MOL0     C13232   5.280   2.945   8.472  0.0851  1.0713 -1.1572
   99MOL0     O13233   5.312   3.073   8.442 -0.0734  0.7954  0.1371
   99MOL0     C13234   5.441   3.087   8.410  0.3445  0.1810 -0.1329
   99MOL0     C13235   5.545   3.047   8.496 -0.1460  0.5195 -0.5932
   99MOL0     C13236   5.676   3.045   8.461  0.6505 -0.4353 -0.0871
   99MOL0     C13237   5.709   3.088   8.331  0.7736 -0.9318 -0.8436
   99MOL0     O13238   5.828   3.085   8.271 -0.5479  0.3593 -0.0612
   99MOL0     C13239   5.910   2.968   8.315 -0.8217 -0.1271 -0.0751
   99MOL0     C13240   6.032   2.957   8.233 -0.3057  0.2913 -0.1873
   99MOL0     C13241   6.093   3.100   8.223 -0.3531 -0.2047  0.3228
   99MOL0     C13242   6.232   3.091   8.153  0.0699  0.2579 -0.4361
   99MOL0     C13243   6.334   3.000   8.226  0.1142  0.1918  0.2759
   99MOL0     C13244   6.475   3.013   8.162 -0.1597  0.7164  0.6008
   99MOL0     C13245   6.577   2.947   8.258  0.2687  0.6610  0.8269
   99MOL0     C13246   6.703   2.922   8.162 -0.6693  0.0150  0.8112
   99MOL0     N13247   6.824   2.867   8.230 -0.3546 -0.0527  0.6507
   99MOL0     C13248   6.954   2.884   8.186 -0.3992 -0.9560 -0.3714
   99MOL0     C13249   7.037   2.820   8.273  0.1758  0.2565 -0.4218
   99MOL0     C13250   7.188   2.809   8.277 -0.4280 -0.9543  0.1542
   99MOL0     C13251   7.254   2.746   8.408 -0.6288  0.4306  0.1388
   99MOL0     C13252   7.409   2.746   8.391  0.1460  0.3228 -0.0709
   99MOL0     C13253   7.474   2.688   8.509  0.7155  0.3997  0.6429
   99MOL0     O13254   7.613   2.694   8.496  0.7933 -0.2197 -0.0253
   99MOL0     C13255   7.687   2.661   8.607  1.3294 -0.1255  0.1542
   99MOL0     C13256   7.633   2.627   8.736  0.5159  0.7393 -0.3138
   99MOL0     C13257   7.716   2.616   8.847  0.6830 -0.5518 -0.5036
   99MOL0     C13258   7.852   2.615   8.833  0.1993  0.1534  0.5335
   99MOL0     C13259   7.931   2.593   8.958 -0.5527  0.3800 -0.4016
   99MOL0     O13260   7.875   2.527   9.067 -0.4615  0.5441 -0.5492
   99MOL0     C13261   7.964   2.488   9.168  0.1619 -0.7869  0.0625
   99MOL0     C13262   8.028   2.582   9.250 -0.3508 -1.1242  0.0688
   99MOL0     C13263   8.123   2.536   9.336  0.4308 -0.3783 -0.3885
   99MOL0     C13264   8.150   2.403   9.355 -0.0804  0.0403 -0.4852
   99MOL0     O13265   8.245   2.368   9.445 -0.4836  0.3922 -0.1262
   99MOL0     C13266   8.374   2.415   9.414  0.3720 -0.3438  0.9847
   99MOL0     C13267   8.485   2.338   9.485  0.2299  0.0819  0.4115
   99MOL0     C13268   8.490   2.199   9.420  0.6876 -0.4130  0.7604
   99MOL0     C13269   8.585   2.101   9.495 -0.3745  0.1430 -0.8559
   99MOL0     C13270   8.597   1.973   9.401  0.1421  0.5989  0.0879
   99MOL0     C13271   8.690   1.870   9.474  0.4019  0.6512  0.6766
   99MOL0     C13272   8.697   1.737   9.391  0.4977  0.6313 -1.0610
   99MOL0     C13273   8.784   1.627   9.455  0.0554  0.4342  0.5943
   99MOL0    Cl13274   8.940   1.703   9.495  0.1255 -0.3527  0.2949
   99MOL0     C13275   8.081   2.305   9.283  0.8527  0.1717 -0.0439
   99MOL0     C13276   7.998   2.351   9.181 -0.0774  0.6183  0.8500
   99MOL0     O13277   8.049   2.618   8.953 -0.0276 -0.6813  0.2509
   99MOL0     C13278   7.907   2.649   8.709 -0.4294 -0.3742  0.1934
   99MOL0     C13279   7.823   2.676   8.598 -0.5392 -0.4353  1.0629
   99MOL0     N13280   6.948   2.751   8.359 -0.6730  0.5169 -0.1935
   99MOL0     N13281   6.826   2.788   8.335  0.2285  0.9958  0.5544
   99MOL0     C13282   5.605   3.142   8.250 -0.7874  0.2860 -0.4920
   99MOL0     C13283   5.469   3.141   8.289  0.3894  0.7621  0.2311
   99MOL0     C13284   5.160   2.928   8.555  0.0072  0.4555  0.1913
   99MOL0     C13285   5.050   3.017   8.534 -1.1794 -0.6151 -0.0612
   99MOL0     C13286   4.921   2.986   8.589 -0.5532  0.9746 -0.0946
   99MOL0     C13287   4.912   2.876   8.677  0.3136 -0.0399 -0.4542
   99MOL0     O13288   4.780   2.846   8.712 -0.0048 -0.3506  0.4941
   99MOL0     C13289   4.760   2.754   8.819  0.3097  0.6088  0.0412
   99MOL0     C13290   4.610   2.743   8.835 -0.5740  0.4909  0.0052
   99MOL0     C13291   4.557   2.848   8.945 -0.3452  0.6908  0.5929
   99MOL0     C13292   4.408   2.840   8.938  0.3103  0.1955 -1.0819
   99MOL0     C13293   4.331   2.715   8.942  0.2801  0.5901  0.9494
   99MOL0     C13294   4.271   2.611   8.933 -0.4982 -0.7140 -0.6761
   99MOL0     C13295   5.024   2.810   8.722  0.5414 -0.1159 -0.1854
   99MOL0     C13296   5.147   2.832   8.662  0.4227  0.0121  0.5883
   99MOL0     C13297   5.269   2.758   8.713 -0.2100  0.4171  0.4637
   99MOL0     H13298   5.514   2.999   8.589  4.1391 -0.7655  0.4196
   99MOL0     H13299   5.747   2.993   8.523  1.1048  0.1140 -0.1441
   99MOL0     H13300   5.952   2.990   8.414  1.0389 -1.5607 -0.4839
   99MOL0     H13301   5.850   2.876   8.312 -2.3794  0.8535  0.0611
   99MOL0     H13302   6.003   2.924   8.133 -0.0719 -0.6424  0.0352
   99MOL0     H13303   6.093   2.884   8.287 -3.8283 -0.8220  2.6541
   99MOL0     H13304   6.098   3.133   8.327 -0.4225 -1.4803  0.7461
   99MOL0     H13305   6.035   3.170   8.162 -0.4862 -0.3441  0.2873
   99MOL0     H13306   6.225   3.062   8.048  0.5673  1.8895 -0.9533
   99MOL0     H13307   6.270   3.193   8.159  0.3057  0.1091  0.9877
   99MOL0     H13308   6.332   3.027   8.332 -1.1682  1.0487  0.0579
   99MOL0     H13309   6.308   2.895   8.205 -1.1435  0.8497 -1.9076
   99MOL0     H13310   6.477   2.958   8.068  2.2609 -0.6359  1.3760
   99MOL0     H13311   6.504   3.118   8.148 -1.3776  1.4892  3.2163
   99MOL0     H13312   6.536   2.851   8.293 -0.6820  0.3314 -1.0394
   99MOL0     H13313   6.607   3.009   8.343  1.0098 -0.1173  1.1502
   99MOL0     H13314   6.668   2.858   8.081  0.0751  1.7887 -1.0281
   99MOL0     H13315   6.730   3.018   8.116 -1.7876 -0.1064 -0.1372
   99MOL0     H13316   6.979   2.939   8.096 -0.1461  1.0321  0.8587
   99MOL0     H13317   7.228   2.743   8.199 -2.6781 -1.5657 -0.5722
   99MOL0     H13318   7.240   2.905   8.269  1.3749 -1.5809  2.8562
   99MOL0     H13319   7.215   2.819   8.479 -2.4124  1.3579 -1.6844
   99MOL0     H13320   7.217   2.646   8.433 -0.8124  1.2144  3.3624
   99MOL0     H13321   7.450   2.846   8.376 -0.9311  1.2018  2.4730
   99MOL0     H13322   7.444   2.701   8.297  2.2148  2.5350 -0.4741
   99MOL0     H13323   7.439   2.586   8.528 -3.2484  1.8178  2.0083
   99MOL0     H13324   7.438   2.747   8.593 -0.9666 -0.8081  0.8346
   99MOL0     H13325   7.526   2.609   8.742  0.6747 -2.6744 -3.5775
   99MOL0     H13326   7.676   2.600   8.947  0.3884 -0.0841 -0.5481
   99MOL0     H13327   7.998   2.686   9.238 -0.3324 -1.2645 -1.3676
   99MOL0     H13328   8.178   2.602   9.403 -0.9313  2.5349 -1.9578
   99MOL0     H13329   8.381   2.408   9.305  0.0193  0.6229  0.8889
   99MOL0     H13330   8.391   2.519   9.443 -0.0701  0.2693 -0.7904
   99MOL0     H13331   8.586   2.378   9.473  0.6962 -0.9005  0.9126
   99MOL0     H13332   8.465   2.325   9.592 -1.2828 -4.5377 -0.1894
   99MOL0     H13333   8.390   2.155   9.422  0.7811 -0.6479  0.3262
   99MOL0     H13334   8.517   2.202   9.314  1.7142 -2.0339  0.9335
   99MOL0     H13335   8.555   2.076   9.597  0.2803  1.7250 -0.2468
   99MOL0     H13336   8.685   2.145   9.504  1.5932 -4.1243  1.3059
   99MOL0     H13337   8.636   1.998   9.301 -2.2640  1.8161 -0.6238
   99MOL0     H13338   8.499   1.925   9.396 -1.0034  2.7437  0.4985
   99MOL0     H13339   8.790   1.910   9.495  1.0069 -0.7183  0.5043
   99MOL0     H13340   8.654   1.847   9.575  0.7999 -1.0432  0.4530
   99MOL0     H13341   8.738   1.772   9.296  1.4098  2.3091 -0.0937
   99MOL0     H13342   8.595   1.702   9.371  0.7082  0.2401 -1.4448
   99MOL0     H13343   8.737   1.583   9.543 -2.2799  0.3892 -0.6096
   99MOL0     H13344   8.810   1.544   9.389 -1.9605 -0.7551  1.2074
   99MOL0     H13345   8.113   2.202   9.295  1.3357  0.6448  4.4003
   99MOL0     H13346   7.956   2.278   9.113  0.6763  0.5565  0.4413
   99MOL0     H13347   8.014   2.658   8.695 -0.3630 -1.6073 -0.2345
   99MOL0     H13348   7.865   2.712   8.505 -3.3270  0.8971  0.2171
   99MOL0     H13349   5.638   3.190   8.158  0.9895  3.6612  1.6919
   99MOL0     H13350   5.395   3.165   8.213  0.8044 -0.2831 -0.5308
   99MOL0     H13351   5.064   3.106   8.473  1.3802 -1.4627 -0.8334
   99MOL0     H13352   4.839   3.050   8.557 -0.6918  2.1459  2.3930
   99MOL0     H13353   4.800   2.808   8.905 -2.2793  2.2581  0.3205
   99MOL0     H13354   4.808   2.662   8.785  0.5062  0.7194  0.0197
   99MOL0     H13355   4.593   2.640   8.870 -0.8842  0.1226 -1.1893
   99MOL0     H13356   4.574   2.756   8.732 -1.2106 -2.1818 -0.1793
   99MOL0     H13357   4.584   2.949   8.912  2.4733  0.1486  0.9723
   99MOL0     H13358   4.594   2.827   9.046  1.4734 -0.9058 -0.3347
   99MOL0     H13359   4.373   2.894   9.026 -1.1946  0.6391 -1.9259
   99MOL0     H13360   4.374   2.897   8.852 -0.2698  0.1516 -0.8814
   99MOL0     H13361   4.207   2.526   8.923 -0.1754 -1.3779  2.1599
   99MOL0     H13362   5.018   2.730   8.795  1.2343  0.3721  0.4369
   99MOL0     H13363   5.354   2.826   8.709  0.1108 -0.0397 -1.4303
   99MOL0     H13364   5.249   2.728   8.816 -0.3428  0.0011  0.3196
   99MOL0     H13365   5.296   2.665   8.662 -1.9352 -2.4113  4.1904
  100MOL0     O13366   2.251  10.645   7.480 -0.1782  0.9465 -0.1434
  100MOL0     C13367   2.240  10.629   7.357 -0.0480  0.5048 -0.3848
  100MOL0     O13368   2.309  10.699   7.264 -0.2692 -0.5680  0.1932
  100MOL0     C13369   2.417  10.767   7.314 -0.0988 -0.6661  0.5000
  100MOL0     C13370   2.406  10.884   7.391 -0.2378 -0.8539  0.1888
  100MOL0     C13371   2.519  10.959   7.422 -0.0362  0.0777 -0.3013
  100MOL0     C13372   2.645  10.913   7.385  0.2104 -0.2478  1.1069
  100MOL0     O13373   2.751  11.001   7.399 -0.3607  0.1054  0.0498
  100MOL0     C13374   2.883  10.944   7.423 -0.1593  0.2284 -0.0126
  100MOL0     C13375   2.994  11.050   7.432  0.8702 -0.1896  0.0787
  100MOL0     C13376   3.026  11.115   7.294 -0.5317 -0.3308  1.0007
  100MOL0     C13377   3.158  11.056   7.228  0.5345 -0.1987  0.0903
  100MOL0     C13378   3.278  11.046   7.317  0.6410 -0.6442 -0.4063
  100MOL0     C13379   3.412  11.029   7.239 -0.3486  0.3588 -0.8038
  100MOL0     C13380   3.415  10.920   7.132  0.1803  0.7860  0.2053
  100MOL0     C13381   3.561  10.893   7.076 -0.3526  0.7529 -0.3607
  100MOL0     N13382   3.608  11.014   7.008  0.2145  0.5898 -0.1922
  100MOL0     C13383   3.715  11.098   7.042  0.1454  0.6557  0.4595
  100MOL0     C13384   3.725  11.188   6.946 -0.7186  0.1464  0.1001
  100MOL0     C13385   3.832  11.291   6.943  0.1605 -0.8137 -0.3024
  100MOL0     C13386   3.762  11.427   6.947 -0.2165 -1.0110  0.4234
  100MOL0     C13387   3.861  11.544   6.917  0.2433 -0.7170 -0.1912
  100MOL0     C13388   3.803  11.678   6.954  0.1726 -0.1909  0.6111
  100MOL0     O13389   3.782  11.682   7.099 -0.2123 -0.6987 -0.1958
  100MOL0     C13390   3.736  11.801   7.150 -0.6981  0.0093  0.1353
  100MOL0     C13391   3.736  11.819   7.287 -0.3672 -0.0880 -0.0951
  100MOL0     C13392   3.701  11.935   7.346  0.3067  0.3473 -0.5347
  100MOL0     C13393   3.659  12.049   7.268 -0.3966 -0.4362 -0.1624
  100MOL0     C13394   3.635  12.175   7.341  0.1176  0.4322 -0.5183
  100MOL0     O13395   3.627  12.163   7.476  0.0956 -1.1989  0.0634
  100MOL0     C13396   3.592  12.277   7.542  0.4908 -0.2288  0.0400
  100MOL0     C13397   3.683  12.357   7.609 -0.0283 -1.1509  0.1404
  100MOL0     C13398   3.639  12.476   7.668  0.2657 -0.0320 -0.5688
  100MOL0     C13399   3.498  12.509   7.669  0.3968  0.3463 -0.1464
  100MOL0     O13400   3.466  12.635   7.725 -0.3791 -0.4346 -0.3808
  100MOL0     C13401   3.331  12.650   7.777  0.2879  0.5243 -0.2823
  100MOL0     C13402   3.304  12.559   7.897  0.6583 -0.1117  0.3405
  100MOL0     C13403   3.423  12.572   7.992  0.0105  0.2974 -0.5597
  100MOL0     C13404   3.389  12.513   8.133  0.4090 -0.3221 -0.4409
  100MOL0     C13405   3.513  12.497   8.225  0.6566 -0.0728 -0.0739
  100MOL0     C13406   3.565  12.640   8.261  0.0391 -0.0928 -0.1987
  100MOL0     C13407   3.666  12.643   8.368 -0.2053 -0.8304 -0.8515
  100MOL0     C13408   3.712  12.789   8.376  0.0408  0.4840  0.1506
  100MOL0    Cl13409   3.878  12.789   8.418  0.7746  0.0568  0.3913
  100MOL0     C13410   3.413  12.430   7.598 -0.6373  0.1440 -0.1441
  100MOL0     C13411   3.459  12.318   7.525 -0.4708 -0.4790  0.4354
  100MOL0     O13412   3.608  12.275   7.270  0.6744 -0.1937 -0.4717
  100MOL0     C13413   3.658  12.038   7.128  0.2709  0.2739 -0.0634
  100MOL0     C13414   3.704  11.919   7.070  0.1330 -0.0747  0.7599
  100MOL0     N13415   3.636  11.158   6.853  0.7488  0.0443  0.5344
  100MOL0     N13416   3.570  11.052   6.883  0.0572  1.0550 -1.3370
  100MOL0     C13417   2.660  10.798   7.307 -0.2049  0.1704  0.0669
  100MOL0     C13418   2.542  10.728   7.271 -0.2833 -0.7192 -0.7463
  100MOL0     C13419   2.139  10.532   7.301  0.3605 -0.0013 -0.2244
  100MOL0     C13420   2.162  10.485   7.177 -0.0963 -0.9349  0.2124
  100MOL0     C13421   2.067  10.395   7.122 -0.4938  0.1248 -1.0932
  100MOL0     C13422   1.949  10.359   7.188  1.0512  0.0478  0.0651
  100MOL0     O13423   1.847  10.279   7.134  0.0236  0.4011 -0.7373
  100MOL0     C13424   1.775  10.191   7.214  0.2238 -0.5062 -0.3518
  100MOL0     C13425   1.672  10.129   7.127  0.8205  0.3930 -0.1847
  100MOL0     C13426   1.603  10.012   7.201 -0.1545 -0.3782  0.4916
  100MOL0     C13427   1.486   9.963   7.123 -0.0832  0.5383  0.8442
  100MOL0     C13428   1.433   9.835   7.161  0.4953 -0.2056 -0.9034
  100MOL0     C13429   1.380   9.734   7.198  0.4510  0.1133 -0.4204
  100MOL0     C13430   1.929  10.414   7.318 -0.0527  0.0408  0.0511
  100MOL0     C13431   2.022  10.503   7.378  0.9974  0.6472 -0.6222
  100MOL0     C13432   1.996  10.548   7.523 -0.5304 -0.2804 -0.8369
  100MOL0     H13433   2.310  10.924   7.423 -0.3872 -1.0432 -0.0237
  100MOL0     H13434   2.496  11.046   7.482  0.9685 -0.8963  1.5908
  100MOL0     H13435   2.876  10.878   7.510  0.2534  1.2256  0.8070
  100MOL0     H13436   2.909  10.876   7.342 -3.6367  0.2132 -1.2499
  100MOL0     H13437   3.085  11.011   7.479  0.1937 -1.7852  0.1219
  100MOL0     H13438   2.946  11.121   7.500  1.0562  0.1538 -0.1454
  100MOL0     H13439   3.033  11.224   7.307 -0.9561 -0.3580  1.4762
  100MOL0     H13440   2.944  11.098   7.224 -0.9861 -1.1291  1.7142
  100MOL0     H13441   3.129  10.961   7.185 -1.4276 -0.0498  0.9731
  100MOL0     H13442   3.194  11.127   7.153 -1.1698 -0.6998 -1.2623
  100MOL0     H13443   3.298  11.129   7.385 -1.8163 -1.5499  1.5730
  100MOL0     H13444   3.258  10.959   7.381 -2.7658 -0.0205 -0.4031
  100MOL0     H13445   3.435  11.122   7.188  1.0999 -0.3964 -1.5990
  100MOL0     H13446   3.487  11.010   7.317 -1.1735  1.3654  0.2678
  100MOL0     H13447   3.347  10.937   7.048  1.2443 -1.0473 -1.1142
  100MOL0     H13448   3.380  10.827   7.178  2.0857 -0.0211  0.1273
  100MOL0     H13449   3.639  10.875   7.151 -0.0969  1.3522 -0.4744
  100MOL0     H13450   3.560  10.797   7.023 -1.7703 -0.5406  1.8744
  100MOL0     H13451   3.786  11.076   7.121  0.3913 -1.4417 -0.2697
  100MOL0     H13452   3.904  11.278   7.024 -0.5416 -0.9506  0.3217
  100MOL0     H13453   3.878  11.286   6.844 -0.6000  3.1286 -1.0246
  100MOL0     H13454   3.682  11.439   6.875 -0.6588  1.6347  1.2626
  100MOL0     H13455   3.711  11.445   7.042  0.1392  2.5615  0.0656
  100MOL0     H13456   3.864  11.550   6.808  0.3123  1.1199 -0.1192
  100MOL0     H13457   3.958  11.526   6.964  0.3491  0.7798  0.2003
  100MOL0     H13458   3.706  11.700   6.908  1.1096  1.5852 -0.6666
  100MOL0     H13459   3.871  11.759   6.927  0.9798 -1.5818 -1.8438
  100MOL0     H13460   3.767  11.741   7.356  2.0444  3.0190  2.7109
  100MOL0     H13461   3.718  11.934   7.453 -0.4005 -0.5216 -0.4183
  100MOL0     H13462   3.789  12.332   7.606  0.2919  0.1579  0.2246
  100MOL0     H13463   3.702  12.554   7.709  0.6843 -1.0486  0.7852
  100MOL0     H13464   3.324  12.755   7.807 -0.9775  0.0146  1.3343
  100MOL0     H13465   3.257  12.640   7.697 -0.0096  0.4315  0.0009
  100MOL0     H13466   3.214  12.590   7.951 -0.0272 -1.3868 -0.0346
  100MOL0     H13467   3.282  12.458   7.860  3.1897 -1.0155  1.1000
  100MOL0     H13468   3.508  12.519   7.949 -0.7631  0.9946 -3.0903
  100MOL0     H13469   3.444  12.676   8.020  1.4725 -0.4202  1.2510
  100MOL0     H13470   3.334  12.418   8.129 -0.2135 -0.0512  1.1563
  100MOL0     H13471   3.325  12.584   8.185  0.4321 -1.2762  0.9618
  100MOL0     H13472   3.589  12.446   8.165 -0.2284 -2.9529  1.1258
  100MOL0     H13473   3.485  12.436   8.311 -1.6526  1.1336  0.1225
  100MOL0     H13474   3.613  12.682   8.172 -0.9575 -0.3849 -0.9026
  100MOL0     H13475   3.480  12.700   8.294  1.0392 -0.0157  2.4719
  100MOL0     H13476   3.754  12.582   8.345  1.5986  1.1521  0.4964
  100MOL0     H13477   3.635  12.600   8.464  1.9000 -1.6543 -0.4777
  100MOL0     H13478   3.699  12.829   8.275 -2.1989 -1.3886 -0.3904
  100MOL0     H13479   3.657  12.849   8.449  2.4371  1.0791  1.5831
  100MOL0     H13480   3.310  12.462   7.583 -0.4703  1.6254  1.5544
  100MOL0     H13481   3.401  12.257   7.456 -0.5677  1.0584 -0.9231
  100MOL0     H13482   3.634  12.123   7.065 -6.8672 -0.3059  1.0549
  100MOL0     H13483   3.717  11.917   6.963 -0.8525 -1.4900  0.6346
  100MOL0     H13484   2.753  10.771   7.258 -1.2125 -1.0298 -1.2692
  100MOL0     H13485   2.554  10.640   7.209  2.0294 -0.7468 -0.3571
  100MOL0     H13486   2.252  10.511   7.122  0.1908  0.6397  1.3709
  100MOL0     H13487   2.075  10.362   7.019  1.2427 -1.1147 -0.6181
  100MOL0     H13488   1.719  10.240   7.295 -2.5084 -1.3225 -1.6155
  100MOL0     H13489   1.847  10.121   7.257  0.5008  0.5126  0.9042
  100MOL0     H13490   1.712  10.103   7.029  0.1514  0.1732 -0.4070
  100MOL0     H13491   1.606  10.212   7.100  1.5144  1.4436  1.1982
  100MOL0     H13492   1.569  10.048   7.299  2.1036  1.9930  0.5249
  100MOL0     H13493   1.677   9.933   7.218 -1.0845 -1.0874  1.3502
  100MOL0     H13494   1.406  10.038   7.129  0.2667  0.9974 -0.0412
  100MOL0     H13495   1.511   9.961   7.017  2.0075  2.3008  1.2322
  100MOL0     H13496   1.333   9.640   7.220  0.5086  0.0857 -0.4150
  100MOL0     H13497   1.839  10.389   7.374 -2.0071  2.6114 -1.7144
  100MOL0     H13498   1.894  10.527   7.555 -1.0516  0.6955 -1.8232
  100MOL0     H13499   2.062  10.499   7.596  1.4792  2.0954 -0.9481
  100MOL0     H13500   2.018  10.655   7.526  2.1059 -0.6758  4.1809
  101MOL0     O13501  10.793   5.202  10.091  0.6449  0.1091 -0.1203
  101MOL0     C13502  10.762   5.255   9.988  0.4799  0.6575  0.7267
  101MOL0     O13503  10.841   5.321   9.895  1.2202  0.3376 -0.1597
  101MOL0     C13504  10.971   5.334   9.904 -0.2411 -1.3403 -0.6407
  101MOL0     C13505  11.060   5.230   9.889 -0.1885  0.1576  0.4452
  101MOL0     C13506  11.193   5.246   9.904 -0.4864 -0.7888  0.1992
  101MOL0     C13507  11.245   5.367   9.943  0.1204 -0.3260 -0.3145
  101MOL0     O13508  11.384   5.398   9.969 -0.2076 -0.2953 -0.0667
  101MOL0     C13509  11.488   5.297   9.954 -0.2835 -0.5737  0.2120
  101MOL0     C13510  11.540   5.302   9.815  1.3616  0.7574 -1.1237
  101MOL0     C13511  11.621   5.423   9.785 -0.2060 -0.6052 -0.0008
  101MOL0     C13512  11.766   5.407   9.835  0.0745  0.8939  0.4046
  101MOL0     C13513  11.840   5.540   9.800  0.1823 -0.0860  0.4550
  101MOL0     C13514  11.987   5.525   9.816 -1.2320 -0.7330  0.8439
  101MOL0     C13515  12.058   5.659   9.787  0.4620  0.2332  0.0900
  101MOL0     C13516  12.209   5.661   9.815  0.1816  0.1249  0.3049
  101MOL0     N13517  12.245   5.794   9.879  0.6261 -0.6084 -1.0447
  101MOL0     C13518  12.319   5.898   9.829 -0.0700  0.2914 -0.6343
  101MOL0     C13519  12.350   5.976   9.938  0.0153  0.1615  0.1183
  101MOL0     C13520  12.430   6.104   9.940  0.0195  0.2613  0.3475
  101MOL0     C13521  12.573   6.094   9.887 -0.0866  0.0680  0.1324
  101MOL0     C13522  12.673   6.042   9.992 -0.0712 -0.5075 -0.5477
  101MOL0     C13523  12.809   6.028   9.925 -0.0943  0.2311  0.5265
  101MOL0     O13524  12.879   6.156   9.926 -0.4783 -0.2408 -1.2140
  101MOL0     C13525  13.004   6.157   9.883 -0.1216 -0.2658  0.0289
  101MOL0     C13526  13.058   6.285   9.896 -0.7542  0.2847  0.6445
  101MOL0     C13527  13.197   6.307   9.855 -0.2386 -0.0182  0.2546
  101MOL0     C13528  13.271   6.210   9.791  0.5397  0.3344  0.2740
  101MOL0     C13529  13.406   6.234   9.750 -0.0952  0.3554  0.1195
  101MOL0     O13530  13.468   6.345   9.805  0.1383  0.0378 -0.0555
  101MOL0     C13531  13.581   6.380   9.733 -0.4334 -0.3839 -0.0870
  101MOL0     C13532  13.574   6.442   9.610  0.1646  0.1685  0.3313
  101MOL0     C13533  13.687   6.485   9.542  0.9215  0.8130 -0.6220
  101MOL0     C13534  13.816   6.455   9.592  0.0037  0.2302  0.3108
  101MOL0     O13535  13.923   6.502   9.514  0.5780 -0.1605  0.1349
  101MOL0     C13536  14.048   6.531   9.576 -0.2275  0.3591  0.6993
  101MOL0     C13537  14.155   6.420   9.532 -0.2059  0.3512  0.3103
  101MOL0     C13538  14.298   6.468   9.569 -0.0723  0.8255  0.1473
  101MOL0     C13539  14.340   6.605   9.516 -0.0326  0.3400  0.0605
  101MOL0     C13540  14.485   6.660   9.521  0.8631 -0.5546 -0.5006
  101MOL0     C13541  14.593   6.602   9.429  0.5996 -0.2472 -0.4708
  101MOL0     C13542  14.740   6.614   9.496  0.6413  0.6784 -0.0938
  101MOL0     C13543  14.819   6.495   9.446  0.4833 -0.0147 -1.0694
  101MOL0    Cl13544  14.993   6.491   9.510  0.2306  0.1569  0.2907
  101MOL0     C13545  13.825   6.373   9.714 -0.0094  0.1852 -0.5917
  101MOL0     C13546  13.711   6.334   9.779  1.0821  0.0660 -0.3402
  101MOL0     O13547  13.470   6.142   9.700  0.6580  0.4988  0.0127
  101MOL0     C13548  13.217   6.073   9.797  1.1375 -0.4274  0.4741
  101MOL0     C13549  13.087   6.048   9.845  0.5677 -0.6995 -0.0313
  101MOL0     N13550  12.296   5.918  10.054  0.1520 -0.2733  0.5359
  101MOL0     N13551  12.229   5.815  10.016  0.5273 -0.3402  0.2254
  101MOL0     C13552  11.163   5.479   9.956  0.2544  0.1713 -0.0401
  101MOL0     C13553  11.023   5.462   9.935 -0.7855 -0.3581  0.4447
  101MOL0     C13554  10.611   5.255   9.965 -0.4536 -0.1435 -0.6148
  101MOL0     C13555  10.532   5.159  10.026  0.3812  0.2036  0.2206
  101MOL0     C13556  10.394   5.156  10.021 -0.5106  0.4410 -0.3319
  101MOL0     C13557  10.328   5.263   9.944  0.7802 -0.1678 -0.1825
  101MOL0     O13558  10.192   5.281   9.942  0.1692  0.2099 -0.6453
  101MOL0     C13559  10.106   5.189  10.011  0.5831  0.1269  0.4359
  101MOL0     C13560   9.972   5.212   9.948  0.5451 -0.0170  0.3994
  101MOL0     C13561   9.862   5.108  10.000 -0.3910 -0.5813 -0.1925
  101MOL0     C13562   9.886   4.969   9.946 -0.7752 -0.4189 -0.2510
  101MOL0     C13563   9.877   4.959   9.799  0.6994 -0.4453 -0.7076
  101MOL0     C13564   9.866   4.963   9.675  0.9098 -0.2496  0.1888
  101MOL0     C13565  10.406   5.360   9.881 -0.1249  0.6344  0.4029
  101MOL0     C13566  10.549   5.358   9.887  1.5298  0.9189 -0.2102
  101MOL0     C13567  10.608   5.479   9.821  0.5989  0.1728  0.2140
  101MOL0     H13568  11.020   5.130   9.872 -2.1265  0.9502 -0.0078
  101MOL0     H13569  11.265   5.166   9.888  1.0494  0.0628  2.3516
  101MOL0     H13570  11.565   5.327  10.025 -2.0988  2.0001  1.2078
  101MOL0     H13571  11.450   5.195   9.961  1.5494 -1.4456 -1.3242
  101MOL0     H13572  11.454   5.298   9.748 -1.4634 -0.8688  2.2736
  101MOL0     H13573  11.587   5.205   9.796 -0.2513 -0.4641  0.6656
  101MOL0     H13574  11.589   5.521   9.822  2.4583  0.6310 -0.7092
  101MOL0     H13575  11.619   5.435   9.676  1.6842  0.7080  0.0547
  101MOL0     H13576  11.766   5.387   9.942  0.2965 -2.8442 -0.1455
  101MOL0     H13577  11.814   5.321   9.787  2.7528  0.7189  3.0871
  101MOL0     H13578  11.821   5.570   9.697  0.0621 -1.7706 -0.0446
  101MOL0     H13579  11.801   5.617   9.868  2.5049  0.8357  0.8325
  101MOL0     H13580  12.015   5.496   9.918  1.1375 -0.7509  0.2651
  101MOL0     H13581  12.033   5.451   9.750  0.6503  1.3264 -0.2934
  101MOL0     H13582  12.004   5.730   9.851 -2.8266 -0.1278 -2.0585
  101MOL0     H13583  12.040   5.702   9.688 -0.2012  1.4377  0.7027
  101MOL0     H13584  12.228   5.582   9.888  1.7986  0.1211 -0.0923
  101MOL0     H13585  12.261   5.646   9.720  0.5788 -0.7595  0.6447
  101MOL0     H13586  12.367   5.896   9.732  0.3726 -2.0395 -0.4247
  101MOL0     H13587  12.373   6.184   9.892 -1.5211 -0.9036  0.1441
  101MOL0     H13588  12.426   6.130  10.046  1.2638  1.0315  0.2351
  101MOL0     H13589  12.576   6.024   9.803 -2.0433  3.2523 -2.9026
  101MOL0     H13590  12.612   6.184   9.837 -0.6254 -1.2143 -2.8379
  101MOL0     H13591  12.638   5.943  10.022 -2.5582 -0.2588 -2.3222
  101MOL0     H13592  12.680   6.116  10.072  0.7840  0.9985 -1.9541
  101MOL0     H13593  12.802   5.993   9.822  0.3827  2.4966 -0.3398
  101MOL0     H13594  12.867   5.962   9.990  0.1401  0.7454  0.8480
  101MOL0     H13595  13.019   6.379   9.933  2.7689  2.0235  0.3389
  101MOL0     H13596  13.241   6.404   9.872 -0.7129  0.6860 -2.1340
  101MOL0     H13597  13.475   6.470   9.573  0.4908  0.4457 -0.3569
  101MOL0     H13598  13.681   6.544   9.451  3.4101  1.0284 -0.7299
  101MOL0     H13599  14.081   6.633   9.553 -1.1046  1.0509  2.3448
  101MOL0     H13600  14.044   6.529   9.685 -0.2631  2.2740  0.7683
  101MOL0     H13601  14.135   6.317   9.564  0.9483  0.1444  0.4138
  101MOL0     H13602  14.148   6.400   9.425 -0.6410 -1.1007  0.5817
  101MOL0     H13603  14.323   6.457   9.675 -0.2008 -0.5561  0.0569
  101MOL0     H13604  14.372   6.401   9.524  0.5832  2.8167 -1.9276
  101MOL0     H13605  14.271   6.683   9.549 -0.5115 -0.2120  0.3683
  101MOL0     H13606  14.315   6.602   9.410  1.4441 -0.9001 -0.2939
  101MOL0     H13607  14.513   6.647   9.626 -0.5222 -1.5771 -0.2243
  101MOL0     H13608  14.483   6.768   9.503  0.6373 -0.8550 -2.5016
  101MOL0     H13609  14.559   6.502   9.402 -3.1632  0.9897 -0.9511
  101MOL0     H13610  14.592   6.652   9.332 -0.9074 -1.4012 -1.0837
  101MOL0     H13611  14.744   6.606   9.605  0.5608  1.1097 -0.0581
  101MOL0     H13612  14.790   6.707   9.469  3.1678 -0.2297  1.1322
  101MOL0     H13613  14.767   6.403   9.473 -2.9311  2.1295  0.4273
  101MOL0     H13614  14.827   6.511   9.338 -0.6200  1.6563 -0.9456
  101MOL0     H13615  13.926   6.349   9.747 -0.9408 -0.0746  2.3515
  101MOL0     H13616  13.697   6.269   9.864 -1.4872  1.6480  0.5860
  101MOL0     H13617  13.272   5.982   9.773 -2.1416 -2.8630  1.6013
  101MOL0     H13618  13.051   5.947   9.833  0.9861 -0.7284 -1.1375
  101MOL0     H13619  11.208   5.575   9.978 -0.6588  0.9232 -1.2879
  101MOL0     H13620  10.972   5.557   9.929  0.2194  0.2031  0.5219
  101MOL0     H13621  10.573   5.080  10.089  0.9490  0.3912  0.0973
  101MOL0     H13622  10.350   5.079  10.083  0.1123 -0.2962 -0.7911
  101MOL0     H13623  10.114   5.225  10.113  0.8614  1.4099 -0.0233
  101MOL0     H13624  10.132   5.084   9.995  3.9098  0.7044  1.3698
  101MOL0     H13625   9.988   5.205   9.840 -1.5268  1.4713 -0.0600
  101MOL0     H13626   9.947   5.314   9.975  1.7795  0.7169 -1.0566
  101MOL0     H13627   9.763   5.143   9.970 -1.0340 -0.4210  1.9415
  101MOL0     H13628   9.860   5.099  10.109 -0.0083 -0.6931 -0.1919
  101MOL0     H13629   9.986   4.937   9.976 -0.3738  1.3689  0.4185
  101MOL0     H13630   9.808   4.908   9.992  0.7600 -0.6363  2.2220
  101MOL0     H13631   9.853   4.964   9.569 -3.3056  3.3742  0.4647
  101MOL0     H13632  10.358   5.441   9.828  0.7200  2.9744  3.0034
  101MOL0     H13633  10.684   5.438   9.754  0.7639  2.5851 -1.1901
  101MOL0     H13634  10.539   5.531   9.754 -0.2958 -0.1458  0.8725
  101MOL0     H13635  10.666   5.545   9.887  0.0579  2.6403 -1.6393
  102MOL0     O13636   0.608   9.197  10.751 -0.6741 -0.5045 -0.1408
  102MOL0     C13637   0.616   9.179  10.630 -0.4746  0.4263  0.5653
  102MOL0     O13638   0.731   9.199  10.559 -0.4919  0.4426 -0.2125
  102MOL0     C13639   0.848   9.187  10.620 -0.4886 -0.0588  0.6577
  102MOL0     C13640   0.947   9.279  10.569 -0.0633 -0.2933  0.5723
  102MOL0     C13641   1.078   9.271  10.619  1.2353 -0.1625 -0.0130
  102MOL0     C13642   1.110   9.176  10.714 -0.2199  0.5005  0.2308
  102MOL0     O13643   1.232   9.173  10.780 -0.2042 -0.1534 -0.3016
  102MOL0     C13644   1.349   9.244  10.722 -0.1836 -0.4255  0.5217
  102MOL0     C13645   1.449   9.244  10.833 -0.9025  0.0354 -0.2433
  102MOL0     C13646   1.499   9.097  10.845 -0.7348 -0.3366 -0.7125
  102MOL0     C13647   1.645   9.108  10.926  0.2164 -0.1180 -0.0875
  102MOL0     C13648   1.703   8.964  10.945 -0.0611 -1.1380  0.3168
  102MOL0     C13649   1.830   8.962  11.024  0.2423  0.3614  0.6738
  102MOL0     C13650   1.855   8.827  11.092  0.5992 -0.0046  1.1785
  102MOL0     C13651   1.977   8.834  11.180 -0.9517 -0.0109 -0.5797
  102MOL0     N13652   2.111   8.839  11.117  0.6834  0.1608  0.7155
  102MOL0     C13653   2.183   8.951  11.104 -0.2497 -0.3938 -0.2150
  102MOL0     C13654   2.296   8.922  11.042 -0.7267 -1.0773  0.2799
  102MOL0     C13655   2.404   9.021  11.011  0.0350  0.5459  0.0076
  102MOL0     C13656   2.540   8.974  11.061  0.0757 -0.3258  0.6185
  102MOL0     C13657   2.656   9.028  10.981  0.9669  0.2715  0.0364
  102MOL0     C13658   2.793   8.986  11.043  0.7407  1.1344 -0.3924
  102MOL0     O13659   2.886   9.056  10.968 -0.2803 -1.4527 -0.4674
  102MOL0     C13660   3.021   9.043  10.996  0.8948  0.0852 -0.9815
  102MOL0     C13661   3.064   8.970  11.115 -0.1508 -0.0138  0.1978
  102MOL0     C13662   3.202   8.944  11.141  0.2178  0.0968  0.0904
  102MOL0     C13663   3.295   8.983  11.039 -0.4308 -0.8714 -0.0312
  102MOL0     C13664   3.438   8.968  11.061  0.5303  0.5947  0.2110
  102MOL0     O13665   3.484   8.941  11.183 -0.2300  1.0101 -0.3206
  102MOL0     C13666   3.614   8.971  11.204 -0.4008 -0.7801  1.1274
  102MOL0     C13667   3.714   8.875  11.210 -0.8778  1.1927 -0.7246
  102MOL0     C13668   3.849   8.905  11.232  0.3921 -0.4600  0.0727
  102MOL0     C13669   3.888   9.045  11.237  0.4718 -0.5707  0.1730
  102MOL0     O13670   4.017   9.084  11.258 -0.4392  0.4370  0.0739
  102MOL0     C13671   4.121   8.984  11.253  0.4934  0.5698 -0.3850
  102MOL0     C13672   4.258   9.038  11.217  0.1301  0.5464 -0.0786
  102MOL0     C13673   4.359   8.926  11.201  0.0938 -0.5830 -0.6214
  102MOL0     C13674   4.498   8.971  11.152  0.3045  0.4288  0.7233
  102MOL0     C13675   4.583   8.845  11.103  0.2799 -1.3691 -0.0296
  102MOL0     C13676   4.699   8.870  11.017 -1.0107 -1.1388  0.0623
  102MOL0     C13677   4.678   8.964  10.900 -0.1058  0.9972  0.2585
  102MOL0     C13678   4.688   9.113  10.932 -0.6508  0.0060  0.1848
  102MOL0    Cl13679   4.819   9.176  10.819 -0.0754 -0.5069 -0.0581
  102MOL0     C13680   3.785   9.136  11.233 -0.2201 -0.4693  0.2849
  102MOL0     C13681   3.650   9.103  11.221  0.3464 -0.2364 -0.5540
  102MOL0     O13682   3.506   8.980  10.961 -0.4264  0.2021 -0.7250
  102MOL0     C13683   3.252   9.044  10.921 -0.7190  0.1148 -0.4092
  102MOL0     C13684   3.124   9.080  10.906 -0.2430  0.0361 -0.2199
  102MOL0     N13685   2.290   8.783  11.007 -0.1982  0.2342 -0.8937
  102MOL0     N13686   2.183   8.737  11.059 -0.4921 -0.0071 -0.1887
  102MOL0     C13687   1.012   9.090  10.758 -0.0548  0.7257  0.2287
  102MOL0     C13688   0.887   9.089  10.708  0.1325 -0.2940 -0.2728
  102MOL0     C13689   0.488   9.169  10.552 -0.0467  0.6425 -0.3312
  102MOL0     C13690   0.503   9.129  10.414 -0.1223 -0.5710  0.3571
  102MOL0     C13691   0.390   9.098  10.338 -0.3856  0.0141 -0.0492
  102MOL0     C13692   0.263   9.097  10.394 -0.2813 -0.4173 -0.6774
  102MOL0     O13693   0.162   9.056  10.304  0.0076  0.1870 -0.2961
  102MOL0     C13694   0.029   9.029  10.360  0.3161 -0.1119 -0.1837
  102MOL0     C13695  -0.067   9.152  10.361 -0.5653  0.8852 -0.5131
  102MOL0     C13696  -0.214   9.112  10.350  0.5670 -0.3551  0.2393
  102MOL0     C13697  -0.261   9.093  10.198  0.5721  0.1091 -0.6060
  102MOL0     C13698  -0.397   9.035  10.186  0.6689  0.8584  0.2295
  102MOL0     C13699  -0.511   8.987  10.171 -0.4974  0.1144 -0.0087
  102MOL0     C13700   0.246   9.138  10.525 -0.1471  0.0172  0.1283
  102MOL0     C13701   0.356   9.176  10.603  0.3257 -0.0264  0.3019
  102MOL0     C13702   0.321   9.200  10.747 -0.2421 -0.0031  0.6012
  102MOL0     H13703   0.912   9.346  10.491 -2.0580 -0.6603  1.0860
  102MOL0     H13704   1.152   9.336  10.572  0.0481 -0.9386 -3.1812
  102MOL0     H13705   1.381   9.187  10.634  0.5690  0.2191  0.3694
  102MOL0     H13706   1.324   9.347  10.698  0.0241 -0.3282  0.7192
  102MOL0     H13707   1.410   9.294  10.922  0.1897  0.7011 -0.1140
  102MOL0     H13708   1.536   9.297  10.794 -0.5859 -0.1747  0.1613
  102MOL0     H13709   1.511   9.056  10.745  2.0942  2.0244 -1.4651
  102MOL0     H13710   1.433   9.038  10.910 -0.4834 -0.0362 -0.1735
  102MOL0     H13711   1.712   9.165  10.861  0.7788 -0.2077  0.4009
  102MOL0     H13712   1.636   9.175  11.012 -1.7557  1.1259 -1.1764
  102MOL0     H13713   1.626   8.898  10.987  0.2086 -1.6544  0.0155
  102MOL0     H13714   1.713   8.918  10.846  0.7000  0.3908 -0.3537
  102MOL0     H13715   1.914   8.982  10.958  1.5550 -1.2041  1.7840
  102MOL0     H13716   1.837   9.041  11.100 -1.9096 -1.2661  2.7178
  102MOL0     H13717   1.853   8.740  11.025  1.5864  0.6624  0.2514
  102MOL0     H13718   1.773   8.806  11.161  0.4481  1.7632  1.5743
  102MOL0     H13719   1.953   8.923  11.240  1.1018  0.6278 -0.6514
  102MOL0     H13720   1.964   8.744  11.240 -4.0503  0.0738 -0.9456
  102MOL0     H13721   2.150   9.045  11.147  0.4371 -1.5214  3.0758
  102MOL0     H13722   2.402   9.047  10.905  1.6049  2.1023  0.3168
  102MOL0     H13723   2.384   9.116  11.062 -0.6750 -0.5689  1.9427
  102MOL0     H13724   2.549   8.995  11.168  2.2286  1.1234  0.2284
  102MOL0     H13725   2.536   8.867  11.042 -3.5603 -0.2541  0.2311
  102MOL0     H13726   2.646   9.136  10.970  1.9744  0.3317 -0.4302
  102MOL0     H13727   2.652   8.995  10.876  0.6215  0.8492 -0.1356
  102MOL0     H13728   2.809   8.878  11.034  0.1270  1.0855 -0.9256
  102MOL0     H13729   2.794   9.018  11.148  1.4338 -1.2797  0.4067
  102MOL0     H13730   2.988   8.953  11.190 -1.0116  2.1861 -0.0849
  102MOL0     H13731   3.243   8.911  11.236  3.8140  1.8350 -0.6577
  102MOL0     H13732   3.686   8.771  11.200  1.6084  0.1669  1.8918
  102MOL0     H13733   3.916   8.820  11.239  2.3113  1.0790  1.5048
  102MOL0     H13734   4.128   8.925  11.345 -3.4114  1.5634  0.7727
  102MOL0     H13735   4.089   8.912  11.178 -0.8041  1.3401 -0.6095
  102MOL0     H13736   4.253   9.092  11.123 -0.4317  0.8002  0.0939
  102MOL0     H13737   4.303   9.103  11.293  1.4124  0.9280 -1.1189
  102MOL0     H13738   4.358   8.870  11.295 -4.2729  2.6688  1.6443
  102MOL0     H13739   4.316   8.861  11.124  1.9187 -0.7476 -1.5596
  102MOL0     H13740   4.553   9.028  11.229  2.5509 -1.6655  0.7897
  102MOL0     H13741   4.473   9.032  11.065 -2.0277 -2.7114 -0.9930
  102MOL0     H13742   4.511   8.788  11.044 -1.1908  0.6200 -0.2903
  102MOL0     H13743   4.616   8.785  11.188 -2.8558  0.0769  2.4182
  102MOL0     H13744   4.787   8.907  11.069 -1.1797 -1.3675  0.5271
  102MOL0     H13745   4.714   8.772  10.970  0.1776 -1.3639  0.8662
  102MOL0     H13746   4.572   8.944  10.878  0.4676 -1.2322 -0.7370
  102MOL0     H13747   4.740   8.928  10.818  0.2981 -0.9719  1.3705
  102MOL0     H13748   4.594   9.166  10.917 -1.3476  0.5706  4.8732
  102MOL0     H13749   4.712   9.122  11.039 -0.7606  0.0779  0.2043
  102MOL0     H13750   3.812   9.235  11.268  1.5905 -1.0680  0.7181
  102MOL0     H13751   3.576   9.182  11.227  2.1908  1.7533 -2.2508
  102MOL0     H13752   3.321   9.089  10.850 -2.2310 -1.7378 -3.2178
  102MOL0     H13753   3.097   9.133  10.815  0.6162  0.3254 -0.3095
  102MOL0     H13754   1.050   9.019  10.832 -0.2242 -0.1046 -0.4638
  102MOL0     H13755   0.811   9.021  10.746  1.0473 -0.5424  1.1971
  102MOL0     H13756   0.589   9.124  10.348 -1.2241 -2.8975 -1.0530
  102MOL0     H13757   0.419   9.069  10.237  1.1113 -0.0466  0.3749
  102MOL0     H13758   0.040   8.987  10.460  1.8398 -0.1558 -0.3434
  102MOL0     H13759  -0.008   8.945  10.301  1.6304  0.0567 -1.2978
  102MOL0     H13760  -0.050   9.213  10.272 -1.8934 -0.9527 -2.1213
  102MOL0     H13761  -0.071   9.208  10.455 -0.4385 -0.0131  0.0470
  102MOL0     H13762  -0.276   9.193  10.390  0.6541 -0.1423 -0.0490
  102MOL0     H13763  -0.247   9.025  10.407  4.7639 -3.7280 -1.8581
  102MOL0     H13764  -0.265   9.187  10.144  2.3052 -0.1254 -1.2006
  102MOL0     H13765  -0.194   9.019  10.153 -1.4484 -2.8563  0.9197
  102MOL0     H13766  -0.606   8.938  10.170 -0.6412  0.3893 -1.4160
  102MOL0     H13767   0.146   9.131  10.564 -1.5891 -0.2425 -3.2556
  102MOL0     H13768   0.213   9.196  10.764 -1.3341  4.0951 -3.3988
  102MOL0     H13769   0.374   9.137  10.819  1.1029  0.8720  0.4108
  102MOL0     H13770   0.350   9.305  10.759  0.1797  0.1899 -1.6879
  103MOL0     O13771   6.773   2.687   0.593 -0.4400 -1.1314 -0.7013
  103MOL0     C13772   6.785   2.784   0.670  0.3707  0.2365  0.1173
  103MOL0     O13773   6.901   2.830   0.724  0.7037 -0.4023  0.2359
  103MOL0     C13774   7.020   2.771   0.693 -0.3485 -0.6707 -0.5494
  103MOL0     C13775   7.087   2.699   0.791 -0.3872 -0.4477 -0.0912
  103MOL0     C13776   7.212   2.627   0.767 -0.9040  0.5464 -1.0632
  103MOL0     C13777   7.280   2.651   0.652  0.8226 -1.0797  0.1705
  103MOL0     O13778   7.404   2.593   0.645  0.2401  0.3821 -0.4145
  103MOL0     C13779   7.477   2.578   0.517 -0.1200 -0.4797 -0.3714
  103MOL0     C13780   7.628   2.580   0.543  0.4784 -0.8115 -0.0578
  103MOL0     C13781   7.709   2.566   0.415 -0.2264  0.6296 -0.3029
  103MOL0     C13782   7.856   2.552   0.459 -0.4650 -0.3802  0.5503
  103MOL0     C13783   7.955   2.549   0.349 -0.9954 -0.6509 -0.3252
  103MOL0     C13784   8.108   2.540   0.384  0.6466  0.0751  0.2637
  103MOL0     C13785   8.161   2.651   0.473 -0.3783 -0.7196 -0.1120
  103MOL0     C13786   8.123   2.794   0.426  0.4873 -0.0773  0.1304
  103MOL0     N13787   8.195   2.893   0.504  0.0987  0.7435  0.5311
  103MOL0     C13788   8.147   2.961   0.613  0.0536 -0.4174 -0.3522
  103MOL0     C13789   8.260   3.020   0.670  0.1687 -0.5886 -0.0180
  103MOL0     C13790   8.242   3.120   0.782  1.1769  0.0339  0.1791
  103MOL0     C13791   8.182   3.071   0.907  0.4486 -0.1144 -0.9393
  103MOL0     C13792   8.126   3.183   1.008 -0.0258  0.5334  1.1611
  103MOL0     C13793   8.237   3.253   1.088 -0.7014  0.4224  0.6195
  103MOL0     O13794   8.289   3.171   1.191  0.9560 -0.1242  0.5459
  103MOL0     C13795   8.411   3.208   1.241 -0.2730 -0.0916  0.6078
  103MOL0     C13796   8.497   3.103   1.297 -0.1538  0.0857  0.1908
  103MOL0     C13797   8.616   3.143   1.349 -0.0680  0.1192  0.4464
  103MOL0     C13798   8.655   3.274   1.354 -0.1021  0.4966 -0.1651
  103MOL0     C13799   8.801   3.290   1.382 -0.3304 -0.2155 -0.1347
  103MOL0     O13800   8.843   3.418   1.390 -0.5334 -0.1601  0.6017
  103MOL0     C13801   8.983   3.429   1.403 -0.0669 -0.4878  0.1341
  103MOL0     C13802   9.059   3.416   1.288 -0.8425  0.3009  0.0437
  103MOL0     C13803   9.203   3.416   1.298  0.2522 -0.1085 -0.3713
  103MOL0     C13804   9.262   3.421   1.423 -0.1614 -0.5836 -0.4245
  103MOL0     O13805   9.397   3.437   1.438 -0.6020  0.0250  0.0105
  103MOL0     C13806   9.488   3.480   1.330 -0.1705 -0.1026 -1.1089
  103MOL0     C13807   9.639   3.504   1.375 -0.1629 -0.3675 -0.3343
  103MOL0     C13808   9.695   3.388   1.452  0.1827 -0.5948  0.5719
  103MOL0     C13809   9.679   3.255   1.372  0.0780  0.2361  0.0403
  103MOL0     C13810   9.769   3.151   1.431 -0.7218 -0.1024  0.3999
  103MOL0     C13811   9.722   3.103   1.562  0.4144 -0.0461 -0.6803
  103MOL0     C13812   9.816   2.998   1.608  0.0746  0.2291 -0.5098
  103MOL0     C13813   9.781   2.926   1.741 -0.4631  0.1958 -0.3030
  103MOL0    Cl13814   9.630   2.843   1.735  0.0814 -0.0309 -0.4230
  103MOL0     C13815   9.182   3.429   1.539  0.2764  0.0648 -0.1039
  103MOL0     C13816   9.044   3.441   1.523 -0.2648 -0.3143 -0.8417
  103MOL0     O13817   8.875   3.193   1.398  0.3157  0.2644  0.1749
  103MOL0     C13818   8.576   3.369   1.310  0.5686 -0.6219  0.1360
  103MOL0     C13819   8.449   3.345   1.250 -0.1354  0.1597 -0.1191
  103MOL0     N13820   8.372   2.988   0.598 -0.2457 -0.1312  0.8039
  103MOL0     N13821   8.328   2.909   0.495 -0.1588  0.7234  0.1858
  103MOL0     C13822   7.212   2.730   0.555  0.2485 -0.6052 -0.7978
  103MOL0     C13823   7.084   2.789   0.571 -0.8572 -0.3098 -0.3893
  103MOL0     C13824   6.653   2.854   0.711 -0.8272 -0.4235 -0.8357
  103MOL0     C13825   6.533   2.834   0.642 -0.2746  0.0281 -0.7059
  103MOL0     C13826   6.416   2.889   0.682  0.4788 -0.7468  0.5336
  103MOL0     C13827   6.393   2.969   0.793  0.0602 -0.2700  0.5935
  103MOL0     O13828   6.265   3.003   0.811  0.6155 -0.2807 -0.1042
  103MOL0     C13829   6.232   3.107   0.902 -0.1237 -0.6594  0.8800
  103MOL0     C13830   6.255   3.246   0.837 -1.2409 -0.7398  0.1944
  103MOL0     C13831   6.149   3.289   0.735  0.5910  0.1346 -0.1642
  103MOL0     C13832   6.160   3.237   0.590 -0.4879  0.1190 -0.1776
  103MOL0     C13833   6.265   3.312   0.512 -0.2916 -0.0548 -0.1482
  103MOL0     C13834   6.319   3.399   0.451 -0.5085 -0.3174 -0.2386
  103MOL0     C13835   6.508   2.997   0.861 -0.0929 -0.0245 -0.5237
  103MOL0     C13836   6.635   2.946   0.827  0.5037  0.0091 -0.1236
  103MOL0     C13837   6.747   2.977   0.929  0.1340 -0.3046  0.5364
  103MOL0     H13838   7.037   2.686   0.886 -1.4327  0.4619 -0.4939
  103MOL0     H13839   7.248   2.569   0.852 -1.4327  0.4278 -0.9158
  103MOL0     H13840   7.446   2.484   0.470  0.7897 -2.2086  2.2508
  103MOL0     H13841   7.457   2.665   0.454  0.4648 -0.0775 -0.0089
  103MOL0     H13842   7.641   2.505   0.621  0.2055 -1.5760 -0.7358
  103MOL0     H13843   7.660   2.679   0.577  1.2852 -0.0793 -2.7057
  103MOL0     H13844   7.712   2.656   0.353  3.5044  1.0698  0.2730
  103MOL0     H13845   7.689   2.485   0.345 -0.3473  1.7464 -1.6105
  103MOL0     H13846   7.883   2.635   0.525  2.2807  0.0848 -0.9928
  103MOL0     H13847   7.859   2.463   0.522 -2.5598 -0.9691 -0.1056
  103MOL0     H13848   7.932   2.458   0.294 -3.1126 -1.4615  1.7306
  103MOL0     H13849   7.949   2.642   0.293  1.6399  1.6456  2.8045
  103MOL0     H13850   8.126   2.449   0.443 -0.3162  0.0652  0.5609
  103MOL0     H13851   8.170   2.542   0.294  2.5594  3.2728  1.4788
  103MOL0     H13852   8.268   2.648   0.491 -0.2747 -1.3987 -0.7834
  103MOL0     H13853   8.112   2.639   0.571 -0.8520  0.1175 -0.2348
  103MOL0     H13854   8.150   2.805   0.320 -0.8643  1.2979 -0.1153
  103MOL0     H13855   8.015   2.809   0.434  0.4556 -0.2483  0.0272
  103MOL0     H13856   8.045   2.981   0.642  1.0976  1.9048  2.2335
  103MOL0     H13857   8.335   3.175   0.798  0.6331  1.3262 -0.8717
  103MOL0     H13858   8.168   3.195   0.750  1.1531 -0.7002 -1.6013
  103MOL0     H13859   8.093   3.013   0.883  0.2600 -0.0170 -0.4894
  103MOL0     H13860   8.251   3.001   0.955 -0.2802 -1.5760 -1.9639
  103MOL0     H13861   8.057   3.141   1.082 -0.3397  2.2644  1.9091
  103MOL0     H13862   8.072   3.257   0.949  1.3438 -0.9763 -2.2386
  103MOL0     H13863   8.200   3.341   1.140 -3.7927  0.7635 -1.8552
  103MOL0     H13864   8.315   3.287   1.020  0.6683 -0.3869  1.7034
  103MOL0     H13865   8.479   2.998   1.280  1.9885  0.0515 -2.5337
  103MOL0     H13866   8.681   3.060   1.377  1.3614  1.6275  1.7816
  103MOL0     H13867   9.013   3.407   1.191  0.4790  0.4314 -0.6125
  103MOL0     H13868   9.264   3.421   1.208  0.3899 -2.1670 -0.4360
  103MOL0     H13869   9.488   3.409   1.247 -0.5494 -2.2162  0.6156
  103MOL0     H13870   9.447   3.572   1.285  1.4476 -0.0718 -2.6268
  103MOL0     H13871   9.695   3.522   1.283 -0.9301  0.1254 -0.7206
  103MOL0     H13872   9.645   3.591   1.441  1.8814  1.1558 -2.3747
  103MOL0     H13873   9.803   3.400   1.466  0.8104  0.5529 -3.7591
  103MOL0     H13874   9.645   3.378   1.548  0.3313 -0.2248  0.6898
  103MOL0     H13875   9.697   3.267   1.265  3.4501  1.6758  0.6248
  103MOL0     H13876   9.576   3.219   1.383 -0.5362  0.0223 -4.6097
  103MOL0     H13877   9.873   3.184   1.438  0.0180 -1.9602 -0.9032
  103MOL0     H13878   9.772   3.073   1.355  3.0687  0.1857  0.0816
  103MOL0     H13879   9.714   3.189   1.629  1.4383  1.9587 -2.9933
  103MOL0     H13880   9.618   3.069   1.551 -0.6826  2.2543  1.5128
  103MOL0     H13881   9.915   3.043   1.611 -0.2835  0.9873  0.6544
  103MOL0     H13882   9.800   2.920   1.534  0.5901 -1.1584  0.8077
  103MOL0     H13883   9.856   2.851   1.766 -0.2744  0.7279  0.8078
  103MOL0     H13884   9.775   2.992   1.828  3.2472  0.1241  0.1679
  103MOL0     H13885   9.235   3.434   1.634  0.3102 -0.2507 -0.1039
  103MOL0     H13886   8.991   3.466   1.614 -0.3211 -4.4767  0.4658
  103MOL0     H13887   8.620   3.468   1.315 -0.9830  0.0568  0.5758
  103MOL0     H13888   8.382   3.427   1.226 -0.1472  0.0646 -0.4176
  103MOL0     H13889   7.276   2.755   0.471  1.3776  1.3991  0.5782
  103MOL0     H13890   7.041   2.850   0.493  2.4787  1.1123 -1.2929
  103MOL0     H13891   6.521   2.781   0.547 -1.0614  2.5583 -2.1195
  103MOL0     H13892   6.326   2.879   0.622  1.5342  2.9610 -2.0085
  103MOL0     H13893   6.294   3.101   0.993  1.0295 -0.2988  0.1356
  103MOL0     H13894   6.128   3.097   0.934 -0.1180  1.9279  1.9834
  103MOL0     H13895   6.342   3.250   0.770 -0.4251 -0.4868  1.2387
  103MOL0     H13896   6.268   3.325   0.912 -0.3643 -0.0571 -0.6359
  103MOL0     H13897   6.154   3.398   0.729  0.2506  0.0779 -2.0287
  103MOL0     H13898   6.047   3.263   0.764  0.8881 -1.2018 -0.2526
  103MOL0     H13899   6.192   3.132   0.592  0.3971  0.2781  3.8254
  103MOL0     H13900   6.067   3.246   0.535 -0.7424 -1.2521 -0.0147
  103MOL0     H13901   6.360   3.473   0.385 -0.5640 -0.9152 -0.9579
  103MOL0     H13902   6.502   3.047   0.957  0.1614 -1.0404  0.0409
  103MOL0     H13903   6.709   3.052   1.000 -0.5990  1.9573 -2.0462
  103MOL0     H13904   6.789   2.888   0.976  1.9427  1.0861  1.6963
  103MOL0     H13905   6.825   3.029   0.873 -1.4977  0.2229 -1.3341
  104MOL0     O13906  10.636   4.545   8.917 -0.3427 -0.5582 -0.0807
  104MOL0     C13907  10.594   4.643   8.851 -0.5105  0.1527  0.0619
  104MOL0     O13908  10.670   4.736   8.784 -0.2264  0.4555 -0.7242
  104MOL0     C13909  10.801   4.750   8.821 -0.5038  0.6987 -1.0570
  104MOL0     C13910  10.896   4.692   8.738 -0.1732 -0.8523  0.3188
  104MOL0     C13911  11.030   4.693   8.765  0.5376  0.2048 -0.0764
  104MOL0     C13912  11.078   4.757   8.880 -0.0196  0.3568 -0.2618
  104MOL0     O13913  11.214   4.764   8.883  0.1805  0.2617  0.3246
  104MOL0     C13914  11.262   4.726   9.014 -0.1904 -0.5545  0.6660
  104MOL0     C13915  11.410   4.681   9.002 -0.6795  0.4677  0.7374
  104MOL0     C13916  11.497   4.785   8.929  1.4949 -0.3331 -0.0574
  104MOL0     C13917  11.633   4.727   8.901 -0.1814 -0.8796  0.7475
  104MOL0     C13918  11.718   4.700   9.026  0.0898 -0.2570  0.6079
  104MOL0     C13919  11.742   4.818   9.118 -0.0545 -0.2096 -0.0153
  104MOL0     C13920  11.787   4.938   9.042  0.3934 -0.6827  0.0095
  104MOL0     C13921  11.838   5.051   9.131  0.1163  0.1798  0.7953
  104MOL0     N13922  11.903   5.157   9.041 -0.3665 -0.5517 -0.1981
  104MOL0     C13923  11.884   5.290   9.049  0.6509  0.0127 -0.6517
  104MOL0     C13924  11.969   5.347   8.955 -0.4389  0.2125  0.8379
  104MOL0     C13925  11.966   5.493   8.917  0.7038  0.3901 -0.0336
  104MOL0     C13926  11.892   5.508   8.784  1.1058  0.2128  0.4808
  104MOL0     C13927  11.740   5.456   8.785  0.2954  0.1375 -0.1754
  104MOL0     C13928  11.647   5.501   8.673  0.3939  0.0134  0.0572
  104MOL0     O13929  11.512   5.500   8.732  0.2452 -0.4888  1.1812
  104MOL0     C13930  11.423   5.477   8.626 -0.4968  0.2207  0.2614
  104MOL0     C13931  11.421   5.560   8.504  0.3503  0.4255 -0.7765
  104MOL0     C13932  11.315   5.539   8.417  1.0220  0.1444 -0.0715
  104MOL0     C13933  11.220   5.434   8.437 -0.2696 -0.3116  0.4056
  104MOL0     C13934  11.121   5.410   8.324  0.2606 -0.1196  0.8820
  104MOL0     O13935  11.077   5.514   8.254 -0.1254  0.1328  0.6389
  104MOL0     C13936  10.989   5.494   8.152  0.4645 -0.0188  1.0828
  104MOL0     C13937  10.856   5.462   8.179  0.1341 -0.2856  0.5690
  104MOL0     C13938  10.763   5.460   8.077 -0.1352 -0.3816  0.3639
  104MOL0     C13939  10.797   5.484   7.942  0.0554 -0.4681 -0.5625
  104MOL0     O13940  10.711   5.472   7.831  0.2672  0.0009 -0.2695
  104MOL0     C13941  10.579   5.420   7.857  0.4736 -0.3361 -0.4574
  104MOL0     C13942  10.504   5.432   7.718  0.6780 -0.4692  0.4817
  104MOL0     C13943  10.352   5.404   7.723  0.4176 -0.5036 -0.1134
  104MOL0     C13944  10.277   5.446   7.602 -0.7684  0.0333 -0.1958
  104MOL0     C13945  10.131   5.409   7.595  0.1668  0.3880  0.6489
  104MOL0     C13946  10.078   5.471   7.463 -1.0913  0.7341  0.1583
  104MOL0     C13947   9.936   5.523   7.471 -0.4973  0.9446 -0.2324
  104MOL0     C13948   9.830   5.414   7.443 -0.1868  0.1798  0.3458
  104MOL0    Cl13949   9.842   5.285   7.563  0.2893  0.2195 -0.3268
  104MOL0     C13950  10.932   5.520   7.920 -0.3194 -0.1741 -0.3053
  104MOL0     C13951  11.023   5.531   8.019  0.2857  0.5913 -0.2808
  104MOL0     O13952  11.071   5.296   8.315  0.5025 -0.1538 -0.1478
  104MOL0     C13953  11.229   5.350   8.546 -0.1945 -0.5400  0.1476
  104MOL0     C13954  11.325   5.382   8.646  0.7035 -0.0164  0.2679
  104MOL0     N13955  12.043   5.242   8.889  0.1321  0.5360  1.5028
  104MOL0     N13956  12.006   5.136   8.947  0.4832 -0.2227  0.1060
  104MOL0     C13957  10.985   4.809   8.971  0.6236  0.4808 -0.2264
  104MOL0     C13958  10.849   4.806   8.942  0.1319  1.0872  0.4896
  104MOL0     C13959  10.450   4.651   8.815  1.0813  0.4264 -0.4406
  104MOL0     C13960  10.404   4.704   8.687 -0.4748 -0.0906 -0.0138
  104MOL0     C13961  10.270   4.721   8.656 -0.1345 -0.7787 -0.4444
  104MOL0     C13962  10.176   4.688   8.749  0.3030 -0.4814  0.4368
  104MOL0     O13963  10.042   4.703   8.726  0.2087 -0.1276  0.2072
  104MOL0     C13964  10.000   4.773   8.610  0.1866  0.2064  0.7761
  104MOL0     C13965   9.849   4.768   8.620  0.3351  0.0107  0.1058
  104MOL0     C13966   9.801   4.838   8.744  0.2392  0.8352 -0.1724
  104MOL0     C13967   9.649   4.861   8.738 -0.3783 -0.5936  0.4930
  104MOL0     C13968   9.557   4.755   8.705 -0.2178 -0.0588  0.7575
  104MOL0     C13969   9.479   4.664   8.667  0.7741 -0.4782 -0.3336
  104MOL0     C13970  10.213   4.636   8.870  0.6397 -0.1520 -0.4790
  104MOL0     C13971  10.346   4.617   8.906 -0.0508  0.0966  0.7967
  104MOL0     C13972  10.377   4.561   9.039  0.3538 -0.3397 -0.2799
  104MOL0     H13973  10.859   4.659   8.641  2.6298  1.3647 -1.6898
  104MOL0     H13974  11.098   4.645   8.696  0.4847 -0.6218  0.4298
  104MOL0     H13975  11.262   4.804   9.090  0.7220  0.1854 -0.0774
  104MOL0     H13976  11.199   4.647   9.057  3.7139 -3.1180  2.3270
  104MOL0     H13977  11.408   4.589   8.943 -3.4813  1.6042 -1.1432
  104MOL0     H13978  11.450   4.674   9.104 -1.7761  1.2302  1.2383
  104MOL0     H13979  11.503   4.878   8.986 -0.3824 -1.1636  1.6343
  104MOL0     H13980  11.456   4.816   8.832  0.4051 -1.1177  0.1295
  104MOL0     H13981  11.628   4.627   8.858 -0.0752 -1.3229  1.7510
  104MOL0     H13982  11.684   4.790   8.828 -0.9501 -0.9116  0.1600
  104MOL0     H13983  11.674   4.618   9.084 -0.1787  0.5059  1.5105
  104MOL0     H13984  11.811   4.662   8.984 -1.0730 -0.6454 -1.8171
  104MOL0     H13985  11.649   4.848   9.167  0.1617  3.8947 -1.6891
  104MOL0     H13986  11.816   4.794   9.196 -0.4871  0.6262  0.6663
  104MOL0     H13987  11.706   4.975   8.978  0.6428  0.3639  0.2795
  104MOL0     H13988  11.876   4.916   8.982  0.2706 -2.0907  0.3007
  104MOL0     H13989  11.746   5.092   9.175 -0.1178 -1.4051  1.8839
  104MOL0     H13990  11.897   5.012   9.214  2.0383 -1.4267 -1.1825
  104MOL0     H13991  11.823   5.347   9.119 -1.2859  1.9251 -3.6717
  104MOL0     H13992  11.916   5.557   8.991  1.1255  0.7974 -0.1027
  104MOL0     H13993  12.065   5.536   8.903  1.6261 -1.4313  0.6030
  104MOL0     H13994  11.889   5.613   8.755 -1.1156 -0.3820 -1.8316
  104MOL0     H13995  11.956   5.474   8.702 -0.0131 -0.2601 -0.2340
  104MOL0     H13996  11.693   5.484   8.880 -0.9112  0.9848 -0.9928
  104MOL0     H13997  11.743   5.347   8.780 -0.2133  0.1773 -1.5235
  104MOL0     H13998  11.663   5.433   8.589  0.9191 -0.0002  0.1643
  104MOL0     H13999  11.669   5.603   8.641 -0.9521 -0.1269 -1.4522
  104MOL0     H14000  11.495   5.637   8.485  0.0339  1.5467  2.1018
  104MOL0     H14001  11.305   5.600   8.328  3.3860 -1.4264 -1.5551
  104MOL0     H14002  10.833   5.439   8.282  2.6532 -1.0015  1.0370
  104MOL0     H14003  10.668   5.417   8.107 -0.8986  1.9657  1.5597
  104MOL0     H14004  10.580   5.319   7.899 -0.5275 -0.1316  0.1232
  104MOL0     H14005  10.521   5.480   7.928  0.4251 -0.5477 -0.3167
  104MOL0     H14006  10.525   5.535   7.685 -0.5112 -0.3772 -0.0136
  104MOL0     H14007  10.542   5.360   7.645 -1.2557 -1.5262  0.4612
  104MOL0     H14008  10.340   5.296   7.734  1.6110 -0.6234  0.0887
  104MOL0     H14009  10.311   5.444   7.816 -0.7150  0.2177 -0.8859
  104MOL0     H14010  10.324   5.407   7.511  1.4423 -1.6795  1.5588
  104MOL0     H14011  10.286   5.554   7.589  1.0712 -0.0352  0.1804
  104MOL0     H14012  10.082   5.454   7.682  0.9166 -1.2108  1.9603
  104MOL0     H14013  10.108   5.302   7.602 -2.8982  0.6702 -2.4138
  104MOL0     H14014  10.138   5.558   7.436  0.5635 -0.1258  0.9682
  104MOL0     H14015  10.088   5.400   7.380 -0.6429  0.2030  0.6547
  104MOL0     H14016   9.921   5.593   7.389 -2.9886 -0.9304 -1.5162
  104MOL0     H14017   9.917   5.577   7.564 -0.9808  4.5931 -2.2740
  104MOL0     H14018   9.728   5.449   7.456 -1.0010 -2.0489  0.3313
  104MOL0     H14019   9.838   5.362   7.347  0.0894 -1.0759  1.0246
  104MOL0     H14020  10.955   5.541   7.816 -0.8600 -0.5984 -0.5169
  104MOL0     H14021  11.126   5.552   7.994  0.2109  1.0431 -0.2189
  104MOL0     H14022  11.150   5.276   8.554  0.4878 -1.3816 -0.6736
  104MOL0     H14023  11.325   5.318   8.733  2.1770 -1.2666 -0.5865
  104MOL0     H14024  11.022   4.858   9.061 -0.8381  1.7368 -0.2661
  104MOL0     H14025  10.778   4.852   9.010 -0.2007  1.1543  0.1027
  104MOL0     H14026  10.483   4.720   8.615  0.1092  1.1532  0.8679
  104MOL0     H14027  10.247   4.750   8.554 -0.9785 -1.3465 -0.4247
  104MOL0     H14028  10.036   4.727   8.517  2.0292 -0.0622  1.5799
  104MOL0     H14029  10.034   4.876   8.598  1.4578 -0.3040 -0.4018
  104MOL0     H14030   9.812   4.666   8.629 -2.4034  0.7153 -1.8884
  104MOL0     H14031   9.804   4.815   8.532 -0.3298 -2.8031 -1.1599
  104MOL0     H14032   9.857   4.930   8.766  2.2191 -0.2791 -0.3025
  104MOL0     H14033   9.817   4.773   8.831 -1.6420  4.2163  2.9848
  104MOL0     H14034   9.613   4.893   8.836 -0.1591 -3.2896  1.5121
  104MOL0     H14035   9.633   4.941   8.665 -0.0522 -1.3502 -0.4246
  104MOL0     H14036   9.420   4.577   8.647 -1.1212  0.0491  2.4184
  104MOL0     H14037  10.138   4.616   8.946  0.6219  1.5464 -0.0183
  104MOL0     H14038  10.371   4.453   9.051 -2.8332 -0.0206  2.6813
  104MOL0     H14039  10.471   4.589   9.088 -0.7601 -1.0886  2.4882
  104MOL0     H14040  10.300   4.600   9.106  0.0542  0.2307 -0.9377
  105MOL0     O14041   4.216   2.681   0.949 -0.1336  0.4935 -0.1536
  105MOL0     C14042   4.290   2.652   1.050  0.3926 -1.1877  0.3231
  105MOL0     O14043   4.421   2.649   1.045 -0.5713 -0.1020 -0.2032
  105MOL0     C14044   4.483   2.686   0.929  0.7709 -0.6080 -0.2878
  105MOL0     C14045   4.573   2.592   0.871 -0.2614  0.3750 -0.1031
  105MOL0     C14046   4.647   2.633   0.762 -0.1611  0.6147 -0.2005
  105MOL0     C14047   4.625   2.760   0.704 -0.8541  0.3046 -0.2116
  105MOL0     O14048   4.703   2.789   0.592 -0.3495  0.9518  0.0638
  105MOL0     C14049   4.710   2.925   0.552 -0.1634 -0.8011 -0.1652
  105MOL0     C14050   4.850   2.943   0.491  0.5495 -0.4075 -0.1388
  105MOL0     C14051   4.872   2.864   0.361 -0.3438  0.6184  0.2418
  105MOL0     C14052   5.016   2.802   0.321 -0.0152 -0.7243 -0.3446
  105MOL0     C14053   5.121   2.892   0.376  0.4370  0.2869 -1.3414
  105MOL0     C14054   5.248   2.878   0.293 -0.4448 -0.5680  0.8048
  105MOL0     C14055   5.314   2.734   0.326  0.8731  0.1269  0.6211
  105MOL0     C14056   5.446   2.716   0.247 -0.3664 -0.2507  0.4399
  105MOL0     N14057   5.569   2.808   0.268  0.7026  0.5096  0.0028
  105MOL0     C14058   5.644   2.804   0.386 -0.2303  0.6141 -0.1877
  105MOL0     C14059   5.738   2.899   0.366  0.8616  0.4892  0.7218
  105MOL0     C14060   5.849   2.936   0.469 -0.0403  0.4273 -0.2400
  105MOL0     C14061   5.980   2.855   0.456  0.5428  0.2149 -0.6142
  105MOL0     C14062   6.066   2.910   0.346  0.3788  0.3096 -0.6509
  105MOL0     C14063   6.194   2.827   0.314 -0.6786 -0.2564 -0.4948
  105MOL0     O14064   6.288   2.915   0.261  0.2030  0.0058  0.0838
  105MOL0     C14065   6.421   2.874   0.264  0.5875 -0.4933  0.1442
  105MOL0     C14066   6.459   2.745   0.239  0.0504 -0.0103 -0.1649
  105MOL0     C14067   6.592   2.708   0.219  0.1638 -0.6352 -0.5780
  105MOL0     C14068   6.692   2.804   0.256 -0.6200 -0.7511  0.0819
  105MOL0     C14069   6.836   2.776   0.230  0.4985  0.6688 -0.4581
  105MOL0     O14070   6.861   2.664   0.156  0.1798  0.3967 -0.0835
  105MOL0     C14071   6.991   2.623   0.144  0.1093 -0.2268 -0.3692
  105MOL0     C14072   7.078   2.592   0.255  0.2403 -0.1424  0.0235
  105MOL0     C14073   7.210   2.564   0.229 -0.3723  0.1750 -0.5486
  105MOL0     C14074   7.250   2.546   0.095  0.3660  0.4787 -0.3633
  105MOL0     O14075   7.380   2.504   0.079  0.5667  0.0490 -0.0670
  105MOL0     C14076   7.451   2.540  -0.036  0.1894  0.8107 -0.1374
  105MOL0     C14077   7.596   2.510  -0.008 -0.0107  0.1617  0.9883
  105MOL0     C14078   7.675   2.513  -0.150 -0.2447 -0.7788  0.7218
  105MOL0     C14079   7.828   2.483  -0.125  0.3465  0.1108 -0.4199
  105MOL0     C14080   7.904   2.436  -0.244 -0.6048  1.0532 -0.5348
  105MOL0     C14081   8.044   2.401  -0.195 -0.3042 -0.0026 -0.1427
  105MOL0     C14082   8.128   2.511  -0.130  0.0778 -0.0244 -0.3965
  105MOL0     C14083   8.270   2.457  -0.094 -0.1976 -0.8640  0.8825
  105MOL0    Cl14084   8.374   2.601  -0.091 -0.0147  0.2219  0.5426
  105MOL0     C14085   7.167   2.564  -0.021  0.5117  0.0822  0.1626
  105MOL0     C14086   7.034   2.612   0.006  0.1092  0.2892 -0.4584
  105MOL0     O14087   6.921   2.848   0.286  0.8028  0.3375  0.7056
  105MOL0     C14088   6.654   2.937   0.290  0.7210 -0.7610 -0.5217
  105MOL0     C14089   6.517   2.973   0.290  0.3335 -0.2481 -0.5504
  105MOL0     N14090   5.714   2.965   0.246  0.2088 -0.1509 -0.1652
  105MOL0     N14091   5.620   2.898   0.179 -0.5263  0.1488  0.1231
  105MOL0     C14092   4.531   2.842   0.759  0.2233  0.1576 -0.4926
  105MOL0     C14093   4.466   2.811   0.873 -0.1130 -0.0864 -0.1757
  105MOL0     C14094   4.233   2.582   1.162 -0.2233 -0.5728 -0.5573
  105MOL0     C14095   4.303   2.473   1.212  0.0001  0.8148 -0.0977
  105MOL0     C14096   4.247   2.406   1.328  0.6841  0.0931  0.1421
  105MOL0     C14097   4.136   2.454   1.387  0.3400  0.6264 -0.2557
  105MOL0     O14098   4.080   2.402   1.506  0.7721  0.4874  0.3691
  105MOL0     C14099   4.104   2.269   1.546 -0.1886  0.8181  0.4735
  105MOL0     C14100   4.217   2.264   1.650 -0.4406 -0.2100  0.2597
  105MOL0     C14101   4.193   2.363   1.767  0.4992 -0.3158 -0.6977
  105MOL0     C14102   4.327   2.387   1.844 -0.7285 -0.6317 -0.0793
  105MOL0     C14103   4.293   2.465   1.967  0.5724  0.0629  0.0694
  105MOL0     C14104   4.255   2.526   2.067 -0.5722  0.9408  0.5424
  105MOL0     C14105   4.071   2.564   1.341  0.7399 -0.0840  0.5271
  105MOL0     C14106   4.119   2.627   1.221  0.1282 -0.1969 -0.3935
  105MOL0     C14107   4.051   2.753   1.175 -0.6801 -0.5882  0.4429
  105MOL0     H14108   4.591   2.492   0.911 -1.0590  0.4721  0.5367
  105MOL0     H14109   4.713   2.563   0.711 -0.4437  0.9729 -1.0635
  105MOL0     H14110   4.634   2.950   0.478 -0.3920 -2.0555 -0.3642
  105MOL0     H14111   4.709   2.994   0.638  0.9276 -3.1607  1.8555
  105MOL0     H14112   4.930   2.912   0.560  1.5739  2.0096 -0.1394
  105MOL0     H14113   4.867   3.050   0.480 -2.0056  0.0288 -0.2752
  105MOL0     H14114   4.840   2.927   0.278 -1.4709 -0.2623 -0.0220
  105MOL0     H14115   4.806   2.776   0.357 -0.4620  0.7362 -3.0552
  105MOL0     H14116   5.033   2.703   0.365 -0.0804 -0.8686 -0.6446
  105MOL0     H14117   5.018   2.785   0.213  0.5951  2.0422 -0.8373
  105MOL0     H14118   5.083   2.994   0.382  1.2405  0.5641 -0.8789
  105MOL0     H14119   5.149   2.856   0.476 -0.9927 -2.6259 -1.8609
  105MOL0     H14120   5.232   2.885   0.186  2.8141 -1.4051  0.1484
  105MOL0     H14121   5.315   2.953   0.335 -1.8504  2.4598 -1.9499
  105MOL0     H14122   5.242   2.665   0.280 -1.7721  3.4959 -0.6510
  105MOL0     H14123   5.316   2.716   0.434  2.0639  3.6676  1.2970
  105MOL0     H14124   5.483   2.616   0.270 -0.7574 -1.4136 -3.3354
  105MOL0     H14125   5.412   2.723   0.144  1.2839  0.1318 -0.0995
  105MOL0     H14126   5.625   2.735   0.468 -0.8228  0.4608 -0.4495
  105MOL0     H14127   5.864   3.041   0.446 -0.0481  0.1293 -1.6763
  105MOL0     H14128   5.817   2.918   0.572  1.2725  0.9547  0.2671
  105MOL0     H14129   6.022   2.859   0.557  0.8454  2.4807 -0.7631
  105MOL0     H14130   5.947   2.753   0.434 -0.4638  0.8253 -2.1427
  105MOL0     H14131   6.101   3.011   0.370  1.9644 -0.8805  2.6875
  105MOL0     H14132   5.999   2.925   0.261  0.5188  1.0389 -0.6390
  105MOL0     H14133   6.177   2.755   0.234  1.5724 -0.7226 -0.6332
  105MOL0     H14134   6.247   2.788   0.402  2.1781 -0.1561 -2.0647
  105MOL0     H14135   6.385   2.668   0.220  1.0940 -0.9519 -0.5062
  105MOL0     H14136   6.624   2.608   0.192  1.9039  0.0782 -1.3637
  105MOL0     H14137   7.028   2.601   0.351 -0.7251  2.1044 -0.6302
  105MOL0     H14138   7.275   2.524   0.306 -1.1998  3.1128  1.8641
  105MOL0     H14139   7.416   2.481  -0.122  0.8645 -1.1071  0.8460
  105MOL0     H14140   7.434   2.645  -0.063  2.2342  0.4940 -3.2046
  105MOL0     H14141   7.630   2.584   0.065 -2.6269  1.9501  0.5148
  105MOL0     H14142   7.595   2.408   0.033  0.7766 -1.4161 -2.5205
  105MOL0     H14143   7.634   2.438  -0.217 -1.4609 -0.8385  1.4992
  105MOL0     H14144   7.666   2.609  -0.202 -1.5494 -0.7746  0.9377
  105MOL0     H14145   7.829   2.405  -0.049  2.8989  0.0158 -0.4885
  105MOL0     H14146   7.876   2.561  -0.066  1.0980 -0.1566 -0.6665
  105MOL0     H14147   7.904   2.510  -0.324 -4.6149 -0.7043 -2.4838
  105MOL0     H14148   7.859   2.347  -0.288  0.1643 -1.6530  3.5595
  105MOL0     H14149   8.039   2.320  -0.120 -0.5781 -0.5019 -0.6906
  105MOL0     H14150   8.099   2.363  -0.282  2.2621  1.0234  0.9432
  105MOL0     H14151   8.095   2.550  -0.033  0.2237  4.4847 -1.9114
  105MOL0     H14152   8.134   2.595  -0.200 -1.8040  0.0941 -0.4467
  105MOL0     H14153   8.271   2.405   0.002 -0.0568 -0.0995  1.3047
  105MOL0     H14154   8.305   2.389  -0.172  0.1608  1.8548 -1.5208
  105MOL0     H14155   7.194   2.547  -0.125  0.0460  3.2017 -0.5554
  105MOL0     H14156   6.959   2.637  -0.068  0.3721 -1.7877 -1.5252
  105MOL0     H14157   6.735   3.008   0.305 -1.0869  2.1231 -3.1510
  105MOL0     H14158   6.489   3.075   0.316 -2.8660 -0.8571 -1.2047
  105MOL0     H14159   4.516   2.939   0.713 -1.9764 -0.5337 -1.3839
  105MOL0     H14160   4.398   2.879   0.923  0.3024 -0.1736  0.5249
  105MOL0     H14161   4.400   2.447   1.173 -1.2693  2.4500 -5.0176
  105MOL0     H14162   4.309   2.332   1.378  1.8135  0.1416 -1.1298
  105MOL0     H14163   4.132   2.209   1.459 -1.1283 -1.8704  1.9016
  105MOL0     H14164   4.013   2.222   1.585  0.4133 -2.9667 -2.1308
  105MOL0     H14165   4.311   2.286   1.599 -0.6933  3.2073  1.0124
  105MOL0     H14166   4.227   2.161   1.685  1.3378 -1.2483 -2.8440
  105MOL0     H14167   4.124   2.314   1.836  1.0156  3.0887  2.5175
  105MOL0     H14168   4.141   2.456   1.738  4.0723  1.4560 -1.9991
  105MOL0     H14169   4.377   2.293   1.870  1.1161  0.7961  1.7909
  105MOL0     H14170   4.390   2.445   1.776 -0.9520  0.9662  1.0512
  105MOL0     H14171   4.227   2.578   2.157 -1.8596  0.8173  0.2351
  105MOL0     H14172   3.983   2.597   1.397  0.7001  2.2151 -0.7907
  105MOL0     H14173   3.997   2.810   1.251 -0.4959 -0.6270  0.6031
  105MOL0     H14174   4.122   2.812   1.116 -1.2628 -3.7539 -3.9876
  105MOL0     H14175   3.984   2.717   1.096  1.1421  0.6574 -1.8104
  106MOL0     O14176   0.023  10.038   2.627 -0.4148 -0.8838  0.0675
  106MOL0     C14177  -0.055  10.037   2.531  0.0709  0.5817  0.3243
  106MOL0     O14178  -0.049  10.119   2.418  0.2794 -0.2369 -0.8251
  106MOL0     C14179   0.056  10.209   2.425 -0.2235 -0.8024  0.6475
  106MOL0     C14180   0.184  10.164   2.402  0.3291  0.0432 -0.5618
  106MOL0     C14181   0.291  10.241   2.392 -0.4468  0.5641 -0.7749
  106MOL0     C14182   0.266  10.385   2.404  0.3412  0.0938  0.4673
  106MOL0     O14183   0.371  10.478   2.392  0.3951 -0.0180  0.1468
  106MOL0     C14184   0.468  10.449   2.296  0.6651  0.2820  0.2867
  106MOL0     C14185   0.533  10.573   2.257  0.0147 -0.7687 -0.1755
  106MOL0     C14186   0.614  10.560   2.133 -0.6151  0.2242 -0.2770
  106MOL0     C14187   0.671  10.690   2.078 -0.6136  0.3447 -0.1309
  106MOL0     C14188   0.725  10.657   1.937  0.1469 -0.2821  0.0234
  106MOL0     C14189   0.796  10.785   1.871  0.9637 -0.4178  0.6117
  106MOL0     C14190   0.852  10.746   1.732  0.6634  0.1418 -0.3829
  106MOL0     C14191   0.906  10.854   1.645  0.1786  0.4934 -0.1913
  106MOL0     N14192   1.017  10.807   1.560  0.3160  0.6293  0.4576
  106MOL0     C14193   1.142  10.746   1.595 -0.1232  0.2322 -0.2663
  106MOL0     C14194   1.220  10.742   1.481  0.2009 -0.5483  1.0382
  106MOL0     C14195   1.364  10.703   1.458  0.4157 -0.4283 -0.2528
  106MOL0     C14196   1.390  10.694   1.306 -0.4036 -0.3950  0.1780
  106MOL0     C14197   1.375  10.833   1.235 -0.5527  0.3706 -0.2819
  106MOL0     C14198   1.452  10.841   1.100 -0.4103  0.1481 -0.6224
  106MOL0     O14199   1.587  10.873   1.133  0.0253  0.3993  0.0694
  106MOL0     C14200   1.694  10.838   1.054 -0.3030 -0.3466  0.5250
  106MOL0     C14201   1.685  10.759   0.943 -0.5383  0.6831  0.8622
  106MOL0     C14202   1.799  10.739   0.855  0.6054  0.4711 -0.1491
  106MOL0     C14203   1.924  10.801   0.875  0.2678  0.7096  0.7228
  106MOL0     C14204   2.050  10.781   0.793 -0.2772  0.1290  0.8400
  106MOL0     O14205   2.159  10.827   0.853  0.2200 -0.7794 -0.6823
  106MOL0     C14206   2.289  10.808   0.807 -0.0896 -0.2728 -0.2059
  106MOL0     C14207   2.390  10.810   0.903 -0.6040  0.1314  0.7378
  106MOL0     C14208   2.528  10.812   0.858 -0.3272  0.2902  0.4322
  106MOL0     C14209   2.560  10.797   0.725  0.1263 -0.3468  0.5707
  106MOL0     O14210   2.697  10.772   0.695  0.0862 -0.3118  0.1131
  106MOL0     C14211   2.735  10.788   0.561 -0.0927  0.3950  0.2454
  106MOL0     C14212   2.883  10.774   0.538  0.5571  1.1324  0.3348
  106MOL0     C14213   2.920  10.801   0.392  0.2635 -0.0091  0.1386
  106MOL0     C14214   3.072  10.776   0.362 -0.4706  0.4721  0.3952
  106MOL0     C14215   3.126  10.835   0.224  0.6332 -0.0160 -0.0120
  106MOL0     C14216   3.248  10.769   0.182 -0.4711  0.2465 -1.0571
  106MOL0     C14217   3.360  10.735   0.287  0.9598  0.4917 -0.2479
  106MOL0     C14218   3.485  10.694   0.220 -0.6060  0.5869  0.1435
  106MOL0    Cl14219   3.544  10.835   0.155  0.3874 -0.0395  0.1198
  106MOL0     C14220   2.459  10.781   0.630 -0.8534 -0.1375  0.0614
  106MOL0     C14221   2.324  10.797   0.670  0.1281 -0.0893  0.0922
  106MOL0     O14222   2.042  10.721   0.684  0.3495 -0.3682  0.0790
  106MOL0     C14223   1.936  10.889   0.995  0.2146  1.1278  1.3569
  106MOL0     C14224   1.820  10.906   1.070  0.8402 -0.0991  0.8746
  106MOL0     N14225   1.138  10.796   1.386  0.5007 -0.1478 -0.3684
  106MOL0     N14226   1.024  10.844   1.431 -0.4655  0.5752  0.0652
  106MOL0     C14227   0.137  10.438   2.429 -0.1611  0.6957 -0.1564
  106MOL0     C14228   0.036  10.342   2.437  0.2122  0.1083  0.2474
  106MOL0     C14229  -0.182   9.962   2.543  0.5534  0.2212 -0.2643
  106MOL0     C14230  -0.298  10.026   2.482  0.4211  0.1378  1.0790
  106MOL0     C14231  -0.422   9.972   2.499  0.1154 -0.4932  0.3863
  106MOL0     C14232  -0.444   9.859   2.588  0.5806 -0.4838  0.9047
  106MOL0     O14233  -0.569   9.821   2.636  0.1289  0.3219 -0.3439
  106MOL0     C14234  -0.688   9.871   2.566  0.0351 -0.2664 -0.2261
  106MOL0     C14235  -0.696   9.801   2.426  0.5028 -0.2984 -0.1441
  106MOL0     C14236  -0.831   9.796   2.347 -0.5347  0.0565  0.3381
  106MOL0     C14237  -0.925   9.684   2.396 -0.0080  0.5738 -0.1223
  106MOL0     C14238  -1.041   9.662   2.306 -0.2745  1.2807 -0.1738
  106MOL0     C14239  -1.135   9.632   2.234 -0.5158 -0.4045 -0.5972
  106MOL0     C14240  -0.334   9.803   2.647  0.0170 -0.3977  0.0961
  106MOL0     C14241  -0.202   9.841   2.615  0.6406 -0.3980 -0.2579
  106MOL0     C14242  -0.089   9.771   2.680  0.2722 -0.6262  0.1710
  106MOL0     H14243   0.196  10.056   2.396  0.2605  0.0091 -0.1045
  106MOL0     H14244   0.387  10.199   2.367  0.3478  1.9377 -0.1453
  106MOL0     H14245   0.538  10.384   2.350 -0.1379 -1.4925 -0.7160
  106MOL0     H14246   0.419  10.394   2.215 -0.7938 -0.6752  1.7547
  106MOL0     H14247   0.592  10.615   2.339  0.5247 -1.6299 -0.0908
  106MOL0     H14248   0.454  10.644   2.229  0.1373 -0.6240 -0.1588
  106MOL0     H14249   0.565  10.499   2.057  0.9832 -0.2899 -0.9553
  106MOL0     H14250   0.696  10.490   2.150 -0.1986  0.7972  0.1230
  106MOL0     H14251   0.596  10.770   2.072 -1.3639 -0.4231 -1.3437
  106MOL0     H14252   0.758  10.728   2.134 -1.5561  1.8396  0.4081
  106MOL0     H14253   0.800  10.577   1.942  0.8259  0.4025  1.1747
  106MOL0     H14254   0.645  10.636   1.866 -0.0814  1.6962 -0.3492
  106MOL0     H14255   0.719  10.861   1.853  0.7052 -0.3294  2.0327
  106MOL0     H14256   0.874  10.835   1.930  1.6814  1.3683 -1.6692
  106MOL0     H14257   0.778  10.697   1.669 -1.2086  3.5578 -1.0728
  106MOL0     H14258   0.938  10.684   1.758 -0.4247 -0.8619  0.9729
  106MOL0     H14259   0.834  10.898   1.575  0.9414  0.0528 -1.2748
  106MOL0     H14260   0.932  10.943   1.704 -0.0842  0.9997 -0.8374
  106MOL0     H14261   1.163  10.717   1.698 -3.1468 -1.5644 -0.0273
  106MOL0     H14262   1.429  10.779   1.503 -1.0131  0.1585  0.9178
  106MOL0     H14263   1.392  10.606   1.501 -1.2063 -1.3684 -1.1992
  106MOL0     H14264   1.497  10.669   1.298 -0.2526  0.8096 -2.7881
  106MOL0     H14265   1.328  10.630   1.243  0.5241 -2.0823  0.9086
  106MOL0     H14266   1.412  10.913   1.299 -0.7658 -0.6491  1.1495
  106MOL0     H14267   1.271  10.850   1.208 -0.2200  1.5977 -0.8847
  106MOL0     H14268   1.416  10.921   1.035  1.0138  0.0460 -1.5696
  106MOL0     H14269   1.446  10.743   1.052 -1.9181 -1.5315  2.6572
  106MOL0     H14270   1.598  10.701   0.915  0.5495 -0.1514 -1.0691
  106MOL0     H14271   1.800  10.674   0.768 -2.0028 -1.2404  0.9793
  106MOL0     H14272   2.382  10.827   1.010 -0.4397  1.8868  0.5002
  106MOL0     H14273   2.605  10.816   0.935 -1.2793  1.5492  1.3615
  106MOL0     H14274   2.690  10.714   0.494 -0.7217  0.3596  0.6937
  106MOL0     H14275   2.692  10.884   0.531 -2.8878 -0.3842  1.4405
  106MOL0     H14276   2.921  10.854   0.602  1.4754 -0.0885  1.3805
  106MOL0     H14277   2.916  10.674   0.569 -0.8738  0.8246  0.9332
  106MOL0     H14278   2.856  10.749   0.321 -0.6808  0.8716  0.3189
  106MOL0     H14279   2.904  10.908   0.376 -1.1399  0.0388  1.5559
  106MOL0     H14280   3.093  10.669   0.373 -1.6380  0.2481  0.6704
  106MOL0     H14281   3.132  10.820   0.442  2.2379  0.6516 -1.5905
  106MOL0     H14282   3.144  10.942   0.235  2.4178 -0.2495 -0.4477
  106MOL0     H14283   3.055  10.820   0.141 -0.4567  0.2160  0.8610
  106MOL0     H14284   3.221  10.670   0.144 -0.4050  0.4524 -1.6565
  106MOL0     H14285   3.284  10.823   0.094  0.2650 -0.0903 -0.9658
  106MOL0     H14286   3.327  10.656   0.354  2.0794  0.8123  0.7225
  106MOL0     H14287   3.380  10.821   0.352  1.3028 -0.8840  1.5423
  106MOL0     H14288   3.558  10.649   0.288  1.6166  0.2217 -2.3443
  106MOL0     H14289   3.465  10.620   0.142 -2.1612 -1.1383  2.0702
  106MOL0     H14290   2.489  10.762   0.527 -0.5384  0.0471  0.1198
  106MOL0     H14291   2.238  10.795   0.604 -2.4788 -3.0907  3.2234
  106MOL0     H14292   2.027  10.947   1.007 -0.0685  2.1819 -0.9697
  106MOL0     H14293   1.828  10.967   1.159 -1.1416  1.6677 -0.0704
  106MOL0     H14294   0.123  10.546   2.432 -1.6819  0.5565 -1.0123
  106MOL0     H14295  -0.068  10.369   2.455 -0.1835 -1.7827  1.0272
  106MOL0     H14296  -0.289  10.105   2.408 -1.2947 -0.1466  0.5284
  106MOL0     H14297  -0.509  10.013   2.448 -0.3273 -0.4933  1.1211
  106MOL0     H14298  -0.701   9.979   2.554 -1.7697 -0.1781  1.7758
  106MOL0     H14299  -0.765   9.843   2.638  2.0872 -0.2508  2.1031
  106MOL0     H14300  -0.670   9.698   2.453  1.6639  0.2637  1.0122
  106MOL0     H14301  -0.618   9.829   2.356  0.9723 -0.4390  0.3116
  106MOL0     H14302  -0.816   9.777   2.241  1.0124 -1.1684  0.7360
  106MOL0     H14303  -0.881   9.891   2.369 -3.4753 -1.5203  1.0231
  106MOL0     H14304  -0.872   9.589   2.393  1.3351  1.3282 -1.0463
  106MOL0     H14305  -0.958   9.706   2.499 -1.8147 -3.1803  0.2751
  106MOL0     H14306  -1.219   9.627   2.167  0.2876  0.8144 -1.7353
  106MOL0     H14307  -0.350   9.727   2.723  0.7105  1.3449  2.0815
  106MOL0     H14308  -0.025   9.730   2.602 -1.4434 -1.0542 -1.0691
  106MOL0     H14309  -0.029   9.839   2.741  0.7121 -0.0735 -0.8393
  106MOL0     H14310  -0.130   9.687   2.737 -1.4499  0.0796  0.0502
  107MOL0     O14311   8.810   9.582   1.863 -0.1441 -0.2375  0.5014
  107MOL0     C14312   8.783   9.700   1.875 -0.6900 -0.2488  0.5082
  107MOL0     O14313   8.874   9.803   1.889  0.9301 -0.0067 -0.1447
  107MOL0     C14314   9.014   9.803   1.871  0.7635  0.5270 -0.2928
  107MOL0     C14315   9.063   9.865   1.760 -0.1536  0.0329  0.5815
  107MOL0     C14316   9.199   9.873   1.739 -0.1270  0.0697  0.4870
  107MOL0     C14317   9.285   9.810   1.824 -0.0099  0.9806  0.0555
  107MOL0     O14318   9.421   9.810   1.814  0.0967 -0.2869 -0.1521
  107MOL0     C14319   9.490   9.885   1.708  0.2267  0.4196  0.1109
  107MOL0     C14320   9.629   9.842   1.698  0.3533  1.0920  0.1679
  107MOL0     C14321   9.687   9.894   1.564  0.0184 -0.1776  0.2153
  107MOL0     C14322   9.833   9.862   1.542  0.1328 -0.8056 -0.7107
  107MOL0     C14323   9.897   9.923   1.413 -0.5251 -0.9934  0.2821
  107MOL0     C14324  10.042   9.881   1.387 -1.6099 -0.1897  0.1369
  107MOL0     C14325  10.141   9.929   1.492  0.6566  0.5759 -0.0745
  107MOL0     C14326  10.155  10.082   1.495 -0.2638  0.0292 -0.2044
  107MOL0     N14327  10.241  10.128   1.611  0.3000  0.1538  0.7825
  107MOL0     C14328  10.195  10.222   1.696 -0.0394  0.3102 -0.0396
  107MOL0     C14329  10.301  10.252   1.774 -0.2726  0.1423 -0.6710
  107MOL0     C14330  10.306  10.366   1.874  0.9560 -0.6111  0.2934
  107MOL0     C14331  10.171  10.427   1.903  0.4970  0.2172  0.6668
  107MOL0     C14332  10.177  10.506   2.030 -0.3594  0.1721  0.6836
  107MOL0     C14333  10.040  10.558   2.082 -0.8687 -0.9948 -0.8396
  107MOL0     O14334   9.928  10.468   2.077 -0.3688  0.0174  0.5409
  107MOL0     C14335   9.807  10.506   2.134 -1.0637  0.5611  0.3225
  107MOL0     C14336   9.698  10.431   2.095  0.2612 -0.0634  0.4417
  107MOL0     C14337   9.572  10.462   2.143  0.6244  0.3692 -0.6408
  107MOL0     C14338   9.547  10.567   2.226 -0.6657  0.6027  0.3473
  107MOL0     C14339   9.411  10.595   2.262  1.5981 -0.2892 -0.2286
  107MOL0     O14340   9.321  10.499   2.223  0.0850 -0.0578  0.0537
  107MOL0     C14341   9.192  10.539   2.226  0.5220  0.2403  0.0161
  107MOL0     C14342   9.115  10.546   2.345 -0.3778  1.2461 -0.0990
  107MOL0     C14343   8.979  10.565   2.342  0.1118 -0.8115  0.6968
  107MOL0     C14344   8.913  10.598   2.222  0.0949 -0.6965 -0.5963
  107MOL0     O14345   8.774  10.635   2.204 -0.1073  0.5682 -0.2103
  107MOL0     C14346   8.702  10.644   2.330  0.1663  0.0281 -0.4288
  107MOL0     C14347   8.556  10.698   2.319 -0.8111  0.1079  0.0216
  107MOL0     C14348   8.547  10.842   2.266 -0.1789 -0.3002  0.7366
  107MOL0     C14349   8.416  10.912   2.273  0.3544 -0.3338 -0.1429
  107MOL0     C14350   8.334  10.908   2.145 -0.3907 -0.3384  0.1145
  107MOL0     C14351   8.197  10.979   2.161  0.5568 -0.1493  0.3370
  107MOL0     C14352   8.096  10.917   2.048 -0.3913 -1.4608  0.2218
  107MOL0     C14353   7.974  11.011   2.031  0.5851 -0.2471  0.3863
  107MOL0    Cl14354   8.001  11.171   1.953 -0.0724 -0.2019  0.1736
  107MOL0     C14355   8.987  10.599   2.108 -0.2030 -0.3836 -0.3190
  107MOL0     C14356   9.127  10.570   2.102  0.2567  0.5041 -0.3227
  107MOL0     O14357   9.379  10.693   2.335 -0.3709 -0.6257  0.6789
  107MOL0     C14358   9.664  10.641   2.265  0.5103  0.5756 -0.0918
  107MOL0     C14359   9.789  10.613   2.223  0.4467 -0.1227  0.4709
  107MOL0     N14360  10.414  10.184   1.735  0.6067  0.3585  0.4819
  107MOL0     N14361  10.369  10.107   1.637 -0.9736 -0.3637  0.0581
  107MOL0     C14362   9.234   9.736   1.931 -0.6649 -0.0603 -0.4718
  107MOL0     C14363   9.095   9.731   1.962 -1.3581 -0.6798  0.5964
  107MOL0     C14364   8.638   9.745   1.872  0.2649  1.0625 -0.8406
  107MOL0     C14365   8.605   9.841   1.962 -0.1822 -0.1884 -0.0080
  107MOL0     C14366   8.470   9.885   1.971 -0.4132  0.6135  0.4019
  107MOL0     C14367   8.375   9.833   1.884 -0.6268 -0.1987 -0.3476
  107MOL0     O14368   8.243   9.879   1.884 -0.3149 -0.2116  0.0980
  107MOL0     C14369   8.197   9.944   1.764 -0.2863  0.0448  0.1414
  107MOL0     C14370   8.046   9.936   1.747  0.3682 -0.2718  0.1728
  107MOL0     C14371   7.987   9.791   1.717  0.5423 -0.8983 -0.2176
  107MOL0     C14372   7.845   9.760   1.772  0.2913  0.5114 -0.4131
  107MOL0     C14373   7.837   9.635   1.850  0.2498  0.2105 -0.4362
  107MOL0     C14374   7.854   9.537   1.917 -0.2774  0.0579 -0.6787
  107MOL0     C14375   8.408   9.740   1.793  0.1590  0.5211  0.3902
  107MOL0     C14376   8.540   9.693   1.789  0.9813 -0.3680 -0.4676
  107MOL0     C14377   8.571   9.583   1.688  0.2381 -0.2469 -0.0397
  107MOL0     H14378   8.993   9.918   1.696 -1.1888 -1.8943  0.0297
  107MOL0     H14379   9.238   9.929   1.655 -0.6620  0.9877  0.8358
  107MOL0     H14380   9.435   9.862   1.616 -0.0442 -1.4020  0.6718
  107MOL0     H14381   9.491   9.993   1.723 -0.8091  0.2939  1.2573
  107MOL0     H14382   9.627   9.734   1.680 -3.3102  1.3844 -2.2421
  107MOL0     H14383   9.683   9.872   1.788 -0.5433 -2.7031  2.1984
  107MOL0     H14384   9.672  10.001   1.546  0.6673 -0.2379 -0.7599
  107MOL0     H14385   9.632   9.845   1.483 -1.1896 -1.3649  1.6966
  107MOL0     H14386   9.874   9.892   1.638  0.0068 -0.7273 -0.6809
  107MOL0     H14387   9.849   9.754   1.533  2.6166 -0.4793 -0.8737
  107MOL0     H14388   9.838   9.883   1.331 -0.6304  0.3751 -0.3392
  107MOL0     H14389   9.884  10.032   1.409 -2.2897 -1.2198 -1.6071
  107MOL0     H14390  10.052   9.772   1.381  1.9438  0.0550 -0.2282
  107MOL0     H14391  10.067   9.924   1.289  1.4988  0.8223  1.2496
  107MOL0     H14392  10.238   9.889   1.461 -0.5509 -3.0124  0.3094
  107MOL0     H14393  10.114   9.895   1.592  1.6629 -1.6326 -0.5072
  107MOL0     H14394  10.200  10.111   1.399 -1.8105  1.6866 -0.4781
  107MOL0     H14395  10.058  10.127   1.516 -0.1209 -0.5680  1.9920
  107MOL0     H14396  10.098  10.271   1.690 -1.6904 -2.5364  1.0981
  107MOL0     H14397  10.335  10.314   1.965 -1.9162 -3.0157  0.0105
  107MOL0     H14398  10.374  10.448   1.849  0.2216 -0.6161 -1.9842
  107MOL0     H14399  10.129  10.474   1.814  0.6442 -1.4340 -0.3044
  107MOL0     H14400  10.102  10.345   1.926 -2.7174  2.3932 -0.4604
  107MOL0     H14401  10.243  10.590   2.008  0.5014 -0.0671  2.1891
  107MOL0     H14402  10.213  10.425   2.095 -0.1658 -1.0470 -0.8819
  107MOL0     H14403  10.006  10.642   2.021  1.4804 -0.9004 -2.1220
  107MOL0     H14404  10.056  10.584   2.187 -2.2183 -3.6790  0.1233
  107MOL0     H14405   9.709  10.346   2.028 -3.6530  1.2992 -2.3424
  107MOL0     H14406   9.492  10.397   2.111  0.4808 -1.3553  2.8190
  107MOL0     H14407   9.175  10.522   2.432 -0.9110  2.6121  0.6738
  107MOL0     H14408   8.922  10.563   2.434 -0.8534 -1.3989  0.1079
  107MOL0     H14409   8.698  10.540   2.364 -0.5103 -0.7555 -2.7607
  107MOL0     H14410   8.752  10.713   2.399  0.7776 -0.0421 -0.7964
  107MOL0     H14411   8.506  10.624   2.256  0.4397 -1.3692  0.6931
  107MOL0     H14412   8.511  10.677   2.416 -1.6831  1.1186 -0.1403
  107MOL0     H14413   8.616  10.900   2.329 -1.1064 -1.7473  3.1984
  107MOL0     H14414   8.582  10.851   2.163 -1.8678  0.5612  0.1907
  107MOL0     H14415   8.432  11.017   2.300  1.3635 -0.5095  0.0045
  107MOL0     H14416   8.362  10.863   2.354  2.6513 -0.0408  1.6900
  107MOL0     H14417   8.341  10.805   2.108 -1.4101 -0.1536 -0.6397
  107MOL0     H14418   8.390  10.974   2.078  0.8998 -1.6833 -0.1976
  107MOL0     H14419   8.157  10.944   2.256 -1.9280 -0.6072 -0.8143
  107MOL0     H14420   8.218  11.086   2.148 -0.0721 -0.2716 -2.3587
  107MOL0     H14421   8.053  10.823   2.084 -5.4242 -0.4225 -2.1077
  107MOL0     H14422   8.145  10.901   1.951  1.0987  0.4765  0.5798
  107MOL0     H14423   7.901  10.967   1.963  0.6135  1.4988 -0.8305
  107MOL0     H14424   7.914  11.025   2.121 -1.5736  0.1483 -1.0383
  107MOL0     H14425   8.936  10.625   2.016 -1.0896 -2.1670 -0.3879
  107MOL0     H14426   9.195  10.572   2.017  0.8667 -0.7003  0.1080
  107MOL0     H14427   9.646  10.725   2.332 -2.5141 -1.5902  2.1319
  107MOL0     H14428   9.882  10.662   2.250  0.2923  1.3841 -1.5021
  107MOL0     H14429   9.306   9.690   1.998 -0.9120 -1.0211 -0.8419
  107MOL0     H14430   9.065   9.674   2.049  0.8583 -2.6392  0.1892
  107MOL0     H14431   8.685   9.880   2.024 -1.8818  0.7539  1.7207
  107MOL0     H14432   8.435   9.970   2.029  1.1766  0.7955  1.1467
  107MOL0     H14433   8.245   9.886   1.684  2.0947 -0.5864  1.8991
  107MOL0     H14434   8.243  10.043   1.771  1.7558 -0.8781  0.7134
  107MOL0     H14435   8.016  10.002   1.666  2.8023  2.3149  1.2160
  107MOL0     H14436   8.000   9.984   1.834  0.1082 -0.5145  0.1701
  107MOL0     H14437   8.060   9.726   1.766  0.8334  1.7516  3.2668
  107MOL0     H14438   7.981   9.758   1.613  0.7882  1.8733 -1.1971
  107MOL0     H14439   7.823   9.841   1.842  3.3517  0.5289  0.6901
  107MOL0     H14440   7.765   9.767   1.698 -0.9277 -1.2952  0.6457
  107MOL0     H14441   7.867   9.454   1.984 -0.6287  2.7855  3.0648
  107MOL0     H14442   8.344   9.686   1.726 -1.2322  0.3041  1.8407
  107MOL0     H14443   8.656   9.612   1.626 -1.9962  0.9467 -2.7870
  107MOL0     H14444   8.570   9.481   1.729 -2.9361 -0.2106  0.2750
  107MOL0     H14445   8.485   9.582   1.620 -1.3813  2.9475  1.7471
  108MOL0     O14446   0.705   7.317   0.431  0.3725 -0.3526  0.0966
  108MOL0     C14447   0.729   7.311   0.309 -0.2378  1.2156 -0.3013
  108MOL0     O14448   0.847   7.265   0.262 -0.3537 -0.2833  0.7110
  108MOL0     C14449   0.961   7.240   0.333  0.2428 -0.0204 -1.0389
  108MOL0     C14450   1.080   7.202   0.264  0.2867 -1.4369 -0.3664
  108MOL0     C14451   1.203   7.183   0.330  0.7315 -0.1695 -0.0695
  108MOL0     C14452   1.214   7.196   0.470 -0.5629  0.3502  0.0205
  108MOL0     O14453   1.330   7.174   0.542 -0.3103  0.2879 -0.3920
  108MOL0     C14454   1.459   7.186   0.478  0.2391  0.7879 -0.7977
  108MOL0     C14455   1.572   7.148   0.573  0.0095 -0.2436  0.1621
  108MOL0     C14456   1.605   7.262   0.660  0.2419  0.0531 -0.0211
  108MOL0     C14457   1.675   7.378   0.582 -0.7900  0.9040  0.2028
  108MOL0     C14458   1.758   7.475   0.672 -0.3200 -0.0415  0.3184
  108MOL0     C14459   1.887   7.410   0.734 -0.7988  0.4815  0.3238
  108MOL0     C14460   1.986   7.346   0.643 -0.0396  0.8446  0.6849
  108MOL0     C14461   1.980   7.193   0.617 -0.1474  0.9126 -0.2224
  108MOL0     N14462   2.037   7.132   0.740  0.1451 -0.2459 -0.0204
  108MOL0     C14463   1.958   7.087   0.838 -0.5011  0.3354  0.0726
  108MOL0     C14464   2.051   7.081   0.940 -0.5429  0.3929  0.5883
  108MOL0     C14465   2.042   7.046   1.083 -0.9691 -0.2002 -0.7493
  108MOL0     C14466   2.048   7.177   1.180  0.3460  0.5883 -0.0407
  108MOL0     C14467   2.025   7.144   1.326  0.2250  0.2686 -0.5183
  108MOL0     C14468   1.984   7.271   1.409  0.9836  0.4582 -0.1496
  108MOL0     O14469   2.058   7.394   1.393 -0.3063 -0.2385  0.4765
  108MOL0     C14470   2.192   7.396   1.427  0.2259 -0.4878 -0.7162
  108MOL0     C14471   2.255   7.305   1.520 -0.3489  1.3114 -0.1309
  108MOL0     C14472   2.394   7.313   1.545  0.9069  0.1711  0.7388
  108MOL0     C14473   2.473   7.411   1.477  0.2445 -0.1576 -0.4880
  108MOL0     C14474   2.620   7.414   1.502  0.0964  0.7264  0.3683
  108MOL0     O14475   2.682   7.530   1.463  0.3691 -0.6693 -0.8011
  108MOL0     C14476   2.814   7.537   1.467  0.7913 -0.7767 -0.3699
  108MOL0     C14477   2.880   7.637   1.523  0.3873  0.2444 -0.5673
  108MOL0     C14478   3.020   7.659   1.519 -0.6564 -0.3978  0.7818
  108MOL0     C14479   3.094   7.565   1.451 -0.0426 -0.0753 -0.3367
  108MOL0     O14480   3.225   7.591   1.462  0.2397 -0.5766 -0.2476
  108MOL0     C14481   3.316   7.556   1.364 -0.1017 -0.6770  0.3242
  108MOL0     C14482   3.455   7.607   1.406  0.0795 -0.1811  0.8601
  108MOL0     C14483   3.489   7.574   1.553 -0.2411  0.2518  0.2785
  108MOL0     C14484   3.610   7.667   1.588  0.3281  0.1338  0.0355
  108MOL0     C14485   3.657   7.650   1.733 -0.3454 -0.2837  0.1371
  108MOL0     C14486   3.736   7.519   1.760 -0.6062 -0.6820 -0.5728
  108MOL0     C14487   3.752   7.499   1.917 -0.0738 -0.5784  0.7664
  108MOL0     C14488   3.768   7.352   1.942 -0.5833  0.1000  0.1733
  108MOL0    Cl14489   3.794   7.316   2.108  0.1092 -0.4616  0.0979
  108MOL0     C14490   3.027   7.465   1.383  0.4062 -0.7856 -0.2363
  108MOL0     C14491   2.888   7.457   1.384 -0.0589  0.8356  0.5836
  108MOL0     O14492   2.677   7.326   1.566  0.0071  0.2045 -0.5600
  108MOL0     C14493   2.407   7.484   1.376  0.2784 -0.1648 -1.0458
  108MOL0     C14494   2.268   7.487   1.365  0.4168 -1.0115 -0.2164
  108MOL0     N14495   2.179   7.100   0.890  0.7472 -0.7004 -0.1395
  108MOL0     N14496   2.172   7.129   0.763 -1.0872  0.1656  0.7697
  108MOL0     C14497   1.102   7.235   0.541  0.5299 -0.0298 -0.4131
  108MOL0     C14498   0.980   7.264   0.477 -0.2623  0.5183  0.1143
  108MOL0     C14499   0.613   7.331   0.219 -0.8160  0.4661  0.0306
  108MOL0     C14500   0.632   7.287   0.089  0.7251  0.2546 -0.2038
  108MOL0     C14501   0.518   7.262   0.004 -0.3809  0.7170 -0.2088
  108MOL0     C14502   0.397   7.326   0.035 -0.5035 -0.0837  0.2572
  108MOL0     O14503   0.296   7.341  -0.059 -0.2425  0.5036  0.4625
  108MOL0     C14504   0.279   7.240  -0.159 -0.0357 -0.0221  0.9393
  108MOL0     C14505   0.160   7.279  -0.243 -0.2504  0.5377  0.1943
  108MOL0     C14506   0.027   7.250  -0.176 -0.4932  0.9881  0.3226
  108MOL0     C14507  -0.079   7.266  -0.285  0.0249  0.7900  0.1720
  108MOL0     C14508  -0.209   7.218  -0.233 -0.3985 -0.0549  0.4238
  108MOL0     C14509  -0.314   7.190  -0.182  0.0234  0.5825  0.6201
  108MOL0     C14510   0.384   7.383   0.156  0.9919  0.2606 -0.3084
  108MOL0     C14511   0.486   7.386   0.258  0.4781 -0.9218  0.7950
  108MOL0     C14512   0.467   7.470   0.384 -0.0653 -0.3609 -0.3144
  108MOL0     H14513   1.076   7.170   0.161 -2.6993 -1.1695 -0.4449
  108MOL0     H14514   1.289   7.158   0.268  1.4682  1.3115  0.3305
  108MOL0     H14515   1.458   7.121   0.390  0.3387  0.4211 -0.5263
  108MOL0     H14516   1.462   7.290   0.444  1.8836  0.3344 -2.1760
  108MOL0     H14517   1.665   7.126   0.520  1.2960  0.2887  2.0912
  108MOL0     H14518   1.544   7.061   0.633 -0.6304 -1.0460 -1.2493
  108MOL0     H14519   1.669   7.237   0.745 -0.7807 -2.2384  0.1502
  108MOL0     H14520   1.512   7.292   0.709  0.8568  1.6733  0.2070
  108MOL0     H14521   1.749   7.324   0.523 -1.9707 -1.0897  0.4698
  108MOL0     H14522   1.606   7.434   0.517  0.5308  2.5932  0.1733
  108MOL0     H14523   1.776   7.564   0.611  2.3779  0.1314  1.2274
  108MOL0     H14524   1.698   7.523   0.749 -0.8270  0.1026 -0.1662
  108MOL0     H14525   1.947   7.481   0.791 -0.3303  0.4999 -0.1768
  108MOL0     H14526   1.845   7.340   0.807 -0.6648  2.4487  2.3942
  108MOL0     H14527   2.083   7.368   0.688 -0.3743 -2.5372  3.5549
  108MOL0     H14528   1.981   7.407   0.553  0.2113 -2.1513 -1.5076
  108MOL0     H14529   1.883   7.152   0.589 -1.1904  1.9832  1.6671
  108MOL0     H14530   2.059   7.179   0.543 -0.0056 -2.2085  0.3524
  108MOL0     H14531   1.851   7.074   0.837 -0.5557  0.5011 -2.6574
  108MOL0     H14532   1.946   6.996   1.100 -0.3836 -2.2418 -2.8317
  108MOL0     H14533   2.119   6.971   1.104 -0.0852  1.2798  1.6009
  108MOL0     H14534   2.149   7.219   1.181  1.1419 -1.2223  1.0123
  108MOL0     H14535   1.981   7.256   1.145 -1.1622 -0.2275  0.9401
  108MOL0     H14536   2.112   7.096   1.371  0.6436  1.2204 -0.3055
  108MOL0     H14537   1.937   7.079   1.339 -0.0065  0.8735  1.2116
  108MOL0     H14538   1.978   7.243   1.514  3.0822 -0.4378 -0.2094
  108MOL0     H14539   1.879   7.291   1.387  0.7857 -0.9137 -0.5427
  108MOL0     H14540   2.204   7.224   1.569  3.0334 -0.1107  1.3714
  108MOL0     H14541   2.435   7.240   1.614  1.9327 -0.6848 -0.7153
  108MOL0     H14542   2.821   7.698   1.589  0.3446 -0.0953 -0.2880
  108MOL0     H14543   3.068   7.749   1.558  0.3852  0.3090 -1.8851
  108MOL0     H14544   3.325   7.446   1.365  0.8964 -0.6901  4.2250
  108MOL0     H14545   3.293   7.583   1.260  0.5187 -0.1619  0.3170
  108MOL0     H14546   3.531   7.569   1.338  0.7651  2.7045 -0.0870
  108MOL0     H14547   3.456   7.716   1.397  0.3019 -0.3628 -3.6559
  108MOL0     H14548   3.401   7.591   1.615 -1.5679  2.6418 -2.0300
  108MOL0     H14549   3.511   7.469   1.568  2.2276  0.6913  0.1546
  108MOL0     H14550   3.574   7.770   1.579 -1.4035 -0.4095  0.4908
  108MOL0     H14551   3.699   7.654   1.525  0.7900 -2.1499  1.0808
  108MOL0     H14552   3.566   7.658   1.793  0.7349 -0.9645  1.9330
  108MOL0     H14553   3.731   7.726   1.763 -1.4876  1.1008 -0.4175
  108MOL0     H14554   3.693   7.427   1.719  2.3609 -2.2508 -0.4434
  108MOL0     H14555   3.835   7.520   1.714 -1.1108  0.0734 -1.7086
  108MOL0     H14556   3.665   7.542   1.966 -0.9504 -1.3111 -0.0834
  108MOL0     H14557   3.840   7.557   1.944  1.9652 -0.5853 -4.5164
  108MOL0     H14558   3.677   7.301   1.908  0.4193 -1.5909 -0.0544
  108MOL0     H14559   3.851   7.306   1.887  0.1597 -1.0924  2.1747
  108MOL0     H14560   3.086   7.401   1.317 -0.8317 -3.3966  1.0580
  108MOL0     H14561   2.839   7.377   1.329 -1.1971  3.7592 -3.0945
  108MOL0     H14562   2.469   7.550   1.317 -2.7912  2.5988 -1.4600
  108MOL0     H14563   2.225   7.565   1.304  3.0932  0.2691 -0.6260
  108MOL0     H14564   1.124   7.264   0.643  0.1991  0.3935 -0.4579
  108MOL0     H14565   0.900   7.311   0.533 -1.9044 -0.7634 -1.0667
  108MOL0     H14566   0.714   7.226   0.052 -1.5627 -2.9861 -0.3234
  108MOL0     H14567   0.528   7.209  -0.090  0.0822  1.3353 -0.5217
  108MOL0     H14568   0.270   7.140  -0.115  2.1197 -1.0009 -0.6502
  108MOL0     H14569   0.369   7.235  -0.222 -2.0926  1.5020 -2.3919
  108MOL0     H14570   0.166   7.216  -0.332 -0.8462  2.6079 -1.4000
  108MOL0     H14571   0.160   7.384  -0.276  1.4542  0.6917  0.6063
  108MOL0     H14572   0.013   7.332  -0.105  0.4314  1.7251 -0.3117
  108MOL0     H14573   0.012   7.148  -0.140 -2.6678  0.7878 -0.9747
  108MOL0     H14574  -0.079   7.370  -0.319  0.9918  0.6272 -0.3834
  108MOL0     H14575  -0.053   7.209  -0.375  0.5336 -4.2601  3.1197
  108MOL0     H14576  -0.415   7.170  -0.155 -0.2029 -0.5135 -0.9095
  108MOL0     H14577   0.286   7.426   0.176  0.7620 -0.5244  0.3366
  108MOL0     H14578   0.544   7.548   0.380 -1.8688  1.4736 -1.9376
  108MOL0     H14579   0.373   7.525   0.381  0.8663  1.6096  2.5051
  108MOL0     H14580   0.475   7.419   0.480  0.5182  2.2511  1.1186
  109MOL0     O14581   2.520  11.227   9.273 -0.3870 -0.0629  0.0746
  109MOL0     C14582   2.516  11.207   9.152 -0.3107 -0.3634  0.0758
  109MOL0     O14583   2.614  11.157   9.071 -0.2541 -0.7781 -0.0489
  109MOL0     C14584   2.734  11.120   9.124  0.3522 -0.3529 -0.5374
  109MOL0     C14585   2.794  10.996   9.099  0.5594 -0.0803 -0.0472
  109MOL0     C14586   2.915  10.957   9.155  0.7936 -0.5621 -0.2074
  109MOL0     C14587   2.989  11.050   9.234  1.1199  1.0683  0.5481
  109MOL0     O14588   3.107  11.014   9.292 -0.4837  0.6307 -0.4470
  109MOL0     C14589   3.208  10.959   9.207 -0.1373  0.2745  0.3682
  109MOL0     C14590   3.350  10.954   9.269 -0.3096 -0.2077  0.4544
  109MOL0     C14591   3.360  10.831   9.364 -0.1753  0.0505  0.2675
  109MOL0     C14592   3.280  10.837   9.488  0.2744  0.6408  0.4621
  109MOL0     C14593   3.329  10.940   9.587  0.2514 -0.8690  0.4300
  109MOL0     C14594   3.249  10.942   9.711  0.1026  0.1184 -0.8932
  109MOL0     C14595   3.103  10.998   9.691 -0.5899  0.1769  0.0172
  109MOL0     C14596   3.031  11.006   9.832  0.1693  0.2515 -0.3044
  109MOL0     N14597   2.901  11.060   9.808 -0.1828 -0.2452  0.1882
  109MOL0     C14598   2.874  11.177   9.737 -0.7050 -0.1927  0.0092
  109MOL0     C14599   2.753  11.157   9.680  0.2055 -0.8029 -0.0759
  109MOL0     C14600   2.689  11.250   9.583 -0.7155  1.3197  0.6872
  109MOL0     C14601   2.661  11.389   9.646 -0.0153 -0.3223 -0.4315
  109MOL0     C14602   2.553  11.480   9.570  0.5736  0.6039 -0.0587
  109MOL0     C14603   2.601  11.517   9.432 -0.7438 -0.0990  0.0205
  109MOL0     O14604   2.712  11.612   9.443  0.6959 -0.2113 -0.2372
  109MOL0     C14605   2.786  11.646   9.329  0.5822 -0.3355 -0.1790
  109MOL0     C14606   2.869  11.750   9.349 -0.6856  0.4245  0.4924
  109MOL0     C14607   2.945  11.803   9.248  0.8851  0.7512 -0.2677
  109MOL0     C14608   2.935  11.752   9.115 -1.2892  0.0044  0.1749
  109MOL0     C14609   3.011  11.809   9.005  0.4800  0.4181  0.3383
  109MOL0     O14610   2.970  11.777   8.882 -0.2138  0.4370 -0.3128
  109MOL0     C14611   3.046  11.835   8.788  0.2347 -0.7433 -0.0781
  109MOL0     C14612   2.986  11.932   8.710  0.4249 -0.5839  0.5958
  109MOL0     C14613   3.061  11.990   8.606 -0.0660 -1.7459 -0.0665
  109MOL0     C14614   3.192  11.952   8.578 -0.2089  0.0941 -0.4430
  109MOL0     O14615   3.265  12.011   8.478  0.1666  0.3594 -0.6373
  109MOL0     C14616   3.405  12.026   8.473  0.0617  0.4242  0.3021
  109MOL0     C14617   3.458  12.025   8.324 -0.0271 -0.0456  0.0182
  109MOL0     C14618   3.362  12.089   8.235 -0.9443  0.4921  0.1227
  109MOL0     C14619   3.433  12.088   8.091 -0.5299 -0.2105 -0.5687
  109MOL0     C14620   3.337  12.135   7.984  0.7993 -0.0038 -0.2518
  109MOL0     C14621   3.397  12.094   7.853 -0.2172 -0.9340 -0.1952
  109MOL0     C14622   3.354  11.959   7.801  0.0579 -0.0533  0.2252
  109MOL0     C14623   3.428  11.929   7.668  0.3275 -0.3052  0.4687
  109MOL0    Cl14624   3.598  11.906   7.684 -0.0164 -0.1161 -0.2847
  109MOL0     C14625   3.252  11.862   8.673  0.0700  0.3303  0.8357
  109MOL0     C14626   3.177  11.798   8.764  0.3020  0.3333  0.0025
  109MOL0     O14627   3.092  11.895   9.037  0.2548  0.5452  0.3153
  109MOL0     C14628   2.854  11.635   9.104 -0.0740 -0.7285 -0.0753
  109MOL0     C14629   2.778  11.585   9.207  0.2666 -0.4059 -0.3760
  109MOL0     N14630   2.706  11.030   9.704  0.1765 -0.5184 -0.3949
  109MOL0     N14631   2.792  10.981   9.790 -0.9414 -0.0352  1.1312
  109MOL0     C14632   2.922  11.173   9.259 -0.3138 -0.0169  0.3346
  109MOL0     C14633   2.802  11.209   9.206 -0.1275  1.1949  0.4698
  109MOL0     C14634   2.383  11.221   9.080  0.5706 -0.0502  1.0382
  109MOL0     C14635   2.362  11.178   8.944  0.2688  0.6639  0.1816
  109MOL0     C14636   2.247  11.193   8.871  0.3139 -0.2341  0.9146
  109MOL0     C14637   2.134  11.256   8.920 -0.3096 -0.3457  0.1353
  109MOL0     O14638   2.018  11.259   8.847  0.4755  0.7276  0.9576
  109MOL0     C14639   1.953  11.390   8.850  0.7585 -0.3464 -0.4569
  109MOL0     C14640   1.869  11.428   8.727 -0.5746 -0.1793 -0.5485
  109MOL0     C14641   1.822  11.573   8.742  0.1773  1.0621 -0.3804
  109MOL0     C14642   1.751  11.632   8.612  0.8296 -0.0024 -0.2443
  109MOL0     C14643   1.612  11.584   8.612  0.0196  0.1242  0.7720
  109MOL0     C14644   1.492  11.555   8.614 -0.2444 -0.2599  0.0497
  109MOL0     C14645   2.148  11.300   9.051  0.4994 -0.1948  0.5642
  109MOL0     C14646   2.265  11.280   9.128  0.0854 -0.5680 -0.8578
  109MOL0     C14647   2.280  11.366   9.258  0.1179  0.6045  0.0614
  109MOL0     H14648   2.748  10.929   9.026 -0.2445  0.9961 -0.5637
  109MOL0     H14649   2.946  10.855   9.134 -0.5791 -1.0034 -0.1970
  109MOL0     H14650   3.172  10.864   9.167 -2.5680  2.0944 -2.1719
  109MOL0     H14651   3.207  11.027   9.121 -3.9080  1.1993  0.9352
  109MOL0     H14652   3.375  11.050   9.316 -1.0832  1.9477 -3.1041
  109MOL0     H14653   3.428  10.936   9.194 -0.6940  0.4443 -0.1246
  109MOL0     H14654   3.464  10.805   9.384  0.5890  2.0992 -0.7084
  109MOL0     H14655   3.329  10.740   9.312  0.0143 -1.1415  2.1385
  109MOL0     H14656   3.174  10.854   9.464  0.2844  0.3463  0.1993
  109MOL0     H14657   3.300  10.738   9.530  2.0184 -0.9688 -3.6555
  109MOL0     H14658   3.437  10.926   9.586  0.1504 -1.7356 -0.5865
  109MOL0     H14659   3.323  11.040   9.545 -2.4075  0.2828  3.1778
  109MOL0     H14660   3.251  10.840   9.750  0.2699  0.5350  0.2586
  109MOL0     H14661   3.306  11.001   9.784  1.0865  3.0079 -3.7602
  109MOL0     H14662   3.042  10.922   9.641 -0.4392 -0.7880  1.2700
  109MOL0     H14663   3.097  11.089   9.631  0.6427  0.1307 -0.1966
  109MOL0     H14664   3.012  10.908   9.877  0.6935  0.4582  0.3858
  109MOL0     H14665   3.101  11.050   9.904  1.1860 -2.5957  0.5770
  109MOL0     H14666   2.942  11.262   9.744 -1.4010  0.3091  1.0143
  109MOL0     H14667   2.764  11.265   9.504 -0.1076  1.4428  1.2712
  109MOL0     H14668   2.597  11.200   9.550 -0.5431  1.8516 -0.6552
  109MOL0     H14669   2.627  11.387   9.749  0.1001  1.0345 -0.3498
  109MOL0     H14670   2.756  11.443   9.652  1.0051 -2.1817  1.6898
  109MOL0     H14671   2.521  11.570   9.622  0.9649 -1.2781  3.7763
  109MOL0     H14672   2.463  11.420   9.553  1.9062 -1.4961 -0.2234
  109MOL0     H14673   2.525  11.556   9.364 -0.7592  2.0065  1.1560
  109MOL0     H14674   2.622  11.425   9.376 -0.6328  0.8173 -1.5221
  109MOL0     H14675   2.877  11.784   9.451 -1.0465  1.2005  0.2744
  109MOL0     H14676   3.017  11.880   9.275  0.9154  0.9564 -0.9255
  109MOL0     H14677   2.890  11.969   8.744  1.3936  2.9824 -0.0994
  109MOL0     H14678   3.017  12.075   8.555  0.2571 -0.2263  2.0522
  109MOL0     H14679   3.431  12.117   8.528 -3.6226  0.4798  2.2230
  109MOL0     H14680   3.454  11.943   8.524  2.5707 -0.4872 -3.1951
  109MOL0     H14681   3.554  12.078   8.319 -1.5958  2.9436 -1.8295
  109MOL0     H14682   3.486  11.924   8.293  0.5908  0.1955 -0.2235
  109MOL0     H14683   3.265  12.040   8.221 -1.3880  1.1467  0.8301
  109MOL0     H14684   3.342  12.189   8.274 -1.5854  0.5681 -0.3643
  109MOL0     H14685   3.461  11.986   8.062 -0.8155  0.1356 -2.1212
  109MOL0     H14686   3.524  12.148   8.090 -0.8073  0.1981 -1.2016
  109MOL0     H14687   3.317  12.243   7.991  2.6862  0.2986  1.2060
  109MOL0     H14688   3.247  12.072   7.985 -0.8853  2.2435  0.2975
  109MOL0     H14689   3.356  12.175   7.791  1.1626 -0.9986 -1.2548
  109MOL0     H14690   3.506  12.105   7.849 -0.2388 -0.8883 -1.0120
  109MOL0     H14691   3.246  11.959   7.782  0.0720 -0.8834  0.0837
  109MOL0     H14692   3.385  11.872   7.860  3.3871  1.4316  0.9170
  109MOL0     H14693   3.381  11.847   7.613 -0.4349  0.1516  0.4325
  109MOL0     H14694   3.412  12.016   7.604 -0.7313 -0.0617  1.0351
  109MOL0     H14695   3.355  11.827   8.672 -0.8231 -2.8076 -2.4589
  109MOL0     H14696   3.222  11.713   8.815  1.0703 -0.6115 -2.1349
  109MOL0     H14697   2.842  11.591   9.006  1.2428 -1.1563 -0.0767
  109MOL0     H14698   2.716  11.500   9.182  0.1187  0.2974 -2.5754
  109MOL0     H14699   2.983  11.240   9.318 -0.9689 -0.7165  1.8464
  109MOL0     H14700   2.756  11.306   9.223  0.2822  1.3540  0.6897
  109MOL0     H14701   2.448  11.136   8.894  0.4105  1.6280 -0.4106
  109MOL0     H14702   2.234  11.156   8.770  2.2794 -0.0185  0.5448
  109MOL0     H14703   2.027  11.471   8.844 -1.1349  1.4117 -1.2394
  109MOL0     H14704   1.902  11.406   8.945 -0.4165 -2.8858 -0.5861
  109MOL0     H14705   1.779  11.368   8.709 -1.2087  0.5036  0.2486
  109MOL0     H14706   1.926  11.418   8.634 -0.1226  1.7479 -0.5220
  109MOL0     H14707   1.899  11.647   8.767 -0.7032  2.9188 -2.7227
  109MOL0     H14708   1.752  11.571   8.826  2.4107 -1.8674  1.6219
  109MOL0     H14709   1.754  11.741   8.617 -0.7922  0.2020 -2.3699
  109MOL0     H14710   1.802  11.584   8.528 -1.6441 -2.1295 -0.6627
  109MOL0     H14711   1.386  11.536   8.613 -0.0669 -1.3463 -0.0771
  109MOL0     H14712   2.063  11.351   9.095 -0.3501 -1.5718  0.5537
  109MOL0     H14713   2.190  11.429   9.265  0.1393  0.7987 -1.2112
  109MOL0     H14714   2.278  11.303   9.347  0.7549 -0.9888 -1.0205
  109MOL0     H14715   2.369  11.429   9.252 -1.0255  2.1639 -1.6653
  110MOL0     O14716   7.873  11.296   3.421  0.0900 -0.5614  0.1300
  110MOL0     C14717   7.790  11.228   3.362 -0.1002 -0.1956 -0.7698
  110MOL0     O14718   7.812  11.094   3.334  0.1324 -0.4777 -0.2998
  110MOL0     C14719   7.913  11.026   3.394  0.1605  0.2461  0.3353
  110MOL0     C14720   7.956  11.050   3.518  0.5293 -0.0848 -1.0261
  110MOL0     C14721   8.055  10.962   3.571  0.3977 -0.8830  0.2084
  110MOL0     C14722   8.128  10.875   3.484 -0.1488 -0.7969 -0.8856
  110MOL0     O14723   8.231  10.801   3.519  0.2343  0.4614 -0.5414
  110MOL0     C14724   8.325  10.841   3.614 -0.7609  0.4802  0.4104
  110MOL0     C14725   8.396  10.967   3.571 -0.4632  0.7613  0.3692
  110MOL0     C14726   8.534  10.986   3.647  0.3436 -0.6318 -0.2055
  110MOL0     C14727   8.600  11.116   3.597 -0.0384 -0.2339  0.8371
  110MOL0     C14728   8.736  11.139   3.666  0.0715  0.1334  0.0119
  110MOL0     C14729   8.831  11.028   3.613 -0.1188 -0.3000  0.5273
  110MOL0     C14730   8.961  11.044   3.689  0.3581  0.4183  0.6901
  110MOL0     C14731   8.979  10.980   3.829  0.1095  0.5870  0.1720
  110MOL0     N14732   9.108  10.920   3.837  0.0943 -0.3706  0.2660
  110MOL0     C14733   9.233  10.974   3.804 -0.1515 -0.5435 -0.0367
  110MOL0     C14734   9.329  10.879   3.831  0.4421 -0.2585  0.6882
  110MOL0     C14735   9.471  10.892   3.822  0.0509 -0.2900  0.4669
  110MOL0     C14736   9.570  10.799   3.878 -0.4544  0.4974 -1.2835
  110MOL0     C14737   9.567  10.657   3.819  0.5482  0.3664 -0.7367
  110MOL0     C14738   9.678  10.568   3.867 -1.0578  0.5562  0.1003
  110MOL0     O14739   9.795  10.620   3.794  0.2614  0.5712  0.0102
  110MOL0     C14740   9.924  10.578   3.821 -0.6000  0.5251 -0.4211
  110MOL0     C14741   9.959  10.463   3.894 -0.1365  0.3841  0.1310
  110MOL0     C14742  10.094  10.440   3.934  0.3510 -0.4002 -0.0351
  110MOL0     C14743  10.198  10.528   3.898 -0.5740 -0.7857 -0.1788
  110MOL0     C14744  10.333  10.520   3.955 -0.0766 -0.3863  0.2440
  110MOL0     O14745  10.425  10.590   3.875 -0.3069  0.2798  0.5834
  110MOL0     C14746  10.562  10.586   3.913  1.3798  0.5743 -0.0468
  110MOL0     C14747  10.601  10.581   4.046 -0.3445  0.8551  0.2216
  110MOL0     C14748  10.735  10.611   4.082  0.7135 -0.0048 -0.3970
  110MOL0     C14749  10.835  10.636   3.985  0.9287  0.9293 -0.8533
  110MOL0     O14750  10.969  10.649   4.017  0.1831  1.0828  0.0789
  110MOL0     C14751  11.011  10.676   4.157  0.3736  0.5481  0.8518
  110MOL0     C14752  11.168  10.677   4.168  0.2915  0.0310 -0.2983
  110MOL0     C14753  11.220  10.745   4.301  0.0842  0.0368 -0.1512
  110MOL0     C14754  11.378  10.740   4.302  1.0845  0.5275  0.1971
  110MOL0     C14755  11.433  10.790   4.433 -0.7581  0.7198 -0.0485
  110MOL0     C14756  11.586  10.783   4.429 -0.6308  0.2193  0.3443
  110MOL0     C14757  11.652  10.902   4.356 -0.3995 -0.7867 -0.3781
  110MOL0     C14758  11.600  11.036   4.417 -0.4825  0.5611 -0.5929
  110MOL0    Cl14759  11.709  11.166   4.371  0.3379 -0.1610  0.0117
  110MOL0     C14760  10.786  10.644   3.854 -0.0341  0.2176  0.7221
  110MOL0     C14761  10.653  10.622   3.817  0.3033  0.2852  0.5172
  110MOL0     O14762  10.359  10.437   4.040 -0.8761  0.4169 -0.1201
  110MOL0     C14763  10.161  10.641   3.813 -0.8147  0.0465  0.2794
  110MOL0     C14764  10.028  10.659   3.772 -0.2334  0.0641 -0.1211
  110MOL0     N14765   9.262  10.769   3.865 -0.6327  0.5591 -0.2915
  110MOL0     N14766   9.131  10.793   3.870 -0.2306  0.4320 -0.3288
  110MOL0     C14767   8.082  10.866   3.354  0.0129 -0.8298  0.8538
  110MOL0     C14768   7.965  10.928   3.309 -0.7442 -0.2615 -0.6095
  110MOL0     C14769   7.663  11.294   3.308  0.4194  0.3101 -0.1619
  110MOL0     C14770   7.561  11.207   3.256 -0.0169 -0.5548 -0.4019
  110MOL0     C14771   7.440  11.270   3.213  0.4801  0.6749 -0.4519
  110MOL0     C14772   7.421  11.402   3.211  0.9813 -0.6736  0.5515
  110MOL0     O14773   7.303  11.464   3.168 -0.6768 -0.0652 -0.3654
  110MOL0     C14774   7.176  11.416   3.211 -0.7911 -0.0258 -0.5522
  110MOL0     C14775   7.067  11.472   3.134  0.4101  0.2673  0.1189
  110MOL0     C14776   7.066  11.406   2.995  0.4327 -0.0093 -1.3620
  110MOL0     C14777   6.952  11.469   2.897  0.0298 -0.6448  0.6788
  110MOL0     C14778   6.820  11.438   2.957  0.2460 -1.0585 -0.0769
  110MOL0     C14779   6.721  11.393   3.006  1.3909  0.0144 -0.6465
  110MOL0     C14780   7.523  11.484   3.252 -0.6678 -0.1879 -0.3781
  110MOL0     C14781   7.651  11.436   3.302  0.8085 -0.2063  0.8924
  110MOL0     C14782   7.738  11.527   3.385 -0.2355  0.0883  0.1515
  110MOL0     H14783   7.907  11.120   3.584  0.2365 -1.0091 -0.2454
  110MOL0     H14784   8.100  10.982   3.668  0.5409  1.3218 -0.2613
  110MOL0     H14785   8.279  10.852   3.713  0.6304  1.3656  0.9778
  110MOL0     H14786   8.399  10.760   3.610 -0.8707  0.3902  0.1418
  110MOL0     H14787   8.331  11.054   3.588 -0.1358  0.4012  4.5288
  110MOL0     H14788   8.415  10.952   3.464  0.2240  0.9435  0.4655
  110MOL0     H14789   8.594  10.897   3.624  2.6813  0.8943 -0.3939
  110MOL0     H14790   8.527  10.995   3.755 -0.0144 -1.1265 -0.1814
  110MOL0     H14791   8.619  11.115   3.489  0.9765  3.8247  0.8510
  110MOL0     H14792   8.532  11.200   3.610 -0.0003 -0.4848  3.1046
  110MOL0     H14793   8.781  11.233   3.633  0.2089 -0.1326 -0.5720
  110MOL0     H14794   8.719  11.146   3.774  1.3758 -1.7804  0.3777
  110MOL0     H14795   8.793  10.927   3.629  0.9642 -0.5753  1.4364
  110MOL0     H14796   8.846  11.033   3.505 -0.9008 -2.5177  0.2776
  110MOL0     H14797   9.006  11.143   3.687  0.7840  0.2218  0.4853
  110MOL0     H14798   9.021  10.981   3.623 -2.5687  0.9036 -2.7463
  110MOL0     H14799   8.971  11.049   3.913  0.1023 -1.1716  1.6799
  110MOL0     H14800   8.902  10.904   3.842  0.9702 -0.3658 -0.1409
  110MOL0     H14801   9.245  11.078   3.776 -0.4379 -0.8366 -1.3185
  110MOL0     H14802   9.500  10.907   3.717 -3.3281  0.9806 -0.4137
  110MOL0     H14803   9.492  10.984   3.877  3.2448 -2.0889  2.6145
  110MOL0     H14804   9.667  10.844   3.854 -0.6952  1.3090 -0.7717
  110MOL0     H14805   9.563  10.791   3.986 -0.4099  0.0206 -1.3167
  110MOL0     H14806   9.582  10.659   3.710 -2.3998  1.6201 -1.2154
  110MOL0     H14807   9.469  10.611   3.832  2.0660 -3.0930 -0.3495
  110MOL0     H14808   9.658  10.462   3.854 -0.6867  0.3559  1.1011
  110MOL0     H14809   9.708  10.584   3.971  0.1518  1.4719 -0.3579
  110MOL0     H14810   9.884  10.388   3.915  2.4634 -1.8236  2.2587
  110MOL0     H14811  10.110  10.351   3.995 -2.0440 -1.6229 -1.0707
  110MOL0     H14812  10.542  10.554   4.133  0.6055 -0.7309  0.4125
  110MOL0     H14813  10.768  10.611   4.185 -0.4923 -0.4082  0.0020
  110MOL0     H14814  10.973  10.772   4.192 -0.7902  0.8904 -1.1721
  110MOL0     H14815  10.979  10.601   4.229  0.1431  1.6002  1.8651
  110MOL0     H14816  11.203  10.573   4.163 -0.8827 -0.5490  2.0078
  110MOL0     H14817  11.198  10.742   4.086 -0.8880 -0.1724 -0.9203
  110MOL0     H14818  11.175  10.841   4.329  1.4319  0.3106  1.2374
  110MOL0     H14819  11.184  10.676   4.378 -2.1723 -1.6177 -2.4795
  110MOL0     H14820  11.403  10.811   4.222  1.6760 -2.8055 -2.8375
  110MOL0     H14821  11.420  10.646   4.267 -1.5190 -0.0085 -1.8658
  110MOL0     H14822  11.400  10.723   4.512 -1.5979 -2.3549 -2.7477
  110MOL0     H14823  11.397  10.887   4.466 -1.3083  0.6403 -0.3927
  110MOL0     H14824  11.630  10.776   4.529  0.7501 -1.7937 -0.3650
  110MOL0     H14825  11.606  10.691   4.374 -1.5880  0.7788 -0.9799
  110MOL0     H14826  11.628  10.909   4.250  1.2435 -0.1494 -0.7346
  110MOL0     H14827  11.761  10.888   4.361 -0.4912 -1.0816  2.1980
  110MOL0     H14828  11.499  11.060   4.381 -0.9629 -0.1437  0.2556
  110MOL0     H14829  11.587  11.026   4.525  1.7722 -2.7752 -0.4786
  110MOL0     H14830  10.861  10.645   3.775  0.1513  1.6824  0.8911
  110MOL0     H14831  10.620  10.631   3.714 -1.5863  2.0249  1.2055
  110MOL0     H14832  10.239  10.710   3.782 -0.9804 -0.2758 -0.8750
  110MOL0     H14833  10.001  10.743   3.709  2.1137 -1.1178 -2.9321
  110MOL0     H14834   8.126  10.792   3.287 -2.3625 -2.4691  0.9453
  110MOL0     H14835   7.927  10.917   3.208  0.6975  2.1015 -1.4960
  110MOL0     H14836   7.571  11.099   3.247 -0.9081 -0.6179 -0.8033
  110MOL0     H14837   7.365  11.207   3.167 -0.6106  1.7182 -0.1336
  110MOL0     H14838   7.170  11.458   3.312 -1.2425  0.0087 -0.5888
  110MOL0     H14839   7.181  11.307   3.216  1.9372 -0.1439 -3.0232
  110MOL0     H14840   7.083  11.580   3.129  0.2136  0.2697 -0.5743
  110MOL0     H14841   6.979  11.453   3.196  1.3500 -0.5340  1.2519
  110MOL0     H14842   7.044  11.300   3.007  1.8516 -0.3353 -1.4774
  110MOL0     H14843   7.165  11.409   2.950  0.8462  0.2106 -0.4535
  110MOL0     H14844   6.962  11.576   2.881 -2.8476 -0.4590 -0.5249
  110MOL0     H14845   6.956  11.426   2.796  0.0664 -2.1837  1.3031
  110MOL0     H14846   6.629  11.351   3.041  1.2984 -0.5588 -1.5380
  110MOL0     H14847   7.500  11.590   3.263 -0.5019  0.0448 -1.9976
  110MOL0     H14848   7.836  11.517   3.337 -0.6480  1.9079 -1.1724
  110MOL0     H14849   7.709  11.632   3.376  0.3290  0.1432 -1.3537
  110MOL0     H14850   7.742  11.508   3.493 -0.5505 -3.1210 -0.3220
  111MOL0     O14851   7.826   1.014  10.690  0.5353  0.3802 -0.0761
  111MOL0     C14852   7.900   1.048  10.593 -0.1490  1.0835 -0.2934
  111MOL0     O14853   7.854   1.116  10.488 -0.5064 -0.5318 -0.1479
  111MOL0     C14854   7.719   1.131  10.456 -0.0533 -0.2768 -0.4844
  111MOL0     C14855   7.630   1.015  10.463  0.3564 -0.1918  0.1206
  111MOL0     C14856   7.495   1.030  10.422  0.7783 -0.2857 -0.5180
  111MOL0     C14857   7.447   1.150  10.376 -0.3067 -0.4861  0.5055
  111MOL0     O14858   7.309   1.173  10.340  0.2108  0.9523 -0.1734
  111MOL0     C14859   7.224   1.052  10.338 -0.2068 -0.1636 -0.0178
  111MOL0     C14860   7.073   1.081  10.296 -0.2839 -0.0359 -0.7261
  111MOL0     C14861   7.083   1.157  10.163 -0.0965  0.1864 -0.2162
  111MOL0     C14862   6.951   1.233  10.132 -0.4687  1.3314 -0.4704
  111MOL0     C14863   6.950   1.262   9.980 -0.6968  0.0169  0.2820
  111MOL0     C14864   6.812   1.302   9.938  0.0103 -0.4834  0.5776
  111MOL0     C14865   6.811   1.387   9.815 -0.8493 -0.0998  0.2362
  111MOL0     C14866   6.672   1.443   9.787 -0.6350  0.4684  0.1232
  111MOL0     N14867   6.577   1.340   9.739 -0.6185 -0.0859 -1.1051
  111MOL0     C14868   6.501   1.266   9.829  0.0005 -0.3444 -0.2809
  111MOL0     C14869   6.440   1.183   9.746  0.7760 -0.1622 -0.2333
  111MOL0     C14870   6.336   1.079   9.805 -0.3513  0.3845 -0.2203
  111MOL0     C14871   6.210   1.151   9.857  0.3556  0.5811 -0.0157
  111MOL0     C14872   6.118   1.046   9.922  0.5247  0.6244  0.2006
  111MOL0     C14873   6.057   0.943   9.825 -0.3410 -1.3080  0.0193
  111MOL0     O14874   5.954   1.000   9.734  0.0883  0.2053  0.3408
  111MOL0     C14875   5.870   0.899   9.687  0.5223  0.0124  0.2042
  111MOL0     C14876   5.754   0.952   9.631  0.5913  0.2165  0.1121
  111MOL0     C14877   5.652   0.868   9.595  0.0658  0.0490  0.8749
  111MOL0     C14878   5.664   0.728   9.613  0.7334 -0.4339 -0.0101
  111MOL0     C14879   5.553   0.641   9.583 -0.3698 -0.8546  0.1522
  111MOL0     O14880   5.419   0.691   9.589  0.5102  0.3264  0.2257
  111MOL0     C14881   5.326   0.607   9.548  0.6602  0.3320 -0.4672
  111MOL0     C14882   5.218   0.588   9.638 -0.2167  0.0220 -0.2333
  111MOL0     C14883   5.107   0.518   9.594  0.0171  0.0121 -0.9557
  111MOL0     C14884   5.113   0.447   9.474 -0.3875  0.3125  0.0505
  111MOL0     O14885   5.002   0.374   9.443 -0.5650  0.1245  0.3836
  111MOL0     C14886   5.016   0.246   9.379  0.2009  0.5446 -0.5667
  111MOL0     C14887   4.874   0.190   9.357  0.0238 -0.6966  0.2125
  111MOL0     C14888   4.876   0.038   9.399 -0.6097 -0.2659 -0.3178
  111MOL0     C14889   4.734  -0.019   9.401 -0.1538  0.3507 -0.0726
  111MOL0     C14890   4.731  -0.165   9.455  0.8380  0.1711 -0.0201
  111MOL0     C14891   4.594  -0.227   9.431 -0.0819  0.1352 -1.2073
  111MOL0     C14892   4.557  -0.358   9.507 -0.4457 -0.0753  0.4430
  111MOL0     C14893   4.655  -0.471   9.493 -0.7613  0.1688 -0.0818
  111MOL0    Cl14894   4.562  -0.617   9.462  0.0968 -0.1938 -0.1132
  111MOL0     C14895   5.225   0.456   9.394  0.1180  0.2016  0.1845
  111MOL0     C14896   5.340   0.533   9.433 -0.5812 -0.0838  0.4704
  111MOL0     O14897   5.580   0.525   9.578  0.2010 -0.0375  1.2819
  111MOL0     C14898   5.796   0.674   9.639  0.3173 -0.2497 -0.1017
  111MOL0     C14899   5.895   0.763   9.689 -0.0862  0.0166  0.6616
  111MOL0     N14900   6.458   1.218   9.614 -0.6396  0.2624  0.2868
  111MOL0     N14901   6.549   1.312   9.613  0.3317  0.1112  0.0073
  111MOL0     C14902   7.532   1.261  10.369  0.4912  1.1762 -0.0495
  111MOL0     C14903   7.664   1.256  10.411 -0.4122  0.1636  0.0915
  111MOL0     C14904   8.049   1.022  10.598  0.2570 -0.0281  0.1565
  111MOL0     C14905   8.133   1.089  10.499  0.0757  0.0253 -1.4191
  111MOL0     C14906   8.267   1.066  10.491 -1.6107  0.2869  0.5740
  111MOL0     C14907   8.330   0.987  10.585  0.9945 -0.0741  0.3589
  111MOL0     O14908   8.463   0.952  10.597  0.5547  0.7553 -0.3718
  111MOL0     C14909   8.571   1.038  10.556 -1.3655 -0.4783  0.2129
  111MOL0     C14910   8.610   1.133  10.666  0.5153 -0.4841 -1.3011
  111MOL0     C14911   8.740   1.209  10.651  0.4072 -0.4404 -0.0909
  111MOL0     C14912   8.857   1.125  10.690  0.1481 -0.6522  0.1356
  111MOL0     C14913   8.979   1.198  10.663 -1.1968  1.1190  0.6768
  111MOL0     C14914   9.092   1.239  10.641  0.1828 -0.4565  1.0101
  111MOL0     C14915   8.246   0.906  10.665 -0.4598  0.1091  0.0861
  111MOL0     C14916   8.108   0.926  10.675 -0.3715 -0.3185 -1.0202
  111MOL0     C14917   8.044   0.849  10.782 -1.0775 -0.3813 -0.1371
  111MOL0     H14918   7.664   0.919  10.501  2.6470  0.8300  0.8148
  111MOL0     H14919   7.432   0.941  10.420  0.0925  0.1854 -0.1996
  111MOL0     H14920   7.273   0.989  10.263  1.0094  2.7335 -1.8632
  111MOL0     H14921   7.219   0.994  10.431  0.5296 -0.6124 -0.2510
  111MOL0     H14922   7.024   1.146  10.369  1.2509  2.1353 -1.5156
  111MOL0     H14923   7.013   0.992  10.278 -0.4039  0.1344 -1.2012
  111MOL0     H14924   7.118   1.100  10.076 -0.0964  0.8723 -0.6774
  111MOL0     H14925   7.162   1.231  10.181  0.2955 -0.7376  2.2106
  111MOL0     H14926   6.859   1.177  10.150 -0.8306  1.5248 -1.6180
  111MOL0     H14927   6.958   1.327  10.187  1.0971  0.3830  1.0292
  111MOL0     H14928   7.026   1.340   9.965  1.8093 -1.7736  2.6206
  111MOL0     H14929   6.990   1.167   9.943 -0.7567  0.0809  0.0489
  111MOL0     H14930   6.749   1.214   9.927  2.3007 -2.1579  0.2294
  111MOL0     H14931   6.784   1.369  10.021  1.2687 -1.6394  1.9946
  111MOL0     H14932   6.842   1.325   9.730 -1.3061  0.6900 -0.5170
  111MOL0     H14933   6.882   1.468   9.833 -1.1683  0.1447  0.4185
  111MOL0     H14934   6.647   1.497   9.879  2.4663  0.1991  1.2582
  111MOL0     H14935   6.676   1.519   9.708  0.2244 -0.3246 -0.6216
  111MOL0     H14936   6.500   1.271   9.938  3.6366  0.5066 -0.1351
  111MOL0     H14937   6.302   1.004   9.733 -1.9695 -0.1016  0.9954
  111MOL0     H14938   6.380   1.025   9.888  1.5719  2.3529  0.1407
  111MOL0     H14939   6.235   1.226   9.932  1.7439  1.1282 -1.0064
  111MOL0     H14940   6.157   1.206   9.779  2.5495  1.7464 -0.7604
  111MOL0     H14941   6.027   1.084   9.970 -0.9646  0.6828 -2.4492
  111MOL0     H14942   6.174   0.997  10.002 -1.9611 -1.7172  0.6404
  111MOL0     H14943   6.022   0.858   9.883 -0.0635 -0.8304  0.9078
  111MOL0     H14944   6.142   0.901   9.771 -0.9657  1.2297 -3.3218
  111MOL0     H14945   5.742   1.060   9.630  0.1517  0.1721 -0.9035
  111MOL0     H14946   5.558   0.919   9.576  0.4535  0.8705  1.1509
  111MOL0     H14947   5.219   0.634   9.737 -2.0733 -2.3207  0.9718
  111MOL0     H14948   5.025   0.510   9.665  0.9379  3.6002  0.7594
  111MOL0     H14949   5.068   0.244   9.283  2.3288 -0.5492  0.5282
  111MOL0     H14950   5.066   0.181   9.450  1.3973  2.8388  0.8011
  111MOL0     H14951   4.804   0.247   9.418  2.9094  2.3363  0.9201
  111MOL0     H14952   4.843   0.190   9.252 -1.2378  2.8103  0.4580
  111MOL0     H14953   4.935  -0.018   9.325  1.9792 -0.2273  1.5518
  111MOL0     H14954   4.913   0.014   9.500 -1.0315  0.4891  0.0179
  111MOL0     H14955   4.693  -0.011   9.300  1.4199  1.1006 -0.6925
  111MOL0     H14956   4.672   0.036   9.471 -0.7554  0.2142 -0.4946
  111MOL0     H14957   4.754  -0.157   9.561 -0.7069 -0.5543  0.3989
  111MOL0     H14958   4.812  -0.219   9.406  0.0588  0.0633 -1.2474
  111MOL0     H14959   4.521  -0.151   9.462  0.8994 -0.1341  2.1202
  111MOL0     H14960   4.571  -0.245   9.325 -1.5134 -2.9622 -0.4759
  111MOL0     H14961   4.461  -0.382   9.460 -1.3829  1.5238  1.4735
  111MOL0     H14962   4.539  -0.337   9.612 -0.1454 -0.1073  0.5017
  111MOL0     H14963   4.730  -0.448   9.416 -0.2889  1.0255  0.6201
  111MOL0     H14964   4.712  -0.484   9.585 -1.1463  1.5721  0.3714
  111MOL0     H14965   5.226   0.416   9.293 -0.7156  1.0962 -0.1984
  111MOL0     H14966   5.430   0.538   9.373 -0.0630 -1.4489  1.0861
  111MOL0     H14967   5.799   0.565   9.636  1.3273 -0.2681  0.9314
  111MOL0     H14968   5.989   0.716   9.717 -0.9251 -1.7555  0.6296
  111MOL0     H14969   7.502   1.363  10.346 -0.4652  1.0844  0.7022
  111MOL0     H14970   7.733   1.338  10.428  2.4751 -2.0585 -0.0683
  111MOL0     H14971   8.077   1.152  10.431 -1.2585  4.1364  2.8751
  111MOL0     H14972   8.325   1.116  10.414 -0.8049  0.4823  1.2946
  111MOL0     H14973   8.542   1.093  10.467 -1.5021 -0.8167  0.0456
  111MOL0     H14974   8.665   0.986  10.539  1.1567  2.9924  2.2592
  111MOL0     H14975   8.607   1.073  10.758 -1.9437 -0.3493 -1.2427
  111MOL0     H14976   8.527   1.204  10.670  1.5783  0.7677  2.1013
  111MOL0     H14977   8.739   1.306  10.703  2.0424  0.6299 -1.9426
  111MOL0     H14978   8.738   1.224  10.543 -1.6054  0.7018  0.0542
  111MOL0     H14979   8.849   1.105  10.797 -2.7931 -4.3374 -0.5448
  111MOL0     H14980   8.852   1.025  10.646 -0.6319 -1.2245  1.4722
  111MOL0     H14981   9.189   1.281  10.624  1.0859 -2.9184 -0.2559
  111MOL0     H14982   8.302   0.842  10.733  0.6961  1.8959  0.8967
  111MOL0     H14983   7.992   0.765  10.736  0.1102 -0.7142 -0.8982
  111MOL0     H14984   8.111   0.806  10.857 -3.2695 -2.9941  0.4750
  111MOL0     H14985   7.979   0.916  10.840  0.1877  0.1328  0.7207
  112MOL0     O14986   5.128   7.390   2.364 -0.5254  0.7965 -0.5626
  112MOL0     C14987   5.064   7.286   2.385  0.2110 -0.2955 -0.1502
  112MOL0     O14988   5.119   7.160   2.428 -0.1412  0.3255 -0.4148
  112MOL0     C14989   5.255   7.159   2.428  0.1449  0.0169 -0.0248
  112MOL0     C14990   5.325   7.180   2.552 -0.4209 -0.6005 -0.5632
  112MOL0     C14991   5.470   7.185   2.557  0.4938 -0.1013  0.2518
  112MOL0     C14992   5.542   7.151   2.439 -0.0703  0.1634 -0.5545
  112MOL0     O14993   5.681   7.128   2.430 -0.3527 -0.0317  0.4663
  112MOL0     C14994   5.771   7.186   2.516  0.4901 -0.1588 -0.6415
  112MOL0     C14995   5.905   7.198   2.446  0.8037  0.8886  0.6336
  112MOL0     C14996   6.028   7.202   2.541 -0.4805 -0.2738  0.2692
  112MOL0     C14997   6.099   7.067   2.579 -0.2943 -0.5909  0.0139
  112MOL0     C14998   6.249   7.113   2.625 -0.5968 -0.0098 -0.1935
  112MOL0     C14999   6.343   6.992   2.654  0.5073 -0.4732 -0.6497
  112MOL0     C15000   6.457   7.033   2.742 -0.2285  0.3918  0.3279
  112MOL0     C15001   6.569   7.119   2.690  0.8966 -0.4505 -0.3032
  112MOL0     N15002   6.702   7.101   2.740  0.6828 -0.2421 -0.2432
  112MOL0     C15003   6.746   7.128   2.873  0.0917  0.1475  0.5771
  112MOL0     C15004   6.880   7.129   2.874 -0.1972 -0.5983 -0.1478
  112MOL0     C15005   6.973   7.171   2.985 -0.3486 -0.2283  1.1299
  112MOL0     C15006   7.007   7.322   2.979 -0.5669 -0.4246  0.0390
  112MOL0     C15007   7.038   7.377   2.849 -0.0968 -0.5502  0.9154
  112MOL0     C15008   7.103   7.518   2.849  0.2526 -0.4037  0.5557
  112MOL0     O15009   7.184   7.535   2.720  0.3806  0.0421 -0.0137
  112MOL0     C15010   7.120   7.586   2.613  0.0762 -0.0820 -0.0351
  112MOL0     C15011   7.211   7.597   2.507  0.3110  0.0278 -0.3446
  112MOL0     C15012   7.175   7.653   2.391  0.6556  0.2038  0.5732
  112MOL0     C15013   7.041   7.672   2.354  0.2031  0.3003  0.2920
  112MOL0     C15014   7.008   7.694   2.208  0.4648 -0.6570 -0.1741
  112MOL0     O15015   6.889   7.751   2.184  0.1473  1.0396  0.3661
  112MOL0     C15016   6.877   7.815   2.069 -0.3225  0.2178  0.5851
  112MOL0     C15017   6.966   7.920   2.039  0.1678 -0.4205  0.0357
  112MOL0     C15018   6.946   7.998   1.927 -0.3842 -0.7390 -0.6077
  112MOL0     C15019   6.859   7.967   1.824  0.7152  0.7721  0.2710
  112MOL0     O15020   6.876   8.034   1.705 -0.7472 -0.0881  1.1150
  112MOL0     C15021   6.810   7.984   1.587 -0.7698  0.1370 -0.5076
  112MOL0     C15022   6.827   8.093   1.476  0.1561 -0.6986 -0.3210
  112MOL0     C15023   6.925   8.070   1.359  0.0691  0.6353  0.4099
  112MOL0     C15024   7.068   8.067   1.422  0.0945  0.3173 -0.3251
  112MOL0     C15025   7.113   8.207   1.465 -1.1283  0.3860 -0.3548
  112MOL0     C15026   7.243   8.195   1.539 -0.3468 -0.0434  0.3378
  112MOL0     C15027   7.221   8.146   1.675 -0.6170 -0.1426 -0.4186
  112MOL0     C15028   7.341   8.149   1.763 -0.3329 -0.6129  0.2801
  112MOL0    Cl15029   7.314   8.138   1.942 -0.0529 -0.2185  0.0906
  112MOL0     C15030   6.776   7.862   1.855 -0.1543  0.2994  1.6725
  112MOL0     C15031   6.787   7.784   1.967  0.2290 -0.1124  0.0872
  112MOL0     O15032   7.085   7.661   2.120 -0.2686 -0.2534  0.5669
  112MOL0     C15033   6.949   7.661   2.459 -0.6800  0.4122 -0.2991
  112MOL0     C15034   6.989   7.631   2.597  0.5641  0.2394  0.4838
  112MOL0     N15035   6.918   7.090   2.750 -0.0075  0.0258 -0.6223
  112MOL0     N15036   6.814   7.074   2.669 -0.2547 -0.0596 -1.2092
  112MOL0     C15037   5.472   7.132   2.319 -0.0059 -0.0201  0.0489
  112MOL0     C15038   5.335   7.135   2.309  0.0576 -0.0847  0.2856
  112MOL0     C15039   4.916   7.294   2.352  0.4396  0.8998 -0.3674
  112MOL0     C15040   4.855   7.176   2.296  0.1792 -0.1840  0.3690
  112MOL0     C15041   4.725   7.180   2.253  0.6151  0.9991  1.3041
  112MOL0     C15042   4.644   7.293   2.274  0.0279 -0.5054 -1.1304
  112MOL0     O15043   4.510   7.303   2.243 -0.1460 -0.3260 -0.2147
  112MOL0     C15044   4.473   7.251   2.116  0.1244 -0.6891  0.0495
  112MOL0     C15045   4.368   7.329   2.049  0.7754 -0.1218  0.2360
  112MOL0     C15046   4.245   7.359   2.139  0.1116  0.4010 -0.8523
  112MOL0     C15047   4.128   7.419   2.065 -0.1292 -0.1543 -0.1180
  112MOL0     C15048   4.136   7.571   2.063  0.0136 -0.7246 -0.0983
  112MOL0     C15049   4.128   7.694   2.063 -0.4552  0.2365 -0.0832
  112MOL0     C15050   4.707   7.408   2.325  0.5290  0.3213  0.4012
  112MOL0     C15051   4.832   7.412   2.368  0.0344  0.0239  0.8163
  112MOL0     C15052   4.883   7.541   2.418 -0.1311  0.8587  0.6278
  112MOL0     H15053   5.267   7.199   2.642  1.2571  3.2176 -0.0798
  112MOL0     H15054   5.507   7.224   2.650 -3.2803  0.4990  1.7005
  112MOL0     H15055   5.734   7.286   2.542  0.4907 -0.2599 -0.2456
  112MOL0     H15056   5.777   7.134   2.612 -0.9237 -0.2528 -0.5850
  112MOL0     H15057   5.899   7.283   2.376  1.2247 -0.2233 -0.7907
  112MOL0     H15058   5.910   7.109   2.383 -2.9964  2.4037 -2.2148
  112MOL0     H15059   6.006   7.256   2.634  0.3197  1.1585 -0.3337
  112MOL0     H15060   6.096   7.257   2.475 -3.7965  3.1215 -0.6554
  112MOL0     H15061   6.058   7.020   2.668  0.9468  1.0997  1.5412
  112MOL0     H15062   6.114   6.998   2.495  2.9226  1.4856 -1.3153
  112MOL0     H15063   6.304   7.178   2.556  0.9209 -0.1862  0.8004
  112MOL0     H15064   6.233   7.158   2.723 -0.2451  0.1715 -0.2195
  112MOL0     H15065   6.288   6.910   2.700  0.8575 -0.8347 -0.8758
  112MOL0     H15066   6.395   6.954   2.566  0.3559 -1.1419 -0.4517
  112MOL0     H15067   6.510   6.940   2.763 -2.5104 -0.8070  1.2070
  112MOL0     H15068   6.427   7.064   2.843 -0.2389 -1.6231  0.9839
  112MOL0     H15069   6.578   7.088   2.586  2.4386 -1.4313  0.0939
  112MOL0     H15070   6.542   7.225   2.702 -2.4061 -1.1850 -0.3034
  112MOL0     H15071   6.680   7.153   2.955  0.4162 -0.5250  1.0553
  112MOL0     H15072   6.930   7.150   3.084 -0.7839 -0.8479  0.8171
  112MOL0     H15073   7.062   7.109   2.969 -0.1730  0.5120 -1.0833
  112MOL0     H15074   6.911   7.363   3.012 -0.1048 -0.0353  0.9434
  112MOL0     H15075   7.083   7.351   3.053 -1.8115  1.0141  0.8219
  112MOL0     H15076   6.954   7.370   2.779  1.0365  0.3050 -0.5923
  112MOL0     H15077   7.119   7.313   2.811  0.2943 -0.1029  0.9869
  112MOL0     H15078   7.167   7.529   2.937 -1.4062  0.4567  1.7224
  112MOL0     H15079   7.029   7.598   2.862  0.4606 -0.4440  2.2135
  112MOL0     H15080   7.313   7.567   2.528 -0.3793 -0.8477  2.0718
  112MOL0     H15081   7.256   7.660   2.319  0.8247  2.7043  0.9043
  112MOL0     H15082   7.032   7.948   2.120 -1.1187 -0.9760  1.3286
  112MOL0     H15083   7.004   8.090   1.924 -0.5725 -0.5493  0.7712
  112MOL0     H15084   6.854   7.888   1.560  2.2637  0.7333  1.8255
  112MOL0     H15085   6.704   7.980   1.615 -0.6491 -0.0977 -0.0689
  112MOL0     H15086   6.725   8.105   1.438 -0.1649  2.4612  1.1944
  112MOL0     H15087   6.844   8.188   1.527  0.5933 -0.7197 -0.4236
  112MOL0     H15088   6.909   7.971   1.315  0.4235 -0.0078  1.6714
  112MOL0     H15089   6.918   8.149   1.284  0.2884 -0.6700 -1.0494
  112MOL0     H15090   7.145   8.028   1.354 -1.1768 -1.4769 -0.8136
  112MOL0     H15091   7.058   8.002   1.509  2.4008 -1.2314 -1.1211
  112MOL0     H15092   7.044   8.245   1.540  2.0857  0.5928  2.7554
  112MOL0     H15093   7.102   8.271   1.376 -2.0764 -0.2384 -0.6968
  112MOL0     H15094   7.296   8.113   1.490 -1.7315 -2.1128  2.1349
  112MOL0     H15095   7.312   8.281   1.536 -0.7419  0.4240  2.5029
  112MOL0     H15096   7.193   8.042   1.659  1.1122 -0.5519 -0.9401
  112MOL0     H15097   7.148   8.204   1.733  1.9283  0.8267  2.0774
  112MOL0     H15098   7.423   8.083   1.730  0.5994  1.2078 -1.2709
  112MOL0     H15099   7.395   8.244   1.751 -0.9566 -0.0935  1.4056
  112MOL0     H15100   6.699   7.829   1.787  0.9819  0.8677  0.0589
  112MOL0     H15101   6.722   7.698   1.976  0.5368 -0.2621  1.0466
  112MOL0     H15102   6.845   7.690   2.444 -0.4991  0.6090 -1.2502
  112MOL0     H15103   6.929   7.639   2.687  1.3953 -0.6285  1.1318
  112MOL0     H15104   5.529   7.095   2.234 -1.5577  0.1938 -1.1208
  112MOL0     H15105   5.299   7.123   2.207  1.7676  1.2645 -0.5254
  112MOL0     H15106   4.920   7.090   2.281  3.3945  1.9589  0.8841
  112MOL0     H15107   4.664   7.097   2.218 -0.7195  1.7411  1.7756
  112MOL0     H15108   4.433   7.149   2.115  1.5463 -1.2715  0.4185
  112MOL0     H15109   4.557   7.245   2.046  1.3238 -1.4099  1.4855
  112MOL0     H15110   4.324   7.272   1.966 -3.0716 -1.0394  2.6969
  112MOL0     H15111   4.411   7.423   2.012  2.3358 -1.1228 -0.6285
  112MOL0     H15112   4.282   7.433   2.211 -2.2880  0.8308  0.0259
  112MOL0     H15113   4.216   7.265   2.188  0.2074 -0.5638 -2.5774
  112MOL0     H15114   4.123   7.380   1.963 -5.2771 -2.7105  0.7968
  112MOL0     H15115   4.034   7.388   2.112  1.0605 -0.6116  2.0738
  112MOL0     H15116   4.124   7.801   2.065  1.8590  0.5168 -2.9638
  112MOL0     H15117   4.648   7.498   2.331 -0.5795 -0.4503  1.5330
  112MOL0     H15118   4.905   7.534   2.525 -4.6149 -3.9348  1.6243
  112MOL0     H15119   4.961   7.581   2.353 -2.0175  2.3153 -0.8674
  112MOL0     H15120   4.798   7.611   2.416 -0.5472  0.3456 -0.7451
  113MOL0     O15121   4.720  10.699   7.176 -0.0074 -0.4945 -0.6942
  113MOL0     C15122   4.699  10.684   7.299  0.6319  1.0499 -0.3092
  113MOL0     O15123   4.756  10.599   7.380 -0.1740 -0.1950  0.0924
  113MOL0     C15124   4.868  10.535   7.346  0.0605 -0.3221 -0.5483
  113MOL0     C15125   4.964  10.568   7.254  0.0393  0.0997  0.4941
  113MOL0     C15126   5.063  10.470   7.225  0.6563  0.0445  0.3276
  113MOL0     C15127   5.073  10.355   7.294 -0.8289  0.7078 -0.0506
  113MOL0     O15128   5.166  10.251   7.286  0.0508 -0.8109  0.4093
  113MOL0     C15129   5.246  10.226   7.165  0.7490 -0.1573 -0.5524
  113MOL0     C15130   5.380  10.301   7.181 -0.0500 -1.3396  0.1074
  113MOL0     C15131   5.459  10.304   7.042 -0.2178  0.2989 -0.0260
  113MOL0     C15132   5.537  10.163   7.008  0.0231  0.6386  0.3301
  113MOL0     C15133   5.683  10.164   7.054  0.0325 -0.4465  0.9597
  113MOL0     C15134   5.753  10.025   7.019  0.4762 -0.6000  0.5587
  113MOL0     C15135   5.899  10.028   7.074  0.4382  0.7076  0.3764
  113MOL0     C15136   5.931   9.906   7.163 -0.5073 -0.2917 -0.7241
  113MOL0     N15137   6.070   9.862   7.139 -0.4549 -0.3108  0.3597
  113MOL0     C15138   6.159   9.864   7.243 -0.2704  0.6200 -0.1369
  113MOL0     C15139   6.270   9.804   7.193 -0.2025 -0.3981  0.1733
  113MOL0     C15140   6.388   9.780   7.274 -0.0421  0.0803  0.1148
  113MOL0     C15141   6.442   9.643   7.267 -0.6825 -0.0273  0.2653
  113MOL0     C15142   6.557   9.616   7.363 -1.2831  0.0617 -0.4715
  113MOL0     C15143   6.688   9.672   7.306 -0.3089  0.0888 -0.5890
  113MOL0     O15144   6.775   9.635   7.405 -0.0801 -0.2128 -0.6137
  113MOL0     C15145   6.903   9.624   7.361 -0.8876 -0.3237 -0.5521
  113MOL0     C15146   6.983   9.735   7.355 -0.8114  0.1457 -0.8415
  113MOL0     C15147   7.121   9.727   7.313 -0.7343  0.5726 -0.7836
  113MOL0     C15148   7.180   9.605   7.277 -0.0039  0.3501  0.9664
  113MOL0     C15149   7.320   9.609   7.218 -0.3757  0.1557  0.2571
  113MOL0     O15150   7.395   9.720   7.232  0.4083 -0.0143  0.3488
  113MOL0     C15151   7.529   9.717   7.202 -0.4323  0.0397 -0.1955
  113MOL0     C15152   7.573   9.707   7.068  1.3592 -0.7189 -0.1377
  113MOL0     C15153   7.711   9.706   7.039  0.6621  0.4312  0.7431
  113MOL0     C15154   7.802   9.698   7.148 -0.3708  0.2619  0.0743
  113MOL0     O15155   7.934   9.682   7.118 -0.7404  0.0395 -0.6716
  113MOL0     C15156   8.024   9.734   7.217  0.8680 -0.0516 -0.4889
  113MOL0     C15157   8.173   9.725   7.151  0.5008  0.9783  0.2425
  113MOL0     C15158   8.264   9.818   7.228  0.7860  0.1517  0.1758
  113MOL0     C15159   8.407   9.815   7.184  0.6040  0.4077 -0.5929
  113MOL0     C15160   8.504   9.930   7.240 -0.0970 -0.2624 -0.0030
  113MOL0     C15161   8.656   9.901   7.200  0.1377 -0.9356 -0.2899
  113MOL0     C15162   8.753  10.016   7.215  0.4664  0.0470  0.5452
  113MOL0     C15163   8.748  10.094   7.345  0.9384 -0.2913 -0.4735
  113MOL0    Cl15164   8.893  10.181   7.388  0.2778 -0.0990  0.2173
  113MOL0     C15165   7.749   9.708   7.286  0.3695 -0.4707  0.4139
  113MOL0     C15166   7.614   9.719   7.305  0.4343  1.2477 -0.2481
  113MOL0     O15167   7.366   9.502   7.170 -0.2493 -0.4409  0.6231
  113MOL0     C15168   7.095   9.494   7.279  0.2158 -0.0924  0.0403
  113MOL0     C15169   6.962   9.503   7.317  0.9476  0.0052  0.0662
  113MOL0     N15170   6.250   9.757   7.064 -0.1284 -0.3421  0.1259
  113MOL0     N15171   6.129   9.795   7.033 -0.0419  0.5919  0.4006
  113MOL0     C15172   4.993  10.338   7.403 -0.4057  0.9540  0.3819
  113MOL0     C15173   4.888  10.421   7.426  0.0609  1.4831  0.7811
  113MOL0     C15174   4.592  10.755   7.364  0.0225 -0.0687 -0.2817
  113MOL0     C15175   4.487  10.691   7.436  1.5178 -0.1939  0.3384
  113MOL0     C15176   4.378  10.768   7.478  0.0395 -0.4392 -0.3801
  113MOL0     C15177   4.379  10.910   7.470 -0.4660  0.7988  0.1273
  113MOL0     O15178   4.263  10.974   7.511  0.4575  0.0547  0.0894
  113MOL0     C15179   4.248  11.111   7.471 -0.5475 -0.1455  0.8767
  113MOL0     C15180   4.116  11.176   7.513 -0.2051  0.4841  0.1188
  113MOL0     C15181   3.993  11.126   7.437  0.9622 -0.4823 -0.1422
  113MOL0     C15182   3.862  11.210   7.450  0.0895  0.4656 -0.6289
  113MOL0     C15183   3.862  11.316   7.355  0.6189  0.7281 -0.5079
  113MOL0     C15184   3.887  11.409   7.281 -0.2953 -0.0325 -0.4929
  113MOL0     C15185   4.489  10.973   7.400  0.1121 -0.8087 -0.2790
  113MOL0     C15186   4.596  10.900   7.344  0.0380  0.8122 -1.0892
  113MOL0     C15187   4.708  10.980   7.279 -1.2331  0.4903 -0.7480
  113MOL0     H15188   4.959  10.656   7.190  3.2818  0.0803  0.0430
  113MOL0     H15189   5.137  10.482   7.146  1.3243  1.2788  1.1044
  113MOL0     H15190   5.263  10.119   7.150  0.3161 -0.0640 -1.7994
  113MOL0     H15191   5.194  10.259   7.075 -0.2946 -0.8331 -0.2086
  113MOL0     H15192   5.431  10.246   7.261 -2.0851 -0.4118  2.1528
  113MOL0     H15193   5.357  10.400   7.223  0.0609 -2.1519  2.2165
  113MOL0     H15194   5.529  10.387   7.054  0.0599  0.0094  0.3731
  113MOL0     H15195   5.392  10.333   6.960 -1.4761  0.9737  1.2032
  113MOL0     H15196   5.484  10.080   7.056 -0.3467  0.6170 -0.1095
  113MOL0     H15197   5.525  10.137   6.902  0.2086 -4.0306  1.2297
  113MOL0     H15198   5.746  10.245   7.014 -0.2367 -0.2073  1.0118
  113MOL0     H15199   5.683  10.189   7.160  3.7040  0.8169  0.8135
  113MOL0     H15200   5.691   9.954   7.075 -0.9819 -2.0455 -2.6669
  113MOL0     H15201   5.730   9.988   6.919  0.5402  0.2764  0.2130
  113MOL0     H15202   5.925  10.122   7.123  2.5355  1.3189 -1.7026
  113MOL0     H15203   5.965  10.020   6.987 -1.1507  1.2062 -0.9274
  113MOL0     H15204   5.916   9.937   7.267  0.7993 -1.1726 -0.2499
  113MOL0     H15205   5.867   9.826   7.125 -0.8654  1.2685 -3.7759
  113MOL0     H15206   6.157   9.912   7.340  4.1945  3.4443 -1.1293
  113MOL0     H15207   6.467   9.849   7.241  0.2565 -0.9112 -1.3575
  113MOL0     H15208   6.357   9.810   7.374  0.2967 -0.5581  0.4163
  113MOL0     H15209   6.366   9.568   7.291  0.8917 -1.0831  2.3403
  113MOL0     H15210   6.462   9.624   7.161 -3.2826  3.1105 -0.9595
  113MOL0     H15211   6.570   9.510   7.386 -1.5536 -0.0555 -0.8556
  113MOL0     H15212   6.538   9.662   7.460  2.8107 -0.1389  0.6041
  113MOL0     H15213   6.692   9.782   7.303  0.5675  0.0697 -0.4769
  113MOL0     H15214   6.709   9.639   7.204 -1.8761 -1.2426 -0.5076
  113MOL0     H15215   6.934   9.827   7.387 -2.1011  0.1559 -2.6969
  113MOL0     H15216   7.169   9.825   7.311 -2.1779  1.3095 -1.5575
  113MOL0     H15217   7.500   9.701   6.988  3.1604  1.0253 -2.0289
  113MOL0     H15218   7.762   9.692   6.944 -0.3407 -0.7123  0.3448
  113MOL0     H15219   7.998   9.840   7.222  0.1743 -0.1827 -1.2436
  113MOL0     H15220   8.010   9.690   7.317 -1.3334  1.2206 -0.1577
  113MOL0     H15221   8.210   9.624   7.172  0.7307  1.1658  0.7738
  113MOL0     H15222   8.173   9.756   7.046  1.3472  1.6845  0.4391
  113MOL0     H15223   8.222   9.919   7.218  2.2977  0.7843 -0.2644
  113MOL0     H15224   8.271   9.798   7.335 -0.6116  3.2181  0.9620
  113MOL0     H15225   8.404   9.818   7.075 -1.5252  0.9070 -0.5548
  113MOL0     H15226   8.453   9.721   7.216  0.5999  1.0662  1.4906
  113MOL0     H15227   8.493   9.940   7.348 -0.9884 -0.6110 -0.0511
  113MOL0     H15228   8.484  10.028   7.196  1.5777  0.4897  0.8162
  113MOL0     H15229   8.698   9.822   7.263  1.9497  0.5324  0.4750
  113MOL0     H15230   8.658   9.875   7.094 -4.1307  1.8994 -1.3347
  113MOL0     H15231   8.742  10.095   7.140  0.1489  1.6018  2.1603
  113MOL0     H15232   8.859   9.988   7.207  1.5587  2.7506  3.2556
  113MOL0     H15233   8.663  10.162   7.334  0.3567 -0.6160  1.5353
  113MOL0     H15234   8.722  10.019   7.422  0.0209 -0.1961 -0.6740
  113MOL0     H15235   7.808   9.699   7.377 -3.1700  0.7620  3.0675
  113MOL0     H15236   7.571   9.715   7.404  1.8649  0.6313  0.3727
  113MOL0     H15237   7.125   9.395   7.245 -4.2789 -1.6405 -0.1047
  113MOL0     H15238   6.924   9.401   7.310  2.5896 -0.5323 -2.3293
  113MOL0     H15239   5.011  10.245   7.457 -1.6960 -0.9478 -2.2408
  113MOL0     H15240   4.819  10.397   7.507 -0.0462  1.7262  0.7626
  113MOL0     H15241   4.481  10.586   7.460  0.7446 -0.0163  0.9776
  113MOL0     H15242   4.296  10.722   7.533 -0.4386  1.2298  0.3587
  113MOL0     H15243   4.251  11.114   7.362 -2.4565 -0.8544  0.7593
  113MOL0     H15244   4.334  11.162   7.516 -0.5005 -0.6757  1.4013
  113MOL0     H15245   4.128  11.280   7.483  1.0635  0.8390  1.7161
  113MOL0     H15246   4.121  11.168   7.622  1.0957 -1.3545 -0.0366
  113MOL0     H15247   3.966  11.025   7.469  0.1832 -0.9731 -2.2009
  113MOL0     H15248   4.018  11.121   7.330 -0.0737  3.6350 -0.7330
  113MOL0     H15249   3.770  11.155   7.427 -3.2044  5.6034 -1.6793
  113MOL0     H15250   3.847  11.248   7.552 -2.0386 -0.4738 -0.5288
  113MOL0     H15251   3.899  11.496   7.219 -0.4675  0.1618 -0.2553
  113MOL0     H15252   4.486  11.080   7.387 -1.2090 -0.8429 -0.3258
  113MOL0     H15253   4.676  11.032   7.189 -2.5952 -1.5627 -1.5096
  113MOL0     H15254   4.747  11.048   7.355  0.3214 -0.4299 -0.6685
  113MOL0     H15255   4.804  10.928   7.265 -1.7702 -1.2670  1.4847
  114MOL0     O15256   5.569   6.846   3.817 -0.1971 -0.1646  0.0569
  114MOL0     C15257   5.517   6.749   3.758 -0.8563 -0.1622 -0.5312
  114MOL0     O15258   5.570   6.676   3.657  0.2344 -0.0954  0.1083
  114MOL0     C15259   5.708   6.666   3.641 -0.3181 -0.2039  0.4933
  114MOL0     C15260   5.742   6.601   3.524 -0.3015 -0.1345  0.0078
  114MOL0     C15261   5.873   6.561   3.490  0.7866 -0.1101 -0.3109
  114MOL0     C15262   5.978   6.584   3.573 -0.3005  0.4578 -0.0371
  114MOL0     O15263   6.109   6.548   3.549 -0.4706  0.8215 -0.1810
  114MOL0     C15264   6.145   6.491   3.414  0.4472  0.1636 -0.7688
  114MOL0     C15265   6.292   6.449   3.422 -0.1148 -0.0474  0.3048
  114MOL0     C15266   6.341   6.349   3.531 -1.0815 -0.6106  1.9112
  114MOL0     C15267   6.479   6.299   3.509 -0.6290 -0.4866  0.3238
  114MOL0     C15268   6.522   6.193   3.608 -0.5336  0.1674  0.2412
  114MOL0     C15269   6.556   6.250   3.744  0.1878 -0.4603  0.3333
  114MOL0     C15270   6.563   6.141   3.858 -0.7799 -0.2531 -0.5616
  114MOL0     C15271   6.630   6.199   3.984  0.0945  0.3424  0.3690
  114MOL0     N15272   6.694   6.095   4.063 -0.2110 -0.1475  0.2832
  114MOL0     C15273   6.633   6.066   4.189 -0.6693 -0.1634  0.9376
  114MOL0     C15274   6.720   5.966   4.235  0.1671 -0.1258  0.3272
  114MOL0     C15275   6.683   5.879   4.347  0.8283 -0.1217 -0.7514
  114MOL0     C15276   6.758   5.905   4.478 -0.3154 -0.3154  0.0515
  114MOL0     C15277   6.910   5.897   4.465 -0.2917  0.9664  0.6662
  114MOL0     C15278   6.978   5.763   4.416 -0.4007 -0.4142 -0.2775
  114MOL0     O15279   7.121   5.784   4.406  0.1973 -0.0281 -0.5539
  114MOL0     C15280   7.186   5.825   4.286 -0.0069  1.2885 -0.3663
  114MOL0     C15281   7.134   5.825   4.154  0.0351 -0.5484 -0.6401
  114MOL0     C15282   7.212   5.869   4.047 -0.1967  0.6174 -0.3617
  114MOL0     C15283   7.343   5.898   4.062 -0.3144  1.5786 -0.0067
  114MOL0     C15284   7.437   5.938   3.953  0.5687 -0.2214  0.4706
  114MOL0     O15285   7.567   5.978   3.988  0.4022  0.3795 -0.2401
  114MOL0     C15286   7.662   6.005   3.894 -0.9756  0.0183 -0.3438
  114MOL0     C15287   7.658   5.971   3.766 -0.4658  0.1284  0.8120
  114MOL0     C15288   7.765   6.005   3.681 -0.3278 -0.4028  0.7885
  114MOL0     C15289   7.876   6.073   3.728  0.5756  0.4809  0.0022
  114MOL0     O15290   7.975   6.092   3.638 -0.4786 -0.4855  0.4010
  114MOL0     C15291   8.062   6.204   3.650 -0.4891  0.2477  0.3016
  114MOL0     C15292   8.194   6.206   3.729 -0.0047  0.5474 -0.2462
  114MOL0     C15293   8.255   6.346   3.721  0.3818  0.0421  1.1658
  114MOL0     C15294   8.392   6.349   3.788 -0.7743  0.1681  0.6911
  114MOL0     C15295   8.512   6.282   3.719 -0.0922 -0.2648 -0.0369
  114MOL0     C15296   8.538   6.348   3.580 -0.4993  0.4650  0.0390
  114MOL0     C15297   8.657   6.288   3.499  0.7341  0.9127 -0.0316
  114MOL0     C15298   8.784   6.334   3.556 -0.6663 -0.1489 -0.9391
  114MOL0    Cl15299   8.800   6.504   3.521  0.0482  0.1687  0.1721
  114MOL0     C15300   7.878   6.124   3.863 -0.9207  0.9660 -0.5784
  114MOL0     C15301   7.773   6.085   3.941 -0.7628  0.3007 -0.4871
  114MOL0     O15302   7.385   5.946   3.837  0.1635 -0.2998 -0.0217
  114MOL0     C15303   7.398   5.883   4.189  0.2440  0.0987  0.3513
  114MOL0     C15304   7.320   5.858   4.296 -0.2884 -0.2673  0.6504
  114MOL0     N15305   6.826   5.950   4.148 -0.5097 -0.2878  0.4490
  114MOL0     N15306   6.809   6.030   4.043 -0.4656  0.0447 -0.1705
  114MOL0     C15307   5.947   6.657   3.687  0.1684  0.2133  0.3430
  114MOL0     C15308   5.826   6.701   3.721  0.5987  0.4579 -0.3613
  114MOL0     C15309   5.371   6.737   3.778 -0.3289  0.3388  0.1365
  114MOL0     C15310   5.299   6.639   3.698 -0.0008  0.0609  0.1011
  114MOL0     C15311   5.163   6.622   3.723 -0.0365 -0.9746  0.8106
  114MOL0     C15312   5.093   6.685   3.823 -0.0847 -0.3962 -0.4651
  114MOL0     O15313   4.954   6.661   3.832 -0.3371 -0.4088 -0.3574
  114MOL0     C15314   4.876   6.773   3.863  0.5801 -0.7826 -0.0229
  114MOL0     C15315   4.836   6.749   4.010 -0.0235 -0.0968  0.5738
  114MOL0     C15316   4.696   6.806   4.045 -0.5034  0.2586  0.4731
  114MOL0     C15317   4.639   6.762   4.184  0.2251 -0.4900  0.2820
  114MOL0     C15318   4.495   6.794   4.186  0.4941 -0.4021  0.6260
  114MOL0     C15319   4.377   6.821   4.167  0.4211 -0.5018  0.7900
  114MOL0     C15320   5.163   6.772   3.906 -0.3439  0.5408 -0.3771
  114MOL0     C15321   5.300   6.801   3.884  0.5564 -0.2495 -0.4632
  114MOL0     C15322   5.361   6.892   3.987 -0.2347 -0.3418  0.5151
  114MOL0     H15323   5.658   6.570   3.462  0.7518 -2.5243 -0.3225
  114MOL0     H15324   5.899   6.515   3.395  1.7405  1.3675 -0.8007
  114MOL0     H15325   6.075   6.408   3.401 -2.7675  2.1023  2.2103
  114MOL0     H15326   6.133   6.562   3.332  0.5242 -0.9474 -1.7665
  114MOL0     H15327   6.342   6.545   3.436  0.7566 -0.0733 -2.2570
  114MOL0     H15328   6.316   6.413   3.322 -4.0422  0.3500 -0.9619
  114MOL0     H15329   6.279   6.260   3.526 -0.6623 -0.9315  2.3924
  114MOL0     H15330   6.334   6.397   3.629  2.7593  2.2961  1.0491
  114MOL0     H15331   6.483   6.259   3.407 -0.6071  0.4780 -0.0637
  114MOL0     H15332   6.562   6.370   3.507  1.8035 -3.1565 -1.5082
  114MOL0     H15333   6.439   6.122   3.612 -1.8613  1.5884 -0.8864
  114MOL0     H15334   6.611   6.141   3.572  1.0512  1.8501  1.5419
  114MOL0     H15335   6.652   6.299   3.727 -0.2526  0.4000  0.2396
  114MOL0     H15336   6.482   6.327   3.768  2.1038  0.9228  2.1798
  114MOL0     H15337   6.626   6.064   3.813 -0.4357  0.6802 -1.7585
  114MOL0     H15338   6.468   6.093   3.883  0.2724 -1.9670  0.2592
  114MOL0     H15339   6.708   6.271   3.956  0.1283 -0.4752 -1.8947
  114MOL0     H15340   6.560   6.256   4.046 -0.5977 -0.9537  0.8147
  114MOL0     H15341   6.536   6.098   4.225 -1.0555 -0.4847  0.1933
  114MOL0     H15342   6.576   5.900   4.362  1.1855  1.4959 -0.3151
  114MOL0     H15343   6.699   5.772   4.327  0.9803 -0.4817  1.1409
  114MOL0     H15344   6.727   6.000   4.521 -0.4845 -0.6590  0.6991
  114MOL0     H15345   6.732   5.825   4.547  0.8909 -1.2727 -0.5531
  114MOL0     H15346   6.960   5.924   4.559  1.3787  1.5180 -0.3282
  114MOL0     H15347   6.940   5.982   4.403  1.5944  1.3950  2.0776
  114MOL0     H15348   6.943   5.715   4.324 -0.0863 -0.4411 -0.3828
  114MOL0     H15349   6.966   5.695   4.501 -2.0345  1.7141  1.3139
  114MOL0     H15350   7.031   5.791   4.146  0.3948 -2.6169  2.2867
  114MOL0     H15351   7.163   5.870   3.950  0.2962  1.4372 -0.6084
  114MOL0     H15352   7.576   5.915   3.720  1.0256 -1.0352 -0.5353
  114MOL0     H15353   7.763   5.979   3.575  0.3534  1.0391  0.3920
  114MOL0     H15354   8.082   6.243   3.549 -1.5643  0.5152  0.1870
  114MOL0     H15355   8.010   6.292   3.689  1.0132  1.2773  0.1068
  114MOL0     H15356   8.181   6.188   3.836  1.1012 -0.6696 -0.2944
  114MOL0     H15357   8.258   6.121   3.703  0.7053 -0.2341  3.5705
  114MOL0     H15358   8.255   6.378   3.617 -0.6262  1.3382  1.5399
  114MOL0     H15359   8.185   6.412   3.772  0.9790 -0.0743  2.1627
  114MOL0     H15360   8.381   6.302   3.885 -3.1545 -0.8772 -0.0171
  114MOL0     H15361   8.413   6.454   3.813  1.4975 -0.6783  2.7419
  114MOL0     H15362   8.496   6.174   3.715  0.3143 -0.3624  0.7978
  114MOL0     H15363   8.595   6.305   3.786  0.5293  0.9679 -1.1834
  114MOL0     H15364   8.446   6.320   3.527  0.0866 -2.4522  0.4123
  114MOL0     H15365   8.556   6.455   3.598 -3.7558  1.2205 -0.4935
  114MOL0     H15366   8.650   6.315   3.394 -4.6351 -1.4247 -0.5818
  114MOL0     H15367   8.644   6.179   3.498  0.5691  0.8925 -3.0828
  114MOL0     H15368   8.793   6.312   3.663  2.6000 -0.5845 -1.2258
  114MOL0     H15369   8.865   6.280   3.507 -3.4833 -2.9468 -2.9589
  114MOL0     H15370   7.961   6.180   3.906 -1.1011  0.4467  0.4671
  114MOL0     H15371   7.781   6.126   4.041 -0.3958 -1.3048  0.1742
  114MOL0     H15372   7.503   5.900   4.210 -0.0527  0.6103  1.4839
  114MOL0     H15373   7.361   5.852   4.397  1.1872  1.2830  0.1785
  114MOL0     H15374   6.029   6.687   3.750  1.6093 -0.1879 -1.2584
  114MOL0     H15375   5.815   6.756   3.814  3.6223 -0.8199  0.8823
  114MOL0     H15376   5.347   6.594   3.612 -0.6666  0.7166 -0.6288
  114MOL0     H15377   5.110   6.548   3.664  0.6283 -0.7390 -0.1040
  114MOL0     H15378   4.782   6.786   3.809  1.2633  3.0582 -0.5601
  114MOL0     H15379   4.928   6.869   3.851 -1.2153  0.3426  0.7274
  114MOL0     H15380   4.918   6.797   4.065  1.3357  2.2519 -3.1531
  114MOL0     H15381   4.830   6.643   4.033 -1.1378 -0.1450  0.0958
  114MOL0     H15382   4.619   6.781   3.972 -0.9036 -2.8970  1.8303
  114MOL0     H15383   4.718   6.911   4.069 -0.1950 -0.3751  3.2921
  114MOL0     H15384   4.659   6.655   4.197  4.6712  0.4385  2.8584
  114MOL0     H15385   4.686   6.814   4.268 -1.3397 -1.4436  1.8118
  114MOL0     H15386   4.283   6.864   4.142  0.6431 -1.4660 -2.0439
  114MOL0     H15387   5.107   6.817   3.987 -2.7558 -1.3406 -0.8741
  114MOL0     H15388   5.293   6.909   4.071  1.8363 -2.5599  2.8246
  114MOL0     H15389   5.445   6.836   4.028 -0.9971  0.0675  2.7717
  114MOL0     H15390   5.385   6.991   3.947 -0.9136  0.2032  1.4180
  115MOL0     O15391   4.365   3.270  10.363  0.5261 -0.8829  0.5037
  115MOL0     C15392   4.244   3.259  10.352  0.1664  0.3225  0.7762
  115MOL0     O15393   4.178   3.212  10.228 -0.1041  0.1790  0.3909
  115MOL0     C15394   4.266   3.151  10.139  0.8817  0.2614  0.4089
  115MOL0     C15395   4.375   3.221  10.078  0.7498  0.0384  0.0502
  115MOL0     C15396   4.469   3.155  10.007 -0.7338  0.5215  0.2935
  115MOL0     C15397   4.457   3.018   9.970 -0.1192 -0.1825 -0.0347
  115MOL0     O15398   4.560   2.939   9.918  0.5028 -0.1488  0.4442
  115MOL0     C15399   4.644   3.006   9.819  0.1936  0.5816 -1.4868
  115MOL0     C15400   4.771   3.047   9.888 -0.6886 -0.0869  0.8605
  115MOL0     C15401   4.883   3.088   9.795  0.2283 -0.5912 -0.3584
  115MOL0     C15402   4.873   3.235   9.745 -0.8973 -0.0797 -0.4329
  115MOL0     C15403   4.969   3.255   9.626  0.2265 -0.0997  0.5031
  115MOL0     C15404   4.951   3.402   9.571 -0.4930  0.7208  0.2399
  115MOL0     C15405   5.064   3.439   9.469  0.1623 -0.1088 -0.0845
  115MOL0     C15406   5.097   3.342   9.357 -0.2126  0.2147  0.4028
  115MOL0     N15407   5.239   3.297   9.368 -0.0558 -0.5806  0.2894
  115MOL0     C15408   5.356   3.338   9.307 -0.0427  0.7287 -0.5343
  115MOL0     C15409   5.456   3.271   9.371 -0.4823  0.2404  0.3246
  115MOL0     C15410   5.595   3.268   9.309  0.0964 -0.8110  0.5707
  115MOL0     C15411   5.674   3.396   9.360 -0.4755 -0.1621 -0.4152
  115MOL0     C15412   5.810   3.411   9.286 -0.8126  0.5524 -0.2877
  115MOL0     C15413   5.910   3.503   9.353  0.5533  0.4291  0.0828
  115MOL0     O15414   6.040   3.473   9.296 -0.7199 -0.3244 -0.0532
  115MOL0     C15415   6.138   3.568   9.307 -0.2298 -0.0556  0.0786
  115MOL0     C15416   6.260   3.521   9.257  0.7835  0.8731 -0.1587
  115MOL0     C15417   6.373   3.608   9.255  0.2772 -0.4217  0.3795
  115MOL0     C15418   6.363   3.742   9.305 -0.5701  0.4611 -0.4284
  115MOL0     C15419   6.493   3.822   9.300  0.6149  0.0383 -0.2281
  115MOL0     O15420   6.602   3.754   9.240 -0.1715 -0.7525  0.1089
  115MOL0     C15421   6.724   3.817   9.242 -0.8169  0.3750 -0.3042
  115MOL0     C15422   6.792   3.817   9.120 -0.7870 -0.3622 -0.0729
  115MOL0     C15423   6.914   3.886   9.107  0.4646 -0.4220 -0.2831
  115MOL0     C15424   6.985   3.925   9.219 -1.0341 -0.6724 -0.5846
  115MOL0     O15425   7.118   3.971   9.223  0.6305  0.2609  0.0185
  115MOL0     C15426   7.183   3.957   9.096  0.9005 -0.1497 -0.3571
  115MOL0     C15427   7.336   3.968   9.128  0.0499  0.2248 -0.0742
  115MOL0     C15428   7.391   3.820   9.156 -0.3868 -0.5796 -0.2004
  115MOL0     C15429   7.537   3.834   9.179  0.4469  0.2252 -0.8807
  115MOL0     C15430   7.574   3.876   9.326 -0.1892 -0.0705  1.2632
  115MOL0     C15431   7.718   3.920   9.342 -0.1814 -0.1142  0.1793
  115MOL0     C15432   7.734   3.974   9.485  0.4642  0.3276 -0.6546
  115MOL0     C15433   7.856   3.915   9.550 -0.2334 -1.3200 -0.2524
  115MOL0    Cl15434   8.006   3.972   9.466 -0.5804  0.0606 -0.3441
  115MOL0     C15435   6.915   3.920   9.343  0.0326 -0.3542 -0.2694
  115MOL0     C15436   6.787   3.873   9.354 -0.4154  0.6077 -0.0500
  115MOL0     O15437   6.488   3.937   9.338 -0.1881  0.2066  0.0097
  115MOL0     C15438   6.245   3.782   9.356  0.2184  0.0829 -0.7370
  115MOL0     C15439   6.136   3.695   9.368  0.6172  0.3147  0.2027
  115MOL0     N15440   5.393   3.194   9.472  0.6852  0.2492  0.0823
  115MOL0     N15441   5.267   3.211   9.472 -0.5430 -0.5730  0.4162
  115MOL0     C15442   4.339   2.956  10.026 -0.4578  0.0398 -0.0546
  115MOL0     C15443   4.249   3.017  10.108  0.3149  0.0968 -0.9337
  115MOL0     C15444   4.152   3.301  10.464  0.0337  0.0971  0.0748
  115MOL0     C15445   4.027   3.345  10.425  1.6133  0.1687 -0.6800
  115MOL0     C15446   3.925   3.381  10.518 -1.1040  0.3203  0.3757
  115MOL0     C15447   3.959   3.379  10.656 -0.1478 -0.8416 -0.0918
  115MOL0     O15448   3.865   3.419  10.747  0.4223 -0.1115 -0.3513
  115MOL0     C15449   3.896   3.495  10.860 -0.0355 -1.0921  0.3676
  115MOL0     C15450   3.768   3.544  10.913 -0.3462  0.2915  0.5207
  115MOL0     C15451   3.681   3.435  10.994  0.1209 -0.5177  0.2811
  115MOL0     C15452   3.631   3.333  10.890 -0.1016  0.3156  0.8934
  115MOL0     C15453   3.514   3.263  10.939  0.3664  0.0347 -0.4262
  115MOL0     C15454   3.406   3.208  10.948 -0.1858  0.7574  0.5520
  115MOL0     C15455   4.094   3.341  10.704  0.9138 -0.1977  0.7317
  115MOL0     C15456   4.186   3.307  10.600  0.3176 -0.5547  0.2224
  115MOL0     C15457   4.320   3.252  10.650  0.1896  0.7979  0.2435
  115MOL0     H15458   4.404   3.324  10.100  1.5743  0.2250 -1.7004
  115MOL0     H15459   4.552   3.220   9.981 -0.4693  0.3364  0.6716
  115MOL0     H15460   4.658   2.926   9.745 -1.4045 -0.1963 -0.9849
  115MOL0     H15461   4.588   3.092   9.780  1.5062  2.3773  0.3945
  115MOL0     H15462   4.807   2.957   9.938  0.3177 -0.9602 -1.2895
  115MOL0     H15463   4.748   3.120   9.966  0.2835  1.3732 -0.1690
  115MOL0     H15464   4.884   3.037   9.698  1.6769  0.6062 -1.0118
  115MOL0     H15465   4.979   3.074   9.845  1.3972  0.5316 -2.1554
  115MOL0     H15466   4.769   3.252   9.715 -2.3559 -2.1103  2.8550
  115MOL0     H15467   4.901   3.310   9.820  1.0874  1.0423 -2.1869
  115MOL0     H15468   5.063   3.241   9.682 -0.4625  2.0015  2.3273
  115MOL0     H15469   4.948   3.187   9.543  0.7796  0.5615 -0.1901
  115MOL0     H15470   4.853   3.406   9.523 -0.1218  0.0404 -0.6180
  115MOL0     H15471   4.954   3.478   9.649  0.6068  1.2904 -0.3309
  115MOL0     H15472   5.153   3.476   9.520 -0.1596  1.3914 -0.5519
  115MOL0     H15473   5.024   3.526   9.416 -0.8048 -0.5095 -0.0358
  115MOL0     H15474   5.035   3.252   9.352  2.6426 -1.8659 -0.1697
  115MOL0     H15475   5.079   3.398   9.265 -1.5599  0.9495  1.0743
  115MOL0     H15476   5.372   3.411   9.228  2.5658  0.4069 -0.3939
  115MOL0     H15477   5.653   3.176   9.324  2.1164 -0.3793 -3.3195
  115MOL0     H15478   5.586   3.266   9.200  0.6469 -2.0148  0.5318
  115MOL0     H15479   5.624   3.491   9.339  0.7197  0.6900  0.4656
  115MOL0     H15480   5.687   3.388   9.468 -2.4422  1.3208 -0.0313
  115MOL0     H15481   5.798   3.430   9.179  1.5246 -1.3923 -0.9843
  115MOL0     H15482   5.857   3.313   9.292 -1.0465  0.5115  1.4698
  115MOL0     H15483   5.904   3.487   9.461 -2.4721  1.9534  0.2280
  115MOL0     H15484   5.875   3.605   9.334  0.9912  0.8747  1.5173
  115MOL0     H15485   6.270   3.415   9.237 -1.1069  0.3869  1.1729
  115MOL0     H15486   6.461   3.569   9.206  0.2677  3.0199 -2.7444
  115MOL0     H15487   6.740   3.780   9.032  3.3100 -1.9630 -2.0948
  115MOL0     H15488   6.944   3.899   9.004 -2.0261  2.2158 -0.7924
  115MOL0     H15489   7.162   3.858   9.055 -0.5090  0.2988 -0.7628
  115MOL0     H15490   7.155   4.037   9.027  2.1013 -0.0066 -0.7112
  115MOL0     H15491   7.368   4.015   9.035 -2.2027  0.7127 -0.6476
  115MOL0     H15492   7.354   4.041   9.208 -0.6338 -0.3993  0.6703
  115MOL0     H15493   7.337   3.777   9.241 -1.4295  1.7237  0.3902
  115MOL0     H15494   7.364   3.762   9.067  1.3433  0.1110 -1.2219
  115MOL0     H15495   7.593   3.905   9.118  4.4056 -0.1217  1.9638
  115MOL0     H15496   7.584   3.736   9.167  0.4016  0.3326 -2.0319
  115MOL0     H15497   7.544   3.794   9.392  0.2943 -0.9831  0.3769
  115MOL0     H15498   7.515   3.962   9.358  2.3448  1.2472  2.7050
  115MOL0     H15499   7.793   3.842   9.328  1.2759  1.2275  0.2828
  115MOL0     H15500   7.738   3.998   9.268  1.6017 -1.9702 -1.4127
  115MOL0     H15501   7.646   3.947   9.543  0.7194  0.0490 -0.3961
  115MOL0     H15502   7.736   4.083   9.495  1.2427  0.1121  2.6533
  115MOL0     H15503   7.862   3.950   9.653 -1.6348 -0.4087 -0.4534
  115MOL0     H15504   7.855   3.806   9.560 -1.1220 -1.1618  2.1326
  115MOL0     H15505   6.956   3.961   9.435  1.1410 -0.1025 -0.8600
  115MOL0     H15506   6.741   3.861   9.451  3.0718 -3.1475  1.4206
  115MOL0     H15507   6.238   3.881   9.400  0.0156 -0.2137 -0.0765
  115MOL0     H15508   6.053   3.728   9.429 -0.7798 -0.3210 -1.2687
  115MOL0     H15509   4.331   2.848  10.017 -0.6560  0.1116 -0.9023
  115MOL0     H15510   4.168   2.956  10.147  0.1406  0.1236 -1.2453
  115MOL0     H15511   3.993   3.336  10.322 -0.9905 -1.2808  0.1936
  115MOL0     H15512   3.826   3.408  10.482 -1.7590 -3.1287 -0.7279
  115MOL0     H15513   3.963   3.577  10.831 -1.9521 -0.3088 -2.1654
  115MOL0     H15514   3.964   3.437  10.924  0.5085  0.2882  1.0767
  115MOL0     H15515   3.712   3.588  10.830 -1.5602 -0.3659  0.9626
  115MOL0     H15516   3.799   3.625  10.979  1.9626  0.3387 -0.5360
  115MOL0     H15517   3.599   3.494  11.036  0.9717  0.6587  0.3278
  115MOL0     H15518   3.741   3.390  11.074  2.5339  2.5909  0.4125
  115MOL0     H15519   3.609   3.374  10.791 -3.4400  0.4403  1.5637
  115MOL0     H15520   3.711   3.258  10.890 -0.5102 -0.1617  2.6299
  115MOL0     H15521   3.314   3.151  10.953  1.2359 -1.6722  0.7495
  115MOL0     H15522   4.123   3.349  10.808 -1.8659 -2.0435  1.7469
  115MOL0     H15523   4.394   3.321  10.609 -1.1966  2.3113  0.1844
  115MOL0     H15524   4.324   3.252  10.760  0.0872 -0.6462  0.2701
  115MOL0     H15525   4.339   3.153  10.608 -0.4416 -0.1664  2.0874
  116MOL0     O15526   8.464   9.553   4.167 -0.7970 -0.2707 -0.0153
  116MOL0     C15527   8.415   9.520   4.274 -0.2677 -0.0488  0.1726
  116MOL0     O15528   8.474   9.489   4.394  0.3737  0.3447 -0.2171
  116MOL0     C15529   8.598   9.430   4.397  0.5460  0.0590 -0.1446
  116MOL0     C15530   8.650   9.340   4.296  0.4972 -0.2048 -0.1062
  116MOL0     C15531   8.793   9.313   4.303 -0.2784  0.2925  0.4465
  116MOL0     C15532   8.869   9.349   4.418 -0.3933 -0.1277  0.5785
  116MOL0     O15533   9.003   9.318   4.430 -0.7157  0.4074 -0.6025
  116MOL0     C15534   9.076   9.256   4.325  0.2085  0.0697  0.2554
  116MOL0     C15535   9.220   9.282   4.361  0.2661 -0.0894 -0.4677
  116MOL0     C15536   9.275   9.425   4.368 -0.6080  0.3105  0.4275
  116MOL0     C15537   9.429   9.424   4.397  0.0963 -0.4499  0.1279
  116MOL0     C15538   9.440   9.393   4.541 -0.0292  0.4953 -0.1206
  116MOL0     C15539   9.584   9.397   4.600  0.6900 -0.2284 -0.1888
  116MOL0     C15540   9.665   9.524   4.577  0.3812 -0.7594 -0.3805
  116MOL0     C15541   9.809   9.516   4.632  0.0572 -0.8116 -0.2747
  116MOL0     N15542   9.866   9.647   4.620 -0.0539 -0.2875 -0.2735
  116MOL0     C15543   9.884   9.734   4.724 -0.9853 -0.1860 -1.0177
  116MOL0     C15544   9.929   9.851   4.672  0.6635  0.0238 -0.0838
  116MOL0     C15545   9.956   9.979   4.738 -1.0089 -0.3243 -0.5897
  116MOL0     C15546  10.089   9.983   4.819 -0.1244  0.2176  0.2360
  116MOL0     C15547  10.204   9.939   4.727  0.2135  0.4738 -0.3642
  116MOL0     C15548  10.335   9.980   4.786 -1.5677  0.2842  0.0150
  116MOL0     O15549  10.341   9.924   4.919  0.2581 -0.4278 -0.0852
  116MOL0     C15550  10.397  10.018   5.011  0.5451  0.9642  0.1998
  116MOL0     C15551  10.531   9.996   5.056  0.9771 -0.6765  0.5079
  116MOL0     C15552  10.591  10.087   5.138 -0.5135  0.3233  0.2224
  116MOL0     C15553  10.526  10.201   5.182 -0.1261  0.3621 -0.7649
  116MOL0     C15554  10.596  10.300   5.272  0.4126  0.4576 -1.0727
  116MOL0     O15555  10.734  10.297   5.272  0.0525 -0.4294  0.7810
  116MOL0     C15556  10.815  10.355   5.376  0.0735 -0.1201  0.8858
  116MOL0     C15557  10.935  10.292   5.410 -0.3487  0.5005 -0.6127
  116MOL0     C15558  11.029  10.352   5.499  0.2650 -1.0133  0.5006
  116MOL0     C15559  10.994  10.476   5.564 -0.7346 -0.1425  0.3253
  116MOL0     O15560  11.090  10.533   5.649  1.0874 -0.4204  0.1381
  116MOL0     C15561  11.075  10.661   5.716 -0.5617  0.0560  0.5917
  116MOL0     C15562  10.978  10.651   5.840  0.1103  0.5187  0.0216
  116MOL0     C15563  10.981  10.773   5.926 -0.2263 -0.2488  0.1559
  116MOL0     C15564  10.892  10.764   6.057 -0.1111 -0.1002  1.0263
  116MOL0     C15565  10.913  10.635   6.138 -0.1262 -0.7232  0.0466
  116MOL0     C15566  10.826  10.628   6.269  0.3967 -0.1670  0.2759
  116MOL0     C15567  10.887  10.548   6.384 -0.7369 -0.2652  0.0671
  116MOL0     C15568  10.816  10.553   6.524 -0.2645 -0.2861 -0.0221
  116MOL0    Cl15569  10.902  10.424   6.618  0.3941  0.0271 -0.3143
  116MOL0     C15570  10.871  10.544   5.525  0.3851  0.0918 -1.1650
  116MOL0     C15571  10.789  10.487   5.428  0.1825  0.2073 -0.2136
  116MOL0     O15572  10.533  10.380   5.335  0.3114 -0.8233  0.7695
  116MOL0     C15573  10.386  10.219   5.150  0.2058 -0.4767 -0.2563
  116MOL0     C15574  10.327  10.127   5.067  0.0370  0.4287 -0.3411
  116MOL0     N15575   9.959   9.829   4.543  0.3332 -0.7649 -0.7108
  116MOL0     N15576   9.921   9.711   4.511  0.5834 -0.3977  0.0027
  116MOL0     C15577   8.804   9.423   4.525  0.1972  0.0721 -0.2410
  116MOL0     C15578   8.673   9.467   4.511 -0.2057 -0.8920  0.2071
  116MOL0     C15579   8.272   9.540   4.284  0.8525  0.1649 -0.2818
  116MOL0     C15580   8.230   9.671   4.305  0.5542 -0.2422  0.3820
  116MOL0     C15581   8.099   9.705   4.335 -0.2401 -0.8380 -0.5321
  116MOL0     C15582   8.009   9.607   4.341  0.3762  0.0752  1.3797
  116MOL0     O15583   7.879   9.653   4.348  0.1743  0.2208 -0.0987
  116MOL0     C15584   7.784   9.555   4.404 -1.1288  0.0076 -0.5257
  116MOL0     C15585   7.647   9.607   4.384  0.9601  0.2111  0.1316
  116MOL0     C15586   7.607   9.699   4.497  0.2078  0.3979 -0.1368
  116MOL0     C15587   7.482   9.787   4.459 -1.0369  0.0950 -0.1966
  116MOL0     C15588   7.423   9.852   4.572  0.4373  0.1702  0.6603
  116MOL0     C15589   7.362   9.893   4.672  0.3196 -0.2322  0.4637
  116MOL0     C15590   8.045   9.471   4.329  0.3856 -0.1875 -0.1166
  116MOL0     C15591   8.180   9.439   4.306  0.9237  0.0588 -0.1028
  116MOL0     C15592   8.213   9.287   4.295 -0.1774 -1.1220 -0.9868
  116MOL0     H15593   8.599   9.305   4.207  1.3472 -0.1930 -0.6037
  116MOL0     H15594   8.833   9.244   4.230  0.1415 -2.4997  3.1554
  116MOL0     H15595   9.058   9.148   4.327 -1.2912  0.2774 -0.5477
  116MOL0     H15596   9.054   9.287   4.222 -1.7608  0.8131  0.8648
  116MOL0     H15597   9.282   9.233   4.285  0.1559  0.3386 -0.8360
  116MOL0     H15598   9.238   9.226   4.454  0.6511 -1.3886 -1.3059
  116MOL0     H15599   9.225   9.472   4.453 -1.2058 -0.0397  0.2805
  116MOL0     H15600   9.241   9.478   4.279 -0.0020 -1.2730 -0.8060
  116MOL0     H15601   9.486   9.347   4.345  1.0597 -0.3075  0.9372
  116MOL0     H15602   9.463   9.527   4.386 -0.4915  0.1454  2.9095
  116MOL0     H15603   9.386   9.474   4.591 -3.0087 -0.9093 -0.8638
  116MOL0     H15604   9.398   9.295   4.563  0.3171 -0.0907 -1.8764
  116MOL0     H15605   9.578   9.366   4.705  2.5063 -2.0307 -0.5493
  116MOL0     H15606   9.643   9.318   4.553 -0.4282 -0.7028 -0.8249
  116MOL0     H15607   9.619   9.610   4.626  1.8938 -0.1077 -0.0304
  116MOL0     H15608   9.668   9.547   4.470  0.0588  2.4019  0.2101
  116MOL0     H15609   9.789   9.477   4.732 -3.0575 -0.0440 -0.4870
  116MOL0     H15610   9.868   9.438   4.583 -2.0191 -1.2439 -2.2883
  116MOL0     H15611   9.867   9.716   4.830 -2.5211  1.3059 -0.9570
  116MOL0     H15612   9.964  10.051   4.656 -0.3478  0.4980  0.1783
  116MOL0     H15613   9.877  10.005   4.810 -0.5361  1.6161 -0.7343
  116MOL0     H15614  10.101  10.083   4.862  1.1459 -1.0550  3.1090
  116MOL0     H15615  10.081   9.918   4.906 -0.8191  0.4086  0.3188
  116MOL0     H15616  10.197   9.973   4.624 -2.0024 -2.8318 -1.4369
  116MOL0     H15617  10.211   9.830   4.729  0.7369  0.4747 -1.5381
  116MOL0     H15618  10.345  10.088   4.784  0.4246  0.1193 -0.6753
  116MOL0     H15619  10.413   9.947   4.717 -2.2233  0.7544 -0.9668
  116MOL0     H15620  10.588   9.910   5.021  2.1726  0.5384 -0.6414
  116MOL0     H15621  10.684  10.057   5.185 -0.1598 -0.0078 -0.6685
  116MOL0     H15622  10.951  10.197   5.361 -0.1805  1.0470 -1.6348
  116MOL0     H15623  11.124  10.305   5.525 -0.0137 -0.5462  2.5050
  116MOL0     H15624  11.170  10.702   5.753 -1.8247  3.2166  0.6700
  116MOL0     H15625  11.033  10.737   5.649  3.0957  1.1198 -0.7218
  116MOL0     H15626  10.872  10.635   5.818 -0.2044 -1.6978  2.6194
  116MOL0     H15627  11.014  10.578   5.912 -0.0039 -1.2655 -1.6374
  116MOL0     H15628  11.081  10.790   5.966 -0.1019 -1.5190  0.4522
  116MOL0     H15629  10.943  10.860   5.872  0.8884  0.1881  0.0676
  116MOL0     H15630  10.786  10.771   6.027 -0.3005 -3.6237  0.3661
  116MOL0     H15631  10.909  10.843   6.129  1.8632  0.7668 -0.3133
  116MOL0     H15632  11.020  10.633   6.164  0.1970  5.0600  0.4470
  116MOL0     H15633  10.890  10.540   6.089 -0.1527 -1.7782  2.0135
  116MOL0     H15634  10.809  10.731   6.302  2.6516  1.2241 -2.4758
  116MOL0     H15635  10.733  10.581   6.237  1.7721 -2.2019 -0.9491
  116MOL0     H15636  10.990  10.580   6.400 -0.3017 -0.7738 -1.5347
  116MOL0     H15637  10.893  10.443   6.353  0.9499 -1.0179  2.6901
  116MOL0     H15638  10.832  10.652   6.567 -0.0806  0.2821 -1.3568
  116MOL0     H15639  10.710  10.528   6.516 -0.5192  0.8357 -0.2857
  116MOL0     H15640  10.830  10.640   5.552 -0.4103 -0.2006 -1.2972
  116MOL0     H15641  10.698  10.540   5.400  1.6673  2.3464 -1.2278
  116MOL0     H15642  10.338  10.316   5.158  1.1508  0.0379 -0.6220
  116MOL0     H15643  10.226  10.141   5.030  0.1202  2.2223  0.0216
  116MOL0     H15644   8.856   9.440   4.619 -1.8453  2.5105  0.5557
  116MOL0     H15645   8.634   9.524   4.594  2.1422 -1.4563  1.7937
  116MOL0     H15646   8.306   9.743   4.278  0.1262  0.2552  0.4898
  116MOL0     H15647   8.080   9.811   4.346  1.3336 -0.5177 -0.7177
  116MOL0     H15648   7.816   9.528   4.505 -0.2594  0.0206 -0.7847
  116MOL0     H15649   7.793   9.469   4.336  0.1165  0.9769 -1.6301
  116MOL0     H15650   7.579   9.522   4.387  0.8950  0.2171 -0.8672
  116MOL0     H15651   7.653   9.658   4.287 -0.5406 -0.1076 -0.1497
  116MOL0     H15652   7.689   9.761   4.536 -2.4936  2.4122  2.8433
  116MOL0     H15653   7.580   9.627   4.574  0.1167 -1.7679 -2.0752
  116MOL0     H15654   7.517   9.853   4.378  1.2209 -0.8849 -0.0939
  116MOL0     H15655   7.400   9.727   4.419 -2.5071  1.2496  0.9568
  116MOL0     H15656   7.292   9.894   4.754 -2.8001 -0.7408 -2.0252
  116MOL0     H15657   7.974   9.389   4.337  1.5723 -1.1256  4.8666
  116MOL0     H15658   8.283   9.259   4.216 -1.6323 -3.7247 -1.4662
  116MOL0     H15659   8.253   9.258   4.393  0.2929  3.4293  0.4163
  116MOL0     H15660   8.120   9.232   4.280 -0.7270 -0.2568 -0.8267
  117MOL0     O15661   0.306   1.731   7.137  0.2231 -0.6014 -0.3592
  117MOL0     C15662   0.257   1.797   7.226 -0.2142  0.2638 -0.1099
  117MOL0     O15663   0.326   1.858   7.320 -0.3454 -0.8623 -0.3385
  117MOL0     C15664   0.460   1.840   7.325 -1.0696 -0.4660  0.3542
  117MOL0     C15665   0.538   1.954   7.298 -0.2900 -0.2692 -0.1832
  117MOL0     C15666   0.682   1.945   7.322  0.5777  0.2293  1.1534
  117MOL0     C15667   0.737   1.826   7.357 -0.7105 -0.5860  0.2462
  117MOL0     O15668   0.875   1.806   7.356 -0.0695  0.7441 -0.1898
  117MOL0     C15669   0.955   1.914   7.320 -0.2524  0.3286 -0.5083
  117MOL0     C15670   1.104   1.884   7.315  0.5227  0.5795 -0.0741
  117MOL0     C15671   1.189   2.003   7.243 -0.0304 -0.2725  0.2488
  117MOL0     C15672   1.192   2.137   7.318  1.3611  1.0006 -0.2818
  117MOL0     C15673   1.269   2.252   7.250 -0.1323 -0.9612 -0.1096
  117MOL0     C15674   1.272   2.389   7.328 -0.1234 -0.2797  0.9522
  117MOL0     C15675   1.154   2.484   7.291  0.1919  0.7219 -0.0572
  117MOL0     C15676   1.175   2.547   7.156  1.1206  0.9946 -1.1577
  117MOL0     N15677   1.072   2.649   7.123  0.4870 -0.0321  0.0470
  117MOL0     C15678   0.946   2.616   7.099  1.2718  0.2505 -0.1040
  117MOL0     C15679   0.881   2.733   7.075  0.0936  0.4285  0.9477
  117MOL0     C15680   0.740   2.752   7.061  0.2058  0.0400  0.2983
  117MOL0     C15681   0.652   2.719   7.178 -0.9612 -0.6963  0.3825
  117MOL0     C15682   0.627   2.841   7.267 -0.0480 -0.1535 -0.5294
  117MOL0     C15683   0.745   2.889   7.340  0.3288 -0.1282 -0.4745
  117MOL0     O15684   0.789   2.788   7.430 -0.1515  0.1607 -0.1150
  117MOL0     C15685   0.908   2.793   7.493 -0.4827  0.3866  0.7014
  117MOL0     C15686   0.962   2.665   7.534  1.3111 -0.7473  0.8019
  117MOL0     C15687   1.079   2.669   7.609  0.4137  0.4370 -0.1011
  117MOL0     C15688   1.153   2.781   7.626  0.0661  0.0030  1.0372
  117MOL0     C15689   1.283   2.773   7.703 -0.4472 -0.1976  0.5340
  117MOL0     O15690   1.358   2.881   7.699  0.2725 -0.4321 -0.1263
  117MOL0     C15691   1.476   2.874   7.780 -0.9889 -0.2365 -0.5644
  117MOL0     C15692   1.506   2.977   7.868  0.4062 -0.3312  0.4638
  117MOL0     C15693   1.631   2.975   7.938 -0.4375 -0.2198  0.3914
  117MOL0     C15694   1.732   2.885   7.909  0.8807 -0.0435  0.8028
  117MOL0     O15695   1.857   2.887   7.961  0.2295  0.4559  0.4279
  117MOL0     C15696   1.901   2.981   8.064 -0.0114  0.6931  0.2252
  117MOL0     C15697   2.037   2.957   8.122 -0.5986  0.1679  1.0579
  117MOL0     C15698   2.064   3.037   8.246 -0.4958 -0.4794  0.1235
  117MOL0     C15699   2.218   3.051   8.254 -0.3705 -0.2263  0.7194
  117MOL0     C15700   2.266   3.128   8.379  0.3411 -0.2347  0.9422
  117MOL0     C15701   2.420   3.121   8.399  0.4322 -0.4916  1.0316
  117MOL0     C15702   2.463   3.141   8.548 -0.0536  0.9169  0.8908
  117MOL0     C15703   2.398   3.259   8.617 -1.0058  0.0790  0.2640
  117MOL0    Cl15704   2.498   3.306   8.760 -0.0052 -0.1330  0.3094
  117MOL0     C15705   1.691   2.778   7.832 -0.6157 -0.1317  1.0334
  117MOL0     C15706   1.569   2.772   7.767  0.2022  0.1136  0.5582
  117MOL0     O15707   1.298   2.682   7.779  0.1800  0.1843 -0.0632
  117MOL0     C15708   1.112   2.904   7.565  0.2585 -0.4503 -0.3880
  117MOL0     C15709   0.988   2.906   7.500 -0.0665 -0.6136 -0.1881
  117MOL0     N15710   0.978   2.834   7.085 -0.5712 -0.2564  1.0198
  117MOL0     N15711   1.091   2.781   7.118 -0.1206  0.0080  0.0649
  117MOL0     C15712   0.656   1.718   7.380  0.5364 -0.2524 -0.7133
  117MOL0     C15713   0.519   1.732   7.369  0.0291 -0.4563 -0.5687
  117MOL0     C15714   0.110   1.809   7.235  0.7736 -0.5420  0.6016
  117MOL0     C15715   0.058   1.878   7.339  0.2753 -1.3677 -0.6376
  117MOL0     C15716  -0.074   1.926   7.338  0.4632 -0.1983 -0.1536
  117MOL0     C15717  -0.161   1.892   7.234  0.0858  0.1245  0.5870
  117MOL0     O15718  -0.284   1.945   7.245  0.2056  0.1658  0.2625
  117MOL0     C15719  -0.369   1.943   7.126  1.4063 -0.3328  0.6314
  117MOL0     C15720  -0.500   2.020   7.161  0.1602 -0.2647 -0.2782
  117MOL0     C15721  -0.592   2.078   7.048 -0.6122 -0.0618 -0.1256
  117MOL0     C15722  -0.717   2.157   7.099 -0.1338 -0.3596 -0.7973
  117MOL0     C15723  -0.676   2.286   7.157 -0.0271  0.2340 -0.6833
  117MOL0     C15724  -0.638   2.401   7.177  0.6840 -0.5474 -0.4710
  117MOL0     C15725  -0.120   1.806   7.139 -0.1926  0.8476  0.8260
  117MOL0     C15726   0.023   1.768   7.133  0.1981 -1.3665  0.6436
  117MOL0     C15727   0.068   1.701   7.002  0.6860  0.0857  0.5345
  117MOL0     H15728   0.481   2.040   7.264 -1.6658 -0.9113  0.4022
  117MOL0     H15729   0.727   2.044   7.322  0.9625  0.0676  0.2785
  117MOL0     H15730   0.927   1.965   7.227 -1.8946  0.1341 -0.1586
  117MOL0     H15731   0.950   1.986   7.402  1.9515 -1.3600  1.2799
  117MOL0     H15732   1.109   1.793   7.254 -3.2454 -1.3245  2.0358
  117MOL0     H15733   1.148   1.850   7.409  1.1297 -0.2877 -0.6529
  117MOL0     H15734   1.142   2.024   7.147  0.7513  1.8501  0.2609
  117MOL0     H15735   1.289   1.961   7.232  0.0529  0.0425 -0.2404
  117MOL0     H15736   1.088   2.167   7.329  1.3417  0.7022  0.4175
  117MOL0     H15737   1.216   2.129   7.425 -1.7720  1.8477  0.5786
  117MOL0     H15738   1.375   2.224   7.249  0.4783  1.2122 -0.5390
  117MOL0     H15739   1.229   2.274   7.151  2.6616 -0.0176 -1.1151
  117MOL0     H15740   1.265   2.372   7.436 -3.0507 -1.2166  0.7000
  117MOL0     H15741   1.364   2.442   7.300 -0.4903 -0.3515 -0.4739
  117MOL0     H15742   1.157   2.567   7.362  2.7492  3.0952 -2.6686
  117MOL0     H15743   1.057   2.433   7.291  1.5616 -2.0331 -0.0563
  117MOL0     H15744   1.271   2.600   7.157  0.1641  2.8450 -1.7257
  117MOL0     H15745   1.167   2.471   7.078 -2.7806 -0.5487  0.5004
  117MOL0     H15746   0.895   2.520   7.104  1.3268 -0.0626 -3.3011
  117MOL0     H15747   0.711   2.847   7.014 -0.0865 -0.5814 -0.8166
  117MOL0     H15748   0.715   2.675   6.988 -1.9385 -0.1752  1.1723
  117MOL0     H15749   0.556   2.684   7.137 -0.8286  0.6601 -1.1997
  117MOL0     H15750   0.700   2.633   7.225 -1.1956 -3.2591 -3.6540
  117MOL0     H15751   0.553   2.826   7.346 -0.2149 -1.5979 -0.9347
  117MOL0     H15752   0.584   2.915   7.198 -0.3709 -0.6386 -0.8538
  117MOL0     H15753   0.735   2.986   7.389  1.9384  2.3677 -4.6154
  117MOL0     H15754   0.826   2.906   7.269  2.7808 -1.2699  1.8620
  117MOL0     H15755   0.899   2.576   7.529 -0.3047  0.3043  1.4131
  117MOL0     H15756   1.111   2.584   7.668 -0.1967  0.2202 -0.0761
  117MOL0     H15757   1.425   3.049   7.883  0.1620 -0.3252 -0.8129
  117MOL0     H15758   1.655   3.060   8.000  0.1357 -0.0833 -0.0070
  117MOL0     H15759   1.899   3.082   8.023 -1.9229  0.4750 -0.2909
  117MOL0     H15760   1.836   2.971   8.151  1.8126 -2.9152  1.3958
  117MOL0     H15761   2.038   2.850   8.145  0.0471 -0.4043 -1.3118
  117MOL0     H15762   2.113   2.979   8.046  0.0549 -2.0721  0.9762
  117MOL0     H15763   2.018   3.136   8.233  1.0460  0.2628  0.0830
  117MOL0     H15764   2.026   2.991   8.338 -0.7836  0.3501  0.4307
  117MOL0     H15765   2.256   3.096   8.162  1.1118  0.1436  1.4752
  117MOL0     H15766   2.260   2.951   8.263 -0.1450 -0.0790  1.3868
  117MOL0     H15767   2.217   3.082   8.465 -1.5706 -0.7844 -0.3750
  117MOL0     H15768   2.228   3.231   8.373 -0.3586 -0.5630 -1.2015
  117MOL0     H15769   2.447   3.019   8.370  1.0396  0.1979 -1.0284
  117MOL0     H15770   2.476   3.197   8.344 -0.1547 -0.6547  0.1711
  117MOL0     H15771   2.572   3.153   8.549  0.1622  0.5973 -2.9287
  117MOL0     H15772   2.425   3.048   8.590  1.3306 -0.3422 -0.4916
  117MOL0     H15773   2.389   3.345   8.550 -1.6175  3.0596  3.8446
  117MOL0     H15774   2.298   3.226   8.647 -1.7345  1.4953 -0.5241
  117MOL0     H15775   1.754   2.690   7.825 -1.5715 -0.7303 -3.2065
  117MOL0     H15776   1.551   2.679   7.713  1.3645  0.3098 -0.2028
  117MOL0     H15777   1.172   2.992   7.585  0.2594 -0.4599 -0.3474
  117MOL0     H15778   0.959   2.996   7.448  2.6283  0.1864 -0.4634
  117MOL0     H15779   0.685   1.615   7.401  0.8293  0.1383  0.8719
  117MOL0     H15780   0.456   1.648   7.397  1.3314 -0.6941  1.8581
  117MOL0     H15781   0.121   1.906   7.422  0.0354 -1.0386 -0.5654
  117MOL0     H15782  -0.103   1.979   7.428 -1.1756 -0.5693 -0.4307
  117MOL0     H15783  -0.391   1.837   7.105  0.8747 -0.5986  2.3522
  117MOL0     H15784  -0.325   1.980   7.033  1.5179 -0.4536  0.6362
  117MOL0     H15785  -0.474   2.112   7.214  1.7837  1.0888 -3.1700
  117MOL0     H15786  -0.560   1.959   7.228  1.8360  0.0742  1.6438
  117MOL0     H15787  -0.629   1.987   7.001  1.3822 -1.0867  0.1676
  117MOL0     H15788  -0.544   2.148   6.979  0.7736 -1.4370 -0.6160
  117MOL0     H15789  -0.783   2.170   7.012  1.8491 -0.1154 -2.3554
  117MOL0     H15790  -0.767   2.090   7.169  0.4782  1.3034  1.3067
  117MOL0     H15791  -0.602   2.500   7.196 -1.4286 -0.1060  1.8571
  117MOL0     H15792  -0.180   1.778   7.053 -1.0424 -0.6375  1.8769
  117MOL0     H15793   0.110   1.601   7.016  1.0817  0.4190  1.8583
  117MOL0     H15794  -0.014   1.678   6.933  1.4714 -1.2130 -0.0080
  117MOL0     H15795   0.147   1.758   6.954  2.7692 -1.9385  1.3496
  118MOL0     O15796   3.703   1.800  10.539 -0.0516 -0.6116 -0.5376
  118MOL0     C15797   3.649   1.800  10.649  0.3876 -0.7929 -1.0577
  118MOL0     O15798   3.693   1.874  10.751  0.0010  0.1820 -0.3149
  118MOL0     C15799   3.813   1.941  10.747  0.5776 -0.4288 -0.4996
  118MOL0     C15800   3.926   1.891  10.814  0.0867 -0.4567  0.0726
  118MOL0     C15801   4.052   1.965  10.823 -0.4051  0.1790 -0.8491
  118MOL0     C15802   4.058   2.080  10.739 -0.6768  0.5536 -0.3720
  118MOL0     O15803   4.186   2.132  10.729 -0.1341 -0.3184  0.0490
  118MOL0     C15804   4.205   2.215  10.609  0.1588  0.5912 -1.0630
  118MOL0     C15805   4.344   2.266  10.616 -0.7637 -0.2198 -0.2361
  118MOL0     C15806   4.358   2.371  10.508 -0.2511  0.6697  0.3347
  118MOL0     C15807   4.505   2.414  10.496  0.1488  0.0458  0.5867
  118MOL0     C15808   4.560   2.469  10.627  0.6658 -0.6893 -0.0721
  118MOL0     C15809   4.677   2.566  10.601  0.1156 -0.3157  0.0707
  118MOL0     C15810   4.793   2.488  10.527 -0.7779  0.0344 -0.1129
  118MOL0     C15811   4.912   2.584  10.510  0.3591 -0.2561  0.9283
  118MOL0     N15812   5.033   2.523  10.452  0.1402 -0.3395  0.0818
  118MOL0     C15813   5.078   2.395  10.474 -0.3399  0.7555 -0.7162
  118MOL0     C15814   5.186   2.391  10.392  0.2668  0.2221  0.1325
  118MOL0     C15815   5.287   2.279  10.379 -0.9529  0.4994 -0.3752
  118MOL0     C15816   5.434   2.338  10.359 -0.1506  0.4048  0.5826
  118MOL0     C15817   5.534   2.222  10.367  0.0825 -0.4222 -0.4503
  118MOL0     C15818   5.642   2.241  10.264  0.0593 -0.2746 -0.6660
  118MOL0     O15819   5.759   2.171  10.313 -0.4678  0.1962  0.6492
  118MOL0     C15820   5.877   2.217  10.255 -0.1853  0.0866  0.5591
  118MOL0     C15821   5.991   2.220  10.334  0.2191 -0.4359  0.2914
  118MOL0     C15822   6.119   2.255  10.282 -0.7660  0.0398 -0.4620
  118MOL0     C15823   6.128   2.303  10.145 -0.6478 -0.4900 -0.0408
  118MOL0     C15824   6.259   2.324  10.078  0.3689  0.3301 -0.1061
  118MOL0     O15825   6.374   2.289  10.156 -0.0135 -0.2616  0.4216
  118MOL0     C15826   6.500   2.340  10.122 -0.1226 -0.4249  0.0297
  118MOL0     C15827   6.607   2.277  10.189 -0.0141  0.9286 -1.0128
  118MOL0     C15828   6.741   2.316  10.174  1.2002  0.1152 -0.3197
  118MOL0     C15829   6.767   2.431  10.101  0.4495 -0.2839 -0.0929
  118MOL0     O15830   6.894   2.472  10.091  0.2179  0.4006 -0.1168
  118MOL0     C15831   6.928   2.598  10.163  0.2558  0.0860 -0.1464
  118MOL0     C15832   7.070   2.580  10.228 -1.0729  0.4108 -0.3120
  118MOL0     C15833   7.064   2.543  10.381  0.8840 -0.5294  0.5948
  118MOL0     C15834   7.194   2.504  10.442 -1.5278  0.2064 -0.0865
  118MOL0     C15835   7.177   2.474  10.591  0.1109  0.8214  0.1011
  118MOL0     C15836   7.309   2.441  10.661  0.7682 -0.5968 -0.1926
  118MOL0     C15837   7.282   2.400  10.807 -0.6553  0.1280  0.0916
  118MOL0     C15838   7.414   2.417  10.887 -0.4045 -0.7240  0.5751
  118MOL0    Cl15839   7.444   2.587  10.934  0.1635 -0.0818 -0.7491
  118MOL0     C15840   6.660   2.496  10.028 -0.1881  0.3703  0.0756
  118MOL0     C15841   6.530   2.451  10.040 -0.0980  0.1967  0.4373
  118MOL0     O15842   6.256   2.369   9.964 -0.2417  1.1878 -0.5856
  118MOL0     C15843   6.011   2.317  10.077  0.0028  0.7809  0.0673
  118MOL0     C15844   5.887   2.283  10.130 -0.3942  0.1312 -0.2010
  118MOL0     N15845   5.194   2.507  10.308  0.0011 -0.3017 -0.0654
  118MOL0     N15846   5.093   2.581  10.340 -0.5190  0.0889 -0.6620
  118MOL0     C15847   3.949   2.127  10.669 -0.3382 -0.6402  0.3790
  118MOL0     C15848   3.827   2.057  10.677  0.1988  0.5467  0.6291
  118MOL0     C15849   3.523   1.724  10.667 -0.8942  0.5070  1.0359
  118MOL0     C15850   3.432   1.729  10.562 -0.1376 -0.2038 -0.0846
  118MOL0     C15851   3.317   1.649  10.573 -0.5910 -0.1367  0.1324
  118MOL0     C15852   3.296   1.558  10.676 -0.1125  0.3523 -0.9290
  118MOL0     O15853   3.184   1.482  10.688 -0.3068 -0.0795 -0.1906
  118MOL0     C15854   3.174   1.366  10.604  0.8248  0.1003 -0.8909
  118MOL0     C15855   3.038   1.296  10.623 -0.0587 -0.1170  0.2796
  118MOL0     C15856   2.990   1.277  10.769  0.1183  1.2284 -0.0033
  118MOL0     C15857   2.861   1.186  10.761  0.7273  0.1884  0.6143
  118MOL0     C15858   2.743   1.254  10.707 -0.3388  0.0579  0.0003
  118MOL0     C15859   2.640   1.299  10.654 -0.5113 -0.2080  0.8981
  118MOL0     C15860   3.383   1.559  10.783 -0.4028  0.2560  0.6714
  118MOL0     C15861   3.494   1.644  10.779 -0.1159  0.2430 -0.5245
  118MOL0     C15862   3.586   1.650  10.898 -0.2740 -0.2109 -0.5814
  118MOL0     H15863   3.900   1.807  10.877 -1.7762  0.3452  0.4511
  118MOL0     H15864   4.136   1.933  10.884  0.1136  4.2334  0.8433
  118MOL0     H15865   4.192   2.156  10.518 -0.0602 -2.7565  0.9768
  118MOL0     H15866   4.135   2.299  10.605 -1.6390 -0.8207 -0.6745
  118MOL0     H15867   4.419   2.187  10.608  1.3024  1.4470  1.4446
  118MOL0     H15868   4.359   2.314  10.713 -1.3161  0.1983 -0.3516
  118MOL0     H15869   4.292   2.456  10.532 -0.0762  0.5744  1.2007
  118MOL0     H15870   4.326   2.332  10.411  0.1312 -0.6202  0.7135
  118MOL0     H15871   4.558   2.327  10.457 -3.3895 -1.3775 -1.5704
  118MOL0     H15872   4.507   2.486  10.414  2.4174 -2.2473 -1.5413
  118MOL0     H15873   4.481   2.522  10.681  0.4472 -1.9357  0.8783
  118MOL0     H15874   4.588   2.381  10.685  0.0521 -0.3354  0.7841
  118MOL0     H15875   4.646   2.652  10.541  2.4259  0.5161 -0.0422
  118MOL0     H15876   4.704   2.600  10.701  1.0872  1.5183 -0.7563
  118MOL0     H15877   4.765   2.458  10.426  2.7542  1.0721 -1.5623
  118MOL0     H15878   4.817   2.407  10.596 -0.1091  1.9606  2.0480
  118MOL0     H15879   4.881   2.666  10.444  0.8948 -0.1892  0.7506
  118MOL0     H15880   4.936   2.623  10.609 -0.0534 -2.1629  1.8116
  118MOL0     H15881   5.037   2.323  10.543 -2.2224  2.5653  0.1671
  118MOL0     H15882   5.276   2.221  10.471 -2.0243 -1.7733 -1.8678
  118MOL0     H15883   5.262   2.209  10.300 -1.7649  0.9716 -0.5498
  118MOL0     H15884   5.431   2.386  10.261 -2.7131  0.5547  0.6574
  118MOL0     H15885   5.444   2.411  10.439 -0.2510  1.0098  0.0485
  118MOL0     H15886   5.478   2.132  10.337 -1.4087  0.3934 -0.2230
  118MOL0     H15887   5.576   2.213  10.468  0.5567  0.3874 -0.5759
  118MOL0     H15888   5.660   2.348  10.254 -1.6314 -0.0541 -1.7814
  118MOL0     H15889   5.609   2.208  10.165 -0.7848  1.1241 -0.8827
  118MOL0     H15890   5.981   2.195  10.439  2.1170  1.7853  1.0933
  118MOL0     H15891   6.206   2.236  10.344  1.3750  1.2153 -2.9123
  118MOL0     H15892   6.581   2.193  10.252 -1.7424  2.9276  1.1266
  118MOL0     H15893   6.823   2.268  10.226  0.3056 -0.4924  0.5835
  118MOL0     H15894   6.936   2.686  10.099 -1.2012 -0.0275 -0.5221
  118MOL0     H15895   6.844   2.617  10.231 -1.5496 -1.7142 -1.7079
  118MOL0     H15896   7.127   2.507  10.170 -0.2463  1.2270 -0.5469
  118MOL0     H15897   7.117   2.678  10.219 -0.9694  0.4738  0.7658
  118MOL0     H15898   7.033   2.629  10.442 -0.4964  0.2255 -1.0761
  118MOL0     H15899   6.998   2.456  10.384  0.0734  0.0400 -0.1606
  118MOL0     H15900   7.272   2.579  10.427 -0.7180 -0.3547  1.1116
  118MOL0     H15901   7.220   2.410  10.391 -1.4569 -0.0753  0.4555
  118MOL0     H15902   7.113   2.386  10.596 -1.4493  1.7108 -2.1682
  118MOL0     H15903   7.125   2.556  10.641  1.7878  1.2069  1.2790
  118MOL0     H15904   7.371   2.373  10.601  1.0955  0.1013 -0.6629
  118MOL0     H15905   7.371   2.531  10.670  1.1491 -0.7917 -0.7564
  118MOL0     H15906   7.242   2.299  10.805 -0.4295  0.0423 -1.1653
  118MOL0     H15907   7.199   2.460  10.846 -0.7986 -0.7689  1.1984
  118MOL0     H15908   7.400   2.372  10.986  1.8524 -2.9164 -0.0099
  118MOL0     H15909   7.497   2.368  10.835 -0.1889 -0.5511  0.7481
  118MOL0     H15910   6.682   2.582   9.965 -2.4623  0.4098 -0.7880
  118MOL0     H15911   6.446   2.504   9.995 -0.5044 -0.3816  0.4907
  118MOL0     H15912   6.008   2.336   9.970 -2.5146  2.9057  0.4176
  118MOL0     H15913   5.792   2.287  10.078 -1.7319 -2.6260  1.7527
  118MOL0     H15914   3.944   2.223  10.619  1.3735 -0.3267  0.7337
  118MOL0     H15915   3.739   2.089  10.623  1.6938  3.1519 -0.4556
  118MOL0     H15916   3.451   1.795  10.478 -0.4950 -0.4850 -0.3897
  118MOL0     H15917   3.253   1.655  10.486  0.6548  1.5752 -0.7156
  118MOL0     H15918   3.261   1.303  10.628 -0.0790 -1.1139 -0.7474
  118MOL0     H15919   3.187   1.387  10.498 -0.9318 -0.4174 -1.2402
  118MOL0     H15920   3.039   1.212  10.552  1.5724  1.5314 -1.7976
  118MOL0     H15921   2.959   1.357  10.578  0.1649 -0.4293 -0.5680
  118MOL0     H15922   2.973   1.373  10.820  3.5496  1.7757  0.3577
  118MOL0     H15923   3.063   1.221  10.828 -0.4725  1.4970  1.0101
  118MOL0     H15924   2.877   1.095  10.702 -0.7315 -0.6949  1.5127
  118MOL0     H15925   2.839   1.152  10.862 -0.8063  2.0943  0.9742
  118MOL0     H15926   2.557   1.333  10.596  0.7859  2.0330  0.2375
  118MOL0     H15927   3.350   1.491  10.861  0.1282  0.2851  0.9290
  118MOL0     H15928   3.690   1.627  10.874  0.8114  2.5744  1.0129
  118MOL0     H15929   3.587   1.753  10.934  0.6411 -0.6566  0.7484
  118MOL0     H15930   3.546   1.590  10.981  2.3470  2.1391  2.6073
  119MOL0     O15931   7.822   1.488   2.008  0.4035 -0.8861 -0.5765
  119MOL0     C15932   7.699   1.468   2.012 -0.7898  0.9503 -0.1090
  119MOL0     O15933   7.649   1.357   2.080 -0.0791 -0.1833  0.5391
  119MOL0     C15934   7.722   1.251   2.124  0.3015 -1.6878  0.3581
  119MOL0     C15935   7.855   1.224   2.101 -1.0342  0.0921 -0.0699
  119MOL0     C15936   7.906   1.097   2.146 -0.2191 -0.3851 -0.7033
  119MOL0     C15937   7.819   1.002   2.204 -0.8488 -0.5097 -0.5638
  119MOL0     O15938   7.864   0.873   2.215  0.3147 -0.1271 -0.4538
  119MOL0     C15939   7.805   0.798   2.321 -0.1905  0.5002 -0.8763
  119MOL0     C15940   7.912   0.693   2.358  0.7399  0.5012 -0.7647
  119MOL0     C15941   8.038   0.754   2.412  0.0010  0.0319  0.0330
  119MOL0     C15942   8.145   0.637   2.419  0.6524 -0.2392 -0.7714
  119MOL0     C15943   8.265   0.692   2.496  0.6166  0.0274  0.3454
  119MOL0     C15944   8.372   0.581   2.479  0.1397  0.3843 -0.6841
  119MOL0     C15945   8.498   0.596   2.564 -1.0605  0.4869  0.2031
  119MOL0     C15946   8.474   0.625   2.711 -0.5795 -0.1048  1.0860
  119MOL0     N15947   8.608   0.635   2.771 -0.7037 -0.3659  0.1038
  119MOL0     C15948   8.677   0.754   2.777  0.3300 -0.0751  0.7233
  119MOL0     C15949   8.800   0.722   2.823 -0.2882  0.7812  0.3313
  119MOL0     C15950   8.908   0.824   2.857 -0.1337 -0.9755  0.8041
  119MOL0     C15951   9.038   0.773   2.925 -0.4493 -0.4980  0.6731
  119MOL0     C15952   9.130   0.888   2.942 -0.0743  0.0339 -0.6203
  119MOL0     C15953   9.262   0.847   3.010 -0.4799  0.0891 -0.1101
  119MOL0     O15954   9.339   0.967   3.040 -0.3182 -0.0860  0.6813
  119MOL0     C15955   9.472   0.955   3.035  0.9560 -1.4495  0.9192
  119MOL0     C15956   9.543   0.865   3.102  1.0455  0.9806 -0.3154
  119MOL0     C15957   9.684   0.871   3.104  0.3389  0.4765  0.1464
  119MOL0     C15958   9.755   0.979   3.047  0.1730 -0.1494  0.3099
  119MOL0     C15959   9.900   1.000   3.070  0.4016 -0.7011  0.2509
  119MOL0     O15960   9.955   0.929   3.172 -0.1343  0.1338  0.3844
  119MOL0     C15961  10.088   0.917   3.183 -0.2242  0.2897 -0.3542
  119MOL0     C15962  10.189   0.933   3.091 -0.4029  0.8337  1.3116
  119MOL0     C15963  10.324   0.910   3.128 -0.0406 -0.0850  0.5199
  119MOL0     C15964  10.361   0.876   3.256 -0.0812 -0.0911  0.5764
  119MOL0     O15965  10.491   0.854   3.281 -0.2154  0.2894 -0.1934
  119MOL0     C15966  10.540   0.891   3.410  0.5044 -1.2526  0.3598
  119MOL0     C15967  10.692   0.854   3.412 -0.5712  0.4490 -0.6022
  119MOL0     C15968  10.769   0.938   3.516  0.5898 -0.1308  0.4465
  119MOL0     C15969  10.737   0.926   3.660  0.4295  0.2922  0.2636
  119MOL0     C15970  10.837   1.009   3.748 -0.1376  0.7714 -0.7169
  119MOL0     C15971  10.777   1.018   3.891  0.5977 -0.6508  0.4155
  119MOL0     C15972  10.872   1.081   3.994 -0.3833 -0.4172  1.4067
  119MOL0     C15973  11.013   1.025   4.003 -0.2482  0.6482 -0.4667
  119MOL0    Cl15974  11.021   0.858   4.065 -0.1894  0.2052 -0.3622
  119MOL0     C15975  10.258   0.846   3.346 -0.2696 -0.3139 -0.5985
  119MOL0     C15976  10.125   0.869   3.308 -0.6703  0.0247 -0.2763
  119MOL0     O15977   9.960   1.083   2.999  1.3861  0.5404 -0.2925
  119MOL0     C15978   9.677   1.077   2.982 -0.7061 -0.9301 -0.1608
  119MOL0     C15979   9.536   1.063   2.974 -0.3755  0.0829  0.0351
  119MOL0     N15980   8.803   0.582   2.852  0.5181 -0.3061 -0.0433
  119MOL0     N15981   8.688   0.536   2.823  0.1260  0.0307 -0.7994
  119MOL0     C15982   7.685   1.030   2.223  0.1306  0.4657 -0.6979
  119MOL0     C15983   7.642   1.164   2.193 -0.3894  0.4156  0.1905
  119MOL0     C15984   7.610   1.561   1.959  0.6300 -0.1322 -0.3471
  119MOL0     C15985   7.667   1.686   1.911  0.3595 -0.0462  0.1338
  119MOL0     C15986   7.573   1.787   1.877 -1.2255 -0.6070 -0.2679
  119MOL0     C15987   7.436   1.779   1.874 -0.7856 -1.0069 -0.0600
  119MOL0     O15988   7.365   1.890   1.825 -0.3112  0.2616  0.6279
  119MOL0     C15989   7.227   1.886   1.849 -0.0526  0.0337 -0.1115
  119MOL0     C15990   7.164   2.024   1.811 -1.1477 -0.1604  0.7866
  119MOL0     C15991   7.014   2.028   1.796  0.4159 -0.2838 -1.1115
  119MOL0     C15992   6.973   2.130   1.691 -0.4805 -0.9314  0.2872
  119MOL0     C15993   7.012   2.102   1.555  0.0418  0.2347 -0.1392
  119MOL0     C15994   7.049   2.090   1.441 -0.0775 -0.7869 -0.2940
  119MOL0     C15995   7.382   1.661   1.915  0.4972  0.4598 -0.1469
  119MOL0     C15996   7.463   1.549   1.955 -0.8932 -0.6901 -0.3443
  119MOL0     C15997   7.398   1.425   2.007  0.3257  0.2833 -0.7086
  119MOL0     H15998   7.927   1.290   2.054  0.9802 -2.0043 -0.0912
  119MOL0     H15999   8.008   1.071   2.119  0.6385  1.6267  0.3820
  119MOL0     H16000   7.784   0.862   2.407  0.8569  3.2692 -2.5132
  119MOL0     H16001   7.713   0.749   2.287  1.1155 -2.2176 -0.7194
  119MOL0     H16002   7.938   0.642   2.265  0.6691 -4.1546  1.5103
  119MOL0     H16003   7.872   0.625   2.433  0.9793  1.2044  0.0184
  119MOL0     H16004   8.016   0.813   2.501  2.1401  1.0449 -0.0357
  119MOL0     H16005   8.075   0.835   2.349 -4.1044  2.7336  0.7151
  119MOL0     H16006   8.118   0.546   2.472  0.5742 -1.9074 -3.4884
  119MOL0     H16007   8.176   0.602   2.320  0.3001 -2.2462 -0.1997
  119MOL0     H16008   8.304   0.782   2.449  2.7475 -1.4615 -0.8948
  119MOL0     H16009   8.238   0.717   2.599 -2.5025  2.7679 -0.9644
  119MOL0     H16010   8.320   0.491   2.513 -3.7881  2.1304 -1.5414
  119MOL0     H16011   8.413   0.583   2.377  2.0500 -1.0027 -0.0090
  119MOL0     H16012   8.556   0.680   2.525 -0.2468  0.6455  1.6534
  119MOL0     H16013   8.553   0.504   2.541 -2.6475  0.4563 -4.4922
  119MOL0     H16014   8.427   0.722   2.729  2.8018  2.5324 -2.4483
  119MOL0     H16015   8.419   0.545   2.761  3.0329 -3.1231  0.6613
  119MOL0     H16016   8.645   0.855   2.753  4.6924  1.7441  1.6194
  119MOL0     H16017   8.941   0.888   2.775 -2.8582  1.4429  1.4121
  119MOL0     H16018   8.864   0.900   2.923 -0.1185 -0.1077 -0.1580
  119MOL0     H16019   9.017   0.727   3.022 -2.8932  0.3869  0.6284
  119MOL0     H16020   9.083   0.685   2.877 -0.3434 -0.0117 -0.1370
  119MOL0     H16021   9.072   0.962   2.999 -0.3920 -0.5339 -0.1893
  119MOL0     H16022   9.147   0.936   2.845 -0.0377 -0.5597 -0.9128
  119MOL0     H16023   9.325   0.782   2.949  3.4857  5.1056 -2.0629
  119MOL0     H16024   9.237   0.793   3.101 -2.7342 -3.5597 -2.6480
  119MOL0     H16025   9.491   0.777   3.137 -0.6067  1.3839 -1.6024
  119MOL0     H16026   9.731   0.794   3.164 -3.0436  0.0393  2.5386
  119MOL0     H16027  10.157   0.953   2.989  0.2218 -1.7797  0.5426
  119MOL0     H16028  10.395   0.924   3.048 -2.2678  3.0995 -1.0921
  119MOL0     H16029  10.532   0.999   3.421  2.0317 -0.6141 -3.3493
  119MOL0     H16030  10.482   0.839   3.487 -1.0620  0.1495  0.1885
  119MOL0     H16031  10.697   0.749   3.445 -0.1448  0.8051  0.5249
  119MOL0     H16032  10.728   0.860   3.309 -2.2310  1.6218 -1.1418
  119MOL0     H16033  10.872   0.909   3.493  0.5483 -0.1200  0.2452
  119MOL0     H16034  10.754   1.043   3.487  2.5797  0.5629  1.7316
  119MOL0     H16035  10.734   0.821   3.692  2.5778  0.5085  1.3643
  119MOL0     H16036  10.643   0.977   3.682  0.1528  0.5114 -1.3356
  119MOL0     H16037  10.852   1.112   3.716  0.1420  1.3147  1.0453
  119MOL0     H16038  10.937   0.964   3.742  0.7076  2.3810  0.5152
  119MOL0     H16039  10.682   1.072   3.892  0.8733 -0.1371  1.9639
  119MOL0     H16040  10.762   0.913   3.921  0.8238 -0.6339  0.5909
  119MOL0     H16041  10.835   1.091   4.096  0.9984  0.6012  1.8339
  119MOL0     H16042  10.887   1.186   3.968 -0.1873 -0.2511  2.1808
  119MOL0     H16043  11.072   1.010   3.912  0.3410  3.4606 -0.6289
  119MOL0     H16044  11.067   1.090   4.072  0.2723 -2.5973  2.4801
  119MOL0     H16045  10.282   0.809   3.446 -1.3285  0.1937 -0.1392
  119MOL0     H16046  10.041   0.856   3.375 -0.8214 -0.9294 -0.6328
  119MOL0     H16047   9.721   1.169   2.946  0.5554 -1.1263  0.7975
  119MOL0     H16048   9.478   1.142   2.927 -1.5116 -0.0462  1.1466
  119MOL0     H16049   7.616   0.961   2.271  0.7042  1.6832  2.0893
  119MOL0     H16050   7.540   1.198   2.206 -0.9393 -0.2835 -1.9848
  119MOL0     H16051   7.774   1.702   1.916  0.7694 -2.2667 -0.3614
  119MOL0     H16052   7.627   1.878   1.853  1.7362 -1.4247  2.6394
  119MOL0     H16053   7.207   1.868   1.955  0.1008 -2.2045 -0.4019
  119MOL0     H16054   7.190   1.804   1.787  0.7044  1.2576 -2.2993
  119MOL0     H16055   7.206   2.045   1.711 -4.0168 -0.6501 -0.6125
  119MOL0     H16056   7.191   2.102   1.882 -1.5166  1.0553 -0.3739
  119MOL0     H16057   6.962   2.039   1.891 -1.2661  1.4852 -2.1662
  119MOL0     H16058   6.981   1.933   1.752  1.1598 -0.9454 -0.2777
  119MOL0     H16059   6.864   2.138   1.686 -0.4120  0.1435  0.3862
  119MOL0     H16060   7.014   2.227   1.720 -0.5872 -1.0958  1.0137
  119MOL0     H16061   7.053   2.061   1.338 -0.8656 -1.6679 -0.0963
  119MOL0     H16062   7.274   1.657   1.924  0.6316 -2.2412  1.5782
  119MOL0     H16063   7.437   1.342   1.947  0.7355 -1.0064  1.2398
  119MOL0     H16064   7.417   1.400   2.112  0.2108 -1.0101 -0.9784
  119MOL0     H16065   7.290   1.429   1.989  0.5842 -0.1875 -2.5352
  120MOL0     O16066   0.269   3.321   9.323 -0.2865 -0.5196  0.1508
  120MOL0     C16067   0.200   3.268   9.237  0.8503 -0.3697  0.7403
  120MOL0     O16068   0.242   3.227   9.114 -0.5006 -0.1024 -0.1078
  120MOL0     C16069   0.365   3.254   9.077  0.1887 -0.6878  0.3161
  120MOL0     C16070   0.444   3.146   9.045 -0.2718 -0.3335  1.1253
  120MOL0     C16071   0.576   3.178   8.999  0.0414  0.3261 -0.0193
  120MOL0     C16072   0.630   3.309   9.004 -0.5954 -0.6108 -0.4825
  120MOL0     O16073   0.760   3.335   8.964 -0.5291  0.2579  0.6111
  120MOL0     C16074   0.859   3.232   8.985 -0.5585  0.5246  0.3709
  120MOL0     C16075   0.986   3.304   8.992  0.1847 -0.4549  0.3817
  120MOL0     C16076   1.102   3.211   9.002  0.2745 -0.1999  0.5156
  120MOL0     C16077   1.225   3.291   9.019 -0.5665  0.0748 -0.2848
  120MOL0     C16078   1.354   3.201   9.040  0.5953 -0.5654  0.7861
  120MOL0     C16079   1.462   3.268   9.131  0.7483  0.6544 -0.5714
  120MOL0     C16080   1.581   3.171   9.139 -0.7614  0.1174  0.4552
  120MOL0     C16081   1.646   3.176   9.276  0.0982 -0.2506 -0.3259
  120MOL0     N16082   1.767   3.094   9.266  0.3339 -0.2353  0.4541
  120MOL0     C16083   1.888   3.115   9.337 -0.0204  0.3159 -0.0232
  120MOL0     C16084   1.961   3.006   9.311 -0.7145 -0.8949  0.5390
  120MOL0     C16085   2.102   3.000   9.357  0.5658  0.1822 -0.9703
  120MOL0     C16086   2.200   2.983   9.237  0.6533 -0.2389  0.0769
  120MOL0     C16087   2.351   2.968   9.259 -0.3397  0.3765 -0.3012
  120MOL0     C16088   2.431   2.976   9.135  0.6227  0.6094  0.7626
  120MOL0     O16089   2.565   2.930   9.154 -0.4369  0.2791 -0.4984
  120MOL0     C16090   2.651   2.912   9.045  0.5724  0.2462 -0.4420
  120MOL0     C16091   2.619   2.947   8.915 -0.8485 -0.5533 -0.6214
  120MOL0     C16092   2.715   2.933   8.810 -0.1553  0.4329  0.2275
  120MOL0     C16093   2.840   2.871   8.838 -0.5888 -0.7489  0.6072
  120MOL0     C16094   2.944   2.854   8.734 -0.4231  0.1066 -0.8008
  120MOL0     O16095   3.069   2.802   8.775  0.3592  0.0692  0.1166
  120MOL0     C16096   3.180   2.800   8.693  0.2998 -0.2957  0.2466
  120MOL0     C16097   3.200   2.707   8.593 -0.0657  0.4924  0.2696
  120MOL0     C16098   3.320   2.696   8.517  1.3584  0.1923  0.1337
  120MOL0     C16099   3.420   2.787   8.541 -0.2010  0.2330 -0.8931
  120MOL0     O16100   3.530   2.777   8.459 -0.3770  0.1879 -0.0560
  120MOL0     C16101   3.647   2.863   8.462  0.2393 -0.7550 -0.6204
  120MOL0     C16102   3.759   2.806   8.544  0.0803  0.3770 -0.2067
  120MOL0     C16103   3.897   2.844   8.496 -0.6187 -1.0179 -0.0688
  120MOL0     C16104   3.997   2.772   8.591 -0.2975  0.5762  0.3441
  120MOL0     C16105   4.139   2.779   8.537  0.7123 -0.5975 -0.2505
  120MOL0     C16106   4.200   2.923   8.535  0.6556  0.3400 -0.2915
  120MOL0     C16107   4.325   2.936   8.444 -0.3965 -0.3414 -0.8711
  120MOL0     C16108   4.451   2.883   8.500 -0.4543 -0.0845  0.1251
  120MOL0    Cl16109   4.565   2.867   8.363 -0.1643 -0.0012 -0.3962
  120MOL0     C16110   3.404   2.891   8.636 -0.7088  0.2962  0.5883
  120MOL0     C16111   3.284   2.902   8.705 -0.3867  0.0710 -0.1904
  120MOL0     O16112   2.912   2.875   8.619 -0.5406  0.2208  0.0074
  120MOL0     C16113   2.871   2.834   8.969 -0.2739  0.6824 -0.0894
  120MOL0     C16114   2.775   2.854   9.068  1.1569  0.0961  0.0361
  120MOL0     N16115   1.883   2.916   9.246 -0.1541  0.5066  0.2552
  120MOL0     N16116   1.767   2.963   9.233  0.6419 -0.7441  0.2233
  120MOL0     C16117   0.553   3.413   9.044  0.0352  0.3650 -0.0903
  120MOL0     C16118   0.410   3.388   9.070  1.1497 -0.3312 -0.6379
  120MOL0     C16119   0.059   3.237   9.258  0.7799  0.0785 -0.5953
  120MOL0     C16120  -0.038   3.295   9.176 -0.9807  0.4114 -0.5288
  120MOL0     C16121  -0.173   3.273   9.192 -0.8120  0.0724  0.1798
  120MOL0     C16122  -0.213   3.188   9.300 -0.3509 -0.3844  0.2628
  120MOL0     O16123  -0.345   3.157   9.322  0.3706 -0.3318  0.0751
  120MOL0     C16124  -0.453   3.213   9.251 -0.1037  0.3254  0.9703
  120MOL0     C16125  -0.590   3.171   9.309 -0.2843  0.1240  0.6452
  120MOL0     C16126  -0.628   3.035   9.263  0.2779  0.0007 -0.0061
  120MOL0     C16127  -0.765   2.995   9.323 -0.0325  0.6710 -0.0456
  120MOL0     C16128  -0.871   3.053   9.238 -0.5002 -0.4213 -0.3559
  120MOL0     C16129  -0.954   3.103   9.169 -0.4159  0.1126 -0.1489
  120MOL0     C16130  -0.113   3.131   9.385  0.4857 -0.4264 -1.0797
  120MOL0     C16131   0.018   3.148   9.362 -0.1353 -0.4785  0.3425
  120MOL0     C16132   0.126   3.076   9.442 -0.0081 -0.1824 -0.2128
  120MOL0     H16133   0.418   3.042   9.065 -0.2328 -0.6472 -0.3588
  120MOL0     H16134   0.645   3.096   8.982 -0.1703 -0.2900  1.8588
  120MOL0     H16135   0.836   3.179   9.079 -2.2794  2.5124  1.1562
  120MOL0     H16136   0.868   3.161   8.903  2.0403  2.8100 -1.4708
  120MOL0     H16137   0.985   3.369   9.081  0.5605 -0.2318  0.2231
  120MOL0     H16138   1.002   3.369   8.906  1.9038 -0.8089  0.4050
  120MOL0     H16139   1.099   3.143   8.917 -0.5879  0.6031 -0.1273
  120MOL0     H16140   1.086   3.145   9.087  1.7572 -0.6394  0.4661
  120MOL0     H16141   1.240   3.349   8.928 -0.6677  0.9478  0.2468
  120MOL0     H16142   1.205   3.343   9.113 -1.8932 -0.0360 -0.4989
  120MOL0     H16143   1.315   3.108   9.082  1.3752 -1.2587  0.0104
  120MOL0     H16144   1.402   3.179   8.944 -1.7105  3.8798 -1.7210
  120MOL0     H16145   1.492   3.365   9.092 -1.3265  1.8757  0.6402
  120MOL0     H16146   1.406   3.286   9.224 -0.8995  0.5054 -1.4889
  120MOL0     H16147   1.655   3.196   9.062 -0.4489 -0.2626  0.6291
  120MOL0     H16148   1.540   3.070   9.142  0.8315 -0.8160 -3.2398
  120MOL0     H16149   1.681   3.278   9.296  2.2881 -0.5646 -2.1056
  120MOL0     H16150   1.580   3.139   9.355  0.5813  1.5083  0.9669
  120MOL0     H16151   1.914   3.206   9.390 -2.2435  0.8085  0.3231
  120MOL0     H16152   2.130   3.088   9.415  2.0069 -0.9262  0.1123
  120MOL0     H16153   2.100   2.934   9.444 -0.3052  0.4579 -0.7688
  120MOL0     H16154   2.165   2.903   9.171  1.2357  0.6449 -1.3634
  120MOL0     H16155   2.183   3.074   9.180 -0.9216  0.0946  1.0018
  120MOL0     H16156   2.364   2.867   9.299  0.1710  1.0571  1.3358
  120MOL0     H16157   2.390   3.044   9.329  1.5112 -0.3809 -0.4604
  120MOL0     H16158   2.429   3.080   9.102 -2.0485 -0.1144 -1.8325
  120MOL0     H16159   2.373   2.918   9.063  0.0815 -1.4118  2.7007
  120MOL0     H16160   2.521   2.983   8.887  0.3477  1.1525 -3.0197
  120MOL0     H16161   2.696   2.969   8.710  1.3898 -0.5450 -0.4453
  120MOL0     H16162   3.114   2.645   8.570 -0.9555  1.7078  0.2665
  120MOL0     H16163   3.326   2.622   8.438 -1.0520  1.7405 -1.6330
  120MOL0     H16164   3.678   2.858   8.357 -1.0111  1.1104 -1.1197
  120MOL0     H16165   3.617   2.965   8.486 -2.7206 -0.6627 -3.9496
  120MOL0     H16166   3.733   2.827   8.648 -1.4201 -0.8226 -0.3010
  120MOL0     H16167   3.757   2.698   8.533  1.3651  0.4460 -1.3641
  120MOL0     H16168   3.920   2.813   8.394  0.1646  1.0826 -0.5796
  120MOL0     H16169   3.919   2.951   8.504  1.1154 -1.4295  0.9920
  120MOL0     H16170   3.973   2.666   8.592  0.2785  0.4175 -1.0822
  120MOL0     H16171   3.997   2.811   8.694  0.9131 -0.8114  0.9008
  120MOL0     H16172   4.129   2.737   8.436 -2.3366 -0.1012 -0.2454
  120MOL0     H16173   4.208   2.720   8.598 -1.4612 -1.1796  1.8090
  120MOL0     H16174   4.125   2.994   8.497 -0.8101 -1.2038 -0.3912
  120MOL0     H16175   4.231   2.954   8.635 -1.2370  0.7891  0.1940
  120MOL0     H16176   4.337   3.042   8.420  0.0050 -0.6036 -1.9017
  120MOL0     H16177   4.300   2.884   8.350  0.3147 -1.3289 -0.5332
  120MOL0     H16178   4.496   2.959   8.565  0.0348  1.6935 -2.1898
  120MOL0     H16179   4.448   2.781   8.541  1.7969 -0.8075 -1.2947
  120MOL0     H16180   3.479   2.969   8.647  0.2514 -0.2612 -1.4801
  120MOL0     H16181   3.263   2.980   8.778  2.3926  0.6832  0.0524
  120MOL0     H16182   2.956   2.773   9.000 -1.5485 -0.9748  0.2546
  120MOL0     H16183   2.791   2.825   9.172 -2.6579 -1.6908  0.3042
  120MOL0     H16184   0.601   3.510   9.048  1.0855 -0.1856  2.5317
  120MOL0     H16185   0.349   3.474   9.090  0.9691 -0.2605 -1.4471
  120MOL0     H16186   0.003   3.366   9.106 -2.1884  1.0228 -0.6469
  120MOL0     H16187  -0.245   3.320   9.126 -0.2066 -1.4532 -1.6615
  120MOL0     H16188  -0.450   3.186   9.146  4.4522  1.1330  0.6803
  120MOL0     H16189  -0.440   3.322   9.257 -0.1796  0.6690 -2.8883
  120MOL0     H16190  -0.670   3.242   9.286 -0.5230 -0.2705  0.2418
  120MOL0     H16191  -0.582   3.179   9.418 -4.5363  3.4161  0.9795
  120MOL0     H16192  -0.544   2.970   9.290 -1.1224 -2.6470 -1.6045
  120MOL0     H16193  -0.635   3.034   9.154 -1.8630  1.8669  0.0308
  120MOL0     H16194  -0.786   2.888   9.314  0.6341  0.5750 -0.5334
  120MOL0     H16195  -0.776   3.037   9.423  2.0846  2.3314 -0.4284
  120MOL0     H16196  -1.027   3.153   9.108  0.5898 -0.2882 -1.7341
  120MOL0     H16197  -0.140   3.065   9.467  1.8461 -0.5055 -0.6813
  120MOL0     H16198   0.091   3.003   9.515  1.7184  1.7844  2.8132
  120MOL0     H16199   0.195   3.036   9.367  0.0971  3.1100 -2.1128
  120MOL0     H16200   0.177   3.153   9.500 -2.5738  0.0508  1.9126
  121MOL0     O16201   4.473   1.836   1.346  0.1534  1.0325  0.2633
  121MOL0     C16202   4.407   1.941   1.358 -0.8009  0.0638 -0.5135
  121MOL0     O16203   4.449   2.072   1.319  0.2396  0.0272 -1.0181
  121MOL0     C16204   4.578   2.092   1.259  0.6664 -0.1038 -0.2932
  121MOL0     C16205   4.699   2.038   1.315  0.7074  0.6346  0.1529
  121MOL0     C16206   4.814   2.053   1.249 -0.9595 -0.2958 -0.3821
  121MOL0     C16207   4.833   2.138   1.137  0.6515  0.6607 -1.1910
  121MOL0     O16208   4.951   2.143   1.069 -0.1002 -0.6144 -0.1963
  121MOL0     C16209   5.019   2.259   1.127 -0.0540 -0.1564  0.6515
  121MOL0     C16210   5.166   2.218   1.107  0.0680 -0.5775 -0.3452
  121MOL0     C16211   5.266   2.335   1.146  0.0231 -0.1911  0.1007
  121MOL0     C16212   5.395   2.273   1.181  0.0296  0.1343 -0.8348
  121MOL0     C16213   5.397   2.228   1.331  0.2504  0.6163 -1.1074
  121MOL0     C16214   5.532   2.239   1.408 -0.5712 -0.3756 -0.7229
  121MOL0     C16215   5.656   2.168   1.334  0.6242  0.5419 -0.3519
  121MOL0     C16216   5.658   2.012   1.337 -0.3927  0.8565 -0.3126
  121MOL0     N16217   5.786   1.945   1.301 -0.4084 -0.1187 -0.8893
  121MOL0     C16218   5.836   1.936   1.179 -0.9330  0.1087  0.1684
  121MOL0     C16219   5.956   1.874   1.196  0.3428 -0.5082  0.2437
  121MOL0     C16220   6.069   1.876   1.105  0.8932 -0.1946  0.9280
  121MOL0     C16221   6.196   1.945   1.158  0.3266  0.1537  0.0881
  121MOL0     C16222   6.278   1.837   1.231 -0.2798 -0.8290  0.0471
  121MOL0     C16223   6.373   1.763   1.135  0.3941 -0.1638 -0.6061
  121MOL0     O16224   6.443   1.663   1.199 -1.0496  0.7425 -0.0633
  121MOL0     C16225   6.565   1.616   1.149  0.0200 -0.2037  0.0452
  121MOL0     C16226   6.672   1.688   1.096  0.4862 -0.1764  0.9533
  121MOL0     C16227   6.791   1.633   1.048 -0.3000  0.4591  0.9029
  121MOL0     C16228   6.813   1.501   1.066  0.4369  1.0017  1.0619
  121MOL0     C16229   6.947   1.433   1.039  0.7612  0.0082 -1.2320
  121MOL0     O16230   6.999   1.345   1.133  0.4750 -0.1506  0.1494
  121MOL0     C16231   7.128   1.311   1.115 -0.2350 -0.4757 -0.2856
  121MOL0     C16232   7.216   1.333   1.220  0.4145  0.1351 -0.1607
  121MOL0     C16233   7.342   1.282   1.209 -0.5178 -0.1871  0.4072
  121MOL0     C16234   7.390   1.222   1.098 -0.1602 -0.0396  0.0590
  121MOL0     O16235   7.519   1.191   1.094  0.0141  0.5063  0.0479
  121MOL0     C16236   7.575   1.087   1.009 -0.0157  0.5521 -0.4031
  121MOL0     C16237   7.642   1.136   0.884 -0.4148 -0.1099  0.5011
  121MOL0     C16238   7.699   1.009   0.810 -0.2880  0.2002  0.0572
  121MOL0     C16239   7.830   1.050   0.739  0.1834 -0.2691 -0.0068
  121MOL0     C16240   7.917   0.932   0.718  0.3640  0.2195  0.0998
  121MOL0     C16241   8.049   0.978   0.657  0.3904 -0.0439  0.0222
  121MOL0     C16242   8.123   0.853   0.616 -0.4295  1.0057  0.6406
  121MOL0     C16243   8.268   0.896   0.576 -0.5272  0.0262  0.1598
  121MOL0    Cl16244   8.362   0.913   0.718 -0.2036  0.0780  0.0947
  121MOL0     C16245   7.306   1.207   0.986  0.3442  0.3627  0.4995
  121MOL0     C16246   7.179   1.253   0.996 -0.1670 -0.8832 -0.2026
  121MOL0     O16247   7.001   1.477   0.935  0.6002 -0.3478  0.1251
  121MOL0     C16248   6.706   1.423   1.110  0.2636  0.1677 -0.7463
  121MOL0     C16249   6.585   1.479   1.159 -0.6053 -0.6842  0.8857
  121MOL0     N16250   5.958   1.834   1.328 -0.3403  0.2100  1.2024
  121MOL0     N16251   5.863   1.882   1.396  0.1738  0.2895 -0.0493
  121MOL0     C16252   4.714   2.183   1.081  0.3970 -0.4340  0.2004
  121MOL0     C16253   4.586   2.161   1.140 -0.6876 -0.5322  0.5187
  121MOL0     C16254   4.267   1.929   1.393 -0.0701 -0.0924 -0.0662
  121MOL0     C16255   4.223   1.862   1.511 -0.1045  0.0157 -0.2639
  121MOL0     C16256   4.094   1.861   1.553  0.4001  0.1326  0.3111
  121MOL0     C16257   3.995   1.915   1.481 -0.5597 -0.6383  0.1599
  121MOL0     O16258   3.866   1.931   1.528 -0.1839 -0.8272  0.5965
  121MOL0     C16259   3.788   1.809   1.541  0.0347 -1.0082 -0.1528
  121MOL0     C16260   3.754   1.772   1.689 -0.0206  0.3202  0.2649
  121MOL0     C16261   3.674   1.639   1.713  0.2858 -0.1910 -0.4270
  121MOL0     C16262   3.626   1.625   1.861  0.6257 -0.2203  0.3341
  121MOL0     C16263   3.513   1.523   1.862 -0.9594  0.1648 -0.1370
  121MOL0     C16264   3.426   1.438   1.859  0.0348 -0.9583  0.0585
  121MOL0     C16265   4.029   1.973   1.358 -0.0531 -0.3207  0.2175
  121MOL0     C16266   4.164   1.981   1.311 -0.5458  0.2218  0.0924
  121MOL0     C16267   4.203   2.038   1.178  0.3402  0.6046  0.8476
  121MOL0     H16268   4.685   1.970   1.398 -1.5397 -0.7712 -1.2414
  121MOL0     H16269   4.901   2.003   1.293  0.8120  0.8488 -2.3978
  121MOL0     H16270   5.002   2.348   1.065  1.7097  0.6331  1.2367
  121MOL0     H16271   5.006   2.282   1.233 -0.4314  0.2287  0.5257
  121MOL0     H16272   5.183   2.183   1.004 -0.0405  0.1459 -0.6148
  121MOL0     H16273   5.187   2.138   1.177  2.4025 -0.3882 -0.7574
  121MOL0     H16274   5.221   2.386   1.232  0.9286  1.3747 -0.3157
  121MOL0     H16275   5.279   2.398   1.058  2.3628  1.5775  1.6009
  121MOL0     H16276   5.407   2.185   1.118  1.2763 -0.5343  0.3056
  121MOL0     H16277   5.466   2.356   1.168  1.2785  0.3663  4.8258
  121MOL0     H16278   5.321   2.274   1.394 -2.3751 -0.8526 -2.9789
  121MOL0     H16279   5.362   2.124   1.327  1.5718  0.1016 -0.0250
  121MOL0     H16280   5.552   2.346   1.406  0.8396 -0.2307  4.8386
  121MOL0     H16281   5.513   2.200   1.509  0.0240  0.0953 -0.4297
  121MOL0     H16282   5.749   2.202   1.381  1.2569 -0.6061 -0.7217
  121MOL0     H16283   5.656   2.197   1.229 -1.6608  2.3773  0.0664
  121MOL0     H16284   5.625   1.980   1.436 -3.0684 -0.3264 -1.4800
  121MOL0     H16285   5.584   1.982   1.261  0.0992  1.3531 -1.0003
  121MOL0     H16286   5.805   1.996   1.094 -1.0464  0.9008  0.7560
  121MOL0     H16287   6.081   1.775   1.065 -0.0454 -0.7857  2.0642
  121MOL0     H16288   6.028   1.941   1.028 -1.4992 -0.2207  2.1033
  121MOL0     H16289   6.263   1.992   1.085  0.1613  2.6083  1.3862
  121MOL0     H16290   6.169   2.027   1.226  1.3099  1.3447 -0.8907
  121MOL0     H16291   6.208   1.761   1.267  1.0512 -2.4796 -0.6984
  121MOL0     H16292   6.342   1.876   1.311  0.6832 -1.9100 -0.1691
  121MOL0     H16293   6.447   1.833   1.095 -1.4262  2.6468  0.6037
  121MOL0     H16294   6.306   1.718   1.061 -0.9487 -0.0641  0.5076
  121MOL0     H16295   6.664   1.796   1.085 -0.1005 -0.4623 -2.9344
  121MOL0     H16296   6.874   1.697   1.022  0.2237  0.1260  1.6938
  121MOL0     H16297   7.165   1.362   1.312 -0.6518 -0.1899 -0.6282
  121MOL0     H16298   7.412   1.287   1.292 -1.0608  0.1166  0.8554
  121MOL0     H16299   7.653   1.032   1.063 -1.3467 -1.6110 -0.5144
  121MOL0     H16300   7.495   1.015   0.989  0.5149  0.3318 -1.8214
  121MOL0     H16301   7.564   1.182   0.821 -2.5684 -1.5390  1.9892
  121MOL0     H16302   7.721   1.205   0.916 -1.5439  0.0234  3.2454
  121MOL0     H16303   7.715   0.926   0.879  0.7295 -0.6286 -1.1324
  121MOL0     H16304   7.641   0.952   0.736  0.7412 -2.1114  0.9437
  121MOL0     H16305   7.888   1.124   0.795 -1.3776  1.2964 -0.3841
  121MOL0     H16306   7.813   1.098   0.643  0.6784  0.3350  0.1967
  121MOL0     H16307   7.860   0.867   0.652 -0.5540  1.1479 -0.0511
  121MOL0     H16308   7.935   0.883   0.814  2.0833 -1.7139 -1.1322
  121MOL0     H16309   8.036   1.050   0.575 -2.1136 -0.3959  0.0536
  121MOL0     H16310   8.098   1.035   0.736 -0.2182  0.5291 -0.0094
  121MOL0     H16311   8.069   0.811   0.530 -1.3910  0.0228  1.6851
  121MOL0     H16312   8.125   0.774   0.692  1.7112  0.9411  0.5862
  121MOL0     H16313   8.315   0.818   0.514 -0.1047  1.2839 -1.1514
  121MOL0     H16314   8.265   0.978   0.504  2.0471 -2.0617 -2.5781
  121MOL0     H16315   7.340   1.168   0.890 -0.9739 -0.4076  0.3180
  121MOL0     H16316   7.114   1.245   0.910 -0.3349 -0.1959 -0.1454
  121MOL0     H16317   6.729   1.318   1.121  0.7255  0.3284 -0.1341
  121MOL0     H16318   6.503   1.415   1.189 -1.6209  0.2363  0.1639
  121MOL0     H16319   4.719   2.235   0.986 -3.6765 -1.1167 -0.5844
  121MOL0     H16320   4.498   2.200   1.090 -0.7883  0.4083  1.4017
  121MOL0     H16321   4.302   1.823   1.576  0.8303  0.8598 -0.8652
  121MOL0     H16322   4.060   1.823   1.648 -1.7663  0.8591 -0.1103
  121MOL0     H16323   3.840   1.720   1.505 -0.5673 -1.4963  0.1738
  121MOL0     H16324   3.695   1.813   1.483 -0.0500 -1.6633 -0.0689
  121MOL0     H16325   3.697   1.859   1.723  0.3263 -0.4494  3.1253
  121MOL0     H16326   3.844   1.765   1.750 -0.2172  2.9228  0.9723
  121MOL0     H16327   3.737   1.554   1.684  0.4753  0.1589 -1.0761
  121MOL0     H16328   3.588   1.627   1.647 -0.1375 -2.1928  0.4081
  121MOL0     H16329   3.715   1.605   1.922  0.6382 -0.4065  0.2530
  121MOL0     H16330   3.590   1.722   1.898  0.4432 -0.1571 -0.0104
  121MOL0     H16331   3.348   1.363   1.858 -1.4317  0.5096  0.2851
  121MOL0     H16332   3.952   2.012   1.292  0.2124 -0.4147 -0.1506
  121MOL0     H16333   4.149   1.981   1.101  1.9392 -0.7450  0.6855
  121MOL0     H16334   4.193   2.147   1.174  0.5394  0.7021  2.3879
  121MOL0     H16335   4.300   2.018   1.133  0.1371  0.2308  0.5682
  122MOL0     O16336   6.645  11.292   9.102 -0.6676 -0.0305  0.1231
  122MOL0     C16337   6.576  11.253   9.005 -0.4905  0.4777  0.2567
  122MOL0     O16338   6.628  11.193   8.901 -0.5869 -0.2016  0.1571
  122MOL0     C16339   6.760  11.195   8.869 -0.9268  0.5774 -0.2528
  122MOL0     C16340   6.854  11.296   8.903 -0.1677  0.4847  0.4651
  122MOL0     C16341   6.986  11.288   8.865  0.4074 -0.8498  0.3928
  122MOL0     C16342   7.031  11.177   8.791 -0.7011 -0.4587 -0.1307
  122MOL0     O16343   7.162  11.164   8.747 -0.6081  0.1200  0.3291
  122MOL0     C16344   7.211  11.289   8.690 -0.4102  0.3407  1.1789
  122MOL0     C16345   7.356  11.275   8.626  0.9512 -0.5431 -0.7484
  122MOL0     C16346   7.460  11.333   8.720  0.8229 -0.0205  0.6692
  122MOL0     C16347   7.600  11.339   8.647  0.5308 -0.3713 -0.4460
  122MOL0     C16348   7.685  11.454   8.712 -0.2355 -0.1012 -0.3990
  122MOL0     C16349   7.828  11.454   8.672  0.8086 -0.2045  0.0172
  122MOL0     C16350   7.906  11.574   8.722 -0.0214 -0.0880  0.1766
  122MOL0     C16351   8.062  11.541   8.726 -0.4190 -0.3030  0.1176
  122MOL0     N16352   8.144  11.664   8.728  0.2228  0.4083 -0.4697
  122MOL0     C16353   8.165  11.746   8.841 -0.1807  0.8088  0.3308
  122MOL0     C16354   8.211  11.863   8.784  0.3293  0.0927 -0.1409
  122MOL0     C16355   8.248  11.998   8.858 -0.1373 -0.3004  0.9835
  122MOL0     C16356   8.398  11.982   8.916  0.7045 -0.7326  0.6074
  122MOL0     C16357   8.492  12.051   8.815 -0.4554  0.6080  0.3558
  122MOL0     C16358   8.636  12.087   8.882 -0.2484  0.7998 -0.3318
  122MOL0     O16359   8.694  11.967   8.939 -0.2814  0.1768  0.4182
  122MOL0     C16360   8.831  11.967   8.963 -1.0814  0.0041  0.9215
  122MOL0     C16361   8.879  11.877   9.064 -0.0401 -0.5016 -0.8532
  122MOL0     C16362   9.007  11.892   9.114  0.5574 -0.1913 -0.0744
  122MOL0     C16363   9.097  11.982   9.065 -0.0471  0.4609  0.2138
  122MOL0     C16364   9.239  11.975   9.103  0.4518  0.0964 -0.2265
  122MOL0     O16365   9.289  11.855   9.147 -0.3035 -0.5275  0.1481
  122MOL0     C16366   9.424  11.855   9.190 -0.0575 -0.6490 -0.3434
  122MOL0     C16367   9.447  11.892   9.325 -0.5491 -0.4284  0.5783
  122MOL0     C16368   9.578  11.919   9.371 -0.5137 -0.6446  0.2173
  122MOL0     C16369   9.683  11.895   9.286 -0.4871 -0.5407 -0.1047
  122MOL0     O16370   9.816  11.922   9.322  0.3108 -0.2178  0.5123
  122MOL0     C16371   9.918  11.831   9.270 -0.1174 -1.0006  0.6310
  122MOL0     C16372  10.041  11.862   9.360 -0.0839  0.5048  0.7978
  122MOL0     C16373  10.163  11.778   9.299 -0.4481  0.4438  0.1054
  122MOL0     C16374  10.288  11.793   9.378  0.0134 -0.0557  0.0906
  122MOL0     C16375  10.404  11.720   9.319 -0.1843 -0.6723  0.2898
  122MOL0     C16376  10.513  11.669   9.418  0.1368  0.5911 -0.3589
  122MOL0     C16377  10.603  11.554   9.354 -0.1009 -0.0560 -0.4103
  122MOL0     C16378  10.748  11.543   9.419  0.3909 -1.0226 -0.5624
  122MOL0    Cl16379  10.835  11.403   9.389 -0.5484  0.4552 -0.3077
  122MOL0     C16380   9.657  11.842   9.161  0.2207  0.0601  0.3934
  122MOL0     C16381   9.533  11.823   9.115  0.4814  0.2495  0.1022
  122MOL0     O16382   9.308  12.078   9.083  0.1812 -0.2211  0.8303
  122MOL0     C16383   9.062  12.060   8.958 -0.7902 -0.1268  0.0573
  122MOL0     C16384   8.932  12.050   8.905 -0.6230  0.0593  0.2561
  122MOL0     N16385   8.218  11.847   8.645 -0.6345  0.5402 -0.5651
  122MOL0     N16386   8.183  11.726   8.616 -0.5832  0.0709  0.1150
  122MOL0     C16387   6.949  11.071   8.761  0.1229 -0.2151 -0.0097
  122MOL0     C16388   6.811  11.084   8.802 -0.8504  0.0519 -0.4191
  122MOL0     C16389   6.423  11.266   9.006  0.2356  0.6075 -0.7737
  122MOL0     C16390   6.350  11.173   8.933 -0.1710  0.2708 -0.2373
  122MOL0     C16391   6.215  11.187   8.913 -0.1207  0.7718 -0.3000
  122MOL0     C16392   6.141  11.284   8.979  0.0287  0.5014 -0.4291
  122MOL0     O16393   6.001  11.267   8.968  0.3214  0.0340 -0.1447
  122MOL0     C16394   5.917  11.387   8.989  0.9435  0.0761  0.4940
  122MOL0     C16395   5.799  11.390   8.901  0.1212  0.8377  1.2079
  122MOL0     C16396   5.708  11.254   8.918 -0.1476 -0.2477  0.1951
  122MOL0     C16397   5.585  11.254   8.826 -0.0281  0.1212  0.4924
  122MOL0     C16398   5.512  11.125   8.845 -0.9302 -0.2485 -0.2439
  122MOL0     C16399   5.460  11.020   8.868  0.1078  0.3337 -1.0377
  122MOL0     C16400   6.210  11.376   9.057  0.6837  0.2048  0.1154
  122MOL0     C16401   6.351  11.366   9.076  0.2412 -0.8264 -0.0242
  122MOL0     C16402   6.412  11.471   9.165 -0.2861 -0.4313  0.3741
  122MOL0     H16403   6.817  11.386   8.951 -2.2519 -0.8452  1.4624
  122MOL0     H16404   7.049  11.371   8.895 -0.4559  0.0856 -0.2976
  122MOL0     H16405   7.142  11.314   8.609 -1.9630 -0.8814  2.0749
  122MOL0     H16406   7.225  11.373   8.759  0.9539  0.3134  0.9680
  122MOL0     H16407   7.361  11.340   8.537 -0.7494  1.5233  0.5430
  122MOL0     H16408   7.378  11.170   8.606 -1.7674 -1.3401 -0.0362
  122MOL0     H16409   7.463  11.278   8.814  1.9112 -0.4976  0.3768
  122MOL0     H16410   7.425  11.430   8.756  0.7772  0.0182  0.5222
  122MOL0     H16411   7.655  11.246   8.660 -2.3347 -2.0552  0.5094
  122MOL0     H16412   7.600  11.346   8.537 -2.7627 -2.0463 -0.6721
  122MOL0     H16413   7.644  11.553   8.688 -1.4514  0.0839  2.0695
  122MOL0     H16414   7.692  11.447   8.821  0.6558 -0.4491 -0.4701
  122MOL0     H16415   7.881  11.361   8.697  2.0050 -0.0113 -1.6477
  122MOL0     H16416   7.824  11.458   8.563 -2.1980  1.2741  0.0918
  122MOL0     H16417   7.872  11.600   8.823 -3.4629 -0.8983 -0.6196
  122MOL0     H16418   7.886  11.656   8.653 -0.8409  0.0255  0.5297
  122MOL0     H16419   8.083  11.479   8.813  0.7937 -1.7209 -1.1345
  122MOL0     H16420   8.086  11.476   8.641 -0.2996  2.9661 -2.5987
  122MOL0     H16421   8.142  11.721   8.944 -0.5629  0.1302  0.0846
  122MOL0     H16422   8.251  12.084   8.791 -0.4183 -1.7185 -0.9501
  122MOL0     H16423   8.178  12.023   8.937  1.0023 -0.4231  2.0694
  122MOL0     H16424   8.406  12.037   9.010 -0.0690  0.1698  0.1708
  122MOL0     H16425   8.424  11.878   8.937 -0.2992 -1.0684  0.2539
  122MOL0     H16426   8.450  12.145   8.779  2.0282  1.4486 -0.5379
  122MOL0     H16427   8.512  11.996   8.723  0.0535  0.9375  0.2679
  122MOL0     H16428   8.614  12.152   8.967 -2.4344 -0.6704  0.3048
  122MOL0     H16429   8.702  12.142   8.813 -0.2026  0.2969 -0.6976
  122MOL0     H16430   8.817  11.805   9.116  1.9593  0.6548  3.5945
  122MOL0     H16431   9.038  11.836   9.202  1.0762  2.1320  1.2946
  122MOL0     H16432   9.359  11.911   9.386 -0.0512 -0.8879  1.4680
  122MOL0     H16433   9.598  11.953   9.472 -0.6816  0.2492 -0.0431
  122MOL0     H16434   9.880  11.729   9.286 -1.2723 -0.7623 -0.4533
  122MOL0     H16435   9.941  11.856   9.166 -0.3494  0.9025  1.0086
  122MOL0     H16436  10.059  11.970   9.351  1.6442  0.1543 -0.2487
  122MOL0     H16437  10.019  11.828   9.461 -0.3666  0.1784  0.6273
  122MOL0     H16438  10.126  11.675   9.290 -0.9313  0.8246 -3.3755
  122MOL0     H16439  10.177  11.806   9.195  0.2194  0.9676  0.3325
  122MOL0     H16440  10.275  11.753   9.479  0.2996 -2.1500 -0.6626
  122MOL0     H16441  10.319  11.898   9.383  0.3708 -0.1326 -0.4396
  122MOL0     H16442  10.447  11.779   9.238  0.5274 -0.1545  1.0383
  122MOL0     H16443  10.367  11.626   9.276 -0.5696 -0.9253  1.1654
  122MOL0     H16444  10.584  11.751   9.429  0.7208  0.1501 -0.7777
  122MOL0     H16445  10.468  11.644   9.515  1.4766  1.9135  0.6514
  122MOL0     H16446  10.613  11.558   9.245  1.7927 -1.1084 -0.3248
  122MOL0     H16447  10.561  11.455   9.372  0.3890 -0.5820 -1.9729
  122MOL0     H16448  10.809  11.628   9.386 -1.8707  2.4057  3.2092
  122MOL0     H16449  10.737  11.553   9.527  0.3234  1.9995 -0.7750
  122MOL0     H16450   9.724  11.818   9.079 -1.0211 -2.4140  0.0335
  122MOL0     H16451   9.516  11.777   9.019 -3.2132 -2.0066  1.6220
  122MOL0     H16452   9.126  12.129   8.904 -2.3119  3.0249  1.9862
  122MOL0     H16453   8.911  12.122   8.828  3.0670  0.8868 -0.1890
  122MOL0     H16454   6.982  10.984   8.705 -2.5724 -1.6247  0.3778
  122MOL0     H16455   6.734  11.014   8.772 -2.4408  2.4953 -2.3913
  122MOL0     H16456   6.399  11.102   8.867 -0.3769  2.6142 -3.0993
  122MOL0     H16457   6.163  11.115   8.851 -2.8144  0.0273  2.5694
  122MOL0     H16458   5.981  11.473   8.972  2.4228 -1.6323 -4.0532
  122MOL0     H16459   5.889  11.379   9.095 -1.0647 -0.8654 -0.0624
  122MOL0     H16460   5.825  11.409   8.797  1.0888 -0.2397  1.2364
  122MOL0     H16461   5.740  11.478   8.928  0.8801  2.6163 -2.3342
  122MOL0     H16462   5.676  11.264   9.022 -1.1990  2.2083 -0.2822
  122MOL0     H16463   5.769  11.164   8.907 -2.9901 -3.0019  4.2835
  122MOL0     H16464   5.528  11.344   8.853  1.0767  0.0803  3.3888
  122MOL0     H16465   5.603  11.258   8.718 -1.4636 -2.2790  0.1060
  122MOL0     H16466   5.435  10.919   8.895  1.9123 -0.0261 -0.5529
  122MOL0     H16467   6.159  11.460   9.104  1.0274 -0.7638  2.3338
  122MOL0     H16468   6.464  11.432   9.253  0.4287  1.1776  0.7151
  122MOL0     H16469   6.490  11.525   9.111 -0.2366  3.1228  3.5976
  122MOL0     H16470   6.334  11.544   9.190  0.6493  1.3383 -1.6170
  123MOL0     O16471  11.060  10.018  10.639  0.2623  0.7242  0.0743
  123MOL0     C16472  11.017   9.977  10.530 -0.4185 -0.2379 -0.3115
  123MOL0     O16473  11.086   9.963  10.418  0.0170 -0.3593  0.3258
  123MOL0     C16474  11.219  10.008  10.426 -0.1497  0.4719  0.7447
  123MOL0     C16475  11.253  10.141  10.400 -0.5388  0.7841  0.5670
  123MOL0     C16476  11.387  10.169  10.375  0.1607  0.1198 -0.8818
  123MOL0     C16477  11.486  10.079  10.407 -0.1250 -0.0415 -1.0437
  123MOL0     O16478  11.622  10.119  10.387  0.4028  0.0830 -0.7456
  123MOL0     C16479  11.697  10.107  10.507  0.0167 -0.3871 -0.1745
  123MOL0     C16480  11.835  10.139  10.461 -1.0015 -0.1736 -0.9365
  123MOL0     C16481  11.899  10.033  10.365  0.4743  0.2089 -0.5298
  123MOL0     C16482  12.044  10.065  10.330  0.2661 -0.8430  0.4881
  123MOL0     C16483  12.118   9.936  10.296 -0.4180 -0.5787  0.5073
  123MOL0     C16484  12.260   9.965  10.248  0.6647  0.2766 -1.0603
  123MOL0     C16485  12.344   9.834  10.259 -0.1228  0.8344 -0.5851
  123MOL0     C16486  12.383   9.802  10.406 -0.0892 -0.2402  0.5386
  123MOL0     N16487  12.515   9.724  10.416 -0.0467 -0.7240  0.5228
  123MOL0     C16488  12.632   9.784  10.448  0.2389 -0.5074 -0.6272
  123MOL0     C16489  12.728   9.688  10.436 -0.7281 -0.7321  0.6584
  123MOL0     C16490  12.874   9.705  10.448  0.4203  0.7238 -0.0074
  123MOL0     C16491  12.912   9.703  10.593 -0.1577 -0.2819 -0.5106
  123MOL0     C16492  13.048   9.767  10.620 -0.2965 -1.2258 -0.1446
  123MOL0     C16493  13.104   9.723  10.756 -0.4552 -0.6483 -0.3236
  123MOL0     O16494  13.237   9.777  10.774  0.5121  0.0032  0.3685
  123MOL0     C16495  13.348   9.727  10.709  0.2511 -0.7315  0.0899
  123MOL0     C16496  13.350   9.627  10.615 -1.0133  0.3189  0.6737
  123MOL0     C16497  13.456   9.596  10.530 -0.4899  0.5988 -0.4769
  123MOL0     C16498  13.567   9.672  10.538 -0.2529  0.3185  0.2959
  123MOL0     C16499  13.678   9.663  10.438  0.8088 -0.4494 -0.4335
  123MOL0     O16500  13.782   9.751  10.449 -1.0637  0.2358 -0.9415
  123MOL0     C16501  13.907   9.739  10.382  0.0625  0.5191  0.3968
  123MOL0     C16502  13.956   9.625  10.321  0.8587  0.1182 -0.2399
  123MOL0     C16503  14.076   9.625  10.258  1.1182 -0.3666  0.2787
  123MOL0     C16504  14.153   9.742  10.252  0.4611  0.0994  0.8528
  123MOL0     O16505  14.267   9.748  10.180 -1.5436 -0.2571  0.0907
  123MOL0     C16506  14.327   9.623  10.126  0.7764 -0.3329 -0.2522
  123MOL0     C16507  14.463   9.650  10.067  0.8072 -0.1284 -0.5621
  123MOL0     C16508  14.452   9.742   9.944  0.2286 -0.2571  0.8065
  123MOL0     C16509  14.568   9.718   9.850 -0.0200  0.5604 -0.0158
  123MOL0     C16510  14.701   9.792   9.894  0.9173 -0.2275  0.1229
  123MOL0     C16511  14.821   9.757   9.818 -0.1694  1.0215 -0.1358
  123MOL0     C16512  14.940   9.843   9.876 -0.1420 -0.4364  0.2959
  123MOL0     C16513  15.047   9.871   9.766 -0.6486  0.2280 -0.1432
  123MOL0    Cl16514  15.142   9.724   9.744 -0.2552  0.1243  0.1725
  123MOL0     C16515  14.100   9.861  10.298  0.6171 -0.2201 -0.0399
  123MOL0     C16516  13.981   9.860  10.362 -0.1960  0.2085  0.4274
  123MOL0     O16517  13.677   9.568  10.362 -0.4144 -0.2067 -0.5088
  123MOL0     C16518  13.575   9.774  10.631 -0.4406 -1.7933  0.0097
  123MOL0     C16519  13.469   9.801  10.721 -0.0394 -0.0889  0.1146
  123MOL0     N16520  12.663   9.571  10.395 -0.1263 -0.5379 -0.6855
  123MOL0     N16521  12.535   9.592  10.390  1.1314 -0.5398  0.3426
  123MOL0     C16522  11.453   9.953  10.459 -0.1236 -0.6715 -0.3787
  123MOL0     C16523  11.319   9.921  10.469  0.4424  0.3448  0.2301
  123MOL0     C16524  10.875   9.939  10.504 -0.1910  0.3286 -0.1077
  123MOL0     C16525  10.843   9.912  10.369 -0.3098  0.9067  0.5410
  123MOL0     C16526  10.708   9.886  10.336 -0.6098 -0.1622  0.6131
  123MOL0     C16527  10.609   9.889  10.423  0.3447 -1.0128 -0.1170
  123MOL0     O16528  10.490   9.849  10.365  0.1992 -0.8058  0.5981
  123MOL0     C16529  10.374   9.900  10.435 -0.0157  0.7531 -0.2795
  123MOL0     C16530  10.297   9.792  10.510  0.8931 -0.1186 -0.0390
  123MOL0     C16531  10.271   9.844  10.652  0.5857  0.5152  0.8225
  123MOL0     C16532  10.164   9.954  10.658  0.1001  0.0434 -0.5171
  123MOL0     C16533  10.143  10.011  10.798  0.7122  0.2847  0.7085
  123MOL0     C16534  10.136  10.049  10.913 -0.5550 -1.0336  0.1951
  123MOL0     C16535  10.637   9.916  10.557 -0.4482  0.7097  0.1611
  123MOL0     C16536  10.770   9.948  10.600 -0.1142  0.4520 -0.0282
  123MOL0     C16537  10.787   9.986  10.747  0.2527 -0.7458  0.4090
  123MOL0     H16538  11.164  10.203  10.392 -3.1101 -2.2816  2.8899
  123MOL0     H16539  11.404  10.271  10.340  3.3079  0.7875  2.0335
  123MOL0     H16540  11.657  10.177  10.581  0.5896  0.7011 -0.8845
  123MOL0     H16541  11.703  10.002  10.538  1.8015  0.0598  1.2131
  123MOL0     H16542  11.900  10.139  10.549 -1.0345  1.6031 -0.8821
  123MOL0     H16543  11.842  10.233  10.406  2.6843  0.8577  0.9752
  123MOL0     H16544  11.844  10.034  10.270 -1.9258  0.8685  0.7795
  123MOL0     H16545  11.893   9.931  10.405  2.2513 -0.0432 -0.8248
  123MOL0     H16546  12.067  10.147  10.262  1.2931 -1.9389 -0.5459
  123MOL0     H16547  12.087  10.102  10.424 -0.5194  0.0607  0.5036
  123MOL0     H16548  12.111   9.867  10.381 -0.6166  0.1359  1.0880
  123MOL0     H16549  12.064   9.894  10.211 -0.8515  0.8588  0.0372
  123MOL0     H16550  12.263   9.995  10.143  2.4309 -0.6550 -1.3102
  123MOL0     H16551  12.293  10.043  10.317 -2.1748 -0.3042  1.1515
  123MOL0     H16552  12.440   9.839  10.205  0.0121 -2.7706 -0.9515
  123MOL0     H16553  12.308   9.736  10.225 -1.2672  0.2433  2.0740
  123MOL0     H16554  12.404   9.899  10.453  0.1333 -0.6262  1.2501
  123MOL0     H16555  12.302   9.751  10.458 -0.1894 -1.7101 -0.9993
  123MOL0     H16556  12.639   9.890  10.471 -2.7612 -0.0602 -1.2585
  123MOL0     H16557  12.909   9.626  10.380 -0.9802 -0.5972  0.7347
  123MOL0     H16558  12.898   9.804  10.410  0.4624  0.5032 -0.5613
  123MOL0     H16559  12.833   9.747  10.654  0.8689  2.5604 -1.0885
  123MOL0     H16560  12.913   9.595  10.613 -2.3936  0.0087  1.5947
  123MOL0     H16561  13.037   9.876  10.619 -4.3033 -1.4652  1.2356
  123MOL0     H16562  13.103   9.729  10.533  0.1434 -0.7242 -0.0912
  123MOL0     H16563  13.110   9.614  10.760 -2.5862 -0.8939 -2.0287
  123MOL0     H16564  13.035   9.752  10.836  0.7755 -1.0312  0.9050
  123MOL0     H16565  13.257   9.571  10.605 -0.7435  0.2720 -2.3345
  123MOL0     H16566  13.445   9.511  10.464 -1.7181  0.5274 -0.1985
  123MOL0     H16567  13.897   9.534  10.319  2.2782 -0.8506 -0.3689
  123MOL0     H16568  14.106   9.526  10.228 -0.1109 -0.1608 -1.8050
  123MOL0     H16569  14.337   9.548  10.205  1.5676  2.3388  2.3776
  123MOL0     H16570  14.257   9.581  10.053 -1.9238  1.7771  0.9374
  123MOL0     H16571  14.519   9.700  10.147  1.6002  0.8580 -1.6998
  123MOL0     H16572  14.518   9.557  10.050  0.7586 -0.4345  0.8352
  123MOL0     H16573  14.355   9.723   9.896 -1.4822  1.8199  3.1434
  123MOL0     H16574  14.442   9.846   9.977 -0.2938  0.3512 -1.1339
  123MOL0     H16575  14.541   9.765   9.755 -0.5164  2.0110  0.8086
  123MOL0     H16576  14.581   9.612   9.829 -0.7354  0.7674 -1.6152
  123MOL0     H16577  14.715   9.795  10.002  0.3658  3.6232  0.2337
  123MOL0     H16578  14.673   9.892   9.859  0.2093 -1.0639 -1.8192
  123MOL0     H16579  14.858   9.655   9.832 -4.1881 -0.7002 -0.6935
  123MOL0     H16580  14.809   9.759   9.709  0.5374 -1.0372 -0.2981
  123MOL0     H16581  14.992   9.805   9.964 -2.5545  0.6307  2.3146
  123MOL0     H16582  14.907   9.941   9.912  1.2302 -0.6633  2.3383
  123MOL0     H16583  15.001   9.892   9.669  0.4684  0.8847 -0.5485
  123MOL0     H16584  15.114   9.951   9.798 -0.7912  0.0434  0.6497
  123MOL0     H16585  14.161   9.950  10.293  1.0883 -0.5117  0.3659
  123MOL0     H16586  13.934   9.951  10.398 -0.9378  0.1685 -0.4017
  123MOL0     H16587  13.670   9.826  10.645 -0.4224 -2.2047  1.5518
  123MOL0     H16588  13.473   9.878  10.798 -1.5249 -1.0617  1.2413
  123MOL0     H16589  11.533   9.885  10.487  1.8476  1.6950  0.0294
  123MOL0     H16590  11.297   9.819  10.499  2.1572  0.4713  2.1668
  123MOL0     H16591  10.904   9.893  10.281 -0.1168 -2.9242  1.3086
  123MOL0     H16592  10.698   9.847  10.235  1.6992  0.8204 -0.0758
  123MOL0     H16593  10.315   9.957  10.363  0.5697  2.2169  0.3516
  123MOL0     H16594  10.406   9.982  10.500  0.1909  0.2330  0.2825
  123MOL0     H16595  10.362   9.705  10.523  2.7520  1.4701  2.1479
  123MOL0     H16596  10.205   9.766  10.458 -0.7433  0.2149  2.4960
  123MOL0     H16597  10.368   9.876  10.691  1.3196  1.1143 -1.3549
  123MOL0     H16598  10.233   9.764  10.716  0.2852  1.6305  2.0685
  123MOL0     H16599  10.191  10.044  10.601 -0.1145 -0.1092 -0.8692
  123MOL0     H16600  10.073   9.911  10.613  1.3434 -0.4672 -2.6840
  123MOL0     H16601  10.135  10.076  11.016 -0.8622  0.6091 -0.2051
  123MOL0     H16602  10.565   9.913  10.638  0.2769 -1.1418  0.7982
  123MOL0     H16603  10.771  10.094  10.755  1.8906 -0.2915 -1.4973
  123MOL0     H16604  10.716   9.933  10.811 -1.1313 -0.6828 -1.0040
  123MOL0     H16605  10.887   9.966  10.787  1.8312  1.7033 -1.9274
  124MOL0     O16606   7.086   9.847   4.428 -0.3858  0.3074  0.0097
  124MOL0     C16607   6.987   9.773   4.398 -0.5869  0.2466 -0.3438
  124MOL0     O16608   6.994   9.659   4.320  0.6506 -0.4292  0.0426
  124MOL0     C16609   7.111   9.620   4.265 -0.5606  0.2315  0.2713
  124MOL0     C16610   7.151   9.489   4.289  0.7770 -0.3683 -0.7250
  124MOL0     C16611   7.244   9.427   4.210  0.0002  0.6210  0.2971
  124MOL0     C16612   7.319   9.506   4.121 -0.9967 -1.6392  0.4619
  124MOL0     O16613   7.439   9.464   4.068 -0.3586 -0.0420  0.3616
  124MOL0     C16614   7.444   9.323   4.036  0.2161  0.3160 -0.2703
  124MOL0     C16615   7.560   9.270   3.949 -0.9199  0.4593 -0.2294
  124MOL0     C16616   7.693   9.309   4.007 -0.8814 -0.1111  0.2986
  124MOL0     C16617   7.797   9.213   3.952  0.0475 -0.1702  0.2097
  124MOL0     C16618   7.935   9.253   4.015 -0.1443  0.8118  0.2416
  124MOL0     C16619   8.061   9.208   3.950  0.1055  0.0791  0.8418
  124MOL0     C16620   8.081   9.285   3.820  0.8407  0.3898  0.1202
  124MOL0     C16621   8.207   9.248   3.749  0.1609 -0.6692 -0.1856
  124MOL0     N16622   8.332   9.285   3.823  0.8373  0.2971  0.3329
  124MOL0     C16623   8.428   9.363   3.763 -1.0138 -0.4415 -0.2287
  124MOL0     C16624   8.537   9.351   3.846 -0.5447  0.3146  0.1313
  124MOL0     C16625   8.667   9.425   3.821  0.5977 -0.5565 -0.0456
  124MOL0     C16626   8.793   9.335   3.811  0.4596 -0.2362  0.3049
  124MOL0     C16627   8.922   9.417   3.781 -0.1239 -0.8907 -0.8756
  124MOL0     C16628   8.966   9.488   3.915 -0.0936  0.4729  0.2995
  124MOL0     O16629   9.074   9.425   3.987 -0.0444 -0.3645  0.8175
  124MOL0     C16630   9.207   9.459   3.949  0.3876 -0.2131  0.5762
  124MOL0     C16631   9.298   9.370   4.005  0.1457  0.0403  0.0880
  124MOL0     C16632   9.432   9.381   3.973  0.0910 -0.0125 -0.2265
  124MOL0     C16633   9.477   9.483   3.877 -0.3306  0.1377 -0.3546
  124MOL0     C16634   9.625   9.507   3.863  0.2377 -0.0274  1.0667
  124MOL0     O16635   9.710   9.439   3.934 -0.4287  0.0967  0.1686
  124MOL0     C16636   9.835   9.493   3.950 -0.7903  0.1151  0.9166
  124MOL0     C16637   9.931   9.465   3.854 -0.5162 -0.6707 -0.2362
  124MOL0     C16638  10.060   9.522   3.861 -0.7722 -0.0836 -0.5272
  124MOL0     C16639  10.085   9.618   3.966 -0.2990  0.0663 -0.5430
  124MOL0     O16640  10.204   9.688   3.991  0.4601  0.3630 -0.4621
  124MOL0     C16641  10.317   9.612   3.959 -0.5705 -0.7653  0.1313
  124MOL0     C16642  10.431   9.658   4.056  0.0984  0.0774 -0.0028
  124MOL0     C16643  10.564   9.584   4.025  0.5136  0.1780  0.2801
  124MOL0     C16644  10.549   9.431   4.023 -0.1846  0.0504 -0.0155
  124MOL0     C16645  10.671   9.369   3.964  0.2828  0.5825  0.5989
  124MOL0     C16646  10.691   9.220   4.000 -0.0174 -0.1093 -0.3566
  124MOL0     C16647  10.612   9.131   3.901  0.1989  0.5526  0.0074
  124MOL0     C16648  10.504   9.031   3.965 -0.0680 -0.5528 -0.1949
  124MOL0    Cl16649  10.386   9.122   4.070  0.1607  0.1150  0.3586
  124MOL0     C16650   9.982   9.646   4.053  0.2560  0.1637 -0.0225
  124MOL0     C16651   9.859   9.584   4.042  0.5274  0.5459 -0.1861
  124MOL0     O16652   9.656   9.599   3.787  0.4008 -0.4127 -0.8338
  124MOL0     C16653   9.385   9.557   3.810 -0.5490  0.7875 -0.6597
  124MOL0     C16654   9.249   9.548   3.853  0.1865 -0.2821  0.3541
  124MOL0     N16655   8.511   9.265   3.952 -0.0797 -1.1438  0.2935
  124MOL0     N16656   8.384   9.221   3.931 -1.1040 -0.4723  0.0561
  124MOL0     C16657   7.273   9.636   4.082 -0.0859  0.5606 -0.7958
  124MOL0     C16658   7.167   9.693   4.154 -0.0493  0.0536  0.6691
  124MOL0     C16659   6.853   9.832   4.427  0.5515  0.2563 -0.0302
  124MOL0     C16660   6.749   9.776   4.356 -0.3273 -1.0239 -0.1362
  124MOL0     C16661   6.617   9.821   4.367 -0.2140  0.2149 -0.9081
  124MOL0     C16662   6.589   9.918   4.456  0.6589  0.3564  0.1167
  124MOL0     O16663   6.462   9.958   4.470 -0.4038 -0.7948 -0.1019
  124MOL0     C16664   6.430  10.051   4.573  1.0330  0.0674 -0.2249
  124MOL0     C16665   6.278  10.090   4.584  0.5480 -0.1031  0.7544
  124MOL0     C16666   6.180   9.970   4.569 -0.5580  0.0610 -0.1108
  124MOL0     C16667   6.043  10.022   4.532  0.4447 -0.3126  0.2800
  124MOL0     C16668   5.942   9.937   4.579  0.6509  0.2471 -0.8120
  124MOL0     C16669   5.862   9.856   4.616  0.7596  0.5751  0.3082
  124MOL0     C16670   6.692   9.968   4.539  0.4498  0.3009 -0.5110
  124MOL0     C16671   6.823   9.928   4.525 -0.5402 -0.7477 -0.0660
  124MOL0     C16672   6.926   9.984   4.624  0.2287 -0.7363  0.1275
  124MOL0     H16673   7.102   9.445   4.375  2.6908  2.9616  2.2996
  124MOL0     H16674   7.260   9.324   4.243 -2.1064  0.5682  1.3221
  124MOL0     H16675   7.442   9.265   4.129  0.9967 -3.4678 -2.4334
  124MOL0     H16676   7.360   9.304   3.969  2.0340  0.3532 -2.6589
  124MOL0     H16677   7.550   9.317   3.850  0.2916 -0.7828 -0.9785
  124MOL0     H16678   7.546   9.162   3.940  2.2679 -0.2171  1.5430
  124MOL0     H16679   7.695   9.305   4.116  2.8590 -1.0078  0.3310
  124MOL0     H16680   7.710   9.409   3.968 -0.9573 -1.4562 -3.6281
  124MOL0     H16681   7.788   9.110   3.989  1.7648 -0.5583 -0.3592
  124MOL0     H16682   7.790   9.226   3.843 -1.3757  1.1266  0.4285
  124MOL0     H16683   7.935   9.361   4.029 -0.5549  0.9568 -0.8153
  124MOL0     H16684   7.923   9.205   4.113 -1.3841 -0.4716 -0.5074
  124MOL0     H16685   8.143   9.235   4.017 -0.6869 -1.2200  2.4306
  124MOL0     H16686   8.066   9.099   3.946  2.1820  0.1781 -0.8577
  124MOL0     H16687   8.067   9.393   3.828  2.7040  0.7308 -0.6719
  124MOL0     H16688   8.000   9.255   3.752  2.7648  0.3402 -2.3125
  124MOL0     H16689   8.203   9.141   3.726  0.1458 -0.1338 -3.0964
  124MOL0     H16690   8.224   9.281   3.646  4.0452 -2.8610 -0.4644
  124MOL0     H16691   8.428   9.430   3.677  1.9647 -2.7974 -2.2818
  124MOL0     H16692   8.662   9.485   3.730  0.5185 -1.0560 -0.3737
  124MOL0     H16693   8.668   9.492   3.907  1.0547  0.5276 -0.8760
  124MOL0     H16694   8.800   9.282   3.906 -3.1221 -1.9843 -0.2278
  124MOL0     H16695   8.779   9.258   3.735 -0.4945  2.0397 -1.9959
  124MOL0     H16696   8.906   9.489   3.700 -0.5036 -0.3240 -0.3148
  124MOL0     H16697   9.000   9.350   3.744 -0.2431 -0.8567 -1.1900
  124MOL0     H16698   8.888   9.503   3.991  0.8067  0.3698  1.2732
  124MOL0     H16699   8.999   9.587   3.881  1.8604 -0.1732  0.2002
  124MOL0     H16700   9.264   9.286   4.064  0.1706  1.1978  1.8575
  124MOL0     H16701   9.493   9.320   4.038 -1.6218 -1.3165  0.2275
  124MOL0     H16702   9.899   9.394   3.778 -2.4564 -0.6469  0.4890
  124MOL0     H16703  10.147   9.510   3.797 -0.6705  0.8345 -0.5732
  124MOL0     H16704  10.296   9.504   3.960  2.4271 -1.4915 -1.3461
  124MOL0     H16705  10.355   9.636   3.859  0.1811 -0.6975  0.4276
  124MOL0     H16706  10.446   9.766   4.059  1.7180 -0.0233 -1.9768
  124MOL0     H16707  10.400   9.639   4.159  0.6440  0.0778  0.1623
  124MOL0     H16708  10.589   9.612   3.922 -1.4444  3.4759  0.5398
  124MOL0     H16709  10.645   9.612   4.093  0.0116  2.3047  0.0706
  124MOL0     H16710  10.463   9.382   3.977 -1.2107 -1.4626  3.2067
  124MOL0     H16711  10.544   9.394   4.126 -1.2863 -2.2534 -0.8318
  124MOL0     H16712  10.757   9.418   4.011 -0.3241  0.1181  2.2879
  124MOL0     H16713  10.658   9.395   3.859  3.8495  2.7396  0.5393
  124MOL0     H16714  10.795   9.200   3.973  0.0374  1.0942 -1.1296
  124MOL0     H16715  10.667   9.204   4.106  1.1717  0.2298 -0.0219
  124MOL0     H16716  10.680   9.070   3.841 -0.4825  0.8459 -1.0710
  124MOL0     H16717  10.569   9.200   3.828 -1.4182  1.1669  1.4742
  124MOL0     H16718  10.456   8.992   3.875 -1.1155 -0.1028  0.1507
  124MOL0     H16719  10.552   8.949   4.019  1.2808  0.6599  0.5233
  124MOL0     H16720  10.000   9.717   4.133 -1.0943 -1.3973  1.7471
  124MOL0     H16721   9.777   9.608   4.109 -1.2199  2.0504 -2.6868
  124MOL0     H16722   9.402   9.627   3.729 -5.0277  1.1700 -1.5143
  124MOL0     H16723   9.175   9.595   3.788 -0.1455 -0.7029  0.4295
  124MOL0     H16724   7.317   9.692   3.999  2.8025 -0.2937  0.0359
  124MOL0     H16725   7.118   9.787   4.134  1.5101  0.7236 -0.1393
  124MOL0     H16726   6.757   9.703   4.275 -3.6930  0.1756 -1.7624
  124MOL0     H16727   6.546   9.787   4.292  1.0003 -3.3181 -0.6082
  124MOL0     H16728   6.471  10.151   4.555 -1.5895  0.8486 -2.6634
  124MOL0     H16729   6.460  10.015   4.672 -1.3623 -1.1290  0.1523
  124MOL0     H16730   6.262  10.169   4.511  1.3401 -0.1757  0.4968
  124MOL0     H16731   6.256  10.134   4.682 -1.4410 -2.5726  1.5425
  124MOL0     H16732   6.173   9.916   4.664  2.3856 -0.6763 -0.2208
  124MOL0     H16733   6.199   9.895   4.491 -1.4103 -2.0681  1.6188
  124MOL0     H16734   6.026  10.122   4.574  0.2411 -0.0300 -0.4572
  124MOL0     H16735   6.034  10.037   4.424 -1.7936  2.1631  0.6964
  124MOL0     H16736   5.785   9.784   4.633 -0.6387  1.9222 -0.0512
  124MOL0     H16737   6.670  10.042   4.615  2.9415  0.9589 -0.3639
  124MOL0     H16738   7.001   9.907   4.646  1.8843  0.5433 -0.7473
  124MOL0     H16739   6.974  10.063   4.565 -2.7727  0.6763 -0.6514
  124MOL0     H16740   6.892  10.016   4.723  1.3224 -0.1267  0.3299
  125MOL0     O16741   1.605   6.918   3.231 -0.3021 -0.3542 -0.1180
  125MOL0     C16742   1.571   6.805   3.259  0.4557  0.2365  0.2102
  125MOL0     O16743   1.643   6.718   3.327  0.1112 -0.0308 -0.0808
  125MOL0     C16744   1.782   6.726   3.335 -0.8643  0.2610 -0.5256
  125MOL0     C16745   1.872   6.797   3.246 -0.6859 -0.0720 -0.6930
  125MOL0     C16746   2.012   6.799   3.275 -0.1637 -0.4733 -0.5379
  125MOL0     C16747   2.070   6.730   3.373 -0.1415  0.3872  1.5369
  125MOL0     O16748   2.213   6.715   3.365 -0.5001 -0.6645  0.1616
  125MOL0     C16749   2.267   6.641   3.475 -1.2656  0.8079  0.8708
  125MOL0     C16750   2.416   6.631   3.460  0.0535  0.0331  0.1755
  125MOL0     C16751   2.481   6.763   3.442  0.8432  0.0711 -0.5859
  125MOL0     C16752   2.632   6.750   3.438  0.2474 -0.0178 -1.0114
  125MOL0     C16753   2.710   6.709   3.566  0.5480  0.0470  0.0732
  125MOL0     C16754   2.855   6.684   3.544  0.0576 -1.0963 -0.7897
  125MOL0     C16755   2.935   6.655   3.672 -0.2439  0.5690 -0.3475
  125MOL0     C16756   2.966   6.779   3.747 -0.5011  0.1612 -0.6272
  125MOL0     N16757   3.062   6.761   3.863 -0.2264  0.1042 -1.1244
  125MOL0     C16758   3.195   6.752   3.843  0.8528  0.0719 -0.3710
  125MOL0     C16759   3.248   6.759   3.973  0.1583  0.8067  0.6575
  125MOL0     C16760   3.399   6.763   4.002  0.2108  0.4633 -0.5681
  125MOL0     C16761   3.478   6.642   3.960 -0.3405 -1.1016  0.1623
  125MOL0     C16762   3.623   6.677   4.006  0.0184  0.5658 -0.4419
  125MOL0     C16763   3.726   6.621   3.919 -0.1444  0.6792 -0.2605
  125MOL0     O16764   3.843   6.628   3.990  0.3987 -0.4466  0.8184
  125MOL0     C16765   3.956   6.622   3.914 -0.4212  0.5066 -0.1293
  125MOL0     C16766   4.067   6.692   3.956 -0.7586  0.4662  0.1487
  125MOL0     C16767   4.180   6.690   3.874 -0.6429  0.6287 -0.0843
  125MOL0     C16768   4.187   6.618   3.764 -0.4516 -0.7624 -1.0729
  125MOL0     C16769   4.301   6.613   3.674  0.2385  0.8622  0.1347
  125MOL0     O16770   4.410   6.681   3.718 -0.7199  0.1021  0.2966
  125MOL0     C16771   4.517   6.699   3.633  0.1229 -0.1370  0.6713
  125MOL0     C16772   4.518   6.796   3.524 -0.2554  0.3840  0.0380
  125MOL0     C16773   4.636   6.811   3.439 -0.1824 -0.1391 -0.6890
  125MOL0     C16774   4.750   6.740   3.460  0.6178  0.2803 -0.4132
  125MOL0     O16775   4.862   6.775   3.385  0.3601 -0.2476  0.2956
  125MOL0     C16776   4.996   6.760   3.445  0.6520 -0.7830  1.0532
  125MOL0     C16777   5.099   6.824   3.356 -0.3084 -0.2002 -0.0734
  125MOL0     C16778   5.228   6.820   3.434  0.5972  0.0406 -0.3774
  125MOL0     C16779   5.329   6.879   3.343 -0.6454 -0.4776 -0.1194
  125MOL0     C16780   5.464   6.889   3.414  0.3082  0.1577  0.2001
  125MOL0     C16781   5.563   6.950   3.315 -0.7537 -0.5822 -0.2158
  125MOL0     C16782   5.713   6.916   3.341 -1.1203  0.2808  0.0206
  125MOL0     C16783   5.813   6.954   3.236  0.8347  0.6000  0.1960
  125MOL0    Cl16784   5.972   6.897   3.295 -0.0312 -0.4097 -0.5296
  125MOL0     C16785   4.751   6.638   3.566  0.8041 -0.1137  0.3823
  125MOL0     C16786   4.637   6.630   3.651 -0.8692 -1.0152 -0.2311
  125MOL0     O16787   4.294   6.560   3.560 -0.0014  0.2139 -0.5178
  125MOL0     C16788   4.082   6.539   3.720 -0.3623 -0.3612  0.4515
  125MOL0     C16789   3.964   6.539   3.794  0.0083  0.0559 -0.4535
  125MOL0     N16790   3.149   6.768   4.060  0.8476 -0.6077  0.6222
  125MOL0     N16791   3.038   6.780   3.993 -0.3040  0.0839 -0.3206
  125MOL0     C16792   1.983   6.668   3.469  0.1095 -0.1715 -0.7306
  125MOL0     C16793   1.840   6.667   3.448  0.4717  0.1345 -0.4264
  125MOL0     C16794   1.429   6.766   3.234  1.1977 -0.2570  0.1601
  125MOL0     C16795   1.393   6.632   3.276 -0.3777 -0.1988  0.1605
  125MOL0     C16796   1.266   6.592   3.259 -0.2109 -0.3443 -0.2827
  125MOL0     C16797   1.170   6.676   3.205  0.0662  0.3748 -0.4471
  125MOL0     O16798   1.045   6.617   3.204 -0.2076 -0.4142 -0.2712
  125MOL0     C16799   0.927   6.676   3.138  1.3298  0.2162 -0.4354
  125MOL0     C16800   0.795   6.590   3.165 -0.1752  0.8942 -0.0743
  125MOL0     C16801   0.780   6.479   3.056  0.1228 -0.3069 -0.2461
  125MOL0     C16802   0.655   6.389   3.077  0.4497  0.4195  0.1560
  125MOL0     C16803   0.668   6.269   3.159 -0.3931 -0.6920  1.2132
  125MOL0     C16804   0.698   6.172   3.222 -0.2167  0.4241 -0.2407
  125MOL0     C16805   1.197   6.804   3.168 -0.6885  0.1907  0.0404
  125MOL0     C16806   1.328   6.849   3.169  0.4471  0.0947  0.2361
  125MOL0     C16807   1.361   6.979   3.089  0.3714  0.6077  0.0444
  125MOL0     H16808   1.840   6.871   3.172 -0.5534  0.4687 -0.2129
  125MOL0     H16809   2.074   6.848   3.200 -1.8929  2.7954 -0.0144
  125MOL0     H16810   2.239   6.697   3.564 -1.0447  1.8485  0.3030
  125MOL0     H16811   2.230   6.538   3.476  0.7988  0.0147  1.3974
  125MOL0     H16812   2.442   6.571   3.372  1.5944  0.9533 -0.0328
  125MOL0     H16813   2.446   6.576   3.550 -2.0299 -1.1688  0.1913
  125MOL0     H16814   2.447   6.828   3.524 -2.0748  2.5745 -3.4863
  125MOL0     H16815   2.443   6.817   3.355  2.8444  0.5624 -1.2098
  125MOL0     H16816   2.658   6.675   3.362 -0.0798 -1.7416  0.5020
  125MOL0     H16817   2.672   6.843   3.396 -2.8366  1.5507 -0.7287
  125MOL0     H16818   2.707   6.791   3.638  0.3263  0.2745 -0.1934
  125MOL0     H16819   2.668   6.616   3.603  2.1275 -0.4239  0.7838
  125MOL0     H16820   2.857   6.599   3.476 -2.1347  0.0073 -2.3621
  125MOL0     H16821   2.890   6.778   3.500 -2.0941  1.3344  2.2150
  125MOL0     H16822   3.028   6.610   3.635 -0.1975 -2.0226  2.4714
  125MOL0     H16823   2.899   6.581   3.745 -2.2739  2.5504  0.7707
  125MOL0     H16824   3.004   6.842   3.666  0.2594 -2.8815 -2.8023
  125MOL0     H16825   2.871   6.822   3.782 -0.9930  0.2533 -2.0079
  125MOL0     H16826   3.254   6.739   3.753 -1.3029 -2.6334 -1.5671
  125MOL0     H16827   3.434   6.850   3.946  2.9596 -0.8769 -1.1349
  125MOL0     H16828   3.422   6.770   4.108 -0.5327 -0.5137 -0.3234
  125MOL0     H16829   3.443   6.550   4.008  2.3343 -1.7148  1.1001
  125MOL0     H16830   3.469   6.638   3.851  0.4284  2.4028 -0.1562
  125MOL0     H16831   3.645   6.636   4.105  1.1583  0.1283 -0.8628
  125MOL0     H16832   3.630   6.786   4.008 -2.9283  0.8273 -0.2388
  125MOL0     H16833   3.725   6.675   3.824  2.2958 -0.1254 -0.8238
  125MOL0     H16834   3.709   6.518   3.886  0.5212  0.0556  1.2287
  125MOL0     H16835   4.073   6.745   4.050  0.7613  0.3749  0.1190
  125MOL0     H16836   4.255   6.760   3.908 -2.6170  1.8983  1.9404
  125MOL0     H16837   4.438   6.868   3.510  0.5336  0.6050 -6.3810
  125MOL0     H16838   4.635   6.892   3.367 -0.7329 -1.5096 -2.2574
  125MOL0     H16839   4.991   6.814   3.540 -1.9714 -0.1466  0.6292
  125MOL0     H16840   5.022   6.654   3.452  3.3339 -0.2841 -0.0256
  125MOL0     H16841   5.098   6.761   3.267 -3.2046 -1.9170  1.0441
  125MOL0     H16842   5.073   6.929   3.339 -0.8406 -0.1673  0.9006
  125MOL0     H16843   5.210   6.887   3.519 -1.7399  2.8249 -2.8311
  125MOL0     H16844   5.245   6.716   3.463 -0.2430 -0.6492 -2.2214
  125MOL0     H16845   5.303   6.978   3.304  1.4628  0.1655 -0.0157
  125MOL0     H16846   5.331   6.809   3.258  0.4769 -0.6548  0.0386
  125MOL0     H16847   5.493   6.786   3.435 -0.1049 -0.3806 -1.6298
  125MOL0     H16848   5.456   6.942   3.509 -0.2709  1.6874 -0.6588
  125MOL0     H16849   5.550   6.900   3.218  3.5317 -2.6020 -0.0228
  125MOL0     H16850   5.548   7.057   3.301  0.5802 -0.3542 -0.0473
  125MOL0     H16851   5.723   6.808   3.355 -0.1683  0.2908 -0.4687
  125MOL0     H16852   5.745   6.973   3.429  1.5654  0.9114 -1.2555
  125MOL0     H16853   5.789   6.914   3.137  0.3906 -0.9933  0.9223
  125MOL0     H16854   5.803   7.063   3.228 -0.4763  0.5128  0.4728
  125MOL0     H16855   4.844   6.588   3.594  0.9790 -0.7826 -1.3032
  125MOL0     H16856   4.637   6.560   3.734  0.4232  1.2092  1.7437
  125MOL0     H16857   4.093   6.481   3.629  0.4229  1.1244 -0.4376
  125MOL0     H16858   3.878   6.483   3.759  0.3115 -1.7315  1.5020
  125MOL0     H16859   2.016   6.614   3.557  1.4319  2.4141  0.4735
  125MOL0     H16860   1.778   6.614   3.520 -0.6715 -1.2669 -2.3582
  125MOL0     H16861   1.451   6.558   3.330  0.2547 -0.0110 -0.2485
  125MOL0     H16862   1.231   6.497   3.297  1.5893 -0.5246  1.0520
  125MOL0     H16863   0.949   6.693   3.032  0.8978 -1.0926 -0.7586
  125MOL0     H16864   0.904   6.771   3.187 -1.3381 -0.4667 -0.2516
  125MOL0     H16865   0.710   6.657   3.177 -1.5948 -1.0418  1.4300
  125MOL0     H16866   0.788   6.540   3.262 -0.7474 -1.0172 -1.0538
  125MOL0     H16867   0.870   6.418   3.044 -1.8003 -3.3017 -0.5040
  125MOL0     H16868   0.764   6.538   2.965 -2.1471 -1.0863 -0.4110
  125MOL0     H16869   0.577   6.449   3.124 -1.3269 -1.1432 -0.6668
  125MOL0     H16870   0.598   6.367   2.985 -2.0144  0.8501  1.4934
  125MOL0     H16871   0.723   6.088   3.284  1.9377  1.4684  0.4159
  125MOL0     H16872   1.113   6.869   3.143 -0.7836  0.2359  0.4567
  125MOL0     H16873   1.268   7.016   3.047  1.2618  0.9524 -1.7001
  125MOL0     H16874   1.403   7.056   3.154  0.2446  0.0361  0.8219
  125MOL0     H16875   1.428   6.948   3.008 -1.5961 -2.1693 -0.6787
  126MOL0     O16876   4.967   3.799   5.042 -0.6886 -0.4132  0.1458
  126MOL0     C16877   4.933   3.850   5.148 -0.1507 -0.8110 -0.7255
  126MOL0     O16878   4.978   3.817   5.272  0.5849 -0.2381  0.2548
  126MOL0     C16879   5.080   3.723   5.290  0.3239 -0.2619 -0.0098
  126MOL0     C16880   5.193   3.743   5.215 -0.3141  0.3153 -0.2732
  126MOL0     C16881   5.300   3.650   5.232 -0.7973  0.1386  0.2984
  126MOL0     C16882   5.298   3.550   5.334 -0.0377  0.0387  0.4154
  126MOL0     O16883   5.397   3.462   5.355 -0.6662 -0.1927  0.1921
  126MOL0     C16884   5.514   3.458   5.275 -0.5104 -0.5463  0.7143
  126MOL0     C16885   5.617   3.356   5.332  0.8898  0.5292 -0.9237
  126MOL0     C16886   5.742   3.326   5.249  0.4858  0.6414  0.2669
  126MOL0     C16887   5.826   3.442   5.220 -0.3222 -0.3916  0.1877
  126MOL0     C16888   5.956   3.391   5.145  0.1227 -0.1192 -0.3949
  126MOL0     C16889   6.057   3.506   5.141 -0.0342 -0.6908 -0.1382
  126MOL0     C16890   6.191   3.466   5.080  0.4006 -0.5066 -0.0124
  126MOL0     C16891   6.165   3.469   4.930  0.1459  0.5511  0.2781
  126MOL0     N16892   6.283   3.444   4.851  0.4116  0.2419 -0.1054
  126MOL0     C16893   6.388   3.528   4.829  0.4725 -0.2760 -0.1127
  126MOL0     C16894   6.481   3.450   4.758  0.3534  0.3630  0.1149
  126MOL0     C16895   6.607   3.514   4.704 -0.4335  0.2203  0.1994
  126MOL0     C16896   6.727   3.483   4.796  0.6445  0.3042  0.0099
  126MOL0     C16897   6.845   3.546   4.741  0.6591 -0.3650  0.0005
  126MOL0     C16898   6.958   3.554   4.844 -0.5707  0.0764  0.2128
  126MOL0     O16899   6.937   3.658   4.933  0.1153  0.0032 -0.2489
  126MOL0     C16900   7.047   3.708   5.002  0.4388  0.0344  0.3283
  126MOL0     C16901   7.045   3.841   5.050  0.0306  0.4583 -0.0867
  126MOL0     C16902   7.148   3.893   5.129  0.1465  0.1524  0.1109
  126MOL0     C16903   7.271   3.823   5.133 -1.0279 -0.0217 -0.2479
  126MOL0     C16904   7.396   3.882   5.196 -0.3901 -0.0410  0.0727
  126MOL0     O16905   7.407   4.013   5.230 -0.7819 -0.1277 -0.0966
  126MOL0     C16906   7.512   4.056   5.300 -0.1217  0.6818 -0.9081
  126MOL0     C16907   7.587   4.166   5.263 -0.3439 -0.3526 -0.2224
  126MOL0     C16908   7.707   4.200   5.322 -0.5606 -0.4301  0.0620
  126MOL0     C16909   7.754   4.131   5.426  0.4817 -0.3314  0.5160
  126MOL0     O16910   7.878   4.165   5.454  0.1413 -0.1611 -0.1692
  126MOL0     C16911   7.927   4.131   5.582  0.4773  0.5608 -0.4644
  126MOL0     C16912   8.077   4.171   5.599 -0.5410 -0.7017 -0.1073
  126MOL0     C16913   8.113   4.217   5.743 -0.2254  0.0641  0.5573
  126MOL0     C16914   8.133   4.089   5.825  0.1885 -0.1525  0.2591
  126MOL0     C16915   8.097   4.119   5.980  0.2047  0.4625  0.1871
  126MOL0     C16916   8.219   4.130   6.070 -1.3616 -0.5528 -0.1875
  126MOL0     C16917   8.300   4.260   6.049 -0.2932 -0.2209 -0.2996
  126MOL0     C16918   8.424   4.271   6.140  0.0225 -0.5519  0.5245
  126MOL0    Cl16919   8.361   4.272   6.308 -0.3177 -0.3954  0.0851
  126MOL0     C16920   7.677   4.030   5.477 -0.1763 -0.2261  0.2078
  126MOL0     C16921   7.555   3.986   5.420  0.3211 -0.1402  0.8110
  126MOL0     O16922   7.486   3.801   5.204 -0.0186  0.2582 -0.2476
  126MOL0     C16923   7.280   3.694   5.067 -0.1443  0.1287 -0.1237
  126MOL0     C16924   7.170   3.638   5.017  0.5425  0.4055  0.1096
  126MOL0     N16925   6.442   3.322   4.752  0.5504  0.3257 -0.1994
  126MOL0     N16926   6.330   3.319   4.814  0.1088  0.0909  0.4791
  126MOL0     C16927   5.172   3.532   5.406 -0.6008  0.6686  0.4043
  126MOL0     C16928   5.068   3.621   5.379  0.1694  0.0792  0.1089
  126MOL0     C16929   4.823   3.945   5.149  0.3999  0.9736 -0.3347
  126MOL0     C16930   4.835   4.068   5.208 -0.3236 -0.1105  0.1023
  126MOL0     C16931   4.732   4.157   5.235  0.4732 -0.2958 -0.7903
  126MOL0     C16932   4.604   4.139   5.174  0.3170  0.4558 -0.8317
  126MOL0     O16933   4.511   4.231   5.186 -0.4013  0.1503 -0.3497
  126MOL0     C16934   4.388   4.228   5.112 -0.5833  0.0448  0.5412
  126MOL0     C16935   4.278   4.216   5.214 -0.4435 -0.3849  0.0687
  126MOL0     C16936   4.252   4.073   5.258  0.3411 -0.5811 -0.5747
  126MOL0     C16937   4.156   4.042   5.375  0.3305  0.4587 -0.2213
  126MOL0     C16938   4.017   4.077   5.335 -0.3695  0.1387 -0.1968
  126MOL0     C16939   3.906   4.104   5.294  0.2923  0.4055  0.3652
  126MOL0     C16940   4.589   4.009   5.114 -0.2655  0.1642 -0.0661
  126MOL0     C16941   4.693   3.914   5.106 -0.4412  0.3440  0.9410
  126MOL0     C16942   4.657   3.772   5.063  1.1682 -0.4087  0.1792
  126MOL0     H16943   5.201   3.829   5.150  1.1483 -0.5438 -1.2832
  126MOL0     H16944   5.386   3.647   5.166 -0.7200 -1.8767  0.4259
  126MOL0     H16945   5.477   3.433   5.176 -1.4010  0.0673  0.8838
  126MOL0     H16946   5.555   3.559   5.261 -2.1955  0.1445  0.5807
  126MOL0     H16947   5.564   3.262   5.345 -1.6984  2.1753  2.0976
  126MOL0     H16948   5.644   3.392   5.432 -0.5293 -0.6792 -0.0791
  126MOL0     H16949   5.731   3.264   5.159  1.2587 -2.4626  2.1576
  126MOL0     H16950   5.796   3.254   5.311  0.6499 -0.3068 -0.9441
  126MOL0     H16951   5.775   3.510   5.151 -0.5583  0.4247  1.1513
  126MOL0     H16952   5.841   3.504   5.308  0.6864  1.7851 -1.4310
  126MOL0     H16953   6.000   3.310   5.205  0.4497 -0.5732 -1.2386
  126MOL0     H16954   5.930   3.359   5.044 -1.2754 -2.9838  0.7264
  126MOL0     H16955   6.019   3.591   5.084  0.0302 -1.1409 -0.8785
  126MOL0     H16956   6.078   3.544   5.241 -1.1344  0.3360 -0.2800
  126MOL0     H16957   6.211   3.363   5.111  0.7055 -1.4801 -3.0722
  126MOL0     H16958   6.274   3.529   5.116  0.3431 -0.7336  0.5209
  126MOL0     H16959   6.091   3.394   4.901  0.3359  0.9154 -1.2375
  126MOL0     H16960   6.127   3.568   4.904  1.0219  0.7313 -0.3609
  126MOL0     H16961   6.387   3.635   4.845 -0.5264 -0.1155 -1.1255
  126MOL0     H16962   6.633   3.478   4.604  3.9043  1.5394  0.6502
  126MOL0     H16963   6.595   3.623   4.700  2.8918  0.6754 -0.3983
  126MOL0     H16964   6.697   3.535   4.887 -0.5675 -1.0252  0.4093
  126MOL0     H16965   6.741   3.374   4.805  2.3643  0.5161  0.1470
  126MOL0     H16966   6.829   3.650   4.709  2.1433 -0.0574  0.1830
  126MOL0     H16967   6.870   3.486   4.654 -1.4994 -0.3287 -0.6948
  126MOL0     H16968   7.048   3.568   4.783 -1.2435  0.1605 -0.7961
  126MOL0     H16969   6.970   3.464   4.905  0.2876 -0.1026 -0.2060
  126MOL0     H16970   6.949   3.891   5.038 -1.0199 -1.0476  1.5419
  126MOL0     H16971   7.144   3.991   5.176 -0.5257  0.3290 -0.2871
  126MOL0     H16972   7.567   4.220   5.171 -1.7401  0.0182  0.2733
  126MOL0     H16973   7.766   4.282   5.281 -0.0374  0.2167  2.0113
  126MOL0     H16974   7.864   4.180   5.657  0.4016 -0.3219  0.0697
  126MOL0     H16975   7.932   4.021   5.585  0.4723  0.3318 -4.4047
  126MOL0     H16976   8.146   4.097   5.557  0.2645  1.6464 -3.3362
  126MOL0     H16977   8.089   4.261   5.537  1.3146  0.5258  1.8495
  126MOL0     H16978   8.207   4.274   5.743 -1.0428  1.5131  2.6424
  126MOL0     H16979   8.039   4.286   5.783  1.7368  1.1370  2.5099
  126MOL0     H16980   8.236   4.055   5.813  1.0699  2.8069 -1.8366
  126MOL0     H16981   8.065   4.012   5.788  0.3873  0.3692 -1.2810
  126MOL0     H16982   8.028   4.038   6.007 -0.2235  1.1848  1.3311
  126MOL0     H16983   8.041   4.213   5.976 -2.8707 -1.2735 -1.2286
  126MOL0     H16984   8.176   4.147   6.169 -1.0667 -0.8288 -0.0108
  126MOL0     H16985   8.289   4.046   6.067  0.5017  0.9276  0.0710
  126MOL0     H16986   8.233   4.346   6.048  0.4406  0.3691  0.1359
  126MOL0     H16987   8.330   4.252   5.944  2.8123  0.5810  0.4179
  126MOL0     H16988   8.486   4.182   6.126  1.3079  0.6088 -1.8686
  126MOL0     H16989   8.495   4.353   6.122 -1.5467  0.4127 -1.7421
  126MOL0     H16990   7.719   3.975   5.560 -2.5509 -0.0522  1.6207
  126MOL0     H16991   7.500   3.903   5.462 -1.5993  0.5307 -0.2642
  126MOL0     H16992   7.376   3.643   5.069 -0.5568 -0.6356  0.5710
  126MOL0     H16993   7.192   3.550   4.959 -0.1938 -0.1153  0.5991
  126MOL0     H16994   5.157   3.465   5.490  2.3045 -0.4669  0.1196
  126MOL0     H16995   4.973   3.610   5.430  0.2611 -0.2724  0.2064
  126MOL0     H16996   4.932   4.083   5.256 -0.4931  1.7315 -0.0637
  126MOL0     H16997   4.745   4.254   5.282  0.2369 -0.3507 -0.6111
  126MOL0     H16998   4.375   4.146   5.041 -1.3078 -2.0461  2.9700
  126MOL0     H16999   4.377   4.322   5.057 -2.6672 -0.7475 -0.5209
  126MOL0     H17000   4.187   4.247   5.162 -1.0972  2.1412  2.4974
  126MOL0     H17001   4.298   4.292   5.290 -0.9358 -1.0444  0.8742
  126MOL0     H17002   4.348   4.027   5.283  1.1261  0.7155 -1.1372
  126MOL0     H17003   4.203   4.019   5.176  0.1621  0.7731 -1.3796
  126MOL0     H17004   4.152   3.935   5.395 -2.6307  0.7511  1.3083
  126MOL0     H17005   4.188   4.103   5.460  1.7104  1.5633 -1.4898
  126MOL0     H17006   3.818   4.134   5.240  2.5127  3.1912 -2.0549
  126MOL0     H17007   4.491   3.987   5.073 -0.4824  2.2023 -0.7596
  126MOL0     H17008   4.551   3.760   5.087  0.9973 -0.1562 -0.4350
  126MOL0     H17009   4.679   3.759   4.956 -1.8137 -1.0100 -0.4491
  126MOL0     H17010   4.706   3.693   5.121 -2.4618 -2.7264  0.3815
  127MOL0     O17011   2.016   4.057  11.153  0.5635 -0.4804  0.1418
  127MOL0     C17012   2.004   4.133  11.250  0.5734  0.9676  0.4265
  127MOL0     O17013   2.085   4.232  11.291  0.6836 -0.0369 -0.2338
  127MOL0     C17014   2.187   4.273  11.210 -0.4347  0.5178 -0.2726
  127MOL0     C17015   2.156   4.338  11.081 -0.0945 -0.2814 -0.5711
  127MOL0     C17016   2.264   4.377  10.995 -0.5021 -0.3420  0.3975
  127MOL0     C17017   2.395   4.341  11.035  0.3860 -0.3252 -0.1541
  127MOL0     O17018   2.506   4.377  10.972 -0.2936 -0.3576  0.2092
  127MOL0     C17019   2.497   4.408  10.828  0.2446 -0.9694 -0.1400
  127MOL0     C17020   2.443   4.302  10.733 -0.1918 -0.1820 -0.1646
  127MOL0     C17021   2.557   4.209  10.670 -0.3587 -0.3572  0.0807
  127MOL0     C17022   2.492   4.093  10.593 -0.0723 -0.6687 -0.0093
  127MOL0     C17023   2.580   4.017  10.489  0.8373 -0.3913 -0.1094
  127MOL0     C17024   2.715   3.991  10.539  0.0595 -0.0841 -0.1937
  127MOL0     C17025   2.790   3.891  10.456  0.2615 -0.1915  0.2959
  127MOL0     C17026   2.880   3.798  10.542  0.1532 -0.2237 -0.4267
  127MOL0     N17027   2.993   3.878  10.605  0.3070  0.3360 -0.1842
  127MOL0     C17028   3.093   3.938  10.531 -0.0015  0.3315  0.6998
  127MOL0     C17029   3.164   4.018  10.616 -0.5260  0.3233  0.6451
  127MOL0     C17030   3.283   4.109  10.601  0.0534  0.0612 -0.2174
  127MOL0     C17031   3.279   4.155  10.453  0.1968 -0.4677 -0.3500
  127MOL0     C17032   3.352   4.296  10.438 -0.7115 -0.8947  0.2777
  127MOL0     C17033   3.504   4.289  10.468 -0.6299 -0.1946 -0.6623
  127MOL0     O17034   3.562   4.198  10.371  0.4114  0.4431 -0.6377
  127MOL0     C17035   3.698   4.173  10.377 -0.1851 -0.6561 -0.3802
  127MOL0     C17036   3.739   4.077  10.288 -0.0917  0.6300  0.7557
  127MOL0     C17037   3.871   4.034  10.271 -0.6743 -0.1120 -0.4166
  127MOL0     C17038   3.967   4.108  10.347 -0.2616 -1.3878 -0.5233
  127MOL0     C17039   4.106   4.086  10.326  0.7670 -0.7685  0.4564
  127MOL0     O17040   4.142   4.069  10.195  0.1186 -0.1838  1.0933
  127MOL0     C17041   4.281   4.041  10.180  0.1948  0.1674 -0.6572
  127MOL0     C17042   4.360   3.952  10.258 -0.2370  1.0727 -0.1337
  127MOL0     C17043   4.490   3.923  10.229 -0.4899 -0.9811  0.9783
  127MOL0     C17044   4.548   3.987  10.117  0.1155  1.4795  0.0175
  127MOL0     O17045   4.680   3.960  10.093  0.4241  0.4067  0.6986
  127MOL0     C17046   4.744   4.041  10.000 -0.2547 -1.4902  1.4016
  127MOL0     C17047   4.890   4.016  10.012  0.3348  1.2824  0.4098
  127MOL0     C17048   4.929   4.061  10.145 -0.6524 -0.9629 -0.1033
  127MOL0     C17049   5.079   4.058  10.161 -0.6523  0.1597 -0.3334
  127MOL0     C17050   5.119   3.922  10.219  0.2170  0.2377  0.4112
  127MOL0     C17051   5.263   3.879  10.219 -0.0118 -0.2323  0.3844
  127MOL0     C17052   5.281   3.747  10.292 -0.7103 -0.6902 -0.2774
  127MOL0     C17053   5.364   3.657  10.194 -0.4349  0.0067  0.4119
  127MOL0    Cl17054   5.533   3.733  10.176 -0.1162 -0.1482 -0.2164
  127MOL0     C17055   4.463   4.059  10.027 -0.9143  0.5008  0.3791
  127MOL0     C17056   4.331   4.085  10.056  0.0291  0.3162 -0.4893
  127MOL0     O17057   4.183   4.086  10.422 -0.4743 -0.1058  0.3848
  127MOL0     C17058   3.930   4.217  10.432  0.0557 -0.4194 -0.4815
  127MOL0     C17059   3.794   4.250  10.437  0.2444  0.6017 -0.1007
  127MOL0     N17060   3.104   3.996  10.739  0.2166  0.4620 -0.3009
  127MOL0     N17061   3.002   3.919  10.731 -0.0207 -0.1071 -0.6834
  127MOL0     C17062   2.420   4.281  11.155 -0.0732  0.4300 -0.7318
  127MOL0     C17063   2.318   4.247  11.243  0.2227  0.6111 -0.0251
  127MOL0     C17064   1.878   4.110  11.324  0.2816 -0.6826  0.3783
  127MOL0     C17065   1.825   4.227  11.393  0.0653 -0.7455 -0.4818
  127MOL0     C17066   1.698   4.220  11.453  0.1571  0.0878 -0.1871
  127MOL0     C17067   1.628   4.101  11.457 -0.3350 -0.5937 -0.5662
  127MOL0     O17068   1.511   4.085  11.530  0.4070 -0.3057  0.2609
  127MOL0     C17069   1.382   4.077  11.468  0.1440  0.2383  0.7040
  127MOL0     C17070   1.305   3.950  11.520 -0.0291 -0.3205 -0.0807
  127MOL0     C17071   1.381   3.822  11.560 -0.2361  0.3079  0.4251
  127MOL0     C17072   1.274   3.718  11.619  0.2636 -0.7570  0.3069
  127MOL0     C17073   1.181   3.673  11.513  0.1063 -0.0101  0.0797
  127MOL0     C17074   1.098   3.629  11.428  0.1498 -0.3687 -0.2445
  127MOL0     C17075   1.673   3.993  11.385 -0.1527  0.8148  0.4401
  127MOL0     C17076   1.791   3.996  11.310 -0.3985 -0.6478  0.6968
  127MOL0     C17077   1.819   3.875  11.218 -0.0726 -0.0366  0.6281
  127MOL0     H17078   2.055   4.349  11.044 -2.4227 -1.5589  4.5154
  127MOL0     H17079   2.237   4.428  10.904  0.0159  1.5181  1.2453
  127MOL0     H17080   2.456   4.508  10.815  0.2316 -1.2804 -3.2702
  127MOL0     H17081   2.600   4.421  10.793  0.2587  1.3198  0.5963
  127MOL0     H17082   2.392   4.362  10.657  0.8538  0.1626 -0.6094
  127MOL0     H17083   2.378   4.229  10.782 -1.7971 -0.6396 -2.7870
  127MOL0     H17084   2.628   4.170  10.744 -0.6042  0.6637  0.8848
  127MOL0     H17085   2.626   4.255  10.600 -0.0836  1.3978  1.4280
  127MOL0     H17086   2.460   4.016  10.664  1.4633 -0.3207  1.1096
  127MOL0     H17087   2.404   4.137  10.545 -1.4652  2.0060  4.3378
  127MOL0     H17088   2.539   3.917  10.472  2.6452 -1.2097  0.1800
  127MOL0     H17089   2.575   4.085  10.403  0.5146  3.6319  2.8326
  127MOL0     H17090   2.771   4.085  10.535 -1.0424  0.5410 -1.6135
  127MOL0     H17091   2.706   3.953  10.642  2.9184  0.1541  0.2338
  127MOL0     H17092   2.851   3.952  10.389 -1.1654 -0.3908 -1.2545
  127MOL0     H17093   2.727   3.822  10.399  2.0116 -2.5518  1.0293
  127MOL0     H17094   2.821   3.757  10.624 -0.4029  2.5679  0.6807
  127MOL0     H17095   2.927   3.726  10.474  4.2704 -0.2872  2.1551
  127MOL0     H17096   3.108   3.922  10.425  1.4752 -0.0885  0.9546
  127MOL0     H17097   3.263   4.196  10.664 -3.3746  0.4676 -1.6411
  127MOL0     H17098   3.374   4.056  10.630 -0.7526 -0.8766  0.6604
  127MOL0     H17099   3.330   4.085  10.386 -0.1850 -2.3315  1.2246
  127MOL0     H17100   3.179   4.180  10.416  0.1172  1.5959  1.0533
  127MOL0     H17101   3.297   4.365  10.502 -1.6451  0.9491 -2.3111
  127MOL0     H17102   3.346   4.338  10.337  0.5244  1.7213  1.2263
  127MOL0     H17103   3.506   4.257  10.573 -2.4973 -0.1708 -0.5781
  127MOL0     H17104   3.551   4.386  10.451 -1.4836  0.0852 -1.4792
  127MOL0     H17105   3.654   4.031  10.238  0.2572 -0.2977  1.0083
  127MOL0     H17106   3.904   3.954  10.206 -1.7735 -1.4230  0.5954
  127MOL0     H17107   4.332   3.910  10.354  0.3479  1.3168  0.1499
  127MOL0     H17108   4.557   3.867  10.294 -0.8618 -1.6922  0.7560
  127MOL0     H17109   4.723   4.021   9.895  1.6971  1.1112  0.4143
  127MOL0     H17110   4.716   4.144  10.022  2.2530 -0.7046  1.3033
  127MOL0     H17111   4.920   3.912  10.002 -0.2568  1.0473  1.0301
  127MOL0     H17112   4.940   4.074   9.934 -2.7171  3.1068 -0.3646
  127MOL0     H17113   4.899   4.166  10.151  1.2428 -0.0836 -3.2599
  127MOL0     H17114   4.875   4.011  10.226 -1.2651 -0.6568 -0.3144
  127MOL0     H17115   5.117   4.135  10.229 -1.0906  0.2467 -0.1791
  127MOL0     H17116   5.135   4.084  10.071  0.6492 -1.1336  0.0660
  127MOL0     H17117   5.064   3.841  10.170 -0.9430  1.4969 -0.4315
  127MOL0     H17118   5.079   3.899  10.318  1.3515 -2.6717  0.3013
  127MOL0     H17119   5.273   3.870  10.111 -2.4068 -0.1138  0.1005
  127MOL0     H17120   5.328   3.963  10.248  0.8748 -0.3800 -1.0671
  127MOL0     H17121   5.185   3.694  10.301 -1.1143 -0.0521 -0.7011
  127MOL0     H17122   5.321   3.764  10.392 -2.3638  0.2939  0.2605
  127MOL0     H17123   5.367   3.552  10.223  3.9052 -0.9847 -2.6760
  127MOL0     H17124   5.302   3.656  10.103 -2.0082  2.2618  1.3604
  127MOL0     H17125   4.499   4.100   9.933  0.6196 -0.1066  0.6676
  127MOL0     H17126   4.261   4.132   9.988 -0.0048 -0.4675 -1.0122
  127MOL0     H17127   4.010   4.278  10.474  0.7824 -0.3329 -1.9327
  127MOL0     H17128   3.760   4.336  10.494 -0.4242 -0.2453  0.8066
  127MOL0     H17129   2.516   4.252  11.196 -0.7303  0.2600  0.7303
  127MOL0     H17130   2.349   4.205  11.338  1.6721  1.6770 -0.0023
  127MOL0     H17131   1.885   4.318  11.399 -0.1922 -0.5332 -1.0325
  127MOL0     H17132   1.648   4.307  11.494 -0.2311 -0.8895  1.5096
  127MOL0     H17133   1.398   4.065  11.360  0.8744  1.4382  0.6665
  127MOL0     H17134   1.316   4.162  11.484  0.8049  0.6532  1.2635
  127MOL0     H17135   1.238   3.927  11.437  0.8647 -0.8421 -0.6690
  127MOL0     H17136   1.235   3.990  11.593 -3.1146  3.1671 -4.3931
  127MOL0     H17137   1.461   3.837  11.632  2.3147 -2.4945 -1.5889
  127MOL0     H17138   1.436   3.774  11.479  0.7572 -0.5058  1.5480
  127MOL0     H17139   1.330   3.633  11.659  0.4224 -0.4830  0.6676
  127MOL0     H17140   1.223   3.770  11.700 -0.4020 -0.3910 -0.3331
  127MOL0     H17141   1.028   3.604  11.352  0.6331  0.5166 -1.0005
  127MOL0     H17142   1.607   3.907  11.388 -1.5427  1.8035 -0.6853
  127MOL0     H17143   1.747   3.794  11.231  1.4590 -1.3233  1.2980
  127MOL0     H17144   1.828   3.922  11.120 -3.6193  0.2989  0.3158
  127MOL0     H17145   1.910   3.827  11.253 -0.2955 -1.5751 -0.7945
  128MOL0     O17146   6.704   0.077   1.616  0.5583  0.2961 -0.2946
  128MOL0     C17147   6.694   0.108   1.498  0.0021  0.4587  0.1890
  128MOL0     O17148   6.747   0.031   1.398  0.4154 -0.0124 -0.1894
  128MOL0     C17149   6.849  -0.061   1.426 -0.5548 -0.1730 -0.3194
  128MOL0     C17150   6.835  -0.159   1.522 -0.5509  0.6143  0.8722
  128MOL0     C17151   6.940  -0.249   1.551 -0.1664  0.2829  0.3794
  128MOL0     C17152   7.064  -0.233   1.485  0.0303  0.7334  0.5032
  128MOL0     O17153   7.179  -0.318   1.493 -0.8670  0.3850  0.8005
  128MOL0     C17154   7.200  -0.368   1.632  0.6859 -0.3868 -0.0092
  128MOL0     C17155   7.310  -0.467   1.643  0.1433  0.4145 -0.4195
  128MOL0     C17156   7.351  -0.514   1.777 -0.7031 -0.0158  0.4169
  128MOL0     C17157   7.409  -0.401   1.863 -0.0511  0.5564 -0.3407
  128MOL0     C17158   7.468  -0.448   1.990  0.3579 -0.2918  0.4476
  128MOL0     C17159   7.487  -0.331   2.084 -0.6306 -0.0962  0.5955
  128MOL0     C17160   7.576  -0.362   2.207 -0.3863  0.5820 -1.3229
  128MOL0     C17161   7.537  -0.492   2.274 -0.4708  0.2511 -0.0698
  128MOL0     N17162   7.655  -0.551   2.333  0.0755  0.6309 -0.3970
  128MOL0     C17163   7.720  -0.500   2.447 -1.0786  0.5036 -1.8699
  128MOL0     C17164   7.853  -0.544   2.451 -0.5365  0.6624 -0.3998
  128MOL0     C17165   7.964  -0.526   2.558 -0.4867  0.3143 -0.2620
  128MOL0     C17166   7.925  -0.613   2.680 -0.8222 -0.1969  0.2186
  128MOL0     C17167   8.030  -0.606   2.795 -0.1235 -0.4784 -0.0011
  128MOL0     C17168   8.053  -0.461   2.858 -1.3196  0.1540 -0.8675
  128MOL0     O17169   8.122  -0.379   2.762  0.3306 -0.4239  0.2325
  128MOL0     C17170   8.256  -0.401   2.742 -0.9896 -0.2363  0.3816
  128MOL0     C17171   8.324  -0.318   2.658 -0.3413 -0.4887  0.0095
  128MOL0     C17172   8.455  -0.330   2.624 -0.3779  0.4723 -0.1243
  128MOL0     C17173   8.538  -0.425   2.679  0.4677  0.4150 -0.2598
  128MOL0     C17174   8.689  -0.446   2.655 -0.0609 -0.2403 -0.2737
  128MOL0     O17175   8.758  -0.533   2.734  0.6443 -0.5839 -0.4603
  128MOL0     C17176   8.885  -0.565   2.729  0.5152  0.6209 -0.6278
  128MOL0     C17177   8.976  -0.529   2.632 -0.4056  0.3625 -0.2796
  128MOL0     C17178   9.106  -0.582   2.632 -0.2034  0.2511  0.4239
  128MOL0     C17179   9.146  -0.682   2.721 -0.4180  0.5727 -0.3328
  128MOL0     O17180   9.272  -0.740   2.733  0.1079  0.3906 -0.1519
  128MOL0     C17181   9.385  -0.710   2.648  0.9986  0.3475  0.0490
  128MOL0     C17182   9.498  -0.783   2.711 -0.1121  0.2513  1.5463
  128MOL0     C17183   9.631  -0.777   2.643 -0.2756 -0.0592 -0.0597
  128MOL0     C17184   9.738  -0.689   2.717  0.1925  0.2568  0.0309
  128MOL0     C17185   9.851  -0.642   2.629  1.0983  0.2370 -0.3346
  128MOL0     C17186   9.947  -0.756   2.586 -0.6970 -0.1672  0.0806
  128MOL0     C17187  10.067  -0.685   2.523 -0.1207 -0.1933 -0.1457
  128MOL0     C17188  10.188  -0.781   2.496 -0.4978  0.2709  0.3727
  128MOL0    Cl17189  10.134  -0.901   2.368 -0.0109 -0.2950  0.2368
  128MOL0     C17190   9.055  -0.708   2.822  0.4269  0.4144  0.3627
  128MOL0     C17191   8.924  -0.653   2.828  0.0249 -0.0669 -0.9996
  128MOL0     O17192   8.738  -0.392   2.554  0.4795 -0.1155  0.2112
  128MOL0     C17193   8.478  -0.509   2.779  0.1090 -0.0486  0.4157
  128MOL0     C17194   8.339  -0.500   2.807 -0.3453 -0.4679  0.0468
  128MOL0     N17195   7.865  -0.624   2.336  0.7320 -0.1013  0.3557
  128MOL0     N17196   7.751  -0.625   2.271 -0.3352  0.4429 -0.4235
  128MOL0     C17197   7.075  -0.134   1.386 -0.1578 -0.8651  0.3970
  128MOL0     C17198   6.970  -0.045   1.359 -0.1025  0.0209 -0.3733
  128MOL0     C17199   6.611   0.218   1.462  0.2545 -0.2790 -0.7535
  128MOL0     C17200   6.600   0.249   1.321 -0.3879 -0.7848 -0.9397
  128MOL0     C17201   6.506   0.349   1.285 -0.0352  0.5995 -0.2195
  128MOL0     C17202   6.421   0.414   1.369 -0.7508  0.1127 -0.0940
  128MOL0     O17203   6.340   0.508   1.319 -0.0169  0.5165  0.7909
  128MOL0     C17204   6.210   0.524   1.384 -0.2446 -0.5960  0.2559
  128MOL0     C17205   6.104   0.591   1.290 -0.0154 -0.4700  0.5016
  128MOL0     C17206   6.102   0.743   1.316 -0.2565 -0.5574 -0.2365
  128MOL0     C17207   6.028   0.819   1.207  0.0602  0.1823  0.2547
  128MOL0     C17208   5.883   0.775   1.193  0.3766  0.9649 -0.7824
  128MOL0     C17209   5.766   0.750   1.178 -0.9039 -0.7604 -0.3486
  128MOL0     C17210   6.430   0.377   1.502 -0.1897 -1.0906 -0.1130
  128MOL0     C17211   6.520   0.285   1.553 -0.4811  0.3257 -0.0225
  128MOL0     C17212   6.534   0.271   1.705 -0.3628  0.1918 -0.4748
  128MOL0     H17213   6.736  -0.177   1.564 -2.4327  2.8065 -2.2109
  128MOL0     H17214   6.906  -0.335   1.607 -0.6630  1.3491  1.7558
  128MOL0     H17215   7.226  -0.277   1.686 -2.8590 -0.3377  1.9216
  128MOL0     H17216   7.108  -0.408   1.677 -1.0337  0.3623 -2.6172
  128MOL0     H17217   7.391  -0.426   1.582  0.7965  4.3660  2.6852
  128MOL0     H17218   7.271  -0.560   1.600  0.1247  1.0561 -1.8454
  128MOL0     H17219   7.421  -0.597   1.766 -2.0600 -1.5253  2.3996
  128MOL0     H17220   7.268  -0.560   1.831 -0.8802  0.2044  0.3337
  128MOL0     H17221   7.468  -0.332   1.801  0.2374  0.7759  0.1703
  128MOL0     H17222   7.320  -0.348   1.897  0.9860  2.2948 -0.2117
  128MOL0     H17223   7.394  -0.520   2.026  0.8506 -0.7557  0.5454
  128MOL0     H17224   7.562  -0.501   1.970 -0.5156 -1.4893 -0.6081
  128MOL0     H17225   7.538  -0.249   2.033  0.1669  0.0327  1.5529
  128MOL0     H17226   7.395  -0.283   2.117 -1.9329 -2.6685  0.9542
  128MOL0     H17227   7.570  -0.286   2.285 -0.1109  1.4817 -2.1649
  128MOL0     H17228   7.678  -0.369   2.168  0.0891  3.1382 -0.7028
  128MOL0     H17229   7.459  -0.468   2.346  0.0533  2.1279 -0.0791
  128MOL0     H17230   7.494  -0.569   2.209  0.2613  0.1434 -0.4403
  128MOL0     H17231   7.669  -0.439   2.521 -0.5209 -0.2597 -0.8321
  128MOL0     H17232   8.057  -0.561   2.514  0.7342  0.4596  2.0752
  128MOL0     H17233   7.976  -0.418   2.575 -2.0732  0.7273 -1.4987
  128MOL0     H17234   7.826  -0.579   2.710 -1.3495 -0.7060 -0.8814
  128MOL0     H17235   7.929  -0.715   2.640  3.0230 -1.1920  2.6135
  128MOL0     H17236   8.127  -0.645   2.763  0.4758 -0.7863  2.0626
  128MOL0     H17237   7.993  -0.668   2.877  2.6486 -0.9742  0.9818
  128MOL0     H17238   8.096  -0.462   2.958 -2.8434 -0.7475 -0.1909
  128MOL0     H17239   7.954  -0.420   2.880  0.3326  3.2839  1.4742
  128MOL0     H17240   8.273  -0.234   2.610 -0.2618 -1.0012 -1.0087
  128MOL0     H17241   8.481  -0.254   2.550 -1.0639 -1.7086 -2.7640
  128MOL0     H17242   8.958  -0.454   2.556 -1.3036 -0.7547 -1.1996
  128MOL0     H17243   9.180  -0.546   2.561 -0.4573 -0.6185 -0.3098
  128MOL0     H17244   9.359  -0.741   2.546 -0.7309  1.1646  0.1915
  128MOL0     H17245   9.395  -0.601   2.644  0.5195  0.4294 -3.9488
  128MOL0     H17246   9.514  -0.754   2.815  0.3283 -1.0238  1.8483
  128MOL0     H17247   9.478  -0.890   2.720  3.5013 -1.0120 -2.1405
  128MOL0     H17248   9.672  -0.877   2.626 -2.6688 -1.0165 -0.7077
  128MOL0     H17249   9.620  -0.746   2.538  1.0201 -0.7175 -0.4094
  128MOL0     H17250   9.773  -0.749   2.801 -2.0501 -3.0336 -1.1651
  128MOL0     H17251   9.681  -0.605   2.758 -0.7620 -0.1476 -0.4086
  128MOL0     H17252   9.897  -0.565   2.692 -1.9769  1.3708  0.7448
  128MOL0     H17253   9.804  -0.594   2.543 -0.7967 -0.4278  0.2694
  128MOL0     H17254   9.990  -0.819   2.664  1.9160  0.3556 -0.8563
  128MOL0     H17255   9.896  -0.829   2.521 -1.5428  0.7226 -0.2736
  128MOL0     H17256  10.108  -0.605   2.586 -0.2477 -1.1410  1.1887
  128MOL0     H17257  10.051  -0.636   2.427  0.2063  1.3250  0.5400
  128MOL0     H17258  10.268  -0.728   2.443  0.7526 -0.8616  1.0985
  128MOL0     H17259  10.224  -0.841   2.580  0.1786 -1.5183 -1.1466
  128MOL0     H17260   9.077  -0.776   2.903 -2.0842  1.5927  2.1838
  128MOL0     H17261   8.867  -0.683   2.916  1.4282  1.0242  0.3469
  128MOL0     H17262   8.548  -0.563   2.841  1.0541  0.3561 -0.2746
  128MOL0     H17263   8.301  -0.560   2.889  2.4590 -2.1186  0.2724
  128MOL0     H17264   7.173  -0.126   1.339  0.0773 -1.7871  0.7153
  128MOL0     H17265   6.978   0.043   1.296 -2.7257 -1.1940 -2.6264
  128MOL0     H17266   6.665   0.200   1.249 -1.8182 -1.2516 -1.9498
  128MOL0     H17267   6.508   0.374   1.180 -2.1450 -1.2436 -0.7665
  128MOL0     H17268   6.225   0.584   1.474  2.1450 -1.8527  0.7793
  128MOL0     H17269   6.172   0.425   1.409  0.2628 -0.7619  0.3676
  128MOL0     H17270   6.008   0.548   1.320 -1.0459 -0.2057 -2.1726
  128MOL0     H17271   6.128   0.570   1.186 -1.4958 -2.4354  0.4940
  128MOL0     H17272   6.205   0.780   1.314 -0.4517  0.2023  1.6707
  128MOL0     H17273   6.045   0.750   1.409 -0.6343 -0.0549 -0.5024
  128MOL0     H17274   6.031   0.926   1.230 -1.2428  0.4732 -0.7831
  128MOL0     H17275   6.076   0.801   1.111  0.0133  2.0234 -0.1569
  128MOL0     H17276   5.664   0.745   1.147 -0.9120 -1.0913 -0.2759
  128MOL0     H17277   6.367   0.428   1.575 -1.0589 -1.7460 -0.3825
  128MOL0     H17278   6.466   0.335   1.761  1.6558  0.3993  1.8730
  128MOL0     H17279   6.502   0.169   1.727 -0.5010  0.1017 -1.0576
  128MOL0     H17280   6.635   0.297   1.736 -0.1673 -2.3253  1.3259
  129MOL0     O17281   6.537   9.721   8.694 -0.3136 -0.3565 -0.1173
  129MOL0     C17282   6.523   9.613   8.647 -0.6555 -0.1757 -0.4117
  129MOL0     O17283   6.620   9.534   8.598  0.0864  0.4312 -0.4711
  129MOL0     C17284   6.736   9.591   8.551 -1.4284 -0.1182  0.6977
  129MOL0     C17285   6.858   9.577   8.621 -0.0833 -0.3766  0.9798
  129MOL0     C17286   6.983   9.608   8.562  0.3886 -0.0850 -0.1905
  129MOL0     C17287   6.985   9.670   8.434 -0.5754 -0.0488 -0.0692
  129MOL0     O17288   7.111   9.695   8.389  0.4843 -0.1465 -0.3397
  129MOL0     C17289   7.115   9.775   8.269 -0.3674 -0.2326 -0.1959
  129MOL0     C17290   7.270   9.780   8.234 -0.3481  0.1682  0.1257
  129MOL0     C17291   7.317   9.861   8.108  0.0304 -0.8728 -0.4463
  129MOL0     C17292   7.272  10.011   8.098 -0.0998 -0.7380 -0.0765
  129MOL0     C17293   7.354  10.084   7.980 -0.4408 -0.1379  0.0467
  129MOL0     C17294   7.446  10.197   8.028 -0.1242  0.4823  0.5552
  129MOL0     C17295   7.521  10.268   7.916  0.5244  0.1662 -0.0276
  129MOL0     C17296   7.421  10.336   7.829  0.2636 -0.9689 -0.3383
  129MOL0     N17297   7.478  10.442   7.747 -0.2014 -0.5461  0.1426
  129MOL0     C17298   7.540  10.558   7.792 -0.1714 -0.5645  0.2310
  129MOL0     C17299   7.591  10.617   7.678  0.4837 -0.4182  0.1593
  129MOL0     C17300   7.679  10.738   7.675  0.4883 -0.4456 -0.0482
  129MOL0     C17301   7.828  10.715   7.664  0.2148 -0.4347  0.4937
  129MOL0     C17302   7.869  10.687   7.515  0.4128  0.3419  0.0485
  129MOL0     C17303   8.017  10.724   7.484 -0.2691  0.3693 -0.1503
  129MOL0     O17304   8.100  10.609   7.514  0.2349 -0.2174  0.0016
  129MOL0     C17305   8.238  10.622   7.519  0.1018  0.8473 -0.3776
  129MOL0     C17306   8.307  10.535   7.609 -0.7694 -0.1282  0.3249
  129MOL0     C17307   8.445  10.548   7.596  0.2614 -0.1763 -1.1117
  129MOL0     C17308   8.519  10.645   7.521  0.3663 -0.0342 -0.5893
  129MOL0     C17309   8.667  10.637   7.516  0.1097  0.1895  0.1685
  129MOL0     O17310   8.730  10.734   7.437 -0.4745 -0.2746 -0.1827
  129MOL0     C17311   8.866  10.746   7.438  0.9475  0.6233 -0.4350
  129MOL0     C17312   8.937  10.740   7.313 -0.0300 -0.3923 -0.2872
  129MOL0     C17313   9.078  10.754   7.315  1.0239 -0.2694 -0.0926
  129MOL0     C17314   9.144  10.773   7.434 -1.8446  0.1198 -1.0462
  129MOL0     O17315   9.284  10.780   7.430  0.0737 -0.5668 -0.2202
  129MOL0     C17316   9.355  10.813   7.309  0.4655 -0.2421  0.7915
  129MOL0     C17317   9.500  10.828   7.347 -0.7521 -0.1120  0.0405
  129MOL0     C17318   9.519  10.976   7.371 -0.7488  0.5535  0.0065
  129MOL0     C17319   9.668  11.003   7.426 -0.1118  0.2618  0.1458
  129MOL0     C17320   9.769  11.037   7.315 -0.5625 -0.2624 -0.3603
  129MOL0     C17321   9.903  11.084   7.362 -0.0567 -0.4556 -0.1758
  129MOL0     C17322  10.013  11.041   7.252 -0.1773 -0.3844  0.0171
  129MOL0     C17323  10.152  11.068   7.310 -0.8363  0.3154  0.0384
  129MOL0    Cl17324  10.165  11.248   7.342  0.0563  0.0189 -0.2960
  129MOL0     C17325   9.078  10.765   7.556 -0.1015  0.0382  0.0800
  129MOL0     C17326   8.940  10.748   7.557  0.1224 -0.4675  0.7019
  129MOL0     O17327   8.722  10.551   7.583 -0.0639  0.2259  0.4425
  129MOL0     C17328   8.438  10.718   7.429  0.2085 -0.8639 -0.2617
  129MOL0     C17329   8.295  10.713   7.431 -0.0127 -0.6028  0.3209
  129MOL0     N17330   7.554  10.539   7.570 -0.1190 -0.0028  0.0501
  129MOL0     N17331   7.499  10.428   7.612  0.0783  0.1483 -0.1384
  129MOL0     C17332   6.866   9.695   8.366  0.2932  0.1825  0.7330
  129MOL0     C17333   6.745   9.655   8.422  0.6070  0.1995 -0.2134
  129MOL0     C17334   6.397   9.544   8.644 -0.3114  0.5916  1.3073
  129MOL0     C17335   6.376   9.458   8.530  0.5053  0.6854  0.5557
  129MOL0     C17336   6.251   9.399   8.502 -0.1546  1.0655 -0.2044
  129MOL0     C17337   6.154   9.412   8.596  0.2884  0.7750 -0.3987
  129MOL0     O17338   6.025   9.359   8.566 -0.4207  0.0296 -0.6497
  129MOL0     C17339   5.938   9.449   8.495 -0.1796  0.8391  0.0366
  129MOL0     C17340   5.890   9.567   8.575 -0.6334  0.0333 -0.4428
  129MOL0     C17341   5.780   9.537   8.678 -0.3828  0.0503 -0.2685
  129MOL0     C17342   5.637   9.572   8.621 -0.2796 -0.3855  1.0259
  129MOL0     C17343   5.532   9.546   8.722  0.0597 -0.4693 -0.7574
  129MOL0     C17344   5.463   9.531   8.817  0.8444 -0.8079  0.7809
  129MOL0     C17345   6.173   9.471   8.713  0.4657 -0.3181 -0.1597
  129MOL0     C17346   6.287   9.549   8.730  0.5335  0.2086  0.7275
  129MOL0     C17347   6.295   9.626   8.855  0.0919 -0.0697  0.1902
  129MOL0     H17348   6.864   9.519   8.713  0.4110  0.1684  1.3039
  129MOL0     H17349   7.076   9.582   8.612  1.1775  1.0136 -1.0416
  129MOL0     H17350   7.066   9.708   8.197 -2.6314  0.4798  0.5830
  129MOL0     H17351   7.069   9.873   8.285  1.2922  0.2029  2.4908
  129MOL0     H17352   7.319   9.683   8.225  0.4920  0.6527 -0.6749
  129MOL0     H17353   7.329   9.816   8.319 -0.5929 -2.1788  1.3854
  129MOL0     H17354   7.281   9.819   8.014 -0.6394  0.5959 -0.8820
  129MOL0     H17355   7.426   9.855   8.107  0.1697 -0.0919  2.1554
  129MOL0     H17356   7.163  10.009   8.083  0.1989 -0.9804 -2.5414
  129MOL0     H17357   7.273  10.053   8.199  0.4432  0.0540 -0.4063
  129MOL0     H17358   7.419  10.021   7.918 -1.1267  0.4217 -1.2625
  129MOL0     H17359   7.279  10.121   7.910 -0.2982 -0.8343 -0.4839
  129MOL0     H17360   7.388  10.277   8.076 -0.5382  1.5667 -1.5848
  129MOL0     H17361   7.521  10.144   8.087 -1.8435 -0.3890  2.0440
  129MOL0     H17362   7.592  10.206   7.860  2.0504  2.4206 -0.7163
  129MOL0     H17363   7.581  10.352   7.952  4.5179 -2.0534 -0.8982
  129MOL0     H17364   7.377  10.254   7.770 -3.5836 -0.5591  1.6777
  129MOL0     H17365   7.353  10.381   7.902  2.3726 -0.6724  1.5452
  129MOL0     H17366   7.549  10.597   7.892  0.7916  0.5333 -0.2649
  129MOL0     H17367   7.655  10.802   7.590  0.0353 -0.3973  0.1154
  129MOL0     H17368   7.664  10.795   7.767  0.4846 -2.2391  1.1184
  129MOL0     H17369   7.877  10.809   7.692 -0.9208  0.1838  0.4701
  129MOL0     H17370   7.866  10.635   7.728  2.3805  1.9082  2.3813
  129MOL0     H17371   7.806  10.747   7.448 -2.7448 -1.8477  0.8312
  129MOL0     H17372   7.857  10.580   7.495  1.6761  0.1544  0.2226
  129MOL0     H17373   8.043  10.814   7.540  0.3691 -0.4353  0.8752
  129MOL0     H17374   8.024  10.748   7.377  1.3871 -0.6049 -0.3055
  129MOL0     H17375   8.247  10.461   7.661 -0.8073 -0.8388 -0.7104
  129MOL0     H17376   8.497  10.471   7.654  0.1607 -0.0102 -0.7963
  129MOL0     H17377   8.885  10.717   7.220  0.6139 -1.2439 -0.4554
  129MOL0     H17378   9.131  10.744   7.221  1.1943  2.3285 -0.3483
  129MOL0     H17379   9.348  10.737   7.232 -1.8277  0.5010  0.2147
  129MOL0     H17380   9.308  10.908   7.283  0.1583 -0.5054  0.3843
  129MOL0     H17381   9.530  10.765   7.431  0.6671 -0.4684 -0.7052
  129MOL0     H17382   9.569  10.801   7.266 -0.1969 -1.4743  0.9493
  129MOL0     H17383   9.516  11.023   7.272  3.7493 -1.5165 -1.3535
  129MOL0     H17384   9.447  11.017   7.443  1.1534  0.8428  1.8317
  129MOL0     H17385   9.696  10.915   7.483 -2.5187 -1.7493 -1.5305
  129MOL0     H17386   9.680  11.084   7.499  1.6756 -0.1412  0.3257
  129MOL0     H17387   9.733  11.124   7.260 -1.3219  0.2304  0.8888
  129MOL0     H17388   9.774  10.955   7.242 -1.0575  0.1960 -0.9156
  129MOL0     H17389   9.893  11.191   7.380 -1.8369 -0.4970 -0.7224
  129MOL0     H17390   9.930  11.045   7.461 -2.1622  2.2324  1.5898
  129MOL0     H17391  10.017  11.104   7.163  0.2168  1.3521  1.2095
  129MOL0     H17392   9.999  10.942   7.207 -0.4697  0.5541 -2.0679
  129MOL0     H17393  10.170  11.011   7.402  4.7454  0.6691 -0.4563
  129MOL0     H17394  10.230  11.051   7.235 -0.9146  1.9576 -0.4435
  129MOL0     H17395   9.130  10.751   7.650  1.3482 -0.1294 -0.7056
  129MOL0     H17396   8.888  10.737   7.652  1.2614 -0.4619  1.3453
  129MOL0     H17397   8.487  10.785   7.360 -1.4236 -0.9310 -1.5242
  129MOL0     H17398   8.237  10.767   7.357 -2.4654 -1.3388  1.6098
  129MOL0     H17399   6.868   9.745   8.270  0.3484 -2.3711 -0.6893
  129MOL0     H17400   6.651   9.673   8.373 -0.0682 -0.5367  0.7744
  129MOL0     H17401   6.445   9.464   8.447 -0.5796  1.3603 -0.3187
  129MOL0     H17402   6.225   9.341   8.414 -0.6148 -1.7865  1.6653
  129MOL0     H17403   5.844   9.399   8.469  0.9229 -0.7066 -1.1439
  129MOL0     H17404   5.990   9.486   8.406 -0.9703  3.8688  0.7411
  129MOL0     H17405   5.860   9.642   8.501  1.6799  1.1627 -0.3304
  129MOL0     H17406   5.975   9.611   8.628 -1.3878 -0.4965  1.2891
  129MOL0     H17407   5.804   9.603   8.762 -0.2651 -0.7244  0.3081
  129MOL0     H17408   5.773   9.435   8.715  0.0645  0.5787  1.3823
  129MOL0     H17409   5.639   9.676   8.587 -0.6173 -1.0879 -1.2618
  129MOL0     H17410   5.629   9.518   8.527  0.8804 -2.4444  2.0360
  129MOL0     H17411   5.397   9.526   8.901  2.0716 -2.3938  1.6919
  129MOL0     H17412   6.100   9.464   8.792 -0.5935  2.0033 -0.8230
  129MOL0     H17413   6.192   9.650   8.884 -0.1359 -1.1734  0.3477
  129MOL0     H17414   6.336   9.562   8.933  1.1136  0.3492  0.0115
  129MOL0     H17415   6.366   9.709   8.850 -0.8778  0.8542  1.3943
  130MOL0     O17416   8.721   2.530   9.682  0.1493 -0.3335  0.0315
  130MOL0     C17417   8.650   2.515   9.782 -0.7035  0.1493  0.7305
  130MOL0     O17418   8.663   2.424   9.872 -0.2171  0.9467  0.1485
  130MOL0     C17419   8.761   2.321   9.872  0.3606  0.2588  0.8858
  130MOL0     C17420   8.819   2.291   9.990  0.4808  0.8761  0.4022
  130MOL0     C17421   8.936   2.210   9.993  0.0621  0.3322  0.1736
  130MOL0     C17422   8.972   2.132   9.881 -1.1221 -0.0468  0.5910
  130MOL0     O17423   9.069   2.037   9.903  0.0869 -0.0713 -0.0691
  130MOL0     C17424   9.041   1.918   9.824  0.3062  0.1684 -0.7344
  130MOL0     C17425   9.069   1.794   9.900  0.3754 -0.0637  0.0909
  130MOL0     C17426   9.215   1.756   9.911 -0.1248 -0.1763 -0.9978
  130MOL0     C17427   9.280   1.720   9.774  0.3601 -0.3242  0.0927
  130MOL0     C17428   9.417   1.655   9.790 -0.5287  1.0115 -0.4718
  130MOL0     C17429   9.523   1.736   9.854  0.1522 -0.0980 -0.4028
  130MOL0     C17430   9.671   1.677   9.835 -1.0776 -0.8564 -0.2898
  130MOL0     C17431   9.716   1.589   9.959  0.1705  0.9448 -0.0180
  130MOL0     N17432   9.846   1.514   9.941  0.6451 -0.6616  0.2912
  130MOL0     C17433   9.895   1.467   9.826 -0.9780 -0.3831 -0.3265
  130MOL0     C17434  10.023   1.440   9.847 -0.0528  1.0883 -0.1846
  130MOL0     C17435  10.116   1.386   9.740  0.5042  0.2858 -0.9043
  130MOL0     C17436  10.209   1.298   9.809 -0.1531 -0.1749  0.7070
  130MOL0     C17437  10.313   1.232   9.706 -0.3348 -0.4374 -0.3036
  130MOL0     C17438  10.423   1.173   9.794  0.0338 -0.1082  0.2235
  130MOL0     O17439  10.526   1.120   9.713 -0.0114 -0.2295 -0.1913
  130MOL0     C17440  10.648   1.082   9.766  0.0538  0.0764  0.3125
  130MOL0     C17441  10.677   1.054   9.904  0.1331 -0.5064 -0.5298
  130MOL0     C17442  10.800   0.989   9.933  0.9694 -0.1692  0.0297
  130MOL0     C17443  10.903   0.976   9.844  1.3567  0.0268  0.5706
  130MOL0     C17444  11.044   0.951   9.885 -1.0358 -0.4219  0.2677
  130MOL0     O17445  11.153   0.961   9.792  0.3784 -0.8361  0.5521
  130MOL0     C17446  11.282   0.947   9.824  0.0166  0.9336  1.1726
  130MOL0     C17447  11.344   0.939   9.945 -0.5581  1.0350  0.3333
  130MOL0     C17448  11.484   0.922   9.947  0.1946  0.0682  0.2944
  130MOL0     C17449  11.565   0.928   9.834  0.4301  0.7138 -0.1812
  130MOL0     O17450  11.700   0.909   9.837 -0.3551 -0.1691  0.1710
  130MOL0     C17451  11.786   0.869   9.952  0.6970  0.2086  0.6314
  130MOL0     C17452  11.930   0.899   9.919  0.8759 -0.5531 -0.5132
  130MOL0     C17453  11.958   1.050   9.895  0.4915  0.4914 -0.0424
  130MOL0     C17454  12.075   1.085   9.814  0.6099 -0.3287 -0.1720
  130MOL0     C17455  12.117   1.231   9.836 -0.2790 -0.2691  0.2483
  130MOL0     C17456  12.001   1.340   9.820  0.0364  0.4003 -0.1109
  130MOL0     C17457  12.069   1.477   9.813 -0.2728 -0.0688 -0.2585
  130MOL0     C17458  11.968   1.587   9.786 -0.8453  0.0130  1.2237
  130MOL0    Cl17459  11.857   1.600   9.919  0.2972 -0.2000 -0.2976
  130MOL0     C17460  11.504   0.958   9.712 -0.6147 -0.5937 -0.0483
  130MOL0     C17461  11.359   0.968   9.705 -0.5633  0.2303 -0.5957
  130MOL0     O17462  11.062   0.912  10.000  0.1510 -0.8613  0.2167
  130MOL0     C17463  10.874   1.005   9.710 -0.1759  0.0141  0.2726
  130MOL0     C17464  10.748   1.050   9.675 -0.5371  0.0474  1.1131
  130MOL0     N17465  10.061   1.474   9.975  1.4635 -0.1778  0.2948
  130MOL0     N17466   9.945   1.509  10.034 -1.0070  0.9237  0.3468
  130MOL0     C17467   8.912   2.165   9.765  0.6451 -0.2069 -0.7937
  130MOL0     C17468   8.810   2.264   9.759 -0.1498  0.4278  0.5610
  130MOL0     C17469   8.539   2.613   9.810 -0.8315  0.3334 -0.5658
  130MOL0     C17470   8.461   2.593   9.928 -0.1283 -0.2059 -0.1217
  130MOL0     C17471   8.354   2.681   9.961  0.6880 -0.4587 -0.0622
  130MOL0     C17472   8.316   2.778   9.869 -0.0633 -0.4648  0.2336
  130MOL0     O17473   8.205   2.858   9.874 -0.1782  0.2506  0.3508
  130MOL0     C17474   8.108   2.828   9.976  0.3458  0.9482  0.0989
  130MOL0     C17475   7.985   2.925   9.952 -0.4779  0.4016 -0.2602
  130MOL0     C17476   7.911   2.899   9.822 -0.5376 -0.8142  0.0626
  130MOL0     C17477   7.851   2.767   9.810 -0.3686  0.5860 -0.8412
  130MOL0     C17478   7.725   2.764   9.731 -0.5397 -0.2199  0.0049
  130MOL0     C17479   7.616   2.776   9.674  0.1171 -0.5332  0.2169
  130MOL0     C17480   8.400   2.804   9.766 -0.1952 -0.7445 -0.8191
  130MOL0     C17481   8.515   2.728   9.739 -0.5072  0.4190  0.0062
  130MOL0     C17482   8.604   2.776   9.621 -0.1301 -0.4433  0.1594
  130MOL0     H17483   8.774   2.349  10.070 -1.8752  1.3511 -1.1612
  130MOL0     H17484   8.996   2.192  10.081 -0.7004  1.2236  0.8924
  130MOL0     H17485   8.937   1.915   9.790 -0.0592  0.5046  0.3306
  130MOL0     H17486   9.105   1.919   9.734  2.6946  0.4612  0.8656
  130MOL0     H17487   9.011   1.718   9.846 -0.6026 -0.2832  1.4095
  130MOL0     H17488   9.033   1.793  10.003  2.7498 -0.2211  0.9751
  130MOL0     H17489   9.240   1.673   9.977 -1.0450 -2.6654 -3.5985
  130MOL0     H17490   9.263   1.849   9.944 -0.5624 -0.7560  1.5222
  130MOL0     H17491   9.220   1.649   9.717  0.0464 -0.5981  0.7536
  130MOL0     H17492   9.285   1.802   9.702 -0.6291 -0.8833 -0.6433
  130MOL0     H17493   9.406   1.567   9.856  0.0343  2.6117  1.8959
  130MOL0     H17494   9.451   1.612   9.695  2.3519  1.0193  0.4474
  130MOL0     H17495   9.531   1.828   9.796 -2.1308 -0.3075 -1.1512
  130MOL0     H17496   9.503   1.767   9.957 -3.1047 -0.4400 -0.8361
  130MOL0     H17497   9.728   1.771   9.829 -0.9266 -0.8822  0.5490
  130MOL0     H17498   9.689   1.633   9.737 -0.9391  1.7483 -1.5287
  130MOL0     H17499   9.706   1.654  10.046 -0.3870  0.7586  0.0580
  130MOL0     H17500   9.646   1.506   9.969 -0.0501  0.6152 -3.2432
  130MOL0     H17501   9.857   1.461   9.724 -0.7115  1.2961 -0.5515
  130MOL0     H17502  10.057   1.338   9.661 -1.8167  0.4843  0.5954
  130MOL0     H17503  10.172   1.473   9.703 -0.8180  1.3995 -0.3967
  130MOL0     H17504  10.264   1.362   9.879 -1.0263  1.8455 -0.3638
  130MOL0     H17505  10.155   1.222   9.866 -2.5288  0.0141 -1.1536
  130MOL0     H17506  10.361   1.306   9.642  1.5985 -2.5300 -1.4324
  130MOL0     H17507  10.266   1.160   9.637  0.2768 -2.8487  1.6627
  130MOL0     H17508  10.381   1.094   9.856  1.0812 -0.1812  0.8600
  130MOL0     H17509  10.465   1.244   9.865 -0.5779 -0.7688  1.2739
  130MOL0     H17510  10.609   1.072   9.987 -0.6812  2.2853 -1.6789
  130MOL0     H17511  10.828   0.953  10.032  1.3650  0.0689  0.0066
  130MOL0     H17512  11.292   0.928  10.039 -0.9807  0.4993  0.0431
  130MOL0     H17513  11.530   0.904  10.044  1.5997 -2.2789 -0.7232
  130MOL0     H17514  11.755   0.921  10.043  2.5926 -0.1480  1.5320
  130MOL0     H17515  11.760   0.767   9.979 -0.3448 -0.1674 -1.5725
  130MOL0     H17516  11.989   0.853   9.999 -1.0886  0.8698  1.9032
  130MOL0     H17517  11.944   0.847   9.824  2.4599  0.4411 -0.8586
  130MOL0     H17518  11.875   1.104   9.849  0.9472 -0.9485 -2.7774
  130MOL0     H17519  11.986   1.092   9.992  0.5192 -0.2949  0.2952
  130MOL0     H17520  12.051   1.073   9.708 -0.7269  0.4385  0.0246
  130MOL0     H17521  12.163   1.027   9.841  1.1502  1.6119  2.6539
  130MOL0     H17522  12.191   1.248   9.756 -1.6745 -2.0031 -1.5076
  130MOL0     H17523  12.173   1.248   9.928 -2.5796  0.1213  1.6633
  130MOL0     H17524  11.939   1.309   9.735 -0.1602 -3.3663  1.2332
  130MOL0     H17525  11.940   1.329   9.910  1.3370 -3.1341  0.5082
  130MOL0     H17526  12.145   1.469   9.734  1.7646  2.6971  1.2472
  130MOL0     H17527  12.126   1.494   9.905  0.6329 -0.4104 -0.7460
  130MOL0     H17528  12.008   1.689   9.783  0.1643 -0.3680  1.2300
  130MOL0     H17529  11.929   1.570   9.685  4.1402  2.8575 -1.5982
  130MOL0     H17530  11.569   0.966   9.625  0.3014  0.7080  0.7235
  130MOL0     H17531  11.308   0.983   9.610 -1.3080  3.4482  0.1716
  130MOL0     H17532  10.957   0.996   9.640 -0.7790  0.1860 -0.4846
  130MOL0     H17533  10.729   1.073   9.571 -1.4127 -0.6589  1.1013
  130MOL0     H17534   8.932   2.113   9.672 -2.1732 -0.4301 -1.3455
  130MOL0     H17535   8.784   2.283   9.656  1.9526  0.6123  0.0150
  130MOL0     H17536   8.465   2.508   9.996  4.0914 -0.3416 -0.2780
  130MOL0     H17537   8.291   2.663  10.048  0.2732  0.4062 -0.1749
  130MOL0     H17538   8.150   2.850  10.074 -2.0552  0.8016  1.2370
  130MOL0     H17539   8.080   2.723   9.963  2.4061  0.4288 -0.4848
  130MOL0     H17540   8.025   3.026   9.965  4.3985 -1.4581  1.7466
  130MOL0     H17541   7.909   2.913  10.029 -0.1904  1.0909  0.1413
  130MOL0     H17542   7.981   2.925   9.742  2.0489  0.1753  2.4643
  130MOL0     H17543   7.829   2.972   9.827 -1.4695 -1.8782  1.3831
  130MOL0     H17544   7.924   2.696   9.769  2.3294  2.6764  0.0275
  130MOL0     H17545   7.821   2.730   9.909  1.7284 -2.1963 -1.1002
  130MOL0     H17546   7.521   2.784   9.625  0.5015  2.0688 -0.2432
  130MOL0     H17547   8.371   2.877   9.691 -0.6121 -2.3643 -2.2889
  130MOL0     H17548   8.628   2.697   9.549  0.9215 -1.5312  1.6328
  130MOL0     H17549   8.558   2.865   9.578 -0.7657 -1.2375 -0.8406
  130MOL0     H17550   8.704   2.802   9.656 -0.7505  1.4970  0.6165
  131MOL0     O17551   3.643   7.438   8.517 -0.6195  0.4592 -0.0660
  131MOL0     C17552   3.599   7.544   8.477 -0.8476 -1.4680 -0.0909
  131MOL0     O17553   3.666   7.620   8.385 -0.3239  0.5007  0.1169
  131MOL0     C17554   3.798   7.581   8.351 -0.9956 -0.1313  0.3653
  131MOL0     C17555   3.911   7.604   8.437 -0.6056 -0.2912  0.3633
  131MOL0     C17556   4.041   7.565   8.398 -0.0217  0.3438 -0.5633
  131MOL0     C17557   4.073   7.514   8.276  0.1167 -0.0421  0.0998
  131MOL0     O17558   4.204   7.480   8.251 -0.1248  0.0079  0.0551
  131MOL0     C17559   4.232   7.444   8.115 -0.0783 -0.1707 -0.0912
  131MOL0     C17560   4.384   7.479   8.102 -0.2491  0.1296  0.3747
  131MOL0     C17561   4.443   7.420   7.972  0.4206  0.7021 -0.7947
  131MOL0     C17562   4.587   7.476   7.944  0.5137 -0.4704  0.0597
  131MOL0     C17563   4.645   7.455   7.805 -0.2390 -0.0745  0.0294
  131MOL0     C17564   4.794   7.492   7.768 -0.5991  0.0155  0.1929
  131MOL0     C17565   4.896   7.504   7.885  0.9734 -0.4241  1.4746
  131MOL0     C17566   4.937   7.375   7.955  0.2176 -0.2011 -0.5915
  131MOL0     N17567   5.021   7.281   7.877 -0.4170 -0.0450  0.2896
  131MOL0     C17568   5.160   7.289   7.885 -1.0192 -0.3208  0.4334
  131MOL0     C17569   5.204   7.178   7.819  0.1233 -0.3058  0.7678
  131MOL0     C17570   5.350   7.134   7.795 -0.5755  0.0330 -0.8760
  131MOL0     C17571   5.433   7.252   7.740 -0.1478 -0.2899  0.7784
  131MOL0     C17572   5.566   7.195   7.689  0.2511 -0.6680 -0.6355
  131MOL0     C17573   5.649   7.313   7.636  0.3483  0.6240 -0.4511
  131MOL0     O17574   5.676   7.413   7.742 -0.2846  0.5921  0.1410
  131MOL0     C17575   5.796   7.402   7.807 -0.1512  1.1548 -0.7268
  131MOL0     C17576   5.834   7.505   7.892 -0.1288 -0.1840 -0.1897
  131MOL0     C17577   5.960   7.515   7.944  0.4689  0.1008 -0.7447
  131MOL0     C17578   6.044   7.404   7.928  0.1780 -0.3157 -0.7962
  131MOL0     C17579   6.182   7.408   7.982 -0.1713 -0.0020  0.8672
  131MOL0     O17580   6.209   7.491   8.089 -0.8280  0.0378  1.0697
  131MOL0     C17581   6.341   7.489   8.124 -0.4177 -0.5072  0.4854
  131MOL0     C17582   6.403   7.393   8.204  0.2682  0.3207  0.0945
  131MOL0     C17583   6.541   7.397   8.234 -0.0755  0.6152 -0.9654
  131MOL0     C17584   6.614   7.515   8.187 -0.4803  0.8736  0.1925
  131MOL0     O17585   6.752   7.504   8.205  0.4055  0.0131  0.3135
  131MOL0     C17586   6.839   7.622   8.173  0.2742  0.8071 -0.2789
  131MOL0     C17587   6.970   7.627   8.241  0.2435  0.6026 -0.1165
  131MOL0     C17588   7.063   7.745   8.199  0.1490 -0.0619 -0.0722
  131MOL0     C17589   7.201   7.744   8.252  0.0283  0.0068 -0.1776
  131MOL0     C17590   7.275   7.868   8.215  0.4746  0.1136  0.4146
  131MOL0     C17591   7.427   7.867   8.246  1.3160  0.4365  0.4196
  131MOL0     C17592   7.496   7.770   8.158 -0.2848  0.4284  0.6870
  131MOL0     C17593   7.644   7.797   8.167 -0.6218 -0.1665  0.4402
  131MOL0    Cl17594   7.669   7.934   8.054  0.2208  0.1267 -0.5155
  131MOL0     C17595   6.547   7.609   8.105  0.4910  0.2577 -0.9233
  131MOL0     C17596   6.409   7.599   8.077 -0.4956 -0.3049  0.3691
  131MOL0     O17597   6.264   7.338   7.923 -0.0398  0.2664  0.8090
  131MOL0     C17598   5.991   7.291   7.873  0.0635 -0.0258 -0.3048
  131MOL0     C17599   5.877   7.288   7.798 -0.0610 -0.4093 -0.7342
  131MOL0     N17600   5.091   7.098   7.788 -0.1083 -0.1280 -0.2224
  131MOL0     N17601   4.984   7.155   7.830 -0.2026 -0.3594 -0.2586
  131MOL0     C17602   3.962   7.486   8.195  0.2211  0.6079  0.3039
  131MOL0     C17603   3.822   7.507   8.226  0.3674 -0.9758 -0.1226
  131MOL0     C17604   3.472   7.589   8.542 -0.5551  0.2380 -0.5587
  131MOL0     C17605   3.433   7.529   8.662  0.4595 -0.6094 -0.5058
  131MOL0     C17606   3.313   7.574   8.729 -0.2062  0.7791  0.5391
  131MOL0     C17607   3.237   7.675   8.678 -0.3098 -0.4512 -0.1124
  131MOL0     O17608   3.127   7.713   8.750  0.3155 -0.8084 -0.3368
  131MOL0     C17609   3.049   7.819   8.691 -0.5639 -0.5346 -0.2202
  131MOL0     C17610   2.943   7.851   8.794 -0.2491  0.5782 -0.4141
  131MOL0     C17611   2.840   7.733   8.805  0.1505 -0.2546  0.4558
  131MOL0     C17612   2.732   7.767   8.909  0.5910  0.2347 -0.5825
  131MOL0     C17613   2.762   7.755   9.048 -0.8487  0.0772  0.0299
  131MOL0     C17614   2.797   7.731   9.161 -0.0218 -0.1057  0.2770
  131MOL0     C17615   3.270   7.727   8.552 -0.0450 -0.0036  1.1924
  131MOL0     C17616   3.385   7.685   8.485 -1.3762 -0.5501  0.5743
  131MOL0     C17617   3.407   7.758   8.354 -0.2914  0.5703 -0.6155
  131MOL0     H17618   3.891   7.651   8.532 -0.8957 -1.2924  0.8122
  131MOL0     H17619   4.127   7.589   8.460  1.1343 -0.3517 -1.8343
  131MOL0     H17620   4.204   7.338   8.104 -1.2247  0.2036 -1.0915
  131MOL0     H17621   4.175   7.498   8.039  0.0701  1.4228  0.9052
  131MOL0     H17622   4.445   7.444   8.186  0.8293 -3.1794 -1.6181
  131MOL0     H17623   4.388   7.588   8.094  0.3599  0.2088  1.5320
  131MOL0     H17624   4.370   7.438   7.893 -0.7586  0.1387  0.1403
  131MOL0     H17625   4.446   7.311   7.974  0.3585  0.6878  1.7200
  131MOL0     H17626   4.576   7.580   7.977 -0.7602 -0.5092 -0.1760
  131MOL0     H17627   4.649   7.424   8.017 -2.2461 -0.7953  2.3462
  131MOL0     H17628   4.613   7.355   7.775  1.1540 -0.3809 -0.5423
  131MOL0     H17629   4.580   7.522   7.748 -0.0806  1.7226  1.8529
  131MOL0     H17630   4.849   7.429   7.697 -1.7818 -0.6460 -0.1587
  131MOL0     H17631   4.788   7.592   7.725 -0.8876 -0.3891 -0.7171
  131MOL0     H17632   4.857   7.568   7.965  0.0822 -1.7651  2.1411
  131MOL0     H17633   4.984   7.550   7.839 -0.3940 -1.0913 -2.1382
  131MOL0     H17634   4.995   7.390   8.046 -1.0106  1.2379 -0.0016
  131MOL0     H17635   4.847   7.316   7.974 -0.5676  0.9848 -0.4666
  131MOL0     H17636   5.218   7.376   7.915 -0.9901 -0.6727  1.4363
  131MOL0     H17637   5.397   7.104   7.889 -0.3241 -0.1503 -1.0595
  131MOL0     H17638   5.353   7.047   7.729 -3.7581  0.1819 -1.3775
  131MOL0     H17639   5.384   7.306   7.659 -0.3739 -0.7582  0.5961
  131MOL0     H17640   5.447   7.327   7.818 -2.0439  1.3834 -0.4072
  131MOL0     H17641   5.544   7.119   7.613 -0.7285 -1.5643  0.5110
  131MOL0     H17642   5.630   7.158   7.770  0.2421  0.0653 -0.2912
  131MOL0     H17643   5.601   7.362   7.551  0.5389 -0.9923 -1.5348
  131MOL0     H17644   5.740   7.273   7.589 -1.2779 -2.3942 -1.2910
  131MOL0     H17645   5.768   7.591   7.888 -0.8535 -0.7557 -0.7824
  131MOL0     H17646   5.998   7.607   7.988 -0.0743  0.3290 -0.7415
  131MOL0     H17647   6.341   7.309   8.235  0.1355  0.3307 -0.1424
  131MOL0     H17648   6.585   7.321   8.297  1.3548  4.3624  3.0308
  131MOL0     H17649   6.853   7.618   8.064 -0.9336 -0.2418 -0.4192
  131MOL0     H17650   6.788   7.717   8.184  1.0166  1.3232 -1.0689
  131MOL0     H17651   6.940   7.633   8.346 -0.1815 -0.4637 -0.1643
  131MOL0     H17652   7.015   7.528   8.231 -5.6254 -2.3465 -1.8156
  131MOL0     H17653   7.075   7.745   8.091  2.0258 -0.5581  0.1033
  131MOL0     H17654   7.028   7.845   8.228  1.6621  1.2373 -2.3884
  131MOL0     H17655   7.251   7.660   8.202  0.0360  1.2017 -2.3233
  131MOL0     H17656   7.200   7.717   8.358 -1.1447  1.0294  0.0975
  131MOL0     H17657   7.235   7.957   8.264 -2.2218  0.7339 -2.5718
  131MOL0     H17658   7.268   7.887   8.107 -0.3972  2.7837  0.8632
  131MOL0     H17659   7.471   7.967   8.240 -1.6093  1.9728  2.4656
  131MOL0     H17660   7.435   7.836   8.350  1.8450  0.5134  0.4049
  131MOL0     H17661   7.460   7.775   8.054 -0.0471  0.0306  0.5833
  131MOL0     H17662   7.481   7.668   8.193  2.3564 -0.4697 -0.5327
  131MOL0     H17663   7.698   7.821   8.259  3.2016 -3.5934 -0.5734
  131MOL0     H17664   7.699   7.710   8.129  1.8044  0.8026  1.5078
  131MOL0     H17665   6.600   7.690   8.056  1.8888 -0.7292 -1.0839
  131MOL0     H17666   6.352   7.656   8.006 -0.0749 -2.0796 -1.4998
  131MOL0     H17667   6.046   7.198   7.870 -2.4359 -1.6167  0.0012
  131MOL0     H17668   5.846   7.197   7.747 -1.2271 -0.5542  0.1858
  131MOL0     H17669   3.979   7.421   8.109 -0.0874  2.1376 -0.9576
  131MOL0     H17670   3.737   7.483   8.162 -1.1133  1.2436  0.8807
  131MOL0     H17671   3.483   7.441   8.701  0.8023 -1.3174 -2.4513
  131MOL0     H17672   3.281   7.519   8.818 -0.2622 -1.0778 -0.5739
  131MOL0     H17673   2.992   7.781   8.606 -1.3422 -0.6929  0.3558
  131MOL0     H17674   3.099   7.914   8.668  1.1041 -1.4959 -0.7260
  131MOL0     H17675   2.908   7.951   8.768  1.7891  2.0997  2.1892
  131MOL0     H17676   2.989   7.870   8.891  0.6561 -0.2329 -0.6719
  131MOL0     H17677   2.879   7.635   8.834 -2.1793 -0.9992  1.2627
  131MOL0     H17678   2.802   7.721   8.703 -1.2962  1.6575  0.7234
  131MOL0     H17679   2.681   7.863   8.900 -1.4116 -0.7258 -0.1357
  131MOL0     H17680   2.656   7.688   8.906  0.3107  0.3292  1.8688
  131MOL0     H17681   2.834   7.711   9.259 -3.1119 -1.7864  1.2510
  131MOL0     H17682   3.200   7.793   8.500 -0.4693  0.0403  1.7975
  131MOL0     H17683   3.486   7.833   8.357 -2.7285  3.3042 -0.6060
  131MOL0     H17684   3.435   7.693   8.271 -0.6628 -0.0315 -0.2763
  131MOL0     H17685   3.317   7.813   8.323 -1.1508 -1.1056 -1.2089
  132MOL0     O17686   5.769   0.373   8.689  0.1912  0.7068 -0.0129
  132MOL0     C17687   5.729   0.485   8.674  0.3354 -0.0644  0.3586
  132MOL0     O17688   5.807   0.593   8.692 -0.8521 -0.8156  0.2523
  132MOL0     C17689   5.931   0.588   8.751 -0.2997 -0.6813 -0.1264
  132MOL0     C17690   5.968   0.491   8.841  0.1410 -0.0061 -0.3560
  132MOL0     C17691   6.105   0.487   8.884  0.4451  0.3949 -0.9056
  132MOL0     C17692   6.201   0.586   8.835 -0.5476 -0.0269 -0.5541
  132MOL0     O17693   6.335   0.610   8.885  0.5496 -0.0630 -0.2206
  132MOL0     C17694   6.361   0.561   9.018  0.5681 -0.6027  0.7484
  132MOL0     C17695   6.506   0.571   9.043  0.2514  0.2694 -0.4136
  132MOL0     C17696   6.538   0.717   9.064 -0.9255 -0.1079  0.1187
  132MOL0     C17697   6.684   0.734   9.112 -0.4345 -0.1956 -0.4168
  132MOL0     C17698   6.795   0.664   9.032  0.9225  0.2771  0.3626
  132MOL0     C17699   6.806   0.735   8.893  1.0610 -0.4035 -0.3323
  132MOL0     C17700   6.904   0.665   8.795 -0.5179  0.6061  0.0144
  132MOL0     C17701   7.046   0.680   8.847 -1.2186  0.1199  0.3721
  132MOL0     N17702   7.141   0.626   8.752  0.6672  0.1205  0.9652
  132MOL0     C17703   7.151   0.490   8.718  0.2776  0.6099  0.2788
  132MOL0     C17704   7.231   0.480   8.604 -0.1605  0.1185  0.6868
  132MOL0     C17705   7.292   0.363   8.534 -0.4828  0.7465 -0.1317
  132MOL0     C17706   7.441   0.347   8.541  0.2662 -0.2865 -0.6580
  132MOL0     C17707   7.511   0.397   8.420  0.2564 -0.2255  0.2751
  132MOL0     C17708   7.655   0.419   8.444 -0.0466 -0.0454  1.0157
  132MOL0     O17709   7.694   0.493   8.330 -0.1737  0.1366  0.1977
  132MOL0     C17710   7.823   0.469   8.284  0.3607  0.3067  0.7245
  132MOL0     C17711   7.837   0.450   8.149  0.7145  0.0730  0.0730
  132MOL0     C17712   7.961   0.413   8.089  0.3319  0.4069  1.0521
  132MOL0     C17713   8.073   0.394   8.175 -0.6236  0.0647  0.5052
  132MOL0     C17714   8.213   0.352   8.125 -0.2896 -0.6805  0.1977
  132MOL0     O17715   8.214   0.331   7.989  0.2944  0.3539 -0.5314
  132MOL0     C17716   8.337   0.325   7.935  0.2963 -0.0544  0.1527
  132MOL0     C17717   8.406   0.445   7.919  0.2191 -0.9293  0.3553
  132MOL0     C17718   8.532   0.445   7.848  0.1494  1.2927  0.0691
  132MOL0     C17719   8.581   0.327   7.787  0.1608 -0.0417 -0.4495
  132MOL0     O17720   8.682   0.341   7.699 -0.4051  0.1504 -0.3744
  132MOL0     C17721   8.659   0.294   7.564 -0.2393  0.7166  0.2065
  132MOL0     C17722   8.745   0.350   7.448 -0.1010 -0.8989 -1.0494
  132MOL0     C17723   8.761   0.506   7.466 -0.0338  0.3803 -0.5283
  132MOL0     C17724   8.851   0.557   7.354  1.0236 -0.1179  0.2045
  132MOL0     C17725   8.884   0.706   7.371 -0.0735  0.2930  0.7497
  132MOL0     C17726   9.010   0.754   7.293  0.4531  0.3626  0.5427
  132MOL0     C17727   9.042   0.899   7.333  0.8033 -0.5198 -0.4003
  132MOL0     C17728   9.182   0.943   7.297  0.2510 -0.3015  0.6488
  132MOL0    Cl17729   9.210   1.102   7.376 -0.2730 -0.1072  0.1153
  132MOL0     C17730   8.516   0.208   7.813  0.4402 -0.2503  0.3310
  132MOL0     C17731   8.391   0.202   7.891  1.0896 -0.3496  0.0855
  132MOL0     O17732   8.306   0.338   8.202  0.5331  0.0900  0.2806
  132MOL0     C17733   8.058   0.420   8.317  0.2029 -0.4850 -0.2947
  132MOL0     C17734   7.932   0.456   8.371 -0.2752 -0.9870 -0.8354
  132MOL0     N17735   7.268   0.612   8.574 -0.0590  0.4900  0.5212
  132MOL0     N17736   7.232   0.687   8.669  0.7707 -0.4437  0.2344
  132MOL0     C17737   6.158   0.674   8.740 -0.1047 -0.2830 -0.0957
  132MOL0     C17738   6.025   0.682   8.701  0.1713 -1.2796  0.0385
  132MOL0     C17739   5.592   0.514   8.628  0.1578  0.0903  0.0542
  132MOL0     C17740   5.563   0.645   8.588 -0.7493  0.9534  0.7222
  132MOL0     C17741   5.443   0.675   8.535 -0.0969  0.6790  0.6024
  132MOL0     C17742   5.347   0.584   8.498  0.1921  0.3001  0.6599
  132MOL0     O17743   5.234   0.629   8.431 -0.3698 -0.2973 -0.4165
  132MOL0     C17744   5.135   0.542   8.388 -0.4928  0.0241 -0.4182
  132MOL0     C17745   5.025   0.636   8.345  0.3126  0.0438  0.0411
  132MOL0     C17746   4.891   0.563   8.322  0.0039 -0.1088 -0.4453
  132MOL0     C17747   4.805   0.675   8.265 -0.2969 -0.2119  0.1369
  132MOL0     C17748   4.671   0.621   8.234 -0.4151 -0.6685  0.4574
  132MOL0     C17749   4.553   0.589   8.233 -0.1132 -0.1620  0.4461
  132MOL0     C17750   5.375   0.453   8.540  1.2493 -0.4293 -1.0035
  132MOL0     C17751   5.491   0.415   8.607 -0.5554  1.3485  0.0062
  132MOL0     C17752   5.493   0.269   8.652  0.3492  0.6212  0.0804
  132MOL0     H17753   5.899   0.415   8.877  1.9341 -2.2592 -1.4343
  132MOL0     H17754   6.134   0.402   8.945 -0.1020  0.0694 -1.0879
  132MOL0     H17755   6.305   0.624   9.089  0.0019  0.3239 -0.4713
  132MOL0     H17756   6.327   0.458   9.022  3.1959 -1.5607  0.2024
  132MOL0     H17757   6.561   0.519   8.964 -0.8796 -2.3007  0.3540
  132MOL0     H17758   6.518   0.510   9.133 -2.1838 -0.5382 -0.5363
  132MOL0     H17759   6.459   0.760   9.126 -0.6662  2.0927 -0.9683
  132MOL0     H17760   6.510   0.777   8.977 -2.6256 -0.9696  0.0320
  132MOL0     H17761   6.710   0.840   9.123  3.5081 -1.0388 -0.2516
  132MOL0     H17762   6.697   0.712   9.219 -2.0173  0.7768  0.0171
  132MOL0     H17763   6.891   0.663   9.084  1.2224  2.1374 -0.0691
  132MOL0     H17764   6.772   0.558   9.015 -0.1254  0.1685  2.2213
  132MOL0     H17765   6.706   0.717   8.853  0.1339 -2.8921  2.7010
  132MOL0     H17766   6.823   0.843   8.901 -0.0208 -0.0725 -2.0056
  132MOL0     H17767   6.874   0.704   8.698 -5.6801 -0.7873  0.7476
  132MOL0     H17768   6.889   0.558   8.777 -0.0412  0.8022 -1.6487
  132MOL0     H17769   7.074   0.784   8.866  0.8459 -0.4362  0.5962
  132MOL0     H17770   7.067   0.618   8.935  3.5161 -1.5690 -1.6204
  132MOL0     H17771   7.121   0.404   8.777  1.7547  0.9373  1.5381
  132MOL0     H17772   7.255   0.271   8.579 -1.1197  1.3681  0.6561
  132MOL0     H17773   7.270   0.363   8.427  2.7685 -2.2439 -1.0052
  132MOL0     H17774   7.467   0.411   8.626 -2.9565 -0.3223  0.4959
  132MOL0     H17775   7.455   0.240   8.555 -1.4123 -0.2985  1.4947
  132MOL0     H17776   7.470   0.496   8.395 -0.5806 -0.0905  2.0082
  132MOL0     H17777   7.507   0.328   8.335 -1.9764 -1.2075  1.1105
  132MOL0     H17778   7.711   0.325   8.457  0.4073  0.3663  2.1436
  132MOL0     H17779   7.670   0.482   8.532 -0.3429  3.5822 -1.3257
  132MOL0     H17780   7.755   0.487   8.088  1.4892 -1.0249 -1.7311
  132MOL0     H17781   7.972   0.399   7.982  4.5172  2.5683  0.9894
  132MOL0     H17782   8.368   0.539   7.956  1.3556  0.0810 -0.9667
  132MOL0     H17783   8.588   0.536   7.828  3.8664 -1.2134 -1.8977
  132MOL0     H17784   8.673   0.186   7.575  0.3197  0.8644  1.0939
  132MOL0     H17785   8.554   0.314   7.542 -0.5140  3.4542  3.2146
  132MOL0     H17786   8.847   0.313   7.466 -0.0448 -0.0829  0.5230
  132MOL0     H17787   8.692   0.329   7.355 -0.4537  0.9317 -1.3134
  132MOL0     H17788   8.662   0.552   7.470  0.0536  0.4867  1.0748
  132MOL0     H17789   8.802   0.514   7.567 -0.8800 -3.4367  0.2875
  132MOL0     H17790   8.821   0.524   7.254  3.4834 -3.0877  0.3108
  132MOL0     H17791   8.945   0.505   7.375  0.7012 -1.2413 -1.0276
  132MOL0     H17792   8.908   0.718   7.477 -3.1079  1.0445  1.4288
  132MOL0     H17793   8.799   0.772   7.359 -0.6551 -0.2864  1.5269
  132MOL0     H17794   9.090   0.691   7.333  0.4408 -0.4990 -0.7429
  132MOL0     H17795   9.000   0.731   7.187 -1.6165 -0.0223  0.7825
  132MOL0     H17796   9.032   0.913   7.441 -0.3452 -0.5416 -0.4923
  132MOL0     H17797   8.973   0.969   7.285  1.6343  1.2140  0.7999
  132MOL0     H17798   9.257   0.868   7.323  0.8391  0.5045  1.3049
  132MOL0     H17799   9.189   0.961   7.190  2.5013  0.0552  0.8058
  132MOL0     H17800   8.548   0.114   7.769  2.7303 -0.2345  1.7894
  132MOL0     H17801   8.339   0.109   7.909 -0.5395  0.1358 -1.8937
  132MOL0     H17802   8.136   0.403   8.391 -1.3250  2.3627  2.2084
  132MOL0     H17803   7.935   0.491   8.474 -0.5843  0.9787 -1.4661
  132MOL0     H17804   6.226   0.750   8.703  1.8090 -2.4653 -1.3765
  132MOL0     H17805   5.979   0.756   8.637 -1.0566 -1.8736  0.2063
  132MOL0     H17806   5.643   0.719   8.591  0.1216  0.0049  2.1517
  132MOL0     H17807   5.410   0.778   8.524 -1.5512  0.0629 -1.5315
  132MOL0     H17808   5.104   0.484   8.475  3.7511  1.2701  2.2240
  132MOL0     H17809   5.165   0.468   8.313  1.8716  0.3066  0.1609
  132MOL0     H17810   5.063   0.685   8.255 -1.8726  3.5172  0.8315
  132MOL0     H17811   5.020   0.713   8.422 -0.9497 -0.3917  0.4249
  132MOL0     H17812   4.853   0.509   8.409 -0.2784  1.0207  0.1378
  132MOL0     H17813   4.900   0.493   8.238 -0.8532 -0.4602 -0.2479
  132MOL0     H17814   4.789   0.751   8.341  2.0973 -0.5246  1.0465
  132MOL0     H17815   4.847   0.723   8.176 -0.4942  2.2840  1.3260
  132MOL0     H17816   4.447   0.572   8.235 -0.6502  2.2233 -1.7385
  132MOL0     H17817   5.295   0.383   8.518  0.4464  0.9457 -2.7758
  132MOL0     H17818   5.532   0.200   8.578 -1.0184 -1.3276  1.0813
  132MOL0     H17819   5.534   0.255   8.753 -0.9069  0.0358  0.5258
  132MOL0     H17820   5.394   0.225   8.668  1.3277 -1.4127  0.9845
  133MOL0     O17821   2.280   2.455   6.415  0.2070  0.6239  0.8613
  133MOL0     C17822   2.283   2.521   6.520 -0.7588  0.2519 -0.4480
  133MOL0     O17823   2.382   2.604   6.560 -0.5272 -0.1946 -0.1996
  133MOL0     C17824   2.475   2.651   6.473  0.6987 -0.8173  0.3924
  133MOL0     C17825   2.604   2.682   6.524 -0.8240 -0.6599  0.5631
  133MOL0     C17826   2.712   2.725   6.447  0.1990 -0.1035 -0.3114
  133MOL0     C17827   2.681   2.755   6.313  0.2681 -0.0394 -0.0277
  133MOL0     O17828   2.783   2.799   6.228  0.6712  0.0104 -0.2315
  133MOL0     C17829   2.744   2.827   6.094 -0.0613 -0.1503 -0.2518
  133MOL0     C17830   2.863   2.868   6.004  0.5455  0.1901  0.3806
  133MOL0     C17831   2.987   2.781   6.023  0.4444 -0.2913  0.2508
  133MOL0     C17832   3.094   2.816   5.917 -0.0576 -0.0345  0.6471
  133MOL0     C17833   3.196   2.700   5.913 -0.8248  0.5360  0.0973
  133MOL0     C17834   3.285   2.715   5.791  0.1486 -0.2124 -0.7069
  133MOL0     C17835   3.409   2.629   5.816  0.4583 -0.1121  0.2973
  133MOL0     C17836   3.494   2.663   5.699 -0.0328 -0.9820  0.1214
  133MOL0     N17837   3.622   2.587   5.691 -0.0825 -0.3938 -0.0393
  133MOL0     C17838   3.704   2.546   5.795 -0.3084  0.4623 -0.5780
  133MOL0     C17839   3.780   2.447   5.743  0.2170 -0.6965  0.4549
  133MOL0     C17840   3.877   2.356   5.818 -0.5157  0.4510 -0.1845
  133MOL0     C17841   3.995   2.302   5.726  0.0348 -1.3738 -0.1154
  133MOL0     C17842   4.108   2.251   5.821  0.9536  0.0157 -0.0903
  133MOL0     C17843   4.228   2.203   5.739  0.4024  0.6323 -0.0808
  133MOL0     O17844   4.272   2.291   5.634  0.0353  0.2051 -0.1706
  133MOL0     C17845   4.402   2.279   5.587  0.6897  0.7283  0.1609
  133MOL0     C17846   4.495   2.185   5.627 -0.5445  0.5569 -0.2078
  133MOL0     C17847   4.619   2.186   5.570  0.2846  0.6615  0.3858
  133MOL0     C17848   4.656   2.278   5.462  0.0993 -0.1052  0.6285
  133MOL0     C17849   4.798   2.281   5.412  0.1822 -0.7901 -0.1012
  133MOL0     O17850   4.895   2.249   5.498  0.3989  0.0326 -0.1634
  133MOL0     C17851   5.024   2.230   5.466  0.0502  0.3581 -0.0387
  133MOL0     C17852   5.119   2.267   5.569  0.3926  0.3134 -0.4978
  133MOL0     C17853   5.256   2.256   5.542  0.5656  0.3092  0.3619
  133MOL0     C17854   5.299   2.195   5.415 -0.0889 -0.0516  0.3661
  133MOL0     O17855   5.428   2.167   5.391 -0.9353 -0.3541  0.2140
  133MOL0     C17856   5.496   2.110   5.502 -0.3328  0.4639 -0.0130
  133MOL0     C17857   5.609   2.020   5.443  0.0474  0.4008 -0.8350
  133MOL0     C17858   5.697   2.082   5.338  0.5877 -1.3638  0.7649
  133MOL0     C17859   5.815   1.990   5.303 -1.0398 -0.9085  0.6797
  133MOL0     C17860   5.918   2.055   5.207 -0.2449  0.6422 -0.5836
  133MOL0     C17861   6.037   1.957   5.186  0.2750 -0.4929 -0.5435
  133MOL0     C17862   6.128   2.024   5.082  0.6362  0.3105 -0.3494
  133MOL0     C17863   6.250   1.941   5.060  0.8215  0.1644 -0.4524
  133MOL0    Cl17864   6.226   1.780   4.998  0.3878  0.0922  0.1103
  133MOL0     C17865   5.203   2.151   5.323 -0.6758 -0.1568  0.2234
  133MOL0     C17866   5.066   2.174   5.347  0.2615  0.2572 -0.0345
  133MOL0     O17867   4.808   2.327   5.295 -0.2086 -0.3775 -0.3136
  133MOL0     C17868   4.565   2.370   5.420  0.2753  0.4042 -0.6967
  133MOL0     C17869   4.437   2.371   5.484  0.5221  0.5689 -0.2059
  133MOL0     N17870   3.738   2.422   5.611  0.6961  0.2453 -0.0523
  133MOL0     N17871   3.663   2.512   5.581  0.3946  0.2507  0.4774
  133MOL0     C17872   2.550   2.740   6.262 -0.1951  0.1909  0.8130
  133MOL0     C17873   2.448   2.685   6.336 -0.6845  0.4298 -0.3592
  133MOL0     C17874   2.169   2.502   6.622 -0.2800  0.2382 -0.6743
  133MOL0     C17875   2.037   2.468   6.575 -0.4947  0.3480 -0.1177
  133MOL0     C17876   1.933   2.453   6.661 -0.2091 -0.0724  0.4354
  133MOL0     C17877   1.948   2.474   6.799  0.0874 -0.2690 -0.3312
  133MOL0     O17878   1.841   2.491   6.887  0.5192  0.7644 -0.2982
  133MOL0     C17879   1.705   2.450   6.856  0.0875 -0.3743 -0.7261
  133MOL0     C17880   1.617   2.486   6.970 -0.1123  0.5123  1.1213
  133MOL0     C17881   1.547   2.623   6.970 -0.4804 -0.2450 -0.4017
  133MOL0     C17882   1.429   2.638   6.864 -0.1461 -0.1950 -0.6948
  133MOL0     C17883   1.376   2.782   6.857 -0.0984  0.3560 -0.1992
  133MOL0     C17884   1.331   2.892   6.844  0.6194  0.3836 -0.4350
  133MOL0     C17885   2.082   2.492   6.849 -0.1797  0.6111 -0.5583
  133MOL0     C17886   2.192   2.505   6.760 -0.5074 -0.7297 -1.3594
  133MOL0     C17887   2.331   2.508   6.828  0.7319  0.1091  0.1148
  133MOL0     H17888   2.624   2.676   6.631 -0.4778 -2.1081  0.4417
  133MOL0     H17889   2.813   2.735   6.485 -0.1044 -1.3953  0.9324
  133MOL0     H17890   2.714   2.730   6.055  1.1828 -1.6047  2.1750
  133MOL0     H17891   2.671   2.909   6.101  1.4137  1.1644  0.3427
  133MOL0     H17892   2.882   2.973   6.027 -2.5946  1.2352 -1.2443
  133MOL0     H17893   2.839   2.864   5.897  0.6960  0.1323  0.3488
  133MOL0     H17894   2.942   2.686   5.994  1.1525 -0.7995  0.7756
  133MOL0     H17895   3.018   2.789   6.127  0.5744  1.3837  0.1138
  133MOL0     H17896   3.041   2.826   5.822  0.1506  0.9400  0.6206
  133MOL0     H17897   3.143   2.914   5.929  0.3912 -0.0113 -1.0765
  133MOL0     H17898   3.256   2.711   6.003 -0.2461 -0.1389 -0.2021
  133MOL0     H17899   3.152   2.600   5.911  2.3944 -1.0004 -2.0449
  133MOL0     H17900   3.234   2.687   5.698 -0.3508  2.8991 -1.4877
  133MOL0     H17901   3.311   2.821   5.785 -0.3423  0.1250  1.9274
  133MOL0     H17902   3.379   2.524   5.816  1.5506 -0.4330 -0.1337
  133MOL0     H17903   3.457   2.655   5.911 -1.0222  1.3681  0.6921
  133MOL0     H17904   3.450   2.636   5.603  0.5935 -1.6065  0.0008
  133MOL0     H17905   3.513   2.770   5.713 -2.4363 -0.6292  1.3965
  133MOL0     H17906   3.702   2.588   5.895  1.1596 -2.5883  0.8593
  133MOL0     H17907   3.920   2.416   5.898 -1.8176 -1.1724  1.8387
  133MOL0     H17908   3.825   2.280   5.878 -0.9730 -0.9988 -2.3011
  133MOL0     H17909   3.953   2.220   5.667 -0.9896 -0.6452 -0.4256
  133MOL0     H17910   4.043   2.378   5.663  2.1220 -3.5445 -1.2852
  133MOL0     H17911   4.084   2.159   5.875 -1.7295 -0.0864 -1.3119
  133MOL0     H17912   4.130   2.331   5.893 -3.3154 -0.0947  1.6459
  133MOL0     H17913   4.203   2.111   5.686 -0.7530  1.1572 -0.4826
  133MOL0     H17914   4.305   2.179   5.813  0.0064  3.2806  1.3032
  133MOL0     H17915   4.468   2.110   5.700 -2.7102 -0.9737 -2.4046
  133MOL0     H17916   4.694   2.113   5.600  1.4919  0.8526 -1.9630
  133MOL0     H17917   5.075   2.299   5.663 -2.2569  1.6397 -2.0688
  133MOL0     H17918   5.330   2.280   5.618  2.1335  0.2752 -1.0930
  133MOL0     H17919   5.538   2.190   5.564  0.8365 -0.6682  0.7060
  133MOL0     H17920   5.435   2.050   5.571  0.1226  2.2171  2.0292
  133MOL0     H17921   5.668   1.974   5.523 -0.9086 -0.5605 -0.6578
  133MOL0     H17922   5.558   1.936   5.394 -0.3685  1.0611 -1.5601
  133MOL0     H17923   5.643   2.102   5.245 -1.0081 -0.9986  1.7360
  133MOL0     H17924   5.736   2.181   5.361 -0.5378 -0.2320 -1.8409
  133MOL0     H17925   5.770   1.908   5.247 -1.7610 -0.4756  0.6031
  133MOL0     H17926   5.870   1.965   5.394 -1.2397 -0.0244  1.0633
  133MOL0     H17927   5.950   2.157   5.229 -0.6670  1.1406 -2.1834
  133MOL0     H17928   5.857   2.063   5.117  0.1656  1.4457 -0.8016
  133MOL0     H17929   6.098   1.942   5.276  1.0273 -2.3124 -1.3024
  133MOL0     H17930   6.008   1.855   5.156 -3.7280 -0.0862  1.3425
  133MOL0     H17931   6.152   2.126   5.113  0.0137  0.4029 -0.1749
  133MOL0     H17932   6.079   2.022   4.984 -0.7133 -1.0562  0.3134
  133MOL0     H17933   6.315   1.998   4.993 -1.7740  2.0772 -1.5318
  133MOL0     H17934   6.293   1.930   5.160  0.2706  0.2181 -0.2036
  133MOL0     H17935   5.246   2.103   5.235  0.6854 -2.8674  2.2088
  133MOL0     H17936   4.994   2.136   5.275  5.5816 -1.9447 -4.9657
  133MOL0     H17937   4.592   2.445   5.347 -0.3807  0.7482 -0.5889
  133MOL0     H17938   4.357   2.435   5.449 -0.4927 -1.5344 -2.0170
  133MOL0     H17939   2.542   2.753   6.154  4.3325  0.4731  0.3083
  133MOL0     H17940   2.357   2.657   6.282 -1.0779  0.3981  0.3058
  133MOL0     H17941   2.011   2.464   6.470 -2.4742  0.8886  0.3095
  133MOL0     H17942   1.841   2.441   6.604  0.1263  0.4494 -0.2393
  133MOL0     H17943   1.692   2.343   6.836 -4.4614 -0.5653  1.9039
  133MOL0     H17944   1.668   2.490   6.760  1.1338 -1.3665 -1.5686
  133MOL0     H17945   1.675   2.463   7.060 -0.7856 -2.8992  0.7995
  133MOL0     H17946   1.534   2.416   6.962 -1.6016  2.4501 -2.9306
  133MOL0     H17947   1.625   2.696   6.943 -0.1446 -0.0875  0.9016
  133MOL0     H17948   1.516   2.646   7.072  0.9929 -1.1445  0.2956
  133MOL0     H17949   1.463   2.609   6.764 -1.5025 -0.3033 -1.1430
  133MOL0     H17950   1.349   2.570   6.897 -0.4687  0.6771  0.3797
  133MOL0     H17951   1.288   2.987   6.818 -1.4562 -1.1465 -3.1136
  133MOL0     H17952   2.100   2.504   6.956 -1.0483 -1.7492 -0.0863
  133MOL0     H17953   2.403   2.460   6.761  0.3355 -0.6906  0.2469
  133MOL0     H17954   2.357   2.614   6.834 -2.0712  0.8580  0.4309
  133MOL0     H17955   2.340   2.456   6.924  0.8790 -0.1337 -0.0290
  134MOL0     O17956   6.484   0.826   8.144 -0.3826 -0.3459  0.5056
  134MOL0     C17957   6.405   0.786   8.060  0.4585 -0.5707  0.2673
  134MOL0     O17958   6.430   0.679   7.978 -0.9145 -0.4491  0.2385
  134MOL0     C17959   6.547   0.608   7.998 -0.3957  0.0846  0.4760
  134MOL0     C17960   6.539   0.471   7.988  0.5401  0.4215 -0.1660
  134MOL0     C17961   6.649   0.383   8.001  0.3914  0.3552 -0.2755
  134MOL0     C17962   6.772   0.431   8.021  1.3848  0.1716 -0.4626
  134MOL0     O17963   6.869   0.342   8.064  0.2968  0.1455  0.2238
  134MOL0     C17964   7.000   0.375   8.007  0.0253  0.8498  0.4547
  134MOL0     C17965   7.017   0.272   7.897  0.2198 -0.2257  0.4427
  134MOL0     C17966   7.144   0.305   7.816 -0.4152 -0.4253  0.2902
  134MOL0     C17967   7.184   0.186   7.720  0.5006 -0.6481 -0.6788
  134MOL0     C17968   7.325   0.217   7.659  0.0673  0.5051 -0.6303
  134MOL0     C17969   7.365   0.118   7.548  0.2442 -0.3074 -0.9525
  134MOL0     C17970   7.492   0.160   7.469  0.5178  0.3672 -0.1433
  134MOL0     C17971   7.503   0.067   7.345 -1.0074  0.2298 -0.1821
  134MOL0     N17972   7.636   0.073   7.280 -0.1864  0.3931 -0.0940
  134MOL0     C17973   7.682   0.172   7.198  0.1443 -0.5739  0.4022
  134MOL0     C17974   7.801   0.126   7.157  0.2828 -0.4903 -0.2577
  134MOL0     C17975   7.894   0.204   7.075  1.1980  0.3354 -0.0222
  134MOL0     C17976   7.845   0.204   6.927 -0.7057  0.4320 -0.8654
  134MOL0     C17977   7.951   0.263   6.826  0.5156  0.8930 -0.1164
  134MOL0     C17978   7.907   0.230   6.683 -0.3798  0.2744  0.0469
  134MOL0     O17979   7.969   0.317   6.586  0.2547 -1.0760  0.6115
  134MOL0     C17980   8.094   0.278   6.538 -0.4761 -0.6239  0.1798
  134MOL0     C17981   8.166   0.166   6.586 -0.9336 -0.7762  0.1497
  134MOL0     C17982   8.283   0.126   6.523  0.1267  0.2545  0.3429
  134MOL0     C17983   8.327   0.197   6.401  0.5689 -0.0490 -0.6655
  134MOL0     C17984   8.441   0.150   6.322 -0.3645  0.1959 -0.5004
  134MOL0     O17985   8.486   0.246   6.237 -0.1732 -0.2109 -0.1421
  134MOL0     C17986   8.591   0.224   6.160 -0.1927 -0.0737  0.6968
  134MOL0     C17987   8.587   0.245   6.021  0.2265 -0.0631 -0.1962
  134MOL0     C17988   8.705   0.227   5.948  0.1024 -0.4241 -1.2596
  134MOL0     C17989   8.826   0.179   5.990 -0.0089  0.1943 -0.3147
  134MOL0     O17990   8.925   0.160   5.906  0.0374  0.6846 -0.3346
  134MOL0     C17991   9.034   0.063   5.931 -0.2463  0.3712 -0.4329
  134MOL0     C17992   9.137   0.062   5.819 -0.8184  0.2288  0.3250
  134MOL0     C17993   9.260  -0.028   5.849  0.2319 -0.7273  0.4116
  134MOL0     C17994   9.374  -0.022   5.743  0.2120 -0.3657  0.4349
  134MOL0     C17995   9.475  -0.141   5.760  0.1026  0.0224 -0.0464
  134MOL0     C17996   9.610  -0.121   5.680  0.7160  0.1239 -0.1816
  134MOL0     C17997   9.674  -0.256   5.654 -0.9011 -0.3341 -0.6194
  134MOL0     C17998   9.797  -0.218   5.561  0.4165  0.2869 -1.1548
  134MOL0    Cl17999   9.898  -0.370   5.569  0.5747  0.0039  0.1842
  134MOL0     C18000   8.820   0.132   6.127  0.1382  0.8246  0.8309
  134MOL0     C18001   8.706   0.159   6.215  0.4994  0.0961 -0.2623
  134MOL0     O18002   8.493   0.040   6.344  0.4799 -0.0282  0.0922
  134MOL0     C18003   8.261   0.316   6.368 -0.2586  0.1303 -0.0722
  134MOL0     C18004   8.142   0.353   6.434  0.0710 -0.7764  1.3279
  134MOL0     N18005   7.826   0.001   7.211  0.7659  0.1229  0.4163
  134MOL0     N18006   7.726  -0.029   7.289 -0.1100 -0.6643 -1.2538
  134MOL0     C18007   6.787   0.574   8.034  0.5179  0.1471 -0.0167
  134MOL0     C18008   6.676   0.660   8.019  0.0278  1.2547 -1.1363
  134MOL0     C18009   6.271   0.847   8.040 -0.2703 -0.6187  0.5739
  134MOL0     C18010   6.201   0.811   7.929  0.0125  1.1831 -0.2504
  134MOL0     C18011   6.073   0.861   7.902  1.1105  0.0048  0.0160
  134MOL0     C18012   6.014   0.953   7.987  0.2940  0.1375  0.0611
  134MOL0     O18013   5.878   0.995   7.967 -0.3252  0.1621  0.1505
  134MOL0     C18014   5.785   0.896   8.002 -0.5167  0.7862  0.6326
  134MOL0     C18015   5.722   0.837   7.877 -0.1618 -0.6206 -0.6493
  134MOL0     C18016   5.590   0.760   7.895 -0.2532 -0.4113  1.1345
  134MOL0     C18017   5.520   0.739   7.761  0.3225 -0.2022 -0.1537
  134MOL0     C18018   5.595   0.681   7.646 -0.2072  0.1268  0.2768
  134MOL0     C18019   5.653   0.616   7.561 -0.5654 -0.0901  0.8449
  134MOL0     C18020   6.082   0.998   8.103 -0.9982 -0.1398  0.0415
  134MOL0     C18021   6.217   0.950   8.129 -1.0511 -0.0407  0.1457
  134MOL0     C18022   6.289   0.995   8.255  0.5986  0.3271 -0.1332
  134MOL0     H18023   6.447   0.416   7.971 -0.0971  1.1265  0.8980
  134MOL0     H18024   6.624   0.279   7.986 -1.5439  0.6113  0.7841
  134MOL0     H18025   7.007   0.479   7.975 -2.0371  0.9453  0.1576
  134MOL0     H18026   7.072   0.367   8.088  0.4826  0.0725 -0.0082
  134MOL0     H18027   6.930   0.266   7.831  0.5965  0.9038 -0.1864
  134MOL0     H18028   7.035   0.179   7.953 -0.0036 -1.8487 -2.0387
  134MOL0     H18029   7.218   0.331   7.893 -1.8175 -2.6318  2.5528
  134MOL0     H18030   7.129   0.389   7.748  3.0215 -0.3665 -0.5877
  134MOL0     H18031   7.193   0.093   7.776  0.5729 -0.9103 -1.1165
  134MOL0     H18032   7.110   0.175   7.640 -0.1548  0.6666 -0.2868
  134MOL0     H18033   7.324   0.321   7.626 -3.6749  0.8770  0.3337
  134MOL0     H18034   7.402   0.217   7.736  1.8143 -0.4530 -2.2686
  134MOL0     H18035   7.379   0.022   7.597 -1.0996  1.1894  2.7126
  134MOL0     H18036   7.278   0.108   7.483 -0.0263  1.8217 -0.9995
  134MOL0     H18037   7.580   0.149   7.532 -0.5860  1.5558  1.6853
  134MOL0     H18038   7.487   0.263   7.430 -0.2388 -0.0310 -1.1516
  134MOL0     H18039   7.487  -0.034   7.384  0.3119 -0.3582 -1.0811
  134MOL0     H18040   7.429   0.091   7.268  1.3741 -0.6267 -2.9464
  134MOL0     H18041   7.629   0.264   7.174  0.7418  0.0139  1.2509
  134MOL0     H18042   7.904   0.308   7.107  0.7512  0.4719 -0.3055
  134MOL0     H18043   7.997   0.169   7.075  0.4331 -2.0809  0.4473
  134MOL0     H18044   7.812   0.104   6.899  0.2173 -0.3269  0.5979
  134MOL0     H18045   7.761   0.273   6.921  0.0550  1.3228 -1.6311
  134MOL0     H18046   8.051   0.226   6.851  0.4759  0.8584 -0.0037
  134MOL0     H18047   7.940   0.370   6.846 -2.8136  0.1228  3.3775
  134MOL0     H18048   7.799   0.243   6.680 -0.7523 -1.8319  1.9343
  134MOL0     H18049   7.919   0.124   6.662 -1.1286 -0.7495  4.0447
  134MOL0     H18050   8.138   0.102   6.670  0.2042 -0.9117  0.4391
  134MOL0     H18051   8.336   0.040   6.560  2.4038  1.3599 -0.1772
  134MOL0     H18052   8.497   0.291   5.983  1.2748  1.6405 -0.7120
  134MOL0     H18053   8.696   0.254   5.843 -0.2471  0.1436 -1.0931
  134MOL0     H18054   9.077   0.088   6.029 -2.7733 -0.7830  1.0705
  134MOL0     H18055   8.995  -0.039   5.937 -2.7562  1.1369 -2.2895
  134MOL0     H18056   9.084   0.030   5.729  0.2005  0.7893 -0.4989
  134MOL0     H18057   9.175   0.163   5.802 -0.2575 -0.1295 -0.6671
  134MOL0     H18058   9.300  -0.017   5.950  1.0166 -0.9026  0.1313
  134MOL0     H18059   9.237  -0.135   5.851  0.7429 -0.8351  0.7539
  134MOL0     H18060   9.425   0.075   5.735 -1.1342  0.3998  0.7570
  134MOL0     H18061   9.323  -0.025   5.647  1.1243 -1.5394 -0.0341
  134MOL0     H18062   9.434  -0.236   5.725  2.8379 -1.6090  0.8197
  134MOL0     H18063   9.501  -0.149   5.866 -3.1606  2.8839  1.1274
  134MOL0     H18064   9.591  -0.068   5.587 -0.9885  0.9550  0.5903
  134MOL0     H18065   9.677  -0.064   5.744 -0.4676  0.1405  1.1076
  134MOL0     H18066   9.609  -0.323   5.599 -0.3534 -0.1251 -1.5411
  134MOL0     H18067   9.702  -0.300   5.750 -0.2016 -1.8297 -1.4787
  134MOL0     H18068   9.764  -0.186   5.462  1.6375  0.5107 -1.5123
  134MOL0     H18069   9.862  -0.143   5.609 -1.3096  0.8882  0.3468
  134MOL0     H18070   8.898   0.069   6.167  0.3369  0.7750  0.3732
  134MOL0     H18071   8.722   0.136   6.320  3.5677  1.4620 -0.3294
  134MOL0     H18072   8.304   0.395   6.306 -0.3875 -0.2370 -0.6303
  134MOL0     H18073   8.082   0.436   6.399  1.1056 -0.5491  0.0087
  134MOL0     H18074   6.881   0.626   8.052 -0.4468  1.2989  2.0489
  134MOL0     H18075   6.689   0.767   8.026  0.3407  1.3459 -2.7221
  134MOL0     H18076   6.238   0.743   7.854 -0.0622 -0.6087  1.2739
  134MOL0     H18077   6.032   0.825   7.808  1.2381  0.6316 -0.2857
  134MOL0     H18078   5.707   0.936   8.068  0.0928 -1.0424  2.5861
  134MOL0     H18079   5.839   0.823   8.063 -0.0744  0.9132  0.3905
  134MOL0     H18080   5.801   0.775   7.832  1.8878  2.2737 -1.3419
  134MOL0     H18081   5.704   0.916   7.804  3.8923 -0.7931 -2.1247
  134MOL0     H18082   5.527   0.827   7.954 -3.2998 -1.4255 -0.7590
  134MOL0     H18083   5.610   0.663   7.941  1.8773 -0.5481  0.0937
  134MOL0     H18084   5.435   0.671   7.776  0.9952 -1.1442 -0.4911
  134MOL0     H18085   5.473   0.829   7.721 -3.1499 -1.3061  1.0968
  134MOL0     H18086   5.698   0.551   7.489 -2.6734 -2.3674  1.4333
  134MOL0     H18087   6.042   1.073   8.170  1.6043 -0.7277  2.4100
  134MOL0     H18088   6.230   1.066   8.314 -1.3743 -1.5683  0.2716
  134MOL0     H18089   6.300   0.903   8.313  3.3376  0.6317 -0.0452
  134MOL0     H18090   6.393   1.030   8.247  1.9396 -1.1479  5.7700
  135MOL0     O18091  10.249   0.814   6.990  0.4166  0.1570 -0.4317
  135MOL0     C18092  10.215   0.722   6.916 -0.1468 -0.0770  0.2049
  135MOL0     O18093  10.299   0.645   6.843  0.2849  0.1891 -0.7369
  135MOL0     C18094  10.436   0.644   6.864 -0.4512  0.3665 -0.5665
  135MOL0     C18095  10.487   0.629   6.994 -0.0247  0.7300 -0.0801
  135MOL0     C18096  10.627   0.627   7.023 -0.2842  0.2529 -0.1428
  135MOL0     C18097  10.713   0.628   6.924 -0.3928  0.2156 -0.2979
  135MOL0     O18098  10.847   0.626   6.934  0.1943 -0.9362 -0.4674
  135MOL0     C18099  10.898   0.537   7.030  0.1464  0.1164  1.1217
  135MOL0     C18100  10.961   0.626   7.134  0.1078  0.2312 -0.6859
  135MOL0     C18101  11.072   0.712   7.080 -1.0147  0.1867  1.0351
  135MOL0     C18102  11.205   0.701   7.153  0.2200 -0.3546  0.7603
  135MOL0     C18103  11.298   0.818   7.120  0.5027 -0.1779 -0.0024
  135MOL0     C18104  11.436   0.789   7.193  0.0088 -0.8641  0.6691
  135MOL0     C18105  11.544   0.898   7.140  0.4709  0.4866  0.1591
  135MOL0     C18106  11.603   0.861   7.002 -0.3099 -0.6202  0.1668
  135MOL0     N18107  11.708   0.952   6.962 -0.5996 -0.2852 -0.0822
  135MOL0     C18108  11.826   0.983   7.025 -0.2177 -0.2643  0.5175
  135MOL0     C18109  11.882   1.079   6.936 -0.7956  0.4789 -1.0460
  135MOL0     C18110  12.023   1.137   6.951  0.2789  0.1868 -0.0731
  135MOL0     C18111  12.025   1.292   6.956  0.6460 -0.7736  0.7148
  135MOL0     C18112  12.028   1.344   7.106  0.2405  0.2324  1.2799
  135MOL0     C18113  12.041   1.499   7.115 -0.1577  0.1068 -0.6075
  135MOL0     O18114  12.158   1.534   7.040 -0.1373  0.0688  0.1129
  135MOL0     C18115  12.279   1.518   7.100 -0.0241  0.2411 -0.2292
  135MOL0     C18116  12.301   1.519   7.242 -0.9695 -0.0739 -0.0735
  135MOL0     C18117  12.420   1.490   7.301  0.1574 -0.2997 -0.6055
  135MOL0     C18118  12.525   1.438   7.222 -0.2352 -0.4135  1.0647
  135MOL0     C18119  12.649   1.401   7.288 -0.5944 -0.2102 -0.4810
  135MOL0     O18120  12.741   1.343   7.204 -0.3319  0.3216 -0.5997
  135MOL0     C18121  12.856   1.293   7.255 -0.1526 -0.9095  0.0849
  135MOL0     C18122  12.946   1.368   7.330 -0.8099  0.2515 -0.4786
  135MOL0     C18123  13.054   1.303   7.400 -0.8895  0.0958  0.9216
  135MOL0     C18124  13.077   1.167   7.385  0.2403  0.9344 -0.0933
  135MOL0     O18125  13.168   1.098   7.458  0.8480  0.1225 -0.4771
  135MOL0     C18126  13.269   1.067   7.370  0.0309 -0.7612 -0.8189
  135MOL0     C18127  13.380   1.015   7.468  1.7859 -0.2271 -0.5574
  135MOL0     C18128  13.492   1.113   7.497 -0.6613  0.1244 -0.7614
  135MOL0     C18129  13.447   1.234   7.585  0.2066  0.4781 -0.0233
  135MOL0     C18130  13.550   1.351   7.577 -0.4827 -0.2698 -0.3651
  135MOL0     C18131  13.518   1.443   7.690  0.8181 -0.4177  0.1828
  135MOL0     C18132  13.627   1.548   7.701  0.0234 -0.2193  0.1190
  135MOL0     C18133  13.615   1.637   7.822  0.1389  1.1115 -0.0857
  135MOL0    Cl18134  13.756   1.744   7.834  0.0951 -0.0005  0.1287
  135MOL0     C18135  12.982   1.086   7.321 -0.3334 -0.0436 -0.5182
  135MOL0     C18136  12.868   1.156   7.262  0.4524 -0.9763  0.1598
  135MOL0     O18137  12.661   1.406   7.412  0.7029 -0.1197 -0.5550
  135MOL0     C18138  12.503   1.433   7.086  0.5500  0.1418  0.7634
  135MOL0     C18139  12.380   1.473   7.025  0.0301 -0.1604  0.7029
  135MOL0     N18140  11.806   1.087   6.821  0.2370 -0.0740  0.3584
  135MOL0     N18141  11.700   1.015   6.840  0.0470  0.3167  0.1133
  135MOL0     C18142  10.673   0.620   6.793  0.4054 -0.9041 -0.5915
  135MOL0     C18143  10.531   0.626   6.769  0.1838  0.8060  1.1278
  135MOL0     C18144  10.071   0.721   6.881  0.3126  0.0288 -0.6576
  135MOL0     C18145  10.036   0.722   6.745  0.5115  0.5677 -0.8942
  135MOL0     C18146   9.905   0.727   6.703 -0.1456 -0.2360 -0.3228
  135MOL0     C18147   9.801   0.740   6.791 -0.3395 -0.2699  0.2218
  135MOL0     O18148   9.671   0.730   6.744  0.0166 -0.5316  0.0615
  135MOL0     C18149   9.645   0.616   6.662  0.1658  0.3875  1.0053
  135MOL0     C18150   9.487   0.603   6.650 -0.0070 -0.2999 -0.7680
  135MOL0     C18151   9.421   0.718   6.574  0.7896  0.4565 -0.1270
  135MOL0     C18152   9.343   0.677   6.452  0.2322 -0.1718  0.0427
  135MOL0     C18153   9.238   0.604   6.506  1.9202 -0.0350 -0.1764
  135MOL0     C18154   9.146   0.529   6.537 -0.1687 -0.3379  0.0026
  135MOL0     C18155   9.824   0.751   6.931  0.1030  0.0160 -0.0017
  135MOL0     C18156   9.958   0.747   6.972  0.7826  0.3721 -0.2325
  135MOL0     C18157   9.981   0.761   7.121 -0.3423 -0.2623  0.0893
  135MOL0     H18158  10.412   0.639   7.072 -2.6109  0.2434 -2.3131
  135MOL0     H18159  10.666   0.642   7.124  0.8653 -1.1769 -0.3403
  135MOL0     H18160  10.815   0.483   7.077 -0.0049 -0.0056  0.7195
  135MOL0     H18161  10.978   0.471   6.997 -0.0291  0.1877  0.5576
  135MOL0     H18162  10.999   0.548   7.201 -1.7769 -0.6645 -0.5917
  135MOL0     H18163  10.890   0.680   7.197  0.1669 -2.0770  1.5567
  135MOL0     H18164  11.048   0.818   7.085  1.4397  1.0014 -1.6580
  135MOL0     H18165  11.101   0.683   6.979 -2.0148 -2.2537  1.3776
  135MOL0     H18166  11.182   0.699   7.260 -2.6583  1.1347  0.2968
  135MOL0     H18167  11.243   0.605   7.119 -3.2125 -1.3584 -0.6780
  135MOL0     H18168  11.314   0.818   7.012  5.3179 -1.0703  0.5167
  135MOL0     H18169  11.260   0.916   7.153  0.8161  0.0303 -0.2585
  135MOL0     H18170  11.429   0.804   7.301  0.1415  0.7049  0.4904
  135MOL0     H18171  11.467   0.687   7.172 -2.4689 -1.4963 -0.3466
  135MOL0     H18172  11.639   0.898   7.194  0.6111 -3.9010  0.2631
  135MOL0     H18173  11.496   0.996   7.129 -1.4837 -0.2866  1.1749
  135MOL0     H18174  11.627   0.754   7.010 -2.2837 -0.9961  2.0891
  135MOL0     H18175  11.527   0.858   6.923  1.3112 -0.1629 -1.4718
  135MOL0     H18176  11.867   0.937   7.114 -1.7259 -1.8591  0.4350
  135MOL0     H18177  12.065   1.093   7.043 -1.7761 -2.8341 -0.4309
  135MOL0     H18178  12.098   1.099   6.881 -0.8379 -1.9616 -0.1771
  135MOL0     H18179  12.114   1.327   6.903  0.1206 -1.4365 -0.6539
  135MOL0     H18180  11.933   1.322   6.905  1.2457 -0.5126 -0.2324
  135MOL0     H18181  12.118   1.304   7.152  1.4631 -0.1807 -1.3185
  135MOL0     H18182  11.937   1.300   7.149 -0.6234  0.5575 -0.1272
  135MOL0     H18183  12.045   1.537   7.217 -0.4744  0.6721 -0.7977
  135MOL0     H18184  11.950   1.541   7.071 -1.0944 -1.9971 -0.8001
  135MOL0     H18185  12.230   1.574   7.304  0.5693  1.4684  0.3845
  135MOL0     H18186  12.436   1.501   7.408 -0.2476 -1.3422 -0.4266
  135MOL0     H18187  12.947   1.475   7.344 -1.5577  0.2526 -0.4173
  135MOL0     H18188  13.134   1.357   7.449 -0.6848  0.6883 -0.0326
  135MOL0     H18189  13.255   0.978   7.308  0.7198 -2.1152  0.8680
  135MOL0     H18190  13.304   1.156   7.317 -2.1431  0.4203 -0.3713
  135MOL0     H18191  13.339   0.970   7.559  1.8119 -2.6332 -1.6399
  135MOL0     H18192  13.430   0.932   7.417 -2.8879 -2.8413 -1.4957
  135MOL0     H18193  13.573   1.061   7.549 -0.1461  0.7734 -0.9074
  135MOL0     H18194  13.523   1.159   7.403 -2.6745  2.5487 -0.3624
  135MOL0     H18195  13.428   1.204   7.688  2.6737  3.0745  1.3328
  135MOL0     H18196  13.354   1.277   7.546 -0.5038 -0.1061  0.9675
  135MOL0     H18197  13.544   1.395   7.477  1.7010  0.9054 -0.0230
  135MOL0     H18198  13.653   1.316   7.584  0.3567  1.7841 -1.8377
  135MOL0     H18199  13.419   1.481   7.665  1.0949  0.7764  0.8239
  135MOL0     H18200  13.508   1.395   7.788  2.3463 -2.4705 -0.5885
  135MOL0     H18201  13.615   1.623   7.622  4.8449 -0.6308 -1.3659
  135MOL0     H18202  13.725   1.503   7.683  0.7198  2.1465 -2.9255
  135MOL0     H18203  13.518   1.687   7.824 -1.1847 -1.2756  0.0780
  135MOL0     H18204  13.612   1.581   7.916  0.8124 -1.4855 -1.5144
  135MOL0     H18205  12.988   0.978   7.313  2.6893  0.0619 -0.6082
  135MOL0     H18206  12.793   1.087   7.223 -1.9726 -2.1440  5.8415
  135MOL0     H18207  12.583   1.391   7.025  3.3260  3.3653  1.8729
  135MOL0     H18208  12.372   1.484   6.917 -1.0938  1.0072  0.8790
  135MOL0     H18209  10.753   0.595   6.723  1.3956 -1.0898  0.5787
  135MOL0     H18210  10.494   0.617   6.667  1.8453 -2.3804  0.6754
  135MOL0     H18211  10.124   0.710   6.682  1.8174 -0.6407  1.0336
  135MOL0     H18212   9.882   0.756   6.601  2.0511  2.3730 -0.1816
  135MOL0     H18213   9.688   0.519   6.689  0.2371  0.7132  2.1141
  135MOL0     H18214   9.688   0.631   6.562 -2.0975  1.9098  0.1973
  135MOL0     H18215   9.445   0.600   6.751  2.6395 -1.0907  0.3803
  135MOL0     H18216   9.468   0.507   6.601 -0.7802 -1.2579  1.3069
  135MOL0     H18217   9.502   0.786   6.545  0.5802  1.7338  1.9951
  135MOL0     H18218   9.355   0.771   6.643  2.5865  1.4181  0.9442
  135MOL0     H18219   9.295   0.763   6.406 -1.9700  0.3620  3.0479
  135MOL0     H18220   9.398   0.615   6.380 -1.3024 -0.1892 -1.1671
  135MOL0     H18221   9.068   0.462   6.565 -1.0521  0.6901  0.0303
  135MOL0     H18222   9.736   0.758   6.994  1.6503 -0.5099  2.3791
  135MOL0     H18223  10.006   0.863   7.152  0.0076 -0.1684 -0.4845
  135MOL0     H18224   9.899   0.732   7.187  0.3696 -0.4305  0.9115
  135MOL0     H18225  10.062   0.693   7.145 -1.0578 -0.7290  1.2235
  136MOL0     O18226   2.754   0.500   4.537  0.4121 -0.2150 -0.4115
  136MOL0     C18227   2.670   0.433   4.595  1.0891  0.4517 -0.5231
  136MOL0     O18228   2.642   0.433   4.725 -0.2549  0.0414 -0.2977
  136MOL0     C18229   2.721   0.501   4.817  0.4153 -0.5353 -0.0421
  136MOL0     C18230   2.859   0.514   4.812  0.2961  0.1194 -0.0142
  136MOL0     C18231   2.937   0.581   4.902  0.2845 -0.0235 -0.0895
  136MOL0     C18232   2.875   0.648   5.003  0.1545  0.4022 -0.1830
  136MOL0     O18233   2.969   0.705   5.083  0.0762  0.5199  0.1483
  136MOL0     C18234   2.923   0.776   5.200 -0.4322 -0.2497 -0.5253
  136MOL0     C18235   3.035   0.857   5.282  0.0636 -1.2848  1.0783
  136MOL0     C18236   3.152   0.761   5.302  1.3321 -0.3558 -0.5992
  136MOL0     C18237   3.257   0.841   5.380  0.5213 -1.1602 -0.5962
  136MOL0     C18238   3.381   0.748   5.398  0.6699  0.1834  0.4324
  136MOL0     C18239   3.477   0.814   5.498 -0.3552  0.6395  0.0619
  136MOL0     C18240   3.616   0.765   5.503  0.1047  0.0062  0.4930
  136MOL0     C18241   3.690   0.793   5.374 -0.7561  0.2041  0.4915
  136MOL0     N18242   3.821   0.719   5.375 -0.3641  0.6034 -0.3177
  136MOL0     C18243   3.860   0.613   5.299  0.2531  0.2803 -0.0240
  136MOL0     C18244   3.991   0.599   5.316 -0.1896  0.0487 -0.8958
  136MOL0     C18245   4.077   0.504   5.236  0.0008  0.2215  0.0540
  136MOL0     C18246   4.213   0.485   5.311 -0.7313  0.5779  0.3089
  136MOL0     C18247   4.303   0.383   5.243 -0.0744  0.2352  1.0273
  136MOL0     C18248   4.448   0.405   5.267 -0.9148 -0.3579 -0.5007
  136MOL0     O18249   4.518   0.344   5.158  0.0304  0.6213 -0.0235
  136MOL0     C18250   4.650   0.309   5.164 -0.1618 -0.2500  0.1962
  136MOL0     C18251   4.699   0.218   5.075 -0.0643  0.4047 -0.0442
  136MOL0     C18252   4.834   0.177   5.085  0.0976  0.4765  1.2349
  136MOL0     C18253   4.919   0.222   5.190  0.4585 -0.3692  1.2242
  136MOL0     C18254   5.058   0.189   5.188  0.1145 -0.6670  1.2688
  136MOL0     O18255   5.141   0.265   5.264  0.2997 -0.0660 -0.0667
  136MOL0     C18256   5.266   0.223   5.294 -0.1522  0.4434  0.2136
  136MOL0     C18257   5.290   0.141   5.398 -0.6823  0.3185 -0.0802
  136MOL0     C18258   5.421   0.113   5.427 -0.3238  0.4398  0.1451
  136MOL0     C18259   5.522   0.156   5.339 -0.9143 -0.4073 -0.4518
  136MOL0     O18260   5.655   0.122   5.358 -0.1706  0.0699  0.1373
  136MOL0     C18261   5.675  -0.025   5.377  0.4311 -0.6528  0.1984
  136MOL0     C18262   5.827  -0.059   5.362  0.3717 -0.0091 -0.0022
  136MOL0     C18263   5.891   0.004   5.235  0.6232  0.2441 -0.1674
  136MOL0     C18264   6.010  -0.074   5.182 -0.1064  0.2944 -0.3688
  136MOL0     C18265   6.063  -0.036   5.046  0.8187 -0.0659  0.0585
  136MOL0     C18266   6.191  -0.117   5.013  0.3483 -0.3122  0.0185
  136MOL0     C18267   6.286  -0.029   4.921 -0.0186 -0.1987  0.8490
  136MOL0     C18268   6.389  -0.111   4.845  0.1840 -0.0613 -1.2586
  136MOL0    Cl18269   6.468  -0.213   4.966 -0.1743  0.1165  0.1245
  136MOL0     C18270   5.501   0.244   5.232 -0.2901  0.0916  0.2416
  136MOL0     C18271   5.366   0.277   5.210  0.6789 -0.6322  0.0825
  136MOL0     O18272   5.097   0.097   5.118 -0.0515 -0.4392 -0.0495
  136MOL0     C18273   4.872   0.318   5.276 -0.6591 -0.7935  0.1830
  136MOL0     C18274   4.741   0.371   5.251 -0.1486  0.3626  0.0263
  136MOL0     N18275   4.034   0.702   5.388 -0.2950 -0.0299 -1.1628
  136MOL0     N18276   3.931   0.774   5.416 -0.9768 -0.3672  0.3030
  136MOL0     C18277   2.732   0.652   5.006 -0.1372 -0.5417  0.7110
  136MOL0     C18278   2.661   0.573   4.921 -0.7733 -0.3429 -0.0127
  136MOL0     C18279   2.579   0.350   4.517 -0.4619  0.1468  0.5563
  136MOL0     C18280   2.456   0.304   4.567  0.5228  0.5444 -1.3255
  136MOL0     C18281   2.374   0.222   4.492 -0.0742  0.0095  0.5626
  136MOL0     C18282   2.408   0.187   4.358 -0.4524 -0.4067  0.9524
  136MOL0     O18283   2.333   0.112   4.270  0.4499 -0.3789 -0.3512
  136MOL0     C18284   2.203   0.081   4.321  0.2955 -0.5726  0.2593
  136MOL0     C18285   2.137   0.002   4.217  0.1551 -0.2005 -0.3095
  136MOL0     C18286   1.990  -0.032   4.248  0.4427  0.3995 -0.3163
  136MOL0     C18287   1.924  -0.108   4.129  0.2012  0.2451  0.2072
  136MOL0     C18288   1.783  -0.137   4.144  0.1903 -0.0186  0.2503
  136MOL0     C18289   1.668  -0.169   4.166  0.1990 -0.1872  0.1128
  136MOL0     C18290   2.527   0.237   4.307  0.6044 -1.0222 -0.3282
  136MOL0     C18291   2.609   0.315   4.383  0.0756 -0.5698 -1.1070
  136MOL0     C18292   2.736   0.349   4.313  0.1094 -0.0052 -0.2632
  136MOL0     H18293   2.909   0.450   4.740  2.4845  0.8357  0.7843
  136MOL0     H18294   3.045   0.580   4.888  0.0840  0.7057 -2.0505
  136MOL0     H18295   2.847   0.848   5.168 -2.6264 -2.2676 -0.1571
  136MOL0     H18296   2.879   0.700   5.266 -0.4819  0.0583 -0.2029
  136MOL0     H18297   2.985   0.881   5.376 -2.2954 -0.5676 -0.2635
  136MOL0     H18298   3.068   0.952   5.240 -2.3087 -1.1635 -0.7561
  136MOL0     H18299   3.200   0.736   5.207  2.4010  1.9110 -0.7250
  136MOL0     H18300   3.119   0.666   5.345  2.1423 -0.2439  0.3081
  136MOL0     H18301   3.276   0.936   5.329 -3.0612  0.3719  0.6004
  136MOL0     H18302   3.223   0.847   5.484 -1.2020 -2.8808 -1.0258
  136MOL0     H18303   3.354   0.649   5.436  0.5015  0.8055  1.9818
  136MOL0     H18304   3.425   0.733   5.298 -1.7899 -1.2505 -0.5140
  136MOL0     H18305   3.489   0.920   5.475  1.0470  0.8159  1.4351
  136MOL0     H18306   3.429   0.795   5.595 -1.9501 -2.9479 -1.2643
  136MOL0     H18307   3.621   0.659   5.526  3.3537 -0.4247 -1.5239
  136MOL0     H18308   3.658   0.818   5.589 -0.0767  2.0178 -0.5797
  136MOL0     H18309   3.628   0.763   5.289 -2.1710  1.0194  1.2016
  136MOL0     H18310   3.722   0.896   5.358  2.1600 -0.8177 -1.1054
  136MOL0     H18311   3.811   0.564   5.216  1.0798  1.2760 -1.1312
  136MOL0     H18312   4.023   0.410   5.229  0.0109 -0.0003  2.2214
  136MOL0     H18313   4.100   0.545   5.137 -1.0586 -0.3357 -0.4308
  136MOL0     H18314   4.253   0.586   5.312  0.3469  0.2138  2.5859
  136MOL0     H18315   4.191   0.440   5.409  1.3664 -1.9704 -0.2816
  136MOL0     H18316   4.286   0.401   5.137  1.9470  0.8654  0.7852
  136MOL0     H18317   4.269   0.284   5.275 -1.8285  1.4016  3.0052
  136MOL0     H18318   4.477   0.364   5.364 -1.3461  0.3777 -0.0494
  136MOL0     H18319   4.471   0.512   5.272  1.0744 -0.7266 -0.7776
  136MOL0     H18320   4.633   0.174   5.001  0.9889 -1.5707  0.1401
  136MOL0     H18321   4.868   0.092   5.027  3.0024  2.5670 -0.3320
  136MOL0     H18322   5.214   0.115   5.471  0.1526 -0.1683  0.6425
  136MOL0     H18323   5.440   0.048   5.512  1.3380  1.0771  0.2902
  136MOL0     H18324   5.634  -0.047   5.476 -0.3198  0.6376  0.1943
  136MOL0     H18325   5.616  -0.067   5.296  0.6665  0.4499 -0.5621
  136MOL0     H18326   5.885  -0.018   5.446 -2.0627 -0.7827  2.1787
  136MOL0     H18327   5.843  -0.167   5.358 -0.9820 -0.2298  0.1625
  136MOL0     H18328   5.808   0.006   5.165 -1.0876  1.1587  1.7887
  136MOL0     H18329   5.927   0.106   5.254  0.5820  0.0638  0.9649
  136MOL0     H18330   5.973  -0.177   5.181  3.7824 -1.2798 -2.2771
  136MOL0     H18331   6.091  -0.068   5.255  1.1728 -6.0043 -0.6945
  136MOL0     H18332   6.091   0.069   5.061  2.8408 -0.5121 -0.3102
  136MOL0     H18333   5.986  -0.037   4.968 -0.2777 -0.1987  1.1080
  136MOL0     H18334   6.245  -0.151   5.102 -0.6830 -2.0488  0.0152
  136MOL0     H18335   6.158  -0.204   4.957 -2.4144 -1.6946  3.4183
  136MOL0     H18336   6.336   0.046   4.984  2.7235 -0.5545 -0.7181
  136MOL0     H18337   6.235   0.031   4.845 -0.9092 -2.4932 -0.4456
  136MOL0     H18338   6.323  -0.164   4.776  1.3839 -0.3941 -2.1699
  136MOL0     H18339   6.467  -0.056   4.792  0.2143  3.7258  2.1997
  136MOL0     H18340   5.578   0.289   5.170 -0.0531 -1.3532 -0.5625
  136MOL0     H18341   5.331   0.344   5.132  0.4665  0.0833  0.7736
  136MOL0     H18342   4.940   0.356   5.351  1.0024 -0.7625 -1.2814
  136MOL0     H18343   4.707   0.457   5.307 -0.9118  0.2262 -0.2153
  136MOL0     H18344   2.665   0.707   5.071 -1.7994  1.5644 -2.4969
  136MOL0     H18345   2.554   0.564   4.939 -0.7952 -1.9969 -0.7869
  136MOL0     H18346   2.425   0.335   4.667  1.5567  1.3862 -1.2410
  136MOL0     H18347   2.287   0.192   4.550 -0.1209 -0.6698  0.1547
  136MOL0     H18348   2.143   0.169   4.345  1.4946  1.2402 -2.7912
  136MOL0     H18349   2.208   0.020   4.411  2.6743 -1.9768 -0.7396
  136MOL0     H18350   2.199  -0.088   4.215  0.6344  0.1008  0.4023
  136MOL0     H18351   2.142   0.050   4.119  0.4098  1.8027  0.6291
  136MOL0     H18352   1.946   0.068   4.253 -1.2848 -0.2539 -1.3911
  136MOL0     H18353   1.980  -0.088   4.341 -2.0528  1.4619  0.1432
  136MOL0     H18354   1.946  -0.066   4.030 -0.6257  0.0629 -0.0643
  136MOL0     H18355   1.970  -0.206   4.113  0.2045  0.4231 -0.9870
  136MOL0     H18356   1.566  -0.198   4.185  0.0666 -1.9981 -2.7814
  136MOL0     H18357   2.540   0.210   4.202  0.8206  1.6176 -1.0660
  136MOL0     H18358   2.739   0.293   4.219 -1.6685  0.4527 -0.6303
  136MOL0     H18359   2.735   0.453   4.282 -0.6457  1.4278  3.9328
  136MOL0     H18360   2.825   0.325   4.374  0.8183 -0.4965 -1.4618
  137MOL0     O18361   6.349   1.723  10.640 -0.2720  0.4465  1.1833
  137MOL0     C18362   6.337   1.691  10.757 -0.8425 -0.3531  0.9467
  137MOL0     O18363   6.439   1.685  10.841 -0.5958  0.1078 -0.2423
  137MOL0     C18364   6.557   1.745  10.801  0.4631  0.0326 -1.1338
  137MOL0     C18365   6.648   1.687  10.714 -0.6761  0.3223  0.0002
  137MOL0     C18366   6.757   1.768  10.677 -0.3591  0.8063  0.8698
  137MOL0     C18367   6.780   1.889  10.738  0.6158 -0.3910  0.2439
  137MOL0     O18368   6.901   1.952  10.701 -0.1591  0.6445 -0.3470
  137MOL0     C18369   6.892   2.094  10.667 -0.0214 -0.7204  0.6171
  137MOL0     C18370   6.852   2.110  10.529  0.5903 -0.4732  0.4848
  137MOL0     C18371   6.982   2.083  10.444 -0.2590  0.0246  0.2667
  137MOL0     C18372   6.981   1.939  10.378 -0.0787 -0.4245  1.2546
  137MOL0     C18373   7.100   1.911  10.285  0.1932 -0.5186  0.2965
  137MOL0     C18374   7.233   1.885  10.362  0.3951 -0.0115 -0.1410
  137MOL0     C18375   7.336   1.834  10.253 -0.4194  0.3783 -0.5533
  137MOL0     C18376   7.334   1.677  10.242 -0.1002 -0.3037 -0.0001
  137MOL0     N18377   7.442   1.609  10.160 -0.0048  0.0303  0.0721
  137MOL0     C18378   7.568   1.571  10.195  0.4147 -1.1386  0.3375
  137MOL0     C18379   7.610   1.510  10.081 -0.5275 -0.3127  0.5148
  137MOL0     C18380   7.741   1.436  10.051 -0.7063 -0.5792 -0.1425
  137MOL0     C18381   7.869   1.527  10.091  0.5216 -0.3128 -0.7582
  137MOL0     C18382   7.999   1.447  10.089 -0.4438 -0.7185 -0.2795
  137MOL0     C18383   8.001   1.341  10.202  0.2889  0.2464  0.0295
  137MOL0     O18384   7.984   1.390  10.337 -0.3880  0.6515 -0.4585
  137MOL0     C18385   8.098   1.431  10.410 -0.8117  0.3663 -0.0755
  137MOL0     C18386   8.222   1.443  10.347  0.3421  0.1488 -0.4819
  137MOL0     C18387   8.341   1.471  10.424  0.7088  0.2199  0.5926
  137MOL0     C18388   8.346   1.484  10.563  0.1594 -0.5206 -1.0841
  137MOL0     C18389   8.462   1.538  10.633 -0.4292  0.2676 -0.2637
  137MOL0     O18390   8.441   1.645  10.703 -0.2786  0.5491 -0.4291
  137MOL0     C18391   8.552   1.702  10.764  0.3676 -0.7168  0.1354
  137MOL0     C18392   8.633   1.640  10.861 -0.3322 -0.0038 -0.1699
  137MOL0     C18393   8.729   1.710  10.937  1.0277 -0.0311 -0.4874
  137MOL0     C18394   8.762   1.843  10.908 -0.3467 -0.1386 -0.3954
  137MOL0     O18395   8.852   1.909  10.979  0.1123  0.0017 -0.6003
  137MOL0     C18396   8.959   1.950  10.892 -0.0749  0.1164 -0.0148
  137MOL0     C18397   9.096   1.962  10.958 -0.7349 -0.0127 -0.8969
  137MOL0     C18398   9.107   2.076  11.053  0.8953  0.3470 -0.7469
  137MOL0     C18399   9.252   2.099  11.097 -0.3255 -0.4975 -0.9320
  137MOL0     C18400   9.264   2.200  11.209 -0.1822  0.2865  0.1693
  137MOL0     C18401   9.410   2.211  11.269  0.2519 -0.3615 -0.4553
  137MOL0     C18402   9.535   2.240  11.176  0.2698 -0.4552  0.6491
  137MOL0     C18403   9.663   2.157  11.217 -0.2987 -0.4455 -0.2154
  137MOL0    Cl18404   9.697   2.176  11.390  0.6088 -0.0815 -0.2549
  137MOL0     C18405   8.694   1.900  10.796 -0.0624 -0.7692 -0.3211
  137MOL0     C18406   8.587   1.834  10.738  0.4489 -0.6061  0.7104
  137MOL0     O18407   8.567   1.495  10.594 -0.1631  1.0391 -0.4949
  137MOL0     C18408   8.218   1.474  10.625 -0.7086 -0.0515  0.1559
  137MOL0     C18409   8.106   1.447  10.551  0.0451 -0.7296  0.5946
  137MOL0     N18410   7.518   1.517   9.982  0.1085 -0.8961 -0.6003
  137MOL0     N18411   7.417   1.578  10.025  0.0927 -0.3557  0.0732
  137MOL0     C18412   6.698   1.938  10.842 -0.7329 -0.9590  0.0295
  137MOL0     C18413   6.584   1.862  10.870 -0.2034  0.1839 -0.7195
  137MOL0     C18414   6.193   1.676  10.801  0.8941 -1.3755 -0.7502
  137MOL0     C18415   6.096   1.650  10.696  1.5041  0.7993 -0.1650
  137MOL0     C18416   5.953   1.643  10.727  0.1778  0.8078 -0.1627
  137MOL0     C18417   5.906   1.683  10.853  0.3422  0.6970 -0.1980
  137MOL0     O18418   5.765   1.683  10.866 -0.4551  0.4066  0.0161
  137MOL0     C18419   5.711   1.805  10.936 -0.3824  0.3492  0.7029
  137MOL0     C18420   5.592   1.741  11.013 -0.5899 -0.2232 -0.1403
  137MOL0     C18421   5.512   1.837  11.101 -0.0396  0.0705 -0.0213
  137MOL0     C18422   5.454   1.955  11.019  0.3876 -0.4107 -0.5946
  137MOL0     C18423   5.329   2.001  11.084  0.9517 -0.9117 -0.0396
  137MOL0     C18424   5.222   2.037  11.136 -0.1054  0.4759  0.3516
  137MOL0     C18425   5.992   1.719  10.952 -0.3614 -0.3378 -0.1500
  137MOL0     C18426   6.131   1.698  10.933 -0.0661 -0.0266  0.0611
  137MOL0     C18427   6.219   1.732  11.056  0.9457 -0.0178  0.3152
  137MOL0     H18428   6.616   1.595  10.666 -0.1953 -0.1981  0.6645
  137MOL0     H18429   6.836   1.738  10.609  0.1971  1.4713  1.2016
  137MOL0     H18430   6.815   2.144  10.727 -1.9516 -3.6931  0.8580
  137MOL0     H18431   6.985   2.147  10.691 -1.7297  1.8579  2.0697
  137MOL0     H18432   6.822   2.213  10.507  0.2646 -0.4150  1.1749
  137MOL0     H18433   6.769   2.042  10.512  0.8026 -1.0799  1.7689
  137MOL0     H18434   7.072   2.089  10.505  0.0258  0.1805 -0.1697
  137MOL0     H18435   6.992   2.169  10.377  0.5740  0.3966  0.8519
  137MOL0     H18436   6.995   1.874  10.465 -0.9676 -2.3588  0.0160
  137MOL0     H18437   6.884   1.920  10.331 -0.7302  1.4682  1.7424
  137MOL0     H18438   7.068   1.826  10.224 -1.2852  2.0354 -2.7889
  137MOL0     H18439   7.110   1.988  10.208  1.5023  0.2617  1.2121
  137MOL0     H18440   7.270   1.976  10.412 -0.3133  2.0933 -3.2185
  137MOL0     H18441   7.210   1.806  10.434 -1.6160  0.1876 -0.5040
  137MOL0     H18442   7.437   1.858  10.287 -0.3892  0.7315 -0.8861
  137MOL0     H18443   7.321   1.887  10.158 -1.0860 -4.8920 -3.7758
  137MOL0     H18444   7.339   1.640  10.345  0.3474  1.5900  0.6955
  137MOL0     H18445   7.234   1.650  10.206  0.0418 -2.6008  1.1086
  137MOL0     H18446   7.624   1.596  10.285 -1.0368  0.3427  0.8803
  137MOL0     H18447   7.730   1.347  10.114  0.3458 -2.0327 -1.9217
  137MOL0     H18448   7.751   1.398   9.949  0.0211  1.5151 -0.9147
  137MOL0     H18449   7.876   1.612  10.021  2.1957  2.5581  2.5852
  137MOL0     H18450   7.857   1.573  10.189 -0.7450  0.5238 -1.2813
  137MOL0     H18451   8.080   1.517  10.110 -3.6593  2.6147  2.4139
  137MOL0     H18452   8.025   1.408   9.990  1.1378  2.1708 -1.1304
  137MOL0     H18453   8.084   1.271  10.197 -0.5992 -0.8450  0.0484
  137MOL0     H18454   7.919   1.271  10.182  0.9420 -0.0493 -1.7580
  137MOL0     H18455   8.233   1.417  10.242 -2.4287 -0.7009 -0.6572
  137MOL0     H18456   8.432   1.477  10.367 -1.0817 -2.8950 -2.9950
  137MOL0     H18457   8.601   1.544  10.900 -0.0994 -0.1969 -0.4539
  137MOL0     H18458   8.774   1.674  11.029 -1.4111  2.9671  2.1138
  137MOL0     H18459   8.975   1.878  10.811  1.0659 -0.5076  0.7385
  137MOL0     H18460   8.942   2.045  10.841 -0.9008 -0.6662 -1.2583
  137MOL0     H18461   9.114   1.872  11.018  1.6933  0.7171 -0.4189
  137MOL0     H18462   9.165   1.978  10.874 -1.2643  1.5615 -1.0685
  137MOL0     H18463   9.055   2.166  11.019  2.3742  1.5559  0.0161
  137MOL0     H18464   9.056   2.054  11.146  0.9856 -0.5139 -0.8972
  137MOL0     H18465   9.314   2.131  11.012  2.7463  0.9278  1.6119
  137MOL0     H18466   9.302   2.005  11.122  0.2341  0.3265  1.2357
  137MOL0     H18467   9.194   2.178  11.290  1.1738  3.3660  2.3894
  137MOL0     H18468   9.235   2.296  11.165 -0.8666 -0.0147 -0.0396
  137MOL0     H18469   9.423   2.296  11.337  1.5858 -0.0050 -1.1208
  137MOL0     H18470   9.433   2.114  11.312  3.0426  0.5451  0.2898
  137MOL0     H18471   9.551   2.348  11.171 -0.4036 -0.4098 -1.6199
  137MOL0     H18472   9.506   2.216  11.073 -0.4330  1.9264  0.2212
  137MOL0     H18473   9.654   2.053  11.184  0.0059 -0.1191 -1.3558
  137MOL0     H18474   9.746   2.198  11.159 -1.3371  0.8941 -0.8162
  137MOL0     H18475   8.722   2.000  10.766  1.2289 -0.9979  0.0534
  137MOL0     H18476   8.516   1.892  10.680 -2.4839 -1.4351  3.2028
  137MOL0     H18477   8.206   1.498  10.731 -4.9524  0.8377 -0.3544
  137MOL0     H18478   8.009   1.447  10.598  0.0477 -0.1279  0.6137
  137MOL0     H18479   6.724   2.028  10.897  1.1938 -1.1934 -0.4263
  137MOL0     H18480   6.498   1.886  10.930 -0.7687 -0.2567 -1.3328
  137MOL0     H18481   6.124   1.620  10.596 -3.8555  1.5963 -2.2003
  137MOL0     H18482   5.885   1.610  10.649  0.5427  1.6887 -0.8630
  137MOL0     H18483   5.667   1.882  10.871 -4.7954 -0.6896  2.1186
  137MOL0     H18484   5.782   1.854  11.003 -0.9747  0.8327  0.9874
  137MOL0     H18485   5.633   1.661  11.075 -0.2180  0.4239  0.4673
  137MOL0     H18486   5.521   1.707  10.937 -0.8955  0.9350 -0.4051
  137MOL0     H18487   5.570   1.883  11.181  0.6025 -1.6107  0.5207
  137MOL0     H18488   5.424   1.783  11.139 -0.3804 -0.2181 -1.1850
  137MOL0     H18489   5.522   2.040  11.010  2.6228 -1.3554  4.2424
  137MOL0     H18490   5.426   1.911  10.923 -1.0494  0.4572 -0.6086
  137MOL0     H18491   5.139   2.069  11.196  0.4194 -0.9771  1.9220
  137MOL0     H18492   5.963   1.746  11.053 -0.1148  2.3780 -0.7114
  137MOL0     H18493   6.180   1.695  11.151  0.2783  0.0046  0.0586
  137MOL0     H18494   6.317   1.684  11.065  1.0538  0.5769  3.1532
  137MOL0     H18495   6.228   1.840  11.062  1.2994 -0.0511  0.3966
  138MOL0     O18496   8.074   0.586   5.161 -0.4994 -0.4683 -0.0583
  138MOL0     C18497   8.044   0.702   5.188 -0.3547  0.8055 -0.1530
  138MOL0     O18498   8.105   0.807   5.141 -0.2701 -0.1684 -0.1083
  138MOL0     C18499   8.226   0.802   5.080  0.1382  1.1958  0.0427
  138MOL0     C18500   8.337   0.727   5.125 -0.2947  0.1127  0.0284
  138MOL0     C18501   8.456   0.737   5.047 -0.2503 -0.0412 -0.2434
  138MOL0     C18502   8.452   0.801   4.924 -0.1409 -1.4055 -0.2087
  138MOL0     O18503   8.563   0.815   4.838  0.2291  0.0587  0.3093
  138MOL0     C18504   8.693   0.831   4.898 -0.0198 -1.6680  0.3606
  138MOL0     C18505   8.805   0.885   4.803  0.5840  1.0618  0.6632
  138MOL0     C18506   8.938   0.911   4.876 -0.0899  0.2960  0.1010
  138MOL0     C18507   9.042   0.801   4.880  0.3118 -0.2328  0.0459
  138MOL0     C18508   9.190   0.845   4.866  0.4007  0.5891 -0.3950
  138MOL0     C18509   9.224   0.936   4.988 -0.2233  0.3294  0.0083
  138MOL0     C18510   9.380   0.977   4.982  0.2597 -0.2320 -0.7256
  138MOL0     C18511   9.425   1.053   4.856  0.5397  0.3161 -0.3319
  138MOL0     N18512   9.552   1.111   4.878  0.7727 -0.4061 -0.1685
  138MOL0     C18513   9.582   1.230   4.947  0.3564  0.2328  0.1020
  138MOL0     C18514   9.717   1.238   4.921  0.0945  0.5822 -0.1954
  138MOL0     C18515   9.806   1.343   4.968  0.5172 -0.1373  0.2578
  138MOL0     C18516   9.927   1.291   5.038  0.1150 -0.0885  0.0833
  138MOL0     C18517   9.994   1.393   5.131  0.1247  0.0865  0.6488
  138MOL0     C18518  10.136   1.352   5.167  0.2374 -0.1358  0.3345
  138MOL0     O18519  10.200   1.474   5.217 -0.4410 -0.2604  0.4816
  138MOL0     C18520  10.328   1.448   5.259  0.1753  0.4596  0.1088
  138MOL0     C18521  10.414   1.552   5.283  0.5205 -0.5798  0.7348
  138MOL0     C18522  10.547   1.534   5.307  1.0502 -0.9643  0.2266
  138MOL0     C18523  10.605   1.406   5.316  0.8477  0.4531  0.4993
  138MOL0     C18524  10.752   1.387   5.328  0.1012  0.0770 -0.9144
  138MOL0     O18525  10.799   1.258   5.330 -0.2884  0.3021 -0.2074
  138MOL0     C18526  10.935   1.241   5.358  0.5077  1.0903 -0.3197
  138MOL0     C18527  11.043   1.299   5.288 -0.2291  0.4261 -0.6048
  138MOL0     C18528  11.179   1.262   5.315 -0.4648 -1.1282 -0.4722
  138MOL0     C18529  11.207   1.158   5.407  0.6387 -0.7076 -0.3845
  138MOL0     O18530  11.338   1.121   5.412  0.3260 -0.8034 -1.1804
  138MOL0     C18531  11.373   0.999   5.473 -0.6293 -0.3064 -0.3937
  138MOL0     C18532  11.519   0.965   5.435 -0.7031  0.8663 -0.1921
  138MOL0     C18533  11.586   0.836   5.501 -1.2619 -1.0437 -0.1088
  138MOL0     C18534  11.518   0.710   5.455 -0.1017 -0.5443  0.0498
  138MOL0     C18535  11.564   0.599   5.548 -0.3328 -0.6273 -0.7722
  138MOL0     C18536  11.535   0.455   5.492  0.3455  0.3122 -0.9417
  138MOL0     C18537  11.580   0.342   5.590  0.1855 -0.7089 -0.4902
  138MOL0     C18538  11.558   0.211   5.518 -0.3155 -0.4230  0.3746
  138MOL0    Cl18539  11.656   0.084   5.611  0.3998  0.3845 -0.2284
  138MOL0     C18540  11.095   1.093   5.472 -0.3769  0.5347  0.4474
  138MOL0     C18541  10.967   1.134   5.451 -0.1555 -1.1924  0.4489
  138MOL0     O18542  10.828   1.486   5.350 -0.1609  0.0439  0.3500
  138MOL0     C18543  10.525   1.294   5.291 -0.0908 -0.2371 -0.1396
  138MOL0     C18544  10.387   1.317   5.271 -0.3808 -0.1709  0.0264
  138MOL0     N18545   9.764   1.136   4.837  0.2505 -0.5182 -0.6185
  138MOL0     N18546   9.656   1.066   4.820 -0.0940  0.2501  0.2757
  138MOL0     C18547   8.331   0.861   4.875  0.0469 -0.0272 -0.3374
  138MOL0     C18548   8.222   0.865   4.955  0.0230  0.9102  0.2703
  138MOL0     C18549   7.938   0.723   5.286 -0.2131 -0.1319 -0.7452
  138MOL0     C18550   7.939   0.646   5.410  0.1847 -0.3265 -0.0074
  138MOL0     C18551   7.847   0.674   5.505 -0.4966 -1.1196 -0.9629
  138MOL0     C18552   7.749   0.775   5.492  0.1387  0.2600  0.4433
  138MOL0     O18553   7.658   0.801   5.592 -0.6736 -0.0977  0.4217
  138MOL0     C18554   7.610   0.926   5.607  0.1736 -0.6280  0.0737
  138MOL0     C18555   7.526   0.916   5.735  0.1125 -0.0341 -0.1735
  138MOL0     C18556   7.598   0.861   5.851  0.0158 -0.2027  0.1393
  138MOL0     C18557   7.517   0.864   5.986  0.3558 -1.1832 -0.6462
  138MOL0     C18558   7.381   0.806   5.995  1.2318  0.2090  0.0599
  138MOL0     C18559   7.268   0.768   5.991  1.3161 -0.6959 -0.0821
  138MOL0     C18560   7.737   0.833   5.364 -0.6376 -0.1072  0.1986
  138MOL0     C18561   7.830   0.814   5.266 -0.2556  0.6190  0.2371
  138MOL0     C18562   7.830   0.902   5.146 -0.1416  0.0855 -0.4538
  138MOL0     H18563   8.338   0.675   5.220  1.6050 -1.5114 -0.8227
  138MOL0     H18564   8.541   0.683   5.087  1.2295  1.2831 -1.4728
  138MOL0     H18565   8.685   0.897   4.985 -3.4762  1.0088 -1.7314
  138MOL0     H18566   8.719   0.729   4.924  0.5308 -1.5537  0.2694
  138MOL0     H18567   8.771   0.979   4.758  1.1783  0.8764 -0.2020
  138MOL0     H18568   8.826   0.809   4.728 -1.2880  1.3005 -0.1634
  138MOL0     H18569   8.932   0.957   4.975 -2.9501 -0.2597  0.2652
  138MOL0     H18570   8.978   0.987   4.807 -3.9172  0.2859 -2.4814
  138MOL0     H18571   9.034   0.735   4.968  2.1428  0.1403  0.5380
  138MOL0     H18572   9.017   0.735   4.797  0.8369  0.4357 -0.6526
  138MOL0     H18573   9.240   0.749   4.851 -0.1844  0.7555 -4.5900
  138MOL0     H18574   9.193   0.891   4.766 -1.5761 -0.8946 -1.1863
  138MOL0     H18575   9.164   1.027   4.984  0.2795  0.6538 -2.6897
  138MOL0     H18576   9.212   0.876   5.079  3.2749 -0.3913  0.1535
  138MOL0     H18577   9.435   0.883   4.990  3.0307  1.2755 -0.9713
  138MOL0     H18578   9.408   1.040   5.067  2.5726 -1.5768 -0.4068
  138MOL0     H18579   9.411   0.995   4.765  2.6470 -0.7454 -0.0390
  138MOL0     H18580   9.350   1.133   4.854 -1.1192 -1.0851  1.4694
  138MOL0     H18581   9.523   1.299   5.007  1.3518  0.3730  0.9384
  138MOL0     H18582   9.843   1.391   4.878  2.5172 -0.6158  0.7776
  138MOL0     H18583   9.756   1.419   5.028 -0.0224  0.0407 -0.4092
  138MOL0     H18584   9.902   1.212   5.109 -0.6742 -1.4218 -1.6196
  138MOL0     H18585   9.999   1.250   4.967 -0.0501 -1.1119  0.4880
  138MOL0     H18586   9.926   1.406   5.215 -1.0371 -0.2596 -0.2191
  138MOL0     H18587  10.006   1.486   5.075  0.0949 -0.3077 -0.0143
  138MOL0     H18588  10.193   1.321   5.079  2.2147 -1.3701  1.9520
  138MOL0     H18589  10.131   1.270   5.239 -0.3356  0.1496  0.6239
  138MOL0     H18590  10.392   1.657   5.264 -0.1776 -1.2880 -3.2062
  138MOL0     H18591  10.610   1.621   5.322 -2.3931  1.5602  1.2425
  138MOL0     H18592  11.024   1.388   5.229 -3.7936  1.6112  1.9523
  138MOL0     H18593  11.260   1.294   5.251  0.7220 -3.0619 -0.0391
  138MOL0     H18594  11.370   1.014   5.581 -0.9574 -0.7560 -0.3395
  138MOL0     H18595  11.309   0.920   5.434 -0.1242 -2.4049  2.6698
  138MOL0     H18596  11.514   0.949   5.327 -1.8311 -1.8595  0.1898
  138MOL0     H18597  11.588   1.046   5.462 -1.0868  0.6155  1.7203
  138MOL0     H18598  11.692   0.834   5.474 -0.8179  0.4867  1.3068
  138MOL0     H18599  11.581   0.847   5.610  0.5532 -3.1607  0.2492
  138MOL0     H18600  11.543   0.687   5.351 -1.5792 -0.8019 -0.2809
  138MOL0     H18601  11.409   0.712   5.465 -0.2191 -1.3767 -0.8806
  138MOL0     H18602  11.514   0.621   5.643  0.0519  0.4600 -0.8082
  138MOL0     H18603  11.670   0.617   5.569 -1.2350  2.6844  1.9924
  138MOL0     H18604  11.427   0.439   5.484  0.3062 -1.4164  1.7927
  138MOL0     H18605  11.594   0.439   5.401 -0.0698 -0.9034 -1.0165
  138MOL0     H18606  11.531   0.348   5.688  0.8691  1.5920 -0.2154
  138MOL0     H18607  11.686   0.358   5.611 -0.4475  2.5929  0.9317
  138MOL0     H18608  11.452   0.186   5.509 -0.3256 -0.4293  0.5185
  138MOL0     H18609  11.584   0.210   5.411 -2.2481  0.2859 -0.1398
  138MOL0     H18610  11.116   1.010   5.538 -0.5473 -0.7679 -1.0896
  138MOL0     H18611  10.877   1.090   5.493 -1.1727 -1.4152 -1.7693
  138MOL0     H18612  10.582   1.203   5.297  1.7459  0.9376  1.5676
  138MOL0     H18613  10.336   1.222   5.259 -0.6559 -0.1704  1.0708
  138MOL0     H18614   8.344   0.911   4.779  2.6312  0.1008  0.0135
  138MOL0     H18615   8.127   0.912   4.931 -0.8014 -0.0472  1.4991
  138MOL0     H18616   8.012   0.567   5.429  1.1874  0.4854 -0.3833
  138MOL0     H18617   7.845   0.617   5.598  0.8805  0.0470 -0.1734
  138MOL0     H18618   7.547   0.963   5.525 -1.0920 -1.4418  0.6555
  138MOL0     H18619   7.682   1.007   5.622 -2.4816  1.4724  2.6147
  138MOL0     H18620   7.435   0.858   5.716 -1.1912  1.9187 -0.1409
  138MOL0     H18621   7.489   1.017   5.754  1.6064  0.6600 -0.7414
  138MOL0     H18622   7.687   0.915   5.883 -0.5087 -1.1684  3.6867
  138MOL0     H18623   7.628   0.756   5.837 -2.7338 -1.1581  0.7274
  138MOL0     H18624   7.576   0.824   6.069  0.1748  0.6433  0.4327
  138MOL0     H18625   7.510   0.970   6.010 -0.3399 -1.4260  0.3018
  138MOL0     H18626   7.168   0.731   5.990  1.3748 -1.0588  2.1268
  138MOL0     H18627   7.654   0.897   5.336 -0.7210 -1.6297 -3.5045
  138MOL0     H18628   7.900   0.985   5.145  0.8134 -0.7029 -0.9438
  138MOL0     H18629   7.860   0.868   5.047  1.9854  1.8240 -0.4664
  138MOL0     H18630   7.726   0.933   5.133 -0.6067 -1.2698 -0.1307
  139MOL0     O18631  10.098   8.813  10.145 -0.4132  0.2208 -0.4874
  139MOL0     C18632  10.198   8.742  10.163  0.3876 -0.6691  0.6705
  139MOL0     O18633  10.329   8.775  10.126  0.8098 -0.6257 -0.8065
  139MOL0     C18634  10.346   8.890  10.058 -0.6585  0.2597 -0.1045
  139MOL0     C18635  10.297   8.914   9.924 -0.7187  0.3034  0.3321
  139MOL0     C18636  10.315   9.039   9.867 -0.6051 -0.1855  0.3550
  139MOL0     C18637  10.402   9.135   9.926 -0.0302  0.6378  0.5344
  139MOL0     O18638  10.432   9.241   9.850 -0.1238 -0.6536  0.6661
  139MOL0     C18639  10.557   9.305   9.884  0.6562 -0.3259  0.3704
  139MOL0     C18640  10.604   9.391   9.762 -1.2400 -0.3152  0.2455
  139MOL0     C18641  10.608   9.310   9.621  0.5331 -0.0502 -1.2831
  139MOL0     C18642  10.682   9.378   9.505  0.0561  0.5445 -0.3356
  139MOL0     C18643  10.657   9.299   9.373 -0.1898 -0.8748 -0.5845
  139MOL0     C18644  10.718   9.158   9.365  0.5079 -0.1512 -0.6225
  139MOL0     C18645  10.797   9.132   9.236  0.1845 -0.6619 -0.4250
  139MOL0     C18646  10.921   9.220   9.226 -0.3397  0.5233  0.1465
  139MOL0     N18647  11.027   9.147   9.297  0.0203 -0.3331 -0.2510
  139MOL0     C18648  11.097   9.039   9.253  0.6218 -0.4711  0.4599
  139MOL0     C18649  11.182   9.018   9.350 -0.2270  0.0507  0.2611
  139MOL0     C18650  11.283   8.908   9.342  0.5427  0.7557 -0.5664
  139MOL0     C18651  11.418   8.945   9.285  0.7074 -0.4064 -0.4468
  139MOL0     C18652  11.482   9.058   9.359 -0.4056 -0.3338  0.0940
  139MOL0     C18653  11.626   9.060   9.375  0.4419 -1.5409  0.3460
  139MOL0     O18654  11.653   9.198   9.410  0.8714  0.4958  0.4002
  139MOL0     C18655  11.786   9.235   9.439  0.3312  0.3739 -0.5422
  139MOL0     C18656  11.807   9.366   9.484 -0.0275 -0.1515 -0.4230
  139MOL0     C18657  11.940   9.420   9.485 -0.5339 -0.2773 -0.0266
  139MOL0     C18658  12.057   9.335   9.453 -0.5731 -0.4559 -0.4943
  139MOL0     C18659  12.193   9.399   9.453  0.3882  0.6052 -0.4806
  139MOL0     O18660  12.290   9.306   9.440 -0.5376 -0.2815 -0.3253
  139MOL0     C18661  12.423   9.341   9.400  0.2769  0.0043  1.2695
  139MOL0     C18662  12.435   9.418   9.282 -0.5148 -0.4063  0.1986
  139MOL0     C18663  12.563   9.435   9.223 -0.1484  0.4548 -0.7178
  139MOL0     C18664  12.675   9.370   9.284  0.0580  0.8377  0.2700
  139MOL0     O18665  12.800   9.388   9.225 -0.4829 -0.5509  0.7982
  139MOL0     C18666  12.922   9.347   9.283 -0.1410  0.4710 -0.0314
  139MOL0     C18667  13.043   9.367   9.188 -0.5018 -0.1340 -0.1835
  139MOL0     C18668  13.177   9.323   9.251  0.5795 -0.5766  0.3787
  139MOL0     C18669  13.306   9.386   9.194 -0.5209 -0.1372  0.8945
  139MOL0     C18670  13.441   9.346   9.273  0.0347  0.1596 -0.2645
  139MOL0     C18671  13.485   9.198   9.255 -0.4727 -0.1332 -0.2375
  139MOL0     C18672  13.523   9.173   9.113  0.0639  0.3140  1.4221
  139MOL0     C18673  13.569   9.030   9.083 -0.6007 -0.4734 -0.0139
  139MOL0    Cl18674  13.420   8.923   9.095 -0.2337 -0.3250  0.1292
  139MOL0     C18675  12.657   9.283   9.393 -0.9203 -0.3538 -0.4263
  139MOL0     C18676  12.532   9.276   9.456  0.4389  0.3684  0.5379
  139MOL0     O18677  12.206   9.516   9.467 -0.4238 -0.5459  0.3621
  139MOL0     C18678  12.030   9.198   9.422  0.6505  0.5486 -0.4434
  139MOL0     C18679  11.894   9.153   9.409 -0.6032 -0.4290  0.2049
  139MOL0     N18680  11.166   9.103   9.453  0.1698 -0.2537  0.1719
  139MOL0     N18681  11.071   9.177   9.419 -0.5033  0.1408  0.7540
  139MOL0     C18682  10.452   9.108  10.055  0.5959  0.0464 -0.2058
  139MOL0     C18683  10.426   8.988  10.122 -0.5227  0.1256  0.1094
  139MOL0     C18684  10.178   8.605  10.219 -0.3210  0.0064  0.2084
  139MOL0     C18685  10.073   8.588  10.309 -0.1252  0.5705  0.0215
  139MOL0     C18686  10.062   8.482  10.392  0.1574 -0.0806 -0.1279
  139MOL0     C18687  10.152   8.378  10.373 -0.3275 -0.6032 -0.4996
  139MOL0     O18688  10.127   8.270  10.465  0.3557  0.0330 -0.5842
  139MOL0     C18689  10.228   8.171  10.496  0.4969  0.2234 -0.4140
  139MOL0     C18690  10.344   8.231  10.581 -0.2595 -0.9728  0.5543
  139MOL0     C18691  10.314   8.293  10.718 -0.8002 -0.7261  0.1331
  139MOL0     C18692  10.431   8.295  10.824  0.1216  0.6908 -0.4047
  139MOL0     C18693  10.551   8.340  10.763 -0.2293 -0.3756  0.6541
  139MOL0     C18694  10.662   8.376  10.710 -0.3301 -0.1957 -1.1065
  139MOL0     C18695  10.251   8.381  10.274  0.6570  0.4059  0.1596
  139MOL0     C18696  10.263   8.495  10.189 -0.3190 -1.1152 -0.1466
  139MOL0     C18697  10.358   8.493  10.075  0.2647 -0.3868 -0.1634
  139MOL0     H18698  10.236   8.840   9.875 -3.9261  2.0310  1.4455
  139MOL0     H18699  10.273   9.051   9.768 -1.4970 -1.2390  0.5735
  139MOL0     H18700  10.535   9.374   9.966  0.9631  0.2285 -0.0113
  139MOL0     H18701  10.635   9.234   9.914  0.8604  0.1039  0.8672
  139MOL0     H18702  10.706   9.425   9.781 -1.0542 -1.0121  0.5231
  139MOL0     H18703  10.550   9.485   9.752  1.2621  1.1650 -0.4076
  139MOL0     H18704  10.509   9.286   9.583 -0.5446  0.1981  1.1506
  139MOL0     H18705  10.662   9.216   9.635 -0.4042 -0.4663 -0.3077
  139MOL0     H18706  10.643   9.479   9.494 -1.9052 -0.1830 -0.5977
  139MOL0     H18707  10.790   9.378   9.519  0.2321 -0.7328 -1.4474
  139MOL0     H18708  10.548   9.292   9.369 -0.1438 -2.2506  0.1450
  139MOL0     H18709  10.694   9.355   9.286 -1.0934  0.2376 -0.2848
  139MOL0     H18710  10.784   9.150   9.452 -0.7193  3.5457  0.8330
  139MOL0     H18711  10.632   9.091   9.369  0.0734  0.4458  0.3116
  139MOL0     H18712  10.723   9.157   9.159 -0.3526 -1.5680 -0.2130
  139MOL0     H18713  10.819   9.025   9.226 -2.2507 -1.4166  1.1869
  139MOL0     H18714  10.953   9.240   9.124 -0.3701  0.4217  0.1177
  139MOL0     H18715  10.894   9.314   9.275 -3.8414 -0.6406  0.6907
  139MOL0     H18716  11.075   8.974   9.168  0.4157 -0.4064  0.4640
  139MOL0     H18717  11.304   8.867   9.441 -1.1988 -0.0818 -0.5226
  139MOL0     H18718  11.233   8.833   9.280  0.1395  1.9854 -1.8023
  139MOL0     H18719  11.485   8.860   9.296  2.1752  0.9927  3.4854
  139MOL0     H18720  11.412   8.980   9.182  1.3508  2.3924  0.3746
  139MOL0     H18721  11.452   9.059   9.464  0.0982 -0.1519  0.2403
  139MOL0     H18722  11.455   9.148   9.303 -0.2155  0.9081  1.9118
  139MOL0     H18723  11.678   9.033   9.283  1.5754  0.9386  0.1699
  139MOL0     H18724  11.653   8.986   9.452 -0.3047 -0.1360  2.0184
  139MOL0     H18725  11.724   9.432   9.505 -0.3357 -0.1517 -1.5607
  139MOL0     H18726  11.949   9.525   9.510 -1.5540 -0.7338  2.6399
  139MOL0     H18727  12.342   9.449   9.234  1.2732 -0.9291 -4.1165
  139MOL0     H18728  12.583   9.502   9.140  1.4749  1.3027  0.3065
  139MOL0     H18729  12.943   9.400   9.376 -0.9143 -0.2797  0.5843
  139MOL0     H18730  12.930   9.240   9.305 -2.8366  0.5766  1.8694
  139MOL0     H18731  13.039   9.317   9.092  1.1282  0.3710 -0.5350
  139MOL0     H18732  13.052   9.476   9.176 -0.8379  0.4696  3.6428
  139MOL0     H18733  13.173   9.337   9.360  1.2544  3.1052  0.0742
  139MOL0     H18734  13.185   9.218   9.222  1.1380  0.2669 -2.9899
  139MOL0     H18735  13.286   9.494   9.195  0.0026  0.0840 -1.9894
  139MOL0     H18736  13.317   9.365   9.087  0.7942  1.8208  0.5817
  139MOL0     H18737  13.424   9.358   9.380  1.8626  0.2409  0.0558
  139MOL0     H18738  13.517   9.411   9.229  1.0877  0.6936  2.1870
  139MOL0     H18739  13.567   9.183   9.326  0.3394  0.7401 -0.9635
  139MOL0     H18740  13.393   9.144   9.276 -0.8584 -0.2932 -2.1258
  139MOL0     H18741  13.593   9.250   9.081 -1.0267 -0.0490 -2.3860
  139MOL0     H18742  13.444   9.189   9.039 -0.2999 -2.1108  1.1773
  139MOL0     H18743  13.616   9.027   8.984 -1.2237 -1.6978 -0.2949
  139MOL0     H18744  13.648   8.990   9.146 -0.8809 -0.8016  0.1367
  139MOL0     H18745  12.741   9.236   9.444 -1.1990 -2.8285 -2.0609
  139MOL0     H18746  12.524   9.215   9.545 -1.8861  0.7883  0.6850
  139MOL0     H18747  12.111   9.132   9.394  0.4315  0.6983 -1.4904
  139MOL0     H18748  11.873   9.049   9.385 -0.0306 -0.4323 -0.2913
  139MOL0     H18749  10.527   9.172  10.102  0.6418  0.0134 -0.2345
  139MOL0     H18750  10.485   8.970  10.211 -0.1598  1.3763  0.1501
  139MOL0     H18751  10.016   8.677  10.334  0.7297  1.3911 -0.8393
  139MOL0     H18752   9.994   8.466  10.475 -1.8188 -2.3210 -2.0177
  139MOL0     H18753  10.271   8.132  10.403 -2.0230 -0.4054 -1.4075
  139MOL0     H18754  10.173   8.096  10.553  0.5577  0.8731  0.5272
  139MOL0     H18755  10.392   8.308  10.521 -0.2632 -1.4282 -0.0483
  139MOL0     H18756  10.415   8.148  10.579 -1.3790 -1.9495 -1.7955
  139MOL0     H18757  10.220   8.256  10.761 -0.6727  0.1933  1.2358
  139MOL0     H18758  10.281   8.395  10.695  1.4257  0.2451  0.9425
  139MOL0     H18759  10.396   8.362  10.904 -2.8358  0.1279 -1.1385
  139MOL0     H18760  10.452   8.198  10.869 -0.3104  1.5250  1.7661
  139MOL0     H18761  10.757   8.409  10.675  1.0355 -1.3036  1.3791
  139MOL0     H18762  10.317   8.297  10.258 -0.4938 -0.3202 -1.0544
  139MOL0     H18763  10.367   8.394  10.030 -0.8776  0.2408 -1.8611
  139MOL0     H18764  10.316   8.552   9.994 -1.8718 -0.0958  1.0789
  139MOL0     H18765  10.462   8.517  10.101  0.3263 -3.5843  3.4244
  140MOL0     O18766   0.261   5.678   1.673 -0.0112  1.0982 -0.2812
  140MOL0     C18767   0.227   5.716   1.781  0.0114 -0.6742  0.2584
  140MOL0     O18768   0.283   5.685   1.906 -0.1816  0.0807  0.0062
  140MOL0     C18769   0.379   5.584   1.900  0.5993 -0.2926  0.3825
  140MOL0     C18770   0.371   5.451   1.846  0.9128 -0.3330 -0.2066
  140MOL0     C18771   0.492   5.369   1.847  0.2649  0.2526  0.2565
  140MOL0     C18772   0.617   5.419   1.896  0.8684 -1.1612  0.4182
  140MOL0     O18773   0.740   5.365   1.871 -0.3987 -0.4034  0.1290
  140MOL0     C18774   0.753   5.252   1.778 -0.8846 -0.6872 -0.9389
  140MOL0     C18775   0.895   5.229   1.748 -0.1396  0.2687  0.0323
  140MOL0     C18776   0.944   5.329   1.644  0.4966  0.1984 -0.3601
  140MOL0     C18777   1.074   5.279   1.587  0.2551  0.1577 -0.6275
  140MOL0     C18778   1.172   5.386   1.564 -0.3804  0.5138 -0.2903
  140MOL0     C18779   1.306   5.328   1.501  1.0762  0.2336 -0.0903
  140MOL0     C18780   1.390   5.442   1.465  0.4042  1.4987 -0.8388
  140MOL0     C18781   1.508   5.385   1.391  0.3707 -0.3195 -0.2726
  140MOL0     N18782   1.583   5.491   1.320  0.0150 -0.0965  0.0873
  140MOL0     C18783   1.695   5.556   1.367 -0.4909 -0.3827 -0.1377
  140MOL0     C18784   1.725   5.652   1.271  0.4300 -0.5158 -0.0202
  140MOL0     C18785   1.836   5.750   1.277 -0.4109  0.0138 -0.1082
  140MOL0     C18786   1.917   5.728   1.155 -0.3862  0.8553 -0.2053
  140MOL0     C18787   2.028   5.837   1.138 -1.2726  0.5108 -0.1688
  140MOL0     C18788   2.155   5.818   1.218 -0.0854 -0.0970  0.7508
  140MOL0     O18789   2.130   5.850   1.358  0.3962  0.1003 -0.4796
  140MOL0     C18790   2.240   5.850   1.436  1.4351  0.7550 -0.7968
  140MOL0     C18791   2.209   5.875   1.572 -0.1167  0.8464  0.8427
  140MOL0     C18792   2.311   5.878   1.669 -0.2007  0.5166 -0.4638
  140MOL0     C18793   2.444   5.843   1.637  0.4527  0.2793 -0.8757
  140MOL0     C18794   2.555   5.866   1.738  0.3321  0.0066  0.4397
  140MOL0     O18795   2.674   5.821   1.696  0.0641  0.0107 -0.9178
  140MOL0     C18796   2.785   5.856   1.770 -0.4918 -0.1918 -0.3849
  140MOL0     C18797   2.844   5.743   1.819 -0.5163  0.4433 -0.2738
  140MOL0     C18798   2.962   5.762   1.896  0.1860  0.1131 -0.3212
  140MOL0     C18799   3.019   5.893   1.917  0.4301 -0.2353 -0.4044
  140MOL0     O18800   3.141   5.905   1.973  0.0432 -0.1936 -0.6675
  140MOL0     C18801   3.235   5.985   1.900  0.3123  0.6104  0.0264
  140MOL0     C18802   3.365   5.911   1.881 -0.5048  0.3796 -0.6040
  140MOL0     C18803   3.351   5.763   1.835 -0.0396  0.7523 -0.3615
  140MOL0     C18804   3.334   5.664   1.955 -0.0681  0.3588  1.0207
  140MOL0     C18805   3.341   5.514   1.913 -0.0331  0.6299  0.1012
  140MOL0     C18806   3.325   5.415   2.034 -0.4895  0.2041 -0.0072
  140MOL0     C18807   3.357   5.264   2.003  0.2329  0.3508  0.7466
  140MOL0     C18808   3.220   5.181   1.976  0.3521 -0.1247  1.1099
  140MOL0    Cl18809   3.189   5.198   1.795  0.8084  0.4403 -0.3414
  140MOL0     C18810   2.947   6.006   1.869 -1.0369  0.1984  0.7839
  140MOL0     C18811   2.825   5.982   1.807  0.2022 -0.5089 -0.5751
  140MOL0     O18812   2.531   5.923   1.843  0.3197  0.2950  0.0336
  140MOL0     C18813   2.467   5.810   1.501  0.5439 -0.8551  0.4837
  140MOL0     C18814   2.365   5.808   1.397  0.0274 -0.3200 -0.5304
  140MOL0     N18815   1.636   5.628   1.163  0.2682  0.4748  0.6034
  140MOL0     N18816   1.561   5.532   1.186  0.2199  0.1796  0.6156
  140MOL0     C18817   0.613   5.543   1.958  0.5756  0.2321 -0.0457
  140MOL0     C18818   0.503   5.626   1.946  0.2531  0.2437  0.4778
  140MOL0     C18819   0.104   5.788   1.783 -0.4468  0.0997  0.8910
  140MOL0     C18820   0.032   5.778   1.901  0.6951  0.4098  0.1268
  140MOL0     C18821  -0.092   5.841   1.918 -0.0227  0.9893 -0.0581
  140MOL0     C18822  -0.162   5.904   1.809 -0.2737  0.4963 -0.7114
  140MOL0     O18823  -0.292   5.956   1.807 -0.1334  0.0170  0.3494
  140MOL0     C18824  -0.368   5.985   1.929  0.2763 -0.0040  0.0758
  140MOL0     C18825  -0.461   5.864   1.974 -0.3419 -0.6985  0.0565
  140MOL0     C18826  -0.492   5.870   2.119  0.5118 -0.2923 -1.2958
  140MOL0     C18827  -0.578   5.749   2.154  0.5245  0.3202 -0.1335
  140MOL0     C18828  -0.719   5.762   2.099 -0.0666  0.0825 -0.5783
  140MOL0     C18829  -0.823   5.806   2.072  1.6188 -0.7738  0.7707
  140MOL0     C18830  -0.089   5.919   1.693 -0.2054  0.4838  0.2423
  140MOL0     C18831   0.040   5.865   1.677  0.2782  0.0052  0.4231
  140MOL0     C18832   0.109   5.888   1.538 -0.0205 -0.6272 -1.2165
  140MOL0     H18833   0.276   5.431   1.798  2.1490  0.5431 -3.2781
  140MOL0     H18834   0.490   5.268   1.807 -0.7803 -0.9710  3.1884
  140MOL0     H18835   0.723   5.153   1.816  2.4624 -1.3006  0.5179
  140MOL0     H18836   0.700   5.270   1.684  0.7609 -0.1221 -1.7869
  140MOL0     H18837   0.893   5.127   1.708  2.1241  0.3983 -0.5402
  140MOL0     H18838   0.952   5.239   1.841  2.1699  3.6492 -1.5238
  140MOL0     H18839   0.951   5.430   1.686 -1.3976 -0.0408  0.6667
  140MOL0     H18840   0.864   5.331   1.570 -0.4442  0.7273  0.6404
  140MOL0     H18841   1.120   5.218   1.666 -0.3791 -0.2727 -0.5813
  140MOL0     H18842   1.050   5.220   1.499 -0.2404 -1.6198  0.6343
  140MOL0     H18843   1.124   5.464   1.503 -1.9021  0.4873  0.8120
  140MOL0     H18844   1.192   5.434   1.661 -3.8636 -0.1887  0.9108
  140MOL0     H18845   1.357   5.269   1.578  3.8743  1.8589 -0.5779
  140MOL0     H18846   1.283   5.257   1.421  2.1577 -1.5856  1.1223
  140MOL0     H18847   1.429   5.483   1.558 -1.0808 -2.3538  1.7350
  140MOL0     H18848   1.338   5.515   1.402  0.1175  2.1919  0.1840
  140MOL0     H18849   1.573   5.332   1.461 -2.7917 -1.8620  1.7198
  140MOL0     H18850   1.478   5.314   1.313  1.5654 -0.6048 -0.5026
  140MOL0     H18851   1.747   5.538   1.460 -1.1714 -1.0631  0.1218
  140MOL0     H18852   1.792   5.851   1.280 -0.3923  0.0157  0.1460
  140MOL0     H18853   1.890   5.742   1.372 -0.9358  0.3753  0.2271
  140MOL0     H18854   1.964   5.630   1.143  1.5432  1.2943  2.6196
  140MOL0     H18855   1.846   5.741   1.073  0.2983  0.5091 -0.8700
  140MOL0     H18856   1.988   5.938   1.148 -0.9478  0.5854  0.4486
  140MOL0     H18857   2.068   5.828   1.036  0.3473 -1.2699  0.5705
  140MOL0     H18858   2.218   5.905   1.194 -0.7851  0.2945  0.2867
  140MOL0     H18859   2.197   5.719   1.199 -1.6960 -0.7397  0.4076
  140MOL0     H18860   2.107   5.893   1.605 -0.6938 -2.9576  1.7110
  140MOL0     H18861   2.292   5.898   1.774  2.5075  0.1406  0.1845
  140MOL0     H18862   2.805   5.643   1.801  0.6181  0.0316 -0.5554
  140MOL0     H18863   3.014   5.678   1.940 -0.6962  1.1904  3.0760
  140MOL0     H18864   3.202   5.999   1.797 -1.5458  0.3044  0.5364
  140MOL0     H18865   3.247   6.079   1.954  0.0203  1.0804 -0.7096
  140MOL0     H18866   3.414   5.968   1.802 -1.1553  1.7786 -0.0343
  140MOL0     H18867   3.425   5.913   1.973  1.7768  0.6013 -2.0281
  140MOL0     H18868   3.260   5.754   1.775  1.4453  2.0886 -3.0252
  140MOL0     H18869   3.444   5.748   1.780  0.7329  0.5059  0.9771
  140MOL0     H18870   3.250   5.677   2.024  0.3670  0.6096  1.5167
  140MOL0     H18871   3.420   5.686   2.020  0.7966 -0.1373  0.0828
  140MOL0     H18872   3.428   5.488   1.851 -1.2994 -0.2300 -1.4011
  140MOL0     H18873   3.254   5.493   1.850  1.6923 -0.2922 -2.1292
  140MOL0     H18874   3.383   5.449   2.120 -0.4090  1.7030 -0.6155
  140MOL0     H18875   3.217   5.422   2.052 -0.6499  0.9517 -1.1200
  140MOL0     H18876   3.398   5.228   2.098  2.4337  1.5252  0.2968
  140MOL0     H18877   3.424   5.247   1.918  0.1519  0.5470  0.6424
  140MOL0     H18878   3.227   5.073   1.986 -0.5087 -0.5836 -2.0215
  140MOL0     H18879   3.134   5.219   2.031  0.0152  1.1457 -0.2332
  140MOL0     H18880   2.990   6.105   1.882  2.1368 -0.7940 -0.9617
  140MOL0     H18881   2.749   6.058   1.792  0.3684  1.1153  4.5499
  140MOL0     H18882   2.567   5.792   1.463  1.2284 -1.9650  2.6634
  140MOL0     H18883   2.402   5.774   1.300 -0.0681  1.3116 -1.1697
  140MOL0     H18884   0.699   5.590   2.004  0.5633  0.5750 -0.3652
  140MOL0     H18885   0.513   5.728   1.981  3.0650 -0.1090  0.9297
  140MOL0     H18886   0.068   5.729   1.991 -2.2542  1.3680  1.9595
  140MOL0     H18887  -0.147   5.809   2.006 -0.3566  1.0366 -0.2517
  140MOL0     H18888  -0.437   6.068   1.911 -1.1096 -1.3121 -0.9034
  140MOL0     H18889  -0.295   6.009   2.007  1.9952 -0.2756 -1.3793
  140MOL0     H18890  -0.403   5.772   1.965  2.2719  0.5638  2.3389
  140MOL0     H18891  -0.559   5.863   1.924  0.4690  1.6380 -1.7357
  140MOL0     H18892  -0.549   5.961   2.142  0.5263 -0.1548 -1.7865
  140MOL0     H18893  -0.400   5.877   2.178 -0.0572 -0.5380 -0.3554
  140MOL0     H18894  -0.526   5.655   2.133  0.5087 -0.1115  1.5771
  140MOL0     H18895  -0.567   5.750   2.263  1.5329 -0.9061 -0.2010
  140MOL0     H18896  -0.922   5.833   2.041  1.7662 -1.9258 -0.7933
  140MOL0     H18897  -0.143   5.962   1.609  1.8542  2.3242 -0.2142
  140MOL0     H18898   0.197   5.949   1.561 -0.8184  0.8796 -1.9939
  140MOL0     H18899   0.132   5.786   1.505  1.3728 -0.4281 -0.9201
  140MOL0     H18900   0.047   5.949   1.472 -1.2390 -0.9386 -0.4020
  141MOL0     O18901  10.760   9.702   4.913  0.4649  0.0997 -0.3405
  141MOL0     C18902  10.780   9.596   4.851  0.6763 -0.1104  0.4908
  141MOL0     O18903  10.895   9.514   4.869 -0.4642  0.6779 -0.7437
  141MOL0     C18904  10.984   9.544   4.966  0.2307  0.0002 -0.5825
  141MOL0     C18905  11.068   9.646   4.927 -0.5012 -0.6810 -0.5837
  141MOL0     C18906  11.157   9.700   5.021  0.1899 -0.1986 -0.9751
  141MOL0     C18907  11.174   9.651   5.153 -0.4128  0.2057  0.3610
  141MOL0     O18908  11.270   9.706   5.232  0.1016  0.2679  0.1639
  141MOL0     C18909  11.295   9.647   5.362 -0.4344  0.2009  0.0275
  141MOL0     C18910  11.399   9.735   5.442 -0.3324  0.0553  0.1220
  141MOL0     C18911  11.537   9.744   5.372 -0.5902  0.2793  0.4101
  141MOL0     C18912  11.635   9.832   5.456  0.0794 -0.7783 -0.8627
  141MOL0     C18913  11.762   9.874   5.386 -0.8197 -0.5665  0.0838
  141MOL0     C18914  11.854   9.760   5.365  0.3542 -0.2775 -0.1062
  141MOL0     C18915  11.984   9.805   5.298 -1.1004 -0.1776 -0.8162
  141MOL0     C18916  12.105   9.717   5.330 -0.5131  0.0754  0.4220
  141MOL0     N18917  12.199   9.783   5.232 -0.0558  0.1262 -0.2707
  141MOL0     C18918  12.213   9.766   5.096  0.3766 -0.1386 -1.1830
  141MOL0     C18919  12.307   9.860   5.061 -0.1273  0.2954 -0.5204
  141MOL0     C18920  12.378   9.872   4.930  0.3989  0.1042  0.0684
  141MOL0     C18921  12.282   9.848   4.813 -0.5468 -0.4038  0.2061
  141MOL0     C18922  12.339   9.863   4.674 -0.9354  0.1155 -0.1344
  141MOL0     C18923  12.450   9.765   4.645  0.1740 -0.2949  0.1768
  141MOL0     O18924  12.531   9.812   4.532 -0.7245  0.4503 -0.1856
  141MOL0     C18925  12.637   9.725   4.508  0.4511  0.0170  0.7471
  141MOL0     C18926  12.614   9.592   4.478  0.0723  0.8133 -0.1105
  141MOL0     C18927  12.719   9.504   4.449 -0.1562 -0.2676  0.9309
  141MOL0     C18928  12.857   9.556   4.458  0.1971 -0.7683 -0.1463
  141MOL0     C18929  12.979   9.477   4.427  0.4013  0.4132 -0.9483
  141MOL0     O18930  13.108   9.531   4.454  0.4005  0.6349 -0.6079
  141MOL0     C18931  13.219   9.457   4.465 -0.1639 -0.4493  0.6776
  141MOL0     C18932  13.234   9.316   4.489  0.5601 -0.9081 -0.1398
  141MOL0     C18933  13.359   9.261   4.496  0.0159 -0.3041 -0.2153
  141MOL0     C18934  13.473   9.337   4.486  0.6953  0.1210  0.4917
  141MOL0     O18935  13.595   9.285   4.503  0.3367 -0.4272 -0.2350
  141MOL0     C18936  13.673   9.289   4.383 -0.2585  0.4688  0.6321
  141MOL0     C18937  13.822   9.330   4.402  0.2431  0.0927  0.3098
  141MOL0     C18938  13.887   9.239   4.500  0.1654  0.6025 -0.3479
  141MOL0     C18939  13.994   9.300   4.594  0.6268 -0.1107 -0.1352
  141MOL0     C18940  14.064   9.190   4.683  0.1625 -0.0121 -0.3097
  141MOL0     C18941  14.170   9.245   4.770 -0.0107 -0.3263 -0.5894
  141MOL0     C18942  14.299   9.260   4.686  0.6439 -0.1144  1.2395
  141MOL0     C18943  14.398   9.355   4.755 -0.5034 -0.1724  0.6821
  141MOL0    Cl18944  14.543   9.371   4.657 -0.1304 -0.4234  0.3098
  141MOL0     C18945  13.460   9.478   4.485  1.1952  0.8799 -0.5765
  141MOL0     C18946  13.335   9.531   4.477  0.0773 -0.0963  0.5735
  141MOL0     O18947  12.962   9.366   4.383  0.2013  0.0842 -0.4399
  141MOL0     C18948  12.870   9.698   4.471  0.0416  0.1648 -0.0065
  141MOL0     C18949  12.758   9.784   4.490  0.3728 -0.1991 -0.1538
  141MOL0     N18950  12.359   9.917   5.177  0.7331 -0.2459  0.1964
  141MOL0     N18951  12.296   9.872   5.279  0.2238 -0.1481  0.2293
  141MOL0     C18952  11.085   9.546   5.186 -0.1323  1.0912 -0.0357
  141MOL0     C18953  10.991   9.493   5.098 -0.6223  0.4119 -0.5055
  141MOL0     C18954  10.684   9.562   4.741  0.2629  0.4601 -0.4108
  141MOL0     C18955  10.614   9.669   4.685 -0.7180 -0.4201 -0.2118
  141MOL0     C18956  10.520   9.638   4.589  0.1979  0.2655 -0.1095
  141MOL0     C18957  10.498   9.511   4.543  0.2856 -0.0821 -0.0292
  141MOL0     O18958  10.393   9.472   4.455 -0.5996 -0.4973 -0.8915
  141MOL0     C18959  10.267   9.534   4.479 -0.8014 -0.6672  0.0721
  141MOL0     C18960  10.140   9.449   4.437  0.6213  0.0002 -0.6138
  141MOL0     C18961  10.128   9.410   4.287 -0.5033  0.4046 -0.1519
  141MOL0     C18962  10.068   9.268   4.263  0.2860  0.4097 -1.0694
  141MOL0     C18963   9.923   9.265   4.268  0.3135  0.0549  0.0638
  141MOL0     C18964   9.801   9.275   4.262  0.3743  0.3831  0.0086
  141MOL0     C18965  10.572   9.405   4.595  0.1552  0.7050  0.8857
  141MOL0     C18966  10.659   9.430   4.697 -0.1235  0.2539 -0.4627
  141MOL0     C18967  10.724   9.300   4.752 -0.4200 -0.1002  0.6140
  141MOL0     H18968  11.057   9.683   4.826 -4.7875  0.5538  0.1371
  141MOL0     H18969  11.222   9.775   4.977 -1.8444  1.1479 -1.8679
  141MOL0     H18970  11.202   9.642   5.418 -0.1534 -1.1184  0.4002
  141MOL0     H18971  11.337   9.546   5.353  2.0109  0.8796  2.4806
  141MOL0     H18972  11.409   9.712   5.549  1.1656  1.8540  0.4201
  141MOL0     H18973  11.351   9.833   5.447 -1.9097 -0.4513 -2.8089
  141MOL0     H18974  11.514   9.782   5.272  2.6943  1.2628 -0.1056
  141MOL0     H18975  11.583   9.645   5.365  3.3534  1.9623  0.1015
  141MOL0     H18976  11.571   9.917   5.478 -1.1794 -1.7735 -0.5485
  141MOL0     H18977  11.668   9.792   5.552  0.1219  0.9312 -0.1378
  141MOL0     H18978  11.743   9.918   5.288  0.9065  0.2710  0.0963
  141MOL0     H18979  11.810   9.945   5.453  1.8139 -0.9355 -1.2844
  141MOL0     H18980  11.866   9.718   5.466 -3.2470  1.3528  1.1932
  141MOL0     H18981  11.800   9.686   5.305 -1.0605  0.0698  0.6988
  141MOL0     H18982  12.016   9.901   5.339  2.7383 -0.7479 -2.0365
  141MOL0     H18983  11.975   9.815   5.189  1.0397 -2.3584 -1.2684
  141MOL0     H18984  12.143   9.712   5.432  2.8047  1.2088 -0.6247
  141MOL0     H18985  12.084   9.617   5.290  2.2307  0.0239 -1.1442
  141MOL0     H18986  12.160   9.703   5.026  0.1871  2.4107 -3.4890
  141MOL0     H18987  12.423   9.970   4.912 -1.2630  1.2484  1.7607
  141MOL0     H18988  12.462   9.803   4.936  0.3031  0.1010  2.0960
  141MOL0     H18989  12.230   9.752   4.816 -3.1635  0.8611 -1.4464
  141MOL0     H18990  12.201   9.922   4.818  1.2430  1.6370  0.7437
  141MOL0     H18991  12.385   9.962   4.662  1.8795 -0.8978  1.3106
  141MOL0     H18992  12.261   9.835   4.602  1.2600 -3.4376 -1.3955
  141MOL0     H18993  12.397   9.672   4.623 -2.1216  0.2918  2.6610
  141MOL0     H18994  12.517   9.747   4.730 -0.3800 -1.5585  0.3745
  141MOL0     H18995  12.511   9.561   4.463  0.1032  0.3679  0.5462
  141MOL0     H18996  12.685   9.405   4.420 -0.9600  0.0799  0.6442
  141MOL0     H18997  13.145   9.257   4.505 -0.0453  0.2183  0.7856
  141MOL0     H18998  13.368   9.153   4.503  0.5704 -0.5042 -3.0626
  141MOL0     H18999  13.675   9.184   4.350  1.2061  0.5688  0.3223
  141MOL0     H19000  13.635   9.350   4.301  0.8559 -0.1633 -0.3954
  141MOL0     H19001  13.855   9.320   4.298 -0.2416 -1.9156  0.2940
  141MOL0     H19002  13.833   9.435   4.429  0.1689 -0.3677  2.2408
  141MOL0     H19003  13.808   9.213   4.571 -0.4250  2.2319 -0.3498
  141MOL0     H19004  13.922   9.153   4.443  1.7419  1.2509 -0.3943
  141MOL0     H19005  13.942   9.366   4.663  1.9726  1.1579 -0.2988
  141MOL0     H19006  14.068   9.355   4.535 -0.2286 -0.7358 -1.8944
  141MOL0     H19007  14.104   9.105   4.627 -1.4135 -0.8321 -0.2711
  141MOL0     H19008  13.985   9.143   4.743  1.2900  1.4859  2.5580
  141MOL0     H19009  14.124   9.338   4.806  0.4116 -0.3956  0.1358
  141MOL0     H19010  14.190   9.176   4.852 -0.5488  1.3131  1.0032
  141MOL0     H19011  14.271   9.299   4.587 -0.8430  0.0152  1.6923
  141MOL0     H19012  14.352   9.165   4.676 -0.1171 -0.6745  2.3575
  141MOL0     H19013  14.353   9.453   4.771 -0.9477 -0.4287  1.0130
  141MOL0     H19014  14.434   9.318   4.851  3.6822  0.6120 -0.3957
  141MOL0     H19015  13.540   9.545   4.513 -2.2045  4.0986  2.4848
  141MOL0     H19016  13.348   9.639   4.484 -2.0397  0.1537  1.6821
  141MOL0     H19017  12.972   9.735   4.474  0.9685 -2.2392  1.3770
  141MOL0     H19018  12.757   9.891   4.507 -1.5091 -0.2259  0.0197
  141MOL0     H19019  11.089   9.487   5.276 -0.9170  2.1194  0.6956
  141MOL0     H19020  10.918   9.419   5.128 -0.3537  0.9694  1.7745
  141MOL0     H19021  10.634   9.774   4.701 -2.5110 -0.0120 -0.4041
  141MOL0     H19022  10.451   9.715   4.555  3.3608  3.2051 -0.3686
  141MOL0     H19023  10.253   9.627   4.424 -2.2509 -0.6919  0.3610
  141MOL0     H19024  10.254   9.550   4.586 -3.9397  0.0080 -0.2950
  141MOL0     H19025  10.053   9.509   4.467  0.9358 -0.4923  1.4487
  141MOL0     H19026  10.139   9.366   4.508 -0.2385  0.7729  0.3039
  141MOL0     H19027  10.228   9.401   4.242  0.5909 -2.2778  2.4438
  141MOL0     H19028  10.069   9.484   4.232 -0.3934  0.7272  0.1606
  141MOL0     H19029  10.082   9.238   4.158 -0.1472  2.6649 -1.8317
  141MOL0     H19030  10.110   9.199   4.336 -3.5032 -0.9560  0.0395
  141MOL0     H19031   9.697   9.298   4.263  0.1064 -0.4890 -2.1936
  141MOL0     H19032  10.557   9.300   4.571  0.2798  1.1068 -1.1271
  141MOL0     H19033  10.832   9.312   4.737 -0.5027  1.2404  0.9682
  141MOL0     H19034  10.707   9.289   4.859  2.3120  0.3346  1.1481
  141MOL0     H19035  10.694   9.208   4.701  1.7297 -0.4304 -0.1465
  142MOL0     O19036   6.827   7.956  10.248  0.0029  0.5519 -0.6229
  142MOL0     C19037   6.774   7.860  10.307  0.4175 -0.7713 -0.0437
  142MOL0     O19038   6.843   7.777  10.385 -0.2767  0.9194 -0.4098
  142MOL0     C19039   6.974   7.750  10.352 -1.5449  0.2376 -0.4593
  142MOL0     C19040   7.074   7.830  10.414 -0.4339  0.2080 -0.3706
  142MOL0     C19041   7.210   7.824  10.388 -0.0018  0.0900 -0.0410
  142MOL0     C19042   7.245   7.717  10.311  0.0277 -0.0706  0.6448
  142MOL0     O19043   7.373   7.686  10.275 -0.2747  0.7501 -0.2981
  142MOL0     C19044   7.467   7.793  10.261 -0.8988  0.0429  0.6416
  142MOL0     C19045   7.606   7.723  10.247  0.4720 -0.3695  0.3506
  142MOL0     C19046   7.713   7.832  10.228 -0.2565  0.1327  0.2891
  142MOL0     C19047   7.842   7.784  10.168 -0.3292 -0.0140  0.0167
  142MOL0     C19048   7.952   7.884  10.148 -0.2071 -0.3154  0.0531
  142MOL0     C19049   8.035   7.913  10.278 -0.2600 -0.2325  0.0868
  142MOL0     C19050   8.161   7.994  10.232  0.0939 -0.4886 -0.6465
  142MOL0     C19051   8.272   7.991  10.343  0.7649 -1.0765  0.3448
  142MOL0     N19052   8.397   8.058  10.292 -0.3083  0.3319  0.3038
  142MOL0     C19053   8.425   8.192  10.268  0.2282  0.4801  0.1304
  142MOL0     C19054   8.559   8.202  10.242  1.4520  0.3267  0.5598
  142MOL0     C19055   8.625   8.335  10.225 -0.0303 -0.5881  0.2129
  142MOL0     C19056   8.702   8.343  10.088 -0.1904  0.6064  0.0727
  142MOL0     C19057   8.803   8.219  10.068  0.7118  0.8273 -0.0311
  142MOL0     C19058   8.918   8.249   9.969 -0.2520  0.0180 -0.5140
  142MOL0     O19059   8.994   8.370  10.002 -0.2826 -0.2738 -0.1402
  142MOL0     C19060   9.111   8.375   9.927 -0.3377 -0.1821  0.4025
  142MOL0     C19061   9.177   8.272   9.866 -0.1759  0.6102 -0.1102
  142MOL0     C19062   9.301   8.291   9.792 -0.2500 -0.3825 -0.0245
  142MOL0     C19063   9.357   8.418   9.780 -0.3514 -0.3645 -0.7067
  142MOL0     C19064   9.476   8.444   9.703 -0.0027 -0.5681  0.1637
  142MOL0     O19065   9.554   8.339   9.683  0.0226 -0.2758  0.2904
  142MOL0     C19066   9.663   8.326   9.596 -0.3477 -0.2216 -0.0110
  142MOL0     C19067   9.713   8.198   9.580  0.1694 -0.1294 -0.1459
  142MOL0     C19068   9.821   8.173   9.496  0.2945 -0.4263  0.4140
  142MOL0     C19069   9.895   8.278   9.445  0.0483 -0.0541  0.3296
  142MOL0     O19070   9.992   8.239   9.365 -0.1085 -0.3378  0.3411
  142MOL0     C19071  10.120   8.289   9.412  0.2914 -0.0722  0.3596
  142MOL0     C19072  10.197   8.175   9.466  0.5797  0.5754 -0.1956
  142MOL0     C19073  10.338   8.216   9.501 -0.3063  0.0854 -0.0630
  142MOL0     C19074  10.436   8.206   9.386  0.6108 -0.6746  0.2504
  142MOL0     C19075  10.574   8.266   9.416  0.0907 -0.2259 -0.7541
  142MOL0     C19076  10.669   8.265   9.304  0.4653  0.8789  0.0802
  142MOL0     C19077  10.642   8.380   9.205  0.8221 -0.2254  0.5882
  142MOL0     C19078  10.722   8.377   9.084  0.5173  1.2589  0.5688
  142MOL0    Cl19079  10.686   8.254   8.953 -0.4299 -0.1707 -0.2213
  142MOL0     C19080   9.841   8.402   9.450  0.5795  0.1809  0.0823
  142MOL0     C19081   9.723   8.430   9.529  0.2337  0.4977  0.0499
  142MOL0     O19082   9.484   8.558   9.653 -0.3244 -0.0510  0.0771
  142MOL0     C19083   9.288   8.527   9.845  0.7217  0.3809  0.6681
  142MOL0     C19084   9.167   8.500   9.920  0.0882 -1.3121  0.3836
  142MOL0     N19085   8.607   8.068  10.247  0.6042 -0.5166 -0.0989
  142MOL0     N19086   8.512   7.985  10.272 -0.0836  0.0273  1.0203
  142MOL0     C19087   7.151   7.636  10.249 -0.3019  0.0017  0.1676
  142MOL0     C19088   7.016   7.651  10.268 -0.1855 -0.1380 -0.3177
  142MOL0     C19089   6.632   7.854  10.305  0.3664 -0.6078  0.2197
  142MOL0     C19090   6.550   7.974  10.311  0.1655 -0.0068 -0.0852
  142MOL0     C19091   6.411   7.976  10.315 -0.1252  0.1301 -0.4746
  142MOL0     C19092   6.345   7.851  10.310  0.1156  0.0565  0.3374
  142MOL0     O19093   6.205   7.824  10.312  0.0698  0.0260  0.5411
  142MOL0     C19094   6.130   7.925  10.384  0.3359 -0.4537 -0.4794
  142MOL0     C19095   5.983   7.911  10.356  0.7971 -0.4329  0.7961
  142MOL0     C19096   5.898   8.010  10.435  0.0916 -0.1831 -0.1929
  142MOL0     C19097   5.767   8.038  10.363 -0.1881  0.6796 -0.5202
  142MOL0     C19098   5.700   7.909  10.335  0.4024 -0.6376  0.0047
  142MOL0     C19099   5.640   7.809  10.319  0.1202 -0.6167 -0.0874
  142MOL0     C19100   6.422   7.738  10.288 -0.6679 -0.0299  0.2911
  142MOL0     C19101   6.565   7.735  10.283  0.5752 -0.3102  0.4064
  142MOL0     C19102   6.632   7.605  10.255 -0.1441  0.1811  0.2439
  142MOL0     H19103   7.051   7.912  10.482  1.1378 -0.3628  0.9353
  142MOL0     H19104   7.280   7.892  10.436 -1.0386  1.2438 -0.1221
  142MOL0     H19105   7.433   7.857  10.180  1.2311  1.6126  0.8941
  142MOL0     H19106   7.484   7.844  10.357  0.5790  1.6190 -0.3990
  142MOL0     H19107   7.603   7.650  10.165 -2.3070 -1.9464  1.6964
  142MOL0     H19108   7.625   7.660  10.334 -1.9699  0.0961  1.2953
  142MOL0     H19109   7.721   7.887  10.322 -2.9573 -0.9755  1.2344
  142MOL0     H19110   7.685   7.908  10.154  2.6473  1.2918  0.2183
  142MOL0     H19111   7.871   7.704  10.237 -1.2481 -0.5775 -0.2253
  142MOL0     H19112   7.814   7.748  10.069 -0.8787  0.3386  0.0377
  142MOL0     H19113   8.011   7.852  10.061  0.8905 -1.4906  1.1989
  142MOL0     H19114   7.899   7.974  10.114 -2.0720 -1.8282 -1.2894
  142MOL0     H19115   7.989   7.979  10.352 -1.3352  0.1074 -0.8642
  142MOL0     H19116   8.062   7.821  10.330  0.6413  0.3724  0.7382
  142MOL0     H19117   8.125   8.091  10.199  2.1725 -0.2970 -2.5698
  142MOL0     H19118   8.200   7.954  10.138  0.3279  1.3432 -1.3585
  142MOL0     H19119   8.225   8.050  10.423 -1.6277  0.3285 -1.9074
  142MOL0     H19120   8.286   7.892  10.387  0.4830 -0.2013  2.5564
  142MOL0     H19121   8.352   8.272  10.273 -1.0396 -0.4677 -1.7894
  142MOL0     H19122   8.557   8.419  10.242  2.0246  1.2916 -0.3938
  142MOL0     H19123   8.704   8.344  10.300  2.0167  3.4811 -2.0552
  142MOL0     H19124   8.634   8.353  10.003 -0.2866 -1.4527 -0.1442
  142MOL0     H19125   8.766   8.432  10.096  3.1440 -1.4932 -0.7620
  142MOL0     H19126   8.748   8.130  10.035 -1.3284  1.8957  0.3271
  142MOL0     H19127   8.847   8.197  10.166  1.1535  0.3114 -0.3421
  142MOL0     H19128   8.875   8.253   9.869 -1.5854  0.0181  0.0390
  142MOL0     H19129   8.977   8.157   9.968 -1.1495 -0.5662 -0.6261
  142MOL0     H19130   9.159   8.165   9.870 -2.4854  1.0173  1.3645
  142MOL0     H19131   9.352   8.210   9.740 -1.0133 -0.9118  0.0287
  142MOL0     H19132   9.661   8.111   9.620  0.0439 -1.6646 -3.3607
  142MOL0     H19133   9.854   8.070   9.493  1.2461 -0.1558  0.9404
  142MOL0     H19134  10.166   8.325   9.320  1.1697 -1.2226  0.3192
  142MOL0     H19135  10.119   8.377   9.476 -0.7134  1.3195 -1.4999
  142MOL0     H19136  10.149   8.126   9.551  0.4390  1.3238  0.1649
  142MOL0     H19137  10.198   8.104   9.383  0.5737  1.2961 -0.8285
  142MOL0     H19138  10.342   8.312   9.552  0.9686  0.4484 -0.7970
  142MOL0     H19139  10.364   8.149   9.583 -1.4300 -0.1413  0.1216
  142MOL0     H19140  10.388   8.271   9.312 -0.8736 -1.3060  0.6443
  142MOL0     H19141  10.440   8.108   9.336  0.1024 -1.5233  1.8171
  142MOL0     H19142  10.615   8.200   9.494 -0.0099  1.4803  0.8110
  142MOL0     H19143  10.563   8.365   9.460  1.1483 -0.1302 -0.6780
  142MOL0     H19144  10.769   8.278   9.347 -0.6565  1.6565  2.6356
  142MOL0     H19145  10.663   8.177   9.239 -0.6818  2.9611 -2.8934
  142MOL0     H19146  10.644   8.481   9.246 -1.5817  0.1525 -0.0560
  142MOL0     H19147  10.540   8.371   9.168  0.1167 -0.0297  2.3695
  142MOL0     H19148  10.715   8.474   9.034  1.8101  0.0425 -2.1997
  142MOL0     H19149  10.825   8.365   9.117  0.9668 -1.2797 -1.4561
  142MOL0     H19150   9.889   8.490   9.410  0.5427 -0.2767 -0.9857
  142MOL0     H19151   9.691   8.532   9.542 -0.5852  0.3449 -0.6592
  142MOL0     H19152   9.337   8.624   9.845  0.5625  0.5118 -1.5006
  142MOL0     H19153   9.116   8.581   9.973 -1.7047 -3.1404  1.5924
  142MOL0     H19154   7.181   7.548  10.193 -0.6827  0.3638 -0.6184
  142MOL0     H19155   6.948   7.577  10.227  3.4392 -4.8261  1.2720
  142MOL0     H19156   6.610   8.063  10.331 -1.2216  1.0427 -0.4211
  142MOL0     H19157   6.356   8.069  10.326 -1.8309 -0.8701 -0.1502
  142MOL0     H19158   6.166   8.026  10.361 -0.7023 -0.1835 -1.0031
  142MOL0     H19159   6.154   7.913  10.490  1.1431 -0.9590 -0.7144
  142MOL0     H19160   5.947   7.811  10.383  0.5082 -0.5249  0.0798
  142MOL0     H19161   5.963   7.924  10.249  0.6147  2.1484  1.0867
  142MOL0     H19162   5.948   8.104  10.461  2.3652 -0.9000 -1.7532
  142MOL0     H19163   5.872   7.967  10.532  5.4660 -1.3965  1.0122
  142MOL0     H19164   5.704   8.104  10.425 -2.3742 -1.0690 -0.7585
  142MOL0     H19165   5.790   8.091  10.270  0.4252  2.2330  0.4614
  142MOL0     H19166   5.583   7.720  10.301 -1.6227  0.5050 -0.4206
  142MOL0     H19167   6.369   7.645  10.268 -1.4457  0.4813 -0.0655
  142MOL0     H19168   6.569   7.516  10.251  1.4179 -0.9568 -0.0228
  142MOL0     H19169   6.703   7.606  10.172  1.1647 -1.2595  1.2835
  142MOL0     H19170   6.700   7.578  10.337  0.1551 -0.4828 -0.2140
  143MOL0     O19171   8.379   7.155   1.744 -0.0319 -0.3571  0.1614
  143MOL0     C19172   8.368   7.041   1.702 -0.1704  0.1171  0.7748
  143MOL0     O19173   8.469   6.945   1.700 -0.6532  0.0037 -0.5404
  143MOL0     C19174   8.602   6.994   1.718 -0.5248  0.1579 -0.1787
  143MOL0     C19175   8.656   7.127   1.689 -0.3480 -0.2929  0.6209
  143MOL0     C19176   8.789   7.146   1.712 -0.6197  0.0421  0.0506
  143MOL0     C19177   8.879   7.057   1.776 -0.2452  0.0231 -0.9388
  143MOL0     O19178   9.005   7.100   1.820  0.2651 -0.7429  0.1653
  143MOL0     C19179   9.085   7.017   1.909  0.0340 -0.3934  0.8789
  143MOL0     C19180   9.174   7.103   1.990  0.0723  0.6311  0.0816
  143MOL0     C19181   9.286   7.177   1.907 -0.2313  0.2941 -0.7509
  143MOL0     C19182   9.404   7.084   1.874  0.1164  1.0030  0.4059
  143MOL0     C19183   9.493   7.136   1.763 -0.0205  0.5642 -0.1613
  143MOL0     C19184   9.426   7.123   1.625 -0.6238 -0.3182 -0.3836
  143MOL0     C19185   9.477   7.235   1.537  0.1991 -0.1725  0.9773
  143MOL0     C19186   9.599   7.201   1.452  0.3152  0.4124 -0.0745
  143MOL0     N19187   9.726   7.241   1.517 -0.0727  0.1271 -0.1930
  143MOL0     C19188   9.788   7.369   1.519  0.0829  0.4598 -0.1009
  143MOL0     C19189   9.907   7.344   1.574 -0.2351  0.0732 -0.3385
  143MOL0     C19190  10.011   7.451   1.606  0.2301  0.0996 -0.3319
  143MOL0     C19191  10.052   7.485   1.462  0.5339 -0.0031 -0.2590
  143MOL0     C19192  10.182   7.569   1.473 -0.0206  0.2242 -0.3842
  143MOL0     C19193  10.209   7.616   1.323 -0.8560  0.5223 -0.7690
  143MOL0     O19194  10.246   7.752   1.315  0.2244  0.2659 -0.1664
  143MOL0     C19195  10.380   7.776   1.297  0.2819 -0.0813 -0.5903
  143MOL0     C19196  10.464   7.739   1.401 -0.4387  0.6283  0.3372
  143MOL0     C19197  10.605   7.769   1.396 -0.2823 -0.0226 -0.3178
  143MOL0     C19198  10.654   7.818   1.275  0.1091 -0.7438  0.0739
  143MOL0     C19199  10.799   7.852   1.263  1.4888  0.0719  0.4869
  143MOL0     O19200  10.857   7.847   1.137  0.0052 -0.5890 -0.1675
  143MOL0     C19201  10.988   7.868   1.119 -0.0175 -0.0766 -0.1003
  143MOL0     C19202  11.063   7.761   1.077  0.0010 -0.1668 -0.8085
  143MOL0     C19203  11.200   7.783   1.063  0.0367 -0.6059  0.3887
  143MOL0     C19204  11.260   7.907   1.091  0.6685  0.0274 -0.2671
  143MOL0     O19205  11.398   7.915   1.062 -0.2047  0.2689  0.4297
  143MOL0     C19206  11.453   8.049   1.048 -0.4202  0.4844 -0.5380
  143MOL0     C19207  11.497   8.105   1.187 -0.0144 -0.4122  0.3757
  143MOL0     C19208  11.630   8.048   1.244 -0.6230 -0.1570  0.3737
  143MOL0     C19209  11.758   8.088   1.160 -0.0575  0.6314  0.5759
  143MOL0     C19210  11.883   8.048   1.234  0.2469  0.5490 -0.2929
  143MOL0     C19211  12.011   8.044   1.153  0.1448  0.3496  0.7527
  143MOL0     C19212  12.137   8.051   1.237 -0.0851 -0.2928  0.5806
  143MOL0     C19213  12.175   8.196   1.285  0.1932 -0.0493 -0.0514
  143MOL0    Cl19214  12.311   8.206   1.410 -0.1268  0.5570 -0.2132
  143MOL0     C19215  11.179   8.008   1.136  0.7790  0.4681  0.7092
  143MOL0     C19216  11.047   7.991   1.147  0.3600  0.0360 -0.7197
  143MOL0     O19217  10.852   7.879   1.366 -0.3422 -0.2298 -0.6470
  143MOL0     C19218  10.567   7.840   1.169 -0.6480 -0.0512  0.0405
  143MOL0     C19219  10.429   7.824   1.178 -0.0178  0.3588 -0.4410
  143MOL0     N19220   9.914   7.210   1.611  0.6280 -0.4686 -0.5283
  143MOL0     N19221   9.811   7.149   1.571  0.2068 -0.5376  0.5836
  143MOL0     C19222   8.825   6.932   1.812 -0.0675 -0.3131  0.4762
  143MOL0     C19223   8.691   6.900   1.773 -0.4412 -0.4780 -0.4078
  143MOL0     C19224   8.224   6.997   1.683 -0.8394  0.1819  0.5835
  143MOL0     C19225   8.199   6.864   1.659  0.0650  0.1329 -0.2292
  143MOL0     C19226   8.073   6.814   1.623 -0.2032  0.1340 -0.4655
  143MOL0     C19227   7.958   6.891   1.634 -0.6941 -0.7426 -0.3212
  143MOL0     O19228   7.836   6.837   1.596  0.3217  0.4849  0.4237
  143MOL0     C19229   7.729   6.900   1.660  0.4250  0.1627  0.7120
  143MOL0     C19230   7.613   6.802   1.675  0.3325 -0.0896 -0.0187
  143MOL0     C19231   7.655   6.659   1.722  0.3754 -0.7993  0.0022
  143MOL0     C19232   7.530   6.562   1.723  0.0914  0.0682  0.5664
  143MOL0     C19233   7.436   6.598   1.828  0.3676  0.0293  0.7001
  143MOL0     C19234   7.349   6.627   1.908 -0.2644  0.8487  0.0373
  143MOL0     C19235   7.986   7.029   1.653  0.1326  0.6090  0.3251
  143MOL0     C19236   8.117   7.083   1.664 -0.8309 -0.7043 -0.6391
  143MOL0     C19237   8.132   7.232   1.645  0.3288  0.3394 -0.0921
  143MOL0     H19238   8.596   7.210   1.650  2.0260  0.5313 -1.5540
  143MOL0     H19239   8.832   7.239   1.678 -1.1298  0.0703 -0.5422
  143MOL0     H19240   9.016   6.969   1.980 -1.8921  1.9839  0.7930
  143MOL0     H19241   9.142   6.941   1.857  0.7568  0.2028  0.7874
  143MOL0     H19242   9.219   7.048   2.074  1.0207  1.9485  0.4952
  143MOL0     H19243   9.104   7.174   2.036 -2.1970 -0.1750 -1.9447
  143MOL0     H19244   9.320   7.259   1.970 -0.5225 -1.4750  1.8855
  143MOL0     H19245   9.247   7.231   1.821  0.1073 -1.1557 -1.8502
  143MOL0     H19246   9.460   7.086   1.968  0.3758  3.8185  0.2543
  143MOL0     H19247   9.378   6.983   1.841 -1.5630  1.7242 -0.6065
  143MOL0     H19248   9.515   7.240   1.786  0.6376  0.5637 -0.7596
  143MOL0     H19249   9.586   7.078   1.754 -0.0051  0.5169  0.2736
  143MOL0     H19250   9.454   7.024   1.585 -0.1751  0.4009 -1.9535
  143MOL0     H19251   9.317   7.132   1.625 -0.4403  2.8546 -0.0732
  143MOL0     H19252   9.513   7.327   1.585  0.0523 -0.0750  0.9016
  143MOL0     H19253   9.406   7.279   1.467  2.7551 -0.6597 -2.1127
  143MOL0     H19254   9.594   7.093   1.438 -1.0891  0.6446 -1.6598
  143MOL0     H19255   9.590   7.245   1.352  0.3257  1.6598  0.4558
  143MOL0     H19256   9.746   7.461   1.480 -0.8779  0.2598  0.4343
  143MOL0     H19257   9.964   7.534   1.661  1.3790 -0.4031  1.4666
  143MOL0     H19258  10.094   7.409   1.662  0.3836 -0.7983 -1.2030
  143MOL0     H19259  10.062   7.389   1.410 -0.0660 -1.0914  1.5313
  143MOL0     H19260   9.974   7.543   1.411  0.0825 -0.1146  0.2961
  143MOL0     H19261  10.268   7.519   1.518 -0.2663 -2.0977 -2.2957
  143MOL0     H19262  10.160   7.659   1.531 -1.3007 -0.7143  0.6358
  143MOL0     H19263  10.125   7.609   1.254  0.7413 -0.0417 -2.7300
  143MOL0     H19264  10.280   7.540   1.290 -0.8567 -0.3071  1.0173
  143MOL0     H19265  10.420   7.699   1.492  1.8546 -3.2512 -0.0555
  143MOL0     H19266  10.659   7.754   1.489 -2.4769 -1.0828  0.8757
  143MOL0     H19267  11.023   7.661   1.060  0.6154 -0.4778 -0.4506
  143MOL0     H19268  11.268   7.711   1.018  2.5629  2.5220 -1.1997
  143MOL0     H19269  11.539   8.039   0.981 -0.3397  0.4638 -0.4322
  143MOL0     H19270  11.385   8.125   1.010  1.6298  3.0353  0.6079
  143MOL0     H19271  11.500   8.215   1.184  1.0668 -0.2514  3.5558
  143MOL0     H19272  11.417   8.074   1.255  1.0894  2.0690  3.0571
  143MOL0     H19273  11.631   8.080   1.349  0.0281  2.0511 -0.2436
  143MOL0     H19274  11.626   7.939   1.240 -0.8433 -0.1102 -0.8697
  143MOL0     H19275  11.760   8.195   1.138 -1.4824  0.0735 -2.9160
  143MOL0     H19276  11.756   8.039   1.062 -0.0596  0.1477  0.8145
  143MOL0     H19277  11.859   7.947   1.269  1.3772  0.0566 -0.8979
  143MOL0     H19278  11.898   8.116   1.319  1.0620  0.0447 -0.0270
  143MOL0     H19279  12.015   7.958   1.086  0.3768  0.9284  0.0086
  143MOL0     H19280  12.022   8.121   1.075  0.7652 -2.8556 -2.6099
  143MOL0     H19281  12.219   8.008   1.178 -1.3850 -3.3887  0.8411
  143MOL0     H19282  12.135   7.986   1.324  5.0351  1.2772  2.2380
  143MOL0     H19283  12.193   8.273   1.209 -0.3855  1.6069  1.4320
  143MOL0     H19284  12.087   8.241   1.332 -0.0556  1.0939 -1.5371
  143MOL0     H19285  11.216   8.104   1.170  1.2889  0.3328  0.5594
  143MOL0     H19286  10.983   8.061   1.200 -2.4982 -1.8029 -1.4821
  143MOL0     H19287  10.610   7.865   1.073  1.3900 -0.0072  0.9192
  143MOL0     H19288  10.362   7.856   1.099 -1.2507 -1.0338  0.0058
  143MOL0     H19289   8.874   6.854   1.868 -2.5200 -0.3698  2.7519
  143MOL0     H19290   8.666   6.795   1.784  1.7967 -1.1482 -1.2335
  143MOL0     H19291   8.285   6.800   1.643  1.4128  1.8750 -0.3095
  143MOL0     H19292   8.064   6.707   1.602 -1.8026  0.5730 -2.3458
  143MOL0     H19293   7.697   6.984   1.598  0.4507  1.2585  2.1389
  143MOL0     H19294   7.754   6.946   1.756  1.3021  0.8899  0.1495
  143MOL0     H19295   7.557   6.803   1.581  1.7340  1.5858 -0.8984
  143MOL0     H19296   7.547   6.843   1.752 -0.2198 -1.1191  0.0747
  143MOL0     H19297   7.701   6.652   1.821 -0.4164 -2.8409  0.2865
  143MOL0     H19298   7.716   6.622   1.640 -0.3811  1.2642 -1.5703
  143MOL0     H19299   7.474   6.568   1.629  1.2056 -1.0981 -0.2054
  143MOL0     H19300   7.550   6.454   1.729 -0.6989 -0.1050  0.2402
  143MOL0     H19301   7.275   6.649   1.983  0.4929 -1.3796  1.5449
  143MOL0     H19302   7.894   7.086   1.645 -0.9078 -1.2163 -2.0352
  143MOL0     H19303   8.208   7.246   1.568 -0.8636 -1.8424 -1.7987
  143MOL0     H19304   8.042   7.285   1.611 -0.0004  0.4356  0.8941
  143MOL0     H19305   8.165   7.270   1.742  0.2975 -0.4117  0.2194
  144MOL0     O19306   4.617   1.558   3.374  0.0131 -0.7164 -0.5765
  144MOL0     C19307   4.557   1.534   3.270 -0.4081  0.6129 -0.2312
  144MOL0     O19308   4.613   1.507   3.152  0.5561 -0.2447 -0.2831
  144MOL0     C19309   4.750   1.502   3.129  0.0885  0.4158 -0.6893
  144MOL0     C19310   4.778   1.487   2.992  0.1397 -0.8746 -0.2831
  144MOL0     C19311   4.915   1.469   2.949  0.1756 -0.3861  0.0127
  144MOL0     C19312   5.015   1.461   3.046 -0.5068  0.2564  1.1322
  144MOL0     O19313   5.147   1.448   3.011  0.8466  0.7466  0.1669
  144MOL0     C19314   5.183   1.477   2.872 -0.5331 -0.3547 -0.2503
  144MOL0     C19315   5.337   1.462   2.856 -0.1053 -0.0810  0.1606
  144MOL0     C19316   5.420   1.562   2.939  0.1129  0.2265  0.0717
  144MOL0     C19317   5.572   1.545   2.934 -0.3479  0.2643  0.2453
  144MOL0     C19318   5.655   1.651   2.994  0.4383 -0.4093 -0.2777
  144MOL0     C19319   5.614   1.798   2.964  0.6282 -0.2007 -0.4423
  144MOL0     C19320   5.729   1.900   2.969  0.4404 -0.5076  0.2500
  144MOL0     C19321   5.669   2.034   2.966 -0.1130 -0.3873 -0.6786
  144MOL0     N19322   5.763   2.138   2.942 -0.0155 -0.1512  0.8256
  144MOL0     C19323   5.851   2.150   2.834 -0.2987 -0.6612 -0.1564
  144MOL0     C19324   5.912   2.266   2.867  0.0029 -0.2471  0.2435
  144MOL0     C19325   6.018   2.325   2.783  0.2648  0.6839 -0.3581
  144MOL0     C19326   6.159   2.253   2.791  0.0789 -0.8678  0.4929
  144MOL0     C19327   6.274   2.337   2.750  0.3704 -0.5900 -0.4133
  144MOL0     C19328   6.405   2.272   2.752  0.6209 -0.7430  0.1642
  144MOL0     O19329   6.454   2.273   2.887 -0.5159  0.4442  0.0274
  144MOL0     C19330   6.594   2.248   2.899 -0.2036 -0.4793 -0.1933
  144MOL0     C19331   6.657   2.234   3.023 -0.7257 -0.3246  0.2576
  144MOL0     C19332   6.797   2.221   3.042  0.3270 -0.1889 -1.0554
  144MOL0     C19333   6.880   2.223   2.930  0.8135  0.7448  0.6024
  144MOL0     C19334   7.022   2.179   2.944  0.2716 -0.4446 -0.0449
  144MOL0     O19335   7.078   2.123   2.830 -0.3320 -0.0394  0.4283
  144MOL0     C19336   7.210   2.079   2.808  0.6429 -0.2568 -0.0409
  144MOL0     C19337   7.271   2.108   2.679  0.4254  0.0677 -0.1534
  144MOL0     C19338   7.401   2.070   2.668 -0.9752  0.3937 -0.4004
  144MOL0     C19339   7.477   2.002   2.764  0.4791 -0.0748 -0.4674
  144MOL0     O19340   7.605   1.950   2.764 -0.1419  0.3707  0.0552
  144MOL0     C19341   7.656   1.922   2.628  1.0482 -0.4721 -0.2657
  144MOL0     C19342   7.794   1.856   2.626  0.0072 -0.1896  0.1155
  144MOL0     C19343   7.903   1.961   2.628  0.8950  0.3449  0.0938
  144MOL0     C19344   8.048   1.902   2.628  0.0349  0.3995 -0.1963
  144MOL0     C19345   8.135   2.016   2.579 -0.4062  1.0519  0.3991
  144MOL0     C19346   8.289   1.981   2.587  0.7865 -0.8190 -0.5312
  144MOL0     C19347   8.376   2.083   2.511  0.1219  0.2427  0.0850
  144MOL0     C19348   8.527   2.053   2.522 -1.0425 -0.4247  0.6927
  144MOL0    Cl19349   8.563   1.896   2.460  0.1451  0.7275  0.3025
  144MOL0     C19350   7.419   1.996   2.890  0.3036 -1.0279  0.4645
  144MOL0     C19351   7.287   2.028   2.911  0.1380  0.4730  0.4660
  144MOL0     O19352   7.074   2.192   3.057 -0.5104 -0.2658  0.0481
  144MOL0     C19353   6.826   2.248   2.803 -0.3730 -0.1092 -0.5261
  144MOL0     C19354   6.689   2.257   2.790 -0.4440  0.0921 -0.3430
  144MOL0     N19355   5.867   2.322   2.986 -0.1345  0.2890  0.7613
  144MOL0     N19356   5.770   2.246   3.030 -0.4211  0.0288 -0.8572
  144MOL0     C19357   4.983   1.480   3.175 -0.5897 -0.7085 -0.1794
  144MOL0     C19358   4.858   1.499   3.223 -0.0680  0.0727 -0.1141
  144MOL0     C19359   4.412   1.538   3.272  1.0159 -0.2633  0.5032
  144MOL0     C19360   4.344   1.548   3.389  0.7819 -0.8803 -0.2305
  144MOL0     C19361   4.209   1.563   3.404 -0.2231  0.5832 -0.4461
  144MOL0     C19362   4.131   1.557   3.293 -0.8072  0.1190 -0.2230
  144MOL0     O19363   3.995   1.552   3.297  0.6272  0.0651 -0.2961
  144MOL0     C19364   3.920   1.554   3.417 -0.7548 -0.4457 -0.5071
  144MOL0     C19365   3.774   1.569   3.389 -0.1223 -0.3257  0.0602
  144MOL0     C19366   3.709   1.610   3.515  0.5541  0.3869 -0.6474
  144MOL0     C19367   3.556   1.619   3.492 -0.1880 -0.3951 -0.1509
  144MOL0     C19368   3.497   1.684   3.603 -0.1739 -0.0909 -0.0620
  144MOL0     C19369   3.480   1.756   3.697 -0.3339  0.1143 -0.1794
  144MOL0     C19370   4.190   1.537   3.172  0.1684 -0.1414 -0.8689
  144MOL0     C19371   4.331   1.523   3.155  0.5142 -0.1075  0.0518
  144MOL0     C19372   4.369   1.489   3.006  0.0223 -0.0298 -0.9638
  144MOL0     H19373   4.690   1.483   2.928  0.2306 -0.4299 -0.4373
  144MOL0     H19374   4.929   1.441   2.845 -2.0650 -0.4225 -0.3327
  144MOL0     H19375   5.135   1.407   2.804  0.5019 -2.1623  0.8100
  144MOL0     H19376   5.150   1.576   2.840 -1.9989 -0.6601  0.2280
  144MOL0     H19377   5.370   1.488   2.755  1.1656  2.0557  1.0736
  144MOL0     H19378   5.365   1.361   2.888 -2.8025 -1.2960 -0.9259
  144MOL0     H19379   5.381   1.566   3.041  2.8873  2.4347  1.2075
  144MOL0     H19380   5.392   1.661   2.902 -0.7118 -0.0387 -0.0236
  144MOL0     H19381   5.600   1.460   2.998 -1.2771  0.4037  0.8412
  144MOL0     H19382   5.610   1.532   2.832 -0.8749  0.8251 -0.0286
  144MOL0     H19383   5.644   1.633   3.102  0.3512 -3.1334 -0.6669
  144MOL0     H19384   5.758   1.637   2.960 -0.7013 -2.0402 -3.3639
  144MOL0     H19385   5.575   1.792   2.862  1.2849 -1.4549 -0.6457
  144MOL0     H19386   5.530   1.831   3.026  1.3316  3.4878 -1.2605
  144MOL0     H19387   5.791   1.892   2.879  2.0522  0.7718  1.1751
  144MOL0     H19388   5.801   1.892   3.052 -1.5086 -3.0788  1.8566
  144MOL0     H19389   5.597   2.035   2.883  0.4272 -2.8364 -1.2479
  144MOL0     H19390   5.611   2.054   3.056 -0.5569  2.2597 -1.4435
  144MOL0     H19391   5.869   2.074   2.758 -0.2631 -1.0566  0.2400
  144MOL0     H19392   5.982   2.339   2.680 -1.0046 -1.3531 -0.2540
  144MOL0     H19393   6.046   2.411   2.844  0.1773  0.2615  0.2889
  144MOL0     H19394   6.176   2.212   2.891 -1.0180 -1.2276  0.5396
  144MOL0     H19395   6.168   2.162   2.733  1.5228 -0.7135  0.4453
  144MOL0     H19396   6.279   2.434   2.801  4.0796 -2.1101  2.5913
  144MOL0     H19397   6.250   2.365   2.647 -2.0871 -1.0223 -0.0134
  144MOL0     H19398   6.476   2.326   2.688  1.8535 -0.9235  1.3405
  144MOL0     H19399   6.391   2.171   2.713 -1.0084  0.0335 -1.4419
  144MOL0     H19400   6.595   2.230   3.113  1.5389 -2.0278  1.8727
  144MOL0     H19401   6.840   2.204   3.140 -0.2550 -0.5323 -0.8505
  144MOL0     H19402   7.225   2.167   2.600 -1.6457 -1.9469 -0.5423
  144MOL0     H19403   7.455   2.079   2.575  0.2277 -0.4068  0.1955
  144MOL0     H19404   7.588   1.850   2.581  0.2164  1.1049 -1.5801
  144MOL0     H19405   7.653   2.014   2.570 -0.9046 -1.2614 -1.5238
  144MOL0     H19406   7.811   1.784   2.706  1.5241 -0.5484 -0.4960
  144MOL0     H19407   7.806   1.802   2.531 -1.2322  0.0340 -0.1891
  144MOL0     H19408   7.881   2.032   2.548 -0.5930 -0.3692 -0.1580
  144MOL0     H19409   7.888   2.013   2.723 -1.1085 -0.0263  0.0231
  144MOL0     H19410   8.053   1.813   2.565 -0.5557  0.7626 -0.7784
  144MOL0     H19411   8.083   1.883   2.730  0.1238  2.0699  0.1200
  144MOL0     H19412   8.109   2.104   2.638  0.4940  1.4760  0.1757
  144MOL0     H19413   8.113   2.032   2.473  0.7841  0.0018 -0.0426
  144MOL0     H19414   8.328   1.987   2.689  2.3171  1.1686 -1.1756
  144MOL0     H19415   8.305   1.879   2.551 -1.1410 -2.3013  2.3813
  144MOL0     H19416   8.355   2.187   2.537 -0.5580  0.0055  0.4899
  144MOL0     H19417   8.359   2.068   2.404  0.2237 -0.2776  0.1406
  144MOL0     H19418   8.582   2.131   2.469  0.6754 -0.9626  1.6292
  144MOL0     H19419   8.565   2.068   2.623  1.9577 -2.1384 -0.0843
  144MOL0     H19420   7.475   1.951   2.971 -0.5492 -3.4379 -0.1965
  144MOL0     H19421   7.238   2.019   3.007 -0.1366 -1.6993  0.1745
  144MOL0     H19422   6.891   2.255   2.716  0.2003  0.2386 -0.0788
  144MOL0     H19423   6.666   2.262   2.684  1.4466  0.1433 -0.7963
  144MOL0     H19424   5.070   1.473   3.239  1.0943 -1.1538 -2.3930
  144MOL0     H19425   4.835   1.512   3.328  0.2261 -1.2788  0.1377
  144MOL0     H19426   4.404   1.569   3.477  2.2974 -2.3904 -0.8270
  144MOL0     H19427   4.157   1.581   3.498  1.9091 -0.5375  1.0218
  144MOL0     H19428   3.947   1.639   3.480 -0.3618 -0.7866 -0.2200
  144MOL0     H19429   3.925   1.459   3.469  0.4495 -0.9604 -1.5196
  144MOL0     H19430   3.732   1.476   3.351  0.4030 -0.1480 -0.9994
  144MOL0     H19431   3.742   1.641   3.314 -2.6379 -0.4302  0.9334
  144MOL0     H19432   3.740   1.712   3.540  0.3012  0.8339 -2.0757
  144MOL0     H19433   3.743   1.539   3.591  1.3681  0.5641 -0.8367
  144MOL0     H19434   3.544   1.685   3.406  0.4276 -0.6868 -0.4698
  144MOL0     H19435   3.512   1.521   3.468 -1.0465 -0.2128  0.6187
  144MOL0     H19436   3.451   1.813   3.783 -1.8569  1.0943 -1.2906
  144MOL0     H19437   4.122   1.502   3.095 -2.0231 -0.3237  1.0519
  144MOL0     H19438   4.436   1.402   3.008  2.1376  1.5159  0.1358
  144MOL0     H19439   4.283   1.454   2.949  1.2237 -0.8801 -2.3121
  144MOL0     H19440   4.421   1.573   2.959 -0.6840 -0.1389 -1.9841
  145MOL0     O19441   1.709  10.049   8.466 -0.7090  0.8181  0.5849
  145MOL0     C19442   1.664   9.955   8.528  0.5214  1.3940  0.2478
  145MOL0     O19443   1.731   9.834   8.562  0.2307 -0.9918  0.1876
  145MOL0     C19444   1.861   9.812   8.528  0.0753 -0.0383 -0.3940
  145MOL0     C19445   1.898   9.681   8.505 -0.5249 -0.1344  0.2941
  145MOL0     C19446   2.036   9.650   8.497 -0.4777  0.3903  0.0565
  145MOL0     C19447   2.143   9.748   8.512  0.2296 -0.4177  0.1695
  145MOL0     O19448   2.275   9.725   8.521 -0.6100  0.5669  0.4589
  145MOL0     C19449   2.319   9.597   8.473  0.0693  0.8210 -0.4710
  145MOL0     C19450   2.471   9.603   8.498 -0.4918  0.7201  0.7114
  145MOL0     C19451   2.548   9.701   8.410  0.0883 -0.5136 -0.1539
  145MOL0     C19452   2.696   9.709   8.450  0.1399  1.3362 -0.4937
  145MOL0     C19453   2.764   9.818   8.377 -0.8042 -0.2884  0.2511
  145MOL0     C19454   2.913   9.813   8.382 -0.0081 -0.2506  1.2080
  145MOL0     C19455   2.969   9.944   8.326 -0.6426 -0.2051  0.4158
  145MOL0     C19456   2.912  10.000   8.191  0.4591 -0.2982  0.6792
  145MOL0     N19457   2.926   9.910   8.070 -0.5716  0.4960  0.8205
  145MOL0     C19458   2.833   9.824   8.010  0.7283 -0.4751 -0.5678
  145MOL0     C19459   2.892   9.761   7.910 -0.8651  0.0592  0.7014
  145MOL0     C19460   2.840   9.650   7.813  0.2734  0.4641 -0.5082
  145MOL0     C19461   2.690   9.655   7.801  0.6738  0.0076  0.6620
  145MOL0     C19462   2.633   9.527   7.734  0.3334 -0.4568  0.0481
  145MOL0     C19463   2.492   9.563   7.687  0.1365  0.1574 -0.6881
  145MOL0     O19464   2.408   9.606   7.802 -0.1122 -0.4699  0.1584
  145MOL0     C19465   2.279   9.617   7.767 -0.1480 -0.9825 -0.3926
  145MOL0     C19466   2.221   9.598   7.639 -0.0111  0.3211 -0.5658
  145MOL0     C19467   2.086   9.600   7.624 -0.5398  0.2975  1.0506
  145MOL0     C19468   1.996   9.632   7.729 -0.4147 -0.1410 -0.2370
  145MOL0     C19469   1.850   9.644   7.714 -0.4109  0.1521  0.7663
  145MOL0     O19470   1.793   9.560   7.619  0.6389 -0.3614 -0.5842
  145MOL0     C19471   1.656   9.559   7.624  0.4412 -0.2471  0.2375
  145MOL0     C19472   1.597   9.653   7.539 -0.7126 -0.4491  0.7803
  145MOL0     C19473   1.461   9.675   7.536 -0.8198 -0.0285  0.5410
  145MOL0     C19474   1.386   9.596   7.618  0.3194 -0.2805 -0.7888
  145MOL0     O19475   1.250   9.619   7.603 -0.8997 -0.5820 -0.0878
  145MOL0     C19476   1.182   9.497   7.563  0.3797 -0.3580 -0.2053
  145MOL0     C19477   1.072   9.530   7.461  0.1989 -1.1399  0.0085
  145MOL0     C19478   0.935   9.476   7.499  0.1109  0.9300  0.1653
  145MOL0     C19479   0.830   9.518   7.395  1.0333 -0.2278 -0.6837
  145MOL0     C19480   0.698   9.437   7.411  0.1988  0.0121 -0.0508
  145MOL0     C19481   0.602   9.477   7.303  0.2763  0.4000  0.9359
  145MOL0     C19482   0.467   9.401   7.339  0.6006  0.2635 -0.3917
  145MOL0     C19483   0.354   9.431   7.240 -1.1646  0.8153  0.4295
  145MOL0    Cl19484   0.191   9.436   7.309 -0.4559 -0.3280 -0.0255
  145MOL0     C19485   1.442   9.505   7.710  0.8615 -0.1070 -0.6793
  145MOL0     C19486   1.577   9.485   7.706 -0.5144 -0.1781  1.1248
  145MOL0     O19487   1.792   9.718   7.795  0.6479  0.7959  0.2784
  145MOL0     C19488   2.053   9.654   7.855  0.7590  0.1538 -0.4056
  145MOL0     C19489   2.189   9.638   7.874  0.0422 -0.4667  0.2495
  145MOL0     N19490   3.026   9.794   7.915  0.1381 -0.4911  0.0933
  145MOL0     N19491   3.042   9.894   8.000 -0.2327 -0.2630  0.4401
  145MOL0     C19492   2.098   9.881   8.536  0.1318  0.7653  0.3651
  145MOL0     C19493   1.962   9.907   8.550  0.3174 -0.4197  0.3092
  145MOL0     C19494   1.514   9.963   8.573  0.2490 -0.3392 -0.1675
  145MOL0     C19495   1.471   9.908   8.696 -0.5165 -0.8313 -0.1144
  145MOL0     C19496   1.337   9.919   8.722  0.0563  0.3777  0.1638
  145MOL0     C19497   1.243   9.986   8.647  0.1304  0.0920  0.8679
  145MOL0     O19498   1.110  10.007   8.684 -0.0350  0.4836  0.3643
  145MOL0     C19499   1.078   9.977   8.822 -0.5293 -0.0078  1.0043
  145MOL0     C19500   0.932  10.019   8.846 -0.0480  0.4870  0.1896
  145MOL0     C19501   0.885   9.967   8.975  0.3882  0.0396 -0.6753
  145MOL0     C19502   0.739   9.993   8.992 -0.0130 -0.6093 -0.1614
  145MOL0     C19503   0.703  10.141   9.012  1.1063  0.4596  0.5416
  145MOL0     C19504   0.699  10.262   9.009 -0.9682  0.1506 -0.6113
  145MOL0     C19505   1.289  10.047   8.527 -0.0409 -0.1091 -0.5501
  145MOL0     C19506   1.422  10.030   8.488  0.4073  0.5334  0.4147
  145MOL0     C19507   1.446  10.078   8.340 -1.3636 -0.8196 -0.5952
  145MOL0     H19508   1.821   9.605   8.514 -2.0240  1.5159  2.1609
  145MOL0     H19509   2.069   9.548   8.484  1.3674  0.8305  0.9494
  145MOL0     H19510   2.270   9.517   8.529  0.6940 -0.8547 -2.2215
  145MOL0     H19511   2.292   9.584   8.368 -0.7635 -1.8577 -0.0039
  145MOL0     H19512   2.520   9.505   8.491 -0.5217  0.7344  0.2749
  145MOL0     H19513   2.468   9.620   8.606 -1.7124  1.1729  0.6208
  145MOL0     H19514   2.495   9.796   8.407 -0.7685 -0.9570 -3.4983
  145MOL0     H19515   2.551   9.678   8.303 -0.3825  0.3618 -0.3574
  145MOL0     H19516   2.719   9.722   8.557  0.0932 -1.5852 -0.0333
  145MOL0     H19517   2.730   9.606   8.442 -1.0031  0.6861  1.8538
  145MOL0     H19518   2.742   9.814   8.270  0.4398  1.3336 -0.1142
  145MOL0     H19519   2.739   9.916   8.421 -1.2592  0.0770 -0.7901
  145MOL0     H19520   2.933   9.811   8.490 -0.6159 -2.0244  1.3249
  145MOL0     H19521   2.956   9.722   8.339  1.0137 -0.0988  1.8815
  145MOL0     H19522   3.071   9.916   8.297 -1.8079 -1.3898 -3.1801
  145MOL0     H19523   2.970  10.024   8.400  0.4711 -0.1124  0.3192
  145MOL0     H19524   2.805  10.017   8.208  0.0840 -2.2712  0.5041
  145MOL0     H19525   2.967  10.094   8.182 -0.7496  0.7434  3.2504
  145MOL0     H19526   2.735   9.799   8.051  0.6116  1.0347  0.1638
  145MOL0     H19527   2.880   9.664   7.713  0.4610 -1.2233 -0.6972
  145MOL0     H19528   2.881   9.553   7.843  0.5474  1.0733  1.2245
  145MOL0     H19529   2.633   9.653   7.894 -2.6818  3.0225 -1.1053
  145MOL0     H19530   2.664   9.744   7.742  0.4535 -0.1148  0.5730
  145MOL0     H19531   2.623   9.443   7.803  3.0429  0.6351  1.9259
  145MOL0     H19532   2.688   9.496   7.645 -0.2201  0.0417 -0.4829
  145MOL0     H19533   2.441   9.477   7.644 -2.2222  1.3775 -0.4597
  145MOL0     H19534   2.500   9.638   7.608  0.0322 -1.3324 -2.1712
  145MOL0     H19535   2.264   9.569   7.543 -1.7817  2.7122 -2.2129
  145MOL0     H19536   2.040   9.580   7.528 -4.6992 -0.2326  2.8994
  145MOL0     H19537   1.659   9.720   7.481 -0.3613  0.0282  1.6819
  145MOL0     H19538   1.405   9.744   7.474  1.9406 -0.1066 -2.2729
  145MOL0     H19539   1.253   9.423   7.526  0.3283 -0.5238  0.0267
  145MOL0     H19540   1.138   9.458   7.655  1.7712 -2.1164 -0.2489
  145MOL0     H19541   1.063   9.639   7.471  0.6906 -1.2884  3.4932
  145MOL0     H19542   1.095   9.488   7.363 -1.4469 -1.1429 -0.3922
  145MOL0     H19543   0.935   9.366   7.506  2.6410  0.6091 -2.9732
  145MOL0     H19544   0.901   9.514   7.596  1.7182  1.7181  0.4430
  145MOL0     H19545   0.875   9.494   7.298  3.1234  0.4722  0.0582
  145MOL0     H19546   0.811   9.626   7.395  1.7628 -0.0254  1.7852
  145MOL0     H19547   0.654   9.456   7.509 -0.0445 -1.5178  0.1574
  145MOL0     H19548   0.731   9.333   7.408  3.7043  1.0214 -1.1334
  145MOL0     H19549   0.577   9.583   7.300  1.2993  0.6219 -0.3069
  145MOL0     H19550   0.642   9.448   7.205  0.7403  1.3358  0.8395
  145MOL0     H19551   0.428   9.428   7.437 -0.4429 -2.6848  0.1091
  145MOL0     H19552   0.470   9.291   7.334  0.4968  0.2997 -2.8096
  145MOL0     H19553   0.374   9.533   7.205  0.2610  0.7314  0.9666
  145MOL0     H19554   0.366   9.359   7.158 -2.8150  0.9971 -0.0248
  145MOL0     H19555   1.379   9.448   7.778 -2.8274  3.9661 -0.2390
  145MOL0     H19556   1.623   9.404   7.762  0.2309  0.0091  0.7980
  145MOL0     H19557   1.992   9.657   7.945  1.2636 -0.6533 -0.0209
  145MOL0     H19558   2.242   9.639   7.969  1.3809 -1.1104 -0.4604
  145MOL0     H19559   2.170   9.958   8.561 -0.8289  1.0410  2.5226
  145MOL0     H19560   1.918   9.999   8.586  0.5909  0.1948 -0.8740
  145MOL0     H19561   1.544   9.845   8.744 -1.8160 -0.9260  1.8530
  145MOL0     H19562   1.303   9.861   8.807  1.9136  0.1213  0.7756
  145MOL0     H19563   1.136  10.031   8.897  1.2232 -1.0590  0.4398
  145MOL0     H19564   1.081   9.868   8.830  0.0225 -0.2813 -1.7408
  145MOL0     H19565   0.871   9.990   8.760 -0.1547 -0.0808  0.4547
  145MOL0     H19566   0.931  10.127   8.863 -1.2533  0.2260  2.0909
  145MOL0     H19567   0.943   9.993   9.064 -1.9212 -1.4791  1.4171
  145MOL0     H19568   0.894   9.858   8.971  1.2153  0.1212 -1.4342
  145MOL0     H19569   0.683   9.969   8.901  0.7922  1.0259 -1.1199
  145MOL0     H19570   0.689   9.930   9.066  0.9533 -2.9197 -1.3774
  145MOL0     H19571   0.712  10.368   9.004  0.9422 -0.0124  0.0889
  145MOL0     H19572   1.225  10.100   8.458  0.2554 -1.7115 -2.1376
  145MOL0     H19573   1.494  10.177   8.339  1.7566 -2.2075 -1.4510
  145MOL0     H19574   1.520  10.004   8.308  0.0274  0.3505 -0.2109
  145MOL0     H19575   1.357  10.085   8.277 -1.8732  0.4696  0.2189
  146MOL0     O19576   0.337   9.679   4.264  0.1503 -0.5895 -0.1924
  146MOL0     C19577   0.364   9.583   4.195  0.1839 -0.6199 -0.4558
  146MOL0     O19578   0.487   9.558   4.140 -0.2498  0.2159 -0.1009
  146MOL0     C19579   0.595   9.646   4.162  0.0904 -0.6608 -0.3288
  146MOL0     C19580   0.641   9.727   4.059 -0.2872  0.9854  0.0973
  146MOL0     C19581   0.755   9.809   4.063 -0.0923  0.3835 -1.1530
  146MOL0     C19582   0.826   9.816   4.193 -1.0131  0.3706  0.5702
  146MOL0     O19583   0.931   9.905   4.196 -0.1730 -0.0651 -0.1572
  146MOL0     C19584   0.982   9.936   4.328  0.4070 -0.3367  0.0108
  146MOL0     C19585   1.064  10.062   4.314  0.9389 -0.4032  0.5882
  146MOL0     C19586   1.191  10.042   4.228  0.2366  0.9811 -0.1818
  146MOL0     C19587   1.288  10.149   4.247  0.7661 -0.5074  0.0698
  146MOL0     C19588   1.437  10.104   4.248  0.2760 -0.3297 -0.0732
  146MOL0     C19589   1.519  10.236   4.259 -0.2519  0.1920  0.2314
  146MOL0     C19590   1.660  10.209   4.255  0.5618  0.1746 -0.3404
  146MOL0     C19591   1.719  10.123   4.367  0.0106 -0.4493  0.3967
  146MOL0     N19592   1.868  10.114   4.347  0.3667  0.3258 -0.0653
  146MOL0     C19593   1.973  10.147   4.426 -0.1045 -0.5189 -0.1607
  146MOL0     C19594   2.084  10.106   4.363 -0.0949  0.4237 -0.4206
  146MOL0     C19595   2.220  10.111   4.418 -0.0950 -0.5020  0.8999
  146MOL0     C19596   2.290  10.245   4.373  0.0170  0.1401 -0.2983
  146MOL0     C19597   2.321  10.254   4.218  0.3443 -0.1699 -0.1795
  146MOL0     C19598   2.464  10.246   4.191 -1.2145 -0.1620 -0.1070
  146MOL0     O19599   2.530  10.130   4.245 -0.2548 -0.1842  0.0168
  146MOL0     C19600   2.666  10.114   4.230 -0.3262 -0.6381 -0.1539
  146MOL0     C19601   2.705   9.980   4.218  0.3509 -0.4028 -0.4513
  146MOL0     C19602   2.840   9.953   4.191  0.3487 -0.2401 -0.3970
  146MOL0     C19603   2.940  10.058   4.194  0.5237 -0.0355  0.8621
  146MOL0     C19604   3.088  10.027   4.182 -0.3449 -0.0701 -0.4950
  146MOL0     O19605   3.170  10.137   4.182 -0.0011  0.2855  0.0212
  146MOL0     C19606   3.303  10.128   4.146  0.5669 -0.1946 -0.2192
  146MOL0     C19607   3.396  10.192   4.230 -0.3156  0.2118 -1.2682
  146MOL0     C19608   3.534  10.174   4.211  0.2745  0.1547  0.4157
  146MOL0     C19609   3.570  10.106   4.091 -0.5435  0.4225  0.8681
  146MOL0     O19610   3.709  10.093   4.081  1.0085  0.2492 -0.4225
  146MOL0     C19611   3.767   9.988   3.996  0.1506 -1.0174  0.6664
  146MOL0     C19612   3.908  10.028   3.953  0.1757 -0.1838 -0.0839
  146MOL0     C19613   3.908  10.159   3.878 -0.3182 -0.2317  0.4431
  146MOL0     C19614   4.047  10.203   3.835 -0.5421  0.2066  0.5332
  146MOL0     C19615   4.044  10.335   3.748 -0.6124 -0.0957  0.1131
  146MOL0     C19616   4.178  10.358   3.676  0.2490 -0.1544 -0.1769
  146MOL0     C19617   4.161  10.462   3.575  1.2127  0.6002 -0.2535
  146MOL0     C19618   4.288  10.535   3.531 -0.1595  0.0352  0.1872
  146MOL0    Cl19619   4.276  10.600   3.359  0.1579  0.0320  0.0136
  146MOL0     C19620   3.479  10.051   4.001  0.2133  0.2601 -0.5258
  146MOL0     C19621   3.340  10.064   4.032 -0.1405  0.0150  0.2650
  146MOL0     O19622   3.130   9.903   4.177 -0.5731 -0.9017  0.2479
  146MOL0     C19623   2.897  10.188   4.219  0.4478  0.0199 -0.0625
  146MOL0     C19624   2.760  10.217   4.227  0.6057  0.8152  0.3912
  146MOL0     N19625   2.043  10.053   4.244 -0.1874 -0.1665  0.4868
  146MOL0     N19626   1.914  10.061   4.223  0.1972  0.7115  0.3636
  146MOL0     C19627   0.772   9.741   4.298 -0.4398  0.1140 -0.4515
  146MOL0     C19628   0.665   9.650   4.282  1.1036 -0.2963 -0.1314
  146MOL0     C19629   0.263   9.475   4.163 -0.4118  0.8053  0.3464
  146MOL0     C19630   0.125   9.506   4.135 -0.5050  0.0767 -0.5014
  146MOL0     C19631   0.036   9.408   4.090 -0.1810  0.1603  0.1947
  146MOL0     C19632   0.071   9.272   4.097 -0.8291 -0.2006 -0.8900
  146MOL0     O19633  -0.029   9.183   4.073  0.8259 -0.0597  0.2409
  146MOL0     C19634  -0.012   9.035   4.106  0.5930 -0.6996  0.3341
  146MOL0     C19635  -0.143   8.961   4.061 -0.4402  0.0319 -0.5490
  146MOL0     C19636  -0.258   8.991   4.150  1.3757  0.4234 -0.5637
  146MOL0     C19637  -0.388   8.958   4.085  0.6146 -0.5065  0.0836
  146MOL0     C19638  -0.402   8.825   4.020  0.3093  0.8161 -0.1893
  146MOL0     C19639  -0.414   8.711   3.975  0.5677 -0.4314  0.0217
  146MOL0     C19640   0.204   9.240   4.136 -0.2957  0.2720 -0.2850
  146MOL0     C19641   0.301   9.336   4.169 -0.1571 -0.8920 -0.2969
  146MOL0     C19642   0.441   9.293   4.220 -0.5219  0.3025  0.3605
  146MOL0     H19643   0.587   9.715   3.966  0.3199 -0.4494 -0.0975
  146MOL0     H19644   0.795   9.864   3.978 -1.1182  1.5663 -0.8965
  146MOL0     H19645   0.896   9.960   4.392 -1.6614  0.6180 -2.9257
  146MOL0     H19646   1.045   9.854   4.363  1.3335  0.4619  0.2324
  146MOL0     H19647   1.082  10.097   4.416 -2.5764 -1.0133  1.5622
  146MOL0     H19648   1.010  10.145   4.267  0.9232 -1.9312 -2.3316
  146MOL0     H19649   1.170  10.033   4.121  1.4592  2.1945 -0.5432
  146MOL0     H19650   1.243   9.949   4.255 -0.3360  0.2452 -1.4995
  146MOL0     H19651   1.271  10.225   4.170  1.0764 -2.4268 -1.9962
  146MOL0     H19652   1.273  10.196   4.345  0.1044 -2.8536  1.1726
  146MOL0     H19653   1.463  10.038   4.331 -2.4809 -0.1715  1.0150
  146MOL0     H19654   1.455  10.050   4.154  1.2263 -1.4463  0.7226
  146MOL0     H19655   1.501  10.300   4.173  1.0686  0.3579  0.0582
  146MOL0     H19656   1.502  10.283   4.356  0.5800 -0.6959  0.8379
  146MOL0     H19657   1.712  10.304   4.267  0.5270 -0.0276  1.6778
  146MOL0     H19658   1.680  10.166   4.156 -1.4165 -1.6857 -0.0322
  146MOL0     H19659   1.686  10.164   4.463 -0.5711  0.0762 -0.0201
  146MOL0     H19660   1.668  10.026   4.366 -2.1737  0.6407  0.2909
  146MOL0     H19661   1.955  10.186   4.526  1.8152  0.0076  0.0230
  146MOL0     H19662   2.216  10.122   4.527  2.2664 -1.8437  1.1740
  146MOL0     H19663   2.281  10.027   4.384 -1.3161 -0.4664 -1.6351
  146MOL0     H19664   2.220  10.326   4.397  1.8559  1.8642 -0.4219
  146MOL0     H19665   2.383  10.264   4.428  0.5843  2.2403 -1.8417
  146MOL0     H19666   2.283  10.350   4.183 -1.0853  0.3952  2.6273
  146MOL0     H19667   2.261  10.175   4.172 -3.4332  1.1490  2.0613
  146MOL0     H19668   2.512  10.335   4.235  0.3001 -1.4681  0.9868
  146MOL0     H19669   2.486  10.253   4.084  1.3957  2.5763  0.4627
  146MOL0     H19670   2.637   9.896   4.220  1.1814 -1.3268 -3.7096
  146MOL0     H19671   2.872   9.849   4.178 -0.1591 -0.1709 -2.7505
  146MOL0     H19672   3.371  10.242   4.323 -2.0368 -0.2906 -1.4402
  146MOL0     H19673   3.607  10.227   4.270  0.0002 -1.4319  2.3076
  146MOL0     H19674   3.768   9.893   4.051 -0.1071 -1.0974  0.5371
  146MOL0     H19675   3.706   9.961   3.909  1.2060  2.7924 -1.4476
  146MOL0     H19676   3.978  10.036   4.037  1.6707  1.5995 -1.4090
  146MOL0     H19677   3.938   9.942   3.893 -2.6552 -1.8003  0.6298
  146MOL0     H19678   3.833  10.160   3.798 -0.2876  1.5352  0.4004
  146MOL0     H19679   3.880  10.240   3.946  0.5064  1.7774 -1.4968
  146MOL0     H19680   4.100  10.131   3.772 -2.0386 -0.9578  0.5427
  146MOL0     H19681   4.101  10.228   3.926  0.0794  0.0142  0.2211
  146MOL0     H19682   4.016  10.419   3.812  0.4717  0.1060  0.3349
  146MOL0     H19683   3.964  10.321   3.674  1.0927 -1.1938 -1.6143
  146MOL0     H19684   4.256  10.399   3.740  1.0952  0.9868 -1.8910
  146MOL0     H19685   4.195  10.259   3.633  0.8482 -0.4457  0.6987
  146MOL0     H19686   4.089  10.536   3.612 -0.6664 -1.6373  0.8094
  146MOL0     H19687   4.112  10.414   3.490 -0.9559 -0.4936  1.5074
  146MOL0     H19688   4.309  10.609   3.609 -0.5251 -3.0744  3.5035
  146MOL0     H19689   4.378  10.473   3.534  2.2172  3.0263 -2.4717
  146MOL0     H19690   3.502   9.994   3.912  2.1495 -3.0228  1.8547
  146MOL0     H19691   3.262  10.023   3.969  0.5230  1.0793 -1.2971
  146MOL0     H19692   2.971  10.268   4.214  1.1574 -0.6945 -1.9989
  146MOL0     H19693   2.714  10.315   4.235 -2.0971 -0.3497  0.1140
  146MOL0     H19694   0.823   9.729   4.393 -1.6788 -0.2083  0.1909
  146MOL0     H19695   0.636   9.587   4.365 -0.8641  1.3767  0.5427
  146MOL0     H19696   0.097   9.611   4.130  1.8104  0.8135  0.4654
  146MOL0     H19697  -0.069   9.430   4.073 -0.9174 -0.8441  3.0501
  146MOL0     H19698   0.003   9.028   4.214  1.8384 -0.6046  0.1816
  146MOL0     H19699   0.078   9.010   4.048  0.1572  0.1891 -0.7640
  146MOL0     H19700  -0.121   8.855   4.080 -2.0694 -0.3678 -0.7477
  146MOL0     H19701  -0.174   8.988   3.959  0.0362  3.8341  0.1694
  146MOL0     H19702  -0.267   9.096   4.178 -2.5093 -0.2373  1.4429
  146MOL0     H19703  -0.252   8.942   4.248 -1.9040  3.2276  1.2372
  146MOL0     H19704  -0.467   8.976   4.158 -0.1641 -0.4797 -0.7544
  146MOL0     H19705  -0.397   9.026   4.000 -0.8176 -1.2336 -0.3755
  146MOL0     H19706  -0.430   8.610   3.944  1.1731 -0.1819 -1.1500
  146MOL0     H19707   0.241   9.139   4.127 -1.1874  0.0052 -1.1183
  146MOL0     H19708   0.434   9.198   4.273 -0.8120 -1.1706 -2.1468
  146MOL0     H19709   0.512   9.285   4.137 -0.7392  2.0156 -0.0404
  146MOL0     H19710   0.478   9.371   4.286 -0.5400  0.9009 -0.3160
  147MOL0     O19711   1.807   1.356   0.208  0.2536 -0.1335  0.3445
  147MOL0     C19712   1.728   1.451   0.200 -0.1564  0.3016 -0.1637
  147MOL0     O19713   1.728   1.542   0.103  0.1854  0.0468  0.4136
  147MOL0     C19714   1.774   1.505  -0.022  0.2230  0.3279 -0.7382
  147MOL0     C19715   1.766   1.381  -0.075 -0.0885  1.8543  0.0206
  147MOL0     C19716   1.816   1.354  -0.196 -0.9766  0.4446 -0.0561
  147MOL0     C19717   1.892   1.449  -0.269 -0.1328  0.5667 -0.4130
  147MOL0     O19718   1.950   1.410  -0.385  0.2662 -0.0653 -0.4122
  147MOL0     C19719   2.026   1.288  -0.392  0.2222  0.6131 -0.9559
  147MOL0     C19720   2.065   1.269  -0.536 -0.3988  0.5702 -0.0052
  147MOL0     C19721   2.152   1.371  -0.605 -0.3168 -0.3749 -0.3362
  147MOL0     C19722   2.186   1.322  -0.744  0.2308  0.2243  0.4924
  147MOL0     C19723   2.252   1.427  -0.840  0.0171 -0.4127 -0.0240
  147MOL0     C19724   2.144   1.529  -0.888  0.7795  0.6019 -0.5571
  147MOL0     C19725   2.195   1.646  -0.969 -0.3247 -0.2233  0.4777
  147MOL0     C19726   2.081   1.737  -1.035  0.0688 -0.3183 -0.0853
  147MOL0     N19727   2.001   1.820  -0.940  0.0944  0.6780 -0.2465
  147MOL0     C19728   2.023   1.952  -0.898  0.1346 -0.3744 -0.0529
  147MOL0     C19729   1.909   2.001  -0.851  0.4902  0.5005  0.3689
  147MOL0     C19730   1.883   2.143  -0.826 -0.4843 -0.9117 -0.2057
  147MOL0     C19731   1.874   2.177  -0.678  0.6190 -0.0558 -0.8865
  147MOL0     C19732   1.748   2.127  -0.595  0.3184  0.0356  1.2885
  147MOL0     C19733   1.615   2.193  -0.659  0.0436  0.8239 -0.3474
  147MOL0     O19734   1.498   2.118  -0.605  0.6028  0.2276 -0.1039
  147MOL0     C19735   1.443   2.006  -0.668  0.4244 -0.4298  0.5741
  147MOL0     C19736   1.333   1.948  -0.613  0.6120 -0.2117  1.0917
  147MOL0     C19737   1.288   1.823  -0.665  0.3119  0.5605 -0.6309
  147MOL0     C19738   1.348   1.751  -0.766  1.1870 -0.2046 -0.0948
  147MOL0     C19739   1.283   1.626  -0.804 -0.8280  0.0459 -0.1314
  147MOL0     O19740   1.339   1.565  -0.912  0.4673  0.5380  0.1205
  147MOL0     C19741   1.290   1.441  -0.954  0.7821 -0.5377 -0.9240
  147MOL0     C19742   1.234   1.345  -0.871  0.0396 -0.6029  0.2378
  147MOL0     C19743   1.183   1.233  -0.930  0.2474  0.4734 -0.1111
  147MOL0     C19744   1.192   1.205  -1.066 -0.6483 -0.4017  0.0380
  147MOL0     O19745   1.150   1.079  -1.117 -0.4436  0.2692  0.0834
  147MOL0     C19746   1.092   1.069  -1.246 -0.2393 -0.8243  0.5448
  147MOL0     C19747   1.079   0.924  -1.299 -0.5527 -0.0207  0.0688
  147MOL0     C19748   1.216   0.857  -1.305 -0.5276  0.6056 -1.1101
  147MOL0     C19749   1.215   0.728  -1.387  0.3233 -0.4796  0.8895
  147MOL0     C19750   1.119   0.622  -1.333 -0.0095  0.6379 -0.5514
  147MOL0     C19751   1.159   0.579  -1.183  0.1814  0.8088  0.2278
  147MOL0     C19752   1.062   0.477  -1.128 -0.4381 -0.1495 -0.4853
  147MOL0     C19753   1.026   0.365  -1.223  0.3521 -0.0902 -0.7838
  147MOL0    Cl19754   1.159   0.259  -1.299  0.4816 -0.1468  0.3645
  147MOL0     C19755   1.243   1.310  -1.145 -0.2751  0.0260 -0.7275
  147MOL0     C19756   1.291   1.432  -1.090 -0.2062  0.9107 -0.5091
  147MOL0     O19757   1.196   1.581  -0.739  0.2932 -0.1661 -0.0486
  147MOL0     C19758   1.447   1.821  -0.833  0.4419  0.0674 -0.0165
  147MOL0     C19759   1.490   1.945  -0.785  0.0577 -0.2624  0.0416
  147MOL0     N19760   1.819   1.893  -0.852  0.5980  0.3405  0.2872
  147MOL0     N19761   1.877   1.793  -0.895  0.0237  0.2447 -0.0778
  147MOL0     C19762   1.908   1.567  -0.214  0.1666 -0.1308  0.1779
  147MOL0     C19763   1.846   1.605  -0.097  0.8379  0.2542  0.1996
  147MOL0     C19764   1.629   1.477   0.313 -0.4340  0.6288  0.3105
  147MOL0     C19765   1.544   1.587   0.287  0.0852  0.2382  0.1627
  147MOL0     C19766   1.449   1.619   0.375 -0.4848  0.1696 -0.3683
  147MOL0     C19767   1.434   1.561   0.501  0.9097 -0.2518 -0.2765
  147MOL0     O19768   1.325   1.599   0.579  0.0715  0.1606 -0.2582
  147MOL0     C19769   1.330   1.543   0.713  0.3310  1.0622 -0.2702
  147MOL0     C19770   1.224   1.591   0.811  1.0169  0.5280 -1.1681
  147MOL0     C19771   1.199   1.486   0.920  0.8862 -0.1870  0.0483
  147MOL0     C19772   1.122   1.539   1.036  0.1138 -0.3143 -0.2725
  147MOL0     C19773   1.095   1.446   1.145 -0.2016  0.0089  0.0789
  147MOL0     C19774   1.096   1.395   1.250 -0.2769 -0.7957  0.7406
  147MOL0     C19775   1.522   1.455   0.530 -0.4976 -0.2353  0.0205
  147MOL0     C19776   1.618   1.403   0.436  0.4424  0.6076 -0.8860
  147MOL0     C19777   1.700   1.271   0.461 -0.1373  0.3845  0.4086
  147MOL0     H19778   1.715   1.299  -0.026 -0.8477  1.2919 -1.6480
  147MOL0     H19779   1.808   1.257  -0.243  0.9184 -0.0270  0.5091
  147MOL0     H19780   2.120   1.304  -0.338  1.3716  0.1089 -2.7218
  147MOL0     H19781   1.969   1.203  -0.354  0.7560  0.4501 -0.5176
  147MOL0     H19782   1.978   1.238  -0.596 -1.2987 -1.2095  2.0758
  147MOL0     H19783   2.125   1.178  -0.535  0.2039  0.8789 -2.4946
  147MOL0     H19784   2.248   1.385  -0.554 -0.6086  1.3582 -0.1980
  147MOL0     H19785   2.118   1.475  -0.605  2.4041  0.5917 -0.3390
  147MOL0     H19786   2.254   1.238  -0.726 -0.7718 -0.3486  1.8024
  147MOL0     H19787   2.098   1.284  -0.796 -0.0704  0.6030  0.7202
  147MOL0     H19788   2.329   1.481  -0.784  1.1494 -0.0200 -1.8627
  147MOL0     H19789   2.306   1.376  -0.921  0.0121  0.8297 -0.8346
  147MOL0     H19790   2.070   1.473  -0.946  0.0097 -0.0566  1.0086
  147MOL0     H19791   2.076   1.557  -0.808  0.7140 -4.4873  1.5503
  147MOL0     H19792   2.268   1.609  -1.042 -2.9223 -1.6121 -1.6147
  147MOL0     H19793   2.247   1.712  -0.899  0.2258  1.0460 -1.0575
  147MOL0     H19794   2.132   1.793  -1.113 -2.7596  0.9230 -1.1862
  147MOL0     H19795   1.995   1.684  -1.079 -1.8280  1.9014  0.7405
  147MOL0     H19796   2.113   2.010  -0.916 -1.0953  0.9610 -2.3970
  147MOL0     H19797   1.965   2.197  -0.874 -2.4497 -1.5493 -4.8905
  147MOL0     H19798   1.792   2.169  -0.882  0.3366  0.2338 -1.0606
  147MOL0     H19799   1.963   2.136  -0.631  1.0048  0.1854 -1.3974
  147MOL0     H19800   1.878   2.286  -0.664 -1.6876 -0.1136  0.9173
  147MOL0     H19801   1.751   2.159  -0.491  1.2004  1.5738  0.8161
  147MOL0     H19802   1.752   2.017  -0.595  0.2517 -0.0101 -0.6957
  147MOL0     H19803   1.609   2.189  -0.768  1.9738  0.4733 -0.4715
  147MOL0     H19804   1.597   2.294  -0.622 -2.1942  0.4245 -0.1535
  147MOL0     H19805   1.291   2.002  -0.529  0.6073 -1.0018  1.6084
  147MOL0     H19806   1.201   1.777  -0.618 -0.0753  1.1469 -0.7566
  147MOL0     H19807   1.230   1.346  -0.762 -0.2660 -2.2242  0.2556
  147MOL0     H19808   1.136   1.164  -0.860 -0.1267  1.8861  1.0666
  147MOL0     H19809   0.990   1.107  -1.252 -0.0671 -0.4776 -0.3392
  147MOL0     H19810   1.148   1.125  -1.321 -1.2397  0.0309  0.4261
  147MOL0     H19811   0.998   0.874  -1.245 -0.5436  1.3719  1.4534
  147MOL0     H19812   1.047   0.922  -1.404 -0.6402  1.3215  0.0575
  147MOL0     H19813   1.292   0.924  -1.346  0.9570 -0.1279  0.3478
  147MOL0     H19814   1.248   0.817  -1.209 -1.2303  1.2810 -0.5769
  147MOL0     H19815   1.316   0.685  -1.381 -0.2143 -2.3808 -1.8965
  147MOL0     H19816   1.192   0.748  -1.492  0.6511  0.2037  0.9432
  147MOL0     H19817   1.127   0.533  -1.397  0.3547 -0.4724  0.9936
  147MOL0     H19818   1.015   0.653  -1.343 -0.2572 -0.3881 -1.2669
  147MOL0     H19819   1.258   0.533  -1.187 -0.0152  0.3806  0.2584
  147MOL0     H19820   1.150   0.667  -1.118 -3.6904 -0.9877  2.4606
  147MOL0     H19821   0.977   0.535  -1.094 -0.1322 -0.1898  0.3705
  147MOL0     H19822   1.113   0.427  -1.045  0.5983  0.5666 -0.6661
  147MOL0     H19823   0.961   0.302  -1.161  1.0956 -2.5767 -2.3703
  147MOL0     H19824   0.961   0.397  -1.306  2.1625  5.2405 -0.5381
  147MOL0     H19825   1.262   1.306  -1.252 -0.4277  4.0966 -1.0779
  147MOL0     H19826   1.319   1.517  -1.153  1.9536 -0.3382 -1.3467
  147MOL0     H19827   1.495   1.777  -0.920 -1.0989  0.5243 -1.1394
  147MOL0     H19828   1.585   1.974  -0.830  0.5795 -2.8356 -0.6831
  147MOL0     H19829   1.981   1.633  -0.261 -0.2183  1.2546  1.4532
  147MOL0     H19830   1.865   1.707  -0.065 -3.5411  2.9304 -4.3872
  147MOL0     H19831   1.545   1.647   0.196  0.1303 -0.9422 -0.6381
  147MOL0     H19832   1.375   1.697   0.364 -2.1054 -1.1013  0.9868
  147MOL0     H19833   1.431   1.555   0.754  0.9139  0.3142 -1.4084
  147MOL0     H19834   1.308   1.437   0.698  2.2913  0.6536 -0.5155
  147MOL0     H19835   1.133   1.617   0.758  0.5666  1.0585 -0.1637
  147MOL0     H19836   1.263   1.681   0.859  0.3166  1.7498 -2.8124
  147MOL0     H19837   1.293   1.443   0.954  0.5122 -1.3242 -0.2879
  147MOL0     H19838   1.138   1.401   0.886 -0.0386 -1.1232  3.5885
  147MOL0     H19839   1.175   1.627   1.075 -1.1547  0.8441 -1.0440
  147MOL0     H19840   1.026   1.571   0.995  0.3046 -1.2884 -1.5371
  147MOL0     H19841   1.113   1.352   1.347  4.0987 -1.2842 -0.0367
  147MOL0     H19842   1.513   1.397   0.622 -0.0968  0.8897  0.7945
  147MOL0     H19843   1.808   1.286   0.472 -0.0705 -1.0645  2.3931
  147MOL0     H19844   1.668   1.227   0.556 -0.6341 -1.9835 -0.7888
  147MOL0     H19845   1.687   1.191   0.388  2.2310 -1.7667  2.1601
  148MOL0     O19846   9.372   6.149   6.838 -0.5673  0.3464 -0.4209
  148MOL0     C19847   9.334   6.238   6.766 -0.6290 -0.1623  0.0627
  148MOL0     O19848   9.351   6.369   6.786  0.6379  0.4149  0.1090
  148MOL0     C19849   9.447   6.409   6.877  0.1186  1.4308  0.3479
  148MOL0     C19850   9.413   6.488   6.982  0.3921  0.5214  0.5512
  148MOL0     C19851   9.516   6.530   7.069  0.2611 -0.4702  0.7492
  148MOL0     C19852   9.653   6.495   7.062 -0.7295 -0.0075 -0.7490
  148MOL0     O19853   9.742   6.524   7.163  0.1619 -0.1789  0.2463
  148MOL0     C19854   9.861   6.578   7.102  0.4801 -0.4230 -0.2918
  148MOL0     C19855   9.945   6.644   7.208  0.2783 -0.2759 -0.4194
  148MOL0     C19856   9.976   6.576   7.338 -0.1402  0.5901 -0.5740
  148MOL0     C19857  10.098   6.634   7.397  0.0624  0.0168 -0.2744
  148MOL0     C19858  10.117   6.594   7.543 -0.6010 -0.4298  0.0001
  148MOL0     C19859  10.211   6.677   7.632  1.0972  0.3041  0.0142
  148MOL0     C19860  10.216   6.619   7.772 -0.5909 -0.5330  0.4586
  148MOL0     C19861  10.291   6.717   7.869 -0.0817  0.0567 -0.0962
  148MOL0     N19862  10.438   6.688   7.874  0.4545 -0.8088 -0.0291
  148MOL0     C19863  10.472   6.561   7.916 -0.2545 -0.0621 -0.4225
  148MOL0     C19864  10.609   6.570   7.920  0.3503  0.4452 -0.1125
  148MOL0     C19865  10.695   6.452   7.945  0.6062 -0.7929 -0.2352
  148MOL0     C19866  10.840   6.465   7.898 -0.1160 -0.4731 -0.0493
  148MOL0     C19867  10.901   6.328   7.882  0.3116 -0.1637  0.8113
  148MOL0     C19868  11.035   6.328   7.796  0.3824 -0.2181 -0.2862
  148MOL0     O19869  11.128   6.411   7.863  0.7835 -1.2810 -0.6083
  148MOL0     C19870  11.216   6.370   7.956 -0.7887 -0.1291  0.0783
  148MOL0     C19871  11.328   6.453   7.971 -0.4055  0.2218  0.0253
  148MOL0     C19872  11.425   6.414   8.062 -0.1460 -0.3444 -0.3787
  148MOL0     C19873  11.419   6.303   8.148 -0.0540  0.6689  0.4940
  148MOL0     C19874  11.518   6.284   8.254  0.0690  0.3571  0.5344
  148MOL0     O19875  11.643   6.344   8.239 -0.1956  0.2006  0.3756
  148MOL0     C19876  11.750   6.312   8.324 -0.3800 -0.1085 -0.0924
  148MOL0     C19877  11.872   6.255   8.266  0.5935  0.4902  0.1981
  148MOL0     C19878  11.978   6.238   8.340 -0.0917  0.6502 -0.1655
  148MOL0     C19879  11.978   6.271   8.475  0.1703  0.2886  0.1766
  148MOL0     O19880  12.091   6.256   8.536  0.1246  0.4533  0.0404
  148MOL0     C19881  12.083   6.181   8.663  0.3988 -0.4052 -0.6190
  148MOL0     C19882  12.198   6.220   8.764 -0.4271  0.9220  0.1626
  148MOL0     C19883  12.326   6.158   8.717  0.8190  0.3808  0.2917
  148MOL0     C19884  12.437   6.188   8.810 -0.2887 -0.1988 -1.1161
  148MOL0     C19885  12.560   6.107   8.755  0.2840  0.3866 -0.3508
  148MOL0     C19886  12.672   6.091   8.858  0.2227 -0.0059 -0.4811
  148MOL0     C19887  12.803   6.017   8.807  0.3502 -0.2575  1.0757
  148MOL0     C19888  12.921   6.023   8.900 -0.8008 -0.6175  0.6739
  148MOL0    Cl19889  12.893   5.950   9.065 -0.3036  0.0871 -0.0878
  148MOL0     C19890  11.854   6.306   8.544  0.5568  0.6228  0.8677
  148MOL0     C19891  11.738   6.324   8.464  0.1183  0.2147  0.6758
  148MOL0     O19892  11.494   6.214   8.349  0.3466 -0.0173 -1.4759
  148MOL0     C19893  11.302   6.224   8.134 -0.5881 -0.3666 -0.1636
  148MOL0     C19894  11.205   6.254   8.033  0.4305 -0.6973 -0.1177
  148MOL0     N19895  10.648   6.694   7.875  0.1988 -0.1444 -0.3713
  148MOL0     N19896  10.546   6.760   7.832 -0.6219 -0.2458  0.5352
  148MOL0     C19897   9.681   6.416   6.949  0.0634 -0.1187  0.4796
  148MOL0     C19898   9.583   6.384   6.860  0.3026  0.0593 -0.5759
  148MOL0     C19899   9.255   6.206   6.644 -0.2915 -0.0175 -0.2389
  148MOL0     C19900   9.221   6.307   6.558  0.4786 -0.8523 -0.3918
  148MOL0     C19901   9.149   6.283   6.439  0.6251 -0.6354  0.0100
  148MOL0     C19902   9.104   6.154   6.415  0.2071 -0.8520 -0.6311
  148MOL0     O19903   9.046   6.128   6.293  0.3729 -0.0405 -0.5498
  148MOL0     C19904   8.937   6.037   6.298 -0.1406  0.0735  0.0589
  148MOL0     C19905   8.812   6.094   6.361 -0.3111  0.0012 -0.0850
  148MOL0     C19906   8.741   6.200   6.280 -0.6328  0.1448  0.5716
  148MOL0     C19907   8.694   6.154   6.142 -0.3907  0.3440  0.6560
  148MOL0     C19908   8.606   6.037   6.164 -0.4612  0.0876 -0.1046
  148MOL0     C19909   8.545   5.938   6.188 -1.3827 -0.6899  0.1040
  148MOL0     C19910   9.130   6.057   6.502  1.0442 -0.2681  0.1217
  148MOL0     C19911   9.203   6.073   6.621  0.6977 -0.3435  0.0412
  148MOL0     C19912   9.229   5.948   6.707  0.2523 -0.1653 -0.0305
  148MOL0     H19913   9.311   6.519   6.999 -1.3531 -4.0359 -0.0635
  148MOL0     H19914   9.489   6.598   7.149  3.7179  1.0656  0.8027
  148MOL0     H19915   9.915   6.491   7.063 -1.0570 -1.2372 -0.7144
  148MOL0     H19916   9.844   6.650   7.021  0.0132 -2.5396 -2.1751
  148MOL0     H19917   9.893   6.739   7.222  1.0265  0.3096 -1.4558
  148MOL0     H19918  10.043   6.675   7.170  0.1719  1.8914  0.9033
  148MOL0     H19919   9.980   6.467   7.326 -2.5792  0.4288 -0.3809
  148MOL0     H19920   9.886   6.593   7.397  0.1557  2.9421 -0.7105
  148MOL0     H19921  10.192   6.613   7.345 -0.2380 -0.3602 -0.6802
  148MOL0     H19922  10.089   6.743   7.396 -0.4642  0.0362 -2.8922
  148MOL0     H19923  10.021   6.604   7.594  0.5584  0.4755  2.1069
  148MOL0     H19924  10.135   6.486   7.552  2.4635  0.0832  1.0946
  148MOL0     H19925  10.306   6.667   7.580  0.9474 -2.3598  0.1321
  148MOL0     H19926  10.167   6.776   7.617 -2.4540 -1.4677 -3.3739
  148MOL0     H19927  10.264   6.521   7.767 -0.4160 -0.4374  0.2482
  148MOL0     H19928  10.116   6.610   7.815 -0.2260 -1.5818  1.1358
  148MOL0     H19929  10.267   6.820   7.843 -0.7243  0.1072  0.6585
  148MOL0     H19930  10.259   6.698   7.972  1.0134  0.4727  0.3385
  148MOL0     H19931  10.403   6.482   7.946  0.5552 -0.0446  1.6093
  148MOL0     H19932  10.699   6.436   8.053  0.9280 -0.2676 -0.1639
  148MOL0     H19933  10.649   6.361   7.908  2.9113 -1.9141 -0.5162
  148MOL0     H19934  10.859   6.514   7.802  1.9216  2.7022  1.7649
  148MOL0     H19935  10.898   6.515   7.977 -0.0716 -1.9871  0.9142
  148MOL0     H19936  10.823   6.278   7.824 -1.3042 -2.2112  4.4155
  148MOL0     H19937  10.912   6.280   7.979  2.5891  0.6018  0.9770
  148MOL0     H19938  11.023   6.369   7.695  4.1263 -0.1205 -0.8446
  148MOL0     H19939  11.074   6.225   7.791 -2.1618 -1.2727  0.0278
  148MOL0     H19940  11.340   6.549   7.922 -1.7512  1.7408  2.4521
  148MOL0     H19941  11.517   6.472   8.064  0.2920 -1.0332 -0.2533
  148MOL0     H19942  11.883   6.225   8.162  3.2672 -0.9468  0.8088
  148MOL0     H19943  12.073   6.209   8.297  0.6822  0.7178  1.4212
  148MOL0     H19944  11.992   6.194   8.723  0.1302 -1.8578 -0.6551
  148MOL0     H19945  12.085   6.073   8.642  0.4986 -0.8755  1.5984
  148MOL0     H19946  12.210   6.328   8.762 -1.4897  1.0500  0.5322
  148MOL0     H19947  12.178   6.189   8.867  1.5385 -1.5685 -0.0835
  148MOL0     H19948  12.303   6.051   8.710  1.1783  0.3517 -0.5931
  148MOL0     H19949  12.338   6.195   8.615  0.4596 -4.6280 -1.8870
  148MOL0     H19950  12.408   6.151   8.909  1.4205 -0.5406 -0.7223
  148MOL0     H19951  12.461   6.294   8.820 -3.0994  0.4788 -0.7691
  148MOL0     H19952  12.592   6.145   8.658 -0.6668  3.1540  0.3315
  148MOL0     H19953  12.531   6.002   8.746 -1.7711  0.8241  0.5984
  148MOL0     H19954  12.696   6.184   8.910  0.2903  0.2260 -0.9236
  148MOL0     H19955  12.628   6.027   8.935  0.2054  0.2603 -0.2662
  148MOL0     H19956  12.825   6.064   8.711 -5.7534  1.1541 -0.0468
  148MOL0     H19957  12.785   5.910   8.790  2.0407 -0.9747  3.2827
  148MOL0     H19958  13.006   5.974   8.851 -1.6056 -1.2766 -0.0983
  148MOL0     H19959  12.957   6.126   8.904  1.9087 -1.3898 -1.0947
  148MOL0     H19960  11.845   6.321   8.651 -1.8867  0.9833  0.6527
  148MOL0     H19961  11.644   6.354   8.508 -0.0748  1.8330 -0.7544
  148MOL0     H19962  11.272   6.145   8.202 -2.8159 -1.9648 -2.8334
  148MOL0     H19963  11.121   6.186   8.026  1.6191 -2.3090  0.5515
  148MOL0     H19964   9.782   6.387   6.922 -0.0634  0.7031 -0.9645
  148MOL0     H19965   9.617   6.332   6.771 -4.9111 -2.1526 -1.7048
  148MOL0     H19966   9.264   6.407   6.564 -0.1561 -0.6645  2.0866
  148MOL0     H19967   9.137   6.369   6.373  1.1627 -0.8420 -0.3583
  148MOL0     H19968   8.954   5.944   6.353 -1.1206  0.4575  1.0367
  148MOL0     H19969   8.923   6.012   6.192 -0.5169  1.6618 -0.2979
  148MOL0     H19970   8.827   6.137   6.460 -3.5653 -1.6822  1.2881
  148MOL0     H19971   8.745   6.009   6.379  2.2606 -1.5168  3.3212
  148MOL0     H19972   8.799   6.293   6.273 -0.2890  0.0672  2.0038
  148MOL0     H19973   8.646   6.235   6.321 -0.7423  3.2238 -1.8783
  148MOL0     H19974   8.642   6.240   6.098 -0.2466 -1.5111 -3.6739
  148MOL0     H19975   8.773   6.127   6.071 -2.1532 -2.3717 -0.4806
  148MOL0     H19976   8.498   5.849   6.221 -1.1335 -1.2191 -0.9125
  148MOL0     H19977   9.103   5.953   6.489 -0.0519 -0.0055  0.1311
  148MOL0     H19978   9.338   5.949   6.718  0.2917 -0.6841 -0.3630
  148MOL0     H19979   9.183   5.950   6.807  1.4304  1.9807  0.5320
  148MOL0     H19980   9.204   5.856   6.653 -1.0682  2.0420 -3.5599
  149MOL0     O19981  10.941  10.377  10.542 -0.0539  0.1057  0.5167
  149MOL0     C19982  10.910  10.488  10.505  0.3171  0.2518 -0.8302
  149MOL0     O19983  10.975  10.603  10.541 -0.4814 -0.1045  0.1457
  149MOL0     C19984  11.093  10.593  10.606  0.1361  0.1968 -1.4269
  149MOL0     C19985  11.116  10.637  10.740 -0.9165 -0.3873  0.6769
  149MOL0     C19986  11.241  10.620  10.802 -0.1091 -0.3890  0.3937
  149MOL0     C19987  11.348  10.564  10.740 -0.4714  1.1177 -0.0294
  149MOL0     O19988  11.477  10.563  10.794 -0.2979  0.4070 -0.6591
  149MOL0     C19989  11.597  10.506  10.728 -0.0050 -0.3075 -0.2221
  149MOL0     C19990  11.715  10.500  10.824 -0.3747 -0.3446 -0.3083
  149MOL0     C19991  11.838  10.450  10.741 -0.6468  0.1460 -0.7805
  149MOL0     C19992  11.953  10.386  10.821  0.4258  0.4409  0.3124
  149MOL0     C19993  12.075  10.337  10.730  0.4627 -0.7292  1.1927
  149MOL0     C19994  12.187  10.269  10.807 -0.2432  0.1431  0.0874
  149MOL0     C19995  12.309  10.227  10.723  0.0469 -0.3235 -0.0961
  149MOL0     C19996  12.394  10.124  10.800  0.0499  1.1996  1.2281
  149MOL0     N19997  12.545  10.125  10.772 -0.0696 -0.1646  0.2459
  149MOL0     C19998  12.631  10.223  10.810  0.7550 -0.3198 -0.3908
  149MOL0     C19999  12.745  10.210  10.732 -0.6796 -0.2970 -0.9718
  149MOL0     C20000  12.878  10.284  10.757  0.1837  0.2064 -0.0455
  149MOL0     C20001  12.962  10.221  10.868  0.2087  0.5084  0.1829
  149MOL0     C20002  13.101  10.284  10.891  0.2508 -0.3005 -0.1534
  149MOL0     C20003  13.199  10.249  10.771  0.2341 -0.7124  0.1881
  149MOL0     O20004  13.324  10.317  10.787  0.6791  0.0456  0.2376
  149MOL0     C20005  13.433  10.252  10.855  0.0990 -0.1111  0.7519
  149MOL0     C20006  13.426  10.121  10.910  0.0903  0.5358  0.7392
  149MOL0     C20007  13.537  10.086  10.987 -0.6746 -0.2221 -0.0417
  149MOL0     C20008  13.650  10.160  11.016 -0.7222 -0.2026  0.3609
  149MOL0     C20009  13.758  10.113  11.100 -0.7368  0.3871  0.5745
  149MOL0     O20010  13.879  10.179  11.085 -0.0925  0.2649  0.0559
  149MOL0     C20011  13.975  10.165  11.181  0.3016  0.0110 -0.6638
  149MOL0     C20012  13.951  10.147  11.315 -1.3345  0.2444 -0.7119
  149MOL0     C20013  14.067  10.149  11.400 -0.1393 -0.3153  0.2996
  149MOL0     C20014  14.197  10.166  11.353  0.4064 -0.9727 -0.2444
  149MOL0     O20015  14.301  10.150  11.446 -0.1215 -0.5968  0.0683
  149MOL0     C20016  14.362  10.269  11.506 -0.4079 -0.8311  1.0433
  149MOL0     C20017  14.449  10.351  11.410 -0.2797 -0.7735  0.2065
  149MOL0     C20018  14.582  10.289  11.392  0.7565 -0.0490 -1.0229
  149MOL0     C20019  14.673  10.370  11.295 -0.4819  0.0268 -0.6718
  149MOL0     C20020  14.824  10.348  11.314  0.2867 -0.4568 -0.3672
  149MOL0     C20021  14.900  10.371  11.183 -1.1070  0.2925  1.2944
  149MOL0     C20022  14.897  10.258  11.071  0.6451  0.9210 -1.8602
  149MOL0     C20023  14.986  10.279  10.957 -0.5701 -0.0324  0.1328
  149MOL0    Cl20024  15.151  10.228  11.021  0.2292  0.2398  0.0872
  149MOL0     C20025  14.214  10.181  11.215 -0.1459 -0.2609 -0.8660
  149MOL0     C20026  14.101  10.190  11.134 -0.7909 -0.4070 -0.4237
  149MOL0     O20027  13.737  10.025  11.179  0.4455  0.0427  0.9667
  149MOL0     C20028  13.656  10.292  10.951 -0.2466 -0.1959 -0.7425
  149MOL0     C20029  13.544  10.333  10.873  0.3605 -0.3101 -0.2952
  149MOL0     N20030  12.720  10.094  10.653 -0.3998  0.2644 -0.6000
  149MOL0     N20031  12.605  10.045  10.691 -0.2138 -0.6369 -0.0073
  149MOL0     C20032  11.322  10.511  10.615  0.5973  0.6094  0.0619
  149MOL0     C20033  11.205  10.520  10.548  0.0122 -0.3174  0.7398
  149MOL0     C20034  10.792  10.515  10.418 -0.4564 -0.5672 -0.3801
  149MOL0     C20035  10.742  10.644  10.413 -0.1930 -0.6752 -0.4276
  149MOL0     C20036  10.615  10.673  10.360 -0.0790 -0.1721 -0.0835
  149MOL0     C20037  10.540  10.571  10.303  1.0234 -0.0413 -0.6723
  149MOL0     O20038  10.425  10.607  10.235 -0.0679 -0.3281 -0.1768
  149MOL0     C20039  10.310  10.548  10.294 -0.5803  0.2766 -0.7030
  149MOL0     C20040  10.243  10.452  10.195  0.2455  0.3667  0.3245
  149MOL0     C20041  10.157  10.529  10.091  0.5594  0.2879 -0.4072
  149MOL0     C20042  10.131  10.447   9.965 -0.6590 -0.0035  0.4148
  149MOL0     C20043  10.036  10.341   9.995  0.3709 -0.6631  0.1858
  149MOL0     C20044   9.956  10.263  10.024  0.5664  0.6496 -0.3201
  149MOL0     C20045  10.592  10.438  10.299  0.3429  0.5390 -0.3868
  149MOL0     C20046  10.720  10.406  10.353 -0.1589  0.3325  0.2082
  149MOL0     C20047  10.755  10.260  10.353  0.6354  0.7697 -0.0519
  149MOL0     H20048  11.039  10.689  10.795 -2.0935  1.3973 -2.4446
  149MOL0     H20049  11.264  10.675  10.893  0.2413  0.4471 -0.1807
  149MOL0     H20050  11.578  10.401  10.703 -1.4660 -0.9759  3.1645
  149MOL0     H20051  11.625  10.565  10.640 -2.0165 -0.5608 -1.0855
  149MOL0     H20052  11.695  10.429  10.905 -1.5963  1.1558  0.7564
  149MOL0     H20053  11.733  10.596  10.873 -3.8229 -0.1217  0.7870
  149MOL0     H20054  11.877  10.539  10.691  2.6508 -0.5025  0.3668
  149MOL0     H20055  11.805  10.381  10.663 -2.8170 -0.4165  0.5326
  149MOL0     H20056  11.996  10.457  10.892 -1.8781  1.5070  0.7381
  149MOL0     H20057  11.924  10.304  10.887 -0.4644  0.6001  0.1399
  149MOL0     H20058  12.042  10.276  10.645  0.7882  0.0740  0.4759
  149MOL0     H20059  12.106  10.429  10.680 -3.0619 -0.2896 -0.5314
  149MOL0     H20060  12.231  10.325  10.890  2.7284  0.1050 -1.3149
  149MOL0     H20061  12.140  10.176  10.839 -2.3234  1.3382  0.7345
  149MOL0     H20062  12.363  10.323  10.720 -2.1452  1.1548  2.8154
  149MOL0     H20063  12.281  10.208  10.619 -0.1031  1.3861 -0.3980
  149MOL0     H20064  12.380  10.127  10.909  0.2416  2.3400  1.2335
  149MOL0     H20065  12.366  10.025  10.764  2.0152  1.3243 -0.8480
  149MOL0     H20066  12.602  10.292  10.888 -2.0017 -1.8834  0.0784
  149MOL0     H20067  12.938  10.305  10.668  0.6124 -1.2617 -0.1259
  149MOL0     H20068  12.839  10.381  10.791  0.8377  0.3843  0.2063
  149MOL0     H20069  12.912  10.221  10.966  1.0691  0.2850  0.6348
  149MOL0     H20070  12.971  10.117  10.833  0.7104  0.5481  0.1871
  149MOL0     H20071  13.136  10.257  10.991  1.5391  2.7251  0.3163
  149MOL0     H20072  13.086  10.392  10.896 -2.5488 -0.6773  0.9652
  149MOL0     H20073  13.163  10.290  10.676  2.2705  1.3596  0.2086
  149MOL0     H20074  13.215  10.142  10.755  0.8077 -0.5001 -0.7885
  149MOL0     H20075  13.344  10.052  10.892 -0.6477  1.0723  1.9209
  149MOL0     H20076  13.551   9.989  11.034  1.1425 -0.8715 -1.7381
  149MOL0     H20077  13.856  10.139  11.366 -0.4913  0.1252  0.9170
  149MOL0     H20078  14.045  10.133  11.505  0.2019 -0.4515  0.3501
  149MOL0     H20079  14.286  10.333  11.552 -1.4449 -1.2453 -0.0405
  149MOL0     H20080  14.433  10.236  11.583  0.2005  1.2978  1.4554
  149MOL0     H20081  14.391  10.360  11.318  2.8566  1.1867 -1.7702
  149MOL0     H20082  14.478  10.448  11.452  1.5889 -1.7020  1.1723
  149MOL0     H20083  14.624  10.284  11.493  0.2089  4.9700 -0.3028
  149MOL0     H20084  14.568  10.185  11.363  1.0817 -0.4999  0.3767
  149MOL0     H20085  14.666  10.479  11.305  1.0710  0.5175 -3.7274
  149MOL0     H20086  14.637  10.339  11.197 -0.4589 -2.8739  0.1694
  149MOL0     H20087  14.840  10.244  11.343 -1.5228 -0.5414  0.4752
  149MOL0     H20088  14.858  10.415  11.393 -2.7281  0.9216 -0.1031
  149MOL0     H20089  14.867  10.466  11.141  1.0351  0.4858 -0.0853
  149MOL0     H20090  15.000  10.403  11.213 -0.8976  0.2915  0.6128
  149MOL0     H20091  14.796  10.248  11.030  0.4942  2.0595 -1.8048
  149MOL0     H20092  14.934  10.168  11.121 -0.1850  1.7316  0.3548
  149MOL0     H20093  14.953  10.218  10.872 -1.4319  0.4659  0.0903
  149MOL0     H20094  14.982  10.384  10.926  2.4738  0.3198  0.6356
  149MOL0     H20095  14.315  10.197  11.180  0.2614 -0.6546  0.0981
  149MOL0     H20096  14.116  10.189  11.026  0.5370 -2.2839 -0.2668
  149MOL0     H20097  13.735  10.364  10.974 -1.6443  1.0169  0.4424
  149MOL0     H20098  13.551  10.433  10.831  1.1245  0.3601  1.3436
  149MOL0     H20099  11.409  10.472  10.563 -0.3624  0.7887 -1.7706
  149MOL0     H20100  11.192  10.480  10.448 -2.4524  3.5378 -0.7489
  149MOL0     H20101  10.772  10.734  10.465 -0.1029 -1.8666  1.6684
  149MOL0     H20102  10.573  10.773  10.354  2.2614  1.0471  1.9981
  149MOL0     H20103  10.228  10.618  10.314 -1.2152  0.0586 -2.4029
  149MOL0     H20104  10.342  10.505  10.390  1.8378 -0.3109 -1.7138
  149MOL0     H20105  10.182  10.385  10.256 -2.5323  1.7991 -0.7389
  149MOL0     H20106  10.318  10.389  10.147  0.2759  0.6052  0.0551
  149MOL0     H20107  10.204  10.621  10.055 -3.9305  1.3966 -4.5755
  149MOL0     H20108  10.060  10.543  10.140  0.3028 -1.6888 -0.2876
  149MOL0     H20109  10.107  10.515   9.883  2.3063  0.3492 -0.2567
  149MOL0     H20110  10.226  10.406   9.928 -0.4987  0.9014 -0.1852
  149MOL0     H20111   9.880  10.192  10.046  3.4521 -3.0067 -1.2246
  149MOL0     H20112  10.534  10.363  10.247 -1.9043 -0.5687  3.3591
  149MOL0     H20113  10.681  10.207  10.291  0.5366  1.3817 -0.4693
  149MOL0     H20114  10.854  10.240  10.311  1.1116  0.1987  1.3161
  149MOL0     H20115  10.759  10.213  10.451  1.1777  0.8174 -0.0486
  150MOL0     O20116   0.456   2.609  10.075 -0.2678 -0.0937 -0.1693
  150MOL0     C20117   0.381   2.614   9.976  0.9732 -0.4030  0.4517
  150MOL0     O20118   0.413   2.651   9.847  0.1836 -0.1038 -0.1663
  150MOL0     C20119   0.522   2.736   9.824 -0.9082  0.1702  0.7635
  150MOL0     C20120   0.588   2.713   9.705 -0.3859  0.2910  0.2508
  150MOL0     C20121   0.702   2.776   9.673 -0.3865 -0.6914 -0.1906
  150MOL0     C20122   0.761   2.878   9.753 -0.9194 -0.7590 -0.7107
  150MOL0     O20123   0.871   2.954   9.728 -0.2681 -0.3296  0.6602
  150MOL0     C20124   0.957   2.914   9.625 -0.3859  0.0853  0.7217
  150MOL0     C20125   1.064   3.026   9.615 -0.0715  0.4231  0.1025
  150MOL0     C20126   1.131   3.018   9.478  0.2862  0.2569  0.0923
  150MOL0     C20127   1.233   2.900   9.466 -0.2044 -0.9179 -0.3631
  150MOL0     C20128   1.330   2.920   9.357  0.7067  0.3933  0.3759
  150MOL0     C20129   1.440   2.812   9.363  0.2235 -0.1674  0.3099
  150MOL0     C20130   1.542   2.832   9.474 -0.2077 -0.2640  0.1091
  150MOL0     C20131   1.657   2.728   9.483 -0.3538 -0.7772 -0.1721
  150MOL0     N20132   1.748   2.741   9.605 -0.0005  0.6615 -0.3988
  150MOL0     C20133   1.857   2.824   9.612  1.0393 -0.8435 -0.0567
  150MOL0     C20134   1.889   2.811   9.743 -0.4055 -0.0531 -0.0042
  150MOL0     C20135   2.000   2.901   9.797 -0.2121  0.2670  1.1343
  150MOL0     C20136   2.140   2.852   9.775 -0.4052 -0.4208 -0.0270
  150MOL0     C20137   2.260   2.936   9.817 -0.0684  0.3683  0.1418
  150MOL0     C20138   2.374   2.912   9.723 -0.0606 -0.4338  0.4070
  150MOL0     O20139   2.459   3.021   9.745  0.4368 -0.0631  0.2230
  150MOL0     C20140   2.569   3.043   9.660 -0.3560  0.8109 -1.0351
  150MOL0     C20141   2.600   2.960   9.555  0.0430  0.4201 -0.1197
  150MOL0     C20142   2.715   2.985   9.477  0.3127 -0.8681  0.2763
  150MOL0     C20143   2.814   3.076   9.511 -0.5629 -0.0221  0.4431
  150MOL0     C20144   2.933   3.103   9.429 -0.0409  0.0053  0.0170
  150MOL0     O20145   2.941   3.034   9.308 -0.7985 -0.4622  0.0329
  150MOL0     C20146   3.051   3.039   9.229 -0.1813 -0.2805 -0.1081
  150MOL0     C20147   3.108   3.160   9.193  0.4518 -1.0403  0.2224
  150MOL0     C20148   3.225   3.159   9.121  0.0742  0.7291  1.1995
  150MOL0     C20149   3.288   3.037   9.081  0.0109  0.0007 -0.1151
  150MOL0     O20150   3.410   3.031   9.018 -0.3905 -0.2975  0.0495
  150MOL0     C20151   3.513   3.033   9.118 -0.2929  0.4566  0.2427
  150MOL0     C20152   3.652   2.997   9.048  0.1866  0.5901  0.1751
  150MOL0     C20153   3.765   3.033   9.135 -0.0633  0.5502  0.3335
  150MOL0     C20154   3.889   3.016   9.044  0.0426  0.2041 -0.4635
  150MOL0     C20155   4.003   3.102   9.076 -0.5291 -0.4309  0.0613
  150MOL0     C20156   4.058   3.083   9.215 -0.5819 -0.3390 -0.2232
  150MOL0     C20157   4.098   3.215   9.276 -0.7005 -0.9802  0.1870
  150MOL0     C20158   4.168   3.211   9.402  0.0549 -0.2900  0.3255
  150MOL0    Cl20159   4.250   3.378   9.436 -0.0500  0.8796 -0.4972
  150MOL0     C20160   3.228   2.924   9.115 -0.7555 -0.0103  0.1593
  150MOL0     C20161   3.109   2.920   9.185 -0.4198 -0.1430  0.4386
  150MOL0     O20162   3.020   3.176   9.477 -0.0497  0.0822 -0.8677
  150MOL0     C20163   2.791   3.138   9.634  0.1235 -0.4962 -0.4719
  150MOL0     C20164   2.670   3.130   9.705  0.3608 -0.2952 -1.1120
  150MOL0     N20165   1.807   2.719   9.809 -0.7694  0.9334  0.4466
  150MOL0     N20166   1.723   2.679   9.725 -0.1178 -0.0289 -0.5243
  150MOL0     C20167   0.700   2.896   9.871  0.1162  0.1965 -0.5401
  150MOL0     C20168   0.584   2.814   9.912 -0.5289 -0.6797  0.3656
  150MOL0     C20169   0.251   2.548   9.985  0.3209  0.2225 -0.3879
  150MOL0     C20170   0.142   2.635  10.017 -0.6865  0.4918  0.1971
  150MOL0     C20171   0.017   2.589  10.014  1.0089 -0.3624  0.3153
  150MOL0     C20172  -0.013   2.450   9.995  0.8989 -0.6485 -0.0811
  150MOL0     O20173  -0.145   2.395   9.995  0.0652  0.3115 -0.0257
  150MOL0     C20174  -0.260   2.471   9.968 -0.2645 -0.3735  0.3292
  150MOL0     C20175  -0.372   2.367   9.972  0.5441 -0.3451 -0.2759
  150MOL0     C20176  -0.506   2.438   9.923  0.0048 -0.4891 -0.4957
  150MOL0     C20177  -0.624   2.351   9.942 -0.7209  0.4574  0.4246
  150MOL0     C20178  -0.657   2.321  10.090  0.8197  0.0001 -0.3528
  150MOL0     C20179  -0.680   2.308  10.205  0.3214  0.0895 -0.1077
  150MOL0     C20180   0.094   2.362   9.966 -0.3874  0.8352  0.0145
  150MOL0     C20181   0.223   2.413   9.958  0.0135 -0.1672 -0.1475
  150MOL0     C20182   0.343   2.329   9.927  1.1596 -0.4398 -0.2859
  150MOL0     H20183   0.549   2.637   9.638 -1.2253  2.2778 -1.6082
  150MOL0     H20184   0.745   2.753   9.576  1.4431  0.7164  0.2253
  150MOL0     H20185   1.005   2.821   9.654 -0.6717 -0.8651 -1.6105
  150MOL0     H20186   0.910   2.909   9.526  1.0286 -2.5251  0.1051
  150MOL0     H20187   1.142   3.023   9.691 -0.4096 -0.5029  0.4276
  150MOL0     H20188   1.008   3.120   9.623  0.0120  0.7215 -2.0646
  150MOL0     H20189   1.192   3.104   9.450 -1.0550  1.8064  1.7532
  150MOL0     H20190   1.060   3.004   9.396 -0.3996 -0.0346  0.7300
  150MOL0     H20191   1.277   2.894   9.566  0.0204 -0.7294 -0.4475
  150MOL0     H20192   1.185   2.802   9.463 -2.5266  0.0859  1.0912
  150MOL0     H20193   1.274   2.926   9.264 -0.4436 -1.3197  0.9078
  150MOL0     H20194   1.383   3.016   9.363  1.0968  0.4675 -2.6596
  150MOL0     H20195   1.399   2.711   9.374  0.7764 -0.4045  0.2217
  150MOL0     H20196   1.493   2.810   9.267 -1.8476 -3.3926 -0.9209
  150MOL0     H20197   1.487   2.826   9.568  3.5440 -3.2929  2.3856
  150MOL0     H20198   1.590   2.931   9.476  0.1189 -0.4083 -0.3067
  150MOL0     H20199   1.621   2.624   9.481  3.4877 -2.3299  1.7707
  150MOL0     H20200   1.728   2.724   9.399  0.6411  3.2378  0.2581
  150MOL0     H20201   1.897   2.886   9.533  0.3805 -0.8729 -0.4246
  150MOL0     H20202   1.995   2.996   9.744 -1.1249 -1.4375 -2.1543
  150MOL0     H20203   1.984   2.918   9.904  0.4674  2.5440  0.9120
  150MOL0     H20204   2.158   2.758   9.828  2.9902 -0.6787 -1.4327
  150MOL0     H20205   2.147   2.841   9.667  1.6306 -1.5838  0.1840
  150MOL0     H20206   2.295   2.916   9.919 -1.1212 -2.2496  0.0667
  150MOL0     H20207   2.230   3.041   9.804 -0.6052  0.4955  2.1162
  150MOL0     H20208   2.335   2.911   9.621 -0.8473  2.7182  0.5560
  150MOL0     H20209   2.437   2.826   9.748  0.8652  0.3538  0.8806
  150MOL0     H20210   2.539   2.876   9.525 -2.1068  1.7799  0.2484
  150MOL0     H20211   2.742   2.915   9.399 -0.3763  1.1733 -1.8923
  150MOL0     H20212   3.059   3.254   9.216  0.9719 -1.0195  1.2734
  150MOL0     H20213   3.274   3.247   9.082  2.1000 -2.0396 -3.4203
  150MOL0     H20214   3.508   3.130   9.168 -1.8779 -0.3298  1.7312
  150MOL0     H20215   3.489   2.957   9.194  2.1659 -1.2312 -0.5486
  150MOL0     H20216   3.658   2.891   9.021 -2.3661  0.8120 -1.7547
  150MOL0     H20217   3.656   3.057   8.957  1.7068 -0.0149 -0.1766
  150MOL0     H20218   3.761   3.129   9.189  0.9442 -0.8455  3.0852
  150MOL0     H20219   3.754   2.968   9.223 -3.3514  1.6039  0.8534
  150MOL0     H20220   3.861   3.025   8.938  0.2009 -3.4358 -0.9255
  150MOL0     H20221   3.915   2.910   9.048 -2.4290 -0.4081  2.6251
  150MOL0     H20222   3.963   3.202   9.059 -1.6085 -0.9499 -0.5100
  150MOL0     H20223   4.092   3.092   9.013 -0.3121 -1.3282  0.4920
  150MOL0     H20224   3.993   3.021   9.278 -2.1422  2.7557  1.4730
  150MOL0     H20225   4.146   3.019   9.208  0.5056  0.8173  1.7901
  150MOL0     H20226   4.013   3.281   9.293  0.0568  0.3259 -0.9071
  150MOL0     H20227   4.170   3.249   9.202 -1.2804  1.9070  0.8293
  150MOL0     H20228   4.104   3.182   9.486  1.4476  0.4616  1.7043
  150MOL0     H20229   4.249   3.140   9.387 -0.9406 -0.7812 -3.9381
  150MOL0     H20230   3.289   2.838   9.089 -1.9242 -1.3555  1.6447
  150MOL0     H20231   3.075   2.820   9.205  1.6798 -0.8419  0.7419
  150MOL0     H20232   2.874   3.183   9.688 -0.3284 -0.3103  0.0801
  150MOL0     H20233   2.666   3.194   9.793  0.5964 -0.3683 -1.0457
  150MOL0     H20234   0.736   2.980   9.930 -4.8170  0.7081  2.3170
  150MOL0     H20235   0.550   2.835  10.013  0.8420  1.5960  0.4412
  150MOL0     H20236   0.162   2.733  10.058  0.0298  0.3271  0.2525
  150MOL0     H20237  -0.065   2.655  10.040 -0.3936 -1.5039 -0.9598
  150MOL0     H20238  -0.247   2.507   9.865  0.4379 -0.2868  0.4446
  150MOL0     H20239  -0.283   2.562  10.024  0.1056  0.9511 -1.5540
  150MOL0     H20240  -0.379   2.345  10.079 -3.1124 -3.4605 -0.9506
  150MOL0     H20241  -0.356   2.275   9.916  2.7298  0.0903 -0.4362
  150MOL0     H20242  -0.482   2.474   9.822  0.8067  2.3017  0.5819
  150MOL0     H20243  -0.528   2.534   9.972  0.0276  0.2915 -1.9487
  150MOL0     H20244  -0.701   2.416   9.899  0.8660  1.7477 -0.5903
  150MOL0     H20245  -0.613   2.258   9.885 -0.5341  0.8238 -0.1435
  150MOL0     H20246  -0.702   2.296  10.309  1.9175 -1.3941  0.1102
  150MOL0     H20247   0.070   2.257   9.951  1.2934  0.1814  1.5716
  150MOL0     H20248   0.429   2.380   9.882  0.6382  0.1610 -0.6107
  150MOL0     H20249   0.368   2.284  10.024  0.3999 -1.9634 -0.7837
  150MOL0     H20250   0.313   2.252   9.856 -0.3644  0.1864 -0.3714
  151MOL0     O20251   4.486  10.793   2.985 -0.4889  0.5655  0.7032
  151MOL0     C20252   4.435  10.824   2.872  0.0205  0.4748 -0.6078
  151MOL0     O20253   4.512  10.858   2.762  0.8036 -0.3664  0.3134
  151MOL0     C20254   4.641  10.824   2.758 -0.0104 -0.3903  0.7146
  151MOL0     C20255   4.680  10.737   2.657 -0.0943  0.3000  0.1759
  151MOL0     C20256   4.814  10.715   2.636  0.1821  0.3802  1.2928
  151MOL0     C20257   4.904  10.770   2.725 -0.2350  0.2899  0.8123
  151MOL0     O20258   5.040  10.746   2.722  0.2082 -1.3304  0.4318
  151MOL0     C20259   5.113  10.674   2.621  0.4475 -0.8621  0.5831
  151MOL0     C20260   5.112  10.768   2.489  0.3918  1.4220 -1.3333
  151MOL0     C20261   5.217  10.713   2.386 -0.2715 -0.1215  0.4807
  151MOL0     C20262   5.193  10.804   2.258 -0.0994 -0.4222  0.8149
  151MOL0     C20263   5.308  10.788   2.156 -0.9708  0.0965  0.5608
  151MOL0     C20264   5.433  10.849   2.217  0.4055 -0.7245  0.5842
  151MOL0     C20265   5.432  10.992   2.267  0.2874  0.6316  0.8795
  151MOL0     C20266   5.371  11.096   2.162  0.7999  0.2378 -0.5819
  151MOL0     N20267   5.441  11.089   2.031  0.7454  0.1540 -0.7753
  151MOL0     C20268   5.574  11.120   2.007  0.2463  0.1979 -0.2844
  151MOL0     C20269   5.581  11.143   1.872  0.3022  0.3998 -0.9808
  151MOL0     C20270   5.694  11.191   1.796 -0.7024 -0.1247  0.0822
  151MOL0     C20271   5.819  11.110   1.824  0.2851 -0.2310  0.6418
  151MOL0     C20272   5.942  11.183   1.762  0.7735 -0.0577  0.4256
  151MOL0     C20273   6.064  11.083   1.770 -0.4592  0.6428  0.1837
  151MOL0     O20274   6.179  11.149   1.717  0.4152 -0.0863  0.2750
  151MOL0     C20275   6.306  11.095   1.739  0.2274  0.9146 -0.0004
  151MOL0     C20276   6.335  10.963   1.769 -0.2515  0.3977 -0.3832
  151MOL0     C20277   6.459  10.914   1.795  0.4744  0.7273  0.4009
  151MOL0     C20278   6.568  11.003   1.798 -0.6384 -0.4729 -0.9671
  151MOL0     C20279   6.703  10.957   1.824  0.0675  0.0582 -0.6933
  151MOL0     O20280   6.716  10.826   1.852  0.7893  0.2116  0.1584
  151MOL0     C20281   6.831  10.768   1.903  0.3704  0.8166  0.4191
  151MOL0     C20282   6.861  10.628   1.885 -0.1960  0.0759 -0.2548
  151MOL0     C20283   6.973  10.562   1.937  0.2033  0.3534  0.1319
  151MOL0     C20284   7.066  10.634   2.003  0.9714 -0.1833  0.0208
  151MOL0     O20285   7.182  10.578   2.056  0.4529 -0.2956  0.1242
  151MOL0     C20286   7.238  10.461   2.006  0.0685  0.5733  0.5622
  151MOL0     C20287   7.382  10.452   2.065 -0.1860 -0.3181 -0.2310
  151MOL0     C20288   7.374  10.394   2.212  0.4107 -0.4285 -0.7046
  151MOL0     C20289   7.497  10.425   2.292  0.2168  0.2696  0.4820
  151MOL0     C20290   7.506  10.346   2.422  0.3200  0.2605 -0.3663
  151MOL0     C20291   7.638  10.390   2.503 -0.0912  0.6670 -0.0631
  151MOL0     C20292   7.657  10.284   2.615  0.2016  0.4560  0.0066
  151MOL0     C20293   7.780  10.327   2.696 -0.9981  0.7203  0.2494
  151MOL0    Cl20294   7.938  10.317   2.625 -0.0912 -0.1546  0.6291
  151MOL0     C20295   7.055  10.776   2.013  0.5733 -0.1192  0.3802
  151MOL0     C20296   6.936  10.835   1.968  0.3039 -0.6041  0.5900
  151MOL0     O20297   6.786  11.048   1.833  0.2185  0.5186 -0.3948
  151MOL0     C20298   6.541  11.139   1.779 -1.3106  0.7367  1.1485
  151MOL0     C20299   6.414  11.184   1.746 -0.7504 -0.7972  0.6826
  151MOL0     N20300   5.458  11.112   1.818 -0.1957  0.0698 -0.1080
  151MOL0     N20301   5.374  11.085   1.916 -0.4516 -0.6873 -0.2483
  151MOL0     C20302   4.865  10.869   2.812  0.7989 -0.0920  0.0232
  151MOL0     C20303   4.732  10.898   2.836  1.0033 -0.3575  0.1159
  151MOL0     C20304   4.284  10.821   2.851 -0.4480 -1.0995 -0.8257
  151MOL0     C20305   4.232  10.807   2.719 -0.7937  0.4554 -0.4309
  151MOL0     C20306   4.093  10.782   2.704 -0.1485  0.4495  1.1342
  151MOL0     C20307   4.001  10.792   2.817  0.3586 -0.0125  0.6209
  151MOL0     O20308   3.867  10.759   2.788 -0.2774 -0.3151 -0.0971
  151MOL0     C20309   3.799  10.847   2.703 -0.4085 -0.4545 -0.5201
  151MOL0     C20310   3.684  10.919   2.774  0.0234 -0.6899  0.1704
  151MOL0     C20311   3.575  10.817   2.809  0.1014 -0.0698  0.3769
  151MOL0     C20312   3.509  10.839   2.950  0.3321 -0.0305  0.3791
  151MOL0     C20313   3.391  10.762   2.958 -0.0971  0.1520 -0.2101
  151MOL0     C20314   3.298  10.692   2.948  1.0390  0.3239  0.5248
  151MOL0     C20315   4.049  10.807   2.939 -0.9260 -0.4067  0.0778
  151MOL0     C20316   4.189  10.821   2.958  0.7282  0.4235  0.2893
  151MOL0     C20317   4.230  10.816   3.099 -0.8534  0.0532 -0.2060
  151MOL0     H20318   4.603  10.689   2.598  1.7479 -0.0281 -2.0949
  151MOL0     H20319   4.844  10.650   2.555 -1.1770  1.9114 -0.5323
  151MOL0     H20320   5.219  10.665   2.645  0.1471  0.1622  2.4944
  151MOL0     H20321   5.084  10.569   2.609 -0.8531 -0.3354 -1.5403
  151MOL0     H20322   5.130  10.873   2.516  3.6875  0.4989  0.7119
  151MOL0     H20323   5.016  10.743   2.444  1.1756 -3.3566 -0.8647
  151MOL0     H20324   5.197  10.607   2.368  0.9211 -0.0441 -1.6769
  151MOL0     H20325   5.319  10.727   2.423  0.4875 -0.5689 -1.3342
  151MOL0     H20326   5.103  10.787   2.198  1.1163  1.3277 -1.6846
  151MOL0     H20327   5.174  10.907   2.288  0.4111  0.2047 -0.8892
  151MOL0     H20328   5.320  10.680   2.145  1.4875  0.4121 -0.3340
  151MOL0     H20329   5.275  10.834   2.062 -1.8918 -0.6043  0.5241
  151MOL0     H20330   5.467  10.795   2.306  1.5702  1.4839  1.5792
  151MOL0     H20331   5.515  10.841   2.145  0.9982 -0.3429  1.2085
  151MOL0     H20332   5.535  11.015   2.296  1.5487  0.8032 -3.1099
  151MOL0     H20333   5.388  11.009   2.366 -0.9466 -0.5356  0.5609
  151MOL0     H20334   5.263  11.082   2.152  0.6283  0.4840  0.8424
  151MOL0     H20335   5.388  11.197   2.198 -0.2087  1.3592 -3.0212
  151MOL0     H20336   5.645  11.120   2.089 -2.3463 -1.4095  2.1539
  151MOL0     H20337   5.668  11.184   1.690  1.3254 -4.9633 -0.3519
  151MOL0     H20338   5.719  11.297   1.812 -0.1749 -0.0072 -1.4032
  151MOL0     H20339   5.832  11.084   1.929 -3.1923 -1.0707  0.9941
  151MOL0     H20340   5.803  11.014   1.773 -1.7089  1.0792 -1.4082
  151MOL0     H20341   5.974  11.267   1.824  2.3192 -0.6889  0.5350
  151MOL0     H20342   5.917  11.207   1.658  1.1513 -1.8730 -0.1223
  151MOL0     H20343   6.033  10.996   1.712  1.7883 -0.4675  0.5346
  151MOL0     H20344   6.077  11.063   1.877  0.9383  0.2743 -0.0353
  151MOL0     H20345   6.257  10.887   1.768 -0.3688  0.4748 -2.4258
  151MOL0     H20346   6.467  10.808   1.814 -0.8365 -0.0630 -2.8432
  151MOL0     H20347   6.788  10.571   1.828  0.6519 -1.5567  0.2263
  151MOL0     H20348   6.974  10.459   1.904  1.6934  1.0784 -2.3383
  151MOL0     H20349   7.168  10.380   2.031 -0.7388  0.6721 -1.1778
  151MOL0     H20350   7.245  10.462   1.897  1.0336 -1.2790  0.5720
  151MOL0     H20351   7.436  10.390   1.993  0.0382 -0.5520  0.1334
  151MOL0     H20352   7.436  10.547   2.072 -1.0551  0.2902 -1.4585
  151MOL0     H20353   7.284  10.415   2.270  0.8467 -0.1964 -0.1073
  151MOL0     H20354   7.376  10.286   2.197 -0.0006 -0.6580  0.7334
  151MOL0     H20355   7.494  10.531   2.319  0.8072 -0.3897  3.4398
  151MOL0     H20356   7.582  10.398   2.229 -0.2641 -3.2874  1.1198
  151MOL0     H20357   7.505  10.238   2.404 -0.3255  0.1400  0.3614
  151MOL0     H20358   7.424  10.364   2.492 -0.3009 -1.1218 -0.7068
  151MOL0     H20359   7.727  10.379   2.441 -1.1860 -2.2191 -1.3228
  151MOL0     H20360   7.630  10.492   2.540 -0.7245  0.4374  0.4525
  151MOL0     H20361   7.668  10.178   2.594  0.1141  0.3820  0.3230
  151MOL0     H20362   7.569  10.293   2.680 -1.6289 -1.0478 -2.0880
  151MOL0     H20363   7.772  10.434   2.719 -0.4609  0.5893  1.1182
  151MOL0     H20364   7.784  10.271   2.790  0.3930 -2.2374 -1.4461
  151MOL0     H20365   7.138  10.839   2.046 -1.8509  3.6967 -0.1462
  151MOL0     H20366   6.928  10.940   1.995 -1.2318 -0.7960  0.9514
  151MOL0     H20367   6.620  11.214   1.782 -0.4059 -0.2339  2.2756
  151MOL0     H20368   6.398  11.289   1.727 -1.6661 -0.9732  0.4566
  151MOL0     H20369   4.948  10.916   2.864  4.1844 -3.9285 -1.3662
  151MOL0     H20370   4.698  10.976   2.904  0.2603  1.1915 -1.9281
  151MOL0     H20371   4.298  10.794   2.634 -1.7233  0.4761 -1.1756
  151MOL0     H20372   4.054  10.760   2.606  2.4375 -1.5862  0.4663
  151MOL0     H20373   3.758  10.795   2.616  0.1096 -1.2148 -0.3253
  151MOL0     H20374   3.867  10.926   2.669  0.5251 -0.4036  1.3522
  151MOL0     H20375   3.648  10.998   2.707  1.0594 -1.3826 -1.2702
  151MOL0     H20376   3.725  10.965   2.864 -1.1644 -0.0991  0.4284
  151MOL0     H20377   3.607  10.714   2.794  1.6360  0.2389  1.4025
  151MOL0     H20378   3.502  10.844   2.732  0.0503  0.2509  0.5361
  151MOL0     H20379   3.577  10.808   3.031  0.1723  2.5030  1.5876
  151MOL0     H20380   3.486  10.945   2.966  2.4693  0.6015 -0.3318
  151MOL0     H20381   3.210  10.632   2.942  2.0508 -1.3220  1.5116
  151MOL0     H20382   3.982  10.799   3.023 -0.4479 -0.9091  0.4159
  151MOL0     H20383   4.307  10.888   3.128 -2.6187  1.6754  0.7137
  151MOL0     H20384   4.152  10.825   3.175 -1.2477 -1.6232 -0.3606
  151MOL0     H20385   4.268  10.716   3.120  0.3789  0.8865  1.7911
  152MOL0     O20386  10.510  10.882   4.924  0.4152  0.1455  0.3069
  152MOL0     C20387  10.489  10.831   5.032 -0.2213 -0.8625 -0.1612
  152MOL0     O20388  10.572  10.852   5.150  0.2238  0.2379  0.3586
  152MOL0     C20389  10.698  10.907   5.150  0.7801  0.1566  0.4752
  152MOL0     C20390  10.799  10.868   5.236 -0.1052 -0.0136 -0.7676
  152MOL0     C20391  10.919  10.941   5.247  0.4017  0.3843  0.2687
  152MOL0     C20392  10.936  11.057   5.174 -0.6429  0.2688 -0.2068
  152MOL0     O20393  11.054  11.117   5.188 -0.2282  0.0105  0.4343
  152MOL0     C20394  11.087  11.228   5.107 -0.5383  0.6798  0.9412
  152MOL0     C20395  11.210  11.270   5.167  0.1646 -0.5233 -1.1362
  152MOL0     C20396  11.243  11.418   5.129  0.1195 -0.3620 -0.6149
  152MOL0     C20397  11.402  11.412   5.109 -0.2536  1.3444 -0.0972
  152MOL0     C20398  11.454  11.556   5.097 -0.2764  0.5459  0.2989
  152MOL0     C20399  11.600  11.564   5.039 -0.6873 -0.2261  0.0317
  152MOL0     C20400  11.643  11.710   5.044 -0.1185  0.5981  0.1132
  152MOL0     C20401  11.783  11.736   4.981  0.5181  0.1639  0.7922
  152MOL0     N20402  11.886  11.691   5.070 -0.1832  0.4375  0.1382
  152MOL0     C20403  11.986  11.615   5.017 -0.7338 -0.5519  0.6160
  152MOL0     C20404  12.088  11.626   5.106  0.4419 -0.2945 -0.6411
  152MOL0     C20405  12.220  11.570   5.080 -0.4843  0.1584 -0.2531
  152MOL0     C20406  12.329  11.676   5.106  0.5516 -0.7567 -0.5056
  152MOL0     C20407  12.320  11.821   5.036 -0.3037  0.7530  1.2146
  152MOL0     C20408  12.435  11.907   5.078 -0.3648  0.0663 -0.1903
  152MOL0     O20409  12.435  11.934   5.216  0.0553 -1.0220  0.2581
  152MOL0     C20410  12.558  11.968   5.267  0.1151  0.2845 -1.3274
  152MOL0     C20411  12.677  12.001   5.189  1.0611 -0.2882 -0.6817
  152MOL0     C20412  12.795  12.032   5.252 -0.2640  0.7254  0.3855
  152MOL0     C20413  12.820  12.017   5.388  0.4614 -0.2944 -0.6677
  152MOL0     C20414  12.955  12.036   5.454 -0.7138  0.1190  0.1785
  152MOL0     O20415  13.044  12.120   5.390 -0.0834 -0.1577  0.1916
  152MOL0     C20416  13.171  12.121   5.451 -0.0323  0.1890  0.8230
  152MOL0     C20417  13.263  12.017   5.438  0.5091 -0.1008  0.2930
  152MOL0     C20418  13.388  12.028   5.488  0.5678  0.1729  0.4994
  152MOL0     C20419  13.432  12.138   5.562  0.0370 -0.5477 -0.8343
  152MOL0     O20420  13.557  12.158   5.621 -0.0291 -1.1397 -0.1120
  152MOL0     C20421  13.667  12.073   5.583  0.5860 -1.1398  0.5578
  152MOL0     C20422  13.788  12.089   5.668 -0.6277  0.6737 -0.1359
  152MOL0     C20423  13.897  11.989   5.624  0.2334  0.6426  0.7223
  152MOL0     C20424  14.026  12.005   5.699 -0.4337 -0.5463 -0.3218
  152MOL0     C20425  14.143  11.923   5.639  0.0948 -0.3945  0.1789
  152MOL0     C20426  14.279  11.955   5.709  0.4573  0.7135  1.1479
  152MOL0     C20427  14.396  11.867   5.653  0.3374  0.5762  0.3277
  152MOL0     C20428  14.526  11.902   5.713 -1.0794  0.0294  0.8852
  152MOL0    Cl20429  14.641  11.786   5.647 -0.0771 -0.1204 -0.0105
  152MOL0     C20430  13.343  12.242   5.578 -0.5928 -0.3247  0.4481
  152MOL0     C20431  13.212  12.233   5.520 -0.5623 -0.2370  0.0986
  152MOL0     O20432  12.989  11.952   5.543  0.0107 -0.6041  0.0630
  152MOL0     C20433  12.708  11.965   5.460 -0.1748  0.0215  0.0210
  152MOL0     C20434  12.582  11.948   5.404  0.0227  0.0847  0.2575
  152MOL0     N20435  12.034  11.700   5.214  0.1686 -0.4647  0.5572
  152MOL0     N20436  11.923  11.746   5.184 -0.3988 -0.2816 -0.4180
  152MOL0     C20437  10.834  11.092   5.084  0.4943 -0.8452  0.8464
  152MOL0     C20438  10.711  11.018   5.076  0.1272  0.0209  0.6292
  152MOL0     C20439  10.378  10.728   5.056 -0.0912 -0.3960 -0.4988
  152MOL0     C20440  10.362  10.668   5.183 -0.1472  0.6231 -0.0858
  152MOL0     C20441  10.254  10.583   5.213 -1.0404  0.3898  0.9606
  152MOL0     C20442  10.158  10.557   5.115 -0.1226 -0.1585 -0.1217
  152MOL0     O20443  10.052  10.471   5.122  0.2262  0.5264  0.3118
  152MOL0     C20444  10.009  10.436   5.252 -0.1049 -0.2244 -0.0623
  152MOL0     C20445   9.881  10.361   5.246 -0.0205  1.2494  0.1066
  152MOL0     C20446   9.761  10.435   5.172  0.2920 -0.0622 -0.6653
  152MOL0     C20447   9.644  10.338   5.143 -0.4606 -0.9077 -0.4057
  152MOL0     C20448   9.578  10.296   5.268  0.4395 -0.4385  0.4126
  152MOL0     C20449   9.549  10.251   5.384 -0.7074 -0.9418 -0.1404
  152MOL0     C20450  10.181  10.614   4.990  0.5871 -0.6469  0.2159
  152MOL0     C20451  10.282  10.703   4.953 -0.1788 -0.9601  0.1074
  152MOL0     C20452  10.272  10.761   4.812  0.5339  0.5626  0.8058
  152MOL0     H20453  10.780  10.781   5.298  1.9405 -1.6254 -2.2533
  152MOL0     H20454  11.008  10.900   5.295  1.5515  0.5220 -1.6764
  152MOL0     H20455  11.108  11.201   5.003 -0.1752  0.9061  0.9549
  152MOL0     H20456  11.022  11.316   5.106  0.6437  1.5847  1.4682
  152MOL0     H20457  11.291  11.206   5.132 -0.1622 -2.2228  0.9927
  152MOL0     H20458  11.223  11.259   5.276  2.9842 -0.6434 -1.4100
  152MOL0     H20459  11.219  11.482   5.214 -0.3012 -2.1698  0.6779
  152MOL0     H20460  11.196  11.450   5.036  1.0391 -0.6626 -1.2006
  152MOL0     H20461  11.446  11.353   5.190 -1.8694 -1.4438 -1.1446
  152MOL0     H20462  11.431  11.345   5.029  0.0003  1.0919  0.2029
  152MOL0     H20463  11.397  11.623   5.031  0.7383  0.7113 -0.4349
  152MOL0     H20464  11.451  11.608   5.193 -2.5922  0.0291  0.5612
  152MOL0     H20465  11.666  11.511   5.108 -0.1376  1.4859  0.8828
  152MOL0     H20466  11.612  11.526   4.937  2.4000 -0.7329  0.4765
  152MOL0     H20467  11.645  11.739   5.150  0.6031 -0.2052  0.3361
  152MOL0     H20468  11.565  11.774   5.003 -0.9715 -0.3277  0.2492
  152MOL0     H20469  11.800  11.673   4.893  2.0513 -2.5588  2.8874
  152MOL0     H20470  11.821  11.837   4.961  3.9806 -0.9137  1.2723
  152MOL0     H20471  11.991  11.566   4.920  3.2208  0.0369  0.3561
  152MOL0     H20472  12.234  11.481   5.142 -1.8263  0.1675  0.0913
  152MOL0     H20473  12.223  11.553   4.972 -0.8507  0.2393 -0.2743
  152MOL0     H20474  12.321  11.693   5.214  0.5270 -1.5439 -0.3803
  152MOL0     H20475  12.422  11.625   5.081  0.6750 -1.3290  0.9745
  152MOL0     H20476  12.226  11.874   5.055 -1.0934  0.3870 -1.2750
  152MOL0     H20477  12.317  11.815   4.927  0.0187 -0.6816  1.2541
  152MOL0     H20478  12.425  11.991   5.008 -0.6224 -0.1864 -0.4627
  152MOL0     H20479  12.524  11.850   5.052  0.1650  1.8000 -2.5382
  152MOL0     H20480  12.674  12.006   5.081  2.1286  0.4233 -0.6889
  152MOL0     H20481  12.878  12.057   5.187 -0.1820  0.0968  0.2367
  152MOL0     H20482  13.246  11.931   5.374  4.6610  0.6321 -2.1266
  152MOL0     H20483  13.449  11.939   5.473  0.2759 -0.4140  2.4993
  152MOL0     H20484  13.630  11.970   5.595  0.3407 -0.9268  1.7232
  152MOL0     H20485  13.683  12.097   5.477 -0.3017  3.1845  1.2333
  152MOL0     H20486  13.829  12.187   5.641 -1.2407  0.9387 -0.1245
  152MOL0     H20487  13.767  12.075   5.775 -0.9077  0.8201 -0.1700
  152MOL0     H20488  13.856  11.888   5.635  0.3916  0.5149  0.1886
  152MOL0     H20489  13.916  11.997   5.516  1.9450 -0.3613  0.9107
  152MOL0     H20490  14.014  11.982   5.805 -0.5305  0.7821 -0.0292
  152MOL0     H20491  14.057  12.109   5.694  1.8778 -1.0749  1.3702
  152MOL0     H20492  14.156  11.948   5.534 -1.1656  0.3307  0.1804
  152MOL0     H20493  14.115  11.818   5.653 -0.0813 -0.3811 -0.0676
  152MOL0     H20494  14.311  12.057   5.686 -2.8369  1.7722  0.8275
  152MOL0     H20495  14.262  11.940   5.816 -1.7473 -0.8828  0.6382
  152MOL0     H20496  14.401  11.872   5.544 -1.4777  2.3097  0.2629
  152MOL0     H20497  14.383  11.761   5.676 -1.8141  0.1363 -2.3243
  152MOL0     H20498  14.546  12.008   5.695 -3.3116  0.9595  3.3188
  152MOL0     H20499  14.536  11.892   5.821 -0.0937  0.5791  0.8603
  152MOL0     H20500  13.368  12.336   5.626  0.2658 -0.2000 -0.2239
  152MOL0     H20501  13.142  12.314   5.538  2.6004  2.3261  1.8893
  152MOL0     H20502  12.706  11.945   5.566  1.2688  4.3748  1.0862
  152MOL0     H20503  12.496  11.918   5.463 -0.4843  1.3883  0.2341
  152MOL0     H20504  10.842  11.168   5.007 -1.9259 -3.3047 -2.1260
  152MOL0     H20505  10.636  11.049   5.004 -2.2962 -3.7021  1.2775
  152MOL0     H20506  10.442  10.688   5.254  1.2138 -0.9917 -1.0889
  152MOL0     H20507  10.253  10.542   5.314  1.6775  0.6427  1.1502
  152MOL0     H20508   9.992  10.526   5.311  0.3821 -0.6434  0.7336
  152MOL0     H20509  10.075  10.368   5.308  0.2738 -0.7070 -1.0712
  152MOL0     H20510   9.846  10.341   5.348  1.6940 -1.7635  0.2322
  152MOL0     H20511   9.903  10.269   5.190  1.3186  1.4422  0.2794
  152MOL0     H20512   9.804  10.465   5.076 -1.4057 -1.7966 -2.0611
  152MOL0     H20513   9.723  10.522   5.226  2.0738  0.3176  0.0441
  152MOL0     H20514   9.570  10.387   5.079  0.8431 -1.1889 -2.2012
  152MOL0     H20515   9.686  10.256   5.085  1.0162  0.7685 -1.8200
  152MOL0     H20516   9.531  10.224   5.486 -0.1566  0.4246  0.3388
  152MOL0     H20517  10.102  10.601   4.917  0.7825  2.2139 -0.6198
  152MOL0     H20518  10.173  10.738   4.770  0.1682 -0.7227  2.2659
  152MOL0     H20519  10.283  10.870   4.816  0.6200  0.5551  0.7676
  152MOL0     H20520  10.358  10.726   4.755 -0.4622 -0.5616 -0.0551
  153MOL0     O20521   6.039  10.463  11.134 -0.1350  0.2712  0.6793
  153MOL0     C20522   5.947  10.425  11.208 -0.2818 -0.0745 -0.2892
  153MOL0     O20523   5.956  10.320  11.287  0.6159  0.5895 -0.3723
  153MOL0     C20524   6.077  10.261  11.294  0.1050  0.7014  0.2325
  153MOL0     C20525   6.116  10.140  11.226 -0.8105 -0.2869  0.1399
  153MOL0     C20526   6.247  10.087  11.239 -0.2083  0.7152  0.4763
  153MOL0     C20527   6.342  10.160  11.311  0.3204  0.0466 -0.6716
  153MOL0     O20528   6.472  10.129  11.295  0.7684  0.6075  0.2670
  153MOL0     C20529   6.521  10.052  11.409 -0.2419  0.0194 -0.1307
  153MOL0     C20530   6.466   9.907  11.404 -0.4914 -0.9536  0.1532
  153MOL0     C20531   6.507   9.820  11.284 -0.1564 -0.8097 -0.3992
  153MOL0     C20532   6.441   9.683  11.280  0.4459 -0.6508 -0.7445
  153MOL0     C20533   6.484   9.584  11.389 -0.3947 -0.0024 -0.0980
  153MOL0     C20534   6.434   9.441  11.347  0.0710 -0.0524 -0.3685
  153MOL0     C20535   6.454   9.330  11.452  0.0390  0.5035  0.1402
  153MOL0     C20536   6.408   9.185  11.416 -0.4843 -0.6917 -0.5962
  153MOL0     N20537   6.459   9.090  11.513 -0.1694 -0.4303 -0.4926
  153MOL0     C20538   6.514   8.974  11.478 -0.6022  0.1596  0.0365
  153MOL0     C20539   6.520   8.906  11.594 -0.0805 -0.6302  0.0439
  153MOL0     C20540   6.589   8.776  11.623  0.1359  0.9951 -0.2351
  153MOL0     C20541   6.727   8.796  11.675 -0.5865  0.1044  0.7169
  153MOL0     C20542   6.820   8.695  11.624  0.7962 -0.2001  0.4821
  153MOL0     C20543   6.956   8.713  11.690  0.9208  0.5579  0.1280
  153MOL0     O20544   7.019   8.826  11.631  0.3980  0.4514 -0.0818
  153MOL0     C20545   7.152   8.838  11.669  0.9597  0.3648 -0.0412
  153MOL0     C20546   7.217   8.948  11.613  0.7729 -0.3503  0.0194
  153MOL0     C20547   7.353   8.971  11.620 -0.2324 -0.6590 -0.1570
  153MOL0     C20548   7.431   8.887  11.694 -0.6284  0.7920 -0.2779
  153MOL0     C20549   7.581   8.911  11.719  0.3785 -0.3358  0.3712
  153MOL0     O20550   7.631   9.020  11.657  0.2288 -0.3591 -0.2646
  153MOL0     C20551   7.763   9.040  11.637 -0.0458 -0.3329 -0.1467
  153MOL0     C20552   7.840   8.931  11.597 -1.0044 -0.3765 -0.4322
  153MOL0     C20553   7.980   8.945  11.609 -1.0476  0.3782 -0.0237
  153MOL0     C20554   8.042   9.074  11.637  0.5772  0.2516  1.0650
  153MOL0     O20555   8.176   9.099  11.626  0.3866 -0.0402  0.0510
  153MOL0     C20556   8.261   8.994  11.663 -0.2366 -0.2520  0.2280
  153MOL0     C20557   8.407   9.040  11.667 -0.5944 -0.9003  0.1598
  153MOL0     C20558   8.494   8.974  11.769 -0.2599  0.1238  0.1526
  153MOL0     C20559   8.638   9.023  11.766  0.5375  0.4309  0.6576
  153MOL0     C20560   8.732   8.936  11.850 -0.7182 -0.2535  0.4315
  153MOL0     C20561   8.866   9.007  11.871 -1.3190 -0.1013  0.1145
  153MOL0     C20562   8.974   8.946  11.962 -0.5158  1.2811  0.3272
  153MOL0     C20563   9.117   9.000  11.940 -0.0319 -0.7884  0.1601
  153MOL0    Cl20564   9.130   9.179  11.950  0.1489 -0.7033  0.6951
  153MOL0     C20565   7.952   9.180  11.658 -0.3122 -0.1549 -0.1888
  153MOL0     C20566   7.816   9.165  11.665 -0.0622  0.3778  0.1872
  153MOL0     O20567   7.641   8.839  11.794 -0.8249 -0.8271 -0.0514
  153MOL0     C20568   7.366   8.780  11.768 -0.6654 -0.4648 -0.2610
  153MOL0     C20569   7.232   8.758  11.748  0.2755  0.3128 -0.2340
  153MOL0     N20570   6.464   8.980  11.693 -0.7322  0.4322 -0.8370
  153MOL0     N20571   6.425   9.091  11.643 -0.4234  0.7153 -0.0937
  153MOL0     C20572   6.303  10.280  11.372 -0.9517 -0.6844 -0.0940
  153MOL0     C20573   6.175  10.316  11.381 -0.0027 -0.7777  0.5109
  153MOL0     C20574   5.813  10.499  11.216 -0.5607  0.1351 -0.5402
  153MOL0     C20575   5.726  10.462  11.323 -0.3894 -0.1927  0.2975
  153MOL0     C20576   5.605  10.525  11.344 -0.1324 -0.4377 -0.2964
  153MOL0     C20577   5.585  10.641  11.267 -0.5058 -0.8705 -0.7385
  153MOL0     O20578   5.481  10.725  11.295 -0.3200  0.0965 -0.3898
  153MOL0     C20579   5.358  10.666  11.320 -0.0292 -0.4606 -0.2270
  153MOL0     C20580   5.247  10.774  11.306  0.4850 -0.5689  0.0736
  153MOL0     C20581   5.243  10.886  11.424  0.5015 -0.6358  0.0638
  153MOL0     C20582   5.390  10.953  11.441  0.0459 -0.3622 -0.4290
  153MOL0     C20583   5.369  11.090  11.485  0.8441 -0.5698  0.5265
  153MOL0     C20584   5.365  11.211  11.493  0.1664 -0.4584 -0.3068
  153MOL0     C20585   5.668  10.683  11.166  0.0805 -0.4640 -0.1699
  153MOL0     C20586   5.778  10.605  11.134  0.4787  0.2244 -0.0660
  153MOL0     C20587   5.856  10.645  11.007  0.5436  0.7780 -0.9494
  153MOL0     H20588   6.055  10.069  11.170 -0.4102  0.3250 -1.1102
  153MOL0     H20589   6.262   9.994  11.185 -3.9557  0.2756 -0.1143
  153MOL0     H20590   6.630  10.053  11.406 -0.2399 -0.9590 -1.2377
  153MOL0     H20591   6.491  10.099  11.503  2.3378 -1.5029  1.5931
  153MOL0     H20592   6.356   9.914  11.401 -0.3924  2.3828 -3.3515
  153MOL0     H20593   6.498   9.852  11.493 -0.3822 -1.2936 -0.0954
  153MOL0     H20594   6.612   9.789  11.279 -0.3682 -1.3980 -1.4197
  153MOL0     H20595   6.493   9.873  11.189 -1.0649 -0.7007 -0.2110
  153MOL0     H20596   6.335   9.705  11.300  0.7462  0.8189 -0.6990
  153MOL0     H20597   6.449   9.647  11.176 -1.0681 -1.0931 -0.7364
  153MOL0     H20598   6.592   9.584  11.404 -0.2549  1.5019 -0.9924
  153MOL0     H20599   6.436   9.604  11.485  2.8440  0.9291  1.4820
  153MOL0     H20600   6.329   9.445  11.315 -0.9843  2.1786  2.8716
  153MOL0     H20601   6.495   9.425  11.258 -0.1625 -0.2041 -0.5041
  153MOL0     H20602   6.395   9.351  11.541 -0.5159  4.6395 -0.9954
  153MOL0     H20603   6.558   9.312  11.480 -0.3600 -1.4151  0.5594
  153MOL0     H20604   6.300   9.181  11.428 -0.4805 -0.1022 -0.3587
  153MOL0     H20605   6.453   9.157  11.319  0.5812 -0.9613 -0.0440
  153MOL0     H20606   6.548   8.947  11.379 -0.5713 -0.3231  0.1750
  153MOL0     H20607   6.528   8.722  11.697  0.5411  0.6826 -0.1255
  153MOL0     H20608   6.589   8.723  11.527 -0.6648  0.4948  0.0315
  153MOL0     H20609   6.759   8.898  11.655  2.4004 -0.9398 -0.2875
  153MOL0     H20610   6.713   8.785  11.783 -1.7600  0.8183  0.6612
  153MOL0     H20611   6.840   8.696  11.516  1.4123 -0.7927  0.5820
  153MOL0     H20612   6.783   8.593  11.636 -1.3082  0.4894  0.3639
  153MOL0     H20613   7.021   8.626  11.676  1.7474  0.8792  1.7311
  153MOL0     H20614   6.941   8.743  11.794 -2.8125  0.3849 -0.2220
  153MOL0     H20615   7.164   9.025  11.558  2.7799  0.7262 -0.5513
  153MOL0     H20616   7.404   9.048  11.563  2.4924 -1.2541  1.3338
  153MOL0     H20617   7.798   8.836  11.567 -0.4815 -0.6812 -0.2058
  153MOL0     H20618   8.052   8.873  11.571 -1.2611  0.3121 -0.3116
  153MOL0     H20619   8.233   8.946  11.758  1.1763 -0.0912  0.7470
  153MOL0     H20620   8.257   8.913  11.589 -0.5048  1.7008 -2.0207
  153MOL0     H20621   8.442   9.037  11.563 -0.3240  0.1471  0.2069
  153MOL0     H20622   8.414   9.145  11.695  1.7702 -0.5540 -1.4202
  153MOL0     H20623   8.455   9.003  11.867  2.0068  1.2375  0.8093
  153MOL0     H20624   8.492   8.865  11.766  3.1964 -0.0320 -2.0714
  153MOL0     H20625   8.632   9.125  11.806  0.2159  0.3052  0.9374
  153MOL0     H20626   8.688   9.025  11.669 -0.3426  0.0004  0.1933
  153MOL0     H20627   8.742   8.837  11.805  0.1890 -0.2271  0.5557
  153MOL0     H20628   8.700   8.917  11.952  1.7868  0.1327  1.3705
  153MOL0     H20629   8.909   9.017  11.771  2.5079 -3.3093  1.1827
  153MOL0     H20630   8.850   9.109  11.907 -1.1160  0.5333 -1.4899
  153MOL0     H20631   8.977   8.838  11.946 -1.4830  1.2171  0.5493
  153MOL0     H20632   8.950   8.964  12.067 -2.8694 -0.6116  0.1948
  153MOL0     H20633   9.175   8.964  12.025 -0.2332 -0.0685  0.6039
  153MOL0     H20634   9.158   8.965  11.844  0.4844 -0.6439  0.3233
  153MOL0     H20635   7.999   9.277  11.673 -3.1822  1.3453 -0.3366
  153MOL0     H20636   7.754   9.246  11.703 -0.0276  0.2015  0.6172
  153MOL0     H20637   7.420   8.723  11.843 -0.7708  0.2608  0.3848
  153MOL0     H20638   7.192   8.672  11.800 -2.7994 -0.0407 -2.8927
  153MOL0     H20639   6.382  10.343  11.412 -1.2090 -0.5272  0.1704
  153MOL0     H20640   6.151  10.409  11.432 -0.8133 -2.0326  2.5317
  153MOL0     H20641   5.747  10.368  11.373 -1.3008 -0.1613  0.7692
  153MOL0     H20642   5.552  10.501  11.436  2.4620  0.0663  1.4185
  153MOL0     H20643   5.373  10.637  11.424 -1.9339  1.0985  0.5340
  153MOL0     H20644   5.348  10.571  11.266  0.6680 -0.3474 -0.5755
  153MOL0     H20645   5.146  10.737  11.287  0.5766  0.7317 -3.8189
  153MOL0     H20646   5.276  10.818  11.210 -0.9138  1.2409  0.4301
  153MOL0     H20647   5.211  10.841  11.519 -0.5107 -1.8912 -0.8372
  153MOL0     H20648   5.170  10.958  11.387 -0.2843 -1.1925  0.5026
  153MOL0     H20649   5.456  10.902  11.512 -0.2874 -1.8655 -1.1578
  153MOL0     H20650   5.442  10.964  11.345  2.7698  2.6641  1.1783
  153MOL0     H20651   5.367  11.317  11.508 -1.9497 -0.2448 -1.1853
  153MOL0     H20652   5.630  10.776  11.126  1.5470 -0.0304 -0.6226
  153MOL0     H20653   5.958  10.656  11.046 -0.9500 -0.8214  4.2848
  153MOL0     H20654   5.843  10.562  10.937 -2.3008 -0.6696  1.0887
  153MOL0     H20655   5.823  10.742  10.971 -0.0977  1.3861  1.1140
  154MOL0     O20656   7.100   3.052   4.957  0.0249  0.3831  0.0116
  154MOL0     C20657   7.014   3.134   4.983  0.1694 -0.5070 -0.0980
  154MOL0     O20658   7.049   3.249   5.052  0.2322  0.0863 -0.6735
  154MOL0     C20659   7.187   3.270   5.052  0.3230 -0.6757  0.3117
  154MOL0     C20660   7.251   3.266   5.174 -0.5715  0.4447 -0.0422
  154MOL0     C20661   7.387   3.295   5.192  0.3273 -0.2948  0.6820
  154MOL0     C20662   7.455   3.330   5.072 -0.3143 -0.4814  0.0816
  154MOL0     O20663   7.586   3.373   5.068 -0.5753 -0.1764 -0.7370
  154MOL0     C20664   7.654   3.412   5.192  0.0632  0.2205  0.4648
  154MOL0     C20665   7.795   3.448   5.159 -0.2950 -0.1738 -0.2947
  154MOL0     C20666   7.849   3.511   5.291 -0.3534  0.5220  0.1337
  154MOL0     C20667   7.995   3.562   5.269 -0.3322 -0.3149 -0.7274
  154MOL0     C20668   8.052   3.631   5.388  0.4878  0.3031  0.6437
  154MOL0     C20669   8.185   3.702   5.344  0.7295 -0.2813  0.2138
  154MOL0     C20670   8.255   3.744   5.467  0.1909 -0.5125 -0.2217
  154MOL0     C20671   8.358   3.642   5.512  0.2176  0.7405 -0.4224
  154MOL0     N20672   8.440   3.706   5.613  0.4113  0.0925 -0.0913
  154MOL0     C20673   8.415   3.702   5.746  0.2528  0.2752  0.4739
  154MOL0     C20674   8.486   3.802   5.795 -0.0850  0.0902  0.3719
  154MOL0     C20675   8.486   3.843   5.941  1.1556 -0.1279  0.4246
  154MOL0     C20676   8.603   3.786   6.016  0.7362 -0.3957  0.3608
  154MOL0     C20677   8.703   3.896   6.060  0.6880  0.1832 -0.3316
  154MOL0     C20678   8.773   3.959   5.943 -0.4055  0.5090 -0.4618
  154MOL0     O20679   8.896   4.027   5.986 -0.4763 -0.4341  0.6810
  154MOL0     C20680   9.014   3.968   6.025  0.8649 -0.4575 -0.0849
  154MOL0     C20681   9.031   3.831   6.002 -0.5942 -0.6194  1.0435
  154MOL0     C20682   9.158   3.785   6.018 -0.6317 -0.1050 -0.4323
  154MOL0     C20683   9.268   3.870   6.064  0.7640  0.2530 -0.2794
  154MOL0     C20684   9.408   3.819   6.070  0.4913  0.0875 -0.6710
  154MOL0     O20685   9.493   3.920   6.109 -0.0445 -0.8055 -0.3801
  154MOL0     C20686   9.620   3.923   6.056  0.0896  0.3302  0.3244
  154MOL0     C20687   9.647   3.993   5.937 -0.6539 -0.2437  0.3989
  154MOL0     C20688   9.775   4.004   5.885 -1.4329  0.5175  0.3200
  154MOL0     C20689   9.884   3.946   5.950  0.1316  0.0107 -1.0297
  154MOL0     O20690  10.008   3.968   5.897  1.0553  0.5657  0.1642
  154MOL0     C20691  10.103   4.019   5.986 -0.8177  0.4518  0.0750
  154MOL0     C20692  10.229   3.966   5.927 -0.2519 -0.6462  0.0250
  154MOL0     C20693  10.363   4.010   5.986 -0.6321  0.1013 -0.2113
  154MOL0     C20694  10.406   4.158   5.962  0.2808 -0.1885 -0.3026
  154MOL0     C20695  10.533   4.187   6.047 -0.6385  0.2882 -0.6625
  154MOL0     C20696  10.661   4.138   5.973  0.1673 -0.2799 -0.5548
  154MOL0     C20697  10.766   4.117   6.076  0.2001 -0.4579  0.1559
  154MOL0     C20698  10.915   4.132   6.026 -0.2806  0.3001 -0.3267
  154MOL0    Cl20699  11.024   4.136   6.172  0.3536 -0.2758  0.4427
  154MOL0     C20700   9.856   3.862   6.065 -0.1691  0.2223 -0.4139
  154MOL0     C20701   9.728   3.858   6.115  0.0695  0.5444  1.1098
  154MOL0     O20702   9.429   3.705   6.033 -0.3960  0.3322 -0.4723
  154MOL0     C20703   9.238   4.005   6.101 -0.6683  0.3686  0.3256
  154MOL0     C20704   9.111   4.053   6.074 -0.3490  0.0736 -0.6692
  154MOL0     N20705   8.566   3.848   5.696 -0.4752 -0.6122  0.3298
  154MOL0     N20706   8.542   3.792   5.586 -0.6404 -0.4238  0.7798
  154MOL0     C20707   7.393   3.321   4.954 -0.2874 -0.3038  0.1905
  154MOL0     C20708   7.257   3.300   4.943 -0.3244  0.9131  0.7005
  154MOL0     C20709   6.872   3.101   4.968  0.5522 -0.7142  0.3729
  154MOL0     C20710   6.774   3.185   5.036 -1.0651  0.8177 -0.3933
  154MOL0     C20711   6.640   3.151   5.049  0.2067  0.3056  0.1405
  154MOL0     C20712   6.592   3.037   4.984 -0.6173 -0.0079  0.3334
  154MOL0     O20713   6.456   2.993   4.986  0.2838  0.5583  0.8120
  154MOL0     C20714   6.367   3.073   5.067  0.6796  0.0787  0.3481
  154MOL0     C20715   6.222   3.022   5.094  0.0412  0.5594  0.4073
  154MOL0     C20716   6.137   2.997   4.974  0.4891 -0.6674 -0.4310
  154MOL0     C20717   5.997   3.070   4.980  0.3929 -0.1313  0.8349
  154MOL0     C20718   5.894   3.008   5.054  1.1794  0.2935  0.0892
  154MOL0     C20719   5.804   2.950   5.121  0.4033  0.1788  0.1812
  154MOL0     C20720   6.679   2.963   4.910 -0.7750  0.7875 -0.1362
  154MOL0     C20721   6.816   2.990   4.904 -0.6895 -0.1210 -0.2099
  154MOL0     C20722   6.902   2.890   4.830  0.4434 -0.2263 -0.3577
  154MOL0     H20723   7.182   3.243   5.254  2.0771  0.8169  2.5467
  154MOL0     H20724   7.438   3.297   5.288  1.2483  1.0642  0.1999
  154MOL0     H20725   7.597   3.492   5.239 -2.2218 -0.7362 -0.5383
  154MOL0     H20726   7.660   3.326   5.259 -2.1092  1.1638  1.9753
  154MOL0     H20727   7.791   3.521   5.078  1.5349  1.4010  0.9501
  154MOL0     H20728   7.847   3.356   5.130 -0.5088 -0.9487  1.5998
  154MOL0     H20729   7.848   3.441   5.375  1.0109 -3.1361 -2.6373
  154MOL0     H20730   7.784   3.597   5.309 -0.8728 -0.0404  0.9981
  154MOL0     H20731   8.050   3.469   5.255 -0.6265 -0.1732 -3.1485
  154MOL0     H20732   7.995   3.619   5.176  0.6886  0.0355 -0.5230
  154MOL0     H20733   7.984   3.711   5.418  0.2706  0.8213 -1.1248
  154MOL0     H20734   8.061   3.557   5.468  4.2582 -1.2844 -1.0347
  154MOL0     H20735   8.240   3.637   5.275 -2.1563  0.0146 -2.6026
  154MOL0     H20736   8.169   3.796   5.291 -0.0432  0.9405  2.5177
  154MOL0     H20737   8.180   3.758   5.546 -3.0465 -1.1208 -2.9384
  154MOL0     H20738   8.306   3.836   5.440 -1.5642  0.2869 -0.9771
  154MOL0     H20739   8.299   3.560   5.555  1.3916 -0.0928 -0.3727
  154MOL0     H20740   8.406   3.610   5.419 -0.6705  0.0724 -0.6661
  154MOL0     H20741   8.335   3.653   5.800  1.7964 -1.0678  1.6524
  154MOL0     H20742   8.494   3.952   5.929  0.6985 -0.1045  0.2943
  154MOL0     H20743   8.390   3.816   5.986  0.9048  0.2100  0.0998
  154MOL0     H20744   8.562   3.735   6.104  0.2142 -0.2149  0.2230
  154MOL0     H20745   8.663   3.707   5.968  1.0042 -1.3585  2.1731
  154MOL0     H20746   8.767   3.842   6.130  0.3658 -0.2513 -0.3648
  154MOL0     H20747   8.641   3.972   6.108  0.6825  2.4641 -3.5867
  154MOL0     H20748   8.717   4.044   5.902  3.2794  2.6241 -1.5636
  154MOL0     H20749   8.810   3.884   5.873  1.5064 -1.4895  2.4877
  154MOL0     H20750   8.953   3.760   5.977 -1.6139  0.6510  0.5106
  154MOL0     H20751   9.181   3.681   5.994  1.3422 -0.4771  2.5449
  154MOL0     H20752   9.563   4.034   5.883 -0.5804 -1.0726 -0.3731
  154MOL0     H20753   9.786   4.056   5.790 -1.3316  0.4093  0.2730
  154MOL0     H20754  10.097   4.128   5.983  0.9606  0.5598 -2.0329
  154MOL0     H20755  10.096   3.972   6.085 -0.9132 -0.1907 -0.2369
  154MOL0     H20756  10.217   3.860   5.952 -1.7482 -0.3296  0.7898
  154MOL0     H20757  10.237   3.994   5.822 -1.2191 -0.4772 -0.0187
  154MOL0     H20758  10.350   3.994   6.093 -0.0076  0.0217 -0.1417
  154MOL0     H20759  10.440   3.939   5.956  1.2742  2.0238 -0.1572
  154MOL0     H20760  10.323   4.225   5.987 -0.8489  0.2315 -4.4315
  154MOL0     H20761  10.448   4.163   5.862  1.6973  0.5038  0.3008
  154MOL0     H20762  10.513   4.133   6.140  1.9261  0.3435 -0.0060
  154MOL0     H20763  10.539   4.294   6.070  1.2992  0.4187 -1.5603
  154MOL0     H20764  10.650   4.039   5.928  2.0173  0.0866 -1.9437
  154MOL0     H20765  10.689   4.204   5.891 -1.7799  0.7768 -0.4273
  154MOL0     H20766  10.757   4.013   6.108 -2.1273 -0.5945 -0.8031
  154MOL0     H20767  10.745   4.173   6.167 -0.3878 -0.7784  0.2240
  154MOL0     H20768  10.947   4.045   5.968 -0.7489  0.7205 -1.2448
  154MOL0     H20769  10.916   4.226   5.969  3.0731 -0.2071 -1.3588
  154MOL0     H20770   9.938   3.807   6.111 -0.1813 -0.9643 -1.7037
  154MOL0     H20771   9.700   3.787   6.192  2.4775 -2.6032 -0.6809
  154MOL0     H20772   9.317   4.077   6.123 -0.6588  0.7347 -0.8271
  154MOL0     H20773   9.090   4.160   6.080 -1.2735 -0.1857  1.8938
  154MOL0     H20774   7.444   3.340   4.860 -4.0328 -2.9819 -2.6621
  154MOL0     H20775   7.226   3.302   4.839  2.5606 -1.5113 -0.3676
  154MOL0     H20776   6.802   3.275   5.090 -1.1202  1.9074 -2.1027
  154MOL0     H20777   6.581   3.224   5.103 -0.8767 -0.0132 -0.5848
  154MOL0     H20778   6.354   3.173   5.024 -0.8697 -0.7599 -1.2771
  154MOL0     H20779   6.419   3.084   5.162  0.7577 -0.7370  0.4030
  154MOL0     H20780   6.170   3.091   5.162  0.2146  2.2052 -1.0623
  154MOL0     H20781   6.230   2.926   5.147  0.0791  1.2384  1.6850
  154MOL0     H20782   6.108   2.891   4.978 -2.8409  0.1768  0.4871
  154MOL0     H20783   6.188   3.016   4.879  0.7913  2.1513  0.2023
  154MOL0     H20784   5.999   3.174   5.012  0.8207  1.5173 -3.8770
  154MOL0     H20785   5.961   3.067   4.877 -0.4597  0.6417  1.1013
  154MOL0     H20786   5.729   2.900   5.179 -0.3650  0.4452 -0.5649
  154MOL0     H20787   6.635   2.880   4.856 -0.4414  1.5705 -1.6716
  154MOL0     H20788   6.968   2.939   4.758  1.4435  1.2638  1.5200
  154MOL0     H20789   6.974   2.858   4.905 -2.1518  2.5051  3.6720
  154MOL0     H20790   6.850   2.805   4.784 -1.2804 -0.4132  1.7699
  155MOL0     O20791   7.658   2.909   3.178 -0.3962  0.2487 -0.7154
  155MOL0     C20792   7.578   2.980   3.115 -0.5110 -0.5755  0.0277
  155MOL0     O20793   7.617   3.069   3.017  0.3650  0.2597  0.2691
  155MOL0     C20794   7.750   3.086   2.986 -0.1559 -0.5101  0.4280
  155MOL0     C20795   7.826   3.170   3.071  0.1925 -0.7206  0.1309
  155MOL0     C20796   7.949   3.213   3.036 -0.3505 -0.2926 -0.2925
  155MOL0     C20797   8.013   3.176   2.919 -0.5113  0.0148 -0.4169
  155MOL0     O20798   8.151   3.204   2.905 -0.5267 -0.4389  0.8193
  155MOL0     C20799   8.208   3.172   2.777 -0.0991 -0.2326 -0.1545
  155MOL0     C20800   8.359   3.173   2.791  0.3835  0.0742 -0.4605
  155MOL0     C20801   8.429   3.294   2.850  0.7805  0.7631 -1.0053
  155MOL0     C20802   8.580   3.277   2.859  0.1866  0.7418  0.0991
  155MOL0     C20803   8.646   3.419   2.891 -0.5403 -0.1301  0.0967
  155MOL0     C20804   8.788   3.425   2.839  0.1028  1.1429 -0.7727
  155MOL0     C20805   8.853   3.564   2.844  0.1433  0.0389  0.2000
  155MOL0     C20806   8.833   3.630   2.983 -0.0558  0.1114  0.4047
  155MOL0     N20807   8.947   3.714   3.015  0.6348  0.0467  0.4286
  155MOL0     C20808   8.980   3.834   2.962 -0.7581 -0.5088  0.4819
  155MOL0     C20809   9.089   3.865   3.031 -0.6373 -0.2022 -0.5620
  155MOL0     C20810   9.155   4.006   3.007 -0.4754 -0.3935  0.4221
  155MOL0     C20811   9.287   4.016   3.087  0.4673  0.0335  0.1371
  155MOL0     C20812   9.383   4.124   3.036  0.2739 -0.0574  0.1870
  155MOL0     C20813   9.491   4.131   3.136 -1.5693  0.1668  0.0244
  155MOL0     O20814   9.609   4.204   3.084 -0.0901 -0.1269  0.2282
  155MOL0     C20815   9.694   4.247   3.187  0.4902 -0.0514 -0.4630
  155MOL0     C20816   9.775   4.356   3.163 -0.1346  0.0841  0.0239
  155MOL0     C20817   9.883   4.382   3.252  0.3949 -0.7274  0.1686
  155MOL0     C20818   9.911   4.300   3.362 -0.3858  0.0461  1.0468
  155MOL0     C20819  10.034   4.334   3.439 -0.0082  0.1754 -0.4697
  155MOL0     O20820  10.109   4.452   3.417 -0.3169 -0.2786 -0.2301
  155MOL0     C20821  10.215   4.490   3.494 -0.2383 -0.0144  0.5266
  155MOL0     C20822  10.310   4.407   3.552 -0.2898 -0.2329  1.1648
  155MOL0     C20823  10.421   4.456   3.624 -0.3863  0.1740  0.7849
  155MOL0     C20824  10.438   4.593   3.644 -0.2437 -0.2227 -0.0778
  155MOL0     O20825  10.539   4.641   3.724  0.2908  0.0509 -0.0904
  155MOL0     C20826  10.668   4.581   3.705  0.7321  0.1206  0.6321
  155MOL0     C20827  10.769   4.685   3.751 -0.1604  0.1957  0.0893
  155MOL0     C20828  10.758   4.808   3.662 -0.4267  0.0127 -0.0375
  155MOL0     C20829  10.874   4.903   3.702  0.1775 -0.3968  0.3873
  155MOL0     C20830  10.887   5.026   3.607 -1.1459  0.2137 -0.5957
  155MOL0     C20831  10.991   5.133   3.652 -0.0932  0.2996 -0.4889
  155MOL0     C20832  11.014   5.235   3.541 -0.5918  0.1104 -0.7756
  155MOL0     C20833  11.081   5.372   3.588 -0.1145  0.1636  0.1076
  155MOL0    Cl20834  11.234   5.357   3.663 -0.2383  0.1363  0.2909
  155MOL0     C20835  10.351   4.681   3.580 -0.0950  0.2506 -0.5042
  155MOL0     C20836  10.239   4.629   3.510  0.1127  0.0480 -0.8706
  155MOL0     O20837  10.070   4.239   3.515  0.3143 -0.0846 -0.0619
  155MOL0     C20838   9.832   4.191   3.386  0.2471 -0.8891  0.1968
  155MOL0     C20839   9.725   4.168   3.299  0.2742  0.3426 -0.2884
  155MOL0     N20840   9.120   3.770   3.124 -0.3207 -0.0886  0.3705
  155MOL0     N20841   9.031   3.683   3.113  0.1448 -0.1141  0.3907
  155MOL0     C20842   7.941   3.102   2.828  0.7806 -0.4233  0.6425
  155MOL0     C20843   7.812   3.054   2.862 -0.0412 -0.1043  0.1591
  155MOL0     C20844   7.441   2.964   3.155  0.1859  0.3465  0.2814
  155MOL0     C20845   7.419   2.901   3.274  0.4816  1.1761  0.6360
  155MOL0     C20846   7.288   2.897   3.330  0.0892 -0.8355  0.4686
  155MOL0     C20847   7.187   2.950   3.260  0.8841  0.2238 -0.0547
  155MOL0     O20848   7.055   2.932   3.291 -0.1379 -0.5202 -0.0273
  155MOL0     C20849   7.027   2.914   3.431  0.1877 -0.3907 -0.0466
  155MOL0     C20850   6.871   2.933   3.444  0.2322 -0.2587 -0.1349
  155MOL0     C20851   6.784   2.813   3.411 -0.1113 -0.0215 -0.5325
  155MOL0     C20852   6.682   2.843   3.293  0.9252 -0.3805  0.8180
  155MOL0     C20853   6.758   2.882   3.166  0.2365 -0.0102  0.3146
  155MOL0     C20854   6.816   2.916   3.063 -0.7730  0.0816  0.2904
  155MOL0     C20855   7.208   3.009   3.137  0.5890  0.3915 -0.8649
  155MOL0     C20856   7.334   3.021   3.080  0.1630 -0.1062  0.2276
  155MOL0     C20857   7.344   3.100   2.956  0.4688  0.1583 -0.5253
  155MOL0     H20858   7.774   3.222   3.151 -2.3797  1.0154 -2.4465
  155MOL0     H20859   7.998   3.285   3.101 -2.5063 -0.4662  1.6371
  155MOL0     H20860   8.174   3.073   2.745 -2.2310  1.0932 -2.3288
  155MOL0     H20861   8.178   3.243   2.700  1.0648 -1.7622 -2.1218
  155MOL0     H20862   8.401   3.161   2.690  1.2814 -2.2178  0.1112
  155MOL0     H20863   8.396   3.081   2.837  0.8171  0.7937  0.6955
  155MOL0     H20864   8.386   3.323   2.946  0.9856 -0.5571 -0.4801
  155MOL0     H20865   8.411   3.381   2.787  1.4447  2.3146  0.8275
  155MOL0     H20866   8.613   3.205   2.934  1.3886 -1.8050 -2.6764
  155MOL0     H20867   8.624   3.241   2.766  3.5941  1.0557  1.4174
  155MOL0     H20868   8.598   3.501   2.836 -1.4334 -0.5504  0.2371
  155MOL0     H20869   8.648   3.434   3.000  0.6211 -1.3342  0.2624
  155MOL0     H20870   8.851   3.359   2.899 -4.3590 -2.3741  0.6482
  155MOL0     H20871   8.791   3.389   2.736 -1.4255 -0.1906 -0.4127
  155MOL0     H20872   8.798   3.624   2.771 -0.5405 -2.4014 -1.4250
  155MOL0     H20873   8.960   3.551   2.827  0.5264  2.2627  0.6237
  155MOL0     H20874   8.740   3.687   2.989 -1.4719 -2.1666  1.2832
  155MOL0     H20875   8.831   3.545   3.052 -3.1512 -0.1183  0.1673
  155MOL0     H20876   8.923   3.898   2.896  0.2052 -1.2111 -1.0877
  155MOL0     H20877   9.157   4.017   2.899  0.2077  0.9280  0.5594
  155MOL0     H20878   9.082   4.078   3.045 -0.1598  0.5130 -0.6558
  155MOL0     H20879   9.246   4.035   3.187  0.1713 -3.0252  0.6771
  155MOL0     H20880   9.340   3.921   3.096  0.7694  0.0370 -1.3674
  155MOL0     H20881   9.328   4.218   3.034 -1.1763 -0.8333  1.5934
  155MOL0     H20882   9.424   4.096   2.938 -1.3903 -0.9411 -0.3059
  155MOL0     H20883   9.539   4.034   3.145 -0.3628  0.8585  1.6650
  155MOL0     H20884   9.465   4.185   3.228 -0.3028 -0.1638  0.5903
  155MOL0     H20885   9.759   4.421   3.077  0.3840  1.1075  0.6728
  155MOL0     H20886   9.951   4.464   3.231  1.4058 -0.7953  2.8732
  155MOL0     H20887  10.304   4.301   3.526 -1.4543 -0.2357  1.3961
  155MOL0     H20888  10.499   4.393   3.666  1.6725  2.7455  1.0953
  155MOL0     H20889  10.682   4.489   3.764  0.0315 -1.4306 -1.4749
  155MOL0     H20890  10.682   4.558   3.599  2.0911  0.8173  0.6402
  155MOL0     H20891  10.746   4.727   3.849  2.6196  1.3214  0.3245
  155MOL0     H20892  10.872   4.651   3.744 -0.8249 -1.7737 -1.0836
  155MOL0     H20893  10.768   4.783   3.556  1.7872 -2.1404  0.5782
  155MOL0     H20894  10.666   4.859   3.689  0.4023  1.5926 -0.1018
  155MOL0     H20895  10.972   4.853   3.695  0.9603  1.2816 -1.8453
  155MOL0     H20896  10.862   4.936   3.806  0.9354  0.4414  0.2259
  155MOL0     H20897  10.784   5.063   3.602 -0.3589  2.8009  0.4052
  155MOL0     H20898  10.908   5.002   3.503  2.2818  2.7961 -0.6683
  155MOL0     H20899  10.957   5.192   3.737  2.3552 -2.4630  2.6807
  155MOL0     H20900  11.086   5.081   3.670 -0.2824  0.2977  0.5694
  155MOL0     H20901  10.917   5.273   3.507 -0.0083  1.9604 -0.4943
  155MOL0     H20902  11.072   5.203   3.454 -0.3473 -2.3151  0.2219
  155MOL0     H20903  11.093   5.430   3.497  1.2388  0.8995  0.7322
  155MOL0     H20904  11.004   5.420   3.650  0.1980 -0.7747  1.2799
  155MOL0     H20905  10.363   4.789   3.572 -1.1857  0.2754 -3.0426
  155MOL0     H20906  10.168   4.697   3.464  0.9780  1.8712  0.3665
  155MOL0     H20907   9.852   4.110   3.455 -1.7440 -1.7273 -0.1249
  155MOL0     H20908   9.673   4.074   3.316 -0.0209  0.5574 -0.0011
  155MOL0     H20909   7.971   3.081   2.726 -1.4335  0.3559 -0.2243
  155MOL0     H20910   7.743   3.010   2.791  0.1406  1.2197 -0.8864
  155MOL0     H20911   7.490   2.857   3.343 -0.4042  3.4704  3.1950
  155MOL0     H20912   7.276   2.852   3.428 -0.1584 -1.1937  0.2756
  155MOL0     H20913   7.080   2.989   3.491  0.8139  0.6209 -1.8142
  155MOL0     H20914   7.061   2.815   3.464  1.1014 -0.1112 -0.1117
  155MOL0     H20915   6.834   3.022   3.391  1.9922 -0.0352 -1.0710
  155MOL0     H20916   6.852   2.954   3.549 -0.3647  1.1127 -0.4947
  155MOL0     H20917   6.737   2.782   3.505  0.3096 -1.4701 -0.7656
  155MOL0     H20918   6.862   2.747   3.371  1.0329  1.8655 -1.5515
  155MOL0     H20919   6.622   2.754   3.270 -1.5664  1.4434 -0.2376
  155MOL0     H20920   6.613   2.927   3.304  0.7255  0.1656 -3.0264
  155MOL0     H20921   6.869   2.965   2.984  1.6145 -0.4230  1.4878
  155MOL0     H20922   7.118   3.054   3.097  0.2210 -0.9507 -1.6141
  155MOL0     H20923   7.392   3.052   2.870 -0.5800  2.5473 -2.5412
  155MOL0     H20924   7.248   3.136   2.920 -0.1705 -1.5053 -0.5872
  155MOL0     H20925   7.398   3.192   2.982 -0.1663  0.7729 -1.3603
  156MOL0     O20926   4.926   3.525   0.957 -0.5684 -0.1490  0.0925
  156MOL0     C20927   4.927   3.407   0.942  1.0161 -0.7759  0.0982
  156MOL0     O20928   5.011   3.340   0.856 -0.2123 -0.5066 -0.6938
  156MOL0     C20929   5.088   3.413   0.765  0.3719  1.1758 -0.0397
  156MOL0     C20930   5.200   3.489   0.806  0.5074  0.0499  0.3150
  156MOL0     C20931   5.278   3.565   0.719 -0.2892  0.5190  0.4207
  156MOL0     C20932   5.250   3.555   0.580  0.6491  0.2284 -0.1379
  156MOL0     O20933   5.320   3.630   0.490  0.0989  0.4557 -0.0765
  156MOL0     C20934   5.305   3.612   0.349 -0.1022 -0.0717 -0.1486
  156MOL0     C20935   5.391   3.719   0.284  0.6188  1.2004  0.2185
  156MOL0     C20936   5.450   3.662   0.155 -0.7343  0.7518 -0.2011
  156MOL0     C20937   5.548   3.757   0.090  0.6335  0.0417 -0.2215
  156MOL0     C20938   5.579   3.715  -0.054 -0.1615 -0.4170 -0.2662
  156MOL0     C20939   5.687   3.804  -0.127 -1.1672  0.3903 -0.7039
  156MOL0     C20940   5.727   3.756  -0.266  0.9106  0.0946 -0.1908
  156MOL0     C20941   5.847   3.836  -0.327 -0.0255  0.8869  0.0349
  156MOL0     N20942   5.976   3.788  -0.263  0.1836  0.5307 -0.1538
  156MOL0     C20943   6.043   3.666  -0.279 -0.0108  0.3142 -0.9487
  156MOL0     C20944   6.164   3.693  -0.228  0.1309 -0.1052  0.7219
  156MOL0     C20945   6.270   3.594  -0.206 -0.2918 -0.3047 -0.8323
  156MOL0     C20946   6.265   3.492  -0.316  0.0363 -0.3726 -0.4470
  156MOL0     C20947   6.386   3.398  -0.313 -0.1588  0.2039  0.4809
  156MOL0     C20948   6.375   3.265  -0.394  1.1185 -0.2913 -0.5275
  156MOL0     O20949   6.398   3.275  -0.534  0.0360  0.1281 -0.4972
  156MOL0     C20950   6.528   3.307  -0.581  0.2089  0.5083 -0.2198
  156MOL0     C20951   6.540   3.380  -0.693 -0.0673 -0.7862  0.3333
  156MOL0     C20952   6.665   3.403  -0.750  0.5534  0.5889 -0.3630
  156MOL0     C20953   6.783   3.351  -0.697 -0.5055  1.3360 -0.6341
  156MOL0     C20954   6.909   3.354  -0.759 -1.1186 -0.3071 -0.0948
  156MOL0     O20955   7.019   3.281  -0.704  0.5189 -0.3169 -0.1112
  156MOL0     C20956   7.143   3.289  -0.770  0.4386 -0.6952 -0.9867
  156MOL0     C20957   7.168   3.309  -0.907 -0.0531  0.8886  0.0288
  156MOL0     C20958   7.299   3.327  -0.955  0.1634 -0.5437 -0.5238
  156MOL0     C20959   7.410   3.306  -0.874  0.1568  0.0792 -0.4355
  156MOL0     O20960   7.534   3.346  -0.923 -0.4175 -0.1453  0.0627
  156MOL0     C20961   7.647   3.285  -0.861  0.5878 -0.0031  0.2015
  156MOL0     C20962   7.770   3.293  -0.955 -0.9337 -0.0870 -0.0846
  156MOL0     C20963   7.784   3.433  -1.019 -0.0950  0.8942  0.2448
  156MOL0     C20964   7.898   3.425  -1.121 -0.1591  0.5024 -0.1016
  156MOL0     C20965   8.036   3.456  -1.061  0.2694 -0.1000 -0.2676
  156MOL0     C20966   8.143   3.489  -1.165 -0.2810 -0.5842  0.0162
  156MOL0     C20967   8.275   3.500  -1.103 -0.7966 -1.1492 -0.1326
  156MOL0     C20968   8.384   3.558  -1.191  0.1698 -0.7413 -0.5562
  156MOL0    Cl20969   8.548   3.554  -1.126  0.2790 -0.3366  0.3512
  156MOL0     C20970   7.387   3.261  -0.739  0.1211 -0.4112  0.1552
  156MOL0     C20971   7.257   3.261  -0.689 -0.3291  0.3555  0.8548
  156MOL0     O20972   6.910   3.439  -0.852 -0.6268  1.2319 -0.1570
  156MOL0     C20973   6.770   3.280  -0.576 -0.0753 -0.3999  0.1578
  156MOL0     C20974   6.642   3.261  -0.524  0.3986  1.0862  0.2566
  156MOL0     N20975   6.175   3.816  -0.186  0.1315 -0.4117 -0.2977
  156MOL0     N20976   6.062   3.875  -0.203  0.5550 -0.0004 -0.0943
  156MOL0     C20977   5.148   3.471   0.542 -0.1005 -0.0585 -0.0340
  156MOL0     C20978   5.066   3.395   0.627  0.1092  0.0545 -0.4668
  156MOL0     C20979   4.813   3.331   0.999 -0.0626 -1.0011  0.6856
  156MOL0     C20980   4.785   3.203   0.943 -0.5296 -0.2336 -0.3417
  156MOL0     C20981   4.684   3.123   0.995 -0.2804 -0.4351  0.2792
  156MOL0     C20982   4.595   3.162   1.093 -0.3831 -0.4765 -0.1015
  156MOL0     O20983   4.498   3.076   1.128 -0.2946 -0.5873 -0.0013
  156MOL0     C20984   4.383   3.138   1.188  0.5183  0.3496  0.1587
  156MOL0     C20985   4.265   3.035   1.196 -0.4440  0.3555 -0.6596
  156MOL0     C20986   4.127   3.098   1.242  0.1147 -0.0857  0.4512
  156MOL0     C20987   4.123   3.100   1.392  0.2908 -1.0413  0.0582
  156MOL0     C20988   3.991   3.168   1.435 -0.0888 -0.1017  0.2923
  156MOL0     C20989   3.902   3.211   1.509 -0.8126 -0.5100  0.5048
  156MOL0     C20990   4.618   3.293   1.148  0.3790 -0.1256  0.1237
  156MOL0     C20991   4.725   3.376   1.108 -0.2594  0.3716  1.0683
  156MOL0     C20992   4.746   3.499   1.178  0.8273 -0.2215 -0.1347
  156MOL0     H20993   5.230   3.491   0.910  3.2992  2.1142 -0.3860
  156MOL0     H20994   5.353   3.635   0.754  1.4079 -0.9825 -0.0790
  156MOL0     H20995   5.319   3.511   0.311  0.4071 -0.3066  0.6281
  156MOL0     H20996   5.203   3.633   0.315 -0.0253 -2.1783 -1.8614
  156MOL0     H20997   5.480   3.731   0.348 -0.4748 -0.8023  2.2598
  156MOL0     H20998   5.337   3.812   0.269  0.5187  1.1405  0.2091
  156MOL0     H20999   5.363   3.648   0.090  0.0611  2.0461 -1.6199
  156MOL0     H21000   5.496   3.565   0.174  0.3634  1.8628  3.6624
  156MOL0     H21001   5.508   3.858   0.085  2.6287  0.8850 -0.0493
  156MOL0     H21002   5.643   3.771   0.144 -0.1408  3.5877  0.4642
  156MOL0     H21003   5.622   3.616  -0.034  0.4637 -0.1354 -0.1785
  156MOL0     H21004   5.482   3.719  -0.105 -0.8678 -1.1816  0.9708
  156MOL0     H21005   5.659   3.909  -0.136 -0.4373  0.8314  1.5621
  156MOL0     H21006   5.772   3.804  -0.059 -2.5884 -2.9387  1.3378
  156MOL0     H21007   5.641   3.770  -0.333 -0.6682  3.3957  2.2674
  156MOL0     H21008   5.753   3.650  -0.270 -2.0829 -0.7052 -1.2004
  156MOL0     H21009   5.854   3.832  -0.436 -3.3092 -0.9751 -0.2315
  156MOL0     H21010   5.833   3.941  -0.300 -0.2864  0.4882  1.5382
  156MOL0     H21011   6.000   3.580  -0.328 -0.2450 -0.0716 -0.0907
  156MOL0     H21012   6.368   3.642  -0.195 -1.2354  1.6665 -0.6940
  156MOL0     H21013   6.256   3.542  -0.111  1.8062 -1.1062 -0.8940
  156MOL0     H21014   6.169   3.438  -0.313 -1.6475  2.4168 -0.8412
  156MOL0     H21015   6.270   3.539  -0.414  0.6065 -0.5655 -0.5144
  156MOL0     H21016   6.405   3.367  -0.210 -0.4168 -1.3645  0.0721
  156MOL0     H21017   6.477   3.448  -0.348 -0.9143 -1.1158 -3.9503
  156MOL0     H21018   6.272   3.234  -0.377  1.5216 -0.6856  1.3933
  156MOL0     H21019   6.445   3.190  -0.354  0.2658 -2.4459 -2.8220
  156MOL0     H21020   6.459   3.419  -0.754  0.9383 -2.5092 -2.3141
  156MOL0     H21021   6.660   3.430  -0.855 -2.2928  1.5679 -0.0685
  156MOL0     H21022   7.086   3.340  -0.972 -1.6245  0.1937  1.6094
  156MOL0     H21023   7.305   3.372  -1.054 -0.2936  1.4570  0.3097
  156MOL0     H21024   7.667   3.338  -0.767 -0.3811 -3.0426  2.2529
  156MOL0     H21025   7.627   3.180  -0.838 -2.0854  0.6668  1.3641
  156MOL0     H21026   7.857   3.294  -0.888  0.2308  1.5551 -1.5229
  156MOL0     H21027   7.765   3.218  -1.033  3.4823  0.4420 -1.1740
  156MOL0     H21028   7.694   3.458  -1.077 -0.4632 -1.3717 -0.2546
  156MOL0     H21029   7.820   3.507  -0.947  1.2600  2.2525 -1.7261
  156MOL0     H21030   7.866   3.499  -1.196 -1.7463 -0.4932 -0.4715
  156MOL0     H21031   7.901   3.322  -1.157 -1.6633  0.3715  0.0765
  156MOL0     H21032   8.065   3.377  -0.990  2.5126 -1.7573 -2.8195
  156MOL0     H21033   8.019   3.539  -0.992 -2.6635 -1.4063  0.7650
  156MOL0     H21034   8.142   3.421  -1.250  0.0912  1.3918 -1.6590
  156MOL0     H21035   8.118   3.584  -1.214 -0.2122  0.1105  1.2904
  156MOL0     H21036   8.308   3.397  -1.086 -1.6365 -1.5824 -1.0446
  156MOL0     H21037   8.274   3.556  -1.009 -0.8990  1.3595 -1.5623
  156MOL0     H21038   8.380   3.507  -1.288  0.7270 -1.5780 -0.1494
  156MOL0     H21039   8.368   3.665  -1.204  1.8747 -0.1583  1.6250
  156MOL0     H21040   7.466   3.233  -0.671 -0.0416  1.5630  1.2365
  156MOL0     H21041   7.247   3.236  -0.584 -1.2580 -0.4560  0.5906
  156MOL0     H21042   6.858   3.238  -0.529 -0.4926 -0.4689  0.8786
  156MOL0     H21043   6.643   3.199  -0.435  1.4220 -2.5787 -2.0753
  156MOL0     H21044   5.126   3.456   0.437 -0.3617 -0.1210  0.0285
  156MOL0     H21045   4.982   3.331   0.602 -2.0009  1.1968  2.9720
  156MOL0     H21046   4.851   3.160   0.869  1.9460  0.2564  1.4685
  156MOL0     H21047   4.669   3.022   0.957 -0.0045 -1.2773  2.2538
  156MOL0     H21048   4.340   3.215   1.122 -2.1131 -0.1286  1.2089
  156MOL0     H21049   4.405   3.185   1.284  1.0169 -1.7344  1.1069
  156MOL0     H21050   4.300   2.955   1.263  1.1640  0.3898 -1.4135
  156MOL0     H21051   4.253   2.989   1.098 -1.2821  0.3665 -0.5678
  156MOL0     H21052   4.050   3.036   1.195  1.2375 -1.9957  1.0083
  156MOL0     H21053   4.122   3.200   1.203 -2.4226 -0.6815 -1.0156
  156MOL0     H21054   4.130   3.001   1.437  3.5210 -1.1255 -0.3760
  156MOL0     H21055   4.199   3.156   1.447 -0.7888  0.0639  0.4727
  156MOL0     H21056   3.814   3.235   1.565 -0.3472  1.2520  0.5153
  156MOL0     H21057   4.559   3.334   1.229  1.6368  0.4347  0.7895
  156MOL0     H21058   4.745   3.598   1.130  0.2501 -0.1354  0.0462
  156MOL0     H21059   4.669   3.510   1.255  0.3438 -2.1093 -0.3007
  156MOL0     H21060   4.839   3.488   1.235  0.4005  1.3743  0.9461
  157MOL0     O21061   7.251   7.452   8.725 -0.2541 -0.0363  0.0314
  157MOL0     C21062   7.233   7.445   8.602 -0.0491 -0.0012 -0.7380
  157MOL0     O21063   7.315   7.499   8.504  0.8190  0.0983  0.4522
  157MOL0     C21064   7.445   7.510   8.529 -0.1453 -0.1073  0.1344
  157MOL0     C21065   7.502   7.600   8.625  0.1800 -0.5734  0.1295
  157MOL0     C21066   7.635   7.620   8.646  0.9750 -0.2801 -0.0551
  157MOL0     C21067   7.720   7.559   8.554 -0.0351  0.9620  0.0186
  157MOL0     O21068   7.850   7.586   8.562  0.7237 -0.1380  0.1006
  157MOL0     C21069   7.915   7.616   8.437  0.0821 -0.1426 -0.2861
  157MOL0     C21070   8.035   7.696   8.485 -0.3263  0.0497 -0.5473
  157MOL0     C21071   8.159   7.606   8.524 -0.0616  0.8175  0.5877
  157MOL0     C21072   8.218   7.539   8.403  0.5802 -0.3992 -0.2091
  157MOL0     C21073   8.291   7.412   8.435  0.2775 -0.2281 -0.2697
  157MOL0     C21074   8.390   7.406   8.550 -0.4472  0.4650 -0.1504
  157MOL0     C21075   8.515   7.472   8.528 -0.7941 -0.5355 -0.0816
  157MOL0     C21076   8.606   7.451   8.647 -0.5811  0.7347  0.1821
  157MOL0     N21077   8.729   7.525   8.650  0.2669 -0.1667 -0.2341
  157MOL0     C21078   8.755   7.644   8.719 -0.9328  0.5285  0.4944
  157MOL0     C21079   8.886   7.663   8.697  0.2398  0.1184 -0.5100
  157MOL0     C21080   8.953   7.775   8.763  0.1820  0.4365  0.4229
  157MOL0     C21081   9.103   7.767   8.743 -0.5553  0.3674 -0.1691
  157MOL0     C21082   9.152   7.834   8.624  0.7965  0.3497  0.5323
  157MOL0     C21083   9.163   7.989   8.634  0.0795  0.5358  0.4679
  157MOL0     O21084   9.214   8.032   8.511 -0.5831 -0.0841 -0.1870
  157MOL0     C21085   9.346   8.069   8.502 -0.3755  0.8897 -0.1118
  157MOL0     C21086   9.389   8.119   8.378 -0.2734 -0.4206  0.0770
  157MOL0     C21087   9.520   8.145   8.353 -0.2284  0.4319  0.0851
  157MOL0     C21088   9.619   8.100   8.443  0.4572 -0.6718 -0.4594
  157MOL0     C21089   9.752   8.143   8.426 -0.3222 -0.0406 -1.0230
  157MOL0     O21090   9.783   8.212   8.312 -0.4817  0.1280 -0.0916
  157MOL0     C21091   9.913   8.225   8.282  0.0017  0.1072 -0.3566
  157MOL0     C21092   9.976   8.111   8.228 -0.0717  0.0908  0.5540
  157MOL0     C21093  10.107   8.124   8.181 -0.0587  0.2684  0.1963
  157MOL0     C21094  10.180   8.240   8.191 -0.5570 -1.0858  0.1442
  157MOL0     O21095  10.314   8.252   8.142  0.8560 -0.3212 -0.2085
  157MOL0     C21096  10.369   8.139   8.083 -0.1889  0.7997 -0.2789
  157MOL0     C21097  10.516   8.173   8.085 -0.7662  0.7982  0.2189
  157MOL0     C21098  10.567   8.288   7.998  0.7406 -0.3315  0.1736
  157MOL0     C21099  10.575   8.278   7.846  0.1296 -0.4052 -0.1121
  157MOL0     C21100  10.655   8.160   7.796  0.5271 -0.3138  0.9068
  157MOL0     C21101  10.791   8.135   7.855 -0.6604  0.5696 -0.0281
  157MOL0     C21102  10.885   8.261   7.865 -0.3821  0.2778 -0.5671
  157MOL0     C21103  11.011   8.237   7.954  0.5042 -0.0173  0.7289
  157MOL0    Cl21104  10.963   8.278   8.122 -0.1559 -0.1301  0.0479
  157MOL0     C21105  10.113   8.356   8.244  0.3729 -0.2474  0.2703
  157MOL0     C21106   9.982   8.350   8.286 -0.1731 -0.2159 -0.3082
  157MOL0     O21107   9.833   8.107   8.518  0.2784 -0.5611 -0.3389
  157MOL0     C21108   9.572   8.036   8.558  0.4448  0.2447  0.1878
  157MOL0     C21109   9.440   8.025   8.589 -0.3145  0.3241 -0.0814
  157MOL0     N21110   8.934   7.562   8.623 -0.7616 -0.1841  0.4493
  157MOL0     N21111   8.845   7.486   8.586  0.0673  0.5433 -0.0787
  157MOL0     C21112   7.669   7.479   8.451  0.1333 -0.0405  0.5534
  157MOL0     C21113   7.535   7.451   8.440 -0.2228  0.7141  0.2101
  157MOL0     C21114   7.104   7.381   8.546  0.2182 -0.2360 -0.1622
  157MOL0     C21115   7.103   7.348   8.409 -0.6467  0.4088 -0.5362
  157MOL0     C21116   6.992   7.286   8.348 -0.3706 -1.1057  0.6694
  157MOL0     C21117   6.883   7.253   8.420 -0.0851 -1.0475  0.1474
  157MOL0     O21118   6.775   7.188   8.372  0.4024 -0.1869  0.4213
  157MOL0     C21119   6.785   7.059   8.312  0.2165  0.0157  0.1415
  157MOL0     C21120   6.824   6.953   8.416 -0.9110 -0.2014 -0.5069
  157MOL0     C21121   6.977   6.922   8.414 -0.8048  0.1242 -0.0651
  157MOL0     C21122   7.026   6.848   8.291 -0.1538  0.1877  1.0565
  157MOL0     C21123   7.166   6.817   8.286  0.0777 -0.2511  1.3355
  157MOL0     C21124   7.279   6.793   8.256  0.0383 -0.2822 -0.3269
  157MOL0     C21125   6.889   7.274   8.558  0.5389  0.0402 -0.5812
  157MOL0     C21126   6.987   7.355   8.620  0.0885  0.5880  0.9212
  157MOL0     C21127   6.967   7.389   8.764 -0.4248  0.0113 -0.8606
  157MOL0     H21128   7.431   7.639   8.697 -0.8791 -3.4607  0.8120
  157MOL0     H21129   7.686   7.684   8.717  0.7161 -0.3808  0.2244
  157MOL0     H21130   7.950   7.522   8.392  1.7241  0.6415 -0.7190
  157MOL0     H21131   7.847   7.671   8.371 -0.4409 -0.1182  0.2621
  157MOL0     H21132   8.003   7.760   8.567  0.0919 -2.9726  2.1964
  157MOL0     H21133   8.068   7.763   8.406  2.1360  0.2244  0.5376
  157MOL0     H21134   8.123   7.529   8.593 -1.4248  1.5143  0.7065
  157MOL0     H21135   8.238   7.662   8.575 -0.8349 -0.1202  2.9533
  157MOL0     H21136   8.142   7.504   8.333  2.2722 -3.0139 -0.8778
  157MOL0     H21137   8.279   7.616   8.355 -0.6127 -0.0987 -1.2841
  157MOL0     H21138   8.215   7.342   8.473  0.7230 -1.2154 -1.1280
  157MOL0     H21139   8.349   7.370   8.352 -1.4919 -2.0857 -0.6523
  157MOL0     H21140   8.346   7.450   8.641  0.5314 -0.4368  0.7841
  157MOL0     H21141   8.414   7.302   8.575  1.5350  0.2108 -2.7763
  157MOL0     H21142   8.493   7.578   8.507  2.5444 -0.1179 -2.2442
  157MOL0     H21143   8.565   7.424   8.444 -0.7673 -1.2736  0.3505
  157MOL0     H21144   8.553   7.486   8.736  1.0180  0.6362  1.2165
  157MOL0     H21145   8.619   7.344   8.661 -0.3068  0.9473  1.6955
  157MOL0     H21146   8.684   7.698   8.781 -0.3495  0.1646  1.5011
  157MOL0     H21147   8.923   7.877   8.734  0.9708  0.5137 -0.1266
  157MOL0     H21148   8.930   7.770   8.870 -0.3714 -0.4886  0.2731
  157MOL0     H21149   9.155   7.814   8.827 -2.3965  0.5880  0.9073
  157MOL0     H21150   9.134   7.662   8.744 -1.7458 -0.0242  1.6320
  157MOL0     H21151   9.082   7.816   8.542 -0.6481  0.1715  1.7633
  157MOL0     H21152   9.251   7.795   8.595  0.3989 -1.6385  1.6283
  157MOL0     H21153   9.223   8.018   8.720  1.5076 -0.2700 -0.2218
  157MOL0     H21154   9.059   8.024   8.643 -0.4652  0.2972 -3.2003
  157MOL0     H21155   9.325   8.161   8.301  0.6956 -0.0896 -0.5495
  157MOL0     H21156   9.552   8.207   8.270 -1.0954 -0.1313 -0.6933
  157MOL0     H21157   9.919   8.019   8.221 -1.2788  0.8946 -0.8017
  157MOL0     H21158  10.132   8.032   8.128 -1.3915  0.9739 -1.7910
  157MOL0     H21159  10.354   8.053   8.149 -0.4494  1.0361 -0.0254
  157MOL0     H21160  10.329   8.109   7.986 -0.2499  0.0148 -0.0190
  157MOL0     H21161  10.545   8.207   8.185  0.8456  3.8763 -1.2015
  157MOL0     H21162  10.570   8.077   8.088 -1.3731  0.4656  1.7997
  157MOL0     H21163  10.490   8.364   8.015 -0.4669 -1.0369 -1.8793
  157MOL0     H21164  10.657   8.337   8.038 -0.9126  0.4065  3.3288
  157MOL0     H21165  10.618   8.369   7.802 -0.8125 -0.0281 -0.2881
  157MOL0     H21166  10.472   8.266   7.810 -0.4693  0.8911  1.0748
  157MOL0     H21167  10.655   8.179   7.688 -0.8650  1.7732  1.2047
  157MOL0     H21168  10.604   8.066   7.818  1.6122 -1.2361 -0.3573
  157MOL0     H21169  10.775   8.104   7.959 -1.4933  1.6595  0.1890
  157MOL0     H21170  10.844   8.059   7.797  0.2044  2.3436 -1.6439
  157MOL0     H21171  10.828   8.350   7.895 -0.7381  0.4339 -1.6651
  157MOL0     H21172  10.901   8.280   7.759 -1.9910 -2.5520 -1.4248
  157MOL0     H21173  11.038   8.131   7.959 -1.5667 -0.5877  0.6048
  157MOL0     H21174  11.095   8.302   7.928 -1.2167  2.7957  1.8045
  157MOL0     H21175  10.173   8.446   8.237 -0.0188 -0.0148 -0.1154
  157MOL0     H21176   9.923   8.436   8.315 -3.4755 -2.5120  0.4098
  157MOL0     H21177   9.640   8.003   8.636  0.7105  0.5366  0.0801
  157MOL0     H21178   9.425   7.974   8.684  2.0974 -0.9311 -0.2851
  157MOL0     H21179   7.735   7.426   8.382  1.3683 -0.2145  1.8314
  157MOL0     H21180   7.512   7.387   8.355  1.9250  1.3277 -0.9194
  157MOL0     H21181   7.186   7.356   8.340 -0.8517  0.2134 -0.8052
  157MOL0     H21182   6.991   7.265   8.241 -1.3202  0.4751  0.3211
  157MOL0     H21183   6.846   7.051   8.222 -2.5523 -1.6770 -1.7551
  157MOL0     H21184   6.687   7.025   8.277  0.8275 -1.3180 -0.3218
  157MOL0     H21185   6.773   6.862   8.383 -1.8590  1.5307 -4.4947
  157MOL0     H21186   6.798   6.976   8.520 -0.6551  0.4309 -0.5787
  157MOL0     H21187   7.000   6.865   8.504 -1.7527 -0.1152  0.0374
  157MOL0     H21188   7.037   7.013   8.423  0.0315 -0.6267  3.5308
  157MOL0     H21189   6.958   6.762   8.282 -0.5961  0.6202  0.1135
  157MOL0     H21190   7.015   6.906   8.199 -1.0639 -1.5773 -0.0100
  157MOL0     H21191   7.384   6.780   8.236  0.1319  0.1089 -0.0997
  157MOL0     H21192   6.806   7.240   8.618  0.5668 -0.2344 -0.6961
  157MOL0     H21193   7.014   7.479   8.805 -2.5704 -0.0233  1.9633
  157MOL0     H21194   6.860   7.396   8.787  0.0056 -0.6125  1.5878
  157MOL0     H21195   6.996   7.300   8.820 -0.7948  2.4004  3.5898
  158MOL0     O21196   5.885   8.071   5.477 -0.1356  0.2239 -0.5470
  158MOL0     C21197   5.903   8.174   5.408  0.1270  0.1993  0.1315
  158MOL0     O21198   6.015   8.195   5.328  0.3727  0.1494 -1.1610
  158MOL0     C21199   6.135   8.129   5.361  0.4976 -0.0190 -0.3155
  158MOL0     C21200   6.185   8.043   5.267 -1.3721  0.0522  0.5950
  158MOL0     C21201   6.329   8.001   5.278 -0.0967  0.9643  0.0705
  158MOL0     C21202   6.413   8.047   5.375 -1.6646  1.0273  0.3095
  158MOL0     O21203   6.546   8.007   5.371 -0.2030 -1.0569  0.6630
  158MOL0     C21204   6.620   8.015   5.492  0.8493 -0.0122  0.0744
  158MOL0     C21205   6.769   7.980   5.481 -0.0201  0.4497 -0.3658
  158MOL0     C21206   6.790   7.831   5.449 -0.5665 -0.1087  1.0514
  158MOL0     C21207   6.927   7.799   5.411  0.4363 -0.0185 -0.0910
  158MOL0     C21208   6.945   7.647   5.419 -0.1744  0.4169  0.0924
  158MOL0     C21209   7.092   7.615   5.389  0.3495 -0.9410 -0.5772
  158MOL0     C21210   7.138   7.471   5.384  0.2120  0.2095 -0.3904
  158MOL0     C21211   7.292   7.463   5.409 -0.0416  0.2353  0.9461
  158MOL0     N21212   7.334   7.329   5.424 -0.1877 -0.1979 -0.8603
  158MOL0     C21213   7.312   7.213   5.350  0.7236  0.5584 -0.0399
  158MOL0     C21214   7.356   7.113   5.430  0.0132 -0.4578 -0.3162
  158MOL0     C21215   7.373   6.965   5.392  0.3426  0.6051 -0.0784
  158MOL0     C21216   7.524   6.918   5.419  0.2660 -0.2334  0.5262
  158MOL0     C21217   7.614   6.977   5.320 -0.0741 -0.5262  0.6366
  158MOL0     C21218   7.622   6.903   5.188  0.0607  0.3450 -0.5582
  158MOL0     O21219   7.684   6.983   5.075  0.1922 -0.8774  0.1176
  158MOL0     C21220   7.817   6.947   5.061 -0.5265 -0.4303  0.1443
  158MOL0     C21221   7.913   6.989   5.151 -0.8337 -0.5485  0.0104
  158MOL0     C21222   8.053   6.969   5.121  0.5138  0.3256  0.5926
  158MOL0     C21223   8.095   6.908   5.004 -0.8744  1.0595 -0.1900
  158MOL0     C21224   8.235   6.891   4.967 -0.0835  0.5795 -0.1026
  158MOL0     O21225   8.329   6.932   5.060  0.5416 -0.4665 -0.3785
  158MOL0     C21226   8.459   6.900   5.070  0.6209  0.3360  1.0253
  158MOL0     C21227   8.525   6.798   4.997  0.2455  0.8879 -0.0307
  158MOL0     C21228   8.662   6.762   5.020  0.2329  0.0413  0.7724
  158MOL0     C21229   8.734   6.830   5.120  0.2423  0.6998 -0.5085
  158MOL0     O21230   8.868   6.808   5.144  0.2889  0.0262 -0.2693
  158MOL0     C21231   8.946   6.760   5.037 -0.1636  0.7273  0.5043
  158MOL0     C21232   9.098   6.772   5.079  0.0171 -0.4090  0.0911
  158MOL0     C21233   9.132   6.916   5.047 -0.8889 -0.1528 -0.5407
  158MOL0     C21234   9.285   6.950   5.094  0.7627  0.5203  1.3511
  158MOL0     C21235   9.323   7.092   5.056 -0.6369 -0.3935 -0.0292
  158MOL0     C21236   9.272   7.152   4.927 -0.2511 -0.3763 -0.0581
  158MOL0     C21237   9.340   7.289   4.908 -0.1664 -0.3474 -0.3568
  158MOL0     C21238   9.301   7.365   4.778  0.2681 -0.4019 -0.5348
  158MOL0    Cl21239   9.144   7.441   4.806  0.0344  0.0132  0.3452
  158MOL0     C21240   8.669   6.939   5.193  0.6727  0.1983  0.9582
  158MOL0     C21241   8.535   6.966   5.167  0.0287  0.6874  0.3576
  158MOL0     O21242   8.259   6.854   4.852 -0.3497 -0.2514 -0.7599
  158MOL0     C21243   7.991   6.854   4.924 -0.9976  0.4156  0.0894
  158MOL0     C21244   7.855   6.875   4.947 -0.0872  0.2601  0.1674
  158MOL0     N21245   7.392   7.174   5.548  0.1047  0.8532 -0.3546
  158MOL0     N21246   7.380   7.299   5.549  0.2479 -0.9678  0.0572
  158MOL0     C21247   6.358   8.144   5.463 -0.0200  0.3968 -0.2061
  158MOL0     C21248   6.221   8.182   5.460 -0.2363  0.0268 -1.0403
  158MOL0     C21249   5.793   8.282   5.401  0.6857  1.0066  0.2381
  158MOL0     C21250   5.681   8.263   5.477 -0.6262  0.7093 -0.6815
  158MOL0     C21251   5.595   8.369   5.506 -0.2273 -0.0041  0.5786
  158MOL0     C21252   5.610   8.494   5.445 -0.0665 -0.9812  0.7132
  158MOL0     O21253   5.516   8.588   5.476 -0.5619 -0.2073 -0.0450
  158MOL0     C21254   5.516   8.716   5.412  0.2005  0.4122  0.5528
  158MOL0     C21255   5.470   8.693   5.265 -0.4674 -0.5503  0.4398
  158MOL0     C21256   5.317   8.694   5.250 -0.5606 -0.3149  0.2401
  158MOL0     C21257   5.258   8.579   5.340 -0.6593  0.0409  0.1800
  158MOL0     C21258   5.112   8.586   5.335 -0.1657  0.0549  0.7321
  158MOL0     C21259   4.995   8.609   5.331 -1.1057  0.5946  0.2070
  158MOL0     C21260   5.719   8.514   5.350 -0.5610  0.9313 -1.2026
  158MOL0     C21261   5.816   8.409   5.336 -0.1188  0.3281 -1.2235
  158MOL0     C21262   5.927   8.437   5.237  0.1965  0.3595  0.1289
  158MOL0     H21263   6.135   8.011   5.177 -1.3567 -1.6969  1.1736
  158MOL0     H21264   6.378   7.955   5.193 -0.4004  1.2722 -0.2747
  158MOL0     H21265   6.640   8.115   5.531  1.5677 -0.4652  0.9042
  158MOL0     H21266   6.572   7.951   5.566  0.4069 -0.0633 -0.2578
  158MOL0     H21267   6.811   7.988   5.582 -0.2856  0.8983 -0.2869
  158MOL0     H21268   6.822   8.042   5.409  2.8149 -0.2539  0.9738
  158MOL0     H21269   6.728   7.798   5.365 -0.1128  0.3122  0.5433
  158MOL0     H21270   6.766   7.779   5.543  1.6074  0.7728  2.1625
  158MOL0     H21271   6.937   7.853   5.316  1.0780  5.5585  2.6981
  158MOL0     H21272   7.004   7.840   5.478  2.4765 -2.0271 -1.0729
  158MOL0     H21273   6.917   7.608   5.517  0.2863  0.5002  0.2601
  158MOL0     H21274   6.883   7.603   5.340 -0.0612  0.1848  0.1304
  158MOL0     H21275   7.115   7.669   5.296 -1.7867 -0.9914 -1.1696
  158MOL0     H21276   7.137   7.668   5.473 -1.4246  0.1322 -0.2666
  158MOL0     H21277   7.111   7.431   5.286 -1.7481 -0.8841  0.5195
  158MOL0     H21278   7.097   7.403   5.460  3.4797 -1.0430  0.4124
  158MOL0     H21279   7.342   7.516   5.328 -2.0026  0.3242 -0.2720
  158MOL0     H21280   7.324   7.515   5.500  0.8735 -2.3358  2.1828
  158MOL0     H21281   7.281   7.204   5.246  1.4275  2.6173 -0.4894
  158MOL0     H21282   7.303   6.898   5.443  0.2690  1.6969  1.3365
  158MOL0     H21283   7.350   6.956   5.286 -0.6352  0.0604  0.1670
  158MOL0     H21284   7.552   6.935   5.524  1.5422 -3.9805  0.9438
  158MOL0     H21285   7.518   6.809   5.411 -1.3472 -0.0927 -0.7552
  158MOL0     H21286   7.712   6.968   5.368  1.5232  0.9905 -2.0781
  158MOL0     H21287   7.603   7.082   5.292  0.2089 -0.3594  1.1292
  158MOL0     H21288   7.517   6.882   5.163 -0.8874  0.7210  2.6964
  158MOL0     H21289   7.676   6.807   5.192 -0.6020 -0.0799 -1.4454
  158MOL0     H21290   7.875   7.049   5.232  2.3390 -0.2086  1.4186
  158MOL0     H21291   8.130   7.001   5.190  2.2330  2.8801 -2.2891
  158MOL0     H21292   8.469   6.733   4.931  1.2275 -0.3510  0.3328
  158MOL0     H21293   8.703   6.676   4.968 -0.6857 -1.1113  1.9033
  158MOL0     H21294   8.918   6.656   5.019 -0.3516  0.7181  0.8404
  158MOL0     H21295   8.928   6.825   4.951  0.2639  2.8267  1.9504
  158MOL0     H21296   9.104   6.741   5.184 -0.2451 -1.9484 -0.3206
  158MOL0     H21297   9.156   6.696   5.024 -0.0037 -2.9226  3.2228
  158MOL0     H21298   9.129   6.931   4.939  0.8049  1.1953 -0.4515
  158MOL0     H21299   9.061   6.976   5.105  0.2243  1.7155 -1.0280
  158MOL0     H21300   9.345   6.874   5.042 -2.3869 -1.3374  0.1505
  158MOL0     H21301   9.298   6.932   5.201  1.8890 -3.8544  0.6675
  158MOL0     H21302   9.432   7.092   5.063 -0.5465  0.9032 -0.9790
  158MOL0     H21303   9.280   7.151   5.137 -0.7153 -2.0455  1.1952
  158MOL0     H21304   9.305   7.085   4.847 -0.3485  1.4012 -1.6704
  158MOL0     H21305   9.163   7.164   4.938 -0.1142 -0.6053  1.9172
  158MOL0     H21306   9.447   7.268   4.911 -0.2985 -0.9424  2.4412
  158MOL0     H21307   9.322   7.346   4.999  5.4748  3.0755 -0.8727
  158MOL0     H21308   9.372   7.443   4.750 -2.0699  2.7737  1.6442
  158MOL0     H21309   9.290   7.298   4.692 -0.6277 -0.7204 -0.1928
  158MOL0     H21310   8.730   6.999   5.260 -3.5682  2.1766  3.4861
  158MOL0     H21311   8.489   7.045   5.226  0.6661  1.1016  0.3108
  158MOL0     H21312   8.009   6.805   4.829 -3.4018 -2.3579  0.9275
  158MOL0     H21313   7.781   6.853   4.871  3.2953 -1.6763 -2.9507
  158MOL0     H21314   6.424   8.189   5.537  0.6092 -0.1369 -0.4343
  158MOL0     H21315   6.187   8.262   5.525  0.7925  0.6826 -1.2876
  158MOL0     H21316   5.671   8.169   5.531  0.8880  1.1255  0.4218
  158MOL0     H21317   5.507   8.343   5.564 -0.2339 -2.6362 -0.4712
  158MOL0     H21318   5.614   8.765   5.416 -0.2882  1.8065 -2.1507
  158MOL0     H21319   5.456   8.793   5.461  1.5256  2.3465 -0.7032
  158MOL0     H21320   5.498   8.592   5.236  1.8029 -0.4422  1.9808
  158MOL0     H21321   5.521   8.768   5.204  1.4477 -1.0917  1.2795
  158MOL0     H21322   5.301   8.672   5.144 -0.3147 -1.4754  0.4274
  158MOL0     H21323   5.275   8.795   5.259 -0.1743  0.0327 -1.4388
  158MOL0     H21324   5.281   8.482   5.295  3.0932 -2.0701  5.6001
  158MOL0     H21325   5.282   8.565   5.446 -3.2962 -0.2207  0.8115
  158MOL0     H21326   4.889   8.626   5.324 -0.7674  4.2933  1.8354
  158MOL0     H21327   5.734   8.600   5.285 -1.4917  0.3618 -2.1930
  158MOL0     H21328   5.943   8.343   5.184  1.3667 -0.8474  2.4813
  158MOL0     H21329   5.896   8.509   5.161  1.6880  0.3822 -0.4862
  158MOL0     H21330   6.018   8.469   5.287 -0.0744  0.1711  0.7568
  159MOL0     O21331   4.632   9.982   4.252 -0.0206  0.7349  0.3266
  159MOL0     C21332   4.620   9.876   4.311 -0.1945 -0.2535  0.2913
  159MOL0     O21333   4.722   9.800   4.350  0.2356 -0.1437  0.3416
  159MOL0     C21334   4.852   9.826   4.331  0.2557 -0.2046 -0.2169
  159MOL0     C21335   4.906   9.868   4.208  0.4225  0.4718 -0.3617
  159MOL0     C21336   5.045   9.885   4.191  0.4706 -0.6340  0.5100
  159MOL0     C21337   5.129   9.877   4.294 -0.0803 -0.3988 -0.2609
  159MOL0     O21338   5.262   9.919   4.298  0.2645  0.1801 -0.1971
  159MOL0     C21339   5.337   9.925   4.176  0.2938 -0.5570  0.7137
  159MOL0     C21340   5.477   9.942   4.227 -0.5437  0.5272 -0.0206
  159MOL0     C21341   5.587   9.967   4.123 -0.4670  0.9807  0.2807
  159MOL0     C21342   5.720   9.944   4.186 -0.0180  1.0342  0.0493
  159MOL0     C21343   5.822  10.003   4.088  0.0664  0.0460  0.7887
  159MOL0     C21344   5.971   9.965   4.126  0.1692  0.1784 -0.6289
  159MOL0     C21345   6.070  10.078   4.100  0.8977  0.5412  0.2301
  159MOL0     C21346   6.215  10.026   4.138 -0.6366  0.2830 -0.0465
  159MOL0     N21347   6.314  10.133   4.124  0.5552  0.0160 -0.2290
  159MOL0     C21348   6.397  10.172   4.220  0.5765  0.2628 -0.5117
  159MOL0     C21349   6.455  10.281   4.174 -0.1670  0.0550 -0.1033
  159MOL0     C21350   6.554  10.366   4.246  0.3010  0.1982 -0.2094
  159MOL0     C21351   6.675  10.279   4.291  0.6657  1.1241 -0.4757
  159MOL0     C21352   6.752  10.218   4.179  0.2241 -0.5921 -0.4262
  159MOL0     C21353   6.891  10.145   4.231 -0.4817  0.5099  0.2125
  159MOL0     O21354   6.925  10.056   4.117 -0.2442 -0.0881 -0.6074
  159MOL0     C21355   7.057  10.032   4.086  0.3611 -0.7877  0.6082
  159MOL0     C21356   7.156  10.036   4.185  0.7959 -0.3460 -0.5274
  159MOL0     C21357   7.286  10.002   4.154 -0.1347  0.5837 -0.3411
  159MOL0     C21358   7.324   9.965   4.019  0.7779 -0.0619 -0.0306
  159MOL0     C21359   7.465   9.927   3.991  0.2595 -0.6761  0.3070
  159MOL0     O21360   7.550   9.898   4.097 -0.0448 -1.2534 -0.2693
  159MOL0     C21361   7.682   9.870   4.078 -0.1763 -0.0083 -0.2032
  159MOL0     C21362   7.774   9.971   4.099 -1.0740  0.1580 -0.5467
  159MOL0     C21363   7.913   9.945   4.080 -0.6628  0.3417 -0.7006
  159MOL0     C21364   7.953   9.810   4.052  0.0102  0.2895  0.3357
  159MOL0     O21365   8.081   9.778   4.019 -0.0105  0.4131  0.2389
  159MOL0     C21366   8.111   9.657   3.940 -0.6221  0.3776 -0.4152
  159MOL0     C21367   8.256   9.661   3.895 -0.1791 -0.0617 -0.1482
  159MOL0     C21368   8.279   9.793   3.817  0.7540 -0.2787  0.8530
  159MOL0     C21369   8.418   9.776   3.741 -0.3001 -0.2442  0.1877
  159MOL0     C21370   8.529   9.814   3.847 -0.7483  0.0729 -0.3266
  159MOL0     C21371   8.650   9.831   3.759  0.1827  0.6960  0.2549
  159MOL0     C21372   8.774   9.864   3.833  0.0982  0.5669 -0.2055
  159MOL0     C21373   8.888   9.861   3.735 -0.6527  0.7303 -0.5885
  159MOL0    Cl21374   9.051   9.889   3.828 -0.4348 -0.1903 -0.1963
  159MOL0     C21375   7.856   9.706   4.037 -0.4060 -0.1672 -0.6482
  159MOL0     C21376   7.722   9.740   4.045  0.2079 -0.0040  0.3617
  159MOL0     O21377   7.507   9.946   3.873 -0.0126  0.0851 -0.4275
  159MOL0     C21378   7.220   9.978   3.919  0.2034  0.4326  0.8913
  159MOL0     C21379   7.087  10.003   3.956 -0.2905 -0.4734  0.6509
  159MOL0     N21380   6.424  10.307   4.041  0.0890  0.4221 -0.2699
  159MOL0     N21381   6.329  10.216   4.015  0.6903  0.0764 -0.6737
  159MOL0     C21382   5.073   9.838   4.421  0.2784  0.0881  0.5398
  159MOL0     C21383   4.943   9.797   4.435  0.8050  0.5605 -0.2835
  159MOL0     C21384   4.495   9.844   4.369  0.6134 -0.5027 -0.3603
  159MOL0     C21385   4.486   9.835   4.510  0.2881 -0.9208  0.0316
  159MOL0     C21386   4.366   9.834   4.566  0.0575  0.1739  0.1011
  159MOL0     C21387   4.252   9.807   4.496 -0.3135 -0.4691  0.3129
  159MOL0     O21388   4.145   9.773   4.579  0.6094 -0.7113  0.5123
  159MOL0     C21389   4.008   9.738   4.547  0.6774  0.0752  0.9280
  159MOL0     C21390   3.912   9.860   4.568 -0.1332  0.9226 -0.4102
  159MOL0     C21391   3.872   9.933   4.436 -0.0799  0.3757 -0.0883
  159MOL0     C21392   3.824  10.066   4.468  0.3048  0.0475  0.5012
  159MOL0     C21393   3.707  10.065   4.556 -0.7592 -0.8232 -0.5081
  159MOL0     C21394   3.607  10.054   4.631  0.7785 -0.3371 -0.1649
  159MOL0     C21395   4.258   9.807   4.358 -0.1559  0.0632 -0.1678
  159MOL0     C21396   4.376   9.827   4.293  0.3233  0.4033  0.0917
  159MOL0     C21397   4.380   9.829   4.140 -0.0640  0.2738 -0.2063
  159MOL0     H21398   4.836   9.890   4.127  1.0889 -0.8281 -1.3400
  159MOL0     H21399   5.077   9.922   4.094 -2.3157  0.3669 -0.1207
  159MOL0     H21400   5.325   9.839   4.109 -0.0876 -2.3261  2.9118
  159MOL0     H21401   5.309  10.023   4.136  5.2956  1.3762  1.2980
  159MOL0     H21402   5.495   9.853   4.288  1.2963  1.3473  0.7085
  159MOL0     H21403   5.468  10.023   4.300 -1.4599  0.2511  0.1890
  159MOL0     H21404   5.582  10.066   4.076 -0.4360  0.6150 -0.5120
  159MOL0     H21405   5.574   9.894   4.042 -0.8788  0.3314  0.9216
  159MOL0     H21406   5.728   9.986   4.286 -3.3060 -0.0851  0.9085
  159MOL0     H21407   5.746   9.838   4.193  0.5822  1.1271 -0.6479
  159MOL0     H21408   5.797   9.976   3.985  1.0373  0.1810  0.5015
  159MOL0     H21409   5.823  10.111   4.105  1.5813  0.3173 -0.6494
  159MOL0     H21410   5.971   9.921   4.226 -1.1031  0.2668 -0.5766
  159MOL0     H21411   5.997   9.892   4.050 -1.0752  0.5970 -1.4808
  159MOL0     H21412   6.050  10.164   4.164  0.0962  0.6501 -0.1524
  159MOL0     H21413   6.055  10.107   3.996  0.3005 -0.1155  0.1237
  159MOL0     H21414   6.216   9.974   4.234 -0.7157 -1.3845 -0.9036
  159MOL0     H21415   6.237   9.952   4.061  0.5033 -0.5019  0.9936
  159MOL0     H21416   6.423  10.131   4.317 -0.5811  1.9283  0.5477
  159MOL0     H21417   6.595  10.443   4.181  3.0490 -1.1824 -0.2618
  159MOL0     H21418   6.501  10.399   4.336 -2.4862 -0.1015 -1.6231
  159MOL0     H21419   6.742  10.347   4.346  0.9648 -0.5725  1.4021
  159MOL0     H21420   6.644  10.211   4.371  0.6615  1.0940 -0.5025
  159MOL0     H21421   6.775  10.309   4.122 -0.1716  1.9130  3.1113
  159MOL0     H21422   6.689  10.147   4.124 -0.4994 -0.6706  0.4797
  159MOL0     H21423   6.869  10.096   4.327 -2.4335 -1.8511 -1.3115
  159MOL0     H21424   6.970  10.219   4.246  2.5432 -2.2531 -0.8396
  159MOL0     H21425   7.137  10.072   4.286  0.2171  1.8734 -1.3541
  159MOL0     H21426   7.356   9.988   4.235 -0.4706 -1.8238 -0.3974
  159MOL0     H21427   7.737  10.070   4.123  2.0616  1.0444  1.0487
  159MOL0     H21428   7.993  10.017   4.085  0.8628 -1.1690 -1.9527
  159MOL0     H21429   8.106   9.569   4.004  2.5262 -0.2140 -0.8280
  159MOL0     H21430   8.037   9.651   3.859  2.5483 -1.7762 -3.4455
  159MOL0     H21431   8.319   9.668   3.984  0.7815  2.0452 -0.9388
  159MOL0     H21432   8.279   9.581   3.824  0.2990 -0.1186  0.0694
  159MOL0     H21433   8.210   9.786   3.733  1.7902 -0.3763 -0.0061
  159MOL0     H21434   8.273   9.888   3.871  0.8349 -0.3027  0.9062
  159MOL0     H21435   8.426   9.836   3.650  1.6761  0.5223  0.8100
  159MOL0     H21436   8.436   9.673   3.708  1.2442 -0.4303  1.4872
  159MOL0     H21437   8.553   9.735   3.919 -0.8775  0.7236  0.4414
  159MOL0     H21438   8.507   9.904   3.904  1.1871 -0.0119  0.6631
  159MOL0     H21439   8.656   9.745   3.691 -0.8225 -1.2206  2.4506
  159MOL0     H21440   8.636   9.916   3.692 -2.1188  0.4337  0.3382
  159MOL0     H21441   8.788   9.785   3.907  0.3778  2.2923  1.6912
  159MOL0     H21442   8.764   9.962   3.882 -1.6462  0.4728 -0.2973
  159MOL0     H21443   8.891   9.766   3.682  0.0170  0.3292  0.1387
  159MOL0     H21444   8.870   9.939   3.660  0.8453  0.3523 -1.3865
  159MOL0     H21445   7.881   9.603   4.015 -0.1258 -0.2070 -0.1633
  159MOL0     H21446   7.648   9.664   4.022 -1.1860  0.8360  1.8432
  159MOL0     H21447   7.239   9.966   3.813  2.9432  0.5086  1.3149
  159MOL0     H21448   7.007  10.000   3.883  1.0687 -0.2929 -0.9210
  159MOL0     H21449   5.144   9.836   4.503 -1.9212 -1.2227  2.5108
  159MOL0     H21450   4.914   9.742   4.523  2.7490 -1.1255 -0.6156
  159MOL0     H21451   4.574   9.841   4.573  2.1948 -0.4694 -2.5069
  159MOL0     H21452   4.360   9.822   4.674 -1.8108  0.7474  0.1006
  159MOL0     H21453   3.986   9.659   4.619 -1.9250 -0.5362 -0.4374
  159MOL0     H21454   3.988   9.702   4.446 -1.7710 -0.7069  1.6374
  159MOL0     H21455   3.957   9.927   4.642 -0.0277  1.4228 -0.9154
  159MOL0     H21456   3.816   9.829   4.609 -2.0811  5.8096 -0.6400
  159MOL0     H21457   3.791   9.874   4.393 -0.3059 -1.5866  2.7584
  159MOL0     H21458   3.955   9.931   4.364 -0.0110 -0.2535  0.0017
  159MOL0     H21459   3.905  10.128   4.508  1.3500  1.0469 -2.8206
  159MOL0     H21460   3.793  10.115   4.375  0.3220 -0.4189  0.2445
  159MOL0     H21461   3.519  10.043   4.692  0.3161  0.5528 -0.6514
  159MOL0     H21462   4.165   9.786   4.305  0.1894  1.5944 -1.4709
  159MOL0     H21463   4.403   9.729   4.104  0.5077 -0.2288  1.5001
  159MOL0     H21464   4.283   9.859   4.099  0.0188  0.2979 -0.3882
  159MOL0     H21465   4.452   9.899   4.095 -0.6941 -0.8858 -3.2805
  160MOL0     O21466   4.843   3.594   1.835 -0.3300  0.0725  0.4567
  160MOL0     C21467   4.847   3.705   1.788  0.1824 -0.6579  1.0189
  160MOL0     O21468   4.964   3.776   1.778  0.5941  0.7691 -0.0863
  160MOL0     C21469   5.086   3.707   1.784  0.4377  0.3870 -0.5314
  160MOL0     C21470   5.150   3.687   1.904 -0.2872  0.3072 -0.1834
  160MOL0     C21471   5.278   3.626   1.912 -0.4895 -0.9158 -0.2108
  160MOL0     C21472   5.326   3.573   1.796 -0.6633 -0.0319 -0.0550
  160MOL0     O21473   5.451   3.518   1.806 -0.0991  0.4944 -0.1700
  160MOL0     C21474   5.554   3.604   1.757  0.1706 -0.3560 -0.1993
  160MOL0     C21475   5.635   3.518   1.662 -0.7056 -0.7305  0.1567
  160MOL0     C21476   5.783   3.542   1.657 -0.3042 -0.0240  0.9013
  160MOL0     C21477   5.852   3.461   1.555 -1.0406  1.3539  0.2965
  160MOL0     C21478   5.998   3.499   1.553  0.8443 -0.1204 -0.2186
  160MOL0     C21479   6.064   3.423   1.446 -1.4101  0.9112  0.1727
  160MOL0     C21480   6.208   3.450   1.404 -0.5200 -0.2690  0.6049
  160MOL0     C21481   6.244   3.348   1.289 -0.2512  0.4793  0.2581
  160MOL0     N21482   6.372   3.372   1.214  0.0008 -0.5285  0.3256
  160MOL0     C21483   6.435   3.499   1.204  0.2890 -0.4338 -0.1760
  160MOL0     C21484   6.544   3.477   1.134 -0.7251 -0.1712 -0.2203
  160MOL0     C21485   6.634   3.587   1.102  0.5313 -0.5621 -0.3497
  160MOL0     C21486   6.716   3.639   1.227  0.2560 -0.5493 -0.1294
  160MOL0     C21487   6.800   3.541   1.296  1.2630 -0.1449 -0.1407
  160MOL0     C21488   6.893   3.448   1.211  0.1345  0.1503  0.0938
  160MOL0     O21489   6.999   3.393   1.296  0.5228  0.3275 -0.0152
  160MOL0     C21490   7.112   3.458   1.327 -0.1584 -0.5714 -1.5369
  160MOL0     C21491   7.201   3.379   1.396  0.3096  0.5900  0.6689
  160MOL0     C21492   7.320   3.436   1.437 -0.1180 -0.3608  0.2623
  160MOL0     C21493   7.358   3.563   1.397  0.4974 -0.3663  0.2437
  160MOL0     C21494   7.487   3.625   1.443  0.3030  0.2469  0.5126
  160MOL0     O21495   7.525   3.746   1.389  0.2924 -0.2776  0.6598
  160MOL0     C21496   7.651   3.798   1.412 -0.0376 -0.7115  0.6145
  160MOL0     C21497   7.768   3.732   1.366  0.0234 -0.1412  0.3027
  160MOL0     C21498   7.895   3.797   1.378  0.4661 -0.1367  0.4435
  160MOL0     C21499   7.899   3.926   1.425 -0.4731  0.4742 -0.0700
  160MOL0     O21500   8.016   3.998   1.416  0.5452 -0.4381  0.9921
  160MOL0     C21501   8.052   4.089   1.527 -0.5759  0.6724  0.7228
  160MOL0     C21502   8.193   4.145   1.510  0.3723  1.2669  0.3687
  160MOL0     C21503   8.290   4.054   1.597 -0.2487  0.5089 -0.3459
  160MOL0     C21504   8.434   4.095   1.582 -0.4889  0.1727 -0.1370
  160MOL0     C21505   8.526   3.985   1.647 -0.0957 -0.1597  0.5977
  160MOL0     C21506   8.679   4.011   1.610  0.9125  0.3157  0.4438
  160MOL0     C21507   8.742   4.140   1.668  0.7200 -0.1050  0.0412
  160MOL0     C21508   8.893   4.131   1.650 -0.0475 -0.3117 -0.2776
  160MOL0    Cl21509   8.995   4.263   1.721  0.1496 -0.5116  0.3377
  160MOL0     C21510   7.784   3.987   1.473 -0.3058 -0.1965  0.2320
  160MOL0     C21511   7.658   3.927   1.458 -0.4229  0.0995 -1.0871
  160MOL0     O21512   7.545   3.558   1.526 -0.6461 -1.0620 -0.2376
  160MOL0     C21513   7.269   3.638   1.319 -0.5464 -1.0155 -0.2163
  160MOL0     C21514   7.142   3.587   1.294 -1.0412 -0.0698  0.1551
  160MOL0     N21515   6.538   3.347   1.084  0.3915  0.0933 -0.9110
  160MOL0     N21516   6.437   3.287   1.134  0.5316 -0.0268  0.1674
  160MOL0     C21517   5.274   3.595   1.672  0.4503 -1.2155  0.0758
  160MOL0     C21518   5.148   3.659   1.664 -0.1673  0.0148 -0.8761
  160MOL0     C21519   4.717   3.771   1.757  0.0853 -0.4713  0.0308
  160MOL0     C21520   4.683   3.876   1.844  0.6452 -1.3592 -0.5401
  160MOL0     C21521   4.565   3.955   1.825 -0.1247 -0.1536  0.1965
  160MOL0     C21522   4.492   3.928   1.715  0.3425  0.1168  0.6973
  160MOL0     O21523   4.375   3.996   1.702  0.1933 -0.3546 -0.4968
  160MOL0     C21524   4.257   3.923   1.654  0.1314  1.0644 -0.1930
  160MOL0     C21525   4.129   3.998   1.694  0.2558 -0.3074 -0.0284
  160MOL0     C21526   4.007   3.915   1.725  0.5527  0.2472 -0.4780
  160MOL0     C21527   3.868   3.971   1.724 -0.2593 -0.3356 -0.5193
  160MOL0     C21528   3.822   3.978   1.589  0.3155 -1.2785 -0.0056
  160MOL0     C21529   3.786   3.960   1.480  0.6541 -1.0489 -0.3850
  160MOL0     C21530   4.532   3.833   1.621  0.0109 -0.0976 -0.7138
  160MOL0     C21531   4.648   3.753   1.643 -0.1104 -0.5401  0.4946
  160MOL0     C21532   4.686   3.653   1.536 -0.5533 -0.3178 -0.0238
  160MOL0     H21533   5.124   3.732   2.000  1.3833 -2.7681  1.8986
  160MOL0     H21534   5.327   3.605   2.007 -1.9886 -2.5667  0.2386
  160MOL0     H21535   5.515   3.696   1.712 -0.0896  0.1883  1.0750
  160MOL0     H21536   5.629   3.636   1.830 -1.2065  4.5044 -0.5770
  160MOL0     H21537   5.595   3.528   1.561  2.2778 -2.5567 -1.3540
  160MOL0     H21538   5.622   3.413   1.689  1.7367 -1.2656 -0.4788
  160MOL0     H21539   5.815   3.508   1.756  1.4358  0.4750  0.5468
  160MOL0     H21540   5.809   3.647   1.643  0.7549 -0.3276  0.5102
  160MOL0     H21541   5.842   3.354   1.577  2.4187  0.0774 -3.1965
  160MOL0     H21542   5.810   3.476   1.455  3.7946 -3.0046 -2.9365
  160MOL0     H21543   6.014   3.606   1.541 -2.7599  0.7718  1.4991
  160MOL0     H21544   6.041   3.458   1.645 -0.1322 -2.2139 -0.6391
  160MOL0     H21545   6.058   3.314   1.460 -3.6297  0.8955 -0.5212
  160MOL0     H21546   6.001   3.448   1.361 -0.4026  2.7644 -0.0712
  160MOL0     H21547   6.275   3.445   1.490 -0.0005  1.5854  0.3473
  160MOL0     H21548   6.215   3.547   1.354  1.0682 -0.3527  0.6035
  160MOL0     H21549   6.254   3.247   1.328 -0.2780  0.9863  1.6175
  160MOL0     H21550   6.159   3.343   1.220  0.9998 -1.2112 -1.2854
  160MOL0     H21551   6.401   3.598   1.232  3.9680  1.1485 -0.7779
  160MOL0     H21552   6.700   3.557   1.020  1.5707  1.3534 -0.2674
  160MOL0     H21553   6.575   3.673   1.069  0.0578 -1.3036 -1.4892
  160MOL0     H21554   6.785   3.719   1.201  2.3189 -1.5350  1.9957
  160MOL0     H21555   6.641   3.683   1.293 -0.7251 -1.3544 -0.6704
  160MOL0     H21556   6.740   3.481   1.366  2.6401  0.3229  1.5350
  160MOL0     H21557   6.870   3.594   1.362  3.0369 -0.4104 -1.7323
  160MOL0     H21558   6.934   3.500   1.125 -1.6643 -1.6220 -1.9602
  160MOL0     H21559   6.829   3.365   1.179 -1.5425  1.8559 -1.2728
  160MOL0     H21560   7.180   3.273   1.385 -2.0522  0.3779  5.1618
  160MOL0     H21561   7.382   3.382   1.508 -0.9998  1.8566  2.8911
  160MOL0     H21562   7.773   3.629   1.331  3.4639  0.1521 -0.4900
  160MOL0     H21563   7.985   3.750   1.340  0.2932  1.0186 -1.5557
  160MOL0     H21564   7.974   4.166   1.536  0.4431  1.8210 -0.0025
  160MOL0     H21565   8.044   4.034   1.621 -1.8209  0.9215  0.7826
  160MOL0     H21566   8.233   4.156   1.409  1.2582  0.2450  0.5857
  160MOL0     H21567   8.189   4.248   1.547 -1.0932  1.7972 -1.1761
  160MOL0     H21568   8.269   4.064   1.704  3.4430 -0.8341  0.6366
  160MOL0     H21569   8.279   3.950   1.565 -3.1427  0.7715 -0.5260
  160MOL0     H21570   8.447   4.196   1.624 -3.2600  0.4133  0.3085
  160MOL0     H21571   8.462   4.097   1.477  3.4684 -1.3251  0.6914
  160MOL0     H21572   8.500   3.884   1.615 -0.1235 -0.2790  0.9849
  160MOL0     H21573   8.521   3.987   1.757 -1.1883  1.6308  0.5494
  160MOL0     H21574   8.738   3.923   1.637 -1.1323 -1.5720 -0.8841
  160MOL0     H21575   8.687   4.029   1.502 -1.4132  3.9621  0.7245
  160MOL0     H21576   8.716   4.141   1.774 -0.3389 -0.7427 -0.1988
  160MOL0     H21577   8.699   4.226   1.615  0.2460  0.5874  1.5096
  160MOL0     H21578   8.930   4.045   1.706  1.5466 -0.3812 -1.3693
  160MOL0     H21579   8.914   4.116   1.544 -0.2950 -0.5214 -0.2985
  160MOL0     H21580   7.785   4.088   1.514 -1.4006  0.0009 -0.1722
  160MOL0     H21581   7.569   3.980   1.493  2.0301  3.9415  0.0416
  160MOL0     H21582   7.296   3.739   1.290  2.2621 -1.4433  0.6339
  160MOL0     H21583   7.064   3.645   1.245 -0.4761  1.0185  0.5172
  160MOL0     H21584   5.320   3.548   1.586  0.5821  0.5263 -0.8677
  160MOL0     H21585   5.092   3.657   1.571 -3.5674  1.7363  0.9503
  160MOL0     H21586   4.745   3.886   1.933 -2.6862 -3.6190  2.3126
  160MOL0     H21587   4.550   4.040   1.891  0.0015  2.4760 -2.9091
  160MOL0     H21588   4.248   3.825   1.701 -1.7008  0.9747 -0.6609
  160MOL0     H21589   4.264   3.910   1.545  3.0406  1.5428 -0.1628
  160MOL0     H21590   4.104   4.065   1.611  0.7918 -1.2813 -0.9902
  160MOL0     H21591   4.145   4.052   1.788 -2.6366 -2.4867  1.9254
  160MOL0     H21592   4.013   3.886   1.830 -0.0943  0.1593 -0.4617
  160MOL0     H21593   4.011   3.833   1.652  1.5846  1.7031 -2.1078
  160MOL0     H21594   3.790   3.918   1.780 -0.6893  3.0821  2.4386
  160MOL0     H21595   3.875   4.066   1.778  4.4237 -1.2907  1.0171
  160MOL0     H21596   3.764   3.927   1.380 -3.2908  0.4661 -0.1934
  160MOL0     H21597   4.473   3.815   1.532 -1.8399  0.9318  0.2308
  160MOL0     H21598   4.606   3.579   1.528 -0.6933 -0.2219  0.4810
  160MOL0     H21599   4.702   3.705   1.441  0.6913 -0.6124  0.0056
  160MOL0     H21600   4.781   3.605   1.563 -1.3387 -1.7826  0.2092
  161MOL0     O21601   9.017   2.289   2.493  0.6580  0.7790 -0.1125
  161MOL0     C21602   9.079   2.263   2.389  0.2160  1.4156  0.0088
  161MOL0     O21603   9.213   2.271   2.357 -0.3375 -0.1037 -0.1258
  161MOL0     C21604   9.302   2.331   2.441 -0.3813  1.2270 -1.1680
  161MOL0     C21605   9.284   2.436   2.522  0.2751 -0.5031 -0.0415
  161MOL0     C21606   9.381   2.473   2.623 -0.0568 -0.3912  0.6651
  161MOL0     C21607   9.496   2.390   2.634 -0.5378  0.1472 -0.2282
  161MOL0     O21608   9.603   2.425   2.714 -0.0276  1.2743  0.1142
  161MOL0     C21609   9.584   2.531   2.813  0.9412  0.0470 -0.3814
  161MOL0     C21610   9.691   2.517   2.917 -0.4244  0.7141  0.8756
  161MOL0     C21611   9.695   2.586   3.052  0.4868 -0.2680 -0.2232
  161MOL0     C21612   9.813   2.542   3.132 -0.4762  0.3537 -0.2893
  161MOL0     C21613   9.788   2.421   3.216 -0.0118  0.5144  0.0026
  161MOL0     C21614   9.860   2.404   3.346 -0.4649  0.5749  0.4092
  161MOL0     C21615  10.008   2.434   3.346  1.0891  0.3806  0.0989
  161MOL0     C21616  10.075   2.458   3.482  0.0664  0.0587  0.0201
  161MOL0     N21617  10.021   2.585   3.529  1.5871 -0.6929  0.3384
  161MOL0     C21618   9.919   2.595   3.626 -0.1364  0.1173  0.1081
  161MOL0     C21619   9.906   2.720   3.652 -0.2454  0.3653  0.3127
  161MOL0     C21620   9.828   2.766   3.767 -0.2660  0.3522 -0.5387
  161MOL0     C21621   9.757   2.896   3.729 -0.4025 -0.0142 -0.2716
  161MOL0     C21622   9.626   2.933   3.815  0.0706  0.0346  0.2628
  161MOL0     C21623   9.657   2.949   3.965 -0.1258 -0.6226  0.0806
  161MOL0     O21624   9.786   3.012   3.982  0.1160 -0.1077  0.2311
  161MOL0     C21625   9.836   3.048   4.109 -0.4006 -0.3782 -0.1045
  161MOL0     C21626   9.774   3.023   4.226 -0.3452  0.3803  0.3982
  161MOL0     C21627   9.830   3.070   4.347  0.3457  0.2240  0.4691
  161MOL0     C21628   9.956   3.133   4.351  0.1681 -0.9014  0.1353
  161MOL0     C21629  10.002   3.196   4.482 -0.1827 -0.0038 -0.5686
  161MOL0     O21630  10.129   3.249   4.479 -0.4856  0.2481  0.3259
  161MOL0     C21631  10.177   3.331   4.579  0.8145  0.2671  0.2285
  161MOL0     C21632  10.317   3.356   4.580  0.5671  0.4241  0.9653
  161MOL0     C21633  10.386   3.431   4.675 -0.3045  0.4320  0.7843
  161MOL0     C21634  10.316   3.485   4.774 -0.0738 -0.7278  0.1101
  161MOL0     O21635  10.374   3.539   4.888  0.3480 -0.2335 -0.6944
  161MOL0     C21636  10.501   3.611   4.866  0.0547  0.1015  0.3594
  161MOL0     C21637  10.565   3.645   4.998  0.1680  1.1198  0.0254
  161MOL0     C21638  10.695   3.726   4.987 -0.7313 -0.5133  0.1344
  161MOL0     C21639  10.728   3.815   5.121 -0.4626 -0.2459 -0.4566
  161MOL0     C21640  10.866   3.899   5.107  0.0491 -0.2100  0.3258
  161MOL0     C21641  10.897   4.000   5.214 -0.7576 -0.9700 -0.2909
  161MOL0     C21642  10.998   4.109   5.174  0.4163  0.8879  0.3810
  161MOL0     C21643  11.050   4.171   5.304 -0.3954  0.5083  0.6970
  161MOL0    Cl21644  11.172   4.304   5.262  0.3569 -0.1323 -0.0196
  161MOL0     C21645  10.177   3.465   4.776 -0.2477 -0.5652  0.0541
  161MOL0     C21646  10.108   3.402   4.671  0.1443 -0.1863 -0.4806
  161MOL0     O21647   9.920   3.198   4.571 -0.4003  0.1119 -0.1083
  161MOL0     C21648  10.029   3.144   4.233 -0.5180 -0.0725  0.4497
  161MOL0     C21649   9.967   3.104   4.115 -0.2569  0.1616  0.5930
  161MOL0     N21650   9.998   2.781   3.580  0.0773 -0.9727 -0.5669
  161MOL0     N21651  10.064   2.707   3.497  0.6757 -0.1809  0.5878
  161MOL0     C21652   9.515   2.288   2.548  0.2900 -0.1562  0.5112
  161MOL0     C21653   9.422   2.262   2.446  0.0932 -0.2076  0.2815
  161MOL0     C21654   8.988   2.224   2.270 -1.4257  0.3232  0.0199
  161MOL0     C21655   8.975   2.322   2.169 -0.4775  0.0297  0.4362
  161MOL0     C21656   8.885   2.295   2.059  1.2644  0.0805  0.1864
  161MOL0     C21657   8.813   2.180   2.053  0.6633  0.6052 -0.1604
  161MOL0     O21658   8.726   2.149   1.954 -0.3220  0.4763 -0.5177
  161MOL0     C21659   8.618   2.239   1.929 -0.2387  0.0194  0.6056
  161MOL0     C21660   8.514   2.225   2.046 -1.2520 -0.0083  0.1132
  161MOL0     C21661   8.466   2.083   2.071  0.4654  0.0999 -0.7368
  161MOL0     C21662   8.378   2.018   1.964 -0.7521  0.4299  0.2510
  161MOL0     C21663   8.284   2.120   1.908  0.6052  0.3696  0.5884
  161MOL0     C21664   8.200   2.193   1.852  0.4383  0.4265 -0.5094
  161MOL0     C21665   8.831   2.086   2.157  0.6071  0.1685  0.3160
  161MOL0     C21666   8.921   2.110   2.261  1.1197  0.2646 -0.2915
  161MOL0     C21667   8.925   2.005   2.365 -0.1221 -1.1459 -0.4706
  161MOL0     H21668   9.191   2.490   2.508  0.2281 -0.9279 -1.4627
  161MOL0     H21669   9.367   2.565   2.678  0.0658  1.0885 -1.6585
  161MOL0     H21670   9.572   2.634   2.777  1.5862  0.8186  1.5066
  161MOL0     H21671   9.486   2.510   2.857  0.7742 -0.8091 -1.1369
  161MOL0     H21672   9.775   2.549   2.853  0.5052 -0.9970  1.1862
  161MOL0     H21673   9.686   2.409   2.935 -1.6611  0.8184  1.2589
  161MOL0     H21674   9.602   2.569   3.108 -0.1086  2.5810 -0.2131
  161MOL0     H21675   9.700   2.694   3.039 -3.1072  0.2049  1.1856
  161MOL0     H21676   9.890   2.513   3.059 -0.1276 -0.8959  0.5503
  161MOL0     H21677   9.850   2.625   3.192 -2.0434  2.1318 -1.6500
  161MOL0     H21678   9.683   2.410   3.244  0.1664  1.6083  1.1613
  161MOL0     H21679   9.818   2.340   3.148  5.0909  1.3015  0.8550
  161MOL0     H21680   9.817   2.464   3.426  0.2643  1.4524  0.1557
  161MOL0     H21681   9.840   2.297   3.362 -0.7799  0.7191  1.0241
  161MOL0     H21682  10.024   2.526   3.289 -0.4596  0.3002 -0.5091
  161MOL0     H21683  10.059   2.355   3.289  0.6215 -1.8046  2.5630
  161MOL0     H21684  10.057   2.372   3.547  3.8986  0.4330  1.8598
  161MOL0     H21685  10.181   2.474   3.458 -0.2274  2.2908  0.0299
  161MOL0     H21686   9.867   2.516   3.678  0.6589 -0.6655 -0.2647
  161MOL0     H21687   9.757   2.689   3.798 -1.1035  1.1454 -0.4607
  161MOL0     H21688   9.897   2.783   3.850  0.5124  0.8100 -1.2567
  161MOL0     H21689   9.836   2.972   3.726  1.3591 -1.7445 -0.1171
  161MOL0     H21690   9.722   2.898   3.626  1.5639  1.5734 -0.9726
  161MOL0     H21691   9.554   2.852   3.804 -0.9438  1.1395 -1.9479
  161MOL0     H21692   9.570   3.018   3.775  2.9777  2.1849  0.3726
  161MOL0     H21693   9.653   2.846   4.004 -1.2757 -0.6282 -0.0331
  161MOL0     H21694   9.564   2.999   3.992  0.1560  0.1789 -0.4155
  161MOL0     H21695   9.678   2.972   4.233  0.8769 -1.9052  1.7047
  161MOL0     H21696   9.765   3.060   4.434  0.3396 -1.9815  0.2625
  161MOL0     H21697  10.379   3.311   4.504  0.3403  2.8393 -0.7624
  161MOL0     H21698  10.495   3.427   4.677 -0.1795 -0.0104 -2.2841
  161MOL0     H21699  10.582   3.567   4.807  2.5385 -0.6478  3.9832
  161MOL0     H21700  10.471   3.708   4.826 -1.4335 -0.4146  0.1469
  161MOL0     H21701  10.480   3.698   5.042 -2.5827 -0.6111 -2.7792
  161MOL0     H21702  10.596   3.553   5.048  1.3612  1.1103 -0.6970
  161MOL0     H21703  10.779   3.657   4.974  0.2618  0.5365  0.7257
  161MOL0     H21704  10.681   3.796   4.904  2.1671 -0.8364 -0.7328
  161MOL0     H21705  10.740   3.741   5.201 -1.0277  0.2701  0.1094
  161MOL0     H21706  10.652   3.889   5.144  0.3710  0.3325  0.4807
  161MOL0     H21707  10.860   3.951   5.012 -1.6095 -2.0112 -0.6195
  161MOL0     H21708  10.950   3.828   5.108 -0.7168 -1.1323  0.8671
  161MOL0     H21709  10.810   4.061   5.243  0.8917  1.4485 -0.1235
  161MOL0     H21710  10.931   3.950   5.305 -1.5401 -1.7705 -0.4245
  161MOL0     H21711  10.942   4.183   5.116 -1.6860 -0.4330  0.6443
  161MOL0     H21712  11.081   4.077   5.109  1.0271  0.2277  1.4605
  161MOL0     H21713  10.975   4.222   5.366 -0.7921 -0.4384  1.0205
  161MOL0     H21714  11.100   4.088   5.355 -0.4479  0.3890  0.5524
  161MOL0     H21715  10.124   3.503   4.863  0.4086 -1.0867  0.6979
  161MOL0     H21716  10.002   3.394   4.690 -0.0384 -1.1352 -1.7493
  161MOL0     H21717  10.125   3.194   4.235 -1.4811  1.8691  0.9112
  161MOL0     H21718  10.030   3.109   4.027  1.2047 -0.8525  1.5294
  161MOL0     H21719   9.607   2.234   2.568 -0.6089 -0.5124  4.3573
  161MOL0     H21720   9.440   2.177   2.380  0.2132  0.4626 -0.5675
  161MOL0     H21721   9.048   2.402   2.177 -0.3572 -0.2214  2.2479
  161MOL0     H21722   8.869   2.368   1.980  0.6005  0.5787  0.7671
  161MOL0     H21723   8.572   2.204   1.836  0.8110 -2.9516  1.1019
  161MOL0     H21724   8.657   2.341   1.933 -0.0907 -0.0727  2.7525
  161MOL0     H21725   8.427   2.289   2.030 -1.3508 -0.3651 -0.8206
  161MOL0     H21726   8.567   2.262   2.134 -1.4140  0.6133 -0.0472
  161MOL0     H21727   8.401   2.079   2.159  3.5769 -2.8633  1.6820
  161MOL0     H21728   8.539   2.005   2.091  0.7015 -0.6651 -3.9618
  161MOL0     H21729   8.441   1.971   1.889  0.6489  0.4692  1.3606
  161MOL0     H21730   8.329   1.936   2.017  1.2414 -0.5965  0.6059
  161MOL0     H21731   8.150   2.255   1.781  1.6279 -0.4652 -2.1823
  161MOL0     H21732   8.779   1.990   2.163 -1.8277  1.4850  2.1089
  161MOL0     H21733   8.894   2.037   2.465  0.5258 -2.1736  0.0768
  161MOL0     H21734   8.877   1.910   2.339 -0.4012 -0.2839 -3.5239
  161MOL0     H21735   9.031   1.987   2.384  0.0269  0.7082  0.6603
  162MOL0     O21736   6.163   7.679   7.517 -0.4295  0.0220 -0.3204
  162MOL0     C21737   6.077   7.640   7.600 -0.5068  0.0188  0.1901
  162MOL0     O21738   6.072   7.515   7.646 -0.0158 -0.0109  0.0060
  162MOL0     C21739   6.172   7.425   7.616 -0.1341  0.3908  0.4797
  162MOL0     C21740   6.144   7.305   7.556  0.3691  0.5263 -0.8413
  162MOL0     C21741   6.254   7.218   7.514  0.4638 -0.1648 -0.8749
  162MOL0     C21742   6.386   7.263   7.535  0.3900  0.6055  0.5345
  162MOL0     O21743   6.477   7.177   7.478 -0.1911  0.0260  0.3120
  162MOL0     C21744   6.617   7.210   7.503  0.5577 -0.1854  0.3238
  162MOL0     C21745   6.721   7.107   7.449 -0.5444  0.0005 -0.2113
  162MOL0     C21746   6.861   7.130   7.512  0.3938  0.7856 -1.0191
  162MOL0     C21747   6.972   7.053   7.449  0.3766 -0.0323  1.2050
  162MOL0     C21748   7.103   7.065   7.520 -0.5407 -0.3948 -0.4530
  162MOL0     C21749   7.211   6.994   7.450 -0.4145  0.5788  0.7888
  162MOL0     C21750   7.353   7.014   7.498 -0.9268 -0.7949  1.0896
  162MOL0     C21751   7.377   6.951   7.637  0.0599 -1.1403  0.2732
  162MOL0     N21752   7.513   6.956   7.689  0.5468  0.0518 -0.0418
  162MOL0     C21753   7.555   7.027   7.799  0.8651  0.5415  0.4690
  162MOL0     C21754   7.679   7.062   7.780  0.3940  0.9861  0.3503
  162MOL0     C21755   7.761   7.147   7.867  0.5552 -0.6471  0.2493
  162MOL0     C21756   7.761   7.297   7.828  0.4699 -0.3486 -1.1697
  162MOL0     C21757   7.851   7.372   7.932 -0.1071 -0.0802 -0.1311
  162MOL0     C21758   7.847   7.531   7.920 -0.2260  0.6258  0.6796
  162MOL0     O21759   7.920   7.595   8.025  0.1190 -0.4722  0.3082
  162MOL0     C21760   7.985   7.722   8.008 -0.3966  0.5373 -0.6743
  162MOL0     C21761   7.972   7.815   7.911 -0.8059  0.7360  1.2669
  162MOL0     C21762   8.028   7.940   7.905  0.6204  0.2561 -0.4532
  162MOL0     C21763   8.125   7.977   7.995 -0.0965 -0.4718  0.2530
  162MOL0     C21764   8.197   8.099   7.972 -0.3624 -0.0120 -0.7732
  162MOL0     O21765   8.315   8.104   8.038  0.2955  0.1005 -0.4938
  162MOL0     C21766   8.389   8.214   8.029  0.2745  0.0160 -0.1370
  162MOL0     C21767   8.358   8.335   8.081  1.0293  0.1049  0.9425
  162MOL0     C21768   8.436   8.451   8.069 -0.5679 -0.2878 -0.3702
  162MOL0     C21769   8.551   8.450   7.990 -0.0672  0.1255 -0.2237
  162MOL0     O21770   8.627   8.564   7.992 -1.3152  0.2764  0.1261
  162MOL0     C21771   8.763   8.547   7.955  0.1132 -0.5901  0.5698
  162MOL0     C21772   8.820   8.689   7.946 -0.0295  0.2222  0.2206
  162MOL0     C21773   8.968   8.677   7.974 -0.8037  0.0795  0.1000
  162MOL0     C21774   9.052   8.570   7.894 -0.1355 -0.5461  0.1633
  162MOL0     C21775   9.198   8.601   7.900 -0.6020 -0.1039 -0.4535
  162MOL0     C21776   9.267   8.494   7.975 -0.8004 -0.1846 -0.7652
  162MOL0     C21777   9.419   8.524   7.969  0.7902  0.5746  0.3863
  162MOL0     C21778   9.498   8.409   8.025  0.0280  0.5113 -0.2724
  162MOL0    Cl21779   9.653   8.482   8.081 -0.2940 -0.5601 -0.2889
  162MOL0     C21780   8.578   8.326   7.930 -0.4785 -0.7851 -1.0727
  162MOL0     C21781   8.504   8.206   7.957  0.8227 -0.5010  0.7493
  162MOL0     O21782   8.155   8.184   7.902 -0.3559  0.1264  0.0665
  162MOL0     C21783   8.152   7.882   8.094  0.4221 -0.6052  0.3797
  162MOL0     C21784   8.089   7.757   8.101  0.9867  0.1971  0.1290
  162MOL0     N21785   7.719   7.005   7.658  0.3578  0.0676 -0.0725
  162MOL0     N21786   7.621   6.939   7.614  0.1911  0.1232  0.2297
  162MOL0     C21787   6.413   7.382   7.607 -0.5000  0.4931  0.3291
  162MOL0     C21788   6.304   7.464   7.642 -0.0965 -0.3744 -0.0584
  162MOL0     C21789   5.972   7.743   7.617  0.1104  0.0921  0.2180
  162MOL0     C21790   5.993   7.861   7.684  0.0019 -0.2423 -0.2707
  162MOL0     C21791   5.897   7.964   7.694 -0.0707 -0.2165 -0.0006
  162MOL0     C21792   5.776   7.955   7.620  0.0466 -0.4308 -0.0097
  162MOL0     O21793   5.687   8.057   7.626  0.1981  0.4937 -0.1188
  162MOL0     C21794   5.709   8.154   7.522  0.2764  0.1107 -0.1899
  162MOL0     C21795   5.605   8.257   7.560 -0.3286  0.6406  0.5050
  162MOL0     C21796   5.595   8.370   7.466  0.3179  0.5199  0.3558
  162MOL0     C21797   5.467   8.455   7.491 -0.2327  0.2101 -1.2520
  162MOL0     C21798   5.453   8.567   7.395  0.1896  0.3625  0.5304
  162MOL0     C21799   5.436   8.647   7.311 -0.1480 -0.2096 -0.5834
  162MOL0     C21800   5.756   7.836   7.549  0.9296  0.5008 -0.1130
  162MOL0     C21801   5.848   7.727   7.551  0.3707 -0.0661  0.3574
  162MOL0     C21802   5.810   7.599   7.470 -0.2868 -0.3911 -0.3067
  162MOL0     H21803   6.038   7.289   7.538 -0.5097  3.7437  0.7255
  162MOL0     H21804   6.235   7.133   7.449 -1.5525 -1.6620  1.5225
  162MOL0     H21805   6.640   7.309   7.462 -0.3629 -0.1719 -0.1671
  162MOL0     H21806   6.625   7.212   7.612 -3.8245 -2.3183  0.8914
  162MOL0     H21807   6.721   7.104   7.340 -2.9914 -0.9566 -0.2338
  162MOL0     H21808   6.694   7.009   7.489 -0.9400  0.0953 -0.2391
  162MOL0     H21809   6.861   7.100   7.617  3.1122 -2.8404 -1.8312
  162MOL0     H21810   6.868   7.239   7.513 -0.2892  0.8496 -1.9466
  162MOL0     H21811   6.947   6.948   7.431  1.9682 -0.4377  1.2713
  162MOL0     H21812   6.982   7.093   7.348 -1.3804 -1.6979  0.3039
  162MOL0     H21813   7.131   7.170   7.515 -0.3702 -0.3666  0.8089
  162MOL0     H21814   7.099   7.025   7.622  0.5154 -0.7309 -0.5379
  162MOL0     H21815   7.181   6.889   7.457  1.5348 -0.6102 -4.3006
  162MOL0     H21816   7.206   7.011   7.342  2.2082 -0.8460  0.3678
  162MOL0     H21817   7.367   7.122   7.504 -0.4885 -0.9062  3.1055
  162MOL0     H21818   7.423   6.987   7.418 -1.5251  2.8010 -0.8599
  162MOL0     H21819   7.318   7.008   7.709  3.8001  1.9414  1.2569
  162MOL0     H21820   7.340   6.851   7.612  0.7382 -0.9395 -1.7267
  162MOL0     H21821   7.493   7.064   7.880  0.7953  3.4631 -0.7623
  162MOL0     H21822   7.742   7.118   7.970  0.4374 -0.1928  0.3577
  162MOL0     H21823   7.863   7.107   7.867  0.8743  0.1439 -0.0435
  162MOL0     H21824   7.798   7.319   7.728 -0.0244  1.9756 -0.9056
  162MOL0     H21825   7.662   7.340   7.845  0.8459  0.2449 -0.4122
  162MOL0     H21826   7.953   7.355   7.899  0.3825 -0.9654  1.7263
  162MOL0     H21827   7.840   7.354   8.039  1.1575 -1.2364 -0.1774
  162MOL0     H21828   7.741   7.554   7.920 -0.5407 -0.4737 -1.8002
  162MOL0     H21829   7.873   7.568   7.820 -4.0508  1.9895  0.0477
  162MOL0     H21830   7.909   7.789   7.826 -0.4527 -0.8388  1.4634
  162MOL0     H21831   8.008   8.002   7.818  0.8190 -0.6028 -1.1295
  162MOL0     H21832   8.258   8.337   8.122  0.8072 -0.9114  0.4665
  162MOL0     H21833   8.398   8.545   8.108  0.6043  0.9710 -2.1168
  162MOL0     H21834   8.816   8.497   8.037  2.3262  0.7485  0.0309
  162MOL0     H21835   8.786   8.508   7.856  0.5955  0.2035  0.3625
  162MOL0     H21836   8.793   8.737   7.851 -3.0604 -2.9203 -0.7060
  162MOL0     H21837   8.766   8.749   8.020 -1.3980 -1.4513  0.6346
  162MOL0     H21838   9.010   8.774   7.948  1.3219 -1.1612 -1.4117
  162MOL0     H21839   8.975   8.654   8.081  1.9763 -1.2593 -0.2902
  162MOL0     H21840   9.033   8.567   7.786  1.5141 -0.2035 -0.1730
  162MOL0     H21841   9.032   8.467   7.924  0.9725 -0.6008  0.7816
  162MOL0     H21842   9.214   8.695   7.953 -0.6345 -1.1961  1.6111
  162MOL0     H21843   9.247   8.584   7.803 -2.3860 -2.5387 -1.0301
  162MOL0     H21844   9.231   8.489   8.078  0.1230  2.5218 -0.2225
  162MOL0     H21845   9.238   8.401   7.926  0.5265  0.0819 -2.1161
  162MOL0     H21846   9.446   8.614   8.025  1.1618  1.7689 -1.6201
  162MOL0     H21847   9.455   8.546   7.868  1.6525  0.3144  0.6372
  162MOL0     H21848   9.440   8.360   8.104 -0.6422 -0.5412 -1.3816
  162MOL0     H21849   9.529   8.338   7.948  0.6385  2.0401 -1.4795
  162MOL0     H21850   8.666   8.314   7.868 -0.2436 -0.7282 -0.7505
  162MOL0     H21851   8.527   8.108   7.917 -1.6222 -1.1902  0.8242
  162MOL0     H21852   8.224   7.904   8.172  0.3670 -1.2200  0.6067
  162MOL0     H21853   8.107   7.686   8.180  0.2951  0.3875  0.4695
  162MOL0     H21854   6.511   7.419   7.634  0.0638 -1.4903  1.1312
  162MOL0     H21855   6.323   7.553   7.701 -1.3064  0.9129 -1.4983
  162MOL0     H21856   6.081   7.872   7.747  0.1604 -1.9233 -0.1483
  162MOL0     H21857   5.913   8.055   7.750 -1.8733  0.4779 -0.5469
  162MOL0     H21858   5.687   8.110   7.424  1.7979 -1.5123  0.1413
  162MOL0     H21859   5.812   8.187   7.529  0.3174 -0.2512  5.5242
  162MOL0     H21860   5.634   8.292   7.659 -0.5772 -1.1581  1.2408
  162MOL0     H21861   5.508   8.207   7.560  1.1593 -2.4856  0.6474
  162MOL0     H21862   5.600   8.326   7.366 -0.1829 -4.0642  2.0921
  162MOL0     H21863   5.675   8.444   7.471  1.7952 -0.9683 -0.2783
  162MOL0     H21864   5.380   8.389   7.497 -0.1494  0.1543 -0.6431
  162MOL0     H21865   5.471   8.503   7.589  4.5253 -0.7390 -0.7228
  162MOL0     H21866   5.410   8.730   7.249 -0.5464 -2.1436 -3.1658
  162MOL0     H21867   5.663   7.820   7.495  1.3318 -0.1565 -0.6223
  162MOL0     H21868   5.703   7.579   7.484 -0.4420 -0.5009 -1.5161
  162MOL0     H21869   5.828   7.595   7.362  1.4427  1.2024 -0.1113
  162MOL0     H21870   5.872   7.518   7.510  0.1279  0.6272  1.2058
  163MOL0     O21871   3.638   7.802   6.322  0.4943  0.0682  1.0121
  163MOL0     C21872   3.584   7.787   6.209  0.4203 -0.1206  0.2977
  163MOL0     O21873   3.650   7.760   6.090 -0.2092  0.2662  0.3506
  163MOL0     C21874   3.787   7.786   6.081 -0.2091  0.3822 -1.2362
  163MOL0     C21875   3.851   7.712   5.986  0.3321 -0.7778 -0.8751
  163MOL0     C21876   3.973   7.749   5.943  0.4513  0.8315  0.2875
  163MOL0     C21877   4.042   7.851   6.007  0.0984 -0.4253 -0.4667
  163MOL0     O21878   4.169   7.896   5.970  0.1013  0.7875  0.7496
  163MOL0     C21879   4.239   7.838   5.864  0.5422 -0.5469 -0.0240
  163MOL0     C21880   4.391   7.866   5.862  0.6998 -0.8149 -0.3785
  163MOL0     C21881   4.415   8.019   5.840  0.2773 -0.4187  0.1933
  163MOL0     C21882   4.569   8.049   5.861 -0.3624  0.7525  0.4344
  163MOL0     C21883   4.653   8.040   5.731  1.2625 -0.2741  0.6289
  163MOL0     C21884   4.806   8.072   5.749 -0.0696 -0.1470  0.0817
  163MOL0     C21885   4.870   7.958   5.820  0.9177  0.7923  1.0609
  163MOL0     C21886   5.019   7.974   5.851  0.3087 -0.5386  0.7225
  163MOL0     N21887   5.119   7.989   5.742  0.1206  0.4184 -0.3107
  163MOL0     C21888   5.146   7.886   5.664  0.1256  0.3374 -0.0085
  163MOL0     C21889   5.258   7.926   5.602  0.3599 -0.4088  0.9021
  163MOL0     C21890   5.338   7.832   5.517  0.0122  0.1980  0.0189
  163MOL0     C21891   5.452   7.893   5.460 -0.0726 -1.0229  0.8048
  163MOL0     C21892   5.505   7.809   5.338 -0.6005 -0.7624 -0.1878
  163MOL0     C21893   5.639   7.872   5.283  0.2631 -0.4058  0.5048
  163MOL0     O21894   5.687   7.813   5.158  0.6897 -0.3748 -0.4047
  163MOL0     C21895   5.769   7.702   5.158  0.1271  0.7835 -0.3083
  163MOL0     C21896   5.791   7.644   5.029  0.4492  0.0167  0.2123
  163MOL0     C21897   5.887   7.543   5.003  0.7646  0.3919 -0.8034
  163MOL0     C21898   5.952   7.488   5.120 -0.3267 -0.5695  1.1332
  163MOL0     C21899   6.048   7.374   5.106 -0.6797  0.1955  0.6335
  163MOL0     O21900   6.070   7.327   4.986  1.1192  0.4614  0.8719
  163MOL0     C21901   6.159   7.227   4.971  0.2995  0.8959 -0.1783
  163MOL0     C21902   6.161   7.088   5.022 -0.2259 -0.1229 -0.3661
  163MOL0     C21903   6.263   7.003   4.986  0.3458  0.1108  0.1048
  163MOL0     C21904   6.371   7.053   4.906  0.1162  0.5513  0.3394
  163MOL0     O21905   6.482   6.990   4.862 -0.2627  0.5354 -0.8057
  163MOL0     C21906   6.492   6.848   4.889 -0.3223 -0.8572  0.0183
  163MOL0     C21907   6.638   6.815   4.888  0.1442 -0.1316  0.0898
  163MOL0     C21908   6.668   6.661   4.920  0.1463  0.7358 -1.1060
  163MOL0     C21909   6.816   6.640   4.914 -0.3179  0.0269 -0.1171
  163MOL0     C21910   6.835   6.500   4.989  0.5879  0.7223 -0.5692
  163MOL0     C21911   6.968   6.429   4.960 -0.0141  0.0752  0.1416
  163MOL0     C21912   6.986   6.297   5.041  0.5320 -0.0285  0.5081
  163MOL0     C21913   7.119   6.230   5.025 -0.0450 -0.5452 -0.1866
  163MOL0    Cl21914   7.229   6.290   5.151  0.0515 -0.1002 -0.1522
  163MOL0     C21915   6.366   7.179   4.859  0.1900  0.1517  0.1931
  163MOL0     C21916   6.262   7.266   4.887  0.1152 -0.9782 -0.4646
  163MOL0     O21917   6.112   7.342   5.199  0.3508  0.2629 -0.7521
  163MOL0     C21918   5.922   7.534   5.247  0.0258 -0.5910  0.4199
  163MOL0     C21919   5.838   7.641   5.266 -0.1888 -0.6587  0.4786
  163MOL0     N21920   5.299   8.051   5.641  0.6694  0.2094 -0.0529
  163MOL0     N21921   5.213   8.081   5.729 -0.2065 -0.2067  0.3651
  163MOL0     C21922   3.986   7.928   6.110 -0.9641  0.1643 -0.0842
  163MOL0     C21923   3.854   7.899   6.143  0.9373 -0.2187 -0.0910
  163MOL0     C21924   3.431   7.793   6.195  0.3287  0.2754  0.1716
  163MOL0     C21925   3.368   7.778   6.072  0.8821 -0.4894  0.1757
  163MOL0     C21926   3.229   7.757   6.052 -0.3737  0.1315  0.0182
  163MOL0     C21927   3.146   7.750   6.164  1.0712 -0.2581 -0.0265
  163MOL0     O21928   3.007   7.738   6.151 -0.2878 -0.2505  0.4440
  163MOL0     C21929   2.928   7.709   6.265 -1.5613 -0.4437 -0.0705
  163MOL0     C21930   2.793   7.655   6.231  1.0204 -0.5390 -0.6939
  163MOL0     C21931   2.704   7.641   6.357  0.0187  0.6715 -0.8146
  163MOL0     C21932   2.610   7.520   6.376  0.0259 -0.9800 -0.0151
  163MOL0     C21933   2.690   7.396   6.388  0.8505 -0.1503 -0.1395
  163MOL0     C21934   2.744   7.288   6.382  0.1410 -0.6712 -1.0465
  163MOL0     C21935   3.206   7.747   6.288  0.5408 -1.4385 -0.3283
  163MOL0     C21936   3.345   7.772   6.307  0.4131  0.3354 -0.0808
  163MOL0     C21937   3.395   7.770   6.447 -0.2571 -0.9637 -0.2621
  163MOL0     H21938   3.799   7.624   5.950 -0.9557  0.1095 -1.2708
  163MOL0     H21939   4.020   7.680   5.873 -1.6689  0.9467 -1.3294
  163MOL0     H21940   4.233   7.729   5.857  0.8870 -0.7616  2.1663
  163MOL0     H21941   4.194   7.878   5.773  0.8270  0.3633  0.2282
  163MOL0     H21942   4.448   7.800   5.795 -0.1323 -2.8264  0.8131
  163MOL0     H21943   4.433   7.828   5.956 -2.9095  0.6979  2.0904
  163MOL0     H21944   4.357   8.073   5.915  0.8790  0.6312 -0.0793
  163MOL0     H21945   4.378   8.047   5.741 -2.3515  0.7415  1.4105
  163MOL0     H21946   4.593   8.147   5.903  2.3384  0.0533  0.6579
  163MOL0     H21947   4.616   7.979   5.930 -1.8238 -0.6753  0.0371
  163MOL0     H21948   4.651   7.937   5.694  2.1271  0.1676 -0.6969
  163MOL0     H21949   4.621   8.106   5.650  0.0435 -1.2602  0.2806
  163MOL0     H21950   4.844   8.072   5.646 -1.4684 -3.6910 -0.5763
  163MOL0     H21951   4.823   8.165   5.804  3.0058 -0.4227 -0.1859
  163MOL0     H21952   4.849   7.869   5.760 -1.6455  1.0550  1.4547
  163MOL0     H21953   4.824   7.933   5.916  0.7871  0.8409  1.0112
  163MOL0     H21954   5.038   8.059   5.917 -0.6270  0.4378 -0.2294
  163MOL0     H21955   5.049   7.879   5.897  0.2546 -0.8913  0.0411
  163MOL0     H21956   5.094   7.791   5.656 -1.3770  0.7685  3.2231
  163MOL0     H21957   5.374   7.756   5.587 -0.5965  1.2172  1.4825
  163MOL0     H21958   5.276   7.793   5.436 -0.0761  1.1594 -0.3859
  163MOL0     H21959   5.419   7.991   5.423 -0.0952 -1.2165  0.3017
  163MOL0     H21960   5.540   7.894   5.525 -0.3916 -1.9974  1.2690
  163MOL0     H21961   5.428   7.809   5.261 -1.0990  0.2690  0.2933
  163MOL0     H21962   5.516   7.709   5.380  0.3275  0.2692  2.2087
  163MOL0     H21963   5.723   7.875   5.354  2.1487  0.2223 -1.6306
  163MOL0     H21964   5.620   7.977   5.260 -0.1135 -0.6007 -0.0890
  163MOL0     H21965   5.735   7.700   4.955 -1.3998  0.8521  2.1618
  163MOL0     H21966   5.906   7.501   4.904  0.4106  0.0224 -0.7199
  163MOL0     H21967   6.082   7.057   5.090 -0.6917 -0.0072 -0.8510
  163MOL0     H21968   6.261   6.901   5.022  2.4640 -1.0572 -2.6920
  163MOL0     H21969   6.461   6.820   4.990  0.7873  1.7261  1.1388
  163MOL0     H21970   6.434   6.794   4.813 -2.7515  0.8319  0.5322
  163MOL0     H21971   6.677   6.846   4.791 -1.4085  1.7588  0.0123
  163MOL0     H21972   6.686   6.867   4.972 -1.5432 -0.3159  1.2162
  163MOL0     H21973   6.646   6.647   5.026  1.9640 -0.2352 -0.8255
  163MOL0     H21974   6.604   6.594   4.861  0.0478  1.0251 -1.3334
  163MOL0     H21975   6.873   6.710   4.975  1.3890 -2.9465  2.0148
  163MOL0     H21976   6.844   6.637   4.809 -1.8329  1.9330 -0.6174
  163MOL0     H21977   6.750   6.434   4.969  2.2289 -1.5838 -0.3538
  163MOL0     H21978   6.818   6.517   5.095  0.2978  0.3320 -0.5486
  163MOL0     H21979   6.963   6.405   4.854 -2.4886 -3.0939  0.8277
  163MOL0     H21980   7.065   6.480   4.971  0.5767 -0.1098 -3.2150
  163MOL0     H21981   6.905   6.233   5.004  3.4614 -2.4976 -2.1846
  163MOL0     H21982   6.966   6.326   5.145 -0.2354 -0.5909  0.5247
  163MOL0     H21983   7.084   6.127   5.037  1.9451 -1.1425  0.9648
  163MOL0     H21984   7.165   6.248   4.927 -0.3318  2.1525  0.0998
  163MOL0     H21985   6.448   7.228   4.808  1.6439 -1.2167  1.1085
  163MOL0     H21986   6.268   7.369   4.853  1.2638 -1.3252 -1.3438
  163MOL0     H21987   5.976   7.500   5.335  0.0006 -3.1924 -0.4800
  163MOL0     H21988   5.828   7.675   5.369 -0.1871 -1.7809  0.8621
  163MOL0     H21989   4.046   8.003   6.160 -0.5075  0.0516 -0.4455
  163MOL0     H21990   3.807   7.962   6.219  0.4576 -1.7629  0.9425
  163MOL0     H21991   3.424   7.778   5.980 -0.9352  0.4990 -0.9848
  163MOL0     H21992   3.188   7.746   5.952 -1.0280 -1.3999  0.4235
  163MOL0     H21993   2.925   7.797   6.329  0.5333 -0.6204  0.3534
  163MOL0     H21994   2.966   7.624   6.323 -2.8967  0.1792  1.7889
  163MOL0     H21995   2.787   7.560   6.178  1.1186 -0.1902 -1.3384
  163MOL0     H21996   2.739   7.725   6.166  0.7799  0.6428  0.7293
  163MOL0     H21997   2.642   7.731   6.354 -1.8377 -0.5864 -3.0300
  163MOL0     H21998   2.767   7.640   6.447  0.8753 -2.5197 -1.3442
  163MOL0     H21999   2.555   7.531   6.470 -2.0687  2.7726 -1.4746
  163MOL0     H22000   2.537   7.518   6.295 -0.4615  1.3700  0.2784
  163MOL0     H22001   2.799   7.196   6.387 -0.9285 -1.2447  2.1989
  163MOL0     H22002   3.149   7.735   6.379 -0.2657 -1.9628 -0.8961
  163MOL0     H22003   3.313   7.783   6.518  0.1013 -1.5310  0.2650
  163MOL0     H22004   3.446   7.676   6.471  3.3377  1.2854  1.8735
  163MOL0     H22005   3.473   7.844   6.468 -0.2243 -0.2249 -2.7130
  164MOL0     O22006   8.190   3.645   1.685 -0.5970 -0.1856  0.0277
  164MOL0     C22007   8.226   3.534   1.652 -1.0159 -0.0746  0.5427
  164MOL0     O22008   8.353   3.472   1.662  0.0911 -0.0927 -0.4636
  164MOL0     C22009   8.454   3.538   1.718 -0.5017 -0.0379  0.1756
  164MOL0     C22010   8.559   3.562   1.632  0.4837 -0.7029 -0.0871
  164MOL0     C22011   8.668   3.634   1.680 -0.3023 -0.2179 -0.5592
  164MOL0     C22012   8.675   3.688   1.809  0.9629  0.1197 -0.2847
  164MOL0     O22013   8.778   3.757   1.862  0.4673 -0.4807 -0.4583
  164MOL0     C22014   8.901   3.749   1.797 -0.0943 -0.5605 -0.4492
  164MOL0     C22015   9.013   3.824   1.861  0.8482  0.3685  0.5266
  164MOL0     C22016   9.124   3.848   1.761  0.4823  0.2406 -0.6818
  164MOL0     C22017   9.218   3.951   1.825  0.5133 -0.3817  0.4398
  164MOL0     C22018   9.332   4.009   1.728 -0.6775  0.0741 -0.0420
  164MOL0     C22019   9.352   4.154   1.765  0.3314 -0.4484 -0.8439
  164MOL0     C22020   9.483   4.213   1.717  0.5481 -0.0277 -0.5338
  164MOL0     C22021   9.608   4.162   1.802  0.2381  0.2585  0.0839
  164MOL0     N22022   9.735   4.231   1.754 -0.0533  0.6122  0.4936
  164MOL0     C22023   9.765   4.364   1.754  0.2382 -0.5846  1.4476
  164MOL0     C22024   9.874   4.386   1.678  0.6732 -0.0541 -0.7867
  164MOL0     C22025   9.940   4.520   1.653  0.2541 -0.0802  0.2094
  164MOL0     C22026  10.087   4.529   1.690 -0.5205 -0.6711 -0.0236
  164MOL0     C22027  10.119   4.486   1.832  1.1509  0.7115  0.0257
  164MOL0     C22028  10.042   4.570   1.944  0.2687 -0.0938  0.5225
  164MOL0     O22029  10.082   4.710   1.950 -0.8621  0.6438  0.2336
  164MOL0     C22030  10.200   4.737   2.020 -0.2904  0.1795 -0.0436
  164MOL0     C22031  10.280   4.838   1.970  0.5351  0.2755 -0.6050
  164MOL0     C22032  10.402   4.866   2.026 -0.4153  0.1165  0.6823
  164MOL0     C22033  10.458   4.792   2.128  0.2425  0.4434 -0.9714
  164MOL0     C22034  10.597   4.820   2.181  0.0165  0.7934  0.0501
  164MOL0     O22035  10.670   4.924   2.113  0.2649 -0.4672 -0.2858
  164MOL0     C22036  10.799   4.953   2.165  0.2963  0.1177 -0.2441
  164MOL0     C22037  10.827   5.053   2.260  0.0287 -0.3525  0.2583
  164MOL0     C22038  10.962   5.066   2.303  1.0534 -0.7565 -0.0413
  164MOL0     C22039  11.069   4.996   2.250  0.0291 -0.7669 -0.3979
  164MOL0     O22040  11.194   5.012   2.300  0.2888 -1.1446  0.1492
  164MOL0     C22041  11.290   4.915   2.273 -0.3448  0.4675  0.2534
  164MOL0     C22042  11.408   4.938   2.357  0.1675  0.2506  0.8402
  164MOL0     C22043  11.528   4.861   2.306 -0.3750  0.3033  0.1356
  164MOL0     C22044  11.628   4.948   2.218  0.2162  1.0141 -1.0974
  164MOL0     C22045  11.731   4.869   2.142 -0.5399 -0.3366  0.5563
  164MOL0     C22046  11.831   4.785   2.226 -0.3173  0.0044 -0.6542
  164MOL0     C22047  11.927   4.708   2.141  0.4350  0.2345  0.3473
  164MOL0     C22048  12.034   4.642   2.233  0.7644  0.2295  0.5704
  164MOL0    Cl22049  12.159   4.773   2.289  0.2043  0.1032  0.0427
  164MOL0     C22050  11.045   4.903   2.149  0.3073 -0.8867  0.4182
  164MOL0     C22051  10.906   4.876   2.115 -0.1870  0.0369 -0.7293
  164MOL0     O22052  10.635   4.754   2.278 -0.4904  0.1905  0.4791
  164MOL0     C22053  10.372   4.699   2.196 -0.1833 -0.0190  0.7842
  164MOL0     C22054  10.242   4.676   2.144  1.3311  0.0232  0.0653
  164MOL0     N22055   9.917   4.267   1.644 -0.0319  0.8308  0.7165
  164MOL0     N22056   9.839   4.172   1.692 -0.0911  0.3011 -0.0210
  164MOL0     C22057   8.567   3.662   1.895  0.8065  0.0259  0.7641
  164MOL0     C22058   8.456   3.589   1.850  0.3048  0.2128  0.4751
  164MOL0     C22059   8.116   3.458   1.589  0.6297  0.3010  0.7799
  164MOL0     C22060   8.165   3.347   1.515 -0.1562 -0.9651 -0.2949
  164MOL0     C22061   8.078   3.269   1.430  0.9460 -0.6912 -0.5390
  164MOL0     C22062   7.939   3.294   1.447  0.8638  0.5610 -0.8392
  164MOL0     O22063   7.861   3.217   1.373  1.1031 -0.7816  0.3945
  164MOL0     C22064   7.714   3.213   1.386 -1.0149 -0.0102  0.0508
  164MOL0     C22065   7.644   3.299   1.278 -0.6548 -0.8883 -0.2760
  164MOL0     C22066   7.684   3.266   1.132 -0.8138 -0.1135 -0.3482
  164MOL0     C22067   7.705   3.118   1.095 -0.7816 -0.3562  0.3959
  164MOL0     C22068   7.747   3.116   0.950 -0.0409 -0.6111 -0.0406
  164MOL0     C22069   7.787   3.135   0.839  1.0663 -0.3174 -0.3148
  164MOL0     C22070   7.891   3.400   1.530  0.4208 -0.2767  0.4570
  164MOL0     C22071   7.977   3.484   1.600  0.6322 -0.1301 -0.7188
  164MOL0     C22072   7.916   3.580   1.704  0.1784  0.1219 -0.1944
  164MOL0     H22073   8.543   3.519   1.534  0.1331 -0.4006 -0.1650
  164MOL0     H22074   8.752   3.634   1.611 -0.3801 -3.1236 -0.7570
  164MOL0     H22075   8.927   3.644   1.782 -4.7427 -1.7563 -1.6807
  164MOL0     H22076   8.889   3.787   1.695 -0.8944 -1.6166 -0.7629
  164MOL0     H22077   9.059   3.764   1.940  0.4283 -1.0851 -0.3011
  164MOL0     H22078   8.971   3.917   1.899  0.4278  0.4254 -0.0628
  164MOL0     H22079   9.079   3.869   1.664 -4.2654 -2.3256  0.6285
  164MOL0     H22080   9.169   3.753   1.732 -2.0484 -1.0874 -0.5506
  164MOL0     H22081   9.151   4.031   1.858 -0.0678 -0.6626 -0.0416
  164MOL0     H22082   9.269   3.905   1.911  1.3095 -0.9891 -0.3485
  164MOL0     H22083   9.417   3.942   1.741 -0.1669  0.8460  0.7289
  164MOL0     H22084   9.296   4.005   1.625 -1.1561  1.3023  0.0592
  164MOL0     H22085   9.261   4.204   1.732 -0.2401  0.5139  1.8963
  164MOL0     H22086   9.339   4.158   1.874  0.1693  0.1174 -0.8829
  164MOL0     H22087   9.471   4.319   1.740 -0.6058 -0.3618  0.4753
  164MOL0     H22088   9.498   4.196   1.610 -0.7260 -1.9205 -0.4606
  164MOL0     H22089   9.593   4.195   1.905  2.5495  0.4422  0.4286
  164MOL0     H22090   9.617   4.053   1.792  1.6395  0.1700  1.7972
  164MOL0     H22091   9.692   4.434   1.792 -0.0247 -0.7831  1.3034
  164MOL0     H22092   9.927   4.551   1.549 -1.3908  1.0566  0.7025
  164MOL0     H22093   9.888   4.606   1.699  0.0065 -1.0357  1.8039
  164MOL0     H22094  10.148   4.475   1.618  0.7828  0.2409  0.3495
  164MOL0     H22095  10.120   4.634   1.693 -1.6718 -0.2301 -1.5884
  164MOL0     H22096  10.227   4.499   1.842  1.8128 -2.0267 -2.3005
  164MOL0     H22097  10.095   4.381   1.854  1.2127  0.8978  1.0595
  164MOL0     H22098  10.047   4.520   2.041  0.7789 -0.9842  0.0488
  164MOL0     H22099   9.940   4.576   1.906 -0.1965 -2.9718  1.1168
  164MOL0     H22100  10.257   4.891   1.878  0.0474  0.4120 -0.4102
  164MOL0     H22101  10.456   4.949   1.982  1.5255  0.2239  3.0335
  164MOL0     H22102  10.742   5.114   2.289  1.9085  1.9883  1.1332
  164MOL0     H22103  10.984   5.135   2.383 -3.1720  0.6379  0.1507
  164MOL0     H22104  11.244   4.818   2.292 -2.1370  0.8907 -1.5801
  164MOL0     H22105  11.312   4.911   2.166 -2.6481 -2.8881 -0.2502
  164MOL0     H22106  11.434   5.043   2.339  3.9565 -1.1346 -3.7100
  164MOL0     H22107  11.386   4.902   2.458 -1.7311 -0.0560  0.3652
  164MOL0     H22108  11.567   4.822   2.400  1.5188  2.9659  0.5700
  164MOL0     H22109  11.496   4.777   2.244  0.4624  0.5950 -0.7241
  164MOL0     H22110  11.671   5.027   2.281  0.4497 -0.9526  1.3451
  164MOL0     H22111  11.564   4.998   2.144  3.0182  1.2285 -3.5724
  164MOL0     H22112  11.786   4.946   2.088 -0.9379 -1.8504 -2.1971
  164MOL0     H22113  11.689   4.811   2.059 -2.0388  0.1746  0.9207
  164MOL0     H22114  11.897   4.857   2.275 -0.7465  0.3651 -0.6044
  164MOL0     H22115  11.777   4.720   2.295 -0.7540 -2.7715 -3.4148
  164MOL0     H22116  11.973   4.777   2.069 -0.2485  0.4358  0.1018
  164MOL0     H22117  11.880   4.623   2.091  0.1341  1.0459 -0.7909
  164MOL0     H22118  11.977   4.594   2.314 -1.0106 -0.8450 -1.2144
  164MOL0     H22119  12.077   4.556   2.180 -0.3039 -0.8101  1.3156
  164MOL0     H22120  11.130   4.857   2.100  0.2553  1.5474 -2.1941
  164MOL0     H22121  10.901   4.795   2.044  2.6742 -2.1879  1.3268
  164MOL0     H22122  10.389   4.652   2.292 -0.4762 -0.2139  0.7414
  164MOL0     H22123  10.165   4.622   2.196  0.2726 -1.2522 -2.6442
  164MOL0     H22124   8.553   3.716   1.988 -1.6905  0.6146  0.1186
  164MOL0     H22125   8.378   3.566   1.922 -1.8795 -0.1095 -1.8721
  164MOL0     H22126   8.271   3.321   1.510  0.8398  2.0037  2.3073
  164MOL0     H22127   8.109   3.194   1.358  0.0148  0.1765 -1.8714
  164MOL0     H22128   7.676   3.252   1.481  1.3908  1.0398  0.6575
  164MOL0     H22129   7.690   3.107   1.381 -1.3644  0.1142 -2.1718
  164MOL0     H22130   7.653   3.407   1.293 -1.2828 -0.8016 -0.4760
  164MOL0     H22131   7.535   3.297   1.285 -1.0152  3.2163 -1.7981
  164MOL0     H22132   7.778   3.320   1.120 -3.2472  5.4550  2.3468
  164MOL0     H22133   7.614   3.310   1.062  0.7659 -0.6408 -2.3733
  164MOL0     H22134   7.785   3.075   1.156 -0.3900 -0.8342 -0.4369
  164MOL0     H22135   7.610   3.065   1.112 -0.3660 -0.7778  1.4910
  164MOL0     H22136   7.817   3.153   0.738  2.0994 -3.1161 -0.5751
  164MOL0     H22137   7.788   3.422   1.556  0.3479  2.6738 -1.8857
  164MOL0     H22138   7.928   3.686   1.684  3.5974  0.0318  0.7119
  164MOL0     H22139   7.807   3.583   1.703  0.1843  0.9545  0.4766
  164MOL0     H22140   7.945   3.559   1.808 -2.0744 -1.5494  0.1866
  165MOL0     O22141   0.818   1.614   2.172  0.1358  0.1618  0.0278
  165MOL0     C22142   0.727   1.693   2.209 -0.3208  0.4994 -0.3623
  165MOL0     O22143   0.753   1.806   2.289 -0.0279  0.6070  0.7700
  165MOL0     C22144   0.875   1.855   2.302  0.5818 -0.9525  0.1279
  165MOL0     C22145   0.878   1.993   2.271  0.4006  0.3558 -0.4173
  165MOL0     C22146   1.004   2.052   2.275 -0.5376 -0.1356 -0.7297
  165MOL0     C22147   1.119   1.986   2.311 -0.0183 -0.1491 -0.4630
  165MOL0     O22148   1.247   2.036   2.315  0.4400  0.0493 -0.1512
  165MOL0     C22149   1.263   2.177   2.324  0.3829  0.9135 -0.3198
  165MOL0     C22150   1.374   2.202   2.432  1.1804 -0.5215 -0.4157
  165MOL0     C22151   1.401   2.355   2.459 -0.3303  0.6902 -0.4286
  165MOL0     C22152   1.546   2.360   2.504  0.1328  0.8624 -0.0918
  165MOL0     C22153   1.602   2.504   2.521 -0.0619  0.3568  0.3992
  165MOL0     C22154   1.751   2.518   2.577  0.3083  0.2115 -0.2458
  165MOL0     C22155   1.761   2.491   2.729 -0.0815  0.0166  0.8187
  165MOL0     C22156   1.895   2.534   2.800  0.5575 -0.0919  0.9936
  165MOL0     N22157   2.014   2.468   2.739 -0.4795 -0.3409  0.1142
  165MOL0     C22158   2.107   2.532   2.667  0.6383  0.0786  0.3759
  165MOL0     C22159   2.189   2.433   2.630 -0.1666 -0.0857 -0.1991
  165MOL0     C22160   2.305   2.446   2.544 -0.5108 -0.5912  0.6991
  165MOL0     C22161   2.297   2.376   2.412 -0.7917 -0.3270  0.8735
  165MOL0     C22162   2.434   2.353   2.358  0.1434 -0.3760 -0.5182
  165MOL0     C22163   2.415   2.313   2.209  0.1404 -0.9900 -0.4594
  165MOL0     O22164   2.521   2.232   2.155  0.2051 -0.8411 -0.2795
  165MOL0     C22165   2.645   2.290   2.158  1.0623 -0.3006 -0.7921
  165MOL0     C22166   2.746   2.205   2.160 -0.5646  0.6797 -0.5516
  165MOL0     C22167   2.881   2.243   2.152  0.5762 -0.8789  0.1369
  165MOL0     C22168   2.911   2.381   2.128 -0.4514  0.3007 -0.6651
  165MOL0     C22169   3.048   2.430   2.093  0.7392  1.2528 -0.0042
  165MOL0     O22170   3.055   2.555   2.025 -0.0665  0.7232 -0.2301
  165MOL0     C22171   3.167   2.597   1.959  0.7129  0.5043  0.5440
  165MOL0     C22172   3.196   2.528   1.839 -0.5475 -0.0221 -0.6332
  165MOL0     C22173   3.308   2.562   1.766  0.5722  0.1330  0.5173
  165MOL0     C22174   3.394   2.662   1.800 -0.8711  0.3632 -0.6566
  165MOL0     O22175   3.508   2.703   1.729 -0.3471  0.4740  0.2182
  165MOL0     C22176   3.547   2.627   1.612  0.3598 -0.0952 -1.2162
  165MOL0     C22177   3.613   2.491   1.648  0.6417  0.1738 -0.0808
  165MOL0     C22178   3.735   2.494   1.744  0.3664 -0.0182 -0.1294
  165MOL0     C22179   3.705   2.413   1.866 -0.1862 -0.2184 -0.9203
  165MOL0     C22180   3.748   2.267   1.849 -0.3328  0.0536 -0.2614
  165MOL0     C22181   3.692   2.195   1.979  0.1412 -0.7883  0.2008
  165MOL0     C22182   3.734   2.052   1.986 -0.7596  0.6648  0.6062
  165MOL0     C22183   3.881   2.033   2.038  0.2580 -0.4373  0.5476
  165MOL0    Cl22184   3.936   1.856   2.039 -0.0142  0.2400 -0.1529
  165MOL0     C22185   3.370   2.720   1.922 -0.0194  0.1616  0.0396
  165MOL0     C22186   3.258   2.688   2.007 -0.1970 -0.1568 -1.0473
  165MOL0     O22187   3.145   2.353   2.113  0.4538 -0.5303  0.0047
  165MOL0     C22188   2.804   2.468   2.112  0.4641 -0.1869  0.4414
  165MOL0     C22189   2.673   2.423   2.136  0.1944  0.5205  0.7413
  165MOL0     N22190   2.147   2.318   2.690 -0.1461  0.1481  0.9004
  165MOL0     N22191   2.041   2.338   2.749  0.8253 -0.4404  0.1760
  165MOL0     C22192   1.114   1.843   2.337  0.5578 -0.1494  0.6309
  165MOL0     C22193   0.987   1.780   2.337 -0.3200 -0.5412  0.5951
  165MOL0     C22194   0.580   1.670   2.165  0.2555  0.4834  0.1336
  165MOL0     C22195   0.482   1.765   2.214 -0.7004  0.4869  0.0013
  165MOL0     C22196   0.341   1.739   2.203 -0.7229 -1.1342 -0.3537
  165MOL0     C22197   0.292   1.634   2.134  0.3145  0.1124 -0.2848
  165MOL0     O22198   0.152   1.620   2.116  0.1286  0.4229 -0.2712
  165MOL0     C22199   0.114   1.509   2.034  0.3830  0.3996 -0.7067
  165MOL0     C22200  -0.040   1.509   2.009 -0.0369  0.0215  0.5015
  165MOL0     C22201  -0.107   1.370   2.018  0.3064  0.0864 -0.5279
  165MOL0     C22202  -0.070   1.283   1.900 -0.2533  0.0834  0.0356
  165MOL0     C22203  -0.155   1.167   1.876 -0.9758  0.9599  0.0396
  165MOL0     C22204  -0.223   1.074   1.847  0.4959  0.3695  0.6722
  165MOL0     C22205   0.386   1.550   2.069 -0.4279  0.4711  1.7687
  165MOL0     C22206   0.527   1.563   2.089  0.1918 -0.1959 -0.2059
  165MOL0     C22207   0.617   1.452   2.026  0.0616  0.1094  1.2484
  165MOL0     H22208   0.792   2.057   2.256 -0.7793 -1.6402 -3.0488
  165MOL0     H22209   1.009   2.161   2.274 -2.7242  0.0009 -0.7582
  165MOL0     H22210   1.291   2.220   2.228  0.0426  1.1506 -0.3141
  165MOL0     H22211   1.175   2.227   2.366 -0.3095 -0.7278  0.2603
  165MOL0     H22212   1.464   2.144   2.412  0.0851 -1.8585 -1.6557
  165MOL0     H22213   1.337   2.162   2.527  1.3567  0.9104  0.2878
  165MOL0     H22214   1.341   2.400   2.538 -0.5044  2.3259 -1.4417
  165MOL0     H22215   1.398   2.409   2.364  1.8824 -1.0700 -1.6154
  165MOL0     H22216   1.554   2.316   2.604 -1.3456 -1.3190 -0.8525
  165MOL0     H22217   1.606   2.298   2.436 -3.5239 -4.8131  1.0823
  165MOL0     H22218   1.598   2.550   2.422  1.8717  2.5206  1.2216
  165MOL0     H22219   1.537   2.562   2.587  1.1534  0.1021  1.8937
  165MOL0     H22220   1.810   2.444   2.523 -0.0711 -1.0306  1.0067
  165MOL0     H22221   1.788   2.615   2.541 -0.1264  0.2532 -0.5942
  165MOL0     H22222   1.757   2.382   2.734  0.4751 -0.0847 -0.4879
  165MOL0     H22223   1.679   2.534   2.787 -0.0893  1.2581 -0.0710
  165MOL0     H22224   1.911   2.642   2.798  4.3000 -0.5316 -1.3259
  165MOL0     H22225   1.889   2.502   2.905 -1.4417 -2.8955  0.1530
  165MOL0     H22226   2.123   2.636   2.640  0.4355 -0.6453 -2.8984
  165MOL0     H22227   2.317   2.548   2.507  1.3210 -0.5975  1.1823
  165MOL0     H22228   2.396   2.423   2.599  0.6169  2.3507  0.2498
  165MOL0     H22229   2.262   2.273   2.422  0.3620 -0.9825 -1.2723
  165MOL0     H22230   2.242   2.432   2.336  0.6710  1.5934  1.1529
  165MOL0     H22231   2.490   2.272   2.405  1.1947  0.4850 -0.2400
  165MOL0     H22232   2.490   2.446   2.370 -1.6671  0.6393  0.5203
  165MOL0     H22233   2.394   2.398   2.144 -2.0644 -2.1703 -1.3698
  165MOL0     H22234   2.322   2.256   2.200 -0.2200 -0.2107 -1.9861
  165MOL0     H22235   2.730   2.101   2.186  3.7107 -0.2180 -0.7189
  165MOL0     H22236   2.959   2.168   2.149 -1.3639 -3.0057 -3.3026
  165MOL0     H22237   3.136   2.441   1.812 -1.4722  0.1763  0.6857
  165MOL0     H22238   3.320   2.495   1.681 -0.9639 -0.4755  0.7491
  165MOL0     H22239   3.459   2.602   1.553  1.8967 -2.0014 -2.8787
  165MOL0     H22240   3.611   2.692   1.551  1.1635 -0.5376 -0.8560
  165MOL0     H22241   3.532   2.423   1.675 -0.5165  0.2307 -2.9757
  165MOL0     H22242   3.649   2.452   1.552  1.6149  0.6330  0.0862
  165MOL0     H22243   3.822   2.463   1.685 -0.1052  0.0739 -0.8862
  165MOL0     H22244   3.752   2.598   1.773  0.1180  0.5723 -1.9756
  165MOL0     H22245   3.601   2.421   1.897 -0.0772  1.3720 -0.9126
  165MOL0     H22246   3.763   2.452   1.951 -0.5607 -2.7677  0.6291
  165MOL0     H22247   3.857   2.267   1.837 -0.2404 -0.1511  0.4964
  165MOL0     H22248   3.699   2.217   1.765 -1.7106 -2.9376  2.1495
  165MOL0     H22249   3.744   2.245   2.062  0.5014  0.7141 -0.8868
  165MOL0     H22250   3.584   2.208   1.986  0.2992  0.2643  0.8825
  165MOL0     H22251   3.730   2.009   1.886  1.1781  1.0466  0.3229
  165MOL0     H22252   3.662   2.006   2.054  0.6069  2.5096  3.5311
  165MOL0     H22253   3.948   2.079   1.965  1.5567 -4.6810 -1.2554
  165MOL0     H22254   3.894   2.078   2.136 -1.1745  1.9773 -0.2655
  165MOL0     H22255   3.436   2.806   1.929  0.3041  0.1517 -2.2335
  165MOL0     H22256   3.242   2.743   2.100  0.9557 -0.2628 -0.7713
  165MOL0     H22257   2.825   2.571   2.088 -3.5443  0.0143 -3.3479
  165MOL0     H22258   2.591   2.494   2.124 -2.0748 -1.3354  3.7679
  165MOL0     H22259   1.201   1.781   2.355  1.6722  1.8801  2.9682
  165MOL0     H22260   0.985   1.672   2.347 -1.6970 -1.1172 -3.7080
  165MOL0     H22261   0.513   1.854   2.269 -1.7816  1.5934 -1.1023
  165MOL0     H22262   0.275   1.814   2.245 -0.8819 -1.6508  0.3246
  165MOL0     H22263   0.145   1.412   2.075  2.1215  0.7145 -1.2097
  165MOL0     H22264   0.160   1.527   1.937  0.3845 -3.7577 -1.6909
  165MOL0     H22265  -0.057   1.557   1.912  0.2431 -1.1556 -0.1488
  165MOL0     H22266  -0.087   1.568   2.088 -3.3721 -3.3042  1.3018
  165MOL0     H22267  -0.216   1.361   2.025  0.4732 -2.8692 -0.5316
  165MOL0     H22268  -0.078   1.329   2.115  1.6170 -0.5253 -1.1401
  165MOL0     H22269  -0.088   1.347   1.814  0.4811 -1.9521 -1.7238
  165MOL0     H22270   0.033   1.245   1.896 -0.6744 -0.9573 -2.1687
  165MOL0     H22271  -0.281   0.985   1.832  1.9858 -0.8800  1.9488
  165MOL0     H22272   0.352   1.464   2.012  0.3889  2.1802 -1.5598
  165MOL0     H22273   0.573   1.355   2.048  0.3605 -0.0372  1.2085
  165MOL0     H22274   0.605   1.485   1.922  1.0717 -1.0898  0.7188
  165MOL0     H22275   0.725   1.457   2.045  0.2365 -2.1180  1.1468
  166MOL0     O22276   2.501   5.194   2.371  0.1883  0.2617 -0.4145
  166MOL0     C22277   2.404   5.224   2.445  0.0195 -0.0531 -0.0788
  166MOL0     O22278   2.415   5.291   2.568  0.1304  0.5418  0.1338
  166MOL0     C22279   2.538   5.334   2.620 -0.2480  0.7236  0.6445
  166MOL0     C22280   2.674   5.287   2.590  0.4867  0.3044 -0.2990
  166MOL0     C22281   2.785   5.347   2.644  0.3052 -0.6236  0.1886
  166MOL0     C22282   2.767   5.451   2.742  0.2759  0.2586 -0.0752
  166MOL0     O22283   2.874   5.513   2.799 -0.3040  0.1390 -0.5669
  166MOL0     C22284   2.948   5.420   2.880 -0.5779 -0.5971 -0.1930
  166MOL0     C22285   3.048   5.500   2.957  0.3514 -0.1132 -0.5378
  166MOL0     C22286   3.186   5.508   2.899  1.1593  0.8367  0.3276
  166MOL0     C22287   3.289   5.577   2.992 -0.0980 -0.3036  0.3338
  166MOL0     C22288   3.433   5.560   2.932 -0.8638  0.0965  1.3752
  166MOL0     C22289   3.454   5.648   2.812  0.2581 -0.4674  0.2016
  166MOL0     C22290   3.600   5.677   2.791  0.1234 -0.5480  0.0927
  166MOL0     C22291   3.627   5.754   2.669 -1.1525 -1.2617 -0.1225
  166MOL0     N22292   3.772   5.774   2.669  0.3782  0.4526 -0.3424
  166MOL0     C22293   3.835   5.875   2.735 -0.1277  0.3983  0.8167
  166MOL0     C22294   3.964   5.837   2.728  0.6242  0.2053 -0.4102
  166MOL0     C22295   4.080   5.908   2.796  0.2595 -0.1762 -0.2727
  166MOL0     C22296   4.216   5.883   2.730  1.0092 -0.2442  0.2610
  166MOL0     C22297   4.278   5.742   2.768  0.5171 -0.8408 -0.1784
  166MOL0     C22298   4.405   5.721   2.681 -0.3609  0.0793 -1.0997
  166MOL0     O22299   4.500   5.824   2.710  0.3160  0.2785 -0.2320
  166MOL0     C22300   4.630   5.832   2.664  0.2757 -0.7826  0.1521
  166MOL0     C22301   4.703   5.727   2.605 -0.1374  0.1186 -1.0261
  166MOL0     C22302   4.840   5.741   2.579  0.4526 -0.1823 -0.9048
  166MOL0     C22303   4.902   5.868   2.590 -0.8887  0.4486  0.3114
  166MOL0     C22304   5.049   5.878   2.558  0.3112  0.0085 -0.5025
  166MOL0     O22305   5.114   5.765   2.521 -0.5534  0.3142  0.2978
  166MOL0     C22306   5.255   5.761   2.509  0.1770 -0.4713 -0.3451
  166MOL0     C22307   5.306   5.727   2.380 -0.2923 -0.4393  0.2783
  166MOL0     C22308   5.444   5.713   2.369 -0.1497 -1.1954 -0.1240
  166MOL0     C22309   5.530   5.731   2.477  0.1037  0.9593  0.3600
  166MOL0     O22310   5.665   5.701   2.460  0.6123  0.2788  0.0775
  166MOL0     C22311   5.757   5.688   2.569  0.2400 -0.2097  0.0568
  166MOL0     C22312   5.900   5.692   2.518  0.3042  0.6866 -0.2081
  166MOL0     C22313   5.990   5.751   2.630 -0.8394  0.5817 -0.0047
  166MOL0     C22314   6.128   5.779   2.577 -0.2760  0.9794  0.6062
  166MOL0     C22315   6.219   5.652   2.586 -0.9555  0.3622 -0.7145
  166MOL0     C22316   6.327   5.657   2.485  0.6495  0.0196  0.5780
  166MOL0     C22317   6.406   5.524   2.483  1.1217  0.0823  0.3746
  166MOL0     C22318   6.523   5.530   2.569 -0.5838 -0.2261  0.2620
  166MOL0    Cl22319   6.576   5.363   2.607  0.7058  0.0657 -0.0903
  166MOL0     C22320   5.472   5.765   2.595  0.2601 -0.0738  0.1296
  166MOL0     C22321   5.339   5.779   2.617 -0.6359 -0.1992 -0.0954
  166MOL0     O22322   5.107   5.989   2.571  0.1881  0.1421 -0.2811
  166MOL0     C22323   4.830   5.976   2.649  0.1280  0.5238  0.7340
  166MOL0     C22324   4.699   5.952   2.686  0.2719 -1.5803 -0.0171
  166MOL0     N22325   3.982   5.717   2.663 -0.2170 -0.2909  0.7837
  166MOL0     N22326   3.861   5.679   2.633  0.9138 -0.5050  0.1654
  166MOL0     C22327   2.636   5.478   2.789  0.0172 -0.8760  0.0813
  166MOL0     C22328   2.524   5.432   2.722  0.2434  0.5696 -0.2896
  166MOL0     C22329   2.260   5.208   2.380 -0.0074  0.6395 -0.4071
  166MOL0     C22330   2.164   5.306   2.420 -0.4081 -0.0467  1.9862
  166MOL0     C22331   2.042   5.315   2.353 -0.2681  0.5783 -1.3839
  166MOL0     C22332   2.010   5.217   2.257 -0.2450  0.2007  0.2521
  166MOL0     O22333   1.884   5.226   2.223 -0.5607 -0.1049  0.6983
  166MOL0     C22334   1.834   5.152   2.115  0.2603 -0.0515 -0.1610
  166MOL0     C22335   1.686   5.199   2.091  0.2831 -0.0359  0.3587
  166MOL0     C22336   1.611   5.134   1.972  0.3969  0.9589 -0.2892
  166MOL0     C22337   1.646   5.192   1.836 -0.3817 -0.0225 -0.1289
  166MOL0     C22338   1.571   5.110   1.741  0.0248 -0.0278  0.3166
  166MOL0     C22339   1.524   5.030   1.662  0.2610  0.0489 -0.2446
  166MOL0     C22340   2.096   5.104   2.228 -0.4492 -0.0150  0.2533
  166MOL0     C22341   2.226   5.107   2.286 -0.3776  0.4581 -1.1772
  166MOL0     C22342   2.324   4.996   2.238 -0.5033  0.3928 -0.1597
  166MOL0     H22343   2.701   5.213   2.515  0.5283  0.3247 -0.3041
  166MOL0     H22344   2.884   5.327   2.602 -0.3360  1.1508 -2.4228
  166MOL0     H22345   2.881   5.369   2.951 -0.1748 -0.3380  0.3853
  166MOL0     H22346   2.980   5.342   2.810  0.5906 -0.2804 -0.0354
  166MOL0     H22347   3.057   5.462   3.059 -2.3657 -3.8084 -1.4598
  166MOL0     H22348   3.011   5.602   2.971 -2.8429 -1.3813  1.7645
  166MOL0     H22349   3.191   5.562   2.804 -1.0187 -0.6577 -0.7079
  166MOL0     H22350   3.215   5.407   2.868 -5.8270 -1.2859 -0.9582
  166MOL0     H22351   3.269   5.683   3.005 -0.1324 -0.1706 -0.6726
  166MOL0     H22352   3.289   5.514   3.081 -1.6201  0.6455  1.0401
  166MOL0     H22353   3.506   5.584   3.010 -1.6757 -0.6410  2.3902
  166MOL0     H22354   3.442   5.460   2.890 -2.0537  0.7352 -0.5584
  166MOL0     H22355   3.407   5.606   2.722 -0.3880 -0.3289  0.4708
  166MOL0     H22356   3.413   5.748   2.829  0.8806 -0.3385  1.0211
  166MOL0     H22357   3.661   5.587   2.797  0.9464  0.0494  1.0935
  166MOL0     H22358   3.621   5.738   2.880 -2.6560  0.1085  0.3882
  166MOL0     H22359   3.601   5.704   2.575  1.0762 -0.1612 -1.4051
  166MOL0     H22360   3.569   5.847   2.669  0.3711 -0.2499 -1.4502
  166MOL0     H22361   3.795   5.955   2.796 -0.9541  1.3353 -0.8901
  166MOL0     H22362   4.054   6.014   2.795 -0.8292 -0.4001 -2.8914
  166MOL0     H22363   4.081   5.873   2.900  0.3449 -2.1191 -0.8962
  166MOL0     H22364   4.201   5.890   2.622 -3.8003  2.6280  0.8162
  166MOL0     H22365   4.284   5.960   2.767 -0.2095  1.6058 -1.1538
  166MOL0     H22366   4.214   5.655   2.750  0.5871 -0.9685  0.1841
  166MOL0     H22367   4.302   5.754   2.874 -1.5169  0.1880  0.2251
  166MOL0     H22368   4.368   5.740   2.580 -1.2393  1.3735 -0.5675
  166MOL0     H22369   4.444   5.619   2.688  1.0377  0.6834  0.5526
  166MOL0     H22370   4.680   5.621   2.603  2.1027 -0.4283 -0.6204
  166MOL0     H22371   4.892   5.655   2.538  0.9735 -0.1619 -0.3062
  166MOL0     H22372   5.234   5.722   2.299  0.7316 -0.4468 -0.6521
  166MOL0     H22373   5.478   5.693   2.268 -0.6923 -0.0503 -0.5539
  166MOL0     H22374   5.748   5.781   2.625 -0.0292 -0.5845  0.6476
  166MOL0     H22375   5.733   5.601   2.631 -1.0605  1.0053  1.3512
  166MOL0     H22376   5.920   5.586   2.498 -3.0243 -0.3739  1.4217
  166MOL0     H22377   5.912   5.748   2.425 -1.0487  0.8004 -0.3322
  166MOL0     H22378   5.957   5.850   2.662  2.1039  1.9597 -0.8765
  166MOL0     H22379   6.003   5.686   2.718 -0.3692  0.0020 -0.4918
  166MOL0     H22380   6.176   5.870   2.614  1.5985  0.0184  0.6771
  166MOL0     H22381   6.119   5.801   2.471  0.6043 -2.0704 -0.2131
  166MOL0     H22382   6.158   5.562   2.578  1.0956 -1.1746  0.1382
  166MOL0     H22383   6.264   5.660   2.685  1.9552  0.4225 -1.9467
  166MOL0     H22384   6.286   5.670   2.385 -1.9089 -0.3991  1.4886
  166MOL0     H22385   6.395   5.735   2.520 -0.0751  0.9617 -0.0848
  166MOL0     H22386   6.442   5.508   2.381  3.4541  3.3548  0.5122
  166MOL0     H22387   6.337   5.452   2.529  0.3462  1.5683  1.6357
  166MOL0     H22388   6.600   5.575   2.505  0.4948  1.3214  2.5118
  166MOL0     H22389   6.517   5.585   2.664  2.6384 -0.1398  0.5295
  166MOL0     H22390   5.528   5.789   2.685 -1.2990  1.2383  0.7989
  166MOL0     H22391   5.298   5.802   2.715  1.6820  1.6934  0.5025
  166MOL0     H22392   4.877   6.071   2.669 -0.9175  1.1121  0.4754
  166MOL0     H22393   4.633   6.020   2.739  1.5568  0.9501 -1.5016
  166MOL0     H22394   2.616   5.559   2.858 -1.0636  0.5780 -1.8465
  166MOL0     H22395   2.430   5.477   2.750  0.5265 -0.0994  2.0061
  166MOL0     H22396   2.185   5.360   2.512  4.3615  0.5525  0.8143
  166MOL0     H22397   1.963   5.374   2.398  2.4541  1.3594  2.9568
  166MOL0     H22398   1.839   5.044   2.132 -2.2834 -0.2156 -0.0420
  166MOL0     H22399   1.896   5.180   2.029  0.8366 -1.3931 -0.2004
  166MOL0     H22400   1.692   5.305   2.066  2.1723  0.2181  1.6486
  166MOL0     H22401   1.631   5.180   2.184  1.5455  0.5799  1.2575
  166MOL0     H22402   1.503   5.135   1.987  0.1197 -0.6381 -1.7354
  166MOL0     H22403   1.644   5.030   1.987 -0.9603  0.6304  0.6202
  166MOL0     H22404   1.611   5.295   1.820  1.5177  0.3983 -2.0009
  166MOL0     H22405   1.753   5.199   1.815 -0.2157  0.1958  0.7228
  166MOL0     H22406   1.476   4.960   1.596 -1.4335 -1.7135  2.5718
  166MOL0     H22407   2.080   5.020   2.162  3.3844 -0.8371  0.1746
  166MOL0     H22408   2.360   4.948   2.329 -1.8659  0.1405  0.2722
  166MOL0     H22409   2.277   4.917   2.178 -1.2712  1.8034 -1.5062
  166MOL0     H22410   2.410   5.034   2.182  0.9042 -1.7145  0.4884
  167MOL0     O22411   7.512   4.239   9.493 -0.0109 -0.0709  0.0528
  167MOL0     C22412   7.460   4.337   9.548  1.0644  0.1730  0.9298
  167MOL0     O22413   7.522   4.432   9.620 -0.9002  0.5968 -0.0461
  167MOL0     C22414   7.655   4.435   9.613 -0.2120 -0.3730  1.3538
  167MOL0     C22415   7.728   4.531   9.540 -0.1374 -0.1021  0.2577
  167MOL0     C22416   7.868   4.521   9.517  0.8080 -0.1881  0.0395
  167MOL0     C22417   7.935   4.407   9.565  1.4882  1.1538  0.3777
  167MOL0     O22418   8.068   4.400   9.536  0.2986 -0.4399  0.1378
  167MOL0     C22419   8.151   4.277   9.511  0.6038  0.4039 -0.5508
  167MOL0     C22420   8.294   4.300   9.520  0.6392 -0.2562 -0.9171
  167MOL0     C22421   8.395   4.184   9.510 -0.6446  0.1798 -0.4219
  167MOL0     C22422   8.399   4.111   9.381  0.6466  0.4592  0.5555
  167MOL0     C22423   8.508   4.002   9.375 -0.6850 -0.1854  0.1858
  167MOL0     C22424   8.637   4.069   9.344  0.3514 -0.0327  0.9515
  167MOL0     C22425   8.758   3.984   9.360 -0.3188 -0.8701 -0.4504
  167MOL0     C22426   8.885   4.059   9.317  0.1308 -0.9561 -0.2744
  167MOL0     N22427   8.901   4.184   9.411 -0.1667 -0.3267 -0.1132
  167MOL0     C22428   8.953   4.306   9.376 -0.2923  0.7413 -0.2861
  167MOL0     C22429   8.982   4.370   9.490  0.2424  0.2546  1.0096
  167MOL0     C22430   9.039   4.509   9.477 -0.5671 -0.5994 -0.3019
  167MOL0     C22431   9.187   4.532   9.520 -0.2962  0.0617  0.0039
  167MOL0     C22432   9.284   4.429   9.456 -0.1678  0.3793  0.1869
  167MOL0     C22433   9.426   4.453   9.481 -0.0520  0.4891  0.0305
  167MOL0     O22434   9.460   4.493   9.608  0.2194 -0.1622 -0.3174
  167MOL0     C22435   9.593   4.527   9.629 -0.6187  0.3853 -0.0034
  167MOL0     C22436   9.709   4.508   9.546  0.7423 -0.3528  0.2155
  167MOL0     C22437   9.833   4.555   9.582 -0.4833 -0.0326 -0.2509
  167MOL0     C22438   9.855   4.619   9.704 -0.4211 -0.5491  0.2544
  167MOL0     C22439   9.983   4.673   9.737  0.4745  0.5083 -0.0281
  167MOL0     O22440  10.026   4.674   9.867  0.4126 -0.1503 -0.3979
  167MOL0     C22441  10.156   4.700   9.916  0.2918 -0.0358 -0.4066
  167MOL0     C22442  10.157   4.745  10.047 -0.4692  0.0595 -0.0512
  167MOL0     C22443  10.281   4.760  10.113 -0.5943 -0.6974 -0.2675
  167MOL0     C22444  10.406   4.737  10.052 -0.1711 -0.8016  0.1387
  167MOL0     O22445  10.510   4.773  10.124 -0.3730 -0.8443 -0.0076
  167MOL0     C22446  10.646   4.746  10.078 -0.4311 -0.2875  0.5420
  167MOL0     C22447  10.747   4.814  10.159 -0.0526  0.7418 -0.0117
  167MOL0     C22448  10.887   4.770  10.110  0.0618 -0.5721 -0.6001
  167MOL0     C22449  10.998   4.812  10.203 -0.0863  0.4984  1.0454
  167MOL0     C22450  11.125   4.726  10.190 -0.3006  0.2974 -0.6001
  167MOL0     C22451  11.208   4.718  10.070  0.5699 -0.2463  0.5839
  167MOL0     C22452  11.287   4.843  10.048 -0.5097 -0.0426 -0.4000
  167MOL0     C22453  11.364   4.816   9.920 -0.2609  0.6791 -0.2765
  167MOL0    Cl22454  11.261   4.836   9.768  0.5839 -0.0201  0.0834
  167MOL0     C22455  10.403   4.687   9.918 -0.5758  0.6370 -0.9842
  167MOL0     C22456  10.279   4.665   9.853 -0.1172  0.6626 -0.3981
  167MOL0     O22457  10.046   4.714   9.642 -0.7437  0.2080 -0.0248
  167MOL0     C22458   9.752   4.630   9.788 -0.2214 -0.6530 -0.4771
  167MOL0     C22459   9.622   4.584   9.754  0.2831  0.6786 -0.7894
  167MOL0     N22460   8.937   4.288   9.593 -0.2519 -0.8977 -0.5072
  167MOL0     N22461   8.904   4.175   9.549  0.4640  0.5281 -0.5876
  167MOL0     C22462   7.870   4.315   9.649  0.1546 -0.0243  0.0705
  167MOL0     C22463   7.727   4.335   9.683  0.1877  0.8058  0.6862
  167MOL0     C22464   7.307   4.339   9.535  0.1998  0.2885  0.7310
  167MOL0     C22465   7.233   4.247   9.448  0.2054 -0.1870 -0.9277
  167MOL0     C22466   7.099   4.259   9.416  0.2009 -0.5445  0.1141
  167MOL0     C22467   7.032   4.366   9.469  0.1542 -0.1342  0.0477
  167MOL0     O22468   6.903   4.389   9.429  0.5089 -0.4390  0.5661
  167MOL0     C22469   6.831   4.277   9.368 -0.2647  0.3531 -0.8256
  167MOL0     C22470   6.676   4.317   9.330  0.0996  0.2869 -0.9617
  167MOL0     C22471   6.605   4.355   9.457  0.3023 -0.0168 -1.4837
  167MOL0     C22472   6.451   4.345   9.451  0.3510 -0.7252 -0.6148
  167MOL0     C22473   6.384   4.420   9.351  0.0270 -0.2800 -0.5371
  167MOL0     C22474   6.321   4.496   9.275 -0.6850  0.1562 -0.7987
  167MOL0     C22475   7.095   4.455   9.559 -0.2087  0.2304  0.7840
  167MOL0     C22476   7.229   4.444   9.594  0.3283 -0.2270 -0.4675
  167MOL0     C22477   7.285   4.561   9.673  0.0158  0.1137 -0.0354
  167MOL0     H22478   7.671   4.608   9.489 -0.3042 -0.6791 -0.4402
  167MOL0     H22479   7.919   4.599   9.461 -1.8016  0.6844 -1.2689
  167MOL0     H22480   8.129   4.199   9.584 -0.7955 -0.1255 -1.4924
  167MOL0     H22481   8.122   4.234   9.414 -1.0980 -1.3828  0.6635
  167MOL0     H22482   8.304   4.361   9.610  0.6283  1.6529 -2.1575
  167MOL0     H22483   8.322   4.375   9.445 -0.6987  1.6541  0.4064
  167MOL0     H22484   8.367   4.101   9.576 -0.1539 -2.5732 -3.4261
  167MOL0     H22485   8.490   4.227   9.543 -0.0180 -2.0421  0.9504
  167MOL0     H22486   8.296   4.076   9.373  0.0570  2.2241 -0.1564
  167MOL0     H22487   8.423   4.186   9.305  3.2119  0.5991  1.3923
  167MOL0     H22488   8.526   3.940   9.463  4.9266 -0.5513 -0.8920
  167MOL0     H22489   8.486   3.931   9.295 -1.5089  1.9494 -1.6120
  167MOL0     H22490   8.629   4.108   9.242 -3.8500 -1.2489  0.6454
  167MOL0     H22491   8.642   4.153   9.414 -0.1261  1.9776 -1.3149
  167MOL0     H22492   8.748   3.893   9.300  0.9116 -0.2886 -1.5744
  167MOL0     H22493   8.772   3.951   9.463 -3.0089  1.0256  0.6491
  167MOL0     H22494   8.974   3.996   9.313 -0.8390 -2.3215 -2.4241
  167MOL0     H22495   8.872   4.103   9.218  1.4587  1.2150  0.4499
  167MOL0     H22496   8.965   4.338   9.272 -1.3735 -2.4632 -1.5202
  167MOL0     H22497   9.020   4.546   9.376 -0.3815  0.1917 -0.0574
  167MOL0     H22498   8.978   4.572   9.543 -2.0548 -2.3307  0.0544
  167MOL0     H22499   9.217   4.634   9.497  0.2642  0.2444  1.4600
  167MOL0     H22500   9.191   4.519   9.628  2.1868 -1.0025 -0.1481
  167MOL0     H22501   9.268   4.413   9.349  3.6065 -0.4621 -0.4008
  167MOL0     H22502   9.267   4.331   9.503 -1.0623 -0.2451 -1.3755
  167MOL0     H22503   9.451   4.539   9.418  0.5518  2.6911  3.0433
  167MOL0     H22504   9.489   4.374   9.439  0.0584  1.6712 -2.1942
  167MOL0     H22505   9.694   4.459   9.450 -1.0595  1.6120 -0.5899
  167MOL0     H22506   9.912   4.546   9.508 -0.0196  0.6222  0.1561
  167MOL0     H22507  10.064   4.766  10.098 -0.3368  0.3343  0.0777
  167MOL0     H22508  10.281   4.801  10.213 -0.8713 -1.2823 -0.0251
  167MOL0     H22509  10.656   4.639  10.096  2.6423 -0.2481 -0.3763
  167MOL0     H22510  10.658   4.756   9.970 -1.4856  1.8415  0.5677
  167MOL0     H22511  10.746   4.921  10.140 -0.8897  0.3007 -2.9508
  167MOL0     H22512  10.735   4.798  10.266  0.7639 -0.3283 -0.0608
  167MOL0     H22513  10.889   4.661  10.105  1.0056 -0.5553 -0.8544
  167MOL0     H22514  10.903   4.809  10.009 -0.8465  0.7681 -0.2570
  167MOL0     H22515  10.973   4.787  10.307  3.0910 -0.5590  1.6883
  167MOL0     H22516  11.017   4.920  10.199  1.0690  0.4086  2.6764
  167MOL0     H22517  11.087   4.623  10.199 -0.4922  0.4246  0.0725
  167MOL0     H22518  11.199   4.739  10.269 -0.3503  0.0940 -0.5185
  167MOL0     H22519  11.276   4.632  10.073 -0.1902 -1.0481 -1.8590
  167MOL0     H22520  11.139   4.696   9.987  0.5922  4.5308 -0.9838
  167MOL0     H22521  11.352   4.840  10.136 -1.1303 -3.5906  0.1105
  167MOL0     H22522  11.221   4.930  10.049  1.0439  1.2028 -1.7690
  167MOL0     H22523  11.438   4.896   9.920 -2.0141  2.3674 -0.6655
  167MOL0     H22524  11.423   4.726   9.939 -1.7442 -0.0770  1.0088
  167MOL0     H22525  10.497   4.677   9.864  0.0283 -0.2731  0.1759
  167MOL0     H22526  10.286   4.639   9.748 -0.1016  2.2873 -0.8184
  167MOL0     H22527   9.770   4.672   9.887  1.3447  0.2076 -1.0908
  167MOL0     H22528   9.548   4.586   9.833  0.4084  1.5737 -0.6856
  167MOL0     H22529   7.911   4.226   9.696  0.5479 -0.4189 -0.9742
  167MOL0     H22530   7.671   4.257   9.733  2.4857 -0.4564  1.4326
  167MOL0     H22531   7.296   4.166   9.413  1.0750  0.9734 -2.1115
  167MOL0     H22532   7.067   4.180   9.349  1.0493 -0.9930  0.2191
  167MOL0     H22533   6.835   4.192   9.436  0.7658  1.0177 -0.0174
  167MOL0     H22534   6.877   4.236   9.278 -2.0237  2.3219 -2.7281
  167MOL0     H22535   6.618   4.229   9.300 -0.4439  0.6830 -1.0855
  167MOL0     H22536   6.668   4.399   9.258 -0.6253  2.3955  1.3593
  167MOL0     H22537   6.632   4.457   9.486 -1.1773 -0.0655  0.2689
  167MOL0     H22538   6.633   4.288   9.540 -1.0713  0.1921 -0.8293
  167MOL0     H22539   6.408   4.247   9.427 -3.9098  1.4233 -2.9591
  167MOL0     H22540   6.418   4.370   9.552  0.2148  0.8973 -1.0364
  167MOL0     H22541   6.286   4.552   9.191 -0.1238 -1.2230 -2.0033
  167MOL0     H22542   7.043   4.547   9.581 -0.6988  0.2678 -0.4308
  167MOL0     H22543   7.213   4.615   9.735  0.8039  0.7513  0.3590
  167MOL0     H22544   7.361   4.535   9.748  2.5043  3.4065 -1.1535
  167MOL0     H22545   7.343   4.620   9.602 -1.0015  2.4699  0.9957
  168MOL0     O22546   8.847   7.154  10.646  0.5168 -0.4966 -0.2171
  168MOL0     C22547   8.786   7.214  10.739 -0.0559 -0.0042  0.3759
  168MOL0     O22548   8.834   7.229  10.874 -0.5851  0.4194  0.3392
  168MOL0     C22549   8.965   7.221  10.885 -0.7678  0.3648 -0.6972
  168MOL0     C22550   9.018   7.120  10.964 -0.8699 -0.3129  0.5632
  168MOL0     C22551   9.152   7.136  11.012 -0.1021 -0.3346 -0.8942
  168MOL0     C22552   9.239   7.233  10.963 -0.2386 -0.1653 -0.0184
  168MOL0     O22553   9.360   7.247  11.021 -0.0087 -0.4032  0.8367
  168MOL0     C22554   9.473   7.293  10.953 -0.5202  0.0520 -0.6152
  168MOL0     C22555   9.596   7.254  11.037 -0.1930 -0.1449 -0.0164
  168MOL0     C22556   9.577   7.117  11.099 -0.0891  0.2727 -0.4093
  168MOL0     C22557   9.710   7.064  11.162  0.1910  0.2681  0.1346
  168MOL0     C22558   9.699   6.914  11.192 -0.2915  0.8662  0.3515
  168MOL0     C22559   9.786   6.873  11.310 -0.5777 -0.0771 -0.5112
  168MOL0     C22560   9.782   6.726  11.363 -0.4166  0.2052  0.8021
  168MOL0     C22561   9.863   6.640  11.261  0.4424  0.1189  0.1564
  168MOL0     N22562   9.887   6.507  11.332  0.1915 -0.8551  0.1841
  168MOL0     C22563   9.987   6.490  11.422  0.3596 -0.4454  0.2049
  168MOL0     C22564   9.985   6.352  11.452  0.2447  0.1097  0.6856
  168MOL0     C22565  10.066   6.276  11.557  0.4269  0.5054  0.1184
  168MOL0     C22566  10.188   6.218  11.496 -0.6764 -0.0510  0.6994
  168MOL0     C22567  10.186   6.152  11.354 -0.1821 -1.1241 -0.0446
  168MOL0     C22568  10.334   6.104  11.317 -0.0951  0.3696  0.7262
  168MOL0     O22569  10.362   5.995  11.396  0.0729 -0.4174  0.4181
  168MOL0     C22570  10.492   5.980  11.427 -0.0378  0.8780 -0.7108
  168MOL0     C22571  10.536   6.030  11.556 -0.5056 -0.0170  0.1324
  168MOL0     C22572  10.667   6.025  11.603  0.2201  0.4205  0.5776
  168MOL0     C22573  10.762   5.968  11.515 -0.6976 -0.1739  0.0744
  168MOL0     C22574  10.908   5.963  11.551  0.2993  0.3037  0.4433
  168MOL0     O22575  10.993   5.945  11.448 -0.1317 -0.2710  0.0667
  168MOL0     C22576  11.129   5.938  11.478 -0.4907 -0.4961  0.6368
  168MOL0     C22577  11.181   5.809  11.490  0.3816  0.5337  0.1517
  168MOL0     C22578  11.320   5.801  11.529 -0.4617  0.9992  0.3685
  168MOL0     C22579  11.400   5.913  11.542 -0.1899 -0.0023 -0.1885
  168MOL0     O22580  11.533   5.905  11.574  0.0455  0.0018  0.3835
  168MOL0     C22581  11.606   5.777  11.551  0.4492 -0.2347 -0.2709
  168MOL0     C22582  11.601   5.753  11.400 -0.4086 -0.3034  0.6484
  168MOL0     C22583  11.688   5.634  11.356 -0.5459 -0.2348 -0.1521
  168MOL0     C22584  11.730   5.647  11.219  0.3941  0.1575 -0.0068
  168MOL0     C22585  11.623   5.594  11.118  0.3341 -1.2864 -0.4300
  168MOL0     C22586  11.666   5.615  10.976  0.4413 -0.4137  0.6884
  168MOL0     C22587  11.774   5.522  10.927 -0.5820  0.1271 -0.2647
  168MOL0     C22588  11.777   5.530  10.776 -0.0326 -0.3360  0.0564
  168MOL0    Cl22589  11.904   5.420  10.700  0.0239 -0.4288  0.1491
  168MOL0     C22590  11.344   6.044  11.534  0.1772  0.3128  0.0088
  168MOL0     C22591  11.211   6.053  11.492 -0.6430  0.1395 -0.8134
  168MOL0     O22592  10.934   5.986  11.667  0.5628  0.5278 -0.4658
  168MOL0     C22593  10.722   5.929  11.390  0.3666 -0.5575 -0.3681
  168MOL0     C22594  10.591   5.932  11.346 -0.2945 -0.4126 -0.1401
  168MOL0     N22595   9.874   6.306  11.389  0.1505 -0.5646  0.2234
  168MOL0     N22596   9.823   6.389  11.310 -0.3261 -0.7348  0.2196
  168MOL0     C22597   9.189   7.321  10.863  0.2660 -0.3376 -0.5246
  168MOL0     C22598   9.055   7.312  10.826  0.2723 -0.7139 -1.1111
  168MOL0     C22599   8.642   7.256  10.719  1.0266  0.2197 -1.1547
  168MOL0     C22600   8.582   7.332  10.825 -0.1051  0.6716 -0.3641
  168MOL0     C22601   8.458   7.384  10.820 -0.3271  0.0658  0.2009
  168MOL0     C22602   8.378   7.373  10.708 -0.0710  0.3641  0.4990
  168MOL0     O22603   8.266   7.440  10.685  0.2788  0.4745  0.0628
  168MOL0     C22604   8.215   7.540  10.767 -0.4279 -0.1108 -0.3326
  168MOL0     C22605   8.084   7.599  10.716 -0.6496  0.6032 -0.0314
  168MOL0     C22606   8.111   7.719  10.623 -0.8079 -0.7084  0.0045
  168MOL0     C22607   8.193   7.833  10.698  0.3447 -0.2726  0.4670
  168MOL0     C22608   8.327   7.842  10.646 -0.3644 -0.2260 -0.6168
  168MOL0     C22609   8.438   7.856  10.601 -0.2159 -0.1036  0.2821
  168MOL0     C22610   8.428   7.293  10.599  0.4276  0.4218  0.1917
  168MOL0     C22611   8.560   7.243  10.598  0.4476 -0.3262  0.3411
  168MOL0     C22612   8.613   7.177  10.474 -0.3545 -0.6808  0.5451
  168MOL0     H22613   8.970   7.029  10.999 -0.9011  0.5513  2.9467
  168MOL0     H22614   9.176   7.058  11.084 -1.0887 -2.1126 -2.3729
  168MOL0     H22615   9.491   7.247  10.856  2.7552  1.2270 -0.6923
  168MOL0     H22616   9.469   7.402  10.941  2.8385  0.3851  0.1888
  168MOL0     H22617   9.600   7.330  11.116 -0.3243  0.2580 -0.3891
  168MOL0     H22618   9.678   7.274  10.967 -0.9652  3.5082 -0.0908
  168MOL0     H22619   9.552   7.055  11.013  1.3923 -0.8562 -0.0760
  168MOL0     H22620   9.502   7.111  11.178  1.2426  1.5371  1.0225
  168MOL0     H22621   9.790   7.080  11.089  1.7037 -0.2252  1.6151
  168MOL0     H22622   9.737   7.129  11.247  0.9073 -0.7919  0.7413
  168MOL0     H22623   9.595   6.894  11.220 -0.7869  2.5807 -0.1599
  168MOL0     H22624   9.716   6.846  11.108  0.0844  0.8683  0.4271
  168MOL0     H22625   9.890   6.888  11.279  0.0617 -1.6696  0.7488
  168MOL0     H22626   9.763   6.945  11.389 -1.0418  1.5274 -2.0330
  168MOL0     H22627   9.681   6.686  11.372 -0.6302 -0.0328 -1.8145
  168MOL0     H22628   9.828   6.704  11.459 -3.6581 -1.7974  2.0478
  168MOL0     H22629   9.805   6.635  11.169  0.2095 -1.1805  0.3602
  168MOL0     H22630   9.961   6.681  11.233  0.6928  0.3876  1.3407
  168MOL0     H22631  10.055   6.567  11.455  0.1189  1.6297 -3.5554
  168MOL0     H22632  10.104   6.347  11.631  2.5194  0.4301 -0.8352
  168MOL0     H22633  10.001   6.196  11.596 -0.3290  0.2385 -1.5825
  168MOL0     H22634  10.261   6.299  11.493  0.4893 -1.0714  0.8659
  168MOL0     H22635  10.229   6.150  11.570 -2.0675  2.5471  4.1552
  168MOL0     H22636  10.156   6.231  11.284 -1.0655  0.0799  1.6011
  168MOL0     H22637  10.105   6.079  11.344 -1.3352  0.3153 -1.9867
  168MOL0     H22638  10.400   6.191  11.331  0.1586  0.6978 -2.0286
  168MOL0     H22639  10.356   6.064  11.218 -0.9087  0.3171  0.5626
  168MOL0     H22640  10.459   6.075  11.617 -0.4857 -0.3029  0.3671
  168MOL0     H22641  10.680   6.047  11.709 -0.1525 -0.7534  0.8815
  168MOL0     H22642  11.123   5.722  11.464  1.1898  0.4868 -1.6917
  168MOL0     H22643  11.361   5.701  11.538  0.0083  1.1995  0.4628
  168MOL0     H22644  11.707   5.800  11.585 -0.2310  0.0141  1.7068
  168MOL0     H22645  11.560   5.702  11.616 -1.3481  1.4030  0.4377
  168MOL0     H22646  11.499   5.732  11.367 -1.7200  0.0326  4.0327
  168MOL0     H22647  11.651   5.843  11.361 -1.3412  0.1003  0.3639
  168MOL0     H22648  11.772   5.640  11.425  0.1686  1.3254 -1.1109
  168MOL0     H22649  11.629   5.543  11.369 -1.1776 -0.0761 -1.7206
  168MOL0     H22650  11.820   5.585  11.211 -0.5245 -1.1825 -0.3072
  168MOL0     H22651  11.765   5.746  11.191  0.0546  0.7325  1.4922
  168MOL0     H22652  11.531   5.648  11.139  0.6976 -0.8957  0.2164
  168MOL0     H22653  11.597   5.488  11.127 -5.0093 -0.1421  0.8019
  168MOL0     H22654  11.574   5.600  10.920 -0.4708 -0.3423  2.1033
  168MOL0     H22655  11.699   5.719  10.962 -0.5387  0.0818  1.8237
  168MOL0     H22656  11.759   5.420  10.964  2.3676 -0.0800  0.6473
  168MOL0     H22657  11.870   5.555  10.968 -1.2321 -0.6384  2.0383
  168MOL0     H22658  11.683   5.492  10.735  0.3188 -1.0385 -0.1175
  168MOL0     H22659  11.796   5.629  10.733 -0.2217 -0.2990  0.0544
  168MOL0     H22660  11.407   6.132  11.543 -0.1956  0.4067  2.5677
  168MOL0     H22661  11.158   6.148  11.490  0.5652  0.8786  0.1665
  168MOL0     H22662  10.800   5.900  11.320 -0.7047  1.0173 -2.3396
  168MOL0     H22663  10.559   5.902  11.247  1.3557 -0.9159 -0.5583
  168MOL0     H22664   9.258   7.394  10.821 -0.2087  0.4339  0.0127
  168MOL0     H22665   9.015   7.375  10.747  0.6558 -0.5688 -1.1913
  168MOL0     H22666   8.626   7.353  10.923 -1.9422  4.2431 -0.1545
  168MOL0     H22667   8.421   7.448  10.900 -0.6355  0.9417 -0.6354
  168MOL0     H22668   8.288   7.618  10.792 -0.0294 -0.2491 -1.0411
  168MOL0     H22669   8.179   7.512  10.866  1.9298  3.7036  1.8933
  168MOL0     H22670   8.040   7.631  10.811  3.6180 -0.7054  2.6477
  168MOL0     H22671   8.010   7.532  10.671  0.9322 -1.1445 -0.1658
  168MOL0     H22672   8.014   7.761  10.597 -0.5137  0.9225  1.3701
  168MOL0     H22673   8.172   7.684  10.538  1.8985  3.3862 -0.0348
  168MOL0     H22674   8.157   7.936  10.686  2.5124  0.6593  1.3861
  168MOL0     H22675   8.205   7.822  10.806 -0.2605  2.5437  0.9118
  168MOL0     H22676   8.539   7.864  10.566 -0.1934 -0.4319  0.2701
  168MOL0     H22677   8.362   7.272  10.515 -1.4282  1.5754  1.2844
  168MOL0     H22678   8.707   7.222  10.440 -0.3738 -0.8976  0.1953
  168MOL0     H22679   8.636   7.072  10.493  0.6731  0.0448  3.9920
  168MOL0     H22680   8.547   7.189  10.388  2.0215  1.4822 -1.1523
  169MOL0     O22681   9.471   1.987   2.229 -1.0035  0.1196 -0.5004
  169MOL0     C22682   9.487   1.989   2.106  0.0314  0.6348 -0.0862
  169MOL0     O22683   9.597   2.029   2.040 -0.4103  0.2694 -0.5321
  169MOL0     C22684   9.719   2.053   2.103  1.0265  0.0508 -0.3808
  169MOL0     C22685   9.806   2.132   2.026 -0.7298 -0.6320 -0.5746
  169MOL0     C22686   9.934   2.168   2.064 -0.2957  1.3049 -0.9834
  169MOL0     C22687   9.978   2.128   2.192 -0.4576  0.0955  0.2429
  169MOL0     O22688  10.103   2.178   2.232 -0.0829 -0.3451 -0.1919
  169MOL0     C22689  10.181   2.086   2.315 -0.9675  0.1270 -0.5109
  169MOL0     C22690  10.311   2.158   2.358 -0.3377 -0.5705 -0.5674
  169MOL0     C22691  10.295   2.280   2.451  0.0501 -0.3006 -0.7261
  169MOL0     C22692  10.430   2.355   2.488  0.2775 -0.6883  1.0814
  169MOL0     C22693  10.413   2.483   2.562  0.2526  0.3573 -1.4507
  169MOL0     C22694  10.548   2.556   2.604 -0.0925  0.8045  0.0109
  169MOL0     C22695  10.554   2.699   2.654  0.6064  0.8664 -0.3128
  169MOL0     C22696  10.463   2.739   2.772 -0.0084  0.3469  0.2735
  169MOL0     N22697  10.352   2.814   2.713  0.8805  0.3942 -0.4944
  169MOL0     C22698  10.325   2.942   2.761 -0.1589  0.3653  0.3784
  169MOL0     C22699  10.261   3.003   2.652  0.3670 -0.1796 -0.0460
  169MOL0     C22700  10.230   3.151   2.652  0.1452 -0.1489 -0.6307
  169MOL0     C22701  10.340   3.223   2.576  0.6355 -0.7402 -0.0487
  169MOL0     C22702  10.299   3.366   2.517  0.3280  0.6683 -0.3208
  169MOL0     C22703  10.431   3.451   2.510  0.1431 -0.3176  0.2540
  169MOL0     O22704  10.496   3.470   2.639 -0.3127  0.0063 -0.1970
  169MOL0     C22705  10.622   3.521   2.646 -0.4523  0.2132  0.4121
  169MOL0     C22706  10.691   3.495   2.763 -0.2842  0.5294 -0.1501
  169MOL0     C22707  10.821   3.555   2.793  0.0691 -0.0717 -0.5048
  169MOL0     C22708  10.876   3.634   2.695  0.1108  0.4725  0.4504
  169MOL0     C22709  11.013   3.698   2.715  0.7171 -0.3060 -0.1503
  169MOL0     O22710  11.070   3.668   2.833  0.1959 -0.0995 -0.0492
  169MOL0     C22711  11.200   3.702   2.873  0.7195 -0.4820 -0.0091
  169MOL0     C22712  11.315   3.692   2.789 -0.3856  0.2629 -0.0821
  169MOL0     C22713  11.449   3.706   2.839 -0.7397 -0.3588 -0.2312
  169MOL0     C22714  11.465   3.746   2.977 -0.2685 -0.4366  0.3455
  169MOL0     O22715  11.586   3.766   3.040  0.5555 -0.3114 -0.9087
  169MOL0     C22716  11.694   3.688   3.000 -0.0507  0.7670  0.2452
  169MOL0     C22717  11.810   3.722   3.088 -0.5346 -0.5580  0.3372
  169MOL0     C22718  11.865   3.870   3.074  0.1219 -0.7197 -0.2779
  169MOL0     C22719  11.981   3.909   3.171 -0.0846  0.3691  0.1522
  169MOL0     C22720  12.018   4.055   3.156  0.3521 -0.4099 -0.0234
  169MOL0     C22721  12.164   4.091   3.190 -0.2924 -0.3563  0.4285
  169MOL0     C22722  12.184   4.235   3.195 -0.4803  0.3602  0.2131
  169MOL0     C22723  12.310   4.259   3.273 -0.2105  0.2089  0.0633
  169MOL0    Cl22724  12.456   4.240   3.169 -0.0192 -0.1988  0.1393
  169MOL0     C22725  11.351   3.761   3.055 -0.2496 -0.8232  0.5156
  169MOL0     C22726  11.219   3.736   3.013 -0.3485 -0.4660 -0.1574
  169MOL0     O22727  11.057   3.759   2.621 -0.5566 -0.5518 -0.0746
  169MOL0     C22728  10.813   3.658   2.569 -0.3238  0.2336  0.2797
  169MOL0     C22729  10.681   3.604   2.549 -0.1454  1.1421  0.6876
  169MOL0     N22730  10.242   2.909   2.551 -0.2452 -0.1593 -0.5877
  169MOL0     N22731  10.295   2.800   2.586  0.0550 -0.3204 -0.6117
  169MOL0     C22732   9.887   2.053   2.278  0.2388  0.1079  1.1079
  169MOL0     C22733   9.766   2.005   2.224 -0.1218 -0.9640 -0.4702
  169MOL0     C22734   9.380   1.934   2.027 -0.0113 -0.4791  0.2711
  169MOL0     C22735   9.247   1.966   2.073 -0.3207 -0.1136  0.1384
  169MOL0     C22736   9.142   1.908   2.004 -0.3021  0.2646  0.9029
  169MOL0     C22737   9.156   1.823   1.893  0.3168  0.0738  0.3703
  169MOL0     O22738   9.034   1.768   1.846  0.1692 -0.2145  0.4628
  169MOL0     C22739   9.036   1.732   1.702 -0.1502  0.1099  0.2948
  169MOL0     C22740   8.898   1.698   1.645 -0.5557  0.1545 -0.3480
  169MOL0     C22741   8.808   1.822   1.650 -0.6839  0.4633 -0.0274
  169MOL0     C22742   8.684   1.810   1.564 -0.7347  0.3684  0.4159
  169MOL0     C22743   8.585   1.919   1.572  0.3908  0.0025 -0.0767
  169MOL0     C22744   8.489   1.995   1.575  0.0759  0.6404 -0.0006
  169MOL0     C22745   9.284   1.790   1.855 -0.2528  0.9830 -0.3095
  169MOL0     C22746   9.401   1.847   1.915 -0.7486  0.5215 -0.5382
  169MOL0     C22747   9.529   1.791   1.866  1.1397 -0.1069  0.0881
  169MOL0     H22748   9.782   2.161   1.924 -2.3250 -0.4738 -0.1869
  169MOL0     H22749   9.997   2.231   2.002  0.4319  0.2922 -1.2935
  169MOL0     H22750  10.125   2.069   2.407 -0.7958  1.0721 -0.2209
  169MOL0     H22751  10.201   1.991   2.264  3.9264  2.1745 -3.1031
  169MOL0     H22752  10.360   2.194   2.267  0.6011 -2.8246 -1.0128
  169MOL0     H22753  10.375   2.084   2.407 -1.4866 -1.5014 -0.4225
  169MOL0     H22754  10.242   2.242   2.539 -0.2947 -0.3514 -0.9548
  169MOL0     H22755  10.228   2.354   2.407 -2.7571 -0.6441  2.5552
  169MOL0     H22756  10.499   2.281   2.530  0.4289 -0.3549  1.4147
  169MOL0     H22757  10.475   2.392   2.396  0.7579 -1.2183  1.0993
  169MOL0     H22758  10.359   2.565   2.514  1.0454  1.3798 -0.6412
  169MOL0     H22759  10.364   2.468   2.658  1.5631  5.0713  0.2238
  169MOL0     H22760  10.601   2.496   2.678  0.5062  1.2502 -0.0487
  169MOL0     H22761  10.612   2.553   2.515 -1.2884 -1.3691 -0.8535
  169MOL0     H22762  10.526   2.756   2.565 -1.0983 -0.7585 -0.8906
  169MOL0     H22763  10.656   2.717   2.687  0.9168 -2.6165  1.0986
  169MOL0     H22764  10.420   2.653   2.824 -0.8716 -0.1324 -1.1589
  169MOL0     H22765  10.527   2.797   2.839  0.7419 -0.4151  0.2469
  169MOL0     H22766  10.349   2.992   2.854  0.3082  0.0298  0.4404
  169MOL0     H22767  10.129   3.174   2.616 -0.6436 -0.4193  1.2649
  169MOL0     H22768  10.239   3.195   2.752  1.1185  0.6380 -1.0482
  169MOL0     H22769  10.420   3.244   2.647  0.7493  0.8437 -0.5865
  169MOL0     H22770  10.375   3.153   2.499  1.6349 -1.8118  1.3308
  169MOL0     H22771  10.239   3.425   2.587 -0.3416  0.8859 -1.0768
  169MOL0     H22772  10.247   3.355   2.421 -1.9437  0.5565  0.8545
  169MOL0     H22773  10.398   3.551   2.480  1.4377  1.4726  4.0380
  169MOL0     H22774  10.505   3.410   2.441  2.7826  0.8663  2.1775
  169MOL0     H22775  10.645   3.427   2.834 -3.2353  3.8605  1.4243
  169MOL0     H22776  10.867   3.538   2.890 -1.5281 -1.1940  0.0952
  169MOL0     H22777  11.307   3.650   2.689  2.1959  0.5720 -0.4789
  169MOL0     H22778  11.533   3.691   2.771 -1.8633  0.7809 -1.9437
  169MOL0     H22779  11.672   3.581   3.008 -0.0335  0.7847  0.5297
  169MOL0     H22780  11.738   3.712   2.902 -0.3108  0.3953  0.0331
  169MOL0     H22781  11.776   3.693   3.188 -0.2258 -3.3434 -0.2733
  169MOL0     H22782  11.895   3.654   3.074 -2.1875 -2.8351  0.9204
  169MOL0     H22783  11.891   3.893   2.971 -1.2441  0.5844 -0.3777
  169MOL0     H22784  11.780   3.937   3.093 -0.8277 -1.2518 -2.4274
  169MOL0     H22785  12.069   3.852   3.141 -0.6900 -0.0169 -0.9550
  169MOL0     H22786  11.954   3.883   3.274 -5.5668  2.0217 -0.5210
  169MOL0     H22787  11.955   4.118   3.220  0.9484 -0.9770  1.1389
  169MOL0     H22788  12.006   4.089   3.052  0.6327  3.5867  1.0850
  169MOL0     H22789  12.202   4.045   3.282  2.7834  2.2701  0.6028
  169MOL0     H22790  12.229   4.056   3.110  1.5766  2.4498  0.6053
  169MOL0     H22791  12.095   4.281   3.239 -1.7565 -0.2143 -1.6216
  169MOL0     H22792  12.199   4.279   3.095 -0.2002 -0.9631 -0.3494
  169MOL0     H22793  12.324   4.362   3.306  3.2920  0.5572 -1.9607
  169MOL0     H22794  12.319   4.182   3.350  0.4626 -2.1722 -2.2409
  169MOL0     H22795  11.352   3.785   3.161 -0.5728 -1.2004  0.6102
  169MOL0     H22796  11.130   3.738   3.074 -0.0822 -1.9071  0.3183
  169MOL0     H22797  10.859   3.715   2.489  1.4382 -2.0283 -0.4327
  169MOL0     H22798  10.638   3.624   2.452  0.8928  1.5555  0.2974
  169MOL0     H22799   9.918   2.014   2.374  2.6172  1.3548  0.9145
  169MOL0     H22800   9.704   1.939   2.284 -0.3640  0.1449  0.5288
  169MOL0     H22801   9.234   2.031   2.159  0.5300 -3.1514  2.7507
  169MOL0     H22802   9.043   1.939   2.036  0.2284  0.0131  2.9269
  169MOL0     H22803   9.097   1.643   1.686 -1.0377 -0.0576 -2.6360
  169MOL0     H22804   9.070   1.817   1.642 -3.7698  2.1493  0.8771
  169MOL0     H22805   8.856   1.606   1.688 -4.2441  0.7983 -2.1199
  169MOL0     H22806   8.908   1.676   1.538 -0.1027 -1.0857 -0.0680
  169MOL0     H22807   8.871   1.906   1.618 -2.7386  1.5392 -1.4778
  169MOL0     H22808   8.774   1.835   1.753  2.1106 -1.6676  1.2754
  169MOL0     H22809   8.711   1.801   1.458  0.2698 -0.3314  0.7115
  169MOL0     H22810   8.630   1.720   1.593  0.5793 -0.4975  0.2433
  169MOL0     H22811   8.414   2.071   1.580 -0.8994 -0.3544  1.8488
  169MOL0     H22812   9.306   1.722   1.773  0.3245 -0.1621  0.7672
  169MOL0     H22813   9.612   1.820   1.932  0.0551 -1.9684  2.4366
  169MOL0     H22814   9.516   1.683   1.878  2.2179 -0.2746 -0.1570
  169MOL0     H22815   9.552   1.822   1.764 -0.4314  2.4818  0.4352
  170MOL0     O22816   0.068   5.148   7.795  0.3054  0.3587 -0.1068
  170MOL0     C22817  -0.036   5.204   7.786  0.2545  0.5851 -0.5441
  170MOL0     O22818  -0.078   5.309   7.862 -0.1137  0.5330 -0.3210
  170MOL0     C22819   0.019   5.349   7.954  0.9195  0.2472  1.0976
  170MOL0     C22820   0.017   5.287   8.075  0.8619  0.5242  1.4028
  170MOL0     C22821   0.112   5.321   8.178  0.3903  0.5947 -0.6250
  170MOL0     C22822   0.202   5.418   8.156  0.2608 -0.5016 -0.2166
  170MOL0     O22823   0.292   5.453   8.254  0.4308 -0.5016  0.3637
  170MOL0     C22824   0.377   5.356   8.297 -0.6718 -0.6711  0.2064
  170MOL0     C22825   0.523   5.420   8.292 -0.2884 -0.3142 -0.2096
  170MOL0     C22826   0.627   5.350   8.389  0.6094  0.2879 -0.0528
  170MOL0     C22827   0.775   5.408   8.353  0.5870  0.9818 -1.0996
  170MOL0     C22828   0.856   5.447   8.472  0.1463 -0.0113 -0.0088
  170MOL0     C22829   0.980   5.535   8.430 -0.4691  0.3544 -0.3617
  170MOL0     C22830   1.063   5.471   8.313 -0.1306  0.4571  0.2117
  170MOL0     C22831   1.129   5.337   8.358 -0.1361  0.5626 -0.1467
  170MOL0     N22832   1.235   5.363   8.454 -0.0955  1.2355  0.8306
  170MOL0     C22833   1.366   5.323   8.429 -0.3906 -0.3728 -0.2591
  170MOL0     C22834   1.440   5.346   8.537 -0.1791  0.6843 -0.4087
  170MOL0     C22835   1.591   5.332   8.541  0.2547  1.6963 -0.2131
  170MOL0     C22836   1.687   5.418   8.459  0.2289  1.2285 -0.5098
  170MOL0     C22837   1.701   5.377   8.310  1.0641  0.7774 -0.9867
  170MOL0     C22838   1.788   5.460   8.227 -1.1636  0.1308 -0.3556
  170MOL0     O22839   1.830   5.389   8.109  0.2521  0.4827 -0.2183
  170MOL0     C22840   1.955   5.408   8.048  0.2497 -0.4918 -0.0888
  170MOL0     C22841   1.997   5.325   7.950  0.1031  0.2084  0.3936
  170MOL0     C22842   2.129   5.328   7.898 -0.2957  0.0480  0.1579
  170MOL0     C22843   2.220   5.425   7.949  0.1960  0.7806 -0.3240
  170MOL0     C22844   2.359   5.447   7.900 -0.2443 -0.6127  0.3324
  170MOL0     O22845   2.398   5.367   7.793  0.0666  0.2911 -0.0366
  170MOL0     C22846   2.535   5.370   7.766  0.1005  0.1165  0.5453
  170MOL0     C22847   2.640   5.365   7.857 -0.0833  0.0554  0.0670
  170MOL0     C22848   2.776   5.366   7.822 -0.1326  0.3555 -0.3085
  170MOL0     C22849   2.810   5.372   7.688  0.4208  0.1140 -0.1248
  170MOL0     O22850   2.938   5.362   7.634  0.3324  0.3538  0.6181
  170MOL0     C22851   3.015   5.484   7.631 -0.1424  0.0010 -0.0125
  170MOL0     C22852   3.159   5.457   7.592 -0.2523 -0.5723  0.3986
  170MOL0     C22853   3.260   5.583   7.590 -0.6697  0.6275  0.1828
  170MOL0     C22854   3.403   5.556   7.539  0.3617  0.4765 -0.0055
  170MOL0     C22855   3.490   5.686   7.516  0.9089 -0.1943  0.1191
  170MOL0     C22856   3.616   5.650   7.438  0.6747 -0.9074 -0.4290
  170MOL0     C22857   3.660   5.750   7.324  0.0310 -0.7650 -0.5411
  170MOL0     C22858   3.786   5.696   7.247  0.3478 -0.2570 -0.1857
  170MOL0    Cl22859   3.930   5.739   7.325  0.1564  0.2774 -0.1063
  170MOL0     C22860   2.706   5.378   7.594 -1.3853  0.1116  0.3560
  170MOL0     C22861   2.571   5.385   7.628  1.1006  0.2053  0.4352
  170MOL0     O22862   2.438   5.534   7.954  0.1026 -0.4091 -0.1388
  170MOL0     C22863   2.164   5.528   8.038 -1.1237  0.5177 -0.4534
  170MOL0     C22864   2.036   5.511   8.088  0.1014 -0.1048 -0.5002
  170MOL0     N22865   1.360   5.390   8.632 -0.3430 -0.3179  0.4768
  170MOL0     N22866   1.240   5.397   8.581  0.2164 -0.5667 -0.3000
  170MOL0     C22867   0.206   5.484   8.033  0.1135  0.4291  0.0456
  170MOL0     C22868   0.107   5.451   7.936  0.1700 -0.3625 -0.6038
  170MOL0     C22869  -0.136   5.147   7.686  1.4351 -0.1760  0.2839
  170MOL0     C22870  -0.252   5.224   7.668  0.7215  0.2375 -0.0214
  170MOL0     C22871  -0.354   5.192   7.583  0.0475  0.5308 -0.4952
  170MOL0     C22872  -0.344   5.076   7.515 -0.3040  0.0806  0.0116
  170MOL0     O22873  -0.456   5.033   7.444 -0.5095  0.0588  0.3295
  170MOL0     C22874  -0.462   4.892   7.404  0.6002  0.4072 -0.1025
  170MOL0     C22875  -0.601   4.869   7.348  0.7399  0.2845  0.8701
  170MOL0     C22876  -0.712   4.816   7.437 -0.0820  0.0640 -0.0254
  170MOL0     C22877  -0.822   4.740   7.352  0.6890 -0.1369 -0.5733
  170MOL0     C22878  -0.889   4.830   7.261  0.8315  0.4551  0.6763
  170MOL0     C22879  -0.943   4.907   7.181 -0.5956  0.1210  0.2560
  170MOL0     C22880  -0.222   4.996   7.514  0.3727  0.4131 -0.3260
  170MOL0     C22881  -0.116   5.027   7.606  0.8630  0.0005 -0.5367
  170MOL0     C22882  -0.004   4.930   7.618 -0.8299  0.6068 -0.2257
  170MOL0     H22883  -0.056   5.210   8.097 -0.1169  1.0752  0.2323
  170MOL0     H22884   0.091   5.266   8.269 -0.8812  1.5254 -0.3317
  170MOL0     H22885   0.358   5.321   8.399  2.4191 -0.7493  0.8504
  170MOL0     H22886   0.372   5.264   8.238 -1.3731 -0.8326  0.5038
  170MOL0     H22887   0.521   5.519   8.339  1.7047 -0.9649  1.4150
  170MOL0     H22888   0.550   5.432   8.187 -1.0206 -2.1638 -0.6415
  170MOL0     H22889   0.626   5.241   8.379  0.6130  0.3345 -0.5485
  170MOL0     H22890   0.593   5.374   8.490 -0.4966 -0.4615 -0.2306
  170MOL0     H22891   0.826   5.336   8.287  0.2463  0.3145 -0.6439
  170MOL0     H22892   0.753   5.495   8.290 -5.4585  1.9179  1.5766
  170MOL0     H22893   0.797   5.510   8.539  0.0268  1.4600 -1.4508
  170MOL0     H22894   0.899   5.364   8.528  0.4076 -0.3316 -0.6772
  170MOL0     H22895   0.949   5.636   8.399  0.2311  0.2802 -1.3481
  170MOL0     H22896   1.036   5.544   8.523 -0.4183 -0.4137 -0.3179
  170MOL0     H22897   1.135   5.544   8.274  0.1574  1.6808  2.7824
  170MOL0     H22898   1.000   5.448   8.227 -0.9714 -0.5939  1.0733
  170MOL0     H22899   1.055   5.263   8.390  0.2067  0.1498 -0.3041
  170MOL0     H22900   1.178   5.302   8.266 -4.1677  0.2424 -2.4584
  170MOL0     H22901   1.405   5.292   8.333  0.1885 -2.7734  0.6776
  170MOL0     H22902   1.622   5.355   8.643  3.0344  1.0518 -0.8185
  170MOL0     H22903   1.609   5.227   8.516  0.6529  1.3083  1.5605
  170MOL0     H22904   1.643   5.518   8.456 -3.4737 -0.2436 -0.2513
  170MOL0     H22905   1.784   5.412   8.509 -0.2614 -0.2172  0.3230
  170MOL0     H22906   1.604   5.362   8.261 -0.8273  1.1308  2.3500
  170MOL0     H22907   1.745   5.277   8.321 -0.3616  0.2928  1.0198
  170MOL0     H22908   1.878   5.480   8.285 -1.7281  2.3290 -0.1181
  170MOL0     H22909   1.738   5.555   8.202 -0.5793  0.7655  0.8083
  170MOL0     H22910   1.925   5.259   7.904 -0.1899 -0.1189  1.2966
  170MOL0     H22911   2.154   5.265   7.813  0.3988  0.8323 -0.2313
  170MOL0     H22912   2.629   5.360   7.965  2.9043 -3.5164  0.4117
  170MOL0     H22913   2.851   5.353   7.899 -0.1707  1.5581 -0.0474
  170MOL0     H22914   2.984   5.552   7.552  1.8906  1.6125  0.4879
  170MOL0     H22915   3.020   5.532   7.729  1.1553 -1.1746  0.5518
  170MOL0     H22916   3.192   5.386   7.668  3.6744 -1.0525 -1.4933
  170MOL0     H22917   3.174   5.400   7.499  0.9999  0.4393 -0.0373
  170MOL0     H22918   3.210   5.658   7.528  0.4948  0.1762 -1.3841
  170MOL0     H22919   3.271   5.618   7.693 -1.1154 -3.6416  1.8622
  170MOL0     H22920   3.389   5.504   7.444  0.2821 -0.0849  0.3108
  170MOL0     H22921   3.458   5.488   7.605 -0.6140 -3.5931 -2.9815
  170MOL0     H22922   3.509   5.726   7.616  0.4195  1.9281 -0.5927
  170MOL0     H22923   3.419   5.750   7.463  0.0373 -0.6981  0.6557
  170MOL0     H22924   3.698   5.652   7.511  1.2517 -1.6976 -1.0447
  170MOL0     H22925   3.618   5.547   7.401  0.1254 -1.2035  0.3463
  170MOL0     H22926   3.687   5.848   7.364 -0.1480 -0.2725 -1.5995
  170MOL0     H22927   3.576   5.755   7.255 -1.5756 -3.5144  1.0074
  170MOL0     H22928   3.782   5.587   7.232  0.6869 -0.1697 -0.9535
  170MOL0     H22929   3.783   5.735   7.145 -1.2496 -0.6043 -0.2861
  170MOL0     H22930   2.727   5.378   7.488 -0.0637  0.0333  0.5987
  170MOL0     H22931   2.496   5.398   7.551  2.2921  0.6670 -0.6634
  170MOL0     H22932   2.230   5.609   8.067  2.0637 -0.7720 -3.3143
  170MOL0     H22933   2.006   5.590   8.156  0.5126  1.4416 -2.0419
  170MOL0     H22934   0.282   5.556   8.005  0.3828 -0.3961 -1.4520
  170MOL0     H22935   0.092   5.497   7.839 -2.4688 -0.8049 -0.4903
  170MOL0     H22936  -0.257   5.314   7.729 -0.0682  0.2150 -0.0458
  170MOL0     H22937  -0.452   5.238   7.592 -1.1626 -1.0493 -3.8000
  170MOL0     H22938  -0.446   4.841   7.499  2.2558 -0.1912 -0.6687
  170MOL0     H22939  -0.392   4.863   7.326  0.0041  0.6050 -0.7240
  170MOL0     H22940  -0.596   4.795   7.267 -0.4248 -0.9541  1.8876
  170MOL0     H22941  -0.641   4.962   7.307  0.0859 -0.5398 -0.4411
  170MOL0     H22942  -0.763   4.901   7.484  1.1381 -0.3883  2.2763
  170MOL0     H22943  -0.672   4.759   7.521 -0.0750 -0.3045 -0.2772
  170MOL0     H22944  -0.783   4.659   7.289  0.8800  0.8946 -1.8326
  170MOL0     H22945  -0.893   4.693   7.420  1.6659 -1.9715 -0.7301
  170MOL0     H22946  -0.986   4.957   7.096  1.1291  0.8792 -0.2200
  170MOL0     H22947  -0.225   4.913   7.445  3.2318  0.2103 -0.3175
  170MOL0     H22948  -0.033   4.825   7.625  2.9549 -0.9014 -3.0226
  170MOL0     H22949   0.059   4.932   7.528 -0.9138  0.1529 -0.2983
  170MOL0     H22950   0.050   4.945   7.712 -3.0232  2.1128  0.8630
  171MOL0     O22951   1.824   4.514  11.113  0.6767  0.5882 -0.0326
  171MOL0     C22952   1.762   4.538  11.217  1.0363 -0.0288  1.2016
  171MOL0     O22953   1.813   4.621  11.312  0.2018 -0.2525  0.2828
  171MOL0     C22954   1.937   4.677  11.285 -0.3279 -0.0964 -0.2698
  171MOL0     C22955   1.958   4.818  11.256 -0.5329  0.3983 -0.3065
  171MOL0     C22956   2.086   4.871  11.229 -0.2738  0.0099  0.5627
  171MOL0     C22957   2.198   4.785  11.210  0.3267 -0.2668 -0.0243
  171MOL0     O22958   2.324   4.835  11.170 -0.2634  0.1177  0.8595
  171MOL0     C22959   2.428   4.732  11.154 -0.1766  0.6558 -0.1690
  171MOL0     C22960   2.537   4.797  11.082  0.4498 -1.1383  0.0354
  171MOL0     C22961   2.649   4.708  11.099  0.0690  0.4128 -0.5230
  171MOL0     C22962   2.746   4.725  10.979 -0.3166 -0.1824 -0.0129
  171MOL0     C22963   2.857   4.831  11.001  0.0244 -0.3324 -0.1514
  171MOL0     C22964   2.991   4.779  11.069  0.0728 -0.4739 -0.4582
  171MOL0     C22965   3.086   4.888  11.115  0.7078 -0.6947 -0.2191
  171MOL0     C22966   3.136   4.970  10.998  0.0222 -0.2552  0.2574
  171MOL0     N22967   3.222   5.076  11.059  0.1941 -0.2468  0.4321
  171MOL0     C22968   3.352   5.091  11.072  0.2351  0.2255 -0.7414
  171MOL0     C22969   3.372   5.203  11.145  0.0905  0.5024 -0.2514
  171MOL0     C22970   3.505   5.261  11.191 -0.0508 -0.2925  0.8844
  171MOL0     C22971   3.539   5.219  11.333  0.2284  0.0814 -0.7376
  171MOL0     C22972   3.588   5.082  11.337 -0.3048  0.2929 -0.0520
  171MOL0     C22973   3.710   5.048  11.418  0.0975  0.1442  0.3556
  171MOL0     O22974   3.829   5.073  11.337 -0.0419 -0.0893  0.1539
  171MOL0     C22975   3.953   5.033  11.391  0.9462  0.1451 -0.2101
  171MOL0     C22976   3.989   5.054  11.524 -0.0542  0.7868  0.0526
  171MOL0     C22977   4.120   5.024  11.567 -0.4167 -0.4439  0.3635
  171MOL0     C22978   4.204   4.957  11.483  0.3068  0.1203 -0.2366
  171MOL0     C22979   4.338   4.921  11.537  0.0268  0.5475 -0.3778
  171MOL0     O22980   4.414   4.844  11.450  0.2181  0.6862  0.5151
  171MOL0     C22981   4.540   4.795  11.477 -0.3791 -0.6039 -0.5045
  171MOL0     C22982   4.637   4.864  11.546 -0.0662 -0.2315 -0.2771
  171MOL0     C22983   4.773   4.821  11.562  0.1755 -0.3823  0.0476
  171MOL0     C22984   4.807   4.687  11.528  0.5612  0.0287 -0.4832
  171MOL0     O22985   4.932   4.626  11.545 -0.1718  0.4875  0.7221
  171MOL0     C22986   5.039   4.681  11.624 -0.9918 -0.6956 -0.0328
  171MOL0     C22987   5.041   4.620  11.767  0.2392 -0.5429  0.1755
  171MOL0     C22988   5.145   4.504  11.767 -0.3407 -0.4312 -0.4285
  171MOL0     C22989   5.180   4.455  11.907  0.3948  0.4691  0.1064
  171MOL0     C22990   5.316   4.375  11.906  0.4550 -0.5444 -0.3714
  171MOL0     C22991   5.421   4.431  12.007 -0.3777 -0.1948 -0.3899
  171MOL0     C22992   5.551   4.359  11.985  0.4301 -1.1860  0.1048
  171MOL0     C22993   5.669   4.453  12.039 -0.8637  0.9058  0.6030
  171MOL0    Cl22994   5.820   4.383  11.996  0.0419 -0.1848 -0.0605
  171MOL0     C22995   4.715   4.617  11.447  0.7596 -0.3153  0.5145
  171MOL0     C22996   4.583   4.671  11.419  0.1421 -1.1725 -0.4603
  171MOL0     O22997   4.369   4.954  11.656  0.7836  0.3595 -0.2212
  171MOL0     C22998   4.164   4.932  11.349 -0.5228  0.3926 -0.0169
  171MOL0     C22999   4.038   4.968  11.303 -1.0913  0.2674 -0.1668
  171MOL0     N23000   3.248   5.251  11.185 -0.1857  0.7888 -0.3464
  171MOL0     N23001   3.158   5.173  11.132 -0.4763  0.3799 -0.2835
  171MOL0     C23002   2.179   4.648  11.245  0.0935 -0.7367  0.0712
  171MOL0     C23003   2.050   4.598  11.272 -0.0809 -0.4187  0.1379
  171MOL0     C23004   1.623   4.491  11.242 -0.4255  0.5943  0.3181
  171MOL0     C23005   1.537   4.577  11.309  0.5515 -0.2979 -0.4706
  171MOL0     C23006   1.398   4.548  11.329  0.2387  0.2444  1.0207
  171MOL0     C23007   1.344   4.421  11.284 -0.0855 -0.2189 -0.7192
  171MOL0     O23008   1.218   4.372  11.322 -0.5223  0.1912  0.6164
  171MOL0     C23009   1.123   4.464  11.377 -0.0232 -0.0562  0.4781
  171MOL0     C23010   0.984   4.415  11.332 -0.3662 -0.5781 -0.4264
  171MOL0     C23011   0.939   4.288  11.404  0.8191  0.9410 -0.4276
  171MOL0     C23012   0.814   4.222  11.338 -0.3907  0.5024  0.0076
  171MOL0     C23013   0.703   4.305  11.299 -0.4627  0.1921 -0.2815
  171MOL0     C23014   0.608   4.381  11.281  0.1434 -0.2184 -0.1489
  171MOL0     C23015   1.425   4.334  11.220  0.1449  0.2875  0.1663
  171MOL0     C23016   1.562   4.369  11.192 -0.7342  0.1605  0.0190
  171MOL0     C23017   1.625   4.274  11.094  0.3543 -0.3037  0.2981
  171MOL0     H23018   1.861   4.866  11.250 -0.7073  0.0237 -0.5076
  171MOL0     H23019   2.099   4.974  11.197  3.4392  0.0290  1.6038
  171MOL0     H23020   2.453   4.698  11.256 -0.6068 -0.7809 -0.5173
  171MOL0     H23021   2.397   4.652  11.086  0.0560 -0.2793  0.7913
  171MOL0     H23022   2.562   4.890  11.135 -2.3412  1.4177 -2.6868
  171MOL0     H23023   2.512   4.824  10.979  2.3430  1.3961  0.1257
  171MOL0     H23024   2.621   4.602  11.104  0.8114  0.2613  1.4466
  171MOL0     H23025   2.700   4.732  11.193  1.7535 -1.4312 -0.8903
  171MOL0     H23026   2.801   4.630  10.977  1.5156  0.8264  0.3600
  171MOL0     H23027   2.693   4.743  10.886  0.2859 -2.5688 -0.9030
  171MOL0     H23028   2.882   4.869  10.902  0.4179 -0.7322 -0.2086
  171MOL0     H23029   2.815   4.915  11.056  2.9524  1.2044 -0.0402
  171MOL0     H23030   2.960   4.716  11.153 -2.2039  0.1058 -0.7864
  171MOL0     H23031   3.039   4.718  10.992 -1.6712 -2.1645 -0.3006
  171MOL0     H23032   3.174   4.847  11.165  0.3609 -1.8887 -0.5616
  171MOL0     H23033   3.027   4.953  11.180  0.5614  1.9170 -2.7669
  171MOL0     H23034   3.188   4.905  10.928 -1.2896 -0.8188 -0.2395
  171MOL0     H23035   3.052   5.015  10.943 -1.0278 -2.4403 -0.0072
  171MOL0     H23036   3.430   5.026  11.033 -0.2392  0.3056 -1.8591
  171MOL0     H23037   3.587   5.230  11.125 -0.9297 -0.7159 -0.0374
  171MOL0     H23038   3.494   5.369  11.178 -3.4500 -0.7364 -1.2270
  171MOL0     H23039   3.614   5.285  11.377 -0.3351  0.5560 -0.4685
  171MOL0     H23040   3.452   5.249  11.393  0.6789  0.0360 -0.0444
  171MOL0     H23041   3.607   5.053  11.233  0.7547 -1.9942  0.7330
  171MOL0     H23042   3.511   5.010  11.366  1.0762 -1.6968 -1.0702
  171MOL0     H23043   3.708   4.941  11.441  1.0943 -0.4504 -1.9800
  171MOL0     H23044   3.706   5.112  11.506  0.1068  1.1240 -0.3410
  171MOL0     H23045   3.910   5.084  11.592 -1.0268  0.0631 -0.7187
  171MOL0     H23046   4.154   5.044  11.668  0.0312  0.0695  0.1223
  171MOL0     H23047   4.607   4.960  11.588 -2.2526 -2.1934  3.1068
  171MOL0     H23048   4.848   4.881  11.613  2.7005 -2.8573 -0.5488
  171MOL0     H23049   5.130   4.660  11.568 -0.1182 -0.5709  1.3024
  171MOL0     H23050   5.021   4.789  11.633  0.4876 -0.5695  2.7915
  171MOL0     H23051   5.060   4.699  11.839 -0.4493  1.8712 -2.1337
  171MOL0     H23052   4.941   4.591  11.800 -0.1375 -2.4970 -2.3381
  171MOL0     H23053   5.127   4.426  11.693  0.8742 -2.2360  1.0926
  171MOL0     H23054   5.236   4.544  11.722  0.9052  1.3069  3.2623
  171MOL0     H23055   5.105   4.380  11.930  1.7161 -1.1850 -0.7949
  171MOL0     H23056   5.184   4.538  11.979  1.8114 -0.5142  1.2342
  171MOL0     H23057   5.360   4.375  11.805 -1.2036  2.4129 -1.2219
  171MOL0     H23058   5.289   4.274  11.936 -1.4256 -0.0281 -0.2376
  171MOL0     H23059   5.425   4.539  11.990  2.7872 -0.3484 -1.2623
  171MOL0     H23060   5.387   4.415  12.110  1.0588 -1.1848 -0.0421
  171MOL0     H23061   5.554   4.341  11.877 -0.5788 -1.4645  0.1126
  171MOL0     H23062   5.554   4.265  12.040  2.4960 -1.1629  0.1059
  171MOL0     H23063   5.653   4.553  11.998 -0.9672  2.8707  4.8117
  171MOL0     H23064   5.668   4.477  12.146  1.5847  1.8793  0.4763
  171MOL0     H23065   4.734   4.519  11.405  0.4236 -1.9163  3.7249
  171MOL0     H23066   4.507   4.625  11.357  1.2209 -1.9208 -1.2653
  171MOL0     H23067   4.224   4.884  11.272  0.9637  2.8466 -0.5043
  171MOL0     H23068   4.003   4.938  11.205 -1.2634 -1.1747  0.3110
  171MOL0     H23069   2.253   4.571  11.226  1.3276  0.6098 -0.8568
  171MOL0     H23070   2.052   4.492  11.296  1.9453 -0.0569  1.9555
  171MOL0     H23071   1.575   4.676  11.333  0.5784 -0.9357  2.3753
  171MOL0     H23072   1.328   4.620  11.370 -1.1885 -0.3140 -0.3160
  171MOL0     H23073   1.139   4.563  11.335 -0.7965 -0.3958 -0.6584
  171MOL0     H23074   1.127   4.475  11.486  0.2959  2.3849  0.2727
  171MOL0     H23075   0.987   4.413  11.222  0.5375  1.3287 -0.4723
  171MOL0     H23076   0.911   4.492  11.357 -0.9292 -0.4906 -2.1596
  171MOL0     H23077   0.921   4.317  11.508  2.1061  2.4520 -0.5871
  171MOL0     H23078   1.015   4.210  11.394  1.3887  1.4045  0.2868
  171MOL0     H23079   0.853   4.187  11.242 -0.0636 -1.2030  0.7311
  171MOL0     H23080   0.784   4.134  11.395  1.8409 -0.9001 -0.8524
  171MOL0     H23081   0.520   4.441  11.265  0.7673 -0.0972 -3.9958
  171MOL0     H23082   1.375   4.242  11.190  1.4957 -0.1585 -0.8110
  171MOL0     H23083   1.547   4.244  11.023  1.3802  2.0115 -2.0259
  171MOL0     H23084   1.704   4.317  11.031 -0.2189 -1.3922 -1.2324
  171MOL0     H23085   1.670   4.189  11.145 -0.5007 -1.0275 -0.1189
  172MOL0     O23086   0.846   0.322   6.770 -0.2156 -0.4770 -0.6756
  172MOL0     C23087   0.817   0.252   6.670 -0.6780 -0.6382  0.7429
  172MOL0     O23088   0.872   0.266   6.546 -1.2127  0.1245  0.4869
  172MOL0     C23089   0.969   0.361   6.517  1.0423 -0.0844  0.4608
  172MOL0     C23090   1.086   0.322   6.451 -0.1876  0.2085 -0.3015
  172MOL0     C23091   1.197   0.405   6.450 -0.6010  0.9502 -0.1663
  172MOL0     C23092   1.183   0.536   6.498  0.3965 -0.0603  0.8612
  172MOL0     O23093   1.297   0.607   6.485 -0.1470 -0.5525  0.0420
  172MOL0     C23094   1.309   0.722   6.571 -0.0044  0.0978  0.0036
  172MOL0     C23095   1.457   0.766   6.582 -0.7454  0.1319 -0.4544
  172MOL0     C23096   1.474   0.906   6.503 -0.1416  1.1865  0.3753
  172MOL0     C23097   1.610   0.975   6.523 -1.3473  0.1320  0.4342
  172MOL0     C23098   1.726   0.925   6.437  0.2268 -0.2562  0.5281
  172MOL0     C23099   1.706   0.914   6.286 -0.6664  0.7825  0.6421
  172MOL0     C23100   1.828   0.885   6.194 -0.5726  0.0683  0.6548
  172MOL0     C23101   1.950   0.963   6.229  0.6160  0.0753 -0.1592
  172MOL0     N23102   1.925   1.104   6.233  0.5133 -0.4859  0.1822
  172MOL0     C23103   1.847   1.172   6.151  0.5753 -0.7483  0.8611
  172MOL0     C23104   1.851   1.303   6.187 -0.5668  0.0391  0.5386
  172MOL0     C23105   1.753   1.402   6.147  0.3595 -0.5864  0.1110
  172MOL0     C23106   1.612   1.360   6.194 -0.1445 -0.2239 -0.2279
  172MOL0     C23107   1.585   1.347   6.342 -0.9780  0.6164  0.4767
  172MOL0     C23108   1.621   1.469   6.430  0.0653 -0.1517  0.5270
  172MOL0     O23109   1.579   1.454   6.574 -0.7231 -0.0109  0.2360
  172MOL0     C23110   1.638   1.359   6.657  0.0468 -0.6431 -0.4643
  172MOL0     C23111   1.764   1.312   6.625  0.8918  0.0032  0.6149
  172MOL0     C23112   1.831   1.235   6.714  0.0573  0.8653 -0.6432
  172MOL0     C23113   1.785   1.201   6.840 -0.0503  0.1072 -0.1725
  172MOL0     C23114   1.859   1.113   6.929 -0.2490 -0.1498  0.1575
  172MOL0     O23115   1.985   1.088   6.884  0.4372  0.7588  0.5247
  172MOL0     C23116   2.054   0.984   6.938  0.2766  0.2158 -0.1333
  172MOL0     C23117   2.013   0.856   6.983  0.5568 -0.1371 -1.0734
  172MOL0     C23118   2.103   0.764   7.041 -0.1825 -0.0187 -0.0842
  172MOL0     C23119   2.243   0.796   7.050  1.7441  0.3918 -0.4286
  172MOL0     O23120   2.335   0.704   7.102  0.8196  0.4235 -0.5496
  172MOL0     C23121   2.308   0.566   7.125 -0.6429  0.0450 -0.3281
  172MOL0     C23122   2.440   0.501   7.166 -0.2446  0.1160  1.0086
  172MOL0     C23123   2.516   0.569   7.279 -0.4223 -0.4373  0.2306
  172MOL0     C23124   2.658   0.508   7.298  0.2727 -0.9739 -0.9385
  172MOL0     C23125   2.765   0.586   7.217 -0.0333  0.0450  0.8611
  172MOL0     C23126   2.900   0.508   7.240 -0.8182 -0.0130  1.0441
  172MOL0     C23127   3.029   0.575   7.184  0.4345 -0.5997  0.3190
  172MOL0     C23128   3.144   0.479   7.193 -0.5330  0.3450 -0.4102
  172MOL0    Cl23129   3.294   0.548   7.127  0.1669 -0.2767 -0.1365
  172MOL0     C23130   2.285   0.921   7.006 -0.3726  0.1403  0.8376
  172MOL0     C23131   2.191   1.015   6.958  0.4560 -0.1888  0.2015
  172MOL0     O23132   1.821   1.084   7.040  0.4048  0.3407  0.4101
  172MOL0     C23133   1.658   1.255   6.870  0.3583 -0.2902  0.5448
  172MOL0     C23134   1.578   1.325   6.774 -1.1545  0.5116 -0.3333
  172MOL0     N23135   1.927   1.307   6.298 -0.6919  0.4314 -0.5696
  172MOL0     N23136   1.966   1.187   6.325 -0.1419 -0.4992  0.0350
  172MOL0     C23137   1.064   0.585   6.528  0.5331 -0.8977 -0.3533
  172MOL0     C23138   0.954   0.495   6.554 -0.5312 -1.0186  0.0561
  172MOL0     C23139   0.710   0.157   6.696  0.8387  0.1337 -0.1007
  172MOL0     C23140   0.613   0.188   6.796 -0.6421 -0.8457 -0.6067
  172MOL0     C23141   0.498   0.117   6.813 -0.7192  0.7928 -0.2462
  172MOL0     C23142   0.492  -0.015   6.746  1.7999  0.0009  0.2362
  172MOL0     O23143   0.380  -0.101   6.774  0.3006  0.3471 -0.0255
  172MOL0     C23144   0.319  -0.172   6.669 -0.2474  0.3127  0.3443
  172MOL0     C23145   0.207  -0.269   6.708  0.5631  0.1714  0.5114
  172MOL0     C23146   0.081  -0.172   6.722  0.1168  0.0826  0.7047
  172MOL0     C23147  -0.039  -0.251   6.791 -0.7775 -1.1840  0.6980
  172MOL0     C23148  -0.158  -0.166   6.778  1.1281 -0.3786 -0.2343
  172MOL0     C23149  -0.260  -0.098   6.772  1.1171 -0.6180  0.2636
  172MOL0     C23150   0.593  -0.051   6.662 -1.3633  0.3646  0.0442
  172MOL0     C23151   0.693   0.037   6.628 -0.2440 -0.8638  0.4527
  172MOL0     C23152   0.778  -0.004   6.514 -0.0376 -0.0498  0.8857
  172MOL0     H23153   1.094   0.215   6.435 -1.8024 -0.4609  2.4857
  172MOL0     H23154   1.290   0.356   6.424  1.4501  2.9721  2.6951
  172MOL0     H23155   1.245   0.804   6.538 -2.7926 -1.4325  1.2151
  172MOL0     H23156   1.275   0.693   6.671  1.8037 -2.3592  0.0134
  172MOL0     H23157   1.525   0.697   6.531  0.0747 -2.1136  3.2408
  172MOL0     H23158   1.483   0.774   6.688 -0.2844 -2.0518 -0.3616
  172MOL0     H23159   1.387   0.960   6.541 -2.5696 -1.6131 -0.8225
  172MOL0     H23160   1.463   0.883   6.397 -0.0678 -1.2318  0.8268
  172MOL0     H23161   1.602   1.079   6.490  0.1394 -0.0653 -0.6493
  172MOL0     H23162   1.633   0.982   6.630  1.6338  0.0474 -0.1234
  172MOL0     H23163   1.817   0.984   6.451  2.6396 -3.3492 -0.8527
  172MOL0     H23164   1.750   0.826   6.477  0.3018 -0.5257 -0.1764
  172MOL0     H23165   1.633   0.833   6.268 -1.7513  1.1963  2.7889
  172MOL0     H23166   1.657   1.003   6.246  2.1689  2.6173  1.0329
  172MOL0     H23167   1.806   0.906   6.088  0.7476  1.6445  0.6673
  172MOL0     H23168   1.862   0.782   6.209  7.2849  2.0377  0.4291
  172MOL0     H23169   1.987   0.939   6.329 -0.7958  2.8851  1.1617
  172MOL0     H23170   2.028   0.942   6.155  1.1653  2.8019 -0.4488
  172MOL0     H23171   1.791   1.126   6.069  2.7232  1.7716 -2.2798
  172MOL0     H23172   1.785   1.495   6.195  2.5676 -1.4302  0.4056
  172MOL0     H23173   1.766   1.403   6.039  0.9562  0.1925  0.1824
  172MOL0     H23174   1.541   1.439   6.165 -0.4243 -0.3911 -0.0062
  172MOL0     H23175   1.584   1.271   6.137 -0.3975  0.7149 -1.6296
  172MOL0     H23176   1.641   1.255   6.363 -1.0209  0.5732  0.3985
  172MOL0     H23177   1.478   1.325   6.349 -0.9494  0.8731  2.3278
  172MOL0     H23178   1.563   1.547   6.379 -1.2392 -0.8827  0.8735
  172MOL0     H23179   1.727   1.498   6.426 -0.0378  0.1293 -1.8929
  172MOL0     H23180   1.818   1.351   6.539 -0.3373  0.9769  0.2496
  172MOL0     H23181   1.926   1.191   6.686 -0.0131 -0.7036  1.3700
  172MOL0     H23182   1.912   0.820   6.969 -0.5751  2.4713 -0.1870
  172MOL0     H23183   2.063   0.665   7.060 -1.2629  0.5684  0.7804
  172MOL0     H23184   2.242   0.558   7.211 -0.5649  0.6120 -0.2119
  172MOL0     H23185   2.261   0.520   7.037 -0.2109 -1.6322  0.2761
  172MOL0     H23186   2.414   0.400   7.197 -1.0509 -0.6596 -1.8516
  172MOL0     H23187   2.503   0.500   7.076 -0.1505  0.8411  1.0612
  172MOL0     H23188   2.526   0.677   7.269 -0.1207 -0.5688 -1.1626
  172MOL0     H23189   2.454   0.561   7.369  2.1911 -4.4169  1.9680
  172MOL0     H23190   2.649   0.399   7.285  0.6074 -1.2019  0.6345
  172MOL0     H23191   2.685   0.528   7.402  0.6359 -2.7635 -0.6415
  172MOL0     H23192   2.773   0.688   7.257 -2.7291 -0.0417  1.8357
  172MOL0     H23193   2.740   0.588   7.110 -1.0711 -0.2146  1.0834
  172MOL0     H23194   2.913   0.496   7.348 -0.4724  2.0059  1.2479
  172MOL0     H23195   2.892   0.410   7.190 -0.0911  0.7366 -0.6438
  172MOL0     H23196   3.053   0.661   7.247  1.2455 -0.5426 -0.0521
  172MOL0     H23197   2.995   0.611   7.086 -3.8804  0.0076  1.7927
  172MOL0     H23198   3.163   0.448   7.296 -1.8391  0.6316 -0.0660
  172MOL0     H23199   3.123   0.388   7.136  3.4688  0.2467 -2.0780
  172MOL0     H23200   2.392   0.935   7.014 -0.4136 -0.1601  2.1508
  172MOL0     H23201   2.223   1.108   6.913 -2.1034  0.6423 -0.0894
  172MOL0     H23202   1.605   1.232   6.962 -0.7509 -0.8151 -0.2065
  172MOL0     H23203   1.478   1.359   6.799 -0.4374  0.4781  3.1408
  172MOL0     H23204   1.045   0.688   6.557 -0.7850 -0.0116 -3.8516
  172MOL0     H23205   0.867   0.521   6.613 -1.7364 -1.4259 -1.4790
  172MOL0     H23206   0.623   0.279   6.853 -1.4653 -1.3174  0.3406
  172MOL0     H23207   0.427   0.157   6.885 -0.2055  1.4806 -0.1168
  172MOL0     H23208   0.400  -0.229   6.622 -1.9216 -1.4024 -0.5628
  172MOL0     H23209   0.288  -0.109   6.584  1.8526 -0.5018 -1.1105
  172MOL0     H23210   0.235  -0.336   6.790 -0.2540 -2.4205 -1.1942
  172MOL0     H23211   0.188  -0.331   6.619  1.7306  1.0091 -0.3562
  172MOL0     H23212   0.050  -0.138   6.622  2.4736 -1.5824 -0.6958
  172MOL0     H23213   0.097  -0.078   6.776 -1.6274  0.3836  0.7458
  172MOL0     H23214  -0.056  -0.347   6.743 -0.8335  0.0518 -1.9483
  172MOL0     H23215  -0.026  -0.259   6.899 -0.8788  1.2573  0.9503
  172MOL0     H23216  -0.350  -0.040   6.766  0.4401 -1.7451 -0.7382
  172MOL0     H23217   0.591  -0.151   6.620  1.1342  0.3752 -0.2681
  172MOL0     H23218   0.774   0.065   6.429  0.4643 -1.5516 -0.3952
  172MOL0     H23219   0.882  -0.012   6.547 -0.0089 -0.9804  0.5972
  172MOL0     H23220   0.756  -0.099   6.465  0.4033  0.8894 -1.2480
  173MOL0     O23221   2.055   6.670   8.671  0.5948 -0.9687 -0.6257
  173MOL0     C23222   2.059   6.661   8.549  0.7026  0.9046 -0.7239
  173MOL0     O23223   2.168   6.607   8.478  0.6102  0.0183 -0.2680
  173MOL0     C23224   2.275   6.580   8.554  0.3684 -0.0243 -0.2508
  173MOL0     C23225   2.297   6.450   8.612  1.0078 -0.1179 -0.3233
  173MOL0     C23226   2.409   6.423   8.690  0.2764  0.2685 -0.3585
  173MOL0     C23227   2.510   6.515   8.684 -0.8679 -0.0630 -0.6776
  173MOL0     O23228   2.633   6.502   8.750  1.0943 -0.2787  0.4572
  173MOL0     C23229   2.624   6.439   8.882  0.6336 -0.4852  0.6040
  173MOL0     C23230   2.745   6.487   8.969 -0.4349  0.8850  0.7427
  173MOL0     C23231   2.736   6.635   8.997  0.1791 -0.7847 -1.0210
  173MOL0     C23232   2.871   6.682   9.058  0.1344 -0.4200 -0.3978
  173MOL0     C23233   2.877   6.834   9.046  0.5003  0.8880 -0.4042
  173MOL0     C23234   2.994   6.897   9.119  0.3884 -0.1427 -0.4413
  173MOL0     C23235   3.137   6.834   9.131  0.2953  0.0109 -0.4959
  173MOL0     C23236   3.217   6.853   9.007  0.0900  0.0979 -0.1037
  173MOL0     N23237   3.334   6.761   9.015  0.1466 -0.0220 -0.8302
  173MOL0     C23238   3.363   6.660   8.926  0.6821 -0.7263  0.1978
  173MOL0     C23239   3.476   6.605   8.978  0.3240  0.2402  0.7018
  173MOL0     C23240   3.550   6.492   8.920 -0.0739 -0.3890  0.3098
  173MOL0     C23241   3.473   6.397   8.825 -0.0755  0.0801  0.4410
  173MOL0     C23242   3.547   6.268   8.799  0.8537 -0.4433 -0.3299
  173MOL0     C23243   3.689   6.292   8.732  0.4339  0.5754 -0.3840
  173MOL0     O23244   3.776   6.321   8.841  0.7290  0.0544 -0.2776
  173MOL0     C23245   3.904   6.355   8.809 -0.0160 -0.1297  0.2898
  173MOL0     C23246   3.948   6.414   8.689 -0.3894 -0.2574  0.6653
  173MOL0     C23247   4.086   6.442   8.671 -0.1362 -0.4518 -0.2553
  173MOL0     C23248   4.185   6.426   8.778 -0.0928 -0.4619  0.6672
  173MOL0     C23249   4.331   6.462   8.760 -0.6909  0.0899 -0.7664
  173MOL0     O23250   4.418   6.435   8.872  0.9128  0.5696  0.7811
  173MOL0     C23251   4.548   6.469   8.866 -0.1809  0.2860 -0.4558
  173MOL0     C23252   4.644   6.379   8.823 -0.1131 -0.0737  0.4460
  173MOL0     C23253   4.775   6.416   8.813 -1.0486  0.0936 -0.7618
  173MOL0     C23254   4.823   6.543   8.847  0.1430 -0.7640  0.1288
  173MOL0     O23255   4.954   6.586   8.820  1.2073 -0.4239 -0.6382
  173MOL0     C23256   5.024   6.654   8.924  0.2267  0.8566  0.2051
  173MOL0     C23257   5.056   6.556   9.038 -0.8555 -0.2329 -0.0718
  173MOL0     C23258   5.149   6.610   9.146  0.1781  0.0056 -0.4314
  173MOL0     C23259   5.289   6.625   9.090 -0.0384  0.1311  0.3405
  173MOL0     C23260   5.385   6.644   9.214  0.9779  0.0578  0.3493
  173MOL0     C23261   5.521   6.676   9.158  0.0135  0.0286  0.2125
  173MOL0     C23262   5.623   6.688   9.271  0.1140 -0.2958 -0.7266
  173MOL0     C23263   5.752   6.779   9.236  0.1708  0.0996  0.7426
  173MOL0    Cl23264   5.807   6.727   9.066 -0.0596  0.5831 -0.4815
  173MOL0     C23265   4.732   6.632   8.903  0.0284  0.2340 -0.9963
  173MOL0     C23266   4.599   6.589   8.925 -0.2422 -0.9437  1.4826
  173MOL0     O23267   4.378   6.508   8.653 -0.0556  0.5591  0.0124
  173MOL0     C23268   4.139   6.384   8.899  0.2822  0.0216 -0.7269
  173MOL0     C23269   4.000   6.348   8.915 -0.1787 -0.1443 -0.0213
  173MOL0     N23270   3.524   6.667   9.091  0.4932  0.1028 -0.2228
  173MOL0     N23271   3.432   6.764   9.112 -0.4774  0.0758  0.4276
  173MOL0     C23272   2.493   6.646   8.635  0.2694  0.2438  0.7413
  173MOL0     C23273   2.376   6.674   8.566 -0.6574  0.3096 -0.2892
  173MOL0     C23274   1.934   6.699   8.483  0.2318 -0.5044 -0.4820
  173MOL0     C23275   1.820   6.692   8.568 -0.0462 -0.6446 -0.1899
  173MOL0     C23276   1.700   6.734   8.517 -0.1384  0.9403  0.0052
  173MOL0     C23277   1.683   6.771   8.382 -0.4305 -0.4362 -0.3620
  173MOL0     O23278   1.555   6.784   8.338  0.0313 -0.3564 -0.9115
  173MOL0     C23279   1.459   6.686   8.383  0.6993  0.4962 -0.3425
  173MOL0     C23280   1.326   6.706   8.312 -0.9459  0.1710 -0.8131
  173MOL0     C23281   1.252   6.827   8.368 -0.6939 -0.0398  0.2897
  173MOL0     C23282   1.130   6.840   8.279  0.0513  0.1233 -0.5904
  173MOL0     C23283   1.022   6.910   8.354  0.3549  0.6673 -0.1663
  173MOL0     C23284   0.942   6.963   8.429 -0.3482  0.4072  0.2414
  173MOL0     C23285   1.794   6.770   8.299 -0.0115  0.3994  0.3048
  173MOL0     C23286   1.923   6.740   8.348  1.1056 -0.3041 -0.3111
  173MOL0     C23287   2.045   6.732   8.260 -0.3889 -0.4491 -0.6248
  173MOL0     H23288   2.226   6.370   8.591  0.5822  0.3132 -0.5490
  173MOL0     H23289   2.420   6.332   8.747 -2.0999 -1.0895 -1.9127
  173MOL0     H23290   2.530   6.454   8.935  0.1679  2.6211 -0.8545
  173MOL0     H23291   2.630   6.332   8.863 -2.6214 -0.5748 -0.5212
  173MOL0     H23292   2.833   6.463   8.907 -2.6649 -2.6517 -1.4379
  173MOL0     H23293   2.754   6.431   9.062 -0.4386  0.7896  0.6861
  173MOL0     H23294   2.657   6.653   9.071 -0.1614 -0.5999 -1.4221
  173MOL0     H23295   2.722   6.705   8.914  1.0902  2.2812  1.2357
  173MOL0     H23296   2.869   6.657   9.164 -0.8300  0.2687 -0.2375
  173MOL0     H23297   2.963   6.643   9.013  1.3389  1.9361 -0.1517
  173MOL0     H23298   2.883   6.866   8.942  0.7034 -0.8969 -0.9728
  173MOL0     H23299   2.788   6.885   9.083 -1.2907 -1.7843 -0.7136
  173MOL0     H23300   3.016   6.993   9.073  0.0316 -0.0740 -0.4646
  173MOL0     H23301   2.947   6.913   9.217 -0.9765  0.5949 -1.1940
  173MOL0     H23302   3.114   6.729   9.154  1.6550  0.2345  2.1755
  173MOL0     H23303   3.200   6.869   9.213  1.2178 -0.7578 -0.8512
  173MOL0     H23304   3.143   6.821   8.934  0.0673  0.8568 -0.4125
  173MOL0     H23305   3.249   6.956   8.989 -0.4051 -0.0096 -1.6939
  173MOL0     H23306   3.294   6.631   8.847 -1.5697 -2.2255  2.5773
  173MOL0     H23307   3.633   6.541   8.868  1.5702 -1.2326  2.0002
  173MOL0     H23308   3.587   6.440   9.009 -1.2374  2.8088  2.8722
  173MOL0     H23309   3.376   6.370   8.867 -0.4224 -1.4490 -1.2004
  173MOL0     H23310   3.456   6.451   8.731 -0.0376 -0.9379 -0.1732
  173MOL0     H23311   3.493   6.203   8.730 -1.6616  1.2926 -0.1294
  173MOL0     H23312   3.565   6.225   8.897 -1.3049 -1.3148 -0.2655
  173MOL0     H23313   3.685   6.375   8.661 -0.2294  1.5072  0.7121
  173MOL0     H23314   3.722   6.205   8.675 -2.2635 -1.9823  1.6095
  173MOL0     H23315   3.869   6.439   8.618 -1.6765 -2.4973  1.2383
  173MOL0     H23316   4.120   6.497   8.584 -0.6818  1.3023  0.5880
  173MOL0     H23317   4.617   6.280   8.787  1.1741 -0.5850  0.8157
  173MOL0     H23318   4.852   6.351   8.774  1.5800  0.6100  3.0554
  173MOL0     H23319   5.114   6.708   8.894  0.4836  0.3944  0.1504
  173MOL0     H23320   4.957   6.728   8.971  1.4442  1.8917  0.3559
  173MOL0     H23321   4.955   6.550   9.081 -0.6010  0.2440  0.6180
  173MOL0     H23322   5.089   6.459   9.001  1.7634  1.6943 -3.3058
  173MOL0     H23323   5.114   6.700   9.197 -2.2498  2.1951 -5.2763
  173MOL0     H23324   5.153   6.527   9.217  1.0076  1.9047  1.9110
  173MOL0     H23325   5.288   6.715   9.027  3.1519  0.3475  0.4785
  173MOL0     H23326   5.313   6.536   9.033 -1.7959 -2.5425  3.4330
  173MOL0     H23327   5.385   6.560   9.285  1.5470  3.6839  5.1388
  173MOL0     H23328   5.356   6.728   9.278  2.6604 -0.8801  2.5039
  173MOL0     H23329   5.564   6.619   9.075  1.1784  0.6235  0.3746
  173MOL0     H23330   5.518   6.773   9.108  1.9280  0.9436  1.7105
  173MOL0     H23331   5.654   6.586   9.297  2.2140  0.3630 -0.4964
  173MOL0     H23332   5.573   6.743   9.350 -1.4512 -0.3575 -1.6346
  173MOL0     H23333   5.711   6.880   9.241 -1.4238 -0.4953  0.3190
  173MOL0     H23334   5.829   6.774   9.314 -1.5083 -0.6453  2.4194
  173MOL0     H23335   4.758   6.730   8.942  3.0071  0.2730 -2.7695
  173MOL0     H23336   4.523   6.646   8.978 -1.1007  0.1643 -0.7954
  173MOL0     H23337   4.209   6.374   8.981 -1.0584  1.4656  0.6944
  173MOL0     H23338   3.964   6.311   9.010  0.1511  2.7362  1.3112
  173MOL0     H23339   2.567   6.725   8.631 -1.6506  2.1888  1.2432
  173MOL0     H23340   2.360   6.770   8.517  1.7357  0.8419 -0.1400
  173MOL0     H23341   1.814   6.674   8.675  0.4776  0.3161  0.0173
  173MOL0     H23342   1.623   6.732   8.594  1.3890 -3.4688  1.7480
  173MOL0     H23343   1.451   6.698   8.491  1.4649  2.7368 -0.4758
  173MOL0     H23344   1.488   6.582   8.365  1.5791  0.4318  1.2444
  173MOL0     H23345   1.262   6.620   8.331 -0.4117  0.0466  0.4943
  173MOL0     H23346   1.343   6.716   8.204  0.0642  0.2493 -0.6569
  173MOL0     H23347   1.311   6.919   8.374 -0.0980 -0.5150  2.1830
  173MOL0     H23348   1.231   6.816   8.474 -0.1211 -0.7695  0.3341
  173MOL0     H23349   1.149   6.895   8.186  1.8749  0.3953 -0.0994
  173MOL0     H23350   1.093   6.738   8.263 -0.9769  0.6409 -1.6748
  173MOL0     H23351   0.859   7.002   8.484 -2.2095 -2.1075 -0.6346
  173MOL0     H23352   1.789   6.772   8.190  4.2163 -0.2863 -0.0732
  173MOL0     H23353   2.013   6.746   8.156 -1.7341  0.4406 -0.1193
  173MOL0     H23354   2.121   6.805   8.286  0.5230 -1.3672 -0.6639
  173MOL0     H23355   2.093   6.634   8.249  2.3357  0.9007 -1.4895
  174MOL0     O23356   2.065   9.329  11.188 -0.4538 -0.1612  0.2172
  174MOL0     C23357   1.971   9.357  11.116 -0.3464 -0.6134  1.7036
  174MOL0     O23358   1.990   9.367  10.990 -0.6586 -0.0197 -0.1159
  174MOL0     C23359   2.117   9.404  10.949 -0.1832  0.2522  0.9048
  174MOL0     C23360   2.148   9.539  10.953  0.0127 -0.7632  0.0727
  174MOL0     C23361   2.276   9.577  10.912  0.6772 -0.2141 -0.5992
  174MOL0     C23362   2.367   9.487  10.858 -0.9782 -0.3038 -0.2706
  174MOL0     O23363   2.490   9.542  10.811  0.3245 -0.1061 -0.6531
  174MOL0     C23364   2.599   9.465  10.751  1.9390 -0.3017 -0.8734
  174MOL0     C23365   2.724   9.554  10.729 -0.2403  0.1791  1.0517
  174MOL0     C23366   2.843   9.478  10.671  0.1221 -0.0735  0.2240
  174MOL0     C23367   2.962   9.559  10.617 -0.2378 -0.1494  0.7522
  174MOL0     C23368   3.094   9.482  10.608  1.0517 -0.4656  0.1873
  174MOL0     C23369   3.195   9.559  10.526  0.6318 -0.0875 -0.1961
  174MOL0     C23370   3.327   9.487  10.518  0.5917  0.8202  0.2823
  174MOL0     C23371   3.409   9.524  10.639 -0.3282  0.3990 -0.8307
  174MOL0     N23372   3.543   9.455  10.648  0.2752  0.1142 -0.2379
  174MOL0     C23373   3.564   9.332  10.700 -0.2339 -0.5202 -0.3771
  174MOL0     C23374   3.685   9.291  10.642  0.3700 -0.0362 -0.3540
  174MOL0     C23375   3.748   9.157  10.684 -0.2211  0.0531  0.1470
  174MOL0     C23376   3.873   9.181  10.775  0.2262 -0.8196  0.1297
  174MOL0     C23377   3.841   9.232  10.915  0.0295  0.5310 -0.8153
  174MOL0     C23378   3.960   9.280  10.990  1.1755  0.9638 -0.2409
  174MOL0     O23379   4.015   9.384  10.910  0.4179  0.2382 -0.1435
  174MOL0     C23380   4.150   9.408  10.932  0.0318 -0.1523  0.3508
  174MOL0     C23381   4.209   9.490  10.838 -0.3335  0.1602  0.4646
  174MOL0     C23382   4.348   9.525  10.850 -0.1344  0.2485 -0.3029
  174MOL0     C23383   4.429   9.483  10.959 -0.3440 -0.1683 -0.4836
  174MOL0     C23384   4.568   9.541  10.983 -0.5506 -0.1105 -0.3712
  174MOL0     O23385   4.629   9.509  11.098 -0.0468 -0.3975 -0.4398
  174MOL0     C23386   4.752   9.562  11.124 -0.4536  0.2107 -0.2274
  174MOL0     C23387   4.772   9.645  11.239  0.4728  0.5459  0.1507
  174MOL0     C23388   4.895   9.701  11.267  0.1727 -0.0493  0.2852
  174MOL0     C23389   5.004   9.679  11.182  0.0258  0.2340  0.4626
  174MOL0     O23390   5.120   9.752  11.203  0.5065  0.4175 -0.1743
  174MOL0     C23391   5.228   9.732  11.109  0.6336  0.5176 -0.2993
  174MOL0     C23392   5.358   9.806  11.160 -0.3392 -0.4992  0.5693
  174MOL0     C23393   5.488   9.761  11.091 -0.3999 -0.0389 -0.2265
  174MOL0     C23394   5.604   9.830  11.169  0.3432  0.1248 -0.1261
  174MOL0     C23395   5.732   9.805  11.085 -0.5531  0.5464 -0.2382
  174MOL0     C23396   5.804   9.670  11.117 -0.2673  0.6738 -0.0203
  174MOL0     C23397   5.919   9.647  11.015 -0.6796 -0.0321 -0.7490
  174MOL0     C23398   6.032   9.744  11.009  0.2007 -0.1450  0.7456
  174MOL0    Cl23399   6.131   9.731  11.157  0.0775 -0.0172  0.3523
  174MOL0     C23400   4.981   9.598  11.064  1.1260  0.4102  0.8336
  174MOL0     C23401   4.863   9.533  11.045  0.0460 -0.4332 -0.1499
  174MOL0     O23402   4.616   9.623  10.899  1.0320  0.0623  1.1421
  174MOL0     C23403   4.363   9.409  11.056  0.7911  0.2451 -0.5979
  174MOL0     C23404   4.225   9.372  11.044  0.4012 -0.6702  0.4622
  174MOL0     N23405   3.724   9.381  10.549 -0.1565 -0.1350 -0.3037
  174MOL0     N23406   3.632   9.478  10.548  0.0136 -0.0409 -0.3660
  174MOL0     C23407   2.335   9.346  10.856 -0.2106 -0.6106 -0.0028
  174MOL0     C23408   2.206   9.308  10.899 -0.2496 -0.1917 -0.5075
  174MOL0     C23409   1.836   9.376  11.172 -0.2813 -0.1518 -0.0393
  174MOL0     C23410   1.744   9.443  11.098 -0.2997 -0.6804 -1.0260
  174MOL0     C23411   1.609   9.458  11.139  0.1635  0.6411 -0.3499
  174MOL0     C23412   1.575   9.400  11.260 -0.4888 -0.0713 -0.2618
  174MOL0     O23413   1.457   9.433  11.312  0.0608  0.8232 -0.1681
  174MOL0     C23414   1.470   9.548  11.397 -0.2325  0.6457  0.1388
  174MOL0     C23415   1.336   9.589  11.467 -0.3822  0.0588  0.1742
  174MOL0     C23416   1.305   9.491  11.572 -0.0327  0.2122  0.0676
  174MOL0     C23417   1.180   9.524  11.651 -0.3903  0.8506 -0.3153
  174MOL0     C23418   1.164   9.433  11.766  0.4379 -1.1069 -0.5870
  174MOL0     C23419   1.146   9.353  11.850  0.8282 -0.6651 -1.5129
  174MOL0     C23420   1.669   9.328  11.330  0.3370  0.1867 -0.4478
  174MOL0     C23421   1.796   9.313  11.292  0.0295  1.1525  0.1861
  174MOL0     C23422   1.887   9.227  11.377  0.1982 -0.1674 -0.5149
  174MOL0     H23423   2.079   9.615  10.989  2.3499  2.5363 -1.8398
  174MOL0     H23424   2.304   9.681  10.921 -0.5609 -0.0187  1.7787
  174MOL0     H23425   2.623   9.382  10.819  0.6243 -1.8587 -2.2230
  174MOL0     H23426   2.568   9.436  10.650  1.3761  0.8133 -1.0356
  174MOL0     H23427   2.751   9.596  10.827  1.0181  2.2186 -0.0876
  174MOL0     H23428   2.707   9.645  10.671 -0.1540 -0.3918  0.1226
  174MOL0     H23429   2.803   9.415  10.591  0.4402  0.4967 -0.3939
  174MOL0     H23430   2.892   9.414  10.746  1.4954  1.3603  0.5921
  174MOL0     H23431   2.926   9.596  10.521  1.3422  0.3947  0.3365
  174MOL0     H23432   2.980   9.652  10.672 -3.1105  0.7605  0.3547
  174MOL0     H23433   3.135   9.452  10.705 -2.0113 -1.8336  1.1823
  174MOL0     H23434   3.075   9.388  10.556 -2.2055  0.8324 -1.2388
  174MOL0     H23435   3.163   9.579  10.424 -0.1994  1.1253  0.2771
  174MOL0     H23436   3.226   9.653  10.573  1.3562 -1.5375  2.4292
  174MOL0     H23437   3.377   9.524  10.427  0.0135  1.5139  0.2376
  174MOL0     H23438   3.316   9.379  10.502  0.0973  0.6731  1.5516
  174MOL0     H23439   3.423   9.631  10.651  2.4949  0.0003  0.1969
  174MOL0     H23440   3.349   9.493  10.725 -0.0871  0.7799 -0.5221
  174MOL0     H23441   3.498   9.284  10.772 -0.1459  0.7502  0.5734
  174MOL0     H23442   3.673   9.106  10.744 -3.1967  1.9968 -1.6891
  174MOL0     H23443   3.774   9.102  10.593 -1.1050  1.7619 -1.2157
  174MOL0     H23444   3.933   9.090  10.784 -0.8670 -1.7050 -1.0946
  174MOL0     H23445   3.934   9.255  10.721  1.2082  0.0665  2.3446
  174MOL0     H23446   3.796   9.146  10.965 -0.1733  0.4459 -1.1432
  174MOL0     H23447   3.766   9.311  10.923 -0.3950  0.0175  0.5655
  174MOL0     H23448   4.036   9.202  11.003  0.4844  0.4208  0.6549
  174MOL0     H23449   3.943   9.316  11.092 -3.3903  0.2417 -0.5742
  174MOL0     H23450   4.159   9.515  10.745  3.1991 -1.7463 -2.1836
  174MOL0     H23451   4.392   9.600  10.784 -0.3442  1.5170  0.9384
  174MOL0     H23452   4.687   9.669  11.303  1.0197  0.0163  1.1107
  174MOL0     H23453   4.917   9.750  11.361  1.9579 -2.1132  1.0442
  174MOL0     H23454   5.246   9.626  11.090  2.3516  0.4295  1.5168
  174MOL0     H23455   5.182   9.765  11.016 -0.4855 -2.3951 -0.8938
  174MOL0     H23456   5.344   9.912  11.136  0.0520 -0.7797 -1.0105
  174MOL0     H23457   5.371   9.782  11.265 -0.9597 -1.0505  0.5228
  174MOL0     H23458   5.508   9.654  11.082 -1.2950 -0.4342  1.6897
  174MOL0     H23459   5.479   9.784  10.985  0.1593 -0.2585 -0.3231
  174MOL0     H23460   5.613   9.789  11.270 -0.4158  2.7538  1.1056
  174MOL0     H23461   5.585   9.937  11.184 -0.3193  0.0707 -0.5596
  174MOL0     H23462   5.793   9.888  11.123  4.1082 -2.4347 -0.4830
  174MOL0     H23463   5.723   9.832  10.980  1.0946  1.6676 -0.1457
  174MOL0     H23464   5.839   9.645  11.217 -0.3437 -0.3613 -0.2408
  174MOL0     H23465   5.725   9.596  11.100 -0.3770  0.7539  0.1410
  174MOL0     H23466   5.863   9.650  10.921 -0.3830  0.2363 -0.9187
  174MOL0     H23467   5.956   9.545  11.025 -0.4958  0.1455  0.4515
  174MOL0     H23468   6.090   9.726  10.918 -1.6702  2.3646 -1.1026
  174MOL0     H23469   6.000   9.848  11.003  2.3936  0.5810  0.4909
  174MOL0     H23470   5.054   9.587  10.985 -0.8103  2.1568 -1.3229
  174MOL0     H23471   4.862   9.461  10.964 -1.3923 -2.2878  1.4083
  174MOL0     H23472   4.414   9.386  11.149 -0.0998 -1.1649 -0.4229
  174MOL0     H23473   4.180   9.320  11.128 -1.0200  0.4420  0.4202
  174MOL0     H23474   2.404   9.274  10.812 -1.4918 -2.8221  1.3999
  174MOL0     H23475   2.183   9.202  10.894 -1.1950  0.0425 -1.6580
  174MOL0     H23476   1.774   9.483  11.001  0.4449 -0.4782 -0.7161
  174MOL0     H23477   1.531   9.521  11.097  1.1529  2.3151  0.2369
  174MOL0     H23478   1.501   9.629  11.331 -1.6648  1.1419  0.0599
  174MOL0     H23479   1.546   9.536  11.476 -0.3277  0.0816  0.1489
  174MOL0     H23480   1.256   9.576  11.393  0.5924 -4.2208 -0.4009
  174MOL0     H23481   1.342   9.690  11.510  0.2008 -0.5749  1.6437
  174MOL0     H23482   1.385   9.477  11.646 -2.1597 -0.0003  2.4554
  174MOL0     H23483   1.278   9.394  11.527  1.5304 -0.0900 -0.2842
  174MOL0     H23484   1.184   9.620  11.704 -1.9237 -0.3780  2.2148
  174MOL0     H23485   1.103   9.511  11.574 -0.0154  1.2627 -0.7679
  174MOL0     H23486   1.141   9.281  11.930  0.1531  2.1904  1.2419
  174MOL0     H23487   1.629   9.290  11.424  0.2421  1.9059  0.2549
  174MOL0     H23488   1.930   9.157  11.304  1.1387  1.2582 -1.3942
  174MOL0     H23489   1.968   9.288  11.419  0.9422  0.2860 -2.4932
  174MOL0     H23490   1.835   9.172  11.455  1.3598 -0.9368 -0.2600
  175MOL0     O23491   1.873   8.123   5.794 -0.1055  0.4014  0.5752
  175MOL0     C23492   1.811   8.219   5.745 -0.6408  0.1603 -0.7525
  175MOL0     O23493   1.868   8.340   5.720  0.6898 -0.3953 -0.5435
  175MOL0     C23494   1.979   8.379   5.782 -0.4815 -0.6714 -0.2963
  175MOL0     C23495   2.042   8.347   5.905  0.1880  0.3427 -0.8574
  175MOL0     C23496   2.165   8.402   5.951  0.3520  0.3996  0.0673
  175MOL0     C23497   2.235   8.490   5.867  0.0138 -0.4666 -1.1525
  175MOL0     O23498   2.350   8.567   5.909 -0.2186  0.3382  0.1157
  175MOL0     C23499   2.428   8.499   6.007  0.4164 -0.5712 -0.2796
  175MOL0     C23500   2.551   8.576   6.037 -0.1525 -0.0954  0.6013
  175MOL0     C23501   2.639   8.598   5.913  0.5052 -0.5842 -0.2857
  175MOL0     C23502   2.782   8.651   5.953  0.7197  0.2212 -0.0739
  175MOL0     C23503   2.891   8.669   5.844  0.4840  0.3133 -0.0037
  175MOL0     C23504   3.021   8.689   5.912 -0.2275 -0.3962  0.3361
  175MOL0     C23505   3.138   8.731   5.833 -0.1242 -1.1282 -0.8818
  175MOL0     C23506   3.176   8.642   5.713 -0.6367  0.3045 -0.2266
  175MOL0     N23507   3.308   8.686   5.667 -0.0348  0.6688 -0.1165
  175MOL0     C23508   3.327   8.809   5.605 -0.0643 -0.0581 -0.3897
  175MOL0     C23509   3.463   8.831   5.620  0.4561  0.2633 -0.2880
  175MOL0     C23510   3.524   8.956   5.564 -1.2504  0.1480 -0.2386
  175MOL0     C23511   3.651   8.913   5.497 -0.7957 -0.3188  0.0974
  175MOL0     C23512   3.768   8.854   5.586 -0.2075  0.1972  0.7883
  175MOL0     C23513   3.897   8.833   5.498  0.1204 -0.5235 -0.0611
  175MOL0     O23514   4.006   8.853   5.584  0.7409  0.5530  0.3118
  175MOL0     C23515   4.126   8.810   5.531 -0.4019 -0.9751  0.0113
  175MOL0     C23516   4.179   8.896   5.429  0.7455  0.8063 -0.1810
  175MOL0     C23517   4.300   8.862   5.380 -0.0841  0.0537  0.3266
  175MOL0     C23518   4.367   8.745   5.421 -0.1742  0.1423  1.1567
  175MOL0     C23519   4.500   8.697   5.352 -0.0421 -0.6562  0.0981
  175MOL0     O23520   4.537   8.770   5.240 -0.1902  0.0462 -0.1974
  175MOL0     C23521   4.641   8.730   5.157  0.3230 -0.0244 -0.4326
  175MOL0     C23522   4.658   8.596   5.126 -0.1698  0.1096  0.4415
  175MOL0     C23523   4.755   8.555   5.039  1.5173  0.1892  0.8648
  175MOL0     C23524   4.834   8.647   4.974  0.1260 -1.0381  0.3774
  175MOL0     O23525   4.926   8.598   4.891 -0.5976  0.5972 -0.2537
  175MOL0     C23526   5.049   8.582   4.957  0.4315 -0.1408 -0.1996
  175MOL0     C23527   5.134   8.544   4.841 -0.0189 -0.2649 -0.8283
  175MOL0     C23528   5.286   8.549   4.885  0.3740  0.8518 -0.2529
  175MOL0     C23529   5.375   8.497   4.770 -0.8259 -0.3470  0.0277
  175MOL0     C23530   5.521   8.525   4.800 -0.9088 -0.0799 -0.3308
  175MOL0     C23531   5.603   8.465   4.674  0.3543  0.0606  0.6366
  175MOL0     C23532   5.745   8.505   4.669 -0.2988  0.5309  0.5289
  175MOL0     C23533   5.813   8.454   4.547  1.2583 -0.2835  0.1583
  175MOL0    Cl23534   5.825   8.276   4.553 -0.1738 -0.3300  0.2620
  175MOL0     C23535   4.817   8.787   5.003  0.0001  0.7191  0.3235
  175MOL0     C23536   4.721   8.828   5.097 -0.0153  0.8724  0.0354
  175MOL0     O23537   4.572   8.612   5.407  1.0292 -0.2573 -0.1681
  175MOL0     C23538   4.305   8.664   5.522 -0.1594  1.0540  0.0270
  175MOL0     C23539   4.189   8.705   5.588  0.5596 -1.1818 -0.2354
  175MOL0     N23540   3.516   8.713   5.682  0.0856 -0.5946  0.7915
  175MOL0     N23541   3.427   8.632   5.704 -0.2785 -0.2842  0.1484
  175MOL0     C23542   2.170   8.531   5.745  0.8040  0.8687 -1.0407
  175MOL0     C23543   2.042   8.474   5.708  0.4719  0.7205  0.1251
  175MOL0     C23544   1.672   8.203   5.706 -0.6953 -0.2574  0.7411
  175MOL0     C23545   1.604   8.090   5.751  0.8107  0.9835  0.3272
  175MOL0     C23546   1.471   8.074   5.726  0.3182  0.1887 -0.3579
  175MOL0     C23547   1.392   8.172   5.665  0.4666  0.5694  0.4295
  175MOL0     O23548   1.263   8.152   5.643 -0.2369  0.0646 -0.0971
  175MOL0     C23549   1.177   8.122   5.756 -0.6018 -0.8813 -0.2861
  175MOL0     C23550   1.144   7.977   5.756  0.2966  1.1927  0.2083
  175MOL0     C23551   1.026   7.941   5.834 -0.0656  0.6504  0.3648
  175MOL0     C23552   0.896   7.998   5.791  0.8301 -0.0400  0.3029
  175MOL0     C23553   0.784   7.916   5.830  0.1820  1.3200 -0.2893
  175MOL0     C23554   0.689   7.846   5.864 -0.1129  0.1364  0.4483
  175MOL0     C23555   1.452   8.286   5.635 -0.3558  0.5499 -0.6117
  175MOL0     C23556   1.592   8.314   5.646 -0.1087  0.3343  0.2333
  175MOL0     C23557   1.631   8.456   5.616 -0.8146 -0.1391  0.8956
  175MOL0     H23558   1.995   8.278   5.975 -0.3284  2.3724  0.9127
  175MOL0     H23559   2.203   8.380   6.050  2.8866 -1.6389 -1.2398
  175MOL0     H23560   2.366   8.499   6.098 -0.0749 -0.5275 -0.6090
  175MOL0     H23561   2.455   8.396   5.980  3.0856 -0.3561  1.2154
  175MOL0     H23562   2.610   8.519   6.109  0.1941  0.8723  1.1141
  175MOL0     H23563   2.524   8.673   6.081 -0.2479  0.4200 -0.5470
  175MOL0     H23564   2.589   8.670   5.847  0.2293  0.5235  1.0986
  175MOL0     H23565   2.657   8.504   5.860  1.4678 -1.5558  1.6631
  175MOL0     H23566   2.771   8.741   6.014  0.0762  0.7365 -0.9175
  175MOL0     H23567   2.830   8.574   6.014 -0.3467 -2.1091 -1.9995
  175MOL0     H23568   2.892   8.588   5.770  1.7673  0.6817 -0.4315
  175MOL0     H23569   2.866   8.754   5.779  1.5824 -0.1763 -1.1073
  175MOL0     H23570   3.008   8.762   5.992  0.1065 -0.7188  0.6879
  175MOL0     H23571   3.056   8.595   5.955 -0.0437  0.1028  1.2912
  175MOL0     H23572   3.229   8.732   5.894 -0.9229 -2.2986  0.3795
  175MOL0     H23573   3.118   8.832   5.794  0.2987 -0.4689  0.5364
  175MOL0     H23574   3.170   8.534   5.733  0.6745  0.2114 -0.2273
  175MOL0     H23575   3.104   8.660   5.633 -0.7433  1.9270  0.2055
  175MOL0     H23576   3.246   8.867   5.562 -1.8731 -0.9980  1.5260
  175MOL0     H23577   3.452   9.002   5.495 -0.4042 -0.2080 -1.3929
  175MOL0     H23578   3.546   9.034   5.638  0.6491  0.0144 -0.6127
  175MOL0     H23579   3.621   8.834   5.427  0.1250 -0.4851 -0.1217
  175MOL0     H23580   3.692   8.991   5.432  0.3372 -0.0226  1.1344
  175MOL0     H23581   3.736   8.752   5.609 -3.0974  1.0434  0.8794
  175MOL0     H23582   3.782   8.915   5.676 -0.3913  1.5916 -0.1024
  175MOL0     H23583   3.902   8.896   5.408 -2.2367 -3.0656 -2.1759
  175MOL0     H23584   3.904   8.730   5.460  0.6255 -1.3479  2.1312
  175MOL0     H23585   4.112   8.977   5.402  0.7812  0.4043 -1.5642
  175MOL0     H23586   4.343   8.935   5.313  1.0043  0.3299  1.3099
  175MOL0     H23587   4.600   8.510   5.159  1.9111 -2.1906 -1.5264
  175MOL0     H23588   4.766   8.455   4.998 -1.4441  0.5802 -1.2098
  175MOL0     H23589   5.082   8.674   5.005 -1.4336  0.2269  0.4563
  175MOL0     H23590   5.047   8.501   5.030  3.7429  1.4806  1.9444
  175MOL0     H23591   5.097   8.447   4.805 -2.6537  0.7778 -1.1746
  175MOL0     H23592   5.116   8.615   4.760 -0.2122 -1.3063 -1.7268
  175MOL0     H23593   5.328   8.648   4.908  0.3841  0.2633  2.5614
  175MOL0     H23594   5.299   8.486   4.973 -0.4923  0.4325 -0.4108
  175MOL0     H23595   5.352   8.540   4.672  0.1988  0.2123  0.0284
  175MOL0     H23596   5.353   8.390   4.767 -1.2109 -0.2759  0.1802
  175MOL0     H23597   5.550   8.475   4.893 -0.1575 -0.6997 -0.8881
  175MOL0     H23598   5.535   8.632   4.818  4.4258 -0.6196  0.4343
  175MOL0     H23599   5.589   8.356   4.674 -2.0260  0.2240 -2.2150
  175MOL0     H23600   5.560   8.497   4.579 -0.2988 -1.6569  0.3133
  175MOL0     H23601   5.793   8.467   4.759 -3.3370 -0.9954  1.6373
  175MOL0     H23602   5.750   8.614   4.667 -1.5180  0.5960  0.2527
  175MOL0     H23603   5.754   8.484   4.460  2.2519  1.9018  0.1673
  175MOL0     H23604   5.907   8.506   4.526  0.6549  0.0875 -1.8796
  175MOL0     H23605   4.876   8.856   4.943  0.1840  1.4229  1.2900
  175MOL0     H23606   4.705   8.931   5.129 -2.5883  1.2299 -2.0327
  175MOL0     H23607   4.356   8.574   5.552  1.7052  0.9953 -2.8978
  175MOL0     H23608   4.163   8.656   5.681 -1.9667 -0.1114 -0.2924
  175MOL0     H23609   2.212   8.607   5.680  0.3703  0.7296 -1.4935
  175MOL0     H23610   1.986   8.511   5.623  1.4672  0.2555 -0.7550
  175MOL0     H23611   1.652   8.012   5.810 -0.7418  0.7630  1.3747
  175MOL0     H23612   1.429   7.980   5.760 -0.8198  1.0174  0.6009
  175MOL0     H23613   1.085   8.181   5.747 -0.2074  0.0547  1.3849
  175MOL0     H23614   1.221   8.152   5.852  0.2945 -1.0078 -0.6558
  175MOL0     H23615   1.228   7.925   5.802  0.8767  0.9798 -1.0474
  175MOL0     H23616   1.140   7.955   5.649  2.7471 -0.0060  0.2935
  175MOL0     H23617   1.041   7.965   5.940  1.5549  0.2045  0.2719
  175MOL0     H23618   1.026   7.832   5.841  0.0487  0.6536  0.4325
  175MOL0     H23619   0.881   8.098   5.833 -1.5471 -1.3288  2.7846
  175MOL0     H23620   0.904   8.006   5.682 -0.5841 -0.6927  0.1295
  175MOL0     H23621   0.605   7.783   5.884 -0.6175  0.8633  0.6646
  175MOL0     H23622   1.379   8.361   5.605  0.0670  1.0303 -0.4539
  175MOL0     H23623   1.547   8.511   5.573 -1.2719 -0.8937  0.8099
  175MOL0     H23624   1.640   8.515   5.708 -2.6814  0.3632  0.7835
  175MOL0     H23625   1.723   8.458   5.557 -1.5478  0.5395 -0.2530
  176MOL0     O23626   2.708   8.359  10.295 -0.9994 -0.4537 -0.1367
  176MOL0     C23627   2.679   8.447  10.379 -0.3057  0.0122  0.7311
  176MOL0     O23628   2.766   8.552  10.398  0.0351 -1.2440  0.7310
  176MOL0     C23629   2.902   8.529  10.378  0.2131 -0.7729  0.5908
  176MOL0     C23630   2.976   8.589  10.275 -0.1044 -0.8509  0.1315
  176MOL0     C23631   3.111   8.565  10.275 -0.2767  0.1921  0.2907
  176MOL0     C23632   3.178   8.498  10.378 -0.3816  0.2113 -0.3780
  176MOL0     O23633   3.312   8.461  10.378  0.0536 -0.7349  0.3831
  176MOL0     C23634   3.403   8.534  10.295 -0.3367 -0.0099 -0.2431
  176MOL0     C23635   3.546   8.495  10.320  0.2429  0.6013  0.2722
  176MOL0     C23636   3.633   8.600  10.389 -0.5275  0.1714 -0.6107
  176MOL0     C23637   3.579   8.643  10.530 -0.0907  0.2008  0.2718
  176MOL0     C23638   3.673   8.744  10.608  1.2488  0.5348  0.4790
  176MOL0     C23639   3.803   8.685  10.651 -0.5077  0.0140 -0.7168
  176MOL0     C23640   3.893   8.805  10.700  0.3352  1.5477 -0.3135
  176MOL0     C23641   4.042   8.758  10.697  0.6695  0.3217  0.0773
  176MOL0     N23642   4.128   8.870  10.724  0.3131 -0.1470  0.3188
  176MOL0     C23643   4.131   8.987  10.652  0.1413 -0.2065  0.4870
  176MOL0     C23644   4.243   9.047  10.698 -0.4367 -0.6153  0.2250
  176MOL0     C23645   4.264   9.185  10.647  0.0469  0.2801  0.7900
  176MOL0     C23646   4.411   9.231  10.665 -0.2095  0.1031  0.7893
  176MOL0     C23647   4.454   9.353  10.576 -0.3615  0.3078 -0.4082
  176MOL0     C23648   4.584   9.395  10.626  0.2450 -0.2241  0.3335
  176MOL0     O23649   4.650   9.475  10.529 -0.1346  0.2501  0.3612
  176MOL0     C23650   4.778   9.501  10.561 -0.7254 -0.1333 -0.4057
  176MOL0     C23651   4.874   9.408  10.520 -0.2708 -0.4633  0.4720
  176MOL0     C23652   5.010   9.419  10.542  0.8341  0.0065 -0.9997
  176MOL0     C23653   5.055   9.528  10.627  0.0370  0.5659  0.3466
  176MOL0     C23654   5.193   9.562  10.662 -0.2016 -0.1869  0.3655
  176MOL0     O23655   5.284   9.484  10.606 -1.0501  0.7650 -0.2673
  176MOL0     C23656   5.419   9.514  10.610 -0.5892  0.3594  0.3112
  176MOL0     C23657   5.478   9.533  10.733  0.4018  0.3687  0.0487
  176MOL0     C23658   5.618   9.564  10.745 -0.2544 -0.1783  0.7420
  176MOL0     C23659   5.696   9.572  10.628  0.1441  0.6197  1.0880
  176MOL0     O23660   5.831   9.587  10.638 -1.1710  0.2776 -0.5107
  176MOL0     C23661   5.903   9.544  10.532 -0.7455  0.3052  0.6880
  176MOL0     C23662   6.040   9.509  10.558  0.8768 -0.5770 -0.8342
  176MOL0     C23663   6.114   9.637  10.613 -0.0804  0.4468  0.5302
  176MOL0     C23664   6.264   9.591  10.637 -0.3706 -0.6218  0.5855
  176MOL0     C23665   6.287   9.522  10.767  0.2869 -0.3749  0.6153
  176MOL0     C23666   6.428   9.502  10.804 -0.1562 -0.2394 -0.2350
  176MOL0     C23667   6.506   9.635  10.842  0.6681  0.5939  0.4552
  176MOL0     C23668   6.649   9.613  10.895 -0.0245 -0.0367  0.0668
  176MOL0    Cl23669   6.660   9.498  11.036  0.0823  0.0493  0.2104
  176MOL0     C23670   5.633   9.552  10.500  0.8051  0.1048  0.1201
  176MOL0     C23671   5.494   9.518  10.494  0.0528 -0.5603  0.3792
  176MOL0     O23672   5.216   9.651  10.743 -0.1102 -0.2309 -0.6228
  176MOL0     C23673   4.959   9.620  10.666  0.4557  0.1390 -0.5552
  176MOL0     C23674   4.823   9.607  10.642  0.3380 -0.3589 -0.5350
  176MOL0     N23675   4.302   8.963  10.790  0.5452  0.1487 -0.0562
  176MOL0     N23676   4.233   8.861  10.804 -0.2611 -0.3418  0.1857
  176MOL0     C23677   3.105   8.436  10.475  0.1871  0.2333  0.2574
  176MOL0     C23678   2.963   8.454  10.473  0.2230  0.0767 -0.1781
  176MOL0     C23679   2.547   8.458  10.446  0.0002  0.9038 -0.0930
  176MOL0     C23680   2.525   8.528  10.570  0.0717 -0.2900 -0.2574
  176MOL0     C23681   2.394   8.547  10.622 -0.3987 -1.1418  0.1324
  176MOL0     C23682   2.283   8.517  10.547  0.0617  0.1341 -0.4122
  176MOL0     O23683   2.153   8.551  10.576 -1.1054  0.2573  0.2480
  176MOL0     C23684   2.119   8.654  10.668 -0.4344 -0.5607 -0.6117
  176MOL0     C23685   1.973   8.706  10.649  0.2760 -0.9564 -0.8579
  176MOL0     C23686   1.870   8.610  10.717 -0.3581  0.2917  1.2234
  176MOL0     C23687   1.818   8.507  10.629 -0.4260  0.2987  0.7632
  176MOL0     C23688   1.787   8.382  10.693  0.1709 -0.2526 -0.7461
  176MOL0     C23689   1.755   8.274  10.756 -0.0160 -0.5405  0.4997
  176MOL0     C23690   2.308   8.446  10.430  0.7447  0.9210  0.6779
  176MOL0     C23691   2.431   8.405  10.378  0.7807  0.0991  0.1284
  176MOL0     C23692   2.436   8.310  10.266  0.6180 -0.2785  0.0459
  176MOL0     H23693   2.933   8.640  10.190 -0.1688  1.5616  1.5188
  176MOL0     H23694   3.179   8.602  10.199  2.0919 -3.4439  0.4040
  176MOL0     H23695   3.375   8.505  10.193  1.4815 -0.8824 -0.5324
  176MOL0     H23696   3.390   8.641  10.308 -3.6178 -0.4161  0.6281
  176MOL0     H23697   3.590   8.469  10.224  3.4988 -1.2862  2.0802
  176MOL0     H23698   3.555   8.398  10.370 -1.8803 -0.5610 -1.3980
  176MOL0     H23699   3.635   8.695  10.334  1.2825  1.8621  2.1012
  176MOL0     H23700   3.730   8.550  10.391 -1.3135 -1.4517 -1.0849
  176MOL0     H23701   3.476   8.677  10.518  0.4682  1.9380  0.0790
  176MOL0     H23702   3.569   8.553  10.592 -2.2437 -0.3359 -0.7795
  176MOL0     H23703   3.679   8.830  10.540 -2.0134 -0.0414 -0.7401
  176MOL0     H23704   3.622   8.776  10.699  1.6637 -2.4692  1.8887
  176MOL0     H23705   3.797   8.604  10.723  3.0504  0.0910 -0.1198
  176MOL0     H23706   3.855   8.639  10.566  0.0426  0.3747 -0.5838
  176MOL0     H23707   3.872   8.833  10.804 -1.1135  2.7315 -0.8840
  176MOL0     H23708   3.881   8.896  10.641 -0.7642  1.9713  0.5097
  176MOL0     H23709   4.059   8.676  10.768 -0.5429  0.2393  0.2842
  176MOL0     H23710   4.067   8.720  10.597  1.2703 -0.1990  0.4128
  176MOL0     H23711   4.058   9.030  10.583 -1.4355 -1.8026  1.0692
  176MOL0     H23712   4.250   9.180  10.538 -1.7387  0.8257  0.9642
  176MOL0     H23713   4.205   9.262  10.697 -0.8158  0.7121 -0.8268
  176MOL0     H23714   4.420   9.256  10.771  0.8215 -0.3698  0.8268
  176MOL0     H23715   4.486   9.153  10.646 -0.9851  0.0180 -2.5546
  176MOL0     H23716   4.382   9.435  10.582 -2.3027 -1.4192  1.5956
  176MOL0     H23717   4.472   9.316  10.475 -0.1878  1.3616 -0.7739
  176MOL0     H23718   4.645   9.308  10.651 -1.3657 -0.9958  1.6899
  176MOL0     H23719   4.562   9.457  10.713 -0.6824 -0.9463  0.6199
  176MOL0     H23720   4.838   9.321  10.467  1.6667 -2.1156  1.6909
  176MOL0     H23721   5.077   9.339  10.512  0.9017  0.0889 -1.0704
  176MOL0     H23722   5.414   9.528  10.821  2.0149  2.2526  1.4252
  176MOL0     H23723   5.665   9.586  10.840 -2.6363  2.2564  1.4824
  176MOL0     H23724   5.865   9.446  10.502  0.5107 -0.0009  0.0359
  176MOL0     H23725   5.891   9.622  10.456 -1.0125  0.1486  0.5671
  176MOL0     H23726   6.046   9.425  10.628 -1.2228  1.4547  2.0233
  176MOL0     H23727   6.073   9.482  10.457 -2.4319 -0.9700 -1.9295
  176MOL0     H23728   6.108   9.719  10.541 -2.7883 -0.8819 -0.9148
  176MOL0     H23729   6.073   9.671  10.709  0.5653 -1.4123  1.5174
  176MOL0     H23730   6.335   9.674  10.630 -0.1905 -0.8038  0.2347
  176MOL0     H23731   6.291   9.522  10.557  1.4520  0.0541  0.5599
  176MOL0     H23732   6.237   9.425  10.773  0.0505 -0.3670 -0.8401
  176MOL0     H23733   6.244   9.573  10.855 -0.1460 -1.0899  0.8297
  176MOL0     H23734   6.417   9.440  10.893  0.5023  0.1029  0.0956
  176MOL0     H23735   6.469   9.437  10.725 -0.7080 -2.5301  1.2766
  176MOL0     H23736   6.461   9.690  10.925  0.8798  0.2869  0.7809
  176MOL0     H23737   6.508   9.711  10.765 -0.7010  2.1546  1.8840
  176MOL0     H23738   6.713   9.566  10.820 -1.0671 -0.5606 -0.5211
  176MOL0     H23739   6.689   9.712  10.917  0.0741  0.1169 -0.7730
  176MOL0     H23740   5.685   9.572  10.407  1.5199  1.6790  0.8269
  176MOL0     H23741   5.449   9.511  10.395 -1.2364 -1.4227  1.0190
  176MOL0     H23742   4.984   9.713  10.717 -0.3408 -0.6137  1.3047
  176MOL0     H23743   4.739   9.663  10.682 -0.3803 -1.1957 -0.8301
  176MOL0     H23744   3.144   8.382  10.561  0.3860  2.7510  1.8643
  176MOL0     H23745   2.900   8.403  10.544  0.0717 -0.1117 -0.4467
  176MOL0     H23746   2.615   8.566  10.616  0.1448 -0.9395  0.1644
  176MOL0     H23747   2.390   8.589  10.722 -0.8105 -0.0751 -0.3214
  176MOL0     H23748   2.194   8.731  10.650 -0.1326 -0.5289  0.7016
  176MOL0     H23749   2.127   8.628  10.774 -4.0906  1.5580  0.3599
  176MOL0     H23750   1.948   8.728  10.545 -1.0037  2.7198  0.0947
  176MOL0     H23751   1.966   8.802  10.701  1.8611 -1.5317  0.5369
  176MOL0     H23752   1.785   8.671  10.750 -0.9015  0.6486 -0.7247
  176MOL0     H23753   1.916   8.568  10.807  0.5940 -1.0890  0.1440
  176MOL0     H23754   1.727   8.540  10.578 -0.7678  0.2670  1.3450
  176MOL0     H23755   1.899   8.485  10.559 -1.5855 -2.3150  0.1105
  176MOL0     H23756   1.728   8.184  10.807 -2.9207 -1.0283 -1.6500
  176MOL0     H23757   2.226   8.421  10.364  2.8086 -1.0451 -1.2898
  176MOL0     H23758   2.486   8.348  10.176  1.2780 -3.5573 -1.0842
  176MOL0     H23759   2.490   8.218  10.287  0.9445  0.4416  2.6827
  176MOL0     H23760   2.333   8.281  10.246  0.7141 -0.8429  0.3725
  177MOL0     O23761   0.262   2.624   1.303 -0.4218  0.2650  0.1766
  177MOL0     C23762   0.368   2.675   1.333 -0.0898  0.0435 -0.6711
  177MOL0     O23763   0.414   2.801   1.299 -0.3839  0.8927  0.3395
  177MOL0     C23764   0.350   2.878   1.205 -0.1205  0.9524  0.6602
  177MOL0     C23765   0.218   2.907   1.204  0.8683  0.6045 -0.3630
  177MOL0     C23766   0.155   2.984   1.111  0.4515 -0.1039  0.5485
  177MOL0     C23767   0.231   3.038   1.000 -0.2024 -0.2655 -1.2046
  177MOL0     O23768   0.165   3.115   0.901  0.0068 -0.2820 -0.7707
  177MOL0     C23769   0.039   3.174   0.937  0.2549 -0.0635  0.1234
  177MOL0     C23770  -0.002   3.252   0.814  0.7212  0.0035 -0.0564
  177MOL0     C23771   0.085   3.373   0.779 -0.9624  0.4221 -0.1927
  177MOL0     C23772   0.096   3.469   0.888  0.1374  0.7149  0.0185
  177MOL0     C23773   0.167   3.603   0.861 -0.3885  0.3888  0.2614
  177MOL0     C23774   0.312   3.583   0.814 -0.5695 -0.4748 -0.2222
  177MOL0     C23775   0.402   3.519   0.917  0.3391 -0.1797  0.2931
  177MOL0     C23776   0.552   3.527   0.882  0.9315 -0.0567 -0.2335
  177MOL0     N23777   0.615   3.489   1.017  0.1209 -0.4640 -0.1751
  177MOL0     C23778   0.619   3.364   1.066 -0.1378  0.1968  0.5420
  177MOL0     C23779   0.682   3.373   1.185  0.8514 -0.4868  0.2669
  177MOL0     C23780   0.689   3.269   1.298  0.4931 -0.2070 -0.6627
  177MOL0     C23781   0.791   3.158   1.265  0.2762 -0.1006  0.9091
  177MOL0     C23782   0.925   3.212   1.299  0.0490  0.4062 -0.4124
  177MOL0     C23783   1.031   3.105   1.275 -0.5981  0.2504  0.8940
  177MOL0     O23784   1.158   3.166   1.269  0.0985 -0.1736  0.7250
  177MOL0     C23785   1.274   3.090   1.237  0.5870  0.1674  0.3574
  177MOL0     C23786   1.392   3.147   1.177 -0.7607 -0.4084  0.8680
  177MOL0     C23787   1.500   3.065   1.135 -0.1706 -0.1428  0.0608
  177MOL0     C23788   1.507   2.929   1.164 -0.2363  0.4133 -0.5920
  177MOL0     C23789   1.614   2.844   1.126  0.1499 -0.2222 -0.5046
  177MOL0     O23790   1.714   2.897   1.053  0.1725  0.6837 -0.1591
  177MOL0     C23791   1.808   2.820   0.988 -0.3856  0.6473  0.2629
  177MOL0     C23792   1.780   2.751   0.871  0.8537  0.1913  0.3368
  177MOL0     C23793   1.876   2.676   0.806 -0.1794  1.0096 -0.1466
  177MOL0     C23794   2.001   2.665   0.858 -0.2609  0.4671 -0.3167
  177MOL0     O23795   2.104   2.577   0.821 -0.2576  0.4680 -0.0799
  177MOL0     C23796   2.075   2.454   0.752  0.2522 -0.0776 -0.2932
  177MOL0     C23797   2.185   2.347   0.753  0.8258 -0.0893  0.2559
  177MOL0     C23798   2.201   2.290   0.887  0.0415 -1.2215 -0.3550
  177MOL0     C23799   2.283   2.158   0.901  0.2737 -1.3310 -0.5422
  177MOL0     C23800   2.435   2.169   0.858 -0.1157 -1.0293 -0.5690
  177MOL0     C23801   2.522   2.082   0.949  0.0741 -0.0189 -0.2077
  177MOL0     C23802   2.664   2.077   0.895  0.2427  0.0958 -0.2516
  177MOL0     C23803   2.761   2.169   0.980  0.3222  0.7586  0.5834
  177MOL0    Cl23804   2.928   2.154   0.918  0.2751  0.1900  0.0931
  177MOL0     C23805   2.034   2.731   0.975 -0.6914 -0.0506  0.1294
  177MOL0     C23806   1.935   2.807   1.041  0.3201 -0.5057 -0.1207
  177MOL0     O23807   1.600   2.719   1.148  0.1067 -0.7428  0.0757
  177MOL0     C23808   1.396   2.887   1.225  0.9909  1.5627 -0.1376
  177MOL0     C23809   1.275   2.954   1.255  0.4931  0.0429 -0.2159
  177MOL0     N23810   0.730   3.504   1.199 -0.0720  0.4140 -0.0873
  177MOL0     N23811   0.697   3.566   1.096 -0.0871  0.3823  0.0977
  177MOL0     C23812   0.373   3.022   1.003 -0.8787 -0.5961  0.1423
  177MOL0     C23813   0.426   2.942   1.103  0.0583  0.1270  0.1216
  177MOL0     C23814   0.464   2.586   1.402 -0.3542 -1.2078 -0.5017
  177MOL0     C23815   0.552   2.649   1.487 -0.3647  0.5271 -0.6125
  177MOL0     C23816   0.649   2.584   1.563  0.8607  0.7976  0.6848
  177MOL0     C23817   0.665   2.446   1.552 -0.8780  0.0469  0.8024
  177MOL0     O23818   0.768   2.380   1.617 -0.0348  0.1762 -0.6645
  177MOL0     C23819   0.764   2.376   1.763 -0.0938  0.5762  0.3168
  177MOL0     C23820   0.889   2.429   1.833  0.4859 -0.0504  0.2935
  177MOL0     C23821   1.014   2.336   1.818  0.7406 -1.1052  0.0319
  177MOL0     C23822   1.139   2.411   1.876  0.3615 -0.1223  0.1831
  177MOL0     C23823   1.251   2.320   1.896 -0.6200  0.1685 -0.9485
  177MOL0     C23824   1.341   2.236   1.884  0.1811  0.3160  0.7842
  177MOL0     C23825   0.583   2.381   1.461  0.0110 -0.1829  0.1750
  177MOL0     C23826   0.477   2.444   1.393 -0.9304 -0.0611 -0.4235
  177MOL0     C23827   0.376   2.343   1.331  0.5909  0.5353  0.5593
  177MOL0     H23828   0.167   2.877   1.296  1.8336 -1.4295 -0.4330
  177MOL0     H23829   0.050   3.001   1.128  0.6329  2.0780 -0.1982
  177MOL0     H23830  -0.036   3.097   0.958  1.1170 -0.6341  1.2384
  177MOL0     H23831   0.047   3.244   1.021  0.2097  0.2077 -0.0964
  177MOL0     H23832  -0.104   3.287   0.832  1.2584  0.8729  1.4252
  177MOL0     H23833  -0.012   3.186   0.727  0.0236 -0.7045  0.5544
  177MOL0     H23834   0.044   3.422   0.691 -0.4971 -0.9958 -1.2325
  177MOL0     H23835   0.183   3.334   0.751 -1.5007 -1.8367  0.8306
  177MOL0     H23836  -0.006   3.500   0.914  0.6320  3.4648 -1.0295
  177MOL0     H23837   0.143   3.428   0.978  0.8926 -0.7043 -0.9792
  177MOL0     H23838   0.115   3.650   0.776  0.1988 -2.2101 -1.6666
  177MOL0     H23839   0.160   3.668   0.948 -2.9121  2.2936 -1.2015
  177MOL0     H23840   0.300   3.535   0.717  1.1120 -3.5414  0.9354
  177MOL0     H23841   0.347   3.686   0.798 -0.4167 -0.6908 -1.3533
  177MOL0     H23842   0.377   3.413   0.929 -1.3040  0.3197  1.7332
  177MOL0     H23843   0.389   3.560   1.017  0.1773  0.7339 -0.0908
  177MOL0     H23844   0.578   3.457   0.802  0.1484 -0.1564 -0.4076
  177MOL0     H23845   0.583   3.630   0.864 -1.9339  0.8465 -0.4098
  177MOL0     H23846   0.555   3.282   1.032  0.4530  0.2975 -0.8717
  177MOL0     H23847   0.705   3.309   1.398 -1.4448  0.9398 -0.7559
  177MOL0     H23848   0.593   3.216   1.305  0.5555 -0.1006  2.8671
  177MOL0     H23849   0.766   3.072   1.328  1.8924 -0.4170  1.1604
  177MOL0     H23850   0.779   3.123   1.163 -1.7003 -1.3021  1.4926
  177MOL0     H23851   0.933   3.238   1.405 -0.6022 -0.3428 -0.1680
  177MOL0     H23852   0.951   3.310   1.258  4.5927  0.1143  1.1751
  177MOL0     H23853   1.024   3.053   1.179  2.3309 -0.5979  1.0337
  177MOL0     H23854   1.030   3.032   1.357 -0.5156 -0.0079  0.6674
  177MOL0     H23855   1.397   3.255   1.168  2.2872 -0.6366 -1.7055
  177MOL0     H23856   1.586   3.113   1.091 -1.1956 -0.9421 -3.0429
  177MOL0     H23857   1.687   2.766   0.817  1.3529  3.1238  0.1565
  177MOL0     H23858   1.863   2.623   0.712 -2.5889 -4.0012  2.5938
  177MOL0     H23859   1.987   2.406   0.798  0.5303  0.5204  0.8852
  177MOL0     H23860   2.060   2.481   0.647  2.2589 -1.0557 -0.8732
  177MOL0     H23861   2.155   2.273   0.678  0.5903  0.4179 -0.1522
  177MOL0     H23862   2.278   2.399   0.728  2.8481 -1.9679  3.1944
  177MOL0     H23863   2.241   2.370   0.949  0.2260 -1.8996  0.4260
  177MOL0     H23864   2.103   2.278   0.935  0.4244  0.0516  0.8102
  177MOL0     H23865   2.225   2.078   0.853 -2.1609  0.9277 -1.5585
  177MOL0     H23866   2.293   2.142   1.009  0.4356  0.1868 -0.3188
  177MOL0     H23867   2.474   2.271   0.870 -0.8201 -0.9209  0.9383
  177MOL0     H23868   2.451   2.137   0.754  2.0077 -1.1177 -0.2681
  177MOL0     H23869   2.516   2.112   1.054  0.0244 -0.5322 -0.0618
  177MOL0     H23870   2.485   1.979   0.943 -1.0415  0.1339  2.5915
  177MOL0     H23871   2.673   2.107   0.790  0.8363  0.5163 -0.0875
  177MOL0     H23872   2.690   1.971   0.895 -0.2434 -0.0365 -1.2596
  177MOL0     H23873   2.729   2.271   0.955 -0.0010 -0.2041 -3.6670
  177MOL0     H23874   2.752   2.140   1.085  0.4073  0.5619  0.5362
  177MOL0     H23875   2.136   2.721   1.011 -0.8474  0.0321  0.5927
  177MOL0     H23876   1.962   2.865   1.128 -0.6719 -0.8340  0.4114
  177MOL0     H23877   1.392   2.786   1.264  2.0487  1.5935  0.0680
  177MOL0     H23878   1.193   2.898   1.299  2.2478 -1.3973  1.3754
  177MOL0     H23879   0.437   3.056   0.923  3.0506  1.1182  3.6634
  177MOL0     H23880   0.534   2.944   1.111  0.2283  4.3532 -1.0198
  177MOL0     H23881   0.544   2.756   1.499 -1.6553  0.6225 -2.1043
  177MOL0     H23882   0.718   2.636   1.629  0.9410 -0.4626  1.6445
  177MOL0     H23883   0.750   2.269   1.783 -0.6820  1.0473  2.6816
  177MOL0     H23884   0.673   2.432   1.786  0.0051  0.3050  1.4067
  177MOL0     H23885   0.866   2.436   1.940  0.2908  1.8850  0.1581
  177MOL0     H23886   0.909   2.527   1.789 -1.2353 -0.6303 -1.9280
  177MOL0     H23887   1.030   2.312   1.712 -1.1363  0.8757 -0.7621
  177MOL0     H23888   0.990   2.238   1.860 -0.8052 -0.1704  1.4380
  177MOL0     H23889   1.166   2.507   1.830 -0.9154 -0.3620 -1.1530
  177MOL0     H23890   1.113   2.444   1.976 -0.9208 -1.1068  0.2088
  177MOL0     H23891   1.427   2.173   1.872  2.5068  2.9277  2.5853
  177MOL0     H23892   0.594   2.274   1.446 -0.8371  0.0580 -2.7878
  177MOL0     H23893   0.287   2.341   1.394 -0.6550 -0.2297 -1.1359
  177MOL0     H23894   0.329   2.380   1.239 -2.4427  3.3032  2.9591
  177MOL0     H23895   0.413   2.241   1.318 -2.6236 -0.8019  1.0866
  178MOL0     O23896   0.969   0.043   7.946  0.8794  0.1653 -0.5525
  178MOL0     C23897   0.910   0.049   8.057 -0.0389  0.6217  0.7214
  178MOL0     O23898   0.977   0.049   8.184  0.1099 -0.2553 -0.4542
  178MOL0     C23899   1.113   0.034   8.200  0.7236 -0.2297  0.4498
  178MOL0     C23900   1.150  -0.021   8.316 -0.5953 -0.0954 -0.2656
  178MOL0     C23901   1.288  -0.035   8.351  0.8193 -0.6692  0.0342
  178MOL0     C23902   1.386   0.024   8.270  0.2977  0.0765  0.4081
  178MOL0     O23903   1.519   0.039   8.298 -0.1412  0.0031  0.4271
  178MOL0     C23904   1.581  -0.050   8.385  0.8013  0.3228 -1.0181
  178MOL0     C23905   1.728  -0.057   8.357  0.3642 -0.4574 -0.2569
  178MOL0     C23906   1.758  -0.121   8.216 -0.0395  0.0661 -0.4459
  178MOL0     C23907   1.907  -0.113   8.192 -0.4958 -0.0474  0.2766
  178MOL0     C23908   2.002  -0.165   8.301 -0.3329  0.8933  0.3832
  178MOL0     C23909   2.145  -0.136   8.249  0.3440 -0.8272  0.8094
  178MOL0     C23910   2.256  -0.214   8.322  0.0991  0.2073  0.5212
  178MOL0     C23911   2.273  -0.155   8.469 -0.3067  0.3107 -0.4775
  178MOL0     N23912   2.396  -0.213   8.530  0.3511  0.5639 -0.5396
  178MOL0     C23913   2.418  -0.345   8.552 -0.1318 -0.4334  0.5531
  178MOL0     C23914   2.541  -0.349   8.605  0.4452 -0.4389 -0.4097
  178MOL0     C23915   2.609  -0.469   8.675  0.2948  0.1867  0.7080
  178MOL0     C23916   2.751  -0.497   8.635 -0.1518 -0.1300 -0.1220
  178MOL0     C23917   2.854  -0.395   8.701 -1.0465  0.2907 -0.0598
  178MOL0     C23918   3.001  -0.445   8.707  0.6042 -0.6247 -0.2417
  178MOL0     O23919   3.026  -0.524   8.823  0.2054 -0.5135  0.0952
  178MOL0     C23920   3.155  -0.555   8.857  0.3144  0.7616 -0.4578
  178MOL0     C23921   3.270  -0.530   8.784 -0.6062 -0.1790 -0.5817
  178MOL0     C23922   3.401  -0.570   8.832 -0.8474  0.1780  0.5136
  178MOL0     C23923   3.415  -0.645   8.950 -0.2268  1.1537 -0.1744
  178MOL0     C23924   3.547  -0.707   8.988 -0.4387 -0.6125 -0.3550
  178MOL0     O23925   3.647  -0.676   8.898 -0.4872  0.2894  0.0848
  178MOL0     C23926   3.775  -0.704   8.938 -0.1645 -0.0572  0.1652
  178MOL0     C23927   3.826  -0.651   9.063  0.3398  0.2663  0.3636
  178MOL0     C23928   3.958  -0.667   9.093 -0.6737  0.3329  0.0320
  178MOL0     C23929   4.051  -0.724   8.998  0.1980 -0.4161 -0.8279
  178MOL0     O23930   4.189  -0.729   9.005  0.0991  0.2792 -0.9937
  178MOL0     C23931   4.253  -0.718   9.137 -0.1594  0.1115  0.3657
  178MOL0     C23932   4.380  -0.642   9.121  0.6945  0.6753  0.2840
  178MOL0     C23933   4.492  -0.727   9.061  0.4647 -0.2886 -0.7152
  178MOL0     C23934   4.629  -0.668   9.061  0.9528  0.2330 -0.2663
  178MOL0     C23935   4.735  -0.777   9.068  0.5834 -0.2365  0.3156
  178MOL0     C23936   4.874  -0.732   9.040  0.0570 -0.1250 -0.4823
  178MOL0     C23937   4.933  -0.627   9.144  0.1054  0.4045 -0.2175
  178MOL0     C23938   5.080  -0.607   9.109  1.0018  0.5999  0.9342
  178MOL0    Cl23939   5.109  -0.541   8.953  0.0120 -0.1744 -0.1277
  178MOL0     C23940   3.996  -0.775   8.882  0.5387  0.6183 -0.3786
  178MOL0     C23941   3.859  -0.762   8.849 -0.3064 -0.4777  0.0515
  178MOL0     O23942   3.561  -0.777   9.094 -0.3896  0.6364 -0.2096
  178MOL0     C23943   3.297  -0.658   9.026  0.2366  0.7540 -0.7923
  178MOL0     C23944   3.170  -0.621   8.977 -0.7012  0.5254  0.1368
  178MOL0     N23945   2.593  -0.213   8.610  0.5728 -0.4156 -0.1438
  178MOL0     N23946   2.502  -0.136   8.560 -0.0603  0.3361 -0.0426
  178MOL0     C23947   1.351   0.081   8.150  0.7092  0.0172 -0.3752
  178MOL0     C23948   1.212   0.087   8.116 -0.3355  0.4760  0.4470
  178MOL0     C23949   0.761   0.048   8.067 -0.1967  0.6595  0.2862
  178MOL0     C23950   0.714  -0.000   8.190  0.8813 -0.1111 -0.0857
  178MOL0     C23951   0.577  -0.001   8.218 -0.2477 -0.5135  0.2342
  178MOL0     C23952   0.481   0.024   8.121 -0.6529 -0.1268 -0.1016
  178MOL0     O23953   0.341   0.029   8.143 -0.4571  0.2185  0.2053
  178MOL0     C23954   0.291  -0.064   8.236  0.0597 -0.9867  0.8275
  178MOL0     C23955   0.138  -0.036   8.251  1.0853 -0.1232  0.0118
  178MOL0     C23956   0.062  -0.077   8.121 -0.2761 -0.9281  0.4238
  178MOL0     C23957  -0.093  -0.040   8.113 -0.2016 -0.2439  0.1814
  178MOL0     C23958  -0.120   0.100   8.103  0.0789 -0.0468 -0.3912
  178MOL0     C23959  -0.164   0.213   8.106  0.1075 -0.3065  0.2854
  178MOL0     C23960   0.532   0.077   8.005 -0.0109 -0.7635  0.0981
  178MOL0     C23961   0.667   0.088   7.967 -0.3197  0.1717  0.3439
  178MOL0     C23962   0.707   0.125   7.829 -0.9838 -0.5338  0.4744
  178MOL0     H23963   1.080  -0.031   8.399  1.5593  0.3899  1.7362
  178MOL0     H23964   1.318  -0.068   8.450  2.5446  2.2094  0.5970
  178MOL0     H23965   1.557  -0.026   8.489  1.1176  1.2414 -1.1491
  178MOL0     H23966   1.543  -0.150   8.362  0.8037  0.0001  0.2633
  178MOL0     H23967   1.776  -0.114   8.438  1.5838 -0.7709 -1.1798
  178MOL0     H23968   1.773   0.042   8.365 -0.2158 -0.3335  2.4440
  178MOL0     H23969   1.705  -0.057   8.145 -2.8982  1.2118  2.4807
  178MOL0     H23970   1.717  -0.222   8.219  0.7487 -0.2404  1.4588
  178MOL0     H23971   1.918  -0.165   8.096 -2.2357 -0.6061  0.3546
  178MOL0     H23972   1.940  -0.010   8.177  2.0662 -0.7518  0.6554
  178MOL0     H23973   1.991  -0.127   8.403  0.7485  1.5546  0.2604
  178MOL0     H23974   1.979  -0.272   8.310 -1.1662  1.2097  3.2197
  178MOL0     H23975   2.162  -0.178   8.150  1.4716 -0.5549  0.8696
  178MOL0     H23976   2.151  -0.027   8.252  0.8462 -0.8664  1.4069
  178MOL0     H23977   2.348  -0.212   8.263  0.1056 -1.2567  0.4504
  178MOL0     H23978   2.218  -0.316   8.330 -1.4811  0.8439  1.8144
  178MOL0     H23979   2.269  -0.046   8.473 -0.4700  0.3285 -1.0666
  178MOL0     H23980   2.179  -0.172   8.521 -0.3098 -1.7607 -1.0505
  178MOL0     H23981   2.340  -0.421   8.549 -0.9611  0.4195  0.1750
  178MOL0     H23982   2.608  -0.449   8.783  1.6842 -1.1429  0.9965
  178MOL0     H23983   2.547  -0.557   8.655  4.2277 -2.5761 -0.6336
  178MOL0     H23984   2.782  -0.597   8.667 -1.3067 -1.4550 -2.7926
  178MOL0     H23985   2.766  -0.499   8.527 -0.2645 -3.7500 -0.2015
  178MOL0     H23986   2.817  -0.382   8.803  0.5549 -1.7126  0.8515
  178MOL0     H23987   2.853  -0.299   8.650 -1.2534  0.0259 -0.5652
  178MOL0     H23988   3.075  -0.365   8.720  1.4446 -1.4063 -0.0990
  178MOL0     H23989   3.024  -0.489   8.609  1.0475 -0.5655 -0.1690
  178MOL0     H23990   3.262  -0.485   8.686  0.3982  2.4555  0.4659
  178MOL0     H23991   3.486  -0.552   8.767 -1.1270 -2.8437 -0.8515
  178MOL0     H23992   3.762  -0.596   9.131  1.1667  0.9176  0.6335
  178MOL0     H23993   3.988  -0.623   9.188  3.5305  2.8029 -2.1082
  178MOL0     H23994   4.190  -0.665   9.209  0.6415 -1.5380  2.3910
  178MOL0     H23995   4.279  -0.812   9.187  2.1647  1.3988  1.7933
  178MOL0     H23996   4.363  -0.556   9.056 -2.3292  0.7750  1.0942
  178MOL0     H23997   4.398  -0.601   9.221  0.0441  3.7691 -0.7378
  178MOL0     H23998   4.494  -0.819   9.119  1.4530 -0.2720 -0.7019
  178MOL0     H23999   4.469  -0.753   8.957  0.1846  1.0907 -1.0134
  178MOL0     H24000   4.641  -0.588   9.134  1.4121 -2.0161  2.3248
  178MOL0     H24001   4.639  -0.624   8.962 -0.3897  0.9593 -0.0940
  178MOL0     H24002   4.711  -0.855   8.996  0.7984  0.3615 -0.4186
  178MOL0     H24003   4.724  -0.815   9.170  1.0354  1.1788  0.9195
  178MOL0     H24004   4.946  -0.814   9.035 -1.3877 -1.4773  0.1507
  178MOL0     H24005   4.874  -0.690   8.939 -0.5259 -1.0353 -0.8721
  178MOL0     H24006   4.927  -0.675   9.243  0.9471  1.0683  0.1633
  178MOL0     H24007   4.876  -0.534   9.135 -1.4582 -0.4985 -0.0190
  178MOL0     H24008   5.117  -0.542   9.189  0.7933  0.6765  0.9682
  178MOL0     H24009   5.132  -0.702   9.123  2.7680  1.6524  1.9562
  178MOL0     H24010   4.067  -0.814   8.809 -0.5173  0.8811 -1.5705
  178MOL0     H24011   3.817  -0.811   8.762 -0.6821 -2.7863  1.4518
  178MOL0     H24012   3.313  -0.701   9.124 -3.4166  3.0058  1.0001
  178MOL0     H24013   3.082  -0.630   9.039  1.4141 -1.2369  3.1807
  178MOL0     H24014   1.426   0.123   8.083  0.7515 -0.0777 -0.3872
  178MOL0     H24015   1.178   0.141   8.028  1.1234  0.5631 -0.0943
  178MOL0     H24016   0.789  -0.032   8.262  1.9409  0.8566 -0.7311
  178MOL0     H24017   0.539  -0.034   8.314  1.1427  1.9372  1.7346
  178MOL0     H24018   0.332  -0.054   8.337 -0.7780 -0.2571  1.1078
  178MOL0     H24019   0.319  -0.160   8.192  0.9460 -0.3964  0.0590
  178MOL0     H24020   0.122   0.071   8.266  0.2661 -0.4521  1.7939
  178MOL0     H24021   0.086  -0.101   8.322 -2.0537 -0.3514 -2.2916
  178MOL0     H24022   0.066  -0.186   8.110 -4.5031 -1.1511 -0.8334
  178MOL0     H24023   0.106  -0.031   8.033 -2.1651  0.9281  0.3610
  178MOL0     H24024  -0.137  -0.088   8.025  2.1417 -0.5892 -0.8489
  178MOL0     H24025  -0.146  -0.083   8.199 -1.9780 -1.2227 -1.3073
  178MOL0     H24026  -0.199   0.313   8.124  1.2506 -0.0570  1.2089
  178MOL0     H24027   0.458   0.118   7.937  1.7913 -0.6219 -1.8839
  178MOL0     H24028   0.772   0.053   7.779  3.1649  1.8359  2.0122
  178MOL0     H24029   0.618   0.134   7.766  1.5119  3.6258 -3.0023
  178MOL0     H24030   0.766   0.217   7.825 -0.0039 -1.1820 -0.3633
  179MOL0     O24031   0.061   6.906   3.572 -1.0072  0.1424 -0.3726
  179MOL0     C24032   0.044   6.825   3.659  0.5003  0.3733 -0.3438
  179MOL0     O24033   0.132   6.802   3.762  0.7131  0.6007 -0.0902
  179MOL0     C24034   0.235   6.883   3.789 -0.8029 -0.0920  0.2847
  179MOL0     C24035   0.319   6.938   3.691 -0.5905 -0.1714  0.1562
  179MOL0     C24036   0.431   7.012   3.730  0.1626  0.4736 -0.0673
  179MOL0     C24037   0.449   7.047   3.868 -0.4052 -0.9374 -0.6974
  179MOL0     O24038   0.526   7.155   3.905 -0.8008  0.7024 -0.2670
  179MOL0     C24039   0.655   7.158   3.837  0.0388 -0.4146  0.8230
  179MOL0     C24040   0.751   7.247   3.903  0.7592  1.0105  0.0637
  179MOL0     C24041   0.688   7.389   3.924  1.2816  0.2716 -0.3120
  179MOL0     C24042   0.790   7.488   3.920  0.1441  0.1491  0.4290
  179MOL0     C24043   0.751   7.624   3.978  0.8851  0.5741 -0.2001
  179MOL0     C24044   0.871   7.712   3.976 -0.1323 -0.8203 -0.2911
  179MOL0     C24045   0.838   7.852   4.035 -0.9178  0.1218 -0.0587
  179MOL0     C24046   0.922   7.889   4.147 -0.1705  0.0193 -0.2662
  179MOL0     N24047   0.874   8.013   4.207 -0.0064  0.2219 -0.6150
  179MOL0     C24048   0.894   8.135   4.159 -0.1388 -0.2640 -1.4657
  179MOL0     C24049   0.798   8.216   4.207 -0.6573  1.2063  0.5783
  179MOL0     C24050   0.759   8.359   4.180 -0.1222 -0.4179 -0.5428
  179MOL0     C24051   0.628   8.360   4.094  0.6579 -0.0099 -0.0486
  179MOL0     C24052   0.608   8.495   4.048 -0.2208  0.5294 -0.6672
  179MOL0     C24053   0.458   8.511   4.028 -0.4502 -0.3857  0.5444
  179MOL0     O24054   0.426   8.427   3.919 -0.1185  0.6798  0.2033
  179MOL0     C24055   0.336   8.319   3.930  0.6984  0.5926  0.0272
  179MOL0     C24056   0.354   8.213   3.838 -0.0370 -0.0063 -0.2754
  179MOL0     C24057   0.275   8.097   3.836 -0.2060 -0.0059  1.1369
  179MOL0     C24058   0.161   8.094   3.918 -0.7469 -0.1892  0.9692
  179MOL0     C24059   0.056   7.988   3.897 -0.5966  0.1640 -0.1496
  179MOL0     O24060  -0.048   7.982   3.993 -0.4436 -0.0807  0.8481
  179MOL0     C24061  -0.157   7.909   3.954  0.0692 -0.0529  0.2150
  179MOL0     C24062  -0.154   7.777   3.923 -1.0609 -0.0883 -0.9258
  179MOL0     C24063  -0.276   7.711   3.902 -0.4301  0.5364 -0.2349
  179MOL0     C24064  -0.399   7.775   3.918  0.5318  0.3541 -0.3046
  179MOL0     O24065  -0.524   7.713   3.911 -0.6473 -0.0547  0.0104
  179MOL0     C24066  -0.525   7.583   3.851  0.1860 -0.5363 -0.1945
  179MOL0     C24067  -0.666   7.542   3.811  0.2821  0.4377 -0.9241
  179MOL0     C24068  -0.663   7.410   3.730  0.9707 -0.6786  0.9984
  179MOL0     C24069  -0.803   7.367   3.686  0.1122  0.4290 -0.1371
  179MOL0     C24070  -0.922   7.342   3.784  0.3493  0.2240 -0.0993
  179MOL0     C24071  -0.895   7.229   3.904  0.2685 -0.6333  0.9789
  179MOL0     C24072  -0.887   7.092   3.849  0.6396  1.1742  1.3139
  179MOL0     C24073  -0.890   6.984   3.960  0.1649  0.2609  0.7578
  179MOL0    Cl24074  -0.754   7.002   4.065  0.2478 -0.2811  0.0255
  179MOL0     C24075  -0.402   7.908   3.955 -0.5898  0.0284 -0.2440
  179MOL0     C24076  -0.284   7.974   3.966 -0.0222  0.3480 -0.1233
  179MOL0     O24077   0.067   7.927   3.792 -0.2895  0.2018  0.4909
  179MOL0     C24078   0.146   8.204   4.016 -0.3180  0.3255 -0.3493
  179MOL0     C24079   0.230   8.309   4.022  0.6452 -0.9584 -0.4046
  179MOL0     N24080   0.739   8.142   4.309 -0.1414  0.0468 -0.6161
  179MOL0     N24081   0.782   8.020   4.308  0.0696 -0.0911  0.0225
  179MOL0     C24082   0.364   7.005   3.956 -0.0479 -0.1097 -0.4617
  179MOL0     C24083   0.262   6.914   3.922  0.8806  0.0257 -0.4567
  179MOL0     C24084  -0.082   6.743   3.666  0.5523  0.3130  0.3983
  179MOL0     C24085  -0.092   6.646   3.766  0.7366  0.4535 -0.5683
  179MOL0     C24086  -0.215   6.575   3.791 -0.4030 -0.1935 -0.3373
  179MOL0     C24087  -0.326   6.595   3.709 -0.5282  0.1219  1.0233
  179MOL0     O24088  -0.443   6.527   3.714 -0.2580  0.0932  0.2784
  179MOL0     C24089  -0.452   6.403   3.784  0.1390  0.4240  0.2293
  179MOL0     C24090  -0.516   6.295   3.691  0.2928  0.6121 -0.7603
  179MOL0     C24091  -0.665   6.321   3.681  0.0889  0.1846 -0.4182
  179MOL0     C24092  -0.741   6.257   3.802 -0.3693 -0.1622 -0.1452
  179MOL0     C24093  -0.772   6.116   3.778  0.3821 -1.0834  0.1697
  179MOL0     C24094  -0.796   6.000   3.763  0.5024 -0.0322 -0.1956
  179MOL0     C24095  -0.316   6.685   3.600 -0.0951 -0.2262 -0.1424
  179MOL0     C24096  -0.197   6.760   3.584  0.4895 -0.5194 -0.3406
  179MOL0     C24097  -0.197   6.860   3.479  0.5640  0.1271  0.7379
  179MOL0     H24098   0.314   6.904   3.588  3.9038 -1.6396  0.2226
  179MOL0     H24099   0.495   7.052   3.652  0.7759  1.4201  0.8780
  179MOL0     H24100   0.706   7.062   3.830 -0.4201 -0.5347 -1.7624
  179MOL0     H24101   0.641   7.199   3.736  3.8310 -1.3624 -0.2317
  179MOL0     H24102   0.835   7.251   3.832 -0.6658 -1.3532 -1.9085
  179MOL0     H24103   0.790   7.206   3.997 -2.7334 -0.4855  1.0117
  179MOL0     H24104   0.635   7.400   4.019  0.7958  2.4067 -0.7793
  179MOL0     H24105   0.624   7.412   3.838 -1.4628 -3.6029  0.4107
  179MOL0     H24106   0.878   7.448   3.970 -0.1039 -2.3821 -1.0077
  179MOL0     H24107   0.820   7.491   3.815  0.9380 -0.7362  0.6163
  179MOL0     H24108   0.665   7.667   3.925  1.4512  1.2703 -0.5848
  179MOL0     H24109   0.723   7.626   4.084 -0.0647 -1.3286 -0.3774
  179MOL0     H24110   0.949   7.658   4.031 -1.5463 -2.2161  0.4324
  179MOL0     H24111   0.911   7.716   3.874 -0.2096  0.2238 -0.2896
  179MOL0     H24112   0.736   7.846   4.074 -0.2338 -0.3620  1.7344
  179MOL0     H24113   0.851   7.923   3.953  3.6974 -0.5643 -0.2166
  179MOL0     H24114   0.924   7.815   4.227 -2.2907  1.1024  0.8748
  179MOL0     H24115   1.026   7.889   4.111  0.6183 -1.5030  1.7812
  179MOL0     H24116   0.959   8.164   4.077 -1.5510  1.2059 -2.1295
  179MOL0     H24117   0.736   8.408   4.275  2.2775  0.6384 -0.4185
  179MOL0     H24118   0.849   8.399   4.132 -0.0660 -0.3757 -0.4013
  179MOL0     H24119   0.641   8.289   4.011  0.1143  1.1882 -1.1877
  179MOL0     H24120   0.550   8.321   4.161  3.4747  1.1808  4.3419
  179MOL0     H24121   0.656   8.504   3.950 -1.1269 -0.5860 -1.2258
  179MOL0     H24122   0.630   8.577   4.117  0.4880 -0.8665  0.8314
  179MOL0     H24123   0.432   8.612   3.993  0.0968 -0.5239 -0.2770
  179MOL0     H24124   0.394   8.496   4.115 -1.5706  2.2914  0.2734
  179MOL0     H24125   0.447   8.222   3.782 -0.5523  0.1276 -1.1314
  179MOL0     H24126   0.289   8.010   3.773  0.2772 -1.7701  3.5190
  179MOL0     H24127  -0.055   7.736   3.913 -0.1657  1.5729  0.5082
  179MOL0     H24128  -0.270   7.609   3.864 -2.0461  0.7323 -1.0765
  179MOL0     H24129  -0.470   7.589   3.757 -2.4122 -0.2253 -1.7922
  179MOL0     H24130  -0.473   7.508   3.913  2.3749  0.7300 -0.4047
  179MOL0     H24131  -0.726   7.520   3.899  2.0336 -1.5701 -0.1448
  179MOL0     H24132  -0.711   7.618   3.746 -2.0913  1.7178  1.9818
  179MOL0     H24133  -0.608   7.427   3.637 -0.6659 -1.4309 -0.1556
  179MOL0     H24134  -0.611   7.337   3.792 -0.2739 -2.1842  0.3321
  179MOL0     H24135  -0.791   7.282   3.618  3.9435  0.1694  0.6518
  179MOL0     H24136  -0.837   7.444   3.616  2.5263  1.0148 -0.7438
  179MOL0     H24137  -1.013   7.298   3.741  1.0542 -1.6363  0.2083
  179MOL0     H24138  -0.962   7.434   3.828  1.4856  1.2336 -1.1189
  179MOL0     H24139  -0.800   7.256   3.950  0.1308  0.3438  0.7008
  179MOL0     H24140  -0.982   7.229   3.971 -1.3715  0.7580 -1.0522
  179MOL0     H24141  -0.788   7.082   3.805  0.3494 -2.7783  1.2251
  179MOL0     H24142  -0.965   7.078   3.773 -1.2224  0.9054  3.1890
  179MOL0     H24143  -0.984   6.998   4.014  0.3623  0.1360  1.1342
  179MOL0     H24144  -0.902   6.883   3.920  0.1002 -1.2024  4.1777
  179MOL0     H24145  -0.493   7.963   3.973 -0.0399  1.4988 -1.7251
  179MOL0     H24146  -0.283   8.081   3.986 -0.4544  0.5047 -0.9164
  179MOL0     H24147   0.059   8.211   4.080  0.7289  2.1160  0.9763
  179MOL0     H24148   0.205   8.387   4.093 -4.1738 -3.6406  1.2549
  179MOL0     H24149   0.359   7.037   4.060 -1.5285 -0.1913 -0.4910
  179MOL0     H24150   0.205   6.864   4.000 -2.0958  1.6383 -1.4241
  179MOL0     H24151  -0.018   6.623   3.842  2.3627  2.0525 -1.5980
  179MOL0     H24152  -0.222   6.511   3.878 -0.5271 -2.4527 -1.9357
  179MOL0     H24153  -0.519   6.420   3.869 -0.5544  2.0506 -0.5856
  179MOL0     H24154  -0.356   6.366   3.821  0.0772  0.5059  0.4697
  179MOL0     H24155  -0.487   6.197   3.729  0.5544 -0.6915 -3.9713
  179MOL0     H24156  -0.475   6.293   3.589  1.7731 -3.4028 -0.2471
  179MOL0     H24157  -0.718   6.284   3.593 -2.1871  1.4893  0.2937
  179MOL0     H24158  -0.682   6.429   3.685 -0.6636  0.1594 -2.2241
  179MOL0     H24159  -0.689   6.280   3.896  3.4647 -2.5553 -1.4324
  179MOL0     H24160  -0.833   6.316   3.809  1.8594  3.5578  2.0065
  179MOL0     H24161  -0.806   5.894   3.753  2.0234 -0.1726 -0.4843
  179MOL0     H24162  -0.399   6.692   3.530  0.1918 -0.5845 -0.5273
  179MOL0     H24163  -0.290   6.871   3.421  0.9528  1.5979  0.3461
  179MOL0     H24164  -0.156   6.960   3.491  1.8221  0.1351 -2.6187
  179MOL0     H24165  -0.127   6.818   3.407  0.3837  0.8958  0.1029
  180MOL0     O24166   1.724   9.480   6.850 -0.0071 -0.0917  0.1412
  180MOL0     C24167   1.621   9.531   6.909 -0.7405  0.2321 -0.6730
  180MOL0     O24168   1.626   9.628   7.008 -0.1313 -0.2010 -0.5920
  180MOL0     C24169   1.744   9.692   7.022  0.2501  0.2038 -0.0499
  180MOL0     C24170   1.789   9.786   6.931 -0.3806 -0.8832 -0.3452
  180MOL0     C24171   1.897   9.875   6.944 -0.4577  0.2622  0.5114
  180MOL0     C24172   1.964   9.867   7.072 -0.1178 -0.2998  0.3841
  180MOL0     O24173   2.074   9.944   7.093 -0.1152  0.2892 -0.4995
  180MOL0     C24174   2.114  10.037   6.995  0.2317 -0.2170 -0.2231
  180MOL0     C24175   2.230  10.113   7.057 -0.4093  0.1219 -0.4561
  180MOL0     C24176   2.351  10.030   7.087  0.9505  0.3363  0.5871
  180MOL0     C24177   2.466  10.113   7.134  0.1363 -1.0870  0.9806
  180MOL0     C24178   2.602  10.047   7.121  0.1463  0.6471  0.7356
  180MOL0     C24179   2.708  10.151   7.132 -0.2716  0.5744 -0.3795
  180MOL0     C24180   2.854  10.113   7.097  1.1776 -0.6025 -0.0476
  180MOL0     C24181   2.942  10.242   7.070 -0.2115  0.6764  0.8401
  180MOL0     N24182   2.928  10.348   7.177 -0.1691 -0.1618 -0.1555
  180MOL0     C24183   3.007  10.356   7.293  0.5478 -0.0162  1.1421
  180MOL0     C24184   2.960  10.461   7.363  0.5468 -0.5570  0.7925
  180MOL0     C24185   3.002  10.526   7.496 -0.3437  0.3436  0.0744
  180MOL0     C24186   3.155  10.545   7.519  0.4074 -0.0636  0.3354
  180MOL0     C24187   3.220  10.663   7.443 -0.3619  0.0023  0.3825
  180MOL0     C24188   3.357  10.687   7.504 -0.3130 -0.5974  0.2418
  180MOL0     O24189   3.452  10.592   7.456 -0.4060  0.0555 -0.4809
  180MOL0     C24190   3.577  10.629   7.411 -1.1064  0.0971  0.2188
  180MOL0     C24191   3.643  10.744   7.456  0.0231  0.0374 -0.1505
  180MOL0     C24192   3.784  10.765   7.407 -0.1154  0.5267  0.3863
  180MOL0     C24193   3.839  10.688   7.307 -0.2344 -0.1638 -0.0684
  180MOL0     C24194   3.971  10.719   7.248 -0.5266  0.4241 -0.4622
  180MOL0     O24195   4.033  10.608   7.192 -0.0576  0.0152 -0.3247
  180MOL0     C24196   4.148  10.627   7.121  0.0102 -0.0135  0.4528
  180MOL0     C24197   4.257  10.699   7.165 -0.1431 -0.2547 -0.1034
  180MOL0     C24198   4.367  10.719   7.078  0.8393  0.3510 -0.5234
  180MOL0     C24199   4.381  10.648   6.964 -0.1075  0.0565  0.7406
  180MOL0     O24200   4.503  10.667   6.896  0.2664  0.1626 -0.2522
  180MOL0     C24201   4.518  10.628   6.767  0.4358  0.7039  0.1149
  180MOL0     C24202   4.652  10.670   6.696  0.4165  0.3798 -0.8091
  180MOL0     C24203   4.738  10.567   6.620  0.2436 -0.3264  0.9016
  180MOL0     C24204   4.873  10.629   6.575  0.3482  0.0224 -0.9590
  180MOL0     C24205   4.859  10.751   6.495  0.2964  0.3250  1.0147
  180MOL0     C24206   5.001  10.799   6.438 -0.1116  1.2195 -0.2910
  180MOL0     C24207   4.994  10.927   6.358  1.1811  0.1575  0.1135
  180MOL0     C24208   5.134  10.977   6.311 -0.8265 -0.4520 -0.9178
  180MOL0    Cl24209   5.228  10.865   6.217  0.1045 -0.5290 -0.2423
  180MOL0     C24210   4.279  10.561   6.920 -0.7418 -0.3558 -0.9948
  180MOL0     C24211   4.156  10.563   6.998 -0.5168  0.0447  0.0110
  180MOL0     O24212   4.011  10.830   7.241 -0.1674 -1.1962 -0.4784
  180MOL0     C24213   3.769  10.570   7.266  0.6930 -0.4756 -0.2884
  180MOL0     C24214   3.644  10.539   7.320  0.0378 -0.3753 -0.2984
  180MOL0     N24215   2.851  10.514   7.295 -0.1066 -0.6821  0.8858
  180MOL0     N24216   2.840  10.455   7.179  0.1671 -0.2217  0.2717
  180MOL0     C24217   1.919   9.774   7.170  1.1752  0.3405  0.1429
  180MOL0     C24218   1.811   9.689   7.148 -0.8111 -0.8760 -0.1840
  180MOL0     C24219   1.498   9.463   6.877 -0.1441 -0.4580  0.1590
  180MOL0     C24220   1.380   9.542   6.891 -0.7747  0.6719  0.3322
  180MOL0     C24221   1.258   9.492   6.843 -0.5133  0.7653 -0.4212
  180MOL0     C24222   1.253   9.361   6.791 -0.0991  0.1562 -0.1628
  180MOL0     O24223   1.132   9.325   6.742 -0.2624 -0.4368  0.1224
  180MOL0     C24224   1.113   9.200   6.689 -0.7077 -0.1865  0.4173
  180MOL0     C24225   0.970   9.171   6.635  0.7216 -0.1231  0.1765
  180MOL0     C24226   0.928   9.284   6.543  0.1054  0.2988 -0.5934
  180MOL0     C24227   0.820   9.235   6.445 -0.4224  0.1395 -0.6352
  180MOL0     C24228   0.782   9.342   6.352  0.5181  0.3999 -0.2271
  180MOL0     C24229   0.766   9.428   6.277  0.3616  0.6656 -0.6255
  180MOL0     C24230   1.371   9.290   6.785  0.0492 -0.7822  0.7714
  180MOL0     C24231   1.491   9.329   6.831  0.0322  0.8093 -0.0641
  180MOL0     C24232   1.606   9.231   6.839  0.6177 -0.2122  0.1262
  180MOL0     H24233   1.730   9.811   6.843  0.2713  2.9589  0.1211
  180MOL0     H24234   1.918   9.941   6.860  0.7837 -0.5016  0.2038
  180MOL0     H24235   2.159   9.980   6.913  1.5964 -3.0717  2.2796
  180MOL0     H24236   2.042  10.114   6.967  2.1475  2.3771  1.5562
  180MOL0     H24237   2.209  10.167   7.149  0.6511 -2.1161  1.2116
  180MOL0     H24238   2.268  10.182   6.981  1.0283  0.4172  0.4741
  180MOL0     H24239   2.384   9.968   7.003  4.0302  1.0319  1.1869
  180MOL0     H24240   2.315   9.967   7.169 -2.1675  2.7661  1.2815
  180MOL0     H24241   2.460  10.202   7.071  0.0997 -1.7311  0.0407
  180MOL0     H24242   2.455  10.135   7.241 -2.0945  1.1285  0.3956
  180MOL0     H24243   2.602   9.970   7.198  1.5038  0.2155  0.3348
  180MOL0     H24244   2.614  10.008   7.020 -0.5612  1.2520  0.4075
  180MOL0     H24245   2.674  10.241   7.080 -0.4209  0.4939 -0.4208
  180MOL0     H24246   2.708  10.181   7.237  0.3331  0.8465 -0.4528
  180MOL0     H24247   2.864  10.043   7.013  0.8945  1.8234 -2.2480
  180MOL0     H24248   2.903  10.077   7.187  0.8309 -1.1916 -0.0890
  180MOL0     H24249   3.045  10.209   7.053 -1.0401 -0.7154 -2.1535
  180MOL0     H24250   2.908  10.278   6.973  2.4058  1.6518  0.1945
  180MOL0     H24251   3.087  10.290   7.325  2.2289  0.4777 -1.7549
  180MOL0     H24252   2.957  10.626   7.499 -0.8760  0.0789  1.6821
  180MOL0     H24253   2.956  10.473   7.579  0.0825  0.0544  0.1263
  180MOL0     H24254   3.164  10.561   7.627 -1.2565 -0.6938  0.5996
  180MOL0     H24255   3.203  10.457   7.476  0.1654  0.5854 -1.3078
  180MOL0     H24256   3.174  10.759   7.468  1.3658  0.3449  2.5963
  180MOL0     H24257   3.232  10.646   7.335  0.5659 -2.8004  0.8360
  180MOL0     H24258   3.359  10.672   7.612  0.2030  1.8045  0.6167
  180MOL0     H24259   3.384  10.790   7.479 -1.9985  0.2979  1.8757
  180MOL0     H24260   3.603  10.819   7.524 -0.2996 -0.5326  0.2910
  180MOL0     H24261   3.836  10.853   7.442 -2.6963  2.4458 -0.2538
  180MOL0     H24262   4.253  10.747   7.262  1.9762 -0.7276  0.2649
  180MOL0     H24263   4.450  10.773   7.122 -0.4319  0.3830  2.0239
  180MOL0     H24264   4.502  10.520   6.757 -3.1505  0.9476  1.4824
  180MOL0     H24265   4.435  10.677   6.716 -0.1307  0.0309  0.3623
  180MOL0     H24266   4.618  10.745   6.625 -0.5866  1.4907  0.7689
  180MOL0     H24267   4.707  10.725   6.774 -0.9794  0.7480 -0.0432
  180MOL0     H24268   4.766  10.483   6.685 -1.2028 -1.7758 -0.2663
  180MOL0     H24269   4.687  10.526   6.533 -2.9159  2.0391  1.4978
  180MOL0     H24270   4.935  10.547   6.539  0.8283  0.2514 -0.6601
  180MOL0     H24271   4.922  10.653   6.670 -3.4930  1.4977  0.8707
  180MOL0     H24272   4.821  10.832   6.558  1.1663 -0.0239  1.9913
  180MOL0     H24273   4.794  10.728   6.409  1.3586  0.2121  0.2283
  180MOL0     H24274   5.064  10.800   6.528 -1.6721 -3.5073  1.1723
  180MOL0     H24275   5.050  10.723   6.378 -1.5909 -1.3931  1.6121
  180MOL0     H24276   4.952  11.007   6.421  1.9858  0.6342  0.0572
  180MOL0     H24277   4.924  10.923   6.274 -2.3557 -0.8230  2.8849
  180MOL0     H24278   5.120  11.073   6.261 -0.5292  0.6563  1.0179
  180MOL0     H24279   5.203  11.003   6.392 -1.4950 -0.2517 -0.4038
  180MOL0     H24280   4.292  10.501   6.831 -2.0444 -2.0114 -0.1133
  180MOL0     H24281   4.068  10.510   6.962  0.0910 -1.1892  0.2645
  180MOL0     H24282   3.815  10.508   7.190  2.1875  2.1025 -1.6199
  180MOL0     H24283   3.596  10.446   7.289  2.7004 -1.7968 -0.4753
  180MOL0     H24284   1.967   9.793   7.266  1.2922 -0.0680  0.1665
  180MOL0     H24285   1.772   9.627   7.228 -2.1031  0.1815  0.0470
  180MOL0     H24286   1.385   9.643   6.931 -0.8659  0.0107  2.1037
  180MOL0     H24287   1.160   9.538   6.854 -0.0381  1.7905 -0.4362
  180MOL0     H24288   1.147   9.124   6.760 -1.3522 -0.2436  0.6708
  180MOL0     H24289   1.181   9.192   6.603 -1.0684 -2.2878  0.2764
  180MOL0     H24290   0.901   9.155   6.719  0.1960  1.8288  0.1467
  180MOL0     H24291   0.968   9.080   6.574  2.6867  0.3588 -0.7028
  180MOL0     H24292   1.014   9.329   6.492  0.8340  2.7867  2.4988
  180MOL0     H24293   0.884   9.362   6.607 -5.1456 -3.3760  0.9855
  180MOL0     H24294   0.857   9.144   6.396 -1.0297 -0.0888 -0.6836
  180MOL0     H24295   0.739   9.196   6.507 -0.9470 -1.6952 -2.3604
  180MOL0     H24296   0.759   9.512   6.211 -0.5933  1.5603  0.5654
  180MOL0     H24297   1.357   9.189   6.747  0.0029 -0.5623  0.1843
  180MOL0     H24298   1.569   9.128   6.830  1.2129 -0.3173 -1.5432
  180MOL0     H24299   1.679   9.243   6.758  3.1046 -0.6191  2.1588
  180MOL0     H24300   1.662   9.248   6.932  2.6051  0.3206 -1.1075
  181MOL0     O24301   8.777   1.367   4.462 -0.5936  0.8940  0.3709
  181MOL0     C24302   8.723   1.279   4.532  0.4584 -0.3198  0.4117
  181MOL0     O24303   8.785   1.216   4.631 -0.1803 -0.1664 -0.3899
  181MOL0     C24304   8.917   1.233   4.627  0.4678 -0.2108  0.6368
  181MOL0     C24305   8.985   1.301   4.731 -0.2028 -0.4179  0.5675
  181MOL0     C24306   9.127   1.304   4.735 -0.0986  0.2123 -0.5791
  181MOL0     C24307   9.201   1.239   4.640  0.8026  0.0346  0.1844
  181MOL0     O24308   9.334   1.244   4.612  0.0848 -0.4391  0.1966
  181MOL0     C24309   9.393   1.368   4.642  0.3992  0.5964 -0.5132
  181MOL0     C24310   9.510   1.369   4.552 -0.5795 -0.3908  0.7804
  181MOL0     C24311   9.589   1.504   4.568  0.1462  1.1950 -0.2597
  181MOL0     C24312   9.663   1.513   4.699  0.1181 -0.2294  0.8370
  181MOL0     C24313   9.736   1.648   4.718  1.4579 -0.4293  0.5025
  181MOL0     C24314   9.806   1.668   4.845 -0.5568 -0.1574  0.0538
  181MOL0     C24315   9.862   1.809   4.861 -0.5513  0.0499  0.0395
  181MOL0     C24316   9.916   1.838   5.008  0.5050 -0.0743  0.3162
  181MOL0     N24317  10.056   1.846   5.015 -0.6228  0.1826  0.6177
  181MOL0     C24318  10.144   1.745   4.973 -0.0155 -0.2568  0.1716
  181MOL0     C24319  10.264   1.808   4.965 -0.6868  0.1870 -0.0746
  181MOL0     C24320  10.386   1.734   4.914 -0.0134  0.3317 -0.3376
  181MOL0     C24321  10.504   1.824   4.858  0.1747  0.1772  0.6667
  181MOL0     C24322  10.590   1.886   4.973  0.3821  1.2040  0.4871
  181MOL0     C24323  10.699   1.972   4.915  0.8268  0.2468  0.0211
  181MOL0     O24324  10.815   1.981   4.998  0.2035 -0.0268  0.0965
  181MOL0     C24325  10.913   2.077   4.962  0.6100  1.1082 -0.0245
  181MOL0     C24326  10.916   2.147   4.841  0.2074 -0.4120 -0.1485
  181MOL0     C24327  11.033   2.230   4.815  0.1969  0.0714 -0.0571
  181MOL0     C24328  11.140   2.247   4.898  0.3196 -0.0385  0.4078
  181MOL0     C24329  11.268   2.321   4.855  0.4336  0.0763  0.0098
  181MOL0     O24330  11.369   2.327   4.945  0.3578  0.7391  0.2213
  181MOL0     C24331  11.470   2.413   4.915  0.4503  0.4798  0.9378
  181MOL0     C24332  11.568   2.374   4.833 -0.3726  0.0123 -0.1268
  181MOL0     C24333  11.660   2.461   4.798 -0.1619 -0.3528 -0.7137
  181MOL0     C24334  11.668   2.587   4.853 -0.7047  0.6677 -0.4172
  181MOL0     O24335  11.773   2.662   4.819 -0.1878 -0.2269 -1.1281
  181MOL0     C24336  11.782   2.805   4.849 -0.1464  0.1854 -1.1537
  181MOL0     C24337  11.921   2.856   4.823  0.2300 -0.5349 -0.2288
  181MOL0     C24338  12.012   2.823   4.943 -0.4375  0.9003 -0.1468
  181MOL0     C24339  12.151   2.879   4.931  0.0770 -0.3997 -0.0783
  181MOL0     C24340  12.243   2.843   5.048 -0.3027  0.1882 -0.4360
  181MOL0     C24341  12.379   2.919   5.044 -0.4666 -0.5253  0.2876
  181MOL0     C24342  12.434   2.923   4.899 -0.6857  0.1559 -0.7623
  181MOL0     C24343  12.574   2.993   4.909 -0.2449 -0.2249  0.0957
  181MOL0    Cl24344  12.638   3.000   4.739  0.2274 -0.0634 -0.0263
  181MOL0     C24345  11.577   2.630   4.939  0.0037 -0.2676 -0.4738
  181MOL0     C24346  11.481   2.540   4.972  0.2511 -0.4690  0.0320
  181MOL0     O24347  11.267   2.380   4.748  0.2982  0.5623  0.3124
  181MOL0     C24348  11.133   2.176   5.018  0.4057 -0.4046 -1.0642
  181MOL0     C24349  11.024   2.090   5.048  0.5448  0.2729  0.0846
  181MOL0     N24350  10.256   1.940   5.003  0.5338  0.3937 -0.1299
  181MOL0     N24351  10.134   1.957   5.040 -0.7018 -0.0310 -0.4703
  181MOL0     C24352   9.136   1.162   4.541 -0.1792 -0.0091 -1.0387
  181MOL0     C24353   8.991   1.156   4.539  0.1868  0.4757 -0.4023
  181MOL0     C24354   8.568   1.261   4.511 -0.1388  0.4337  0.5823
  181MOL0     C24355   8.524   1.291   4.385  0.4016  0.3615  0.3144
  181MOL0     C24356   8.382   1.278   4.352  1.0212 -0.4566  0.4010
  181MOL0     C24357   8.282   1.234   4.440 -0.4577 -0.4785 -0.1197
  181MOL0     O24358   8.152   1.241   4.401 -0.5978  0.2646 -0.5978
  181MOL0     C24359   8.051   1.193   4.491 -0.3314 -0.5506 -0.1689
  181MOL0     C24360   7.920   1.179   4.414  0.2249 -0.5192 -0.0463
  181MOL0     C24361   7.927   1.084   4.298  0.7561 -0.8039 -0.0752
  181MOL0     C24362   7.910   0.934   4.347  0.4006  1.0472  0.5290
  181MOL0     C24363   7.854   0.855   4.238 -0.0041  1.2141  0.2757
  181MOL0     C24364   7.791   0.814   4.144 -0.5165  0.2580 -0.7445
  181MOL0     C24365   8.336   1.204   4.572  0.1187  0.5072  0.0115
  181MOL0     C24366   8.474   1.211   4.609 -0.1096 -0.2863  1.3214
  181MOL0     C24367   8.516   1.198   4.757 -0.0173 -0.4556  1.1635
  181MOL0     H24368   8.929   1.376   4.786  1.0653 -0.5975  2.1792
  181MOL0     H24369   9.185   1.362   4.805  0.0328  0.4466 -0.8798
  181MOL0     H24370   9.325   1.448   4.612 -1.4294 -0.4178  0.7481
  181MOL0     H24371   9.413   1.374   4.750 -0.8945 -2.0475 -0.0672
  181MOL0     H24372   9.481   1.352   4.448  0.3658 -3.0983  0.8755
  181MOL0     H24373   9.579   1.287   4.576  0.2077 -0.3668 -1.1897
  181MOL0     H24374   9.512   1.581   4.564 -0.3256  0.8537  1.3941
  181MOL0     H24375   9.655   1.514   4.482 -0.4634 -0.8660 -1.0509
  181MOL0     H24376   9.596   1.492   4.783 -3.6916 -0.6068 -2.0208
  181MOL0     H24377   9.741   1.437   4.703  2.2306  1.7368 -0.3429
  181MOL0     H24378   9.805   1.661   4.634  1.2098 -0.4607  0.2895
  181MOL0     H24379   9.661   1.729   4.710  1.0011 -1.0152 -3.0496
  181MOL0     H24380   9.746   1.634   4.930  0.8594 -0.5956  0.9118
  181MOL0     H24381   9.894   1.603   4.840  2.6016  3.7664 -1.2124
  181MOL0     H24382   9.782   1.878   4.832 -1.2398 -0.7199  0.0786
  181MOL0     H24383   9.927   1.831   4.776  0.3015 -0.1697  0.6181
  181MOL0     H24384   9.868   1.932   5.036 -0.1562  0.6582 -2.9258
  181MOL0     H24385   9.886   1.746   5.060 -1.3177 -0.3078 -1.0303
  181MOL0     H24386  10.121   1.641   4.952 -0.1575 -0.9202  3.1486
  181MOL0     H24387  10.418   1.670   4.996 -0.9612  1.3273  0.8529
  181MOL0     H24388  10.365   1.661   4.836  2.4027 -0.3380 -0.4481
  181MOL0     H24389  10.571   1.765   4.795  1.2034  1.8368  0.1661
  181MOL0     H24390  10.465   1.905   4.797 -1.5917 -0.2451  1.1894
  181MOL0     H24391  10.636   1.814   5.041 -3.1302  0.3015  2.1090
  181MOL0     H24392  10.525   1.958   5.025  0.8398  1.3855  0.8235
  181MOL0     H24393  10.655   2.071   4.899  0.7011  0.1656 -0.1390
  181MOL0     H24394  10.730   1.937   4.816 -2.0523 -1.1777 -0.5136
  181MOL0     H24395  10.841   2.150   4.763 -0.4621 -1.5379  0.4211
  181MOL0     H24396  11.033   2.271   4.715  0.9808 -2.2843 -1.0866
  181MOL0     H24397  11.564   2.276   4.785 -0.0403 -0.0417 -0.0476
  181MOL0     H24398  11.733   2.436   4.721 -2.4554  1.1406 -3.5771
  181MOL0     H24399  11.723   2.861   4.776 -1.1285 -2.0064 -2.1047
  181MOL0     H24400  11.743   2.821   4.951  0.6503 -2.3327 -0.3790
  181MOL0     H24401  11.956   2.817   4.727  0.7858  1.9483 -1.1334
  181MOL0     H24402  11.927   2.964   4.806 -0.5449 -0.6005 -1.0079
  181MOL0     H24403  11.963   2.855   5.035 -1.0855  0.5049 -0.3524
  181MOL0     H24404  12.035   2.716   4.932 -0.9228  0.9790 -2.4198
  181MOL0     H24405  12.143   2.988   4.932  2.5703 -0.1289 -0.8748
  181MOL0     H24406  12.197   2.842   4.839 -0.5434 -0.3222 -0.4224
  181MOL0     H24407  12.249   2.734   5.057  1.0878  0.4283  2.7435
  181MOL0     H24408  12.204   2.859   5.148 -1.3916 -4.0115  0.0066
  181MOL0     H24409  12.365   3.023   5.075  0.4819 -0.8697  1.9892
  181MOL0     H24410  12.447   2.864   5.110 -1.1399 -0.0001  1.4573
  181MOL0     H24411  12.370   2.971   4.825 -3.3719 -1.6328  0.2610
  181MOL0     H24412  12.452   2.823   4.858  0.8095  0.9601 -2.2172
  181MOL0     H24413  12.569   3.094   4.949 -1.0575 -0.1570 -0.1637
  181MOL0     H24414  12.644   2.943   4.977 -0.5154 -0.2189  0.3770
  181MOL0     H24415  11.566   2.725   4.991  2.8707 -1.0321  1.7982
  181MOL0     H24416  11.397   2.564   5.038 -0.7037  1.7932 -1.8707
  181MOL0     H24417  11.214   2.173   5.091 -2.4697 -0.8442  2.4131
  181MOL0     H24418  11.031   2.040   5.144  1.0395  3.0304  1.6095
  181MOL0     H24419   9.198   1.113   4.466  0.8199 -1.5818  0.7288
  181MOL0     H24420   8.934   1.110   4.460 -1.5662 -0.8081  1.4968
  181MOL0     H24421   8.594   1.303   4.303  0.8442 -0.7650  0.5167
  181MOL0     H24422   8.353   1.291   4.248  1.9589 -1.1646  0.0326
  181MOL0     H24423   8.044   1.260   4.576 -0.1917  2.2040 -2.1819
  181MOL0     H24424   8.084   1.094   4.522  1.3875  0.5477  1.7754
  181MOL0     H24425   7.896   1.278   4.374 -0.3220 -0.9494 -0.8101
  181MOL0     H24426   7.839   1.136   4.473 -2.1443  1.1268 -1.8777
  181MOL0     H24427   8.020   1.086   4.239  2.1949 -2.7804  1.9611
  181MOL0     H24428   7.851   1.112   4.224  2.8677  0.0685 -2.0736
  181MOL0     H24429   8.007   0.893   4.377 -0.7205 -2.9733 -0.7148
  181MOL0     H24430   7.836   0.933   4.428 -0.0704  1.0533  0.1033
  181MOL0     H24431   7.721   0.796   4.065  1.9620 -1.8619 -2.6482
  181MOL0     H24432   8.271   1.172   4.654 -0.5650  1.8729  0.0325
  181MOL0     H24433   8.540   1.093   4.774  1.7534 -0.8025 -2.3940
  181MOL0     H24434   8.596   1.266   4.785  1.3290 -0.4566 -2.2025
  181MOL0     H24435   8.428   1.218   4.819 -0.5126 -0.7584  0.5727
  182MOL0     O24436   2.163   9.832   5.213 -0.1170  0.6421 -0.3344
  182MOL0     C24437   2.155   9.936   5.153 -0.0660 -0.0677  1.2264
  182MOL0     O24438   2.048  10.026   5.152 -0.3084 -0.4238 -0.2068
  182MOL0     C24439   1.961  10.028   5.256  0.0785  0.1309 -0.6044
  182MOL0     C24440   1.845   9.950   5.251 -0.2118 -0.7290 -0.2872
  182MOL0     C24441   1.751   9.960   5.356  0.0517  0.4312 -0.4802
  182MOL0     C24442   1.777  10.031   5.476 -1.0026  0.3053  1.0259
  182MOL0     O24443   1.676  10.033   5.572  0.0236 -0.1629 -0.6272
  182MOL0     C24444   1.692  10.083   5.712 -0.2800  0.2812 -0.0019
  182MOL0     C24445   1.742   9.969   5.801  0.2202 -0.0081  0.3986
  182MOL0     C24446   1.752  10.004   5.941 -0.2151  0.8461 -0.3992
  182MOL0     C24447   1.865  10.096   5.978 -0.4233 -0.5444 -0.1735
  182MOL0     C24448   1.861  10.121   6.129 -0.6151 -0.1489  0.0076
  182MOL0     C24449   1.975  10.211   6.176  0.5040 -0.3441 -0.2349
  182MOL0     C24450   2.113  10.142   6.177 -0.4249 -0.9966  0.1374
  182MOL0     C24451   2.224  10.238   6.234 -0.4230  0.4941 -0.7771
  182MOL0     N24452   2.368  10.231   6.195  0.2780  0.7421 -0.5181
  182MOL0     C24453   2.398  10.265   6.068 -0.4468 -0.9433  0.1418
  182MOL0     C24454   2.535  10.284   6.068 -0.1450 -0.7825  0.2911
  182MOL0     C24455   2.599  10.334   5.940  0.3117 -0.1982 -0.1997
  182MOL0     C24456   2.698  10.447   5.967  0.3443  0.0204 -0.2467
  182MOL0     C24457   2.766  10.499   5.838 -0.1835 -0.7563 -0.7705
  182MOL0     C24458   2.910  10.552   5.865  0.6727  0.5362 -0.7780
  182MOL0     O24459   2.937  10.639   5.754  0.2108  0.4899 -0.3894
  182MOL0     C24460   3.064  10.701   5.749  0.2785 -0.1695  0.3990
  182MOL0     C24461   3.174  10.670   5.836 -0.1511 -0.3370  0.3672
  182MOL0     C24462   3.294  10.733   5.821  0.6986 -0.3646 -0.9063
  182MOL0     C24463   3.320  10.819   5.716 -0.4749  0.9129  0.4288
  182MOL0     C24464   3.449  10.886   5.697  0.3023  0.5207  0.4472
  182MOL0     O24465   3.466  10.977   5.596 -0.1474  0.7402  0.1379
  182MOL0     C24466   3.583  11.045   5.593  0.6179  0.7813  0.3988
  182MOL0     C24467   3.681  11.023   5.485  0.0348  0.2032  0.7669
  182MOL0     C24468   3.816  11.071   5.492  0.0416  0.7663 -0.2764
  182MOL0     C24469   3.857  11.137   5.604  0.0906  0.1403 -0.0434
  182MOL0     O24470   3.988  11.176   5.613  0.2029 -0.2662 -0.8874
  182MOL0     C24471   4.066  11.105   5.706 -0.2414 -0.5505 -0.4079
  182MOL0     C24472   4.196  11.182   5.726  0.2193 -0.5068  0.2369
  182MOL0     C24473   4.314  11.118   5.799 -0.5865  0.5649 -0.2462
  182MOL0     C24474   4.400  11.063   5.691  0.4817  0.9182  0.0963
  182MOL0     C24475   4.524  10.998   5.758  0.0443  0.6347  0.6543
  182MOL0     C24476   4.610  10.948   5.638 -0.1124 -0.0918  0.0742
  182MOL0     C24477   4.561  10.818   5.565 -0.1160 -0.6076 -0.7110
  182MOL0     C24478   4.677  10.747   5.495  0.3940 -0.1627  0.0218
  182MOL0    Cl24479   4.758  10.854   5.376  0.3524 -0.0043  0.7758
  182MOL0     C24480   3.761  11.157   5.711  0.1428 -0.2997 -0.2389
  182MOL0     C24481   3.628  11.116   5.703  1.0786  0.2204  0.5039
  182MOL0     O24482   3.527  10.858   5.782 -0.3124  0.5236  0.3736
  182MOL0     C24483   3.215  10.851   5.629 -0.5767  0.3601 -0.6002
  182MOL0     C24484   3.091  10.787   5.641  0.5977 -0.6144  0.2285
  182MOL0     N24485   2.580  10.259   6.199  0.1822  0.7903  0.0306
  182MOL0     N24486   2.473  10.243   6.278 -0.4663 -0.4067 -0.1746
  182MOL0     C24487   1.898  10.095   5.482  0.0520 -0.1104 -0.4412
  182MOL0     C24488   1.984  10.108   5.370 -0.4928 -0.1971  0.5252
  182MOL0     C24489   2.267   9.968   5.055  0.2426 -0.5248 -0.3765
  182MOL0     C24490   2.227  10.041   4.938 -0.0289 -0.2357 -0.4249
  182MOL0     C24491   2.313  10.091   4.848 -0.4582  0.6005  0.1887
  182MOL0     C24492   2.451  10.065   4.867  0.1406  0.1498 -0.4289
  182MOL0     O24493   2.551  10.118   4.784 -0.2774  0.6273  0.0931
  182MOL0     C24494   2.518  10.183   4.659  0.6958  0.5724 -0.5474
  182MOL0     C24495   2.649  10.193   4.583 -0.7242 -0.0303 -0.0051
  182MOL0     C24496   2.769  10.257   4.656 -0.5080  0.3992  0.0357
  182MOL0     C24497   2.734  10.363   4.756 -0.3203 -0.2127  1.0081
  182MOL0     C24498   2.850  10.430   4.812  0.0517  0.4710 -0.3009
  182MOL0     C24499   2.941  10.501   4.861 -0.3095  0.5064 -0.3876
  182MOL0     C24500   2.493   9.992   4.976  0.5659  0.2048  0.8557
  182MOL0     C24501   2.408   9.941   5.072 -0.5726  0.4514 -0.3222
  182MOL0     C24502   2.466   9.859   5.182  0.1898  0.7530  0.1187
  182MOL0     H24503   1.824   9.895   5.160  1.7652  1.6201 -2.3201
  182MOL0     H24504   1.656   9.908   5.361  0.7456 -0.7676  1.3112
  182MOL0     H24505   1.756  10.171   5.715  2.6727 -1.7129  3.5725
  182MOL0     H24506   1.588  10.106   5.737 -0.5622 -0.5540 -0.3629
  182MOL0     H24507   1.838   9.932   5.764  0.5412  1.3877 -0.2077
  182MOL0     H24508   1.659   9.897   5.800 -0.1673  0.1963  4.4600
  182MOL0     H24509   1.756   9.913   6.002 -3.4433 -0.1598 -1.4810
  182MOL0     H24510   1.656  10.053   5.961 -1.5822 -1.3670 -1.2136
  182MOL0     H24511   1.963  10.063   5.943 -0.5269 -2.0606  0.8478
  182MOL0     H24512   1.859  10.192   5.926  2.8204 -0.8343 -1.2979
  182MOL0     H24513   1.763  10.157   6.163 -0.8187 -0.9920  0.3459
  182MOL0     H24514   1.861  10.025   6.181 -1.6116  0.5718  1.3902
  182MOL0     H24515   1.973  10.305   6.119  0.6555 -1.0831 -1.5041
  182MOL0     H24516   1.950  10.229   6.281  0.7666 -1.0464 -0.0463
  182MOL0     H24517   2.143  10.104   6.079  0.0954  2.1451 -1.0500
  182MOL0     H24518   2.099  10.056   6.242  0.5632  1.0348  3.2475
  182MOL0     H24519   2.202  10.344   6.223  1.0646  1.1798  2.0750
  182MOL0     H24520   2.223  10.227   6.343  0.5089 -1.9239 -0.9379
  182MOL0     H24521   2.328  10.285   5.988 -0.2606 -0.0352  0.1934
  182MOL0     H24522   2.662  10.252   5.904  1.0463 -1.5899  3.6845
  182MOL0     H24523   2.527  10.374   5.869  1.8142 -0.4172 -1.9257
  182MOL0     H24524   2.654  10.531   6.021  0.0600  0.5107 -1.2264
  182MOL0     H24525   2.774  10.407   6.035 -2.9609  0.9924  4.4952
  182MOL0     H24526   2.707  10.586   5.808 -0.6090 -0.9461 -0.5023
  182MOL0     H24527   2.766  10.429   5.754 -0.8068 -1.2787 -0.3418
  182MOL0     H24528   2.975  10.463   5.871 -0.2091 -0.0110  2.4367
  182MOL0     H24529   2.915  10.607   5.959 -1.8297  1.5282 -1.1572
  182MOL0     H24530   3.161  10.598   5.916 -2.0531 -2.8743 -2.0390
  182MOL0     H24531   3.380  10.709   5.882 -1.0271 -0.5312  1.6040
  182MOL0     H24532   3.649  10.972   5.395 -1.3508  2.3287 -0.0117
  182MOL0     H24533   3.894  11.052   5.419  0.5091 -2.7795  0.9431
  182MOL0     H24534   4.022  11.098   5.806 -0.9360  0.4974 -0.6187
  182MOL0     H24535   4.087  11.003   5.672 -0.9883 -0.5480 -0.9057
  182MOL0     H24536   4.220  11.207   5.622  5.2471 -2.2257  0.7116
  182MOL0     H24537   4.168  11.272   5.782 -0.9854 -1.0636  0.5610
  182MOL0     H24538   4.373  11.191   5.855 -3.7007  1.5849  1.9456
  182MOL0     H24539   4.285  11.045   5.875  1.4681 -0.2230 -0.1531
  182MOL0     H24540   4.430  11.144   5.623  1.0434  1.8038  1.3480
  182MOL0     H24541   4.359  10.987   5.625 -0.5341  3.2039 -2.0763
  182MOL0     H24542   4.479  10.931   5.832 -0.6422 -0.5597 -0.8006
  182MOL0     H24543   4.578  11.078   5.810  1.0340  0.4988 -0.1365
  182MOL0     H24544   4.613  11.024   5.560 -0.6782 -1.2696 -1.1325
  182MOL0     H24545   4.711  10.930   5.677 -0.1413  1.2552  0.8312
  182MOL0     H24546   4.477  10.831   5.496  0.0482 -0.3817 -0.8701
  182MOL0     H24547   4.529  10.750   5.645  2.1889 -2.5476 -1.3265
  182MOL0     H24548   4.752  10.720   5.570  0.9529 -0.0824 -0.5047
  182MOL0     H24549   4.635  10.661   5.441  1.3077 -1.7745  1.7561
  182MOL0     H24550   3.784  11.206   5.806  1.1988 -1.1105 -0.0647
  182MOL0     H24551   3.562  11.122   5.789  0.2636  0.6782 -0.1443
  182MOL0     H24552   3.231  10.918   5.545  0.7689  0.5183 -0.2424
  182MOL0     H24553   3.015  10.815   5.569  1.0612  0.4213  0.1216
  182MOL0     H24554   1.937  10.137   5.575 -1.9722  2.3657 -0.5927
  182MOL0     H24555   2.076  10.167   5.375  0.6024 -1.8609  0.7957
  182MOL0     H24556   2.120  10.060   4.933 -0.0231 -0.3062 -0.9127
  182MOL0     H24557   2.268  10.145   4.766  0.9569  2.2832  0.4606
  182MOL0     H24558   2.478  10.283   4.677  0.7549  0.4821  0.0993
  182MOL0     H24559   2.437  10.131   4.607 -1.7159  0.6567  2.8342
  182MOL0     H24560   2.635  10.264   4.501 -3.7908  1.1390  1.3788
  182MOL0     H24561   2.674  10.092   4.551  2.1691  0.9519 -1.2165
  182MOL0     H24562   2.839  10.293   4.580  1.7983 -1.0480  1.3613
  182MOL0     H24563   2.820  10.176   4.709  1.0250  2.3130  1.6163
  182MOL0     H24564   2.660  10.429   4.711 -0.0369 -0.9540 -0.5991
  182MOL0     H24565   2.686  10.323   4.846 -0.2327  1.2543  1.7312
  182MOL0     H24566   3.014  10.559   4.915 -0.3409 -1.6314  2.1321
  182MOL0     H24567   2.600   9.974   4.983  0.6706  0.5813  0.2994
  182MOL0     H24568   2.573   9.845   5.165 -0.2117 -1.1667 -1.1084
  182MOL0     H24569   2.453   9.912   5.277 -0.5169 -1.7269  1.5031
  182MOL0     H24570   2.421   9.760   5.200 -1.2806  1.3494 -0.1481
  183MOL0     O24571   9.622   3.586   0.950  0.5049  0.1179 -0.0521
  183MOL0     C24572   9.607   3.540   0.837 -0.0302  0.2255  0.5576
  183MOL0     O24573   9.682   3.573   0.724 -0.3179 -0.0713 -0.0354
  183MOL0     C24574   9.791   3.663   0.729  0.1945 -0.0791  0.1556
  183MOL0     C24575   9.894   3.651   0.830  0.1282 -0.4372  0.9664
  183MOL0     C24576  10.004   3.738   0.826  0.2020  0.3348  0.1742
  183MOL0     C24577  10.009   3.840   0.723 -0.0509  0.2996  0.0017
  183MOL0     O24578  10.116   3.930   0.712  0.8513 -0.0892  0.0689
  183MOL0     C24579  10.216   3.950   0.814 -0.8027 -0.0066  0.7507
  183MOL0     C24580  10.286   4.089   0.783 -0.2805  0.6261 -0.1658
  183MOL0     C24581  10.376   4.133   0.905 -0.0357  0.0956 -0.5236
  183MOL0     C24582  10.398   4.286   0.913  0.4953  0.4485  0.4457
  183MOL0     C24583  10.493   4.326   1.031  0.4702 -0.9133  0.5585
  183MOL0     C24584  10.505   4.480   1.024 -0.2817 -0.0313 -0.4420
  183MOL0     C24585  10.610   4.531   1.125  0.3256  0.3592 -0.2281
  183MOL0     C24586  10.750   4.518   1.056 -0.3881 -0.5209  0.6353
  183MOL0     N24587  10.854   4.588   1.118 -1.0232 -0.5086 -0.6322
  183MOL0     C24588  10.858   4.616   1.251 -0.4553  0.5975 -0.1074
  183MOL0     C24589  10.974   4.676   1.275  0.0191 -0.3356  0.0801
  183MOL0     C24590  11.014   4.728   1.409 -0.0166  0.6601  0.0674
  183MOL0     C24591  11.130   4.643   1.452 -0.2847  0.0086 -0.6521
  183MOL0     C24592  11.203   4.696   1.574 -0.2753  0.2422 -0.7536
  183MOL0     C24593  11.322   4.604   1.620  0.0536 -0.6930 -0.0393
  183MOL0     O24594  11.384   4.661   1.736  0.4801 -0.1042 -0.1986
  183MOL0     C24595  11.455   4.579   1.823  0.4871 -0.0994  0.1446
  183MOL0     C24596  11.492   4.448   1.794 -0.0071  0.3436 -0.2993
  183MOL0     C24597  11.573   4.372   1.873  0.3440 -0.2899 -0.9985
  183MOL0     C24598  11.622   4.425   1.993 -0.7434 -0.2194 -0.4369
  183MOL0     C24599  11.698   4.355   2.099 -0.0530  0.8385 -0.7625
  183MOL0     O24600  11.736   4.227   2.076  0.1769 -0.0890  0.4032
  183MOL0     C24601  11.811   4.158   2.166  0.7922  0.1229 -0.2412
  183MOL0     C24602  11.753   4.086   2.271 -0.1768 -0.0502  0.1613
  183MOL0     C24603  11.826   3.999   2.347 -0.4123 -0.3109  0.2797
  183MOL0     C24604  11.962   3.990   2.325 -0.0214 -0.5648 -0.7068
  183MOL0     O24605  12.022   3.895   2.406 -0.0824 -0.1334 -0.2573
  183MOL0     C24606  12.149   3.838   2.379  0.1396  0.0384  0.1487
  183MOL0     C24607  12.126   3.723   2.272  0.3322 -0.7404  0.2418
  183MOL0     C24608  12.256   3.671   2.198  0.4907 -0.4207  0.4049
  183MOL0     C24609  12.382   3.643   2.293  0.2298 -0.6218  0.9322
  183MOL0     C24610  12.493   3.573   2.211 -0.1709 -0.7489  0.2173
  183MOL0     C24611  12.549   3.639   2.081  0.0867 -0.2926 -0.0186
  183MOL0     C24612  12.624   3.768   2.104 -1.3330 -0.2980  0.0961
  183MOL0     C24613  12.766   3.748   2.169 -0.0644 -0.3266  0.5199
  183MOL0    Cl24614  12.876   3.630   2.082 -0.1511 -0.1238  0.3246
  183MOL0     C24615  12.030   4.057   2.220  0.0917  0.1247  0.6385
  183MOL0     C24616  11.945   4.140   2.145  0.0892  0.4936  0.3378
  183MOL0     O24617  11.717   4.409   2.206  0.4302  0.1648  0.0979
  183MOL0     C24618  11.582   4.558   2.022  1.6297  0.7340  0.3384
  183MOL0     C24619  11.495   4.631   1.943 -0.8224  0.2716 -0.0849
  183MOL0     N24620  11.041   4.683   1.160 -0.6518  1.0509 -0.1195
  183MOL0     N24621  10.967   4.642   1.064  0.6837  0.1587  0.1829
  183MOL0     C24622   9.904   3.847   0.627 -0.4765  0.3675  0.1522
  183MOL0     C24623   9.801   3.759   0.632 -0.0872 -0.1804  0.6339
  183MOL0     C24624   9.492   3.443   0.825 -0.0722  0.3925 -0.9622
  183MOL0     C24625   9.459   3.361   0.941  0.1849  0.0198 -0.1111
  183MOL0     C24626   9.348   3.283   0.950 -0.2920  0.7091  0.4731
  183MOL0     C24627   9.263   3.273   0.836 -0.4084 -0.4040  0.1754
  183MOL0     O24628   9.150   3.204   0.828 -0.3380  0.3701 -0.5581
  183MOL0     C24629   9.118   3.095   0.916 -0.1218 -0.0192  0.3891
  183MOL0     C24630   9.036   3.131   1.043  0.0672 -0.3492 -0.1679
  183MOL0     C24631   8.978   3.014   1.121  0.4876 -0.5597  0.1555
  183MOL0     C24632   9.065   2.970   1.234 -0.2655 -0.3454  0.2015
  183MOL0     C24633   9.199   2.912   1.201 -0.3206  0.8884  1.5060
  183MOL0     C24634   9.306   2.859   1.168  0.5089  0.0009  0.0021
  183MOL0     C24635   9.291   3.345   0.722  0.1758  0.2843 -0.0112
  183MOL0     C24636   9.404   3.436   0.720  1.5259 -0.3504  0.7931
  183MOL0     C24637   9.429   3.498   0.589 -0.6096 -0.0318 -0.4149
  183MOL0     H24638   9.887   3.574   0.906 -0.6600  0.6001  1.9801
  183MOL0     H24639  10.093   3.721   0.886  1.0136  1.3485 -0.6902
  183MOL0     H24640  10.178   3.945   0.917  2.7670 -1.2502  2.1812
  183MOL0     H24641  10.298   3.878   0.818 -1.2826 -0.7824 -1.9314
  183MOL0     H24642  10.206   4.163   0.769 -1.5430 -0.1233  2.4250
  183MOL0     H24643  10.337   4.086   0.686  1.0205 -0.3921  0.5233
  183MOL0     H24644  10.476   4.087   0.900  0.3351  0.9930 -3.3734
  183MOL0     H24645  10.324   4.108   0.998  0.1908  2.3800  0.2807
  183MOL0     H24646  10.447   4.323   0.822  1.8130  0.3970  1.0985
  183MOL0     H24647  10.303   4.339   0.919 -0.4390 -1.0605 -0.5354
  183MOL0     H24648  10.458   4.293   1.129 -0.1899  0.5290  0.8353
  183MOL0     H24649  10.593   4.284   1.013  0.5471 -0.0441 -1.2561
  183MOL0     H24650  10.529   4.521   0.926  2.5033 -0.9798 -0.2521
  183MOL0     H24651  10.405   4.521   1.039  0.6705  2.8857 -1.4462
  183MOL0     H24652  10.602   4.478   1.220  0.4530 -0.4951 -0.6794
  183MOL0     H24653  10.584   4.636   1.138  1.8323  1.2231 -3.3199
  183MOL0     H24654  10.786   4.415   1.046  1.8504  0.3844 -1.6547
  183MOL0     H24655  10.757   4.559   0.955  1.1584 -2.0807  0.0529
  183MOL0     H24656  10.783   4.598   1.326 -0.5374  2.8324  0.4222
  183MOL0     H24657  11.044   4.833   1.402  1.4679  0.2744  0.2457
  183MOL0     H24658  10.932   4.707   1.478  1.6350 -1.3986  1.5515
  183MOL0     H24659  11.099   4.539   1.466 -0.1530 -0.3278 -2.5418
  183MOL0     H24660  11.205   4.640   1.372  1.2180 -1.1178  0.7312
  183MOL0     H24661  11.132   4.703   1.657 -0.0291 -0.1192 -0.5096
  183MOL0     H24662  11.243   4.796   1.552 -1.4720  1.3072  1.5948
  183MOL0     H24663  11.391   4.596   1.536  0.0005 -2.9178  0.0631
  183MOL0     H24664  11.278   4.505   1.633 -2.8401  0.1723 -2.0946
  183MOL0     H24665  11.453   4.408   1.701  1.8475 -2.3283 -0.0451
  183MOL0     H24666  11.612   4.274   1.847 -1.3785 -1.3425  0.1575
  183MOL0     H24667  11.646   4.095   2.288  0.0103 -0.5214  1.7259
  183MOL0     H24668  11.785   3.942   2.430  3.4447 -1.8124  1.3791
  183MOL0     H24669  12.216   3.912   2.333  0.6783 -0.3372  0.3310
  183MOL0     H24670  12.196   3.803   2.471 -0.5030 -1.5367 -0.1056
  183MOL0     H24671  12.088   3.638   2.329  0.9643 -0.1457  1.5795
  183MOL0     H24672  12.059   3.753   2.191  0.9997 -2.8841 -1.2061
  183MOL0     H24673  12.226   3.587   2.136  0.3399 -0.0101 -0.0843
  183MOL0     H24674  12.276   3.748   2.122  3.1524  1.3886  2.7029
  183MOL0     H24675  12.347   3.583   2.378 -1.2735 -2.1272 -0.6753
  183MOL0     H24676  12.416   3.740   2.330  1.7240 -0.5014 -0.6285
  183MOL0     H24677  12.458   3.474   2.182  4.3063 -3.5921  3.3262
  183MOL0     H24678  12.580   3.558   2.274 -0.1161  0.6926  0.5196
  183MOL0     H24679  12.607   3.565   2.025  0.8239 -0.8329  1.4170
  183MOL0     H24680  12.462   3.658   2.018  0.0796  1.7500  0.5344
  183MOL0     H24681  12.560   3.827   2.170 -2.6933 -1.4475 -0.1612
  183MOL0     H24682  12.627   3.819   2.007  0.6643  3.0900  1.7595
  183MOL0     H24683  12.822   3.842   2.167  0.7093 -0.7732 -1.9857
  183MOL0     H24684  12.761   3.715   2.273 -1.8465 -0.5439  0.4050
  183MOL0     H24685  12.135   4.049   2.195 -0.2382 -0.0111 -0.7413
  183MOL0     H24686  11.975   4.182   2.050 -0.2991 -1.5952 -0.7674
  183MOL0     H24687  11.607   4.602   2.118  1.0797 -0.3565  1.0020
  183MOL0     H24688  11.460   4.730   1.971 -0.8595  0.3763 -0.4966
  183MOL0     H24689   9.906   3.910   0.539  1.4261  1.5451  0.9903
  183MOL0     H24690   9.724   3.770   0.557  0.0998 -0.0394  0.4604
  183MOL0     H24691   9.525   3.362   1.027  1.1814 -2.9112 -0.7231
  183MOL0     H24692   9.336   3.241   1.049 -0.1976  0.4693  0.3839
  183MOL0     H24693   9.208   3.038   0.937  1.3630  2.2337  0.4846
  183MOL0     H24694   9.055   3.028   0.857  1.0867 -2.8167  2.0384
  183MOL0     H24695   8.941   3.178   1.015 -1.9575 -2.4130  2.7078
  183MOL0     H24696   9.085   3.206   1.105 -1.1329  1.8825 -1.7513
  183MOL0     H24697   8.951   2.928   1.059 -0.5700 -0.6673  0.7317
  183MOL0     H24698   8.878   3.037   1.161  0.2498 -1.3293  0.0247
  183MOL0     H24699   9.081   3.061   1.292  0.5159  0.8418 -1.7645
  183MOL0     H24700   9.002   2.898   1.287  0.3059 -1.8561 -1.0566
  183MOL0     H24701   9.392   2.804   1.136  0.3557 -0.0907 -0.2547
  183MOL0     H24702   9.238   3.322   0.630 -1.1817  0.0299  0.8224
  183MOL0     H24703   9.510   3.443   0.541 -0.7932 -0.1019 -0.6430
  183MOL0     H24704   9.344   3.485   0.522 -0.8741 -1.8048  0.2168
  183MOL0     H24705   9.456   3.605   0.591 -0.8209  0.0399 -1.2138
  184MOL0     O24706   6.760   6.124   0.859  0.6164 -0.1859 -0.0912
  184MOL0     C24707   6.752   6.238   0.905 -0.0332  0.0411 -0.0949
  184MOL0     O24708   6.860   6.322   0.948 -0.0482  0.6943  0.3568
  184MOL0     C24709   6.986   6.275   0.934  0.3857  0.5445  0.2615
  184MOL0     C24710   7.072   6.285   1.039 -0.3047  0.7643 -0.0345
  184MOL0     C24711   7.212   6.248   1.031  0.2664 -1.0110 -0.0077
  184MOL0     C24712   7.256   6.185   0.911 -0.3858  0.4882 -0.6249
  184MOL0     O24713   7.375   6.117   0.902  0.4416 -1.1016 -0.4999
  184MOL0     C24714   7.465   6.139   0.794  0.8145 -0.6438 -0.3100
  184MOL0     C24715   7.580   6.038   0.797  0.2140 -0.2886 -0.9691
  184MOL0     C24716   7.709   6.061   0.732  0.5336 -0.1474  0.5353
  184MOL0     C24717   7.693   6.039   0.578  0.1066  0.8749 -0.3575
  184MOL0     C24718   7.819   6.060   0.498 -0.0033 -0.4975  0.5472
  184MOL0     C24719   7.936   5.974   0.538 -0.7686  0.1443  0.1201
  184MOL0     C24720   8.060   5.986   0.437 -0.4988  0.1719  0.7686
  184MOL0     C24721   8.096   6.131   0.400 -0.0057 -0.4287 -0.0707
  184MOL0     N24722   8.148   6.199   0.515 -0.5352 -1.0880  0.1849
  184MOL0     C24723   8.266   6.177   0.574 -0.5112  0.2913  1.2175
  184MOL0     C24724   8.263   6.263   0.679  0.2353  0.8817  0.2415
  184MOL0     C24725   8.382   6.268   0.766 -0.3823 -0.2627  0.2658
  184MOL0     C24726   8.481   6.377   0.728 -0.9707 -0.3654 -1.1488
  184MOL0     C24727   8.570   6.415   0.835  0.5461  0.0205  0.0694
  184MOL0     C24728   8.654   6.530   0.779 -0.4943  0.3394  0.3466
  184MOL0     O24729   8.725   6.593   0.885 -0.0442  0.2102  0.1598
  184MOL0     C24730   8.798   6.710   0.860 -0.6807  0.2657 -0.3871
  184MOL0     C24731   8.814   6.780   0.737  0.5912  0.7595 -0.6420
  184MOL0     C24732   8.885   6.896   0.744  0.5977  0.3846  0.0476
  184MOL0     C24733   8.939   6.955   0.866  0.2525  0.3336 -0.2210
  184MOL0     C24734   9.020   7.076   0.861 -0.1743 -0.2603 -0.4795
  184MOL0     O24735   9.083   7.104   0.748 -0.0778 -0.1816  0.1106
  184MOL0     C24736   9.183   7.202   0.763 -0.2305 -0.9284 -0.3474
  184MOL0     C24737   9.165   7.338   0.736 -0.0444  0.1523  0.9906
  184MOL0     C24738   9.276   7.424   0.746  0.0511 -0.0314  0.2561
  184MOL0     C24739   9.405   7.374   0.774  0.4575 -0.0542 -0.5302
  184MOL0     O24740   9.521   7.449   0.773  0.2990  0.2472  0.2134
  184MOL0     C24741   9.521   7.591   0.769  0.5036  0.5504  0.2268
  184MOL0     C24742   9.527   7.649   0.627  0.3504 -0.2682 -0.1096
  184MOL0     C24743   9.511   7.810   0.622  0.7991 -0.7972 -0.4110
  184MOL0     C24744   9.632   7.870   0.557  0.1521 -0.1815  0.4713
  184MOL0     C24745   9.624   8.018   0.573  0.5142  0.8367  0.1871
  184MOL0     C24746   9.748   8.078   0.522  0.7131  0.3030  0.8732
  184MOL0     C24747   9.737   8.233   0.521  0.1854  0.0092 -0.1835
  184MOL0     C24748   9.855   8.320   0.491 -0.5014  1.1559  0.0395
  184MOL0    Cl24749   9.939   8.283   0.331  0.2983 -0.4735 -0.1611
  184MOL0     C24750   9.421   7.233   0.798  0.6159 -0.1176  0.2850
  184MOL0     C24751   9.304   7.151   0.793 -0.0929  0.6363  0.3879
  184MOL0     O24752   9.008   7.146   0.960  0.2373  0.2891 -0.4243
  184MOL0     C24753   8.919   6.887   0.984  0.7237  0.2083 -0.9413
  184MOL0     C24754   8.850   6.762   0.976  0.5885 -0.1970 -0.7292
  184MOL0     N24755   8.149   6.340   0.689 -0.2820 -0.0214 -0.3687
  184MOL0     N24756   8.073   6.293   0.592  0.3286 -0.8256 -0.3206
  184MOL0     C24757   7.163   6.164   0.807  0.0640  0.1234 -0.4040
  184MOL0     C24758   7.030   6.210   0.817 -0.3829  0.3494 -0.1326
  184MOL0     C24759   6.620   6.302   0.939  0.7864 -0.3505 -0.2965
  184MOL0     C24760   6.613   6.437   0.980 -0.4267 -0.7464 -0.7942
  184MOL0     C24761   6.489   6.509   1.002  0.4395 -0.7194 -1.2602
  184MOL0     C24762   6.379   6.434   0.995  0.9657 -0.0371 -0.6210
  184MOL0     O24763   6.253   6.470   1.027  0.4541 -0.7084 -0.6818
  184MOL0     C24764   6.233   6.613   1.054  0.8055  0.3186  0.0572
  184MOL0     C24765   6.095   6.635   1.107  0.1275  0.9061  0.1426
  184MOL0     C24766   6.092   6.628   1.264 -0.5344  0.1902  0.1758
  184MOL0     C24767   5.973   6.691   1.346 -0.0217 -0.0140 -0.0535
  184MOL0     C24768   5.848   6.611   1.323 -0.4398 -0.7031 -0.3690
  184MOL0     C24769   5.745   6.550   1.310 -0.7075 -0.2332  0.1756
  184MOL0     C24770   6.380   6.303   0.954  0.3731  0.0464 -0.1316
  184MOL0     C24771   6.488   6.240   0.908 -0.0627  0.6384 -0.4208
  184MOL0     C24772   6.465   6.112   0.834 -0.6708  0.0364  0.6899
  184MOL0     H24773   7.027   6.327   1.128 -0.9420 -1.7101  0.9008
  184MOL0     H24774   7.273   6.257   1.121 -0.8282  0.1873  0.6530
  184MOL0     H24775   7.417   6.134   0.696 -0.9631 -0.8798  0.5330
  184MOL0     H24776   7.502   6.240   0.812 -2.6515  1.0290 -1.7314
  184MOL0     H24777   7.534   5.950   0.753 -2.9432  0.7531 -0.0286
  184MOL0     H24778   7.593   6.014   0.903 -1.3090 -0.7236 -0.8606
  184MOL0     H24779   7.788   5.996   0.771 -0.0474 -1.1340  0.0968
  184MOL0     H24780   7.746   6.161   0.758 -1.4094  0.6394  0.4018
  184MOL0     H24781   7.651   5.944   0.543 -2.7376  2.3922 -1.4495
  184MOL0     H24782   7.618   6.106   0.533  0.7505  1.1115 -1.0948
  184MOL0     H24783   7.798   6.032   0.394  2.6402 -2.9155  0.5426
  184MOL0     H24784   7.846   6.166   0.510 -0.5213 -0.3061  0.0897
  184MOL0     H24785   7.969   5.988   0.642 -1.1432 -1.7676  0.5298
  184MOL0     H24786   7.909   5.868   0.530 -1.5372  0.1219  2.3122
  184MOL0     H24787   8.028   5.930   0.349  1.0034  0.8748 -0.2581
  184MOL0     H24788   8.145   5.926   0.470  0.3108  1.0718  0.3659
  184MOL0     H24789   8.171   6.131   0.321  1.3412 -0.5076  1.1665
  184MOL0     H24790   8.008   6.176   0.354 -1.7131 -2.3044  1.1463
  184MOL0     H24791   8.350   6.121   0.534 -1.5917 -0.8466  0.4644
  184MOL0     H24792   8.346   6.271   0.869 -1.7981 -1.9964 -0.1396
  184MOL0     H24793   8.431   6.170   0.766 -0.5556 -0.3571  1.4983
  184MOL0     H24794   8.533   6.355   0.635 -0.7048 -3.0527 -0.4658
  184MOL0     H24795   8.426   6.471   0.718  0.3331  0.8903  1.9846
  184MOL0     H24796   8.646   6.341   0.863 -0.6058 -0.4136  2.2342
  184MOL0     H24797   8.520   6.452   0.924  3.0161  0.2656  1.4548
  184MOL0     H24798   8.592   6.607   0.731  0.4252  1.3809  0.7898
  184MOL0     H24799   8.727   6.487   0.710 -0.9974  0.5112 -0.3002
  184MOL0     H24800   8.777   6.755   0.637  1.1513  0.3191 -0.7452
  184MOL0     H24801   8.909   6.942   0.648 -1.1651 -0.0700 -0.6547
  184MOL0     H24802   9.065   7.378   0.724 -0.1400 -0.0342  1.1522
  184MOL0     H24803   9.256   7.529   0.723  1.7022 -0.0234 -1.3806
  184MOL0     H24804   9.435   7.614   0.832  0.8904  0.6449  0.7248
  184MOL0     H24805   9.608   7.639   0.816 -0.4585  2.1845  0.4115
  184MOL0     H24806   9.619   7.609   0.584  0.2405 -1.5487  0.7922
  184MOL0     H24807   9.439   7.608   0.576  0.3264 -0.7700  0.3203
  184MOL0     H24808   9.418   7.827   0.566  0.1324 -0.5883  0.7242
  184MOL0     H24809   9.488   7.842   0.724  2.6553 -1.6054  0.2951
  184MOL0     H24810   9.635   7.842   0.451  2.8938  1.1417  0.0929
  184MOL0     H24811   9.725   7.833   0.603  0.3080  1.0649  1.1917
  184MOL0     H24812   9.616   8.031   0.681  1.9928  2.7950  0.1082
  184MOL0     H24813   9.540   8.052   0.510  1.6868 -2.1718 -3.3849
  184MOL0     H24814   9.834   8.051   0.585  1.5205  1.1433  0.1532
  184MOL0     H24815   9.773   8.045   0.421  1.4492  2.1343  0.4138
  184MOL0     H24816   9.698   8.268   0.617 -1.1594  0.2778 -0.8127
  184MOL0     H24817   9.666   8.258   0.442 -0.3569 -0.4484  0.1518
  184MOL0     H24818   9.826   8.426   0.490 -0.3442  1.2149 -1.3086
  184MOL0     H24819   9.935   8.302   0.563  0.2522  1.3283 -0.7349
  184MOL0     H24820   9.521   7.196   0.813 -0.3918 -3.8018 -0.9341
  184MOL0     H24821   9.310   7.047   0.823  0.1670  0.6414  0.3634
  184MOL0     H24822   8.961   6.918   1.079  2.1890 -2.0918 -0.7676
  184MOL0     H24823   8.837   6.699   1.063 -0.8193 -0.5987 -1.2008
  184MOL0     H24824   7.179   6.106   0.716 -2.2213 -0.9634 -0.1831
  184MOL0     H24825   6.951   6.201   0.743 -1.6224  1.4428  0.9963
  184MOL0     H24826   6.705   6.493   0.985 -0.2072 -0.9672 -1.9770
  184MOL0     H24827   6.487   6.612   1.036 -0.3384 -0.4162 -2.1563
  184MOL0     H24828   6.241   6.683   0.970 -2.3888 -1.1705 -1.6799
  184MOL0     H24829   6.309   6.641   1.128  1.7364 -1.2213 -0.2707
  184MOL0     H24830   6.014   6.576   1.063  0.8912 -2.3022  2.6445
  184MOL0     H24831   6.077   6.741   1.085 -1.0222  1.2541  2.4216
  184MOL0     H24832   6.186   6.666   1.305 -0.2500  2.0240 -1.9977
  184MOL0     H24833   6.094   6.520   1.287  2.8206  0.1725  0.3443
  184MOL0     H24834   5.998   6.690   1.453  0.5315  0.9360 -0.1596
  184MOL0     H24835   5.969   6.793   1.307 -0.6622  0.5998  1.5307
  184MOL0     H24836   5.655   6.499   1.281 -0.2908 -2.4813  2.4496
  184MOL0     H24837   6.287   6.248   0.946  0.7352 -0.4374 -1.4034
  184MOL0     H24838   6.537   6.101   0.752 -2.3626  2.8208 -1.3266
  184MOL0     H24839   6.476   6.029   0.905  0.4341 -2.3284 -2.0195
  184MOL0     H24840   6.363   6.099   0.796 -1.6500  2.1989  2.3297
  185MOL0     O24841  10.596   5.596   8.400  0.6723 -0.2373  0.2476
  185MOL0     C24842  10.538   5.698   8.414 -0.3535 -0.7238  0.0794
  185MOL0     O24843  10.561   5.796   8.503 -0.1085 -0.1929  0.2104
  185MOL0     C24844  10.648   5.779   8.604 -0.2404 -0.5662  0.7051
  185MOL0     C24845  10.784   5.779   8.568 -0.2121  0.6116  0.7925
  185MOL0     C24846  10.889   5.770   8.662  0.7713 -0.2787  0.1697
  185MOL0     C24847  10.856   5.766   8.797 -0.4057 -0.0998  0.4153
  185MOL0     O24848  10.952   5.767   8.898 -0.2390  0.0986  0.1340
  185MOL0     C24849  11.087   5.823   8.884  0.1554 -0.5925 -0.0969
  185MOL0     C24850  11.131   5.846   9.021  0.3262 -0.1656 -0.2517
  185MOL0     C24851  11.275   5.886   9.015  0.3485 -0.3468  0.0977
  185MOL0     C24852  11.334   5.903   9.152  0.5212  1.2402 -1.4758
  185MOL0     C24853  11.475   5.951   9.147  0.1404  0.3100  0.1913
  185MOL0     C24854  11.507   6.098   9.107 -0.2890 -0.4868 -0.3669
  185MOL0     C24855  11.662   6.136   9.138  1.2381  0.8712  0.0085
  185MOL0     C24856  11.682   6.271   9.078  0.1387 -0.4434 -0.9328
  185MOL0     N24857  11.828   6.301   9.064  0.3894  0.9960  0.1775
  185MOL0     C24858  11.911   6.334   9.168  0.9825 -0.2114 -0.3517
  185MOL0     C24859  12.027   6.383   9.115 -0.4597  1.0004  0.0201
  185MOL0     C24860  12.154   6.408   9.199  0.9617  0.4364 -0.6644
  185MOL0     C24861  12.259   6.481   9.115 -0.0595 -0.4923 -0.6129
  185MOL0     C24862  12.378   6.534   9.194  0.2573 -0.3063 -0.2649
  185MOL0     C24863  12.464   6.644   9.121 -0.7853  0.5299 -0.4606
  185MOL0     O24864  12.585   6.689   9.196 -0.2507 -0.2334  0.1492
  185MOL0     C24865  12.713   6.626   9.185 -0.1253 -0.4664 -0.2898
  185MOL0     C24866  12.820   6.689   9.259 -1.1119 -0.0336  0.3261
  185MOL0     C24867  12.950   6.625   9.249  0.3448  0.7110  0.1740
  185MOL0     C24868  12.969   6.501   9.183 -0.8560  0.2446 -0.3632
  185MOL0     C24869  13.102   6.437   9.187  0.3497 -0.5875 -0.8137
  185MOL0     O24870  13.213   6.506   9.239 -0.4106  0.0327  0.0161
  185MOL0     C24871  13.336   6.448   9.225  0.1192  0.1554 -0.2228
  185MOL0     C24872  13.425   6.517   9.138  0.0785  0.7239 -0.3145
  185MOL0     C24873  13.548   6.461   9.111  0.4215 -0.7494 -0.0585
  185MOL0     C24874  13.588   6.340   9.173 -0.0992  0.1840  0.3437
  185MOL0     O24875  13.722   6.300   9.154  0.2811 -0.2919 -0.2191
  185MOL0     C24876  13.782   6.214   9.254  0.2520  0.6628 -0.2219
  185MOL0     C24877  13.933   6.217   9.246  0.3877  0.6259  0.0160
  185MOL0     C24878  13.997   6.121   9.137 -0.9033 -0.5387  0.0957
  185MOL0     C24879  14.141   6.090   9.173 -1.4091 -0.5119  0.0629
  185MOL0     C24880  14.232   6.205   9.171 -0.1207 -0.4936 -1.2597
  185MOL0     C24881  14.367   6.162   9.245 -0.0988  0.6049 -0.3158
  185MOL0     C24882  14.467   6.279   9.231 -0.5531 -0.2266  0.7639
  185MOL0     C24883  14.597   6.237   9.313 -0.8166 -0.0085  0.0531
  185MOL0    Cl24884  14.564   6.219   9.491  0.5937  0.3883 -0.2373
  185MOL0     C24885  13.498   6.274   9.264  0.1334 -0.1625  0.2550
  185MOL0     C24886  13.368   6.331   9.287 -0.4579 -0.9074  0.1315
  185MOL0     O24887  13.104   6.322   9.148 -0.6448 -0.0038  0.3263
  185MOL0     C24888  12.860   6.439   9.122 -0.0685 -0.5865  1.2383
  185MOL0     C24889  12.732   6.497   9.123 -0.2696 -1.0409 -0.0626
  185MOL0     N24890  12.015   6.373   8.973 -0.0667  0.5061  0.3794
  185MOL0     N24891  11.891   6.324   8.948 -0.5754 -0.1178 -0.3458
  185MOL0     C24892  10.722   5.753   8.839 -1.2082  0.2673  0.3956
  185MOL0     C24893  10.622   5.770   8.744  0.8161  0.6984  0.0565
  185MOL0     C24894  10.443   5.715   8.304  0.0635  0.1302  0.6231
  185MOL0     C24895  10.449   5.833   8.238 -0.0782 -0.1990 -0.3043
  185MOL0     C24896  10.365   5.868   8.133 -0.2596 -0.1954  0.4564
  185MOL0     C24897  10.270   5.778   8.092  0.2223 -0.4658 -0.3809
  185MOL0     O24898  10.193   5.832   7.990  0.0376  0.5798 -0.2849
  185MOL0     C24899  10.094   5.750   7.922 -0.4169 -0.2878  0.2699
  185MOL0     C24900   9.975   5.738   8.006 -0.6622 -0.0977  0.0442
  185MOL0     C24901   9.864   5.657   7.950 -0.2878 -1.3230  0.2091
  185MOL0     C24902   9.900   5.503   7.951  0.6036 -0.3735  0.4654
  185MOL0     C24903   9.925   5.454   8.093 -0.2477  1.3497  0.4993
  185MOL0     C24904   9.962   5.403   8.198 -0.1181 -0.1166  0.1321
  185MOL0     C24905  10.265   5.647   8.151 -0.5493 -0.0634  0.1192
  185MOL0     C24906  10.344   5.620   8.257 -0.3744 -0.6478 -1.0438
  185MOL0     C24907  10.318   5.486   8.319 -0.2083  0.2917  0.8684
  185MOL0     H24908  10.809   5.787   8.463 -2.7416 -0.2241  0.0345
  185MOL0     H24909  10.994   5.766   8.637  0.9026 -0.3750  0.7189
  185MOL0     H24910  11.149   5.745   8.839 -0.6933 -0.2552 -1.9441
  185MOL0     H24911  11.086   5.911   8.820 -1.8816 -0.0023  0.6742
  185MOL0     H24912  11.114   5.752   9.074 -1.5895  0.2541 -0.0340
  185MOL0     H24913  11.069   5.929   9.056 -2.4145 -1.3897 -1.8667
  185MOL0     H24914  11.289   5.977   8.956  4.0672 -2.1759 -2.2577
  185MOL0     H24915  11.329   5.814   8.953 -0.9438 -1.0437 -0.2462
  185MOL0     H24916  11.272   5.954   9.226 -1.5570 -2.8201 -0.1191
  185MOL0     H24917  11.339   5.804   9.197  1.8185  2.9397  2.6040
  185MOL0     H24918  11.495   5.942   9.254 -2.1962  1.8444  0.8413
  185MOL0     H24919  11.543   5.888   9.089  2.6062  3.3860 -0.5205
  185MOL0     H24920  11.493   6.117   9.000 -0.7409 -0.8918 -0.3828
  185MOL0     H24921  11.438   6.166   9.157 -1.4862 -2.1362  0.3198
  185MOL0     H24922  11.721   6.065   9.079  1.3868  2.2157 -1.5250
  185MOL0     H24923  11.687   6.132   9.244  0.1184 -1.2601  0.2492
  185MOL0     H24924  11.646   6.262   8.975 -0.4084 -0.0982 -0.7770
  185MOL0     H24925  11.622   6.350   9.124 -0.6223 -0.7848 -1.3255
  185MOL0     H24926  11.882   6.322   9.272 -0.3697 -1.3847 -0.8270
  185MOL0     H24927  12.126   6.458   9.292  2.7342 -3.9601  2.5564
  185MOL0     H24928  12.189   6.310   9.231  0.0998  0.0045 -1.0150
  185MOL0     H24929  12.296   6.407   9.044 -1.3287 -0.5717 -1.2069
  185MOL0     H24930  12.217   6.566   9.060  4.0022  1.5119 -1.0592
  185MOL0     H24931  12.454   6.460   9.219  0.4579 -0.6645 -1.8516
  185MOL0     H24932  12.347   6.567   9.294  2.4760 -0.6487  0.5896
  185MOL0     H24933  12.393   6.726   9.105 -3.1110 -1.5000 -1.2101
  185MOL0     H24934  12.485   6.612   9.018 -1.3115 -2.3952  0.2466
  185MOL0     H24935  12.798   6.783   9.309 -0.5563  0.9517 -1.2228
  185MOL0     H24936  13.033   6.678   9.296 -0.2636  2.6557 -0.8276
  185MOL0     H24937  13.394   6.609   9.089 -0.6620  1.0103  0.6610
  185MOL0     H24938  13.619   6.524   9.059 -0.3552 -0.1340 -0.4025
  185MOL0     H24939  13.756   6.245   9.355  0.6312  1.2210 -0.2870
  185MOL0     H24940  13.755   6.110   9.237 -0.3476  0.6441  0.7858
  185MOL0     H24941  13.969   6.318   9.224  0.0134  0.3467 -2.0576
  185MOL0     H24942  13.971   6.210   9.348  1.5519  0.6014 -0.3990
  185MOL0     H24943  13.945   6.027   9.117 -1.2672 -0.2791 -0.1977
  185MOL0     H24944  13.994   6.177   9.043 -0.0529  1.8403  1.3981
  185MOL0     H24945  14.189   6.022   9.102  2.1063  0.8826  0.9185
  185MOL0     H24946  14.132   6.053   9.275 -2.4453  0.8955  0.5128
  185MOL0     H24947  14.182   6.291   9.215  0.4291 -0.1271 -1.3454
  185MOL0     H24948  14.246   6.233   9.066  0.7068 -0.8146 -1.2440
  185MOL0     H24949  14.343   6.144   9.350  0.0195 -1.5096 -0.6173
  185MOL0     H24950  14.405   6.069   9.202 -0.4646 -0.2775  1.2054
  185MOL0     H24951  14.428   6.370   9.278  2.2426  1.8743 -0.7046
  185MOL0     H24952  14.489   6.297   9.126 -2.5139  1.2143  0.5479
  185MOL0     H24953  14.627   6.138   9.277 -1.9295 -0.8623  1.4039
  185MOL0     H24954  14.676   6.311   9.300 -1.6790  0.9444  0.0701
  185MOL0     H24955  13.535   6.187   9.317  0.3759 -0.0749  0.2326
  185MOL0     H24956  13.287   6.290   9.346 -1.2584  1.4048  0.7739
  185MOL0     H24957  12.870   6.347   9.064 -1.1541  1.3023 -2.2545
  185MOL0     H24958  12.645   6.443   9.086 -0.3559 -1.3669  0.6002
  185MOL0     H24959  10.706   5.745   8.946 -0.1262 -1.2466  0.4725
  185MOL0     H24960  10.521   5.781   8.782  0.8314  1.0363  0.0102
  185MOL0     H24961  10.520   5.909   8.270 -0.4216 -0.1773  0.4094
  185MOL0     H24962  10.376   5.967   8.090  0.2832  0.2301  1.5373
  185MOL0     H24963  10.131   5.649   7.905 -3.6689 -1.3337 -1.3363
  185MOL0     H24964  10.066   5.799   7.828 -1.4424  1.9035  1.6219
  185MOL0     H24965   9.933   5.839   8.006 -0.6952 -0.1057  0.8944
  185MOL0     H24966  10.003   5.699   8.105 -0.4138 -0.1340 -0.0394
  185MOL0     H24967   9.849   5.679   7.844  0.1306 -1.4230  0.1266
  185MOL0     H24968   9.775   5.673   8.011 -0.8425 -0.4227 -0.7938
  185MOL0     H24969   9.812   5.458   7.905  0.0903  0.3702  0.7019
  185MOL0     H24970   9.989   5.474   7.893  0.3659 -0.0476 -0.0669
  185MOL0     H24971   9.996   5.366   8.293 -1.6113  1.9671  1.5525
  185MOL0     H24972  10.187   5.578   8.122 -1.0095  0.3010  0.4864
  185MOL0     H24973  10.253   5.426   8.255  0.3871 -0.6927  1.1579
  185MOL0     H24974  10.412   5.431   8.330 -0.9914 -1.0795  0.9950
  185MOL0     H24975  10.286   5.497   8.423 -1.0393 -1.2249  0.8028
  186MOL0     O24976   9.079   0.374   6.987  0.0229 -0.5966 -0.2521
  186MOL0     C24977   9.149   0.372   7.088 -0.2412  0.5210 -0.2486
  186MOL0     O24978   9.166   0.262   7.170 -0.6936 -0.3326 -0.1348
  186MOL0     C24979   9.079   0.155   7.156  0.3074  0.0429  0.1620
  186MOL0     C24980   8.981   0.115   7.257  0.5991 -0.0905  0.2306
  186MOL0     C24981   8.897   0.007   7.231 -0.1025  0.1804 -0.4810
  186MOL0     C24982   8.903  -0.065   7.107  0.3274  0.1127  0.1842
  186MOL0     O24983   8.819  -0.172   7.068 -0.4287  0.5505  0.1436
  186MOL0     C24984   8.772  -0.260   7.170  0.3949 -0.9769 -0.0479
  186MOL0     C24985   8.624  -0.247   7.220 -0.2611 -0.2422  0.2732
  186MOL0     C24986   8.525  -0.221   7.104  0.3487 -0.0215  0.0372
  186MOL0     C24987   8.374  -0.250   7.136 -0.2474  0.4637  0.3369
  186MOL0     C24988   8.297  -0.191   7.021  0.0041 -0.7232  0.0426
  186MOL0     C24989   8.149  -0.183   7.052  0.4397  0.1915 -0.9627
  186MOL0     C24990   8.098  -0.327   7.084 -0.2267 -0.5994 -1.1548
  186MOL0     C24991   7.950  -0.316   7.081 -0.0609 -0.3437 -0.2842
  186MOL0     N24992   7.896  -0.294   6.948 -0.7934  0.1059 -0.2989
  186MOL0     C24993   7.939  -0.368   6.837 -0.3904  0.1141  0.0206
  186MOL0     C24994   7.894  -0.308   6.733  0.2945  0.2133  0.2401
  186MOL0     C24995   7.908  -0.351   6.583 -0.3391 -0.6473  0.3090
  186MOL0     C24996   8.035  -0.282   6.533  0.0086 -0.2018 -0.7187
  186MOL0     C24997   8.067  -0.352   6.400 -0.4906  0.2704  0.8517
  186MOL0     C24998   8.204  -0.294   6.353  0.2077  0.2874  0.0667
  186MOL0     O24999   8.295  -0.406   6.375  0.0534  0.2902  1.1024
  186MOL0     C25000   8.423  -0.381   6.347  0.1754 -0.3345 -0.8618
  186MOL0     C25001   8.514  -0.473   6.403  0.4764 -0.7523 -0.2139
  186MOL0     C25002   8.652  -0.457   6.381 -0.3515  0.5006  0.2956
  186MOL0     C25003   8.704  -0.356   6.301  0.2791 -0.6002  0.0418
  186MOL0     C25004   8.851  -0.333   6.298  0.0906  0.7666  0.5615
  186MOL0     O25005   8.902  -0.265   6.197 -0.4548  0.5116  0.6476
  186MOL0     C25006   9.037  -0.258   6.171  0.0316 -1.3631  0.3562
  186MOL0     C25007   9.098  -0.356   6.088 -0.2374  0.0221  0.0338
  186MOL0     C25008   9.238  -0.349   6.056  0.3853  0.1555 -0.0026
  186MOL0     C25009   9.317  -0.249   6.109  0.5295  0.9219  0.8096
  186MOL0     O25010   9.452  -0.241   6.107 -0.1217 -0.2476  0.2615
  186MOL0     C25011   9.528  -0.354   6.059  0.0706  0.1635  0.7030
  186MOL0     C25012   9.676  -0.339   6.057 -0.2856  0.4995  0.1099
  186MOL0     C25013   9.748  -0.468   6.036 -0.6161 -0.3086  0.2167
  186MOL0     C25014   9.903  -0.462   6.041  0.8446  0.9743 -0.5281
  186MOL0     C25015   9.969  -0.362   5.952 -0.0085 -0.1020 -0.3587
  186MOL0     C25016  10.120  -0.392   5.955 -0.6757  0.5843  0.3167
  186MOL0     C25017  10.207  -0.299   5.865  0.2443 -0.8754 -0.1639
  186MOL0     C25018  10.350  -0.321   5.904 -0.3109 -0.2214 -0.3576
  186MOL0    Cl25019  10.445  -0.183   5.836 -0.1443  0.1092  0.0501
  186MOL0     C25020   9.257  -0.161   6.198  0.5819 -0.1725 -0.6561
  186MOL0     C25021   9.118  -0.164   6.233  0.4531 -0.1456 -0.0303
  186MOL0     O25022   8.912  -0.409   6.374 -0.2720 -0.0674  0.1296
  186MOL0     C25023   8.610  -0.265   6.243 -0.0531  0.5306  0.3088
  186MOL0     C25024   8.475  -0.283   6.258 -1.0007 -0.1244 -0.5132
  186MOL0     N25025   7.811  -0.204   6.777 -0.7485 -0.5396 -0.7260
  186MOL0     N25026   7.829  -0.188   6.908  0.3694 -0.9133  1.0902
  186MOL0     C25027   8.999  -0.025   7.015  0.7308  0.3694 -0.4656
  186MOL0     C25028   9.087   0.079   7.045 -0.4770 -0.9294  0.3479
  186MOL0     C25029   9.258   0.478   7.107  0.7223  0.3571  0.4586
  186MOL0     C25030   9.348   0.468   7.212 -0.9773  0.1800  0.8076
  186MOL0     C25031   9.438   0.569   7.241 -0.0048 -0.9428 -0.0108
  186MOL0     C25032   9.445   0.690   7.164 -0.2349  0.0729  0.4344
  186MOL0     O25033   9.539   0.791   7.183 -0.2589 -0.1089 -0.5339
  186MOL0     C25034   9.567   0.832   7.319 -0.3695 -0.2920 -0.6593
  186MOL0     C25035   9.620   0.978   7.313 -0.3737 -0.0213  0.3431
  186MOL0     C25036   9.773   0.975   7.278 -0.0071 -0.6479  0.0511
  186MOL0     C25037   9.835   1.112   7.313  0.3561  0.4208 -0.1316
  186MOL0     C25038   9.972   1.109   7.269  0.7200  0.6016  0.4173
  186MOL0     C25039  10.082   1.117   7.227 -0.7641  0.9303  0.2635
  186MOL0     C25040   9.348   0.701   7.061 -0.6258  0.1658 -0.5794
  186MOL0     C25041   9.263   0.596   7.026  1.3440 -0.4680  0.0738
  186MOL0     C25042   9.178   0.620   6.900  0.2125 -0.8036  0.7348
  186MOL0     H25043   8.986   0.168   7.352  0.9333 -1.6825  1.1419
  186MOL0     H25044   8.826  -0.021   7.308 -1.0796  0.9466 -1.0739
  186MOL0     H25045   8.774  -0.364   7.134  0.7066 -0.5257 -1.3720
  186MOL0     H25046   8.839  -0.259   7.257  0.6013 -3.5609 -0.0826
  186MOL0     H25047   8.633  -0.168   7.295  2.6838  0.0787 -0.2947
  186MOL0     H25048   8.603  -0.334   7.284  2.6699 -1.7925 -0.6473
  186MOL0     H25049   8.553  -0.280   7.016 -1.2635  0.8992 -1.1545
  186MOL0     H25050   8.536  -0.114   7.088 -0.6022  0.4294  2.0815
  186MOL0     H25051   8.344  -0.355   7.148 -0.1096  0.2961 -0.7462
  186MOL0     H25052   8.340  -0.194   7.224 -1.1661 -0.6975  0.7454
  186MOL0     H25053   8.327  -0.086   7.008  1.5351 -1.3298 -1.7022
  186MOL0     H25054   8.321  -0.241   6.927 -3.3387  0.3587 -1.5104
  186MOL0     H25055   8.140  -0.114   7.136  2.8694 -0.5357 -0.0270
  186MOL0     H25056   8.101  -0.141   6.964 -0.0738 -0.9304 -1.2311
  186MOL0     H25057   8.125  -0.354   7.186  1.0385  0.5261 -1.1698
  186MOL0     H25058   8.145  -0.393   7.009  3.9909  0.9414 -0.1222
  186MOL0     H25059   7.897  -0.407   7.111 -1.5603  0.4540 -0.3892
  186MOL0     H25060   7.911  -0.239   7.149  1.4249 -0.7234  1.0610
  186MOL0     H25061   7.995  -0.460   6.849 -2.2180 -0.9107  1.1739
  186MOL0     H25062   7.922  -0.459   6.587  0.2969 -0.6213 -0.6237
  186MOL0     H25063   7.817  -0.327   6.527  1.4281  0.8046 -2.1850
  186MOL0     H25064   8.025  -0.175   6.512  2.3959  0.2163 -0.1168
  186MOL0     H25065   8.110  -0.287   6.613 -0.7869  3.5967  0.4793
  186MOL0     H25066   7.995  -0.326   6.323  1.9951  0.5229 -1.5513
  186MOL0     H25067   8.069  -0.460   6.415 -0.0936  0.1635  0.0873
  186MOL0     H25068   8.244  -0.204   6.401 -0.6136 -0.0784  1.4883
  186MOL0     H25069   8.190  -0.269   6.247  0.0523  0.3385  0.0978
  186MOL0     H25070   8.477  -0.546   6.474  0.9163 -0.0523  0.7551
  186MOL0     H25071   8.726  -0.529   6.415 -1.2986 -1.0889 -0.8559
  186MOL0     H25072   9.028  -0.432   6.056 -2.4552  1.6048  0.8729
  186MOL0     H25073   9.282  -0.413   5.980 -1.2279  0.2839 -1.0823
  186MOL0     H25074   9.509  -0.442   6.121  1.4998  0.6864  1.9451
  186MOL0     H25075   9.500  -0.383   5.957 -1.1732  2.4119  0.3328
  186MOL0     H25076   9.692  -0.276   5.969 -2.7917  1.7166  0.4297
  186MOL0     H25077   9.720  -0.277   6.135  1.2699  2.0291 -1.8735
  186MOL0     H25078   9.725  -0.544   6.111  1.9013  0.6597  2.1032
  186MOL0     H25079   9.722  -0.501   5.935 -0.5787  1.9400 -0.5719
  186MOL0     H25080   9.933  -0.564   6.016 -0.6107  0.7045 -1.2955
  186MOL0     H25081   9.921  -0.450   6.148  2.6897 -4.6519  0.0977
  186MOL0     H25082   9.956  -0.258   5.984  2.1196  0.1807 -0.2767
  186MOL0     H25083   9.937  -0.365   5.847 -1.3429 -0.0676  0.0306
  186MOL0     H25084  10.160  -0.386   6.056 -0.1989  0.4879  0.1340
  186MOL0     H25085  10.145  -0.491   5.918  1.1527  1.2612 -0.3784
  186MOL0     H25086  10.176  -0.195   5.883  2.2871 -0.6131  2.4142
  186MOL0     H25087  10.188  -0.320   5.760 -1.4069  1.7748 -0.5082
  186MOL0     H25088  10.361  -0.313   6.012 -0.9123  0.7496 -0.3613
  186MOL0     H25089  10.389  -0.417   5.868 -1.2681 -2.5014  4.0373
  186MOL0     H25090   9.326  -0.091   6.246 -0.5861 -0.1198  1.0531
  186MOL0     H25091   9.091  -0.080   6.296  5.9616 -1.3199  4.6937
  186MOL0     H25092   8.643  -0.190   6.172  0.3667 -1.0048 -1.1883
  186MOL0     H25093   8.407  -0.236   6.187 -2.3335 -1.4743 -0.1926
  186MOL0     H25094   9.017  -0.071   6.918 -1.1144  0.9266 -1.1050
  186MOL0     H25095   9.154   0.109   6.965  0.8635 -2.1521  0.9721
  186MOL0     H25096   9.368   0.375   7.264  6.0821  0.6213 -0.1947
  186MOL0     H25097   9.509   0.549   7.320 -0.6299 -1.4376  0.4349
  186MOL0     H25098   9.636   0.755   7.354  1.8817  2.3329  1.1417
  186MOL0     H25099   9.476   0.826   7.379 -1.1027 -0.8436 -1.7812
  186MOL0     H25100   9.620   1.024   7.412  2.5578 -0.2186  0.5413
  186MOL0     H25101   9.562   1.039   7.243  0.5822 -0.2975 -0.7118
  186MOL0     H25102   9.781   0.954   7.171 -0.8818 -1.0295  0.0475
  186MOL0     H25103   9.832   0.891   7.314 -0.0395 -1.4602 -1.7133
  186MOL0     H25104   9.771   1.181   7.257  0.6114  2.6818  2.2101
  186MOL0     H25105   9.824   1.131   7.420 -1.9335 -1.7982  0.1257
  186MOL0     H25106  10.181   1.136   7.189  0.8031  0.3322  3.6902
  186MOL0     H25107   9.357   0.793   7.005  0.3995  0.0492 -0.6295
  186MOL0     H25108   9.192   0.724   6.868  0.1212 -0.9573  0.1830
  186MOL0     H25109   9.220   0.557   6.822  1.0573  0.3221  0.2522
  186MOL0     H25110   9.069   0.609   6.909 -0.4868  3.0125 -0.8233
  187MOL0     O25111  10.789   4.367  10.174 -0.5899 -0.1420  0.4057
  187MOL0     C25112  10.683   4.403  10.223 -1.2476 -0.2245  0.0287
  187MOL0     O25113  10.674   4.506  10.311  0.6138  0.8207  0.2685
  187MOL0     C25114  10.757   4.529  10.420  0.5211 -0.4263  0.2593
  187MOL0     C25115  10.715   4.635  10.501 -0.0527 -0.1006  0.0826
  187MOL0     C25116  10.791   4.677  10.607  0.1942 -0.3063 -0.5852
  187MOL0     C25117  10.927   4.628  10.627 -0.7269 -0.7221  0.1860
  187MOL0     O25118  11.007   4.683  10.729 -0.3648 -0.5717  0.3291
  187MOL0     C25119  10.953   4.732  10.850  0.4800 -0.4279 -0.3853
  187MOL0     C25120  11.026   4.844  10.914 -0.3192 -0.5106  0.7377
  187MOL0     C25121  11.177   4.808  10.948  0.4089 -1.0075 -0.2112
  187MOL0     C25122  11.274   4.799  10.821 -0.8895  0.1187 -0.3200
  187MOL0     C25123  11.389   4.696  10.834 -0.2715 -0.4701 -0.5081
  187MOL0     C25124  11.480   4.732  10.952  0.0541  0.7637  0.0304
  187MOL0     C25125  11.592   4.632  10.945 -0.3418  0.3716  0.4603
  187MOL0     C25126  11.658   4.611  11.087  0.9801 -0.1185  0.1234
  187MOL0     N25127  11.723   4.730  11.142  0.0711  1.5081  0.4710
  187MOL0     C25128  11.863   4.742  11.125  0.1943 -1.0485  1.0163
  187MOL0     C25129  11.899   4.825  11.225  0.8698 -0.2302  0.3872
  187MOL0     C25130  12.039   4.856  11.272 -0.2206 -0.4407 -0.3548
  187MOL0     C25131  12.153   4.831  11.176  0.0385 -0.0945 -0.1378
  187MOL0     C25132  12.281   4.828  11.248  0.3902  0.1971 -0.8014
  187MOL0     C25133  12.401   4.829  11.160 -1.3665 -0.0688  1.2300
  187MOL0     O25134  12.393   4.710  11.085  0.7369  0.5383  0.8937
  187MOL0     C25135  12.494   4.658  11.006  0.2207 -0.5727  0.3726
  187MOL0     C25136  12.497   4.531  10.961 -0.5454  0.7704 -0.4713
  187MOL0     C25137  12.615   4.477  10.896  0.8556 -0.2937 -0.4409
  187MOL0     C25138  12.728   4.558  10.883  1.2782 -0.3609  0.3563
  187MOL0     C25139  12.853   4.499  10.809 -0.2553  0.2141  0.3249
  187MOL0     O25140  12.956   4.581  10.763  0.1511 -0.1653  0.7027
  187MOL0     C25141  13.077   4.524  10.728  0.3110 -0.3998  1.4830
  187MOL0     C25142  13.119   4.389  10.741  0.3075 -0.6290  0.2481
  187MOL0     C25143  13.247   4.350  10.694  0.2498 -0.1712 -0.7921
  187MOL0     C25144  13.327   4.442  10.620  0.9575 -0.1112  0.9927
  187MOL0     O25145  13.449   4.398  10.571 -0.2910 -0.2567  0.2337
  187MOL0     C25146  13.443   4.415  10.425 -0.8657  0.2531 -0.1745
  187MOL0     C25147  13.575   4.345  10.385  0.3010  0.4938  0.0509
  187MOL0     C25148  13.598   4.382  10.238 -0.8811  0.2157 -0.2838
  187MOL0     C25149  13.725   4.325  10.183 -0.5165  0.4874 -0.0858
  187MOL0     C25150  13.860   4.365  10.245 -0.2749  0.0180  0.0300
  187MOL0     C25151  13.976   4.328  10.155 -0.0337  0.4531  0.0879
  187MOL0     C25152  14.114   4.363  10.230  0.1160  0.8279  0.7216
  187MOL0     C25153  14.221   4.299  10.156 -0.5742  0.1708 -0.3839
  187MOL0    Cl25154  14.378   4.367  10.220  0.6254  0.0517 -0.0236
  187MOL0     C25155  13.278   4.579  10.606 -0.7498  0.2722  0.0878
  187MOL0     C25156  13.157   4.618  10.660 -0.7673  0.5720 -1.0343
  187MOL0     O25157  12.833   4.375  10.781 -0.6944 -0.5761 -0.0586
  187MOL0     C25158  12.719   4.690  10.925 -0.9196  0.4736 -0.1275
  187MOL0     C25159  12.602   4.736  10.989  0.1897 -0.7220 -0.2857
  187MOL0     N25160  11.787   4.869  11.299 -0.1987  0.3576  0.1204
  187MOL0     N25161  11.681   4.803  11.251 -0.1315 -0.1558 -0.7756
  187MOL0     C25162  10.968   4.523  10.546  0.6108 -0.7454 -0.0241
  187MOL0     C25163  10.875   4.460  10.458 -0.1378 -0.2548  0.0416
  187MOL0     C25164  10.555   4.362  10.160 -0.1538  0.0437  0.0236
  187MOL0     C25165  10.436   4.420  10.202 -0.1776  0.1259  0.0376
  187MOL0     C25166  10.308   4.388  10.141 -1.3831 -0.2113  0.6542
  187MOL0     C25167  10.298   4.289  10.053 -0.5687  0.2187 -0.4449
  187MOL0     O25168  10.191   4.235   9.999 -0.0852  0.3211  0.3870
  187MOL0     C25169  10.063   4.301  10.022 -0.5420  0.5295 -0.2961
  187MOL0     C25170   9.968   4.234   9.924 -0.0817  0.1847 -1.1640
  187MOL0     C25171   9.826   4.263   9.964  0.3623  0.1039 -0.4006
  187MOL0     C25172   9.729   4.214   9.856 -0.0948 -0.9020  0.3549
  187MOL0     C25173   9.774   4.089   9.791  0.2922  0.4248  0.2955
  187MOL0     C25174   9.824   3.992   9.740 -0.1020 -0.1652 -0.9621
  187MOL0     C25175  10.411   4.220  10.020  0.0996 -1.5305  0.4123
  187MOL0     C25176  10.536   4.252  10.073  0.0777  0.3315  1.1189
  187MOL0     C25177  10.657   4.173  10.031  0.1004 -0.3538  0.6155
  187MOL0     H25178  10.615   4.676  10.491  0.8219  2.4351  1.0204
  187MOL0     H25179  10.754   4.762  10.663  1.7781 -0.3977  0.6867
  187MOL0     H25180  10.847   4.756  10.844  0.7337  0.4359 -2.2285
  187MOL0     H25181  10.946   4.641  10.909 -2.2710 -0.1344 -0.1492
  187MOL0     H25182  10.977   4.881  11.004 -0.9608 -1.3966  0.7720
  187MOL0     H25183  11.030   4.927  10.843 -0.5628 -1.3564 -0.2946
  187MOL0     H25184  11.173   4.723  11.018 -1.9870  1.4816  3.0351
  187MOL0     H25185  11.211   4.889  11.014 -0.9517 -0.7449  0.2141
  187MOL0     H25186  11.220   4.782  10.727 -3.1995  2.5237  0.4238
  187MOL0     H25187  11.315   4.900  10.813 -1.7648  0.6787  1.5551
  187MOL0     H25188  11.355   4.592  10.839  1.0048 -0.8541  1.1192
  187MOL0     H25189  11.451   4.703  10.744  3.7649 -5.3866  1.3788
  187MOL0     H25190  11.512   4.837  10.951  0.5828  0.6170  1.1164
  187MOL0     H25191  11.413   4.726  11.038 -0.8626  2.0820 -0.5392
  187MOL0     H25192  11.667   4.674  10.877 -0.2266  0.1843  0.4711
  187MOL0     H25193  11.557   4.533  10.914 -1.2218  0.7634  0.1750
  187MOL0     H25194  11.585   4.569  11.157 -0.8004  3.1320  0.3889
  187MOL0     H25195  11.730   4.529  11.086  1.0317 -0.1365 -2.4803
  187MOL0     H25196  11.926   4.692  11.052 -3.7215 -4.6045 -0.3424
  187MOL0     H25197  12.029   4.963  11.292  0.8359 -0.3444 -0.2676
  187MOL0     H25198  12.049   4.806  11.369  0.9917 -2.1119 -1.2822
  187MOL0     H25199  12.143   4.734  11.126 -0.7050 -0.3481  0.4878
  187MOL0     H25200  12.149   4.916  11.107  2.2614  2.2876  2.4425
  187MOL0     H25201  12.280   4.742  11.316 -2.0446  1.1618  0.5274
  187MOL0     H25202  12.280   4.922  11.305  0.6418 -0.7973  0.9064
  187MOL0     H25203  12.489   4.857  11.220 -0.5884  1.8155 -0.6662
  187MOL0     H25204  12.396   4.911  11.088  1.4775  0.7128  1.7909
  187MOL0     H25205  12.411   4.469  10.983  1.6956 -1.4773  2.8850
  187MOL0     H25206  12.600   4.380  10.849 -2.7999 -0.4044  0.6039
  187MOL0     H25207  13.059   4.312  10.788  0.9462 -0.5608  1.2097
  187MOL0     H25208  13.276   4.246  10.711 -4.2247 -1.3606  0.9355
  187MOL0     H25209  13.353   4.386  10.370  0.8328 -1.3999 -2.2680
  187MOL0     H25210  13.451   4.523  10.410  0.7872  0.1233 -0.4622
  187MOL0     H25211  13.659   4.372  10.450 -0.4266  0.1951  1.1532
  187MOL0     H25212  13.563   4.237  10.391  1.0168  0.3299 -1.1776
  187MOL0     H25213  13.511   4.346  10.183 -0.2747 -0.6509 -0.6895
  187MOL0     H25214  13.601   4.491  10.226  2.4048  0.1940 -0.6607
  187MOL0     H25215  13.723   4.344  10.075  0.2651  1.3568  0.0479
  187MOL0     H25216  13.719   4.216  10.196  0.4977  0.2746 -1.1784
  187MOL0     H25217  13.873   4.312  10.339  4.7261  0.8180  0.0777
  187MOL0     H25218  13.863   4.473  10.262  0.0462  0.4815 -2.5072
  187MOL0     H25219  13.983   4.221  10.134  0.3008  0.6374 -0.8169
  187MOL0     H25220  13.963   4.392  10.067  1.4901  1.4046  0.5162
  187MOL0     H25221  14.110   4.329  10.334  0.7835 -1.8900 -0.0578
  187MOL0     H25222  14.135   4.469  10.215  0.2928  0.4767 -2.2884
  187MOL0     H25223  14.216   4.190  10.168  0.7998  0.2608  1.3852
  187MOL0     H25224  14.206   4.324  10.051 -2.3131  0.2661 -0.1427
  187MOL0     H25225  13.337   4.653  10.553 -1.7880 -1.5584 -4.0703
  187MOL0     H25226  13.117   4.719  10.659 -0.1827  0.9405  2.1009
  187MOL0     H25227  12.803   4.756  10.914 -1.4727  1.1397 -0.4313
  187MOL0     H25228  12.595   4.837  11.026 -0.5038 -1.4719  1.7859
  187MOL0     H25229  11.055   4.467  10.578  0.8838 -1.3299 -1.6796
  187MOL0     H25230  10.887   4.366  10.407  0.4525 -0.2274  0.1236
  187MOL0     H25231  10.437   4.514  10.256  0.3399 -0.7856  1.6832
  187MOL0     H25232  10.223   4.446  10.176 -0.6794  0.2783  1.5916
  187MOL0     H25233  10.063   4.405   9.990 -1.9561  0.1210 -1.7480
  187MOL0     H25234  10.023   4.306  10.124 -0.9925 -0.3692 -0.4133
  187MOL0     H25235   9.981   4.127   9.939 -0.1568  0.3358  0.0367
  187MOL0     H25236   9.992   4.255   9.819 -0.5862  1.7021 -1.0139
  187MOL0     H25237   9.812   4.371   9.972  1.1502  0.3615 -2.0005
  187MOL0     H25238   9.817   4.204  10.056  4.0859 -0.6807 -0.3867
  187MOL0     H25239   9.628   4.211   9.897  1.0202  0.7735  3.5687
  187MOL0     H25240   9.730   4.287   9.774  1.9204 -1.3551 -0.0756
  187MOL0     H25241   9.859   3.902   9.693  1.5413  0.2973 -0.6917
  187MOL0     H25242  10.397   4.137   9.952  2.0248 -2.4090  1.0044
  187MOL0     H25243  10.636   4.084   9.970  0.4777 -0.3487  0.4732
  187MOL0     H25244  10.733   4.236   9.983 -0.4428  0.9923  1.4633
  187MOL0     H25245  10.705   4.137  10.123  2.0250 -1.6779 -0.8138
  188MOL0     O25246   7.540   7.020   9.932 -0.1142  0.0400  0.3506
  188MOL0     C25247   7.494   7.089  10.020  0.6087  0.0587  0.4175
  188MOL0     O25248   7.496   7.223  10.036 -0.2720  0.1512  0.7486
  188MOL0     C25249   7.594   7.298   9.973  1.5589  0.0196 -0.0411
  188MOL0     C25250   7.565   7.430   9.969  0.1965  0.2860 -0.0868
  188MOL0     C25251   7.647   7.528   9.913 -0.1133  0.3246 -0.6007
  188MOL0     C25252   7.768   7.490   9.861 -0.3183  0.4755 -0.4711
  188MOL0     O25253   7.841   7.580   9.801 -0.2682 -0.6119  0.1765
  188MOL0     C25254   7.975   7.579   9.840 -0.3213  0.6778  0.2855
  188MOL0     C25255   8.044   7.706   9.788  0.4435 -0.3014 -0.8666
  188MOL0     C25256   8.168   7.733   9.872  0.4051 -0.2101 -0.2549
  188MOL0     C25257   8.279   7.641   9.821  0.1414 -0.5513 -0.0793
  188MOL0     C25258   8.402   7.635   9.907 -0.0104 -0.3652 -0.9863
  188MOL0     C25259   8.475   7.766   9.903 -0.5386 -0.1931  0.9061
  188MOL0     C25260   8.621   7.754   9.939  0.3902  0.6175  0.5021
  188MOL0     C25261   8.703   7.876   9.935 -0.0011 -0.4768  0.1042
  188MOL0     N25262   8.841   7.849   9.970 -0.0971 -0.3987  0.2797
  188MOL0     C25263   8.892   7.817  10.092  0.4247 -0.4410  0.2227
  188MOL0     C25264   9.026   7.835  10.081 -0.2849 -0.7803 -0.5584
  188MOL0     C25265   9.116   7.792  10.190 -0.8321 -0.8854  0.1877
  188MOL0     C25266   9.257   7.859  10.187 -0.2230 -0.0283 -0.7819
  188MOL0     C25267   9.332   7.818  10.311  1.0994  0.6826  0.2300
  188MOL0     C25268   9.478   7.856  10.304 -0.5871  0.3743 -0.2500
  188MOL0     O25269   9.540   7.773  10.403 -0.3255 -1.4642 -0.4790
  188MOL0     C25270   9.676   7.782  10.422 -0.1502  0.0061 -0.1098
  188MOL0     C25271   9.725   7.722  10.535  0.4001 -0.3428 -0.2231
  188MOL0     C25272   9.862   7.712  10.560 -0.5453 -0.2236  0.2131
  188MOL0     C25273   9.950   7.792  10.476 -0.3739 -0.0719 -0.2163
  188MOL0     C25274  10.097   7.794  10.505  1.0377 -0.2309 -0.1393
  188MOL0     O25275  10.135   7.731  10.620 -0.3749  0.0737 -0.0427
  188MOL0     C25276  10.268   7.734  10.656 -0.2817  0.1268 -0.3812
  188MOL0     C25277  10.309   7.865  10.708  0.1898  1.3035  0.6881
  188MOL0     C25278  10.442   7.883  10.737  0.1420 -0.1096  0.0942
  188MOL0     C25279  10.541   7.779  10.734 -0.1220 -0.3854 -0.3863
  188MOL0     O25280  10.673   7.812  10.765 -0.1148  0.0427 -0.8839
  188MOL0     C25281  10.737   7.927  10.695  0.0112  0.1173 -0.0835
  188MOL0     C25282  10.859   7.960  10.782 -0.9175  0.2722 -0.3946
  188MOL0     C25283  10.896   8.112  10.772  0.3876 -0.0001 -0.3308
  188MOL0     C25284  10.944   8.146  10.626 -0.1729  0.1545  0.6940
  188MOL0     C25285  11.087   8.092  10.591  0.6394  0.5269  0.3619
  188MOL0     C25286  11.109   8.118  10.442  0.0673  0.5448  0.1250
  188MOL0     C25287  10.997   8.042  10.365  0.3616 -0.5241  0.4177
  188MOL0     C25288  11.042   7.982  10.234  0.5347 -0.5182 -0.4597
  188MOL0    Cl25289  10.919   7.858  10.184 -0.1113 -0.2978 -0.1312
  188MOL0     C25290  10.496   7.650  10.690 -0.1294 -0.2988 -0.2206
  188MOL0     C25291  10.362   7.628  10.652  0.1599  0.1317 -0.0472
  188MOL0     O25292  10.177   7.854  10.431  0.6018  0.3104  0.2667
  188MOL0     C25293   9.905   7.867  10.371  1.1827 -0.2636  0.3295
  188MOL0     C25294   9.767   7.857  10.337  0.5168 -0.5642  0.0508
  188MOL0     N25295   9.058   7.890   9.954 -0.8223 -0.5456  0.0751
  188MOL0     N25296   8.942   7.895   9.896 -0.8884 -1.0641  0.0955
  188MOL0     C25297   7.811   7.360   9.869  0.6791  0.5710 -0.1864
  188MOL0     C25298   7.722   7.262   9.925 -0.3744 -0.7351  0.7061
  188MOL0     C25299   7.410   7.020  10.123  1.3066 -0.0562  0.3792
  188MOL0     C25300   7.276   7.043  10.144  0.3853 -0.2605 -0.5648
  188MOL0     C25301   7.197   6.983  10.239 -0.4613 -1.0894  0.3008
  188MOL0     C25302   7.254   6.879  10.308 -0.0600 -0.1172 -0.2233
  188MOL0     O25303   7.197   6.809  10.417 -0.1067 -0.2191  0.2435
  188MOL0     C25304   7.094   6.865  10.497 -0.1005  0.2807 -0.6048
  188MOL0     C25305   7.166   6.927  10.618  0.7161 -1.2228  0.4722
  188MOL0     C25306   7.075   6.956  10.735 -0.3715 -1.0944  0.2157
  188MOL0     C25307   7.038   6.831  10.820 -0.0233 -0.4973 -0.2680
  188MOL0     C25308   6.905   6.788  10.793 -0.2774 -0.3516  0.2352
  188MOL0     C25309   6.793   6.751  10.777  1.2671 -0.8060 -0.2019
  188MOL0     C25310   7.383   6.838  10.286  0.1856  0.3249 -0.6839
  188MOL0     C25311   7.462   6.906  10.194 -0.8290  0.4883 -0.1389
  188MOL0     C25312   7.609   6.859  10.178  0.4493 -0.1642  0.7296
  188MOL0     H25313   7.477   7.472  10.017 -0.0080 -0.5441  0.2804
  188MOL0     H25314   7.618   7.632   9.903  0.8813  0.6609 -0.1466
  188MOL0     H25315   7.977   7.560   9.948 -4.4189 -0.3899  0.3369
  188MOL0     H25316   8.033   7.500   9.791  1.6982  1.8961  0.5959
  188MOL0     H25317   7.988   7.798   9.803  0.6874 -0.1926 -0.6381
  188MOL0     H25318   8.063   7.691   9.681 -0.2454 -1.6373 -0.8341
  188MOL0     H25319   8.151   7.727   9.980  1.2476  0.4826 -0.0677
  188MOL0     H25320   8.207   7.832   9.847 -0.0782  0.4808  1.5373
  188MOL0     H25321   8.246   7.537   9.815  1.9696 -1.1313 -0.3744
  188MOL0     H25322   8.301   7.670   9.718  0.2573 -0.1382  0.0583
  188MOL0     H25323   8.365   7.613  10.007 -1.5006  0.8781 -1.2295
  188MOL0     H25324   8.467   7.553   9.875  2.7537  1.5747 -0.7230
  188MOL0     H25325   8.491   7.802   9.801  1.8276  0.9288  1.5991
  188MOL0     H25326   8.420   7.839   9.963  2.2243  2.8689 -0.0135
  188MOL0     H25327   8.666   7.683   9.870  2.8112 -0.1352  2.6879
  188MOL0     H25328   8.631   7.706  10.037 -1.3600  0.3497  0.5860
  188MOL0     H25329   8.704   7.916   9.833  0.4815 -0.3999  0.1344
  188MOL0     H25330   8.661   7.944  10.009  1.0318 -2.0821  2.2747
  188MOL0     H25331   8.832   7.802  10.182 -0.4404 -0.4591 -0.3447
  188MOL0     H25332   9.061   7.801  10.285 -3.3574  1.7408 -1.3866
  188MOL0     H25333   9.130   7.685  10.173 -1.7056 -1.2893  1.7400
  188MOL0     H25334   9.313   7.829  10.097  2.7018  2.5545 -0.0077
  188MOL0     H25335   9.244   7.967  10.185  0.5844  0.0770 -0.8278
  188MOL0     H25336   9.323   7.709  10.311  0.8864  0.6616 -1.3926
  188MOL0     H25337   9.280   7.862  10.396 -2.7765 -2.1816 -0.3830
  188MOL0     H25338   9.484   7.962  10.331  2.2793 -0.2235  1.9531
  188MOL0     H25339   9.518   7.843  10.203 -1.9279  1.2052 -0.9097
  188MOL0     H25340   9.651   7.678  10.601  1.0083 -1.8481 -0.4980
  188MOL0     H25341   9.909   7.657  10.641  0.5904  0.4452  0.0203
  188MOL0     H25342  10.243   7.950  10.691 -1.6019 -0.2161 -0.2700
  188MOL0     H25343  10.478   7.983  10.760  0.4421 -0.2286  0.1484
  188MOL0     H25344  10.757   7.882  10.598 -0.7841 -1.9963  0.6669
  188MOL0     H25345  10.675   8.016  10.685 -1.9789 -0.7141  3.1449
  188MOL0     H25346  10.824   7.937  10.883 -2.8362  1.8159 -0.6559
  188MOL0     H25347  10.940   7.888  10.765 -0.6235  0.0909  1.5357
  188MOL0     H25348  10.802   8.165  10.790 -0.2644 -1.0732 -0.4595
  188MOL0     H25349  10.973   8.146  10.841  0.5819  1.1136 -1.0751
  188MOL0     H25350  10.938   8.255  10.626  1.7506  0.2916  1.1486
  188MOL0     H25351  10.869   8.103  10.559 -0.1612 -0.7056  1.2151
  188MOL0     H25352  11.075   7.985  10.608 -1.7388  0.7260  0.2831
  188MOL0     H25353  11.162   8.134  10.659  2.1824  0.9105 -1.5135
  188MOL0     H25354  11.102   8.226  10.428 -0.6230  0.8797  2.6621
  188MOL0     H25355  11.208   8.082  10.412 -0.7360 -2.1571  0.4051
  188MOL0     H25356  10.926   8.122  10.342  2.9848  2.1488  0.9460
  188MOL0     H25357  10.953   7.961  10.423 -0.9743  0.5506  0.9684
  188MOL0     H25358  11.039   8.051  10.149  2.7629 -2.6453 -2.4625
  188MOL0     H25359  11.142   7.936  10.242  1.0578  0.2898 -1.9332
  188MOL0     H25360  10.563   7.566  10.678  0.4716  0.2493 -0.7567
  188MOL0     H25361  10.326   7.527  10.630  0.3897 -0.5550  2.4497
  188MOL0     H25362   9.955   7.942  10.311 -0.7952  0.6885 -0.2173
  188MOL0     H25363   9.739   7.915  10.249 -0.1994 -0.1194  0.5594
  188MOL0     H25364   7.905   7.330   9.825  1.4052  1.7706  0.4869
  188MOL0     H25365   7.742   7.156   9.933  0.4836 -0.8963 -2.1784
  188MOL0     H25366   7.230   7.115  10.077  3.4015  2.3278 -0.0748
  188MOL0     H25367   7.092   7.012  10.246  0.1850  1.6663 -0.2351
  188MOL0     H25368   7.028   6.781  10.521  1.0056 -0.0912  1.3776
  188MOL0     H25369   7.037   6.937  10.439 -0.2818  1.1740  0.6462
  188MOL0     H25370   7.194   7.025  10.580 -0.2656  0.4450  3.6519
  188MOL0     H25371   7.258   6.875  10.644  1.6655 -0.3053 -0.9441
  188MOL0     H25372   6.998   7.020  10.691  1.5061  0.1029 -1.5132
  188MOL0     H25373   7.133   7.022  10.801  0.7097 -1.6058 -0.1952
  188MOL0     H25374   7.102   6.744  10.806 -0.0872 -0.5643 -0.1517
  188MOL0     H25375   7.045   6.869  10.922 -1.4743  2.6113 -1.1875
  188MOL0     H25376   6.701   6.699  10.759  1.6423 -2.7047  2.6935
  188MOL0     H25377   7.415   6.755  10.349 -1.1855  0.2914  0.0188
  188MOL0     H25378   7.625   6.822  10.076  0.3021 -0.5198  0.8340
  188MOL0     H25379   7.675   6.944  10.195 -0.3088  0.4122  0.8205
  188MOL0     H25380   7.636   6.781  10.250  0.4834 -2.2437 -1.3799
  189MOL0     O25381   1.448   1.971   0.813  0.9496 -0.6689  0.5535
  189MOL0     C25382   1.338   1.991   0.761 -0.3751  0.0746  0.7474
  189MOL0     O25383   1.330   2.045   0.632  0.5720 -0.6261  0.2901
  189MOL0     C25384   1.428   2.042   0.543 -0.1223  0.1906  0.6467
  189MOL0     C25385   1.522   1.941   0.541 -0.5090  0.1016 -0.2371
  189MOL0     C25386   1.606   1.930   0.434  0.6549 -1.3509  0.6583
  189MOL0     C25387   1.610   2.036   0.336  0.3476  0.1933 -0.5019
  189MOL0     O25388   1.700   2.037   0.229 -0.0024 -0.0744 -0.4139
  189MOL0     C25389   1.805   1.933   0.233 -0.3297  0.3982  0.6490
  189MOL0     C25390   1.921   1.983   0.136 -0.2989 -0.6483 -0.2679
  189MOL0     C25391   2.033   1.877   0.129 -0.2005  0.2121  0.1854
  189MOL0     C25392   2.131   1.901   0.012  0.4944  0.2039 -0.3411
  189MOL0     C25393   2.232   1.784  -0.023  0.7712 -0.3243  0.3611
  189MOL0     C25394   2.347   1.775   0.075 -0.2624 -0.5864 -0.2109
  189MOL0     C25395   2.425   1.643   0.036  0.2477  0.9392 -0.3854
  189MOL0     C25396   2.550   1.623   0.113 -0.5719 -0.0611 -0.1047
  189MOL0     N25397   2.608   1.495   0.096 -0.6154  0.0324 -0.0723
  189MOL0     C25398   2.610   1.395   0.187  0.0328 -0.0363 -0.0215
  189MOL0     C25399   2.673   1.294   0.127  0.1142  1.3302  0.3450
  189MOL0     C25400   2.698   1.148   0.166 -0.0309 -0.1886 -0.1811
  189MOL0     C25401   2.849   1.115   0.161 -0.5673  0.4841 -0.2253
  189MOL0     C25402   2.885   0.983   0.226 -0.2870  0.0493  0.2929
  189MOL0     C25403   3.032   0.945   0.232  0.4780 -0.0661 -0.3627
  189MOL0     O25404   3.089   0.970   0.107  0.1110  0.0621 -0.4869
  189MOL0     C25405   3.222   0.969   0.115 -0.4080  0.1558 -0.0455
  189MOL0     C25406   3.308   0.939   0.220  0.1775  0.2718  0.2215
  189MOL0     C25407   3.447   0.958   0.219  0.1713 -0.0544 -0.0358
  189MOL0     C25408   3.513   0.993   0.092  0.2875  1.1772 -0.3295
  189MOL0     C25409   3.658   0.995   0.085 -0.3987  0.2138 -0.4331
  189MOL0     O25410   3.718   1.009  -0.039 -0.6640 -0.4867 -0.2925
  189MOL0     C25411   3.849   1.048  -0.055 -0.2661 -0.3958 -0.4647
  189MOL0     C25412   3.956   0.959  -0.053 -0.4390  0.0682  0.7093
  189MOL0     C25413   4.082   1.007  -0.070 -0.7839  0.0120  1.3138
  189MOL0     C25414   4.113   1.145  -0.075 -0.0096 -0.0117  0.0088
  189MOL0     O25415   4.225   1.215  -0.094  0.1306 -0.0729  0.1377
  189MOL0     C25416   4.334   1.134  -0.136 -0.7976  0.1727  0.4503
  189MOL0     C25417   4.450   1.218  -0.185  0.3507 -0.0376  0.0874
  189MOL0     C25418   4.589   1.150  -0.202  0.0685  0.3432 -0.0324
  189MOL0     C25419   4.713   1.242  -0.224 -0.9636  0.5405  0.0337
  189MOL0     C25420   4.843   1.169  -0.239  0.0551  0.2544  0.5504
  189MOL0     C25421   4.878   1.061  -0.134  0.4859 -0.1168 -0.1051
  189MOL0     C25422   5.023   1.011  -0.159  0.0633  0.4152  0.3570
  189MOL0     C25423   5.129   1.111  -0.129  0.3046  0.0103 -0.8215
  189MOL0    Cl25424   5.292   1.070  -0.196  0.0750  0.1668 -0.4052
  189MOL0     C25425   4.006   1.234  -0.080 -0.8624 -0.8669  0.3916
  189MOL0     C25426   3.877   1.184  -0.070 -0.7633  0.0086 -0.5713
  189MOL0     O25427   3.718   0.986   0.196 -0.0915 -0.4899 -0.3216
  189MOL0     C25428   3.426   1.011  -0.012 -0.0784  0.0641 -0.4228
  189MOL0     C25429   3.288   1.006  -0.000  0.0016 -0.9199 -0.7181
  189MOL0     N25430   2.720   1.345   0.007 -0.4269  0.2954  0.3257
  189MOL0     N25431   2.677   1.460  -0.014  0.2148 -0.6906  0.2320
  189MOL0     C25432   1.518   2.144   0.344 -0.2831  0.0282 -0.6129
  189MOL0     C25433   1.430   2.149   0.450 -0.2574 -0.1180 -0.4172
  189MOL0     C25434   1.214   1.968   0.837 -0.3338  0.2828 -0.3577
  189MOL0     C25435   1.120   1.883   0.783 -0.0781 -0.3837  0.0157
  189MOL0     C25436   0.994   1.872   0.836 -0.0154  0.3537  0.1850
  189MOL0     C25437   0.961   1.951   0.951  0.2823 -0.1192 -0.1511
  189MOL0     O25438   0.833   1.964   1.008  0.2859 -0.7365 -0.5904
  189MOL0     C25439   0.722   1.901   0.942  0.4696 -0.3083 -0.4149
  189MOL0     C25440   0.601   1.921   1.026 -0.3218 -0.5628  0.0917
  189MOL0     C25441   0.472   1.909   0.941 -0.2466  0.1881  0.0827
  189MOL0     C25442   0.346   1.955   1.015 -0.2635 -1.0551 -0.3096
  189MOL0     C25443   0.223   1.955   0.929  0.4741 -0.3846 -0.2524
  189MOL0     C25444   0.121   1.961   0.855 -0.8419  0.4650 -0.2658
  189MOL0     C25445   1.055   2.033   1.009 -0.2026 -0.3947  0.6267
  189MOL0     C25446   1.187   2.038   0.959 -0.0142 -0.4391 -0.2850
  189MOL0     C25447   1.288   2.132   1.021 -0.1431  0.0354  0.1866
  189MOL0     H25448   1.510   1.854   0.606 -1.0878 -0.7469 -1.4426
  189MOL0     H25449   1.651   1.831   0.426  1.4140 -1.1374  1.9278
  189MOL0     H25450   1.840   1.905   0.332  1.1343 -0.4342 -0.0678
  189MOL0     H25451   1.771   1.840   0.187  2.1690  0.3931 -1.4218
  189MOL0     H25452   1.964   2.070   0.187  1.3691 -1.9822  0.6916
  189MOL0     H25453   1.877   2.012   0.040 -1.2179  2.5311  0.9779
  189MOL0     H25454   1.984   1.782   0.103 -0.5489  0.0034  1.5513
  189MOL0     H25455   2.089   1.870   0.222  2.5827  2.4515 -1.1960
  189MOL0     H25456   2.075   1.918  -0.080 -2.0833 -1.7434  0.7375
  189MOL0     H25457   2.187   1.993   0.031 -1.1594  1.1967 -0.0039
  189MOL0     H25458   2.179   1.689  -0.013  0.5994 -0.0434  2.3565
  189MOL0     H25459   2.265   1.795  -0.127 -2.7036  0.1510 -0.8202
  189MOL0     H25460   2.418   1.858   0.077  1.2029 -1.7998  0.7295
  189MOL0     H25461   2.312   1.752   0.176 -0.3473  0.2733 -0.0354
  189MOL0     H25462   2.451   1.645  -0.071 -0.4905  1.7989 -0.5648
  189MOL0     H25463   2.362   1.557   0.058  0.5185  0.9893  0.6011
  189MOL0     H25464   2.626   1.701   0.096  0.1980 -1.0194 -1.2779
  189MOL0     H25465   2.530   1.637   0.220  0.2556 -0.5412  0.1208
  189MOL0     H25466   2.558   1.394   0.282 -3.9030  0.6675 -1.9328
  189MOL0     H25467   2.657   1.133   0.267 -0.7558  0.6128 -0.3401
  189MOL0     H25468   2.652   1.081   0.094 -1.7599  2.5954 -1.8432
  189MOL0     H25469   2.882   1.100   0.058  0.4567 -0.3129  0.1974
  189MOL0     H25470   2.909   1.197   0.202  2.7749 -1.8472 -0.0909
  189MOL0     H25471   2.836   0.895   0.184 -0.4842 -0.6281  1.8473
  189MOL0     H25472   2.858   0.975   0.332  3.0977 -1.7735  1.1710
  189MOL0     H25473   3.043   0.840   0.261  1.7514  0.2880  0.5180
  189MOL0     H25474   3.080   1.004   0.311 -2.2621 -1.3455  2.4789
  189MOL0     H25475   3.271   0.894   0.312 -0.2568 -1.4017 -0.7193
  189MOL0     H25476   3.493   0.935   0.315 -1.8275 -0.4672  0.8637
  189MOL0     H25477   3.938   0.853  -0.061 -0.6975  0.1504  0.1204
  189MOL0     H25478   4.162   0.938  -0.092  1.2467  2.4676  0.5046
  189MOL0     H25479   4.376   1.070  -0.058  0.2505 -2.3484 -2.0272
  189MOL0     H25480   4.299   1.065  -0.214 -0.3365 -1.1644  1.3806
  189MOL0     H25481   4.415   1.252  -0.282  0.1071 -0.9972 -0.1738
  189MOL0     H25482   4.463   1.308  -0.124 -1.6121  0.2166  0.2136
  189MOL0     H25483   4.605   1.101  -0.106  0.4224  1.9914  0.7880
  189MOL0     H25484   4.589   1.081  -0.286  0.9660 -2.0166  1.7893
  189MOL0     H25485   4.732   1.316  -0.145  0.8518 -0.6961  0.8397
  189MOL0     H25486   4.708   1.299  -0.317  1.7419  0.7315 -0.0801
  189MOL0     H25487   4.912   1.254  -0.241  0.0534  0.2818 -2.0284
  189MOL0     H25488   4.847   1.116  -0.334 -0.0735 -2.6687  2.0664
  189MOL0     H25489   4.858   1.101  -0.034  1.2183 -0.1624  0.0670
  189MOL0     H25490   4.812   0.975  -0.147  0.2075 -0.0649  0.8930
  189MOL0     H25491   5.028   0.980  -0.264  1.8426 -0.1272  0.5763
  189MOL0     H25492   5.026   0.926  -0.091  0.5170 -0.0014 -0.1788
  189MOL0     H25493   5.102   1.211  -0.162 -0.8517  0.9544  2.5676
  189MOL0     H25494   5.134   1.116  -0.020  1.4510  1.6971 -0.9141
  189MOL0     H25495   4.022   1.340  -0.098 -1.1945 -0.4493  2.3279
  189MOL0     H25496   3.788   1.247  -0.067 -0.8228 -0.0834 -0.4000
  189MOL0     H25497   3.475   1.035  -0.105  0.8861 -0.0238  0.0545
  189MOL0     H25498   3.228   1.004  -0.091  0.8698  2.8829 -1.5520
  189MOL0     H25499   1.517   2.225   0.271 -0.9885  0.3891 -0.2032
  189MOL0     H25500   1.373   2.239   0.465  0.9495  0.3158  2.4135
  189MOL0     H25501   1.152   1.835   0.691  0.0305  0.1714 -0.2340
  189MOL0     H25502   0.924   1.805   0.788  0.7074 -1.6402  1.7855
  189MOL0     H25503   0.733   1.792   0.939 -3.5023 -0.8940  0.4492
  189MOL0     H25504   0.706   1.945   0.843  0.0656  0.3549 -0.0633
  189MOL0     H25505   0.608   2.023   1.065  1.5130  0.0481 -1.6923
  189MOL0     H25506   0.581   1.853   1.109  1.2487  1.2251  2.0492
  189MOL0     H25507   0.456   1.804   0.914 -1.1806  0.4706 -0.5029
  189MOL0     H25508   0.490   1.965   0.849  0.3014  0.4981  0.3777
  189MOL0     H25509   0.326   1.902   1.109 -2.0104 -1.2172 -0.7330
  189MOL0     H25510   0.361   2.056   1.053 -1.0861 -0.7514 -0.7778
  189MOL0     H25511   0.037   1.954   0.789 -0.5064 -0.1462 -0.6482
  189MOL0     H25512   1.020   2.085   1.098 -1.3819 -1.4810  0.8153
  189MOL0     H25513   1.246   2.194   1.101  0.2505 -0.6050  0.9007
  189MOL0     H25514   1.360   2.074   1.080 -0.9094  1.3322  2.5397
  189MOL0     H25515   1.332   2.197   0.945 -1.8985  0.3102 -0.6455
  190MOL0     O25516   2.119   4.810   5.954  0.1755 -0.9832 -0.0174
  190MOL0     C25517   2.020   4.735   5.964  0.2815 -0.3250  0.1992
  190MOL0     O25518   2.007   4.604   5.924  0.6111  0.8570  0.5748
  190MOL0     C25519   2.092   4.542   5.831  0.0758 -0.1821  0.5069
  190MOL0     C25520   2.035   4.446   5.748  0.4601 -0.7299  0.1139
  190MOL0     C25521   2.111   4.389   5.645  0.8525 -0.2328 -1.0499
  190MOL0     C25522   2.247   4.424   5.632  0.0028  0.9995  1.1603
  190MOL0     O25523   2.320   4.338   5.551  0.3814  0.2400 -0.3775
  190MOL0     C25524   2.306   4.200   5.579 -0.3776 -0.6410 -1.4078
  190MOL0     C25525   2.444   4.152   5.539  0.4187 -0.2484 -0.9079
  190MOL0     C25526   2.483   4.172   5.396 -0.1439  0.2596 -0.3858
  190MOL0     C25527   2.629   4.115   5.371 -0.1156  0.4602  0.6921
  190MOL0     C25528   2.662   4.115   5.227  0.7039  0.0326 -0.3760
  190MOL0     C25529   2.814   4.123   5.193  0.4640  0.4633 -1.1547
  190MOL0     C25530   2.884   3.998   5.248 -0.2409 -0.2433  0.0125
  190MOL0     C25531   3.040   4.000   5.237  0.4588  0.1177  0.0030
  190MOL0     N25532   3.078   4.054   5.105  0.0744 -0.3942  0.2694
  190MOL0     C25533   3.056   3.999   4.984  0.0406 -0.2205 -0.1200
  190MOL0     C25534   3.083   4.086   4.889 -0.3683 -0.8722 -0.5627
  190MOL0     C25535   3.070   4.067   4.741  0.4938 -0.0874  0.3301
  190MOL0     C25536   3.187   3.991   4.680 -0.4938  0.5520 -0.3846
  190MOL0     C25537   3.319   4.060   4.680 -0.5303 -0.4784 -0.0228
  190MOL0     C25538   3.429   3.982   4.603  0.4201 -1.4616  0.1619
  190MOL0     O25539   3.549   4.063   4.619  0.5378 -0.2506 -0.0444
  190MOL0     C25540   3.672   4.034   4.560 -0.0452 -0.0289  0.8854
  190MOL0     C25541   3.789   4.114   4.569  0.7839  0.4440 -0.7889
  190MOL0     C25542   3.919   4.079   4.511 -0.1663 -0.3997  0.3395
  190MOL0     C25543   3.926   3.964   4.442  0.3938 -0.2128 -0.2940
  190MOL0     C25544   4.057   3.921   4.387  0.1351 -0.4090  1.2408
  190MOL0     O25545   4.165   4.003   4.417 -0.0688 -0.1344  0.4068
  190MOL0     C25546   4.281   3.953   4.369  0.2874 -0.1111 -1.1073
  190MOL0     C25547   4.313   3.959   4.229 -0.7227  0.5472  0.1270
  190MOL0     C25548   4.441   3.925   4.185  0.1223 -0.3130 -0.1165
  190MOL0     C25549   4.546   3.914   4.272 -0.6150 -0.7398  0.1973
  190MOL0     O25550   4.672   3.906   4.216 -0.1633 -0.4335  0.0699
  190MOL0     C25551   4.769   3.975   4.285  0.3685 -0.5086 -0.5434
  190MOL0     C25552   4.904   3.982   4.217 -0.5553 -0.7150  0.7393
  190MOL0     C25553   4.908   4.002   4.065  0.2052  0.8435 -0.3412
  190MOL0     C25554   5.052   4.056   4.022  0.1388 -0.1469  0.8234
  190MOL0     C25555   5.072   4.051   3.869 -0.5863  0.3762 -0.2284
  190MOL0     C25556   5.210   4.119   3.820 -0.4992  0.8611 -0.0280
  190MOL0     C25557   5.322   4.011   3.811 -1.0365 -0.2179 -0.0021
  190MOL0     C25558   5.455   4.075   3.777  0.8154  0.5805  0.7016
  190MOL0    Cl25559   5.504   4.188   3.910 -0.2623 -0.5773  0.0222
  190MOL0     C25560   4.521   3.919   4.409 -0.1349  0.7578 -0.5930
  190MOL0     C25561   4.389   3.933   4.458 -0.5313 -0.7816 -0.2874
  190MOL0     O25562   4.059   3.818   4.317 -0.0073  0.2797 -0.6594
  190MOL0     C25563   3.805   3.887   4.419  0.2477 -0.2266  0.1588
  190MOL0     C25564   3.685   3.913   4.486  0.3279 -0.1568 -0.0324
  190MOL0     N25565   3.120   4.201   4.955  0.5768 -0.1591 -0.1809
  190MOL0     N25566   3.116   4.178   5.084  0.2813  0.0179  1.4121
  190MOL0     C25567   2.294   4.533   5.695  0.1282 -0.1756  1.2608
  190MOL0     C25568   2.216   4.593   5.797  0.3433  0.5322  0.0931
  190MOL0     C25569   1.889   4.794   6.020  0.5413 -0.4545 -1.0587
  190MOL0     C25570   1.895   4.917   6.093  0.4255  0.3046 -0.7092
  190MOL0     C25571   1.786   4.981   6.154 -0.3040  1.0421  0.3687
  190MOL0     C25572   1.658   4.921   6.145 -0.9601  0.5748  1.0123
  190MOL0     O25573   1.544   4.958   6.208 -0.2634 -0.3509 -0.4695
  190MOL0     C25574   1.542   5.058   6.309  0.2173  0.2263  0.3623
  190MOL0     C25575   1.421   5.137   6.298 -1.3322  0.1621 -0.4967
  190MOL0     C25576   1.424   5.254   6.196 -0.1021 -0.0156  0.8244
  190MOL0     C25577   1.382   5.198   6.060  0.2366 -0.3417  1.3588
  190MOL0     C25578   1.393   5.313   5.969  0.1488  0.0343  0.2481
  190MOL0     C25579   1.414   5.413   5.898  0.7382  0.1305  0.2447
  190MOL0     C25580   1.653   4.804   6.067 -0.1813  0.3817 -0.4532
  190MOL0     C25581   1.764   4.736   6.007  0.5437  0.0639 -0.0063
  190MOL0     C25582   1.728   4.610   5.932 -0.7158  0.6393  0.7132
  190MOL0     H25583   1.937   4.404   5.768  0.5254 -0.0348  2.1418
  190MOL0     H25584   2.056   4.312   5.592  0.5384 -1.2271  0.6554
  190MOL0     H25585   2.287   4.191   5.686  1.5815 -0.8049 -1.0348
  190MOL0     H25586   2.220   4.154   5.530 -0.6585  0.2073 -1.7281
  190MOL0     H25587   2.448   4.045   5.561  2.0186 -0.3582 -1.5539
  190MOL0     H25588   2.522   4.202   5.599 -0.1956  0.1343 -0.4203
  190MOL0     H25589   2.478   4.280   5.381 -0.5249  0.4141  0.7689
  190MOL0     H25590   2.406   4.135   5.326 -0.3857  1.2284 -0.6510
  190MOL0     H25591   2.701   4.172   5.432  0.1285  0.7585  0.1291
  190MOL0     H25592   2.623   4.011   5.404 -1.7257  0.4948  0.5950
  190MOL0     H25593   2.632   4.024   5.174  2.5808 -0.9457  0.1769
  190MOL0     H25594   2.608   4.197   5.178  1.0121 -0.4021 -1.4655
  190MOL0     H25595   2.828   4.131   5.085  1.4697 -0.4547 -1.1111
  190MOL0     H25596   2.860   4.212   5.237 -3.4373  2.0996  0.0714
  190MOL0     H25597   2.843   3.915   5.190  0.5560 -0.5697 -0.1031
  190MOL0     H25598   2.867   3.979   5.354 -0.4028 -0.5065 -0.0612
  190MOL0     H25599   3.062   4.063   5.323 -1.7340  1.2916 -0.2075
  190MOL0     H25600   3.070   3.895   5.243 -0.3551 -0.2356 -1.5237
  190MOL0     H25601   3.029   3.895   4.968  1.0299 -0.1950 -2.3608
  190MOL0     H25602   2.976   4.016   4.716  1.2655 -0.9778 -0.8855
  190MOL0     H25603   3.088   4.163   4.693  1.1863  0.2040  1.1459
  190MOL0     H25604   3.188   3.897   4.734 -1.4960  1.7189  1.8036
  190MOL0     H25605   3.156   3.969   4.577 -0.0859  2.3784 -0.9451
  190MOL0     H25606   3.351   4.080   4.782 -4.5764  0.7389  1.2067
  190MOL0     H25607   3.310   4.156   4.628  0.0688 -0.5128 -0.1963
  190MOL0     H25608   3.400   3.966   4.499 -3.2932  0.8817  0.6619
  190MOL0     H25609   3.435   3.881   4.644  1.6312 -0.9839  1.2434
  190MOL0     H25610   3.788   4.205   4.628 -2.0834  1.1267 -1.7368
  190MOL0     H25611   4.004   4.145   4.521 -1.0214  0.7385  0.2840
  190MOL0     H25612   4.229   3.989   4.168 -1.4456  0.1505  0.9107
  190MOL0     H25613   4.462   3.919   4.079 -1.9055  0.0913 -0.5824
  190MOL0     H25614   4.737   4.079   4.299 -3.2153 -1.6395  0.6694
  190MOL0     H25615   4.782   3.926   4.382  0.9284 -0.2993 -0.5065
  190MOL0     H25616   4.964   4.062   4.262  0.4812 -0.8750 -0.3043
  190MOL0     H25617   4.962   3.897   4.255  0.5892  0.7870  2.5409
  190MOL0     H25618   4.890   3.906   4.017  1.9599  1.0378 -1.4736
  190MOL0     H25619   4.831   4.074   4.036  0.2903  0.5355 -1.3899
  190MOL0     H25620   5.122   3.983   4.065 -1.5132 -1.1085  2.0135
  190MOL0     H25621   5.060   4.161   4.052  0.3229  0.5809 -1.5618
  190MOL0     H25622   4.989   4.109   3.828 -0.7459  0.6554  0.4949
  190MOL0     H25623   5.059   3.948   3.834  1.0973 -0.0924  0.3990
  190MOL0     H25624   5.192   4.166   3.723  0.7853  2.4961  0.4885
  190MOL0     H25625   5.240   4.187   3.900 -0.9746 -1.0529  1.8803
  190MOL0     H25626   5.292   3.926   3.749 -0.1092 -0.0478 -0.7075
  190MOL0     H25627   5.334   3.965   3.910  0.0084  0.7624  0.3486
  190MOL0     H25628   5.535   4.002   3.765  0.9260  0.7551  0.3586
  190MOL0     H25629   5.452   4.123   3.679 -0.7975 -3.5185 -1.5269
  190MOL0     H25630   4.602   3.910   4.481 -0.1218 -1.6056 -0.8367
  190MOL0     H25631   4.381   3.955   4.564  2.4199 -2.2831  0.3540
  190MOL0     H25632   3.804   3.804   4.349  2.3393 -0.0623 -0.1335
  190MOL0     H25633   3.600   3.845   4.483  1.4886 -1.7824  1.5715
  190MOL0     H25634   2.396   4.563   5.675 -0.3817  2.9976  2.7336
  190MOL0     H25635   2.260   4.681   5.842  2.5605 -1.4839  2.1588
  190MOL0     H25636   1.994   4.959   6.112  1.1677 -0.8049 -1.9762
  190MOL0     H25637   1.797   5.078   6.202 -2.1136  1.3600  0.2355
  190MOL0     H25638   1.634   5.116   6.316  2.1415 -2.6349  0.1845
  190MOL0     H25639   1.541   4.996   6.399 -1.7731  1.1976  1.0782
  190MOL0     H25640   1.407   5.175   6.400  0.0592  0.7108 -0.5028
  190MOL0     H25641   1.337   5.072   6.271 -0.9193  0.2373 -2.0411
  190MOL0     H25642   1.526   5.292   6.192  0.5386 -1.7549 -0.8671
  190MOL0     H25643   1.363   5.340   6.225  1.5678  0.3988  3.4537
  190MOL0     H25644   1.456   5.122   6.033  1.0286  0.5130  1.0696
  190MOL0     H25645   1.280   5.159   6.054 -0.4652  1.6430 -1.6753
  190MOL0     H25646   1.429   5.499   5.835  1.7719 -0.4291 -0.3092
  190MOL0     H25647   1.555   4.758   6.059 -0.4276  0.9591 -0.8653
  190MOL0     H25648   1.622   4.585   5.929 -0.8581  1.3369 -1.1969
  190MOL0     H25649   1.762   4.610   5.828 -1.1534 -2.4095  0.4537
  190MOL0     H25650   1.782   4.529   5.983  0.3513  0.1932 -1.0396
  191MOL0     O25651   9.709   4.668   2.831 -0.5791  0.0488 -1.0513
  191MOL0     C25652   9.753   4.554   2.812 -0.8503 -0.0891 -0.1816
  191MOL0     O25653   9.884   4.515   2.821 -0.4985 -0.2062  0.3338
  191MOL0     C25654   9.972   4.607   2.878  0.6194  0.4849 -0.0917
  191MOL0     C25655   9.988   4.744   2.843 -0.0951 -0.0663  0.3234
  191MOL0     C25656  10.100   4.817   2.905  0.6823 -0.4469  0.3020
  191MOL0     C25657  10.175   4.766   3.016  1.2527 -0.1575  1.3924
  191MOL0     O25658  10.271   4.828   3.091  0.1539 -0.2530 -0.5492
  191MOL0     C25659  10.371   4.906   3.026 -0.0937  0.7565  0.2704
  191MOL0     C25660  10.456   4.799   2.948 -0.1077  0.3847 -0.2349
  191MOL0     C25661  10.535   4.720   3.048  0.2116 -0.1407  0.4162
  191MOL0     C25662  10.635   4.618   2.983 -0.1440 -0.7906  0.7959
  191MOL0     C25663  10.747   4.585   3.083 -0.0058 -0.3350  0.6766
  191MOL0     C25664  10.866   4.512   3.022  0.1076 -0.1468 -1.2993
  191MOL0     C25665  10.952   4.607   2.945 -0.1081  0.1316 -0.1494
  191MOL0     C25666  11.085   4.543   2.902  0.0144  0.0030  0.4851
  191MOL0     N25667  11.188   4.562   3.002 -0.0751  0.1483  1.0074
  191MOL0     C25668  11.257   4.679   3.015 -0.3714  0.1275  0.3404
  191MOL0     C25669  11.344   4.658   3.117  0.9434  0.9167  0.4232
  191MOL0     C25670  11.429   4.757   3.176 -0.9931 -0.4367  0.2241
  191MOL0     C25671  11.549   4.790   3.086 -0.0700 -0.0783 -0.0191
  191MOL0     C25672  11.645   4.894   3.147  0.5284  0.5386 -0.5924
  191MOL0     C25673  11.698   4.846   3.286  0.5918  0.5275 -0.3832
  191MOL0     O25674  11.791   4.941   3.344  0.4121 -0.1893 -0.0495
  191MOL0     C25675  11.927   4.951   3.307 -0.1669 -0.3928  0.8334
  191MOL0     C25676  11.985   4.923   3.183 -1.0892 -0.3937 -0.4033
  191MOL0     C25677  12.124   4.951   3.167  0.1189  0.5082  0.3840
  191MOL0     C25678  12.197   5.016   3.261 -0.5117 -0.4438 -0.9625
  191MOL0     C25679  12.337   5.047   3.233 -0.3236  0.0367 -0.1855
  191MOL0     O25680  12.389   4.982   3.129 -0.3040 -0.0731  0.3878
  191MOL0     C25681  12.511   5.012   3.076  0.8922 -0.8515 -0.4257
  191MOL0     C25682  12.540   5.133   3.019 -0.4014  0.3046 -0.5322
  191MOL0     C25683  12.671   5.163   2.971  0.7341 -0.2829  1.0245
  191MOL0     C25684  12.774   5.065   2.986  0.7029 -0.2827  0.6211
  191MOL0     O25685  12.908   5.101   2.970  0.3713  0.6297 -0.2392
  191MOL0     C25686  12.941   5.238   2.994  0.3573  0.5531  0.0938
  191MOL0     C25687  13.088   5.247   3.020  0.0939 -0.2313 -0.4209
  191MOL0     C25688  13.117   5.208   3.164  0.3516  1.2080 -0.6651
  191MOL0     C25689  13.268   5.236   3.193 -0.2255  0.4849  0.3333
  191MOL0     C25690  13.315   5.165   3.324  0.4145 -0.4656 -0.0105
  191MOL0     C25691  13.332   5.016   3.324  0.4300 -0.0671  0.3883
  191MOL0     C25692  13.438   4.969   3.224 -0.6346 -0.7264 -0.1680
  191MOL0     C25693  13.421   4.821   3.177  0.1936 -0.1600 -0.1617
  191MOL0    Cl25694  13.474   4.700   3.291  0.1734  0.2180  0.2664
  191MOL0     C25695  12.752   4.942   3.035  0.3437  0.2595 -0.5734
  191MOL0     C25696  12.615   4.919   3.085  0.1064 -0.8084  0.0484
  191MOL0     O25697  12.394   5.142   3.301  0.9208  0.7057 -0.2440
  191MOL0     C25698  12.133   5.049   3.384 -0.0907  0.3641  0.8426
  191MOL0     C25699  11.999   5.014   3.405 -0.7995 -0.3126  0.0615
  191MOL0     N25700  11.343   4.516   3.141 -0.5256  0.5036  0.4806
  191MOL0     N25701  11.249   4.461   3.072  0.3512 -0.3234  0.0910
  191MOL0     C25702  10.150   4.632   3.047  0.1313  0.2098 -0.1913
  191MOL0     C25703  10.058   4.552   2.974  0.0991  0.0343  0.6292
  191MOL0     C25704   9.661   4.455   2.780  0.2741  1.3642  0.3248
  191MOL0     C25705   9.699   4.370   2.671  0.2057  0.1564  0.0999
  191MOL0     C25706   9.599   4.296   2.601  0.3285  0.8396 -0.2143
  191MOL0     C25707   9.467   4.283   2.652 -0.1480  0.0121  1.0104
  191MOL0     O25708   9.377   4.200   2.597  0.0405  0.4452 -0.1751
  191MOL0     C25709   9.423   4.067   2.561 -0.1068  0.7529 -0.6333
  191MOL0     C25710   9.305   3.976   2.600  0.7333  0.6666  1.1647
  191MOL0     C25711   9.165   4.022   2.551 -0.3885 -0.3449  0.0890
  191MOL0     C25712   9.079   3.905   2.506 -0.7741 -0.0839  0.2911
  191MOL0     C25713   8.937   3.949   2.477 -0.8921 -0.5371  0.2328
  191MOL0     C25714   8.825   3.989   2.451 -0.3420 -0.5639 -0.5562
  191MOL0     C25715   9.438   4.364   2.766 -1.0827  0.7031 -0.4018
  191MOL0     C25716   9.530   4.451   2.834  0.0834  0.1369 -0.7812
  191MOL0     C25717   9.482   4.528   2.949 -0.5091  0.0114  0.0721
  191MOL0     H25718   9.932   4.801   2.769  0.9460  1.5730  0.7293
  191MOL0     H25719  10.118   4.920   2.874 -1.2000 -0.9572 -3.0505
  191MOL0     H25720  10.328   4.968   2.946 -0.2785 -0.9518 -1.0336
  191MOL0     H25721  10.432   4.960   3.098  1.0364 -0.9172  0.6357
  191MOL0     H25722  10.523   4.848   2.878 -1.2271 -2.7956 -3.8845
  191MOL0     H25723  10.401   4.720   2.896 -1.5954  0.4506  1.1493
  191MOL0     H25724  10.469   4.665   3.116 -0.5972  1.2103  0.7552
  191MOL0     H25725  10.584   4.787   3.119  1.0785 -1.7344  1.3761
  191MOL0     H25726  10.588   4.524   2.951  0.5488 -0.7114 -0.5470
  191MOL0     H25727  10.691   4.650   2.895  0.0556 -1.2481  0.7521
  191MOL0     H25728  10.779   4.676   3.133  1.6649 -1.0674  0.9873
  191MOL0     H25729  10.704   4.513   3.153  0.0014 -0.2308  0.7871
  191MOL0     H25730  10.929   4.472   3.101  0.9653  0.4826 -1.6463
  191MOL0     H25731  10.827   4.436   2.954  0.7443 -0.1758 -1.6314
  191MOL0     H25732  10.973   4.693   3.010 -2.8415 -0.7734  2.1791
  191MOL0     H25733  10.904   4.648   2.856  2.0262 -3.4245 -3.2142
  191MOL0     H25734  11.071   4.436   2.887 -0.2482  0.3589 -2.3191
  191MOL0     H25735  11.125   4.575   2.805  0.8360 -0.6646  0.6029
  191MOL0     H25736  11.232   4.778   2.977  1.1594 -0.4402 -2.4211
  191MOL0     H25737  11.371   4.845   3.206  4.3427  3.2375  1.2537
  191MOL0     H25738  11.471   4.701   3.261 -0.7904 -1.8100 -0.7474
  191MOL0     H25739  11.608   4.699   3.067 -1.0696 -0.4859 -1.2844
  191MOL0     H25740  11.518   4.828   2.988  0.2590 -0.9455 -0.4701
  191MOL0     H25741  11.587   4.985   3.161 -1.8701 -0.7341 -1.6228
  191MOL0     H25742  11.722   4.912   3.072  0.9144 -0.4738 -0.4669
  191MOL0     H25743  11.740   4.746   3.270 -3.3436 -1.5971  1.2839
  191MOL0     H25744  11.618   4.840   3.360  0.9547  1.0800  0.0584
  191MOL0     H25745  11.925   4.882   3.102  2.2352 -1.9981 -2.2413
  191MOL0     H25746  12.167   4.939   3.069 -1.3334 -0.3793 -0.1870
  191MOL0     H25747  12.460   5.207   3.018 -1.1904 -0.4114  1.8214
  191MOL0     H25748  12.670   5.267   2.939  0.6834 -0.3742  0.7234
  191MOL0     H25749  12.928   5.305   2.909 -0.8290 -1.0955 -1.0865
  191MOL0     H25750  12.879   5.280   3.073  2.5212  0.6793  1.8220
  191MOL0     H25751  13.155   5.191   2.954  1.5877  0.0920  0.7617
  191MOL0     H25752  13.119   5.352   3.029  0.1545 -0.2496 -0.4127
  191MOL0     H25753  13.045   5.261   3.228 -3.0433 -0.4181 -2.8755
  191MOL0     H25754  13.096   5.102   3.181  3.1498  0.6192 -0.4633
  191MOL0     H25755  13.290   5.343   3.192  2.5775 -0.0262  0.5436
  191MOL0     H25756  13.308   5.189   3.103 -3.8083 -3.3776  0.4193
  191MOL0     H25757  13.246   5.190   3.406  0.2701  0.3604 -0.3806
  191MOL0     H25758  13.407   5.223   3.336  0.2728  0.0478 -1.2684
  191MOL0     H25759  13.360   4.975   3.422  2.1691 -2.2423 -0.9304
  191MOL0     H25760  13.229   4.985   3.302 -0.5805  2.5117  1.0984
  191MOL0     H25761  13.535   4.984   3.272 -0.4771  0.1251 -0.7376
  191MOL0     H25762  13.432   5.035   3.137 -1.3098  0.3230  0.6554
  191MOL0     H25763  13.316   4.812   3.145  0.4901 -0.6340 -1.0503
  191MOL0     H25764  13.476   4.797   3.085  1.1483 -0.8027  0.5620
  191MOL0     H25765  12.841   4.880   3.042  1.5591  1.9405 -0.5888
  191MOL0     H25766  12.577   4.827   3.128 -3.3555  0.0380 -0.9334
  191MOL0     H25767  12.186   5.111   3.457  2.8587  0.2412 -1.0552
  191MOL0     H25768  11.942   5.047   3.491  0.0583  1.4473 -0.0164
  191MOL0     H25769  10.210   4.579   3.120  0.3030 -0.5634 -0.8804
  191MOL0     H25770  10.035   4.448   2.991 -0.2080  0.1322  0.8132
  191MOL0     H25771   9.797   4.382   2.627 -0.0095 -0.8345 -0.6757
  191MOL0     H25772   9.630   4.236   2.516  0.9006 -1.0640  1.2798
  191MOL0     H25773   9.509   4.042   2.624 -0.6931 -0.8286 -0.3989
  191MOL0     H25774   9.447   4.062   2.454 -0.5300 -0.4707 -0.6900
  191MOL0     H25775   9.310   3.985   2.709  1.6198  2.0336  1.0402
  191MOL0     H25776   9.320   3.871   2.573 -0.6635  1.3899 -3.1543
  191MOL0     H25777   9.171   4.096   2.470 -1.3099  0.9858  1.1873
  191MOL0     H25778   9.117   4.081   2.630 -0.4912  1.2446 -1.1027
  191MOL0     H25779   9.127   3.863   2.417  0.2918 -0.7296  1.1514
  191MOL0     H25780   9.076   3.826   2.581 -1.0600 -0.2901  0.0631
  191MOL0     H25781   8.732   4.037   2.428 -0.9769 -1.0403  0.8968
  191MOL0     H25782   9.339   4.366   2.811 -1.1965 -0.0980 -0.6113
  191MOL0     H25783   9.484   4.636   2.927 -2.6047 -0.0699 -0.7025
  191MOL0     H25784   9.381   4.497   2.978 -0.0609 -0.1765  1.5003
  191MOL0     H25785   9.551   4.510   3.032 -0.2046 -0.2097 -0.2306
  192MOL0     O25786   5.098   1.032  10.303 -0.3256  0.0671  0.2635
  192MOL0     C25787   5.029   1.123  10.260  0.1687  0.4498 -0.3589
  192MOL0     O25788   5.056   1.259  10.274  0.1695 -0.7455  0.4686
  192MOL0     C25789   5.191   1.299  10.305 -0.3181 -0.4680 -0.0609
  192MOL0     C25790   5.211   1.359  10.435 -0.2367  0.1078  0.0075
  192MOL0     C25791   5.336   1.384  10.482  0.2478  0.2620 -0.2123
  192MOL0     C25792   5.449   1.367  10.406  0.0277 -0.2130  0.6366
  192MOL0     O25793   5.580   1.391  10.432 -0.5080 -0.1945 -0.0780
  192MOL0     C25794   5.618   1.461  10.547 -0.2430  0.2196 -1.2216
  192MOL0     C25795   5.690   1.369  10.655  0.7164  0.0283 -0.0653
  192MOL0     C25796   5.832   1.324  10.604 -0.0408 -0.1953  0.7609
  192MOL0     C25797   5.942   1.280  10.701  0.1785 -0.5598  0.2631
  192MOL0     C25798   6.050   1.203  10.623 -0.6405 -0.1437 -0.1583
  192MOL0     C25799   6.173   1.165  10.715  0.4611  0.7782 -0.0680
  192MOL0     C25800   6.304   1.134  10.627 -0.2845  0.1490  0.7560
  192MOL0     C25801   6.266   1.046  10.507 -0.0084  0.0713  0.3798
  192MOL0     N25802   6.384   1.014  10.431  0.7010  0.2541  0.6329
  192MOL0     C25803   6.429   0.894  10.407 -0.7426 -0.7338 -0.8468
  192MOL0     C25804   6.510   0.900  10.294 -1.3596 -1.4992  0.3978
  192MOL0     C25805   6.576   0.786  10.224 -0.1627 -0.7174  0.9113
  192MOL0     C25806   6.723   0.823  10.213  0.9946 -0.1014  0.1364
  192MOL0     C25807   6.754   0.889  10.072  0.4419 -0.7312  0.7859
  192MOL0     C25808   6.753   0.774   9.966  0.0846 -0.9075 -0.1542
  192MOL0     O25809   6.748   0.828   9.836  0.2199 -0.2132 -0.3312
  192MOL0     C25810   6.633   0.840   9.759 -0.0146 -0.1643  0.1155
  192MOL0     C25811   6.646   0.902   9.633 -0.0217  0.8393 -0.1124
  192MOL0     C25812   6.531   0.894   9.549 -0.5028 -0.2736 -0.4485
  192MOL0     C25813   6.412   0.820   9.582 -0.1075 -0.0475  0.9364
  192MOL0     C25814   6.296   0.825   9.488 -0.9010  0.9198 -0.3675
  192MOL0     O25815   6.310   0.902   9.381 -0.4373 -0.3929 -0.5244
  192MOL0     C25816   6.199   0.921   9.304  0.1940  0.4180  0.0678
  192MOL0     C25817   6.215   0.925   9.171 -0.9645 -0.4898  0.1432
  192MOL0     C25818   6.104   0.947   9.076  0.8995 -0.4344  0.0688
  192MOL0     C25819   5.975   0.970   9.125 -0.6656  0.1805  0.1312
  192MOL0     O25820   5.865   0.989   9.040 -0.2722  0.6071  1.0146
  192MOL0     C25821   5.878   0.973   8.897  0.2770 -0.0442  1.2914
  192MOL0     C25822   5.733   0.983   8.835  0.0076  0.0397 -0.2550
  192MOL0     C25823   5.671   1.123   8.848 -0.1328 -0.3141  0.4451
  192MOL0     C25824   5.526   1.155   8.813  0.4935  0.2252 -0.7758
  192MOL0     C25825   5.446   1.105   8.930 -0.0738  0.5625  0.7021
  192MOL0     C25826   5.299   1.141   8.909 -0.0598 -0.0834  0.2929
  192MOL0     C25827   5.222   1.057   8.804 -0.2704  0.8638  0.2216
  192MOL0     C25828   5.091   0.998   8.869  0.1313  0.3541 -0.6477
  192MOL0    Cl25829   5.005   0.882   8.767 -0.0537 -0.1920  0.0843
  192MOL0     C25830   5.949   0.966   9.262  0.4467  0.1226 -0.4333
  192MOL0     C25831   6.063   0.940   9.347  0.1888 -0.1794 -0.5117
  192MOL0     O25832   6.196   0.759   9.524 -0.5345  0.1932 -0.0385
  192MOL0     C25833   6.408   0.760   9.699  0.6405  0.6586 -0.3020
  192MOL0     C25834   6.510   0.777   9.785 -1.3013 -0.6624 -0.4211
  192MOL0     N25835   6.489   1.024  10.244  0.2869  0.5422  0.2058
  192MOL0     N25836   6.427   1.095  10.332 -0.7527 -0.4879  0.6600
  192MOL0     C25837   5.426   1.308  10.277  0.4140 -0.5328 -0.1717
  192MOL0     C25838   5.303   1.269  10.232  0.2323 -0.2198  0.8805
  192MOL0     C25839   4.914   1.075  10.195 -0.6776 -0.4783 -0.1578
  192MOL0     C25840   4.818   0.998  10.261  0.3031 -0.0561 -0.0530
  192MOL0     C25841   4.699   0.952  10.206  0.8099  1.1465  0.4256
  192MOL0     C25842   4.673   0.986  10.076 -0.2537  0.4827  0.9438
  192MOL0     O25843   4.566   0.950  10.009 -0.5509 -0.6728  0.2212
  192MOL0     C25844   4.433   0.948  10.060  0.0641  0.2434  0.7331
  192MOL0     C25845   4.333   0.974   9.946 -0.9053  0.1264  0.6218
  192MOL0     C25846   4.327   1.121   9.890 -0.6148 -0.1837  0.0693
  192MOL0     C25847   4.306   1.236   9.986  0.5619 -0.1437 -0.3185
  192MOL0     C25848   4.171   1.233  10.046  0.2299 -0.3467  0.0174
  192MOL0     C25849   4.068   1.227  10.102  0.3388 -0.0599 -0.0385
  192MOL0     C25850   4.758   1.073  10.003 -0.2212 -0.4903 -0.2626
  192MOL0     C25851   4.869   1.122  10.063 -0.0181 -0.1847 -0.4621
  192MOL0     C25852   4.959   1.221   9.986  1.5285  0.6195 -0.2009
  192MOL0     H25853   5.122   1.366  10.496 -1.3463 -0.1336 -1.5212
  192MOL0     H25854   5.338   1.417  10.586 -0.1923 -1.8101  0.4974
  192MOL0     H25855   5.688   1.540  10.518  1.1145 -0.4486  0.0842
  192MOL0     H25856   5.534   1.514  10.594 -1.1882 -0.5058 -2.0429
  192MOL0     H25857   5.622   1.284  10.664  2.6068 -1.9139 -2.5362
  192MOL0     H25858   5.699   1.431  10.744 -0.9871  0.1450  0.0542
  192MOL0     H25859   5.870   1.410  10.548 -0.2041 -1.1161 -0.7981
  192MOL0     H25860   5.812   1.249  10.527 -0.8315  2.3931 -1.7405
  192MOL0     H25861   5.980   1.370  10.749  3.5304  0.1994 -3.3791
  192MOL0     H25862   5.899   1.211  10.774 -2.2205 -1.2997 -1.6891
  192MOL0     H25863   6.013   1.113  10.572  2.0363  0.2692 -3.1529
  192MOL0     H25864   6.098   1.267  10.549  1.2568 -2.0996 -0.7666
  192MOL0     H25865   6.191   1.240  10.793  0.4079 -1.0069  1.7514
  192MOL0     H25866   6.140   1.083  10.780 -0.5143 -0.2661 -1.8169
  192MOL0     H25867   6.371   1.072  10.688 -0.5717 -0.2894  0.6281
  192MOL0     H25868   6.353   1.225  10.592  2.6638 -1.8351 -0.8181
  192MOL0     H25869   6.220   0.953  10.542  0.5968 -0.2346  0.3945
  192MOL0     H25870   6.204   1.096  10.433 -0.6467  0.5323  1.2091
  192MOL0     H25871   6.408   0.808  10.470 -2.0110 -1.0170 -1.6212
  192MOL0     H25872   6.566   0.697  10.287  0.3773 -2.2844 -1.1265
  192MOL0     H25873   6.529   0.765  10.127  0.6287 -0.3496  0.4472
  192MOL0     H25874   6.752   0.892  10.293 -0.7067  1.4604 -0.5210
  192MOL0     H25875   6.775   0.727  10.224  0.6899 -0.2797  0.0427
  192MOL0     H25876   6.846   0.947  10.081 -0.1805  0.7846 -1.7713
  192MOL0     H25877   6.681   0.963  10.039  1.4863 -1.4571 -3.8805
  192MOL0     H25878   6.672   0.701   9.977 -0.4053 -0.2547  0.5746
  192MOL0     H25879   6.841   0.709   9.975 -0.5493 -1.8714 -0.6884
  192MOL0     H25880   6.727   0.961   9.590 -0.3552 -0.3455 -2.4710
  192MOL0     H25881   6.537   0.957   9.461 -0.6848  1.8465  0.9799
  192MOL0     H25882   6.314   0.922   9.126 -1.8863  0.2729 -2.0886
  192MOL0     H25883   6.138   0.944   8.973  1.1774  0.6035  0.1174
  192MOL0     H25884   5.934   1.053   8.847  1.4308 -0.2374  2.2319
  192MOL0     H25885   5.920   0.873   8.883  0.4628 -0.2776  3.2615
  192MOL0     H25886   5.754   0.960   8.731  0.5124 -0.4669 -0.0421
  192MOL0     H25887   5.669   0.909   8.884  0.7935 -1.6258 -1.6668
  192MOL0     H25888   5.699   1.163   8.946 -1.3105 -0.0920  0.7074
  192MOL0     H25889   5.738   1.173   8.777 -0.8788 -1.0887 -0.8413
  192MOL0     H25890   5.486   1.101   8.727  1.5527  1.1636 -1.8934
  192MOL0     H25891   5.501   1.261   8.807 -0.0951  0.2004  0.6668
  192MOL0     H25892   5.467   1.152   9.027  2.1237  1.2846 -0.0627
  192MOL0     H25893   5.466   0.998   8.939 -2.2206  0.1039  0.4874
  192MOL0     H25894   5.241   1.137   9.002 -3.3326 -2.3199 -1.6276
  192MOL0     H25895   5.301   1.242   8.868  1.8845  0.0515  0.6226
  192MOL0     H25896   5.293   0.983   8.766 -1.5594 -0.7244  0.8475
  192MOL0     H25897   5.194   1.120   8.718 -1.7184 -1.2237 -0.9335
  192MOL0     H25898   5.113   0.952   8.966 -0.8715 -2.3598 -1.6152
  192MOL0     H25899   5.030   1.082   8.903  0.5893  0.6500 -0.5508
  192MOL0     H25900   5.856   0.992   9.311  0.7703  1.8919 -0.6739
  192MOL0     H25901   6.026   0.929   9.448  1.9560 -1.0169  0.0785
  192MOL0     H25902   6.324   0.702   9.735  1.4645 -0.8895 -0.8126
  192MOL0     H25903   6.504   0.732   9.883  0.0200  1.5287  0.7321
  192MOL0     H25904   5.507   1.275  10.213 -1.2748 -2.5883 -1.3607
  192MOL0     H25905   5.310   1.203  10.146  0.7967  1.8638 -0.7355
  192MOL0     H25906   4.837   0.966  10.363  3.3986  1.1742 -0.1200
  192MOL0     H25907   4.632   0.879  10.251  1.2843  0.2635 -0.2777
  192MOL0     H25908   4.430   1.013  10.148  3.4437 -1.5635  2.3933
  192MOL0     H25909   4.416   0.853  10.110 -1.0703  0.0342 -0.0030
  192MOL0     H25910   4.232   0.950   9.981 -1.6439 -3.5535 -3.2505
  192MOL0     H25911   4.358   0.914   9.859 -0.4585  1.6080 -0.3168
  192MOL0     H25912   4.253   1.126   9.810 -0.6492  1.7183  0.1662
  192MOL0     H25913   4.422   1.152   9.846  0.4296  0.2358  2.4442
  192MOL0     H25914   4.383   1.249  10.063 -0.2928  1.8548  0.2752
  192MOL0     H25915   4.325   1.321   9.920  2.3537  0.1557  0.5305
  192MOL0     H25916   3.969   1.232  10.143  0.2001 -1.1770 -0.2124
  192MOL0     H25917   4.744   1.097   9.898 -2.1788 -2.2456 -0.4751
  192MOL0     H25918   4.968   1.314  10.043  1.7096 -0.1028  0.9959
  192MOL0     H25919   5.062   1.187   9.970  0.2972 -2.9520 -1.3861
  192MOL0     H25920   4.919   1.248   9.888  1.8659  0.6628 -0.3289
  193MOL0     O25921   5.985   6.156   7.844 -0.5192  0.1991  0.1065
  193MOL0     C25922   6.010   6.269   7.794 -0.8695  0.2861 -0.1358
  193MOL0     O25923   6.107   6.296   7.709  0.1952  0.1654 -0.2050
  193MOL0     C25924   6.191   6.198   7.662 -0.1032  0.0174 -0.0896
  193MOL0     C25925   6.165   6.056   7.665 -0.6983 -0.0583  0.7554
  193MOL0     C25926   6.254   5.978   7.602 -0.2121  0.0621  0.5067
  193MOL0     C25927   6.373   6.023   7.544  0.3526 -0.2060  0.8285
  193MOL0     O25928   6.451   5.921   7.489  0.2501  0.6448 -0.6505
  193MOL0     C25929   6.531   5.953   7.376 -0.9467  0.1267 -0.9704
  193MOL0     C25930   6.608   5.837   7.331 -0.4376  0.5514  1.2699
  193MOL0     C25931   6.734   5.879   7.261 -0.1338  0.7463  0.1730
  193MOL0     C25932   6.716   5.969   7.139  0.1221 -0.0033  0.6045
  193MOL0     C25933   6.827   5.941   7.030  0.0605  0.9541  0.9384
  193MOL0     C25934   6.784   5.826   6.925 -0.7385  0.7850 -0.4787
  193MOL0     C25935   6.873   5.837   6.794 -1.0836  0.0909 -0.4277
  193MOL0     C25936   6.803   5.755   6.687 -0.3611 -0.5216 -0.3604
  193MOL0     N25937   6.828   5.609   6.702 -0.0877  0.5886  0.0135
  193MOL0     C25938   6.950   5.553   6.692  0.6789  0.5108  0.0858
  193MOL0     C25939   6.932   5.422   6.715 -0.1672  0.2404  0.0026
  193MOL0     C25940   7.044   5.320   6.725 -0.0851  0.5137 -0.0458
  193MOL0     C25941   7.139   5.352   6.848  0.0442 -0.8022  0.0570
  193MOL0     C25942   7.234   5.247   6.886 -0.4850 -0.0872  0.1652
  193MOL0     C25943   7.350   5.216   6.788 -0.2088 -0.0579  0.1353
  193MOL0     O25944   7.458   5.314   6.798 -0.4594 -0.2487 -0.7484
  193MOL0     C25945   7.569   5.272   6.866 -0.4254 -0.2785  0.3341
  193MOL0     C25946   7.565   5.188   6.978 -1.2715 -0.8078 -1.0313
  193MOL0     C25947   7.686   5.151   7.043 -0.0075 -0.3822 -0.0598
  193MOL0     C25948   7.809   5.194   6.994  0.7798 -0.0439  0.3079
  193MOL0     C25949   7.933   5.149   7.058 -0.3067  0.4465  0.4594
  193MOL0     O25950   7.923   5.035   7.127 -0.5719 -0.4651 -0.6792
  193MOL0     C25951   8.034   4.979   7.185 -0.1669  0.2460 -0.5738
  193MOL0     C25952   8.121   5.048   7.265 -0.0318 -0.1187 -0.3442
  193MOL0     C25953   8.225   4.990   7.336 -0.5807  0.6426  0.2172
  193MOL0     C25954   8.262   4.856   7.310  0.8003 -0.1800  0.6561
  193MOL0     O25955   8.373   4.806   7.368  0.3427 -0.6387  0.4120
  193MOL0     C25956   8.412   4.676   7.338  0.3038  0.5408  1.0175
  193MOL0     C25957   8.542   4.638   7.404 -0.1159 -0.0285  0.0409
  193MOL0     C25958   8.546   4.705   7.548 -0.1548  0.0983  0.7933
  193MOL0     C25959   8.651   4.816   7.562  0.6751 -0.3794 -0.4659
  193MOL0     C25960   8.643   4.881   7.699 -0.4664 -0.3409  1.1146
  193MOL0     C25961   8.717   4.797   7.799 -0.1899 -0.3905 -0.3592
  193MOL0     C25962   8.708   4.866   7.933 -0.1046 -0.0991  0.1086
  193MOL0     C25963   8.757   4.775   8.042 -0.4053  0.9686  0.0621
  193MOL0    Cl25964   8.935   4.776   8.037  0.5868 -0.0853  0.0797
  193MOL0     C25965   8.176   4.781   7.230  1.1263 -0.2351  0.0941
  193MOL0     C25966   8.059   4.841   7.172 -0.1216 -1.0895 -0.0557
  193MOL0     O25967   8.036   5.208   7.031 -0.3324  0.2035  0.5263
  193MOL0     C25968   7.814   5.290   6.891 -0.9262 -0.0379 -0.0551
  193MOL0     C25969   7.693   5.325   6.826 -0.4770  0.9725 -0.5017
  193MOL0     N25970   6.794   5.397   6.725 -0.2358 -0.8562 -0.1838
  193MOL0     N25971   6.729   5.514   6.730  0.0071 -0.4637  0.4520
  193MOL0     C25972   6.412   6.156   7.558  0.7581  0.7977  0.7266
  193MOL0     C25973   6.314   6.240   7.605 -0.4533 -0.0280 -0.0301
  193MOL0     C25974   5.927   6.386   7.842  0.4727  0.2278  0.1800
  193MOL0     C25975   5.793   6.360   7.868 -0.5651  0.1878  0.0991
  193MOL0     C25976   5.714   6.463   7.907  0.7713  1.0545  0.1762
  193MOL0     C25977   5.760   6.593   7.915 -1.1146 -0.4938 -0.9930
  193MOL0     O25978   5.682   6.709   7.953 -0.2310  0.6943  0.6446
  193MOL0     C25979   5.544   6.686   7.981  0.9578  0.1709  0.2264
  193MOL0     C25980   5.465   6.665   7.851 -0.5940 -0.1421 -0.1333
  193MOL0     C25981   5.477   6.800   7.777  0.1480 -1.3522  0.3504
  193MOL0     C25982   5.444   6.783   7.634  0.9035  0.2942 -0.5643
  193MOL0     C25983   5.299   6.800   7.603  0.3912  0.0248  0.0407
  193MOL0     C25984   5.177   6.815   7.589 -0.0472  0.1105  0.5127
  193MOL0     C25985   5.893   6.622   7.883 -0.4508  0.4687 -0.3546
  193MOL0     C25986   5.982   6.518   7.851  0.8695 -0.6281 -0.1068
  193MOL0     C25987   6.119   6.563   7.805  0.0627  0.0401  0.7149
  193MOL0     H25988   6.073   6.005   7.690  0.1161 -1.7869  0.3453
  193MOL0     H25989   6.244   5.870   7.592 -1.2026  0.0522  1.5113
  193MOL0     H25990   6.470   5.999   7.297 -2.9061  0.7733  0.8023
  193MOL0     H25991   6.608   6.021   7.413  1.2600 -3.2470  1.1372
  193MOL0     H25992   6.546   5.789   7.255  0.4234 -1.4276  1.7683
  193MOL0     H25993   6.628   5.764   7.410  1.9967  1.7995  1.9470
  193MOL0     H25994   6.782   5.787   7.227 -1.8970 -0.6879  1.4033
  193MOL0     H25995   6.792   5.935   7.334  0.3785  1.3248 -0.6513
  193MOL0     H25996   6.620   5.944   7.092  0.8495  2.2808 -2.3326
  193MOL0     H25997   6.712   6.074   7.169 -4.3022  0.5009 -0.9340
  193MOL0     H25998   6.835   6.042   6.987  0.8062  0.6145  0.2269
  193MOL0     H25999   6.920   5.903   7.074  1.1113  3.2880  0.9173
  193MOL0     H26000   6.788   5.723   6.961 -2.2694  0.7681 -0.2958
  193MOL0     H26001   6.676   5.825   6.908 -0.9635  0.7854  0.8472
  193MOL0     H26002   6.967   5.786   6.816 -3.0630 -2.6513  2.6985
  193MOL0     H26003   6.896   5.938   6.757 -2.1312 -0.6261 -3.3149
  193MOL0     H26004   6.695   5.768   6.685 -0.6856 -2.6775  0.3513
  193MOL0     H26005   6.838   5.795   6.591  0.6193 -1.4123 -0.4001
  193MOL0     H26006   7.045   5.599   6.667  0.6374  0.6156  0.1236
  193MOL0     H26007   6.997   5.222   6.739  0.1374  0.5720  1.1786
  193MOL0     H26008   7.106   5.316   6.634  1.6467  0.8814  1.0780
  193MOL0     H26009   7.186   5.445   6.813 -2.5451 -0.5376 -3.3288
  193MOL0     H26010   7.071   5.385   6.927  1.3424  2.4152 -0.0073
  193MOL0     H26011   7.173   5.157   6.897  0.1906 -0.3601  2.1184
  193MOL0     H26012   7.284   5.269   6.981 -0.1281 -4.1950  1.1440
  193MOL0     H26013   7.312   5.208   6.686  0.2888  0.1878 -0.0705
  193MOL0     H26014   7.394   5.117   6.798  2.1627  0.8458 -0.6592
  193MOL0     H26015   7.471   5.150   7.015 -2.0678  2.5088  0.6975
  193MOL0     H26016   7.693   5.080   7.125  2.7380  0.3139  0.4094
  193MOL0     H26017   8.102   5.153   7.286  1.5890  0.5029 -1.7953
  193MOL0     H26018   8.280   5.057   7.402  1.1302  1.9041 -2.3179
  193MOL0     H26019   8.330   4.611   7.372  0.0844  0.8011  0.9854
  193MOL0     H26020   8.414   4.668   7.229 -1.4664 -1.1240  1.0540
  193MOL0     H26021   8.555   4.530   7.396 -1.8796 -0.1851 -1.5972
  193MOL0     H26022   8.625   4.681   7.349  0.1105  2.4744  2.1516
  193MOL0     H26023   8.449   4.739   7.587 -0.1657  0.3444  0.5534
  193MOL0     H26024   8.571   4.616   7.607  1.0632 -2.2556 -2.9242
  193MOL0     H26025   8.631   4.894   7.488 -1.1864  0.1552  0.5273
  193MOL0     H26026   8.749   4.771   7.547  2.6753  2.7684  1.8243
  193MOL0     H26027   8.538   4.902   7.724 -0.1931  2.6117  0.1686
  193MOL0     H26028   8.700   4.974   7.686  1.5706 -1.7981 -1.2100
  193MOL0     H26029   8.668   4.700   7.804 -1.5011  0.2848  0.3797
  193MOL0     H26030   8.821   4.776   7.770  0.2175  0.8854  0.1002
  193MOL0     H26031   8.601   4.885   7.945 -0.9761 -2.2941 -2.9328
  193MOL0     H26032   8.762   4.960   7.945  2.5549 -1.3720 -0.9120
  193MOL0     H26033   8.726   4.798   8.145  1.5401 -1.0650  1.1871
  193MOL0     H26034   8.728   4.671   8.024  0.3071  0.8126 -0.2011
  193MOL0     H26035   8.192   4.677   7.206  0.4247 -0.9851  2.5844
  193MOL0     H26036   7.997   4.785   7.102 -0.1065 -0.5322 -0.5226
  193MOL0     H26037   7.903   5.329   6.844 -0.6797  0.4211  0.7696
  193MOL0     H26038   7.691   5.396   6.744 -2.0377  1.6474  0.0816
  193MOL0     H26039   6.515   6.186   7.537  1.2147 -0.6582  0.7572
  193MOL0     H26040   6.326   6.347   7.611 -0.4328 -0.1153  1.8188
  193MOL0     H26041   5.755   6.258   7.872 -1.5773  0.5843  1.4101
  193MOL0     H26042   5.611   6.438   7.931  1.1699  1.3560  2.3691
  193MOL0     H26043   5.502   6.770   8.037 -0.6061  1.1364 -2.2491
  193MOL0     H26044   5.534   6.592   8.036 -0.2799 -0.3912 -0.9015
  193MOL0     H26045   5.360   6.644   7.874 -0.5139  0.1527  0.5180
  193MOL0     H26046   5.496   6.572   7.802 -1.8088 -1.6658  1.8444
  193MOL0     H26047   5.571   6.857   7.775 -0.7330  0.1897  0.9198
  193MOL0     H26048   5.409   6.872   7.824 -0.4857 -1.1691 -0.8115
  193MOL0     H26049   5.502   6.858   7.579  2.8084 -1.8158 -1.6345
  193MOL0     H26050   5.477   6.685   7.596 -2.4597 -1.5556  0.9014
  193MOL0     H26051   5.070   6.815   7.592 -0.0615  0.7764  3.3999
  193MOL0     H26052   5.930   6.724   7.884  1.1615 -0.0450  1.6824
  193MOL0     H26053   6.122   6.561   7.696  1.8794 -3.6274  0.6648
  193MOL0     H26054   6.155   6.654   7.854 -2.6485 -0.2463  3.5819
  193MOL0     H26055   6.194   6.488   7.832  0.8692  0.7200  0.3888
  194MOL0     O26056   3.119   1.738   6.719 -0.2935  0.2378 -0.0072
  194MOL0     C26057   3.044   1.773   6.807  0.3897 -0.6680  0.0115
  194MOL0     O26058   3.080   1.861   6.911 -0.2953 -0.8663  0.4829
  194MOL0     C26059   3.214   1.854   6.950  1.0636 -0.4400  0.4401
  194MOL0     C26060   3.243   1.801   7.071  0.9216  0.6260  0.2128
  194MOL0     C26061   3.369   1.802   7.126 -0.1372  0.1454 -0.8126
  194MOL0     C26062   3.469   1.876   7.050  0.0952 -0.3857  0.7984
  194MOL0     O26063   3.600   1.888   7.081 -0.4061 -0.0752  0.5155
  194MOL0     C26064   3.649   1.804   7.185 -0.8894 -1.0363  0.1817
  194MOL0     C26065   3.790   1.834   7.209  1.3873 -0.0199  0.4230
  194MOL0     C26066   3.855   1.724   7.293  0.4334 -0.6717  0.0675
  194MOL0     C26067   3.988   1.777   7.339  0.2205  0.7001 -0.3489
  194MOL0     C26068   4.062   1.676   7.427 -0.2389 -0.3698  0.4183
  194MOL0     C26069   4.192   1.750   7.481  0.2538  0.2563  0.0544
  194MOL0     C26070   4.297   1.653   7.524 -0.8284 -0.4363  0.3943
  194MOL0     C26071   4.425   1.730   7.558  0.5159 -0.4367 -0.3435
  194MOL0     N26072   4.502   1.789   7.444  0.1948  0.2064  0.0270
  194MOL0     C26073   4.616   1.733   7.389  1.1635 -0.1481 -0.8186
  194MOL0     C26074   4.654   1.808   7.287 -0.4786 -0.8929  0.4896
  194MOL0     C26075   4.774   1.783   7.203 -0.4072  0.7474 -0.6851
  194MOL0     C26076   4.838   1.909   7.162 -0.8934  0.0805  1.0364
  194MOL0     C26077   4.935   1.887   7.045  0.7535  0.4573  0.0690
  194MOL0     C26078   5.036   2.001   7.021 -0.0353  0.4772  0.0613
  194MOL0     O26079   5.126   1.961   6.918  0.0097  0.1990  0.5930
  194MOL0     C26080   5.229   1.880   6.934  0.4695  0.4039 -0.0320
  194MOL0     C26081   5.287   1.840   7.060 -0.5363 -0.3285  0.2077
  194MOL0     C26082   5.386   1.742   7.074  0.2785  0.6581 -0.1045
  194MOL0     C26083   5.448   1.698   6.952 -0.3807  0.2130 -0.0670
  194MOL0     C26084   5.563   1.614   6.952  0.7780 -0.1188  0.2931
  194MOL0     O26085   5.571   1.531   7.063  0.1447  0.0301 -0.4240
  194MOL0     C26086   5.676   1.445   7.080 -0.0302 -0.4818  1.3139
  194MOL0     C26087   5.812   1.465   7.039 -0.2341  0.5624 -0.0473
  194MOL0     C26088   5.905   1.367   7.075 -0.1219 -0.0700 -0.3149
  194MOL0     C26089   5.876   1.256   7.155 -0.5365 -0.2519  0.2695
  194MOL0     O26090   5.983   1.178   7.186  0.1414 -0.4240 -0.6526
  194MOL0     C26091   5.982   1.100   7.305 -0.0629  0.0552  0.0081
  194MOL0     C26092   6.121   1.089   7.358  0.2931 -0.2063 -0.1316
  194MOL0     C26093   6.150   0.979   7.463 -0.0985 -0.3085 -0.7316
  194MOL0     C26094   6.294   0.969   7.488  0.2343 -0.4457  0.3937
  194MOL0     C26095   6.338   0.839   7.553 -0.3904  0.1741 -0.3672
  194MOL0     C26096   6.485   0.845   7.608 -0.2412 -0.1478 -0.0130
  194MOL0     C26097   6.598   0.896   7.504  0.4200  0.0971 -0.6798
  194MOL0     C26098   6.728   0.905   7.575 -0.0288 -0.7795  0.7331
  194MOL0    Cl26099   6.863   0.919   7.455 -0.3552  0.0830 -0.3657
  194MOL0     C26100   5.748   1.236   7.188 -0.3562 -0.4306 -0.2873
  194MOL0     C26101   5.648   1.331   7.158  0.1547  0.4103  0.1545
  194MOL0     O26102   5.644   1.625   6.861  0.1032 -0.4370 -0.2246
  194MOL0     C26103   5.401   1.750   6.830 -1.1118 -0.5084  0.6853
  194MOL0     C26104   5.290   1.829   6.821  0.8539 -0.0993  0.1195
  194MOL0     N26105   4.562   1.906   7.272 -0.0396 -0.2404 -0.2612
  194MOL0     N26106   4.471   1.897   7.369  0.8575  0.2215 -0.0327
  194MOL0     C26107   3.438   1.934   6.927  0.2883 -0.1903 -0.3378
  194MOL0     C26108   3.309   1.925   6.874 -0.2459  0.3379 -0.0240
  194MOL0     C26109   2.902   1.727   6.804  0.9953 -0.1708 -0.0420
  194MOL0     C26110   2.853   1.674   6.683  0.6915 -0.1603 -0.0462
  194MOL0     C26111   2.719   1.639   6.665  0.3354  0.4560 -1.3886
  194MOL0     C26112   2.630   1.654   6.765 -0.4101  0.0865 -0.0252
  194MOL0     O26113   2.499   1.616   6.769  0.4669 -0.2512  0.1252
  194MOL0     C26114   2.462   1.512   6.679  0.0534 -0.4819 -0.3531
  194MOL0     C26115   2.311   1.466   6.682  0.0172  0.5293 -0.2360
  194MOL0     C26116   2.222   1.583   6.644  0.5302  0.0864 -0.0700
  194MOL0     C26117   2.077   1.550   6.683 -0.2007  0.2570 -0.8586
  194MOL0     C26118   1.985   1.628   6.605 -0.0716  1.0246  0.2078
  194MOL0     C26119   1.898   1.698   6.555 -0.1930  0.9662  0.0394
  194MOL0     C26120   2.675   1.706   6.890 -0.3275  0.3987  0.1771
  194MOL0     C26121   2.807   1.745   6.911  0.2318  0.6143  0.1021
  194MOL0     C26122   2.850   1.793   7.044 -0.1857  0.6411  0.2137
  194MOL0     H26123   3.165   1.770   7.140  2.3458  0.5078  1.8396
  194MOL0     H26124   3.388   1.756   7.222 -1.8795 -0.6878 -0.8374
  194MOL0     H26125   3.597   1.818   7.280 -0.3133  2.3842  0.1464
  194MOL0     H26126   3.647   1.702   7.148 -4.4861 -1.4065  0.9816
  194MOL0     H26127   3.776   1.928   7.264 -1.0718 -1.7723  3.0719
  194MOL0     H26128   3.840   1.860   7.116 -0.2744  1.9030  0.0074
  194MOL0     H26129   3.872   1.631   7.239  1.1574 -0.0279 -0.8459
  194MOL0     H26130   3.789   1.694   7.375 -0.6947 -0.7974 -0.8648
  194MOL0     H26131   4.052   1.804   7.254  2.3006  0.6483  1.1081
  194MOL0     H26132   3.970   1.873   7.388 -1.0576 -1.4228  3.7336
  194MOL0     H26133   4.001   1.652   7.514  1.8796 -2.2940  1.5012
  194MOL0     H26134   4.088   1.592   7.361 -2.6214  0.5245 -1.8191
  194MOL0     H26135   4.224   1.819   7.402 -2.9824  0.5673 -1.1068
  194MOL0     H26136   4.165   1.796   7.577  0.8469 -2.2751  1.5365
  194MOL0     H26137   4.327   1.589   7.440  0.0346  0.6679 -0.1669
  194MOL0     H26138   4.260   1.593   7.608 -0.8798 -1.1431 -0.1225
  194MOL0     H26139   4.397   1.810   7.627 -1.1169 -2.0475  0.9362
  194MOL0     H26140   4.494   1.673   7.621 -0.0617 -0.0367  0.6700
  194MOL0     H26141   4.660   1.642   7.429  1.1495  0.2728  0.1904
  194MOL0     H26142   4.849   1.722   7.255  0.3613  1.8284 -0.4679
  194MOL0     H26143   4.750   1.722   7.115  2.1280  0.0141 -0.9655
  194MOL0     H26144   4.754   1.975   7.139 -1.0247  0.1229  1.6250
  194MOL0     H26145   4.892   1.936   7.253 -1.9217  0.9123  1.4088
  194MOL0     H26146   4.882   1.855   6.954 -1.4988  0.1951  1.3794
  194MOL0     H26147   4.996   1.801   7.075 -0.0401  0.8668  3.2928
  194MOL0     H26148   5.088   2.020   7.116 -0.9475  2.1209  0.2756
  194MOL0     H26149   4.990   2.100   7.010 -1.5836 -0.2035  0.2648
  194MOL0     H26150   5.246   1.875   7.154  1.6505 -0.5606  1.2940
  194MOL0     H26151   5.407   1.706   7.174 -2.4113 -1.4363 -0.1594
  194MOL0     H26152   5.840   1.548   6.975  0.6554  0.0009 -0.4091
  194MOL0     H26153   6.006   1.381   7.038  0.8087 -0.8746  1.7850
  194MOL0     H26154   5.919   1.156   7.375  0.6766 -0.8657  1.4761
  194MOL0     H26155   5.937   1.003   7.284 -2.4947  0.7170  1.6776
  194MOL0     H26156   6.172   1.052   7.269  0.9670  2.1048 -0.7987
  194MOL0     H26157   6.164   1.188   7.376  0.5044 -0.0727 -1.2873
  194MOL0     H26158   6.107   1.001   7.562 -0.9800 -0.4538 -1.0709
  194MOL0     H26159   6.106   0.886   7.428  1.3996 -2.0361  1.6633
  194MOL0     H26160   6.341   1.048   7.548  0.6177  0.3101 -0.8436
  194MOL0     H26161   6.347   0.981   7.393  0.6823 -0.0569  0.6834
  194MOL0     H26162   6.335   0.750   7.489 -0.3079 -1.7332  2.1463
  194MOL0     H26163   6.272   0.812   7.635  1.0914 -0.8013  0.5566
  194MOL0     H26164   6.484   0.909   7.696 -0.6526 -0.0277 -0.1049
  194MOL0     H26165   6.507   0.740   7.632 -1.9468 -1.0705 -2.0990
  194MOL0     H26166   6.569   0.998   7.476 -0.4293  0.8748  2.5973
  194MOL0     H26167   6.607   0.826   7.421  0.2205 -2.5482  1.4075
  194MOL0     H26168   6.738   0.988   7.646 -0.5055  1.3432 -1.5679
  194MOL0     H26169   6.746   0.815   7.635  1.1367  0.5525  2.4956
  194MOL0     H26170   5.719   1.147   7.243  1.6818 -0.4359  0.8753
  194MOL0     H26171   5.547   1.306   7.188  0.1470  0.1398 -0.0936
  194MOL0     H26172   5.442   1.712   6.736 -0.2506 -0.3911  1.0015
  194MOL0     H26173   5.250   1.863   6.726  1.8764  2.4670  0.5291
  194MOL0     H26174   3.509   2.003   6.882 -1.5037  2.5042  0.7321
  194MOL0     H26175   3.285   1.963   6.775 -3.8118 -0.0545  0.5584
  194MOL0     H26176   2.924   1.656   6.603  2.8703 -0.4686  1.8460
  194MOL0     H26177   2.697   1.591   6.570  2.4554 -1.5698 -0.9523
  194MOL0     H26178   2.522   1.425   6.705 -0.8986 -0.6744  1.3660
  194MOL0     H26179   2.490   1.546   6.578  0.8404  2.4804  0.7423
  194MOL0     H26180   2.295   1.443   6.788  1.3439  3.0382  0.6022
  194MOL0     H26181   2.297   1.388   6.608  1.1465  0.8044 -0.7717
  194MOL0     H26182   2.235   1.616   6.541 -0.9944 -2.0578 -1.0297
  194MOL0     H26183   2.251   1.664   6.713 -1.4196 -1.6113  2.9910
  194MOL0     H26184   2.061   1.443   6.668  0.0346  0.2405 -0.9853
  194MOL0     H26185   2.062   1.559   6.791  0.2224  0.9446 -0.8476
  194MOL0     H26186   1.819   1.752   6.509 -2.7131 -1.4348  1.2248
  194MOL0     H26187   2.595   1.705   6.964 -0.7375 -1.9116 -0.2293
  194MOL0     H26188   2.893   1.894   7.039  0.0371  0.5748  0.7231
  194MOL0     H26189   2.761   1.795   7.107 -1.5049 -0.3338 -1.5226
  194MOL0     H26190   2.932   1.736   7.088  2.1364  2.2764 -1.6548
  195MOL0     O26191  10.092   1.506   3.702 -0.4479  0.8037  0.3021
  195MOL0     C26192  10.044   1.592   3.639  0.2085 -0.5420  0.6001
  195MOL0     O26193  10.106   1.692   3.566  1.0076 -0.0197 -0.5172
  195MOL0     C26194  10.238   1.696   3.550 -0.5711  0.6360 -0.3381
  195MOL0     C26195  10.312   1.779   3.630  0.2845 -0.1818 -0.0906
  195MOL0     C26196  10.444   1.794   3.598 -0.8904 -0.3486  0.5699
  195MOL0     C26197  10.505   1.717   3.498 -0.0844 -0.5146  0.6488
  195MOL0     O26198  10.634   1.718   3.464  0.8818  0.3172 -0.7100
  195MOL0     C26199  10.701   1.840   3.463 -0.2688 -0.8332 -0.6171
  195MOL0     C26200  10.849   1.828   3.431 -0.6228  0.6641 -0.2781
  195MOL0     C26201  10.939   1.742   3.524  1.4999 -0.3564  0.0243
  195MOL0     C26202  11.088   1.796   3.528  0.5917  0.0342  0.0018
  195MOL0     C26203  11.183   1.702   3.598 -0.0048  0.1021  1.1737
  195MOL0     C26204  11.316   1.758   3.655 -0.8769  0.2122  0.0190
  195MOL0     C26205  11.409   1.655   3.713  0.4516 -0.5803 -0.5291
  195MOL0     C26206  11.548   1.717   3.741  0.0995 -0.1019  0.6298
  195MOL0     N26207  11.663   1.631   3.768 -0.0971 -0.3134  0.8064
  195MOL0     C26208  11.747   1.579   3.672  0.2831 -1.2027  0.0763
  195MOL0     C26209  11.828   1.495   3.743 -1.0553  0.2850  0.1385
  195MOL0     C26210  11.931   1.396   3.695  0.0405  0.1867 -0.5224
  195MOL0     C26211  12.029   1.346   3.807  0.4953  0.3174 -0.1399
  195MOL0     C26212  12.146   1.264   3.752  0.1420 -0.1060 -0.2505
  195MOL0     C26213  12.223   1.213   3.868  0.1786 -0.2111 -0.0574
  195MOL0     O26214  12.292   1.324   3.939  0.3164 -0.8681  0.2690
  195MOL0     C26215  12.411   1.379   3.896  0.2178 -0.0228  0.3285
  195MOL0     C26216  12.485   1.453   3.992 -0.1366 -0.7690  0.5081
  195MOL0     C26217  12.605   1.519   3.967  0.0906  2.0602 -1.1972
  195MOL0     C26218  12.660   1.508   3.838  0.5700 -0.8293  0.6133
  195MOL0     C26219  12.802   1.570   3.816 -0.3353  0.2017  0.8199
  195MOL0     O26220  12.861   1.640   3.918 -0.9375 -0.2812  0.4809
  195MOL0     C26221  12.997   1.665   3.919  0.0556 -1.0513 -0.3016
  195MOL0     C26222  13.099   1.573   3.879  0.1289  0.2362 -0.6617
  195MOL0     C26223  13.233   1.626   3.872 -0.2548  0.4410  0.0021
  195MOL0     C26224  13.271   1.762   3.889 -0.2137 -0.8453  0.5098
  195MOL0     O26225  13.405   1.796   3.870 -0.0344  0.3880  0.3043
  195MOL0     C26226  13.449   1.936   3.892 -0.2712 -0.5490 -0.5223
  195MOL0     C26227  13.601   1.933   3.879 -0.6919 -0.1648  0.0140
  195MOL0     C26228  13.667   1.849   3.764  0.0334 -0.0990  1.0093
  195MOL0     C26229  13.814   1.824   3.774 -0.0649  0.3305  0.2629
  195MOL0     C26230  13.881   1.775   3.649  0.8255 -0.4093  0.0660
  195MOL0     C26231  14.023   1.749   3.683 -0.0042 -0.0745 -0.2123
  195MOL0     C26232  14.104   1.699   3.562 -0.7708 -0.6488 -0.5328
  195MOL0     C26233  14.254   1.666   3.586  0.7171 -0.1418 -0.2078
  195MOL0    Cl26234  14.363   1.795   3.662 -0.0659  0.3472  0.0488
  195MOL0     C26235  13.171   1.845   3.935  0.1633  0.0319 -0.5491
  195MOL0     C26236  13.036   1.800   3.948  0.0696  0.5028 -0.1427
  195MOL0     O26237  12.851   1.544   3.709  0.0407 -0.3661  0.4283
  195MOL0     C26238  12.591   1.427   3.743  0.3164 -0.0367  0.3641
  195MOL0     C26239  12.473   1.361   3.771  0.3756  0.3630 -0.3844
  195MOL0     N26240  11.797   1.513   3.878 -0.9956  0.9129  0.0639
  195MOL0     N26241  11.702   1.600   3.891 -1.2823  0.5833  0.0953
  195MOL0     C26242  10.427   1.632   3.419  0.2260 -0.2259  0.6436
  195MOL0     C26243  10.290   1.623   3.443  0.0197 -0.3159  0.0082
  195MOL0     C26244   9.893   1.604   3.648  0.2060 -0.1697  0.6892
  195MOL0     C26245   9.826   1.589   3.770 -0.0325  0.1531  0.1336
  195MOL0     C26246   9.694   1.617   3.785 -0.4090  0.1445  0.3103
  195MOL0     C26247   9.613   1.650   3.670  0.3900 -0.2184 -0.3656
  195MOL0     O26248   9.483   1.685   3.676  0.4028 -0.4833  0.5747
  195MOL0     C26249   9.403   1.650   3.790 -0.1615  0.5132  0.8544
  195MOL0     C26250   9.335   1.515   3.778 -0.2746 -1.0755  0.0285
  195MOL0     C26251   9.219   1.534   3.675 -0.4863  0.0651  0.4769
  195MOL0     C26252   9.169   1.398   3.638  0.2326  0.9437  0.0916
  195MOL0     C26253   9.069   1.406   3.526  0.2518 -0.0213 -0.0408
  195MOL0     C26254   8.984   1.388   3.445  0.0859 -0.3508  0.2300
  195MOL0     C26255   9.670   1.655   3.544 -0.9839  0.1934  0.2089
  195MOL0     C26256   9.808   1.632   3.531 -0.6267 -0.1321  0.6735
  195MOL0     C26257   9.856   1.652   3.393 -0.1524  0.2735  0.1341
  195MOL0     H26258  10.252   1.830   3.704  1.6553 -0.2896  1.1348
  195MOL0     H26259  10.496   1.864   3.662 -2.2378  3.1123 -1.7705
  195MOL0     H26260  10.667   1.903   3.381  1.2076  1.7981  0.6519
  195MOL0     H26261  10.694   1.892   3.559 -3.9190 -0.3172 -1.0384
  195MOL0     H26262  10.892   1.928   3.426 -3.6387  2.1695  1.0437
  195MOL0     H26263  10.841   1.774   3.337  1.3208  0.6029 -0.4557
  195MOL0     H26264  10.931   1.637   3.493  5.3366 -0.3435 -1.4751
  195MOL0     H26265  10.893   1.759   3.622  2.4161  4.6974 -0.1625
  195MOL0     H26266  11.123   1.831   3.430  1.8223 -0.0543  0.3941
  195MOL0     H26267  11.085   1.891   3.582 -2.0680  0.9418 -1.5170
  195MOL0     H26268  11.128   1.652   3.678  0.8881 -1.0343  1.0938
  195MOL0     H26269  11.202   1.624   3.524 -0.9084 -0.6567  1.7234
  195MOL0     H26270  11.369   1.813   3.577 -0.6448  0.9686  0.7024
  195MOL0     H26271  11.301   1.826   3.739 -1.3413  2.9510 -2.1221
  195MOL0     H26272  11.427   1.572   3.644  0.2643 -1.3896  0.3794
  195MOL0     H26273  11.358   1.613   3.800 -0.4318  0.8082 -0.3533
  195MOL0     H26274  11.581   1.776   3.655 -0.9651  0.7095  0.7551
  195MOL0     H26275  11.542   1.791   3.821  0.4367  3.2941 -2.2278
  195MOL0     H26276  11.757   1.586   3.565  0.8008  0.7308  0.2109
  195MOL0     H26277  11.876   1.318   3.641  1.1858 -1.4662  0.6037
  195MOL0     H26278  11.982   1.450   3.615 -1.1885  1.6686 -0.3507
  195MOL0     H26279  12.066   1.440   3.848  0.2806  0.1672  0.4127
  195MOL0     H26280  11.979   1.290   3.886  0.5384 -1.2502 -1.1784
  195MOL0     H26281  12.212   1.325   3.691 -0.3924  0.5852 -0.1504
  195MOL0     H26282  12.103   1.186   3.687 -0.5825  1.7178 -2.0648
  195MOL0     H26283  12.304   1.148   3.833  0.7336 -0.1788  1.1252
  195MOL0     H26284  12.155   1.158   3.934 -1.2595  0.8973 -0.5536
  195MOL0     H26285  12.445   1.453   4.093 -2.0982  1.3071 -0.1875
  195MOL0     H26286  12.641   1.573   4.054 -2.4719  0.9545  0.6939
  195MOL0     H26287  13.076   1.477   3.834  1.6957 -0.1497 -0.7123
  195MOL0     H26288  13.311   1.557   3.838 -0.5252 -0.8054  1.7923
  195MOL0     H26289  13.398   2.006   3.825 -1.9763 -0.0221  1.2273
  195MOL0     H26290  13.422   1.963   3.994 -0.0014 -3.1056  0.3009
  195MOL0     H26291  13.640   2.034   3.860 -0.5180 -0.3855 -0.8734
  195MOL0     H26292  13.651   1.900   3.970  0.5569  0.1934 -0.5145
  195MOL0     H26293  13.614   1.754   3.758  1.3789 -0.8468  0.3617
  195MOL0     H26294  13.649   1.896   3.667  0.8967  0.3134  1.0349
  195MOL0     H26295  13.833   1.750   3.852  3.1135  0.9541  0.1988
  195MOL0     H26296  13.858   1.921   3.800 -0.5106  0.7974 -0.6821
  195MOL0     H26297  13.871   1.850   3.570  3.2994  0.7791  0.7870
  195MOL0     H26298  13.836   1.678   3.622  3.0891 -2.4668  3.0116
  195MOL0     H26299  14.077   1.834   3.724 -0.2479  0.7169 -1.4820
  195MOL0     H26300  14.022   1.664   3.752  0.1753  0.8144  0.9124
  195MOL0     H26301  14.108   1.774   3.483 -2.8100  1.7874  1.4623
  195MOL0     H26302  14.062   1.602   3.535 -0.3654 -1.4162  1.4442
  195MOL0     H26303  14.259   1.578   3.651  1.4340 -1.0146 -1.4002
  195MOL0     H26304  14.294   1.636   3.488 -1.9113  0.4004 -1.5514
  195MOL0     H26305  13.204   1.948   3.940  2.1939 -0.5796 -0.4925
  195MOL0     H26306  12.965   1.880   3.961  1.3092  1.8733 -1.3943
  195MOL0     H26307  12.617   1.403   3.641  0.8744  0.2982  0.4264
  195MOL0     H26308  12.442   1.297   3.689 -1.8681 -1.6113  1.8625
  195MOL0     H26309  10.461   1.560   3.345 -2.9685 -0.9214 -0.3382
  195MOL0     H26310  10.226   1.559   3.384 -2.0852 -0.7848  2.6088
  195MOL0     H26311   9.883   1.549   3.853 -0.1558 -2.2582 -0.8476
  195MOL0     H26312   9.654   1.612   3.886 -1.4404  3.5253  0.2198
  195MOL0     H26313   9.327   1.728   3.779 -1.3548 -0.8878 -2.2052
  195MOL0     H26314   9.447   1.655   3.890 -2.0911 -0.4962  1.8219
  195MOL0     H26315   9.282   1.496   3.872  1.2862  2.4993  1.8472
  195MOL0     H26316   9.405   1.432   3.760 -0.7260 -1.2670 -0.9110
  195MOL0     H26317   9.261   1.589   3.590  2.6211 -0.0848  1.7873
  195MOL0     H26318   9.145   1.597   3.726  0.9538 -0.1727  2.9975
  195MOL0     H26319   9.250   1.336   3.598  0.1901 -0.1215  1.5756
  195MOL0     H26320   9.127   1.338   3.719 -0.3213 -0.3218 -1.1001
  195MOL0     H26321   8.908   1.377   3.370  0.6954  0.3601 -0.5081
  195MOL0     H26322   9.614   1.684   3.456  0.9345 -2.1883 -1.9394
  195MOL0     H26323   9.772   1.682   3.331 -0.9216 -1.4099  0.3008
  195MOL0     H26324   9.929   1.733   3.385 -1.0764  1.0318 -0.8380
  195MOL0     H26325   9.909   1.561   3.361 -0.1270  0.5654 -0.6527
  196MOL0     O26326   4.916   9.988   9.736 -0.6785  0.2150 -0.0569
  196MOL0     C26327   4.871  10.100   9.722  0.2194  0.3580 -0.8978
  196MOL0     O26328   4.930  10.219   9.764 -1.0048 -0.2361 -0.3767
  196MOL0     C26329   5.064  10.210   9.784 -0.5524  0.3131 -0.4572
  196MOL0     C26330   5.151  10.207   9.680 -1.2300  0.6219  0.2849
  196MOL0     C26331   5.284  10.169   9.710 -0.3806 -0.0453  1.2649
  196MOL0     C26332   5.327  10.144   9.840 -0.3867  0.4947 -0.1452
  196MOL0     O26333   5.453  10.088   9.862  0.3247 -0.6106 -0.1196
  196MOL0     C26334   5.529  10.028   9.747 -0.2279 -0.0299 -1.2956
  196MOL0     C26335   5.653   9.966   9.812  0.0090 -0.6549 -0.7383
  196MOL0     C26336   5.766   9.953   9.711 -0.2621 -0.6438 -0.0226
  196MOL0     C26337   5.901   9.925   9.787  0.9741 -0.3956 -0.6953
  196MOL0     C26338   6.013   9.880   9.687  0.0737  0.0469 -0.0636
  196MOL0     C26339   6.150   9.892   9.759  0.3276  0.9742 -0.1811
  196MOL0     C26340   6.263   9.826   9.681 -0.2569 -0.2909  0.1247
  196MOL0     C26341   6.290   9.886   9.543 -0.7719 -0.8644  0.1881
  196MOL0     N26342   6.398   9.807   9.486  1.0277 -0.2363 -0.6605
  196MOL0     C26343   6.394   9.677   9.446  0.0068 -0.1250 -0.3997
  196MOL0     C26344   6.517   9.659   9.409 -0.8110  0.5117 -0.0991
  196MOL0     C26345   6.564   9.533   9.331  0.6195 -0.4775  0.5473
  196MOL0     C26346   6.644   9.571   9.203  0.2867  0.0296 -0.5901
  196MOL0     C26347   6.693   9.442   9.133 -0.3450  0.7037 -0.2072
  196MOL0     C26348   6.749   9.488   8.992  0.0917  0.2496 -0.5624
  196MOL0     O26349   6.810   9.376   8.921  0.1033 -0.0961  0.2583
  196MOL0     C26350   6.939   9.361   8.913  0.0639 -0.3467  0.1867
  196MOL0     C26351   7.040   9.455   8.932 -0.2953  0.4153 -0.1013
  196MOL0     C26352   7.175   9.420   8.910  0.1744  0.0338  0.1285
  196MOL0     C26353   7.215   9.290   8.880 -0.9066  0.1274  0.7066
  196MOL0     C26354   7.360   9.261   8.843  0.5085  0.5382  0.3742
  196MOL0     O26355   7.440   9.369   8.853 -0.3239 -0.2050 -0.1255
  196MOL0     C26356   7.575   9.366   8.819  0.3562  0.0487 -0.1935
  196MOL0     C26357   7.631   9.489   8.780  0.0211  0.9089  0.2846
  196MOL0     C26358   7.772   9.500   8.761  0.8900  0.1732  0.1132
  196MOL0     C26359   7.851   9.383   8.750 -0.9418 -1.1005 -0.5069
  196MOL0     O26360   7.988   9.392   8.738  0.8236  0.4045 -0.1160
  196MOL0     C26361   8.042   9.508   8.672 -0.4287 -0.9307 -0.7030
  196MOL0     C26362   8.189   9.464   8.630  0.0363 -0.2105 -0.0550
  196MOL0     C26363   8.276   9.578   8.589  0.3908 -0.9317  0.0693
  196MOL0     C26364   8.424   9.560   8.586 -0.4244  0.5877 -0.1004
  196MOL0     C26365   8.493   9.651   8.477  0.6473 -1.1699 -0.8330
  196MOL0     C26366   8.649   9.656   8.476 -0.1074 -0.5706 -0.9152
  196MOL0     C26367   8.703   9.707   8.612  0.1293  0.2342 -0.2591
  196MOL0     C26368   8.858   9.674   8.611 -0.0068  1.0576  0.1265
  196MOL0    Cl26369   8.877   9.505   8.646 -0.1384  0.5231  0.0580
  196MOL0     C26370   7.791   9.264   8.777 -0.5821  0.3009 -0.0793
  196MOL0     C26371   7.660   9.250   8.810 -0.7879  0.3582  1.0055
  196MOL0     O26372   7.394   9.143   8.811 -0.3464  0.0055  0.2397
  196MOL0     C26373   7.111   9.188   8.860 -0.0018 -0.6615  0.0787
  196MOL0     C26374   6.980   9.224   8.887 -0.8181  0.4677  1.2048
  196MOL0     N26375   6.598   9.765   9.449 -0.4833 -0.6645  0.4138
  196MOL0     N26376   6.520   9.860   9.476  0.9609 -0.2315 -0.2615
  196MOL0     C26377   5.247  10.184   9.947 -0.4295  0.2509 -0.1795
  196MOL0     C26378   5.109  10.205   9.919 -0.0853 -0.0908  0.9054
  196MOL0     C26379   4.722  10.105   9.699 -0.0554 -0.5173  0.4778
  196MOL0     C26380   4.650  10.222   9.735  0.0874  0.1365 -0.7234
  196MOL0     C26381   4.511  10.224   9.733  0.2127  0.6704  0.9790
  196MOL0     C26382   4.437  10.110   9.705  0.0700  0.3673 -0.5005
  196MOL0     O26383   4.298  10.104   9.710 -0.3636 -0.4226  0.0627
  196MOL0     C26384   4.226  10.215   9.757  0.3226  0.2018  0.3382
  196MOL0     C26385   4.078  10.203   9.712  0.1365  0.3361  0.3943
  196MOL0     C26386   4.059  10.189   9.558  0.6860  0.2157 -0.0476
  196MOL0     C26387   4.049  10.317   9.476 -0.3340 -0.0269 -0.0176
  196MOL0     C26388   4.172  10.399   9.466  0.3113 -0.6874 -0.1837
  196MOL0     C26389   4.269  10.471   9.453 -0.0124 -0.2017  0.1094
  196MOL0     C26390   4.505   9.999   9.653 -0.0947  1.0251 -1.0609
  196MOL0     C26391   4.647   9.992   9.645  0.6319 -0.3542  1.0336
  196MOL0     C26392   4.701   9.877   9.559  0.7855  0.3620 -0.5044
  196MOL0     H26393   5.132  10.217   9.574  3.2715 -0.3014 -0.8352
  196MOL0     H26394   5.351  10.148   9.627  1.5577  1.7309  2.2902
  196MOL0     H26395   5.464   9.956   9.696  0.5468 -1.9010  0.2418
  196MOL0     H26396   5.549  10.112   9.679  1.5431  1.1235  0.5283
  196MOL0     H26397   5.635   9.874   9.868 -2.3336  1.2346  1.8944
  196MOL0     H26398   5.688  10.041   9.884  1.1549  0.2001 -2.1073
  196MOL0     H26399   5.771  10.044   9.651 -0.3508 -2.4088 -2.9263
  196MOL0     H26400   5.746   9.865   9.648  2.8897 -0.9597 -0.7337
  196MOL0     H26401   5.940  10.017   9.829 -1.3774  0.6708 -0.6643
  196MOL0     H26402   5.882   9.868   9.878 -0.6950 -0.5401 -1.0975
  196MOL0     H26403   5.985   9.775   9.672  1.5065 -0.1455 -1.6749
  196MOL0     H26404   6.009   9.933   9.591 -0.0779  0.6465  0.2648
  196MOL0     H26405   6.174   9.995   9.786  0.0211  0.9047  0.3635
  196MOL0     H26406   6.144   9.838   9.854  0.0537  2.3477  0.6024
  196MOL0     H26407   6.252   9.717   9.668  0.0780 -0.1175 -1.9088
  196MOL0     H26408   6.351   9.858   9.737  1.2496 -1.2378 -1.5910
  196MOL0     H26409   6.202   9.880   9.478 -1.2841  2.0171  0.5069
  196MOL0     H26410   6.312   9.993   9.543  1.8529 -1.3357  1.3727
  196MOL0     H26411   6.308   9.613   9.429  0.0990  0.2558 -2.5492
  196MOL0     H26412   6.620   9.463   9.393 -1.0709  0.1762  2.9167
  196MOL0     H26413   6.480   9.471   9.299  0.3117 -0.7524  1.8418
  196MOL0     H26414   6.584   9.635   9.137 -0.8542  0.7855  1.0962
  196MOL0     H26415   6.732   9.626   9.237 -1.5370  1.9955  1.3499
  196MOL0     H26416   6.618   9.365   9.115  0.1398  0.9398 -3.9799
  196MOL0     H26417   6.779   9.399   9.186  0.1827 -1.4239 -2.6133
  196MOL0     H26418   6.822   9.566   9.012 -0.1357  0.1541  0.6847
  196MOL0     H26419   6.662   9.522   8.935 -2.1796 -2.1806  1.1891
  196MOL0     H26420   7.012   9.556   8.960 -1.5453  0.0845 -0.1406
  196MOL0     H26421   7.248   9.492   8.944 -1.2117  0.4754  2.3080
  196MOL0     H26422   7.562   9.572   8.775 -0.9903 -0.0008 -2.2093
  196MOL0     H26423   7.808   9.602   8.750  1.3198  0.3908  2.7720
  196MOL0     H26424   7.984   9.554   8.591  1.7957 -0.0189 -1.8737
  196MOL0     H26425   8.046   9.594   8.740  0.3940  0.1262 -2.0336
  196MOL0     H26426   8.245   9.427   8.716 -1.8581  0.5416  1.5998
  196MOL0     H26427   8.185   9.394   8.546  1.0853 -0.7984  0.3711
  196MOL0     H26428   8.236   9.611   8.493  1.1883 -0.8784 -0.2551
  196MOL0     H26429   8.258   9.662   8.656  2.2740 -1.3297  1.1635
  196MOL0     H26430   8.444   9.452   8.580  1.2184  0.8199  0.7177
  196MOL0     H26431   8.468   9.574   8.685 -1.5337 -1.7435  0.8009
  196MOL0     H26432   8.454   9.750   8.502 -3.7813 -3.2447  1.5935
  196MOL0     H26433   8.453   9.607   8.385  0.4213 -1.6814 -0.4895
  196MOL0     H26434   8.678   9.552   8.456  0.0657 -0.6941 -0.0810
  196MOL0     H26435   8.687   9.722   8.398  0.9359 -0.0949 -0.0380
  196MOL0     H26436   8.650   9.661   8.695  1.0920 -3.2611 -1.4045
  196MOL0     H26437   8.693   9.816   8.614  0.8995  0.3947  3.8966
  196MOL0     H26438   8.903   9.687   8.513  0.8738 -1.4146  0.1391
  196MOL0     H26439   8.916   9.740   8.676 -0.2208  1.3247  0.0483
  196MOL0     H26440   7.838   9.167   8.771  1.9248  1.2494  2.1875
  196MOL0     H26441   7.629   9.148   8.828 -0.3345 -0.5627 -2.6467
  196MOL0     H26442   7.114   9.086   8.825 -5.0634 -0.8011 -0.6204
  196MOL0     H26443   6.914   9.144   8.856 -1.4426  1.7790 -1.1432
  196MOL0     H26444   5.276  10.170  10.051  0.2108  0.9112 -0.2584
  196MOL0     H26445   5.032  10.222   9.993 -0.7379 -0.9873  0.4566
  196MOL0     H26446   4.707  10.304   9.779  1.2847 -0.3823 -1.2554
  196MOL0     H26447   4.457  10.315   9.756 -0.1100  0.5873  0.5436
  196MOL0     H26448   4.261  10.304   9.703 -2.3461  0.4005 -1.2510
  196MOL0     H26449   4.228  10.233   9.864  3.0170 -0.2016  0.4393
  196MOL0     H26450   4.036  10.296   9.751 -1.8678 -0.8925  1.3600
  196MOL0     H26451   4.033  10.113   9.756 -0.3580 -0.0791 -0.9138
  196MOL0     H26452   3.973  10.127   9.532  0.5793  0.5684 -0.5419
  196MOL0     H26453   4.143  10.133   9.518 -0.3065 -1.0209 -0.4582
  196MOL0     H26454   4.020  10.281   9.377  1.4462  0.2941 -0.6945
  196MOL0     H26455   3.967  10.378   9.514 -2.2367 -1.7391 -1.1798
  196MOL0     H26456   4.363  10.522   9.442  0.3835 -0.7196  1.0173
  196MOL0     H26457   4.456   9.910   9.612  0.9502  1.5821 -3.7533
  196MOL0     H26458   4.625   9.832   9.494  1.1923 -0.2747 -0.5429
  196MOL0     H26459   4.765   9.942   9.498  0.4015  1.2903  0.0449
  196MOL0     H26460   4.764   9.813   9.620  0.0273 -1.8232 -1.8902
  197MOL0     O26461   5.959   8.776   3.373 -0.1041  0.2362  0.1420
  197MOL0     C26462   5.927   8.877   3.447  0.5439  0.6542  0.9740
  197MOL0     O26463   6.020   8.952   3.508 -0.0631 -0.2751 -0.0355
  197MOL0     C26464   6.152   8.914   3.502 -0.6545  0.9057 -0.8839
  197MOL0     C26465   6.196   8.779   3.541  0.6423 -0.5309 -0.6156
  197MOL0     C26466   6.330   8.746   3.524 -0.4166  0.8573  0.2401
  197MOL0     C26467   6.420   8.842   3.476 -0.8718  0.3374  0.1868
  197MOL0     O26468   6.553   8.810   3.473  0.3513 -0.2569 -0.3169
  197MOL0     C26469   6.654   8.894   3.412 -0.1294 -0.4468  0.1039
  197MOL0     C26470   6.774   8.821   3.366  0.1588 -0.1580 -0.2209
  197MOL0     C26471   6.870   8.747   3.466  0.3606 -0.1028 -0.3200
  197MOL0     C26472   6.997   8.703   3.397 -0.2683 -0.6892 -0.4063
  197MOL0     C26473   7.080   8.600   3.480  0.0239  0.4077 -0.0048
  197MOL0     C26474   7.133   8.652   3.620 -0.3759  0.1895  0.3988
  197MOL0     C26475   7.213   8.542   3.697  1.0461  0.2587 -0.4580
  197MOL0     C26476   7.350   8.517   3.642  0.5861 -1.1990 -0.6993
  197MOL0     N26477   7.435   8.619   3.701 -0.0366  0.5067 -0.0833
  197MOL0     C26478   7.462   8.744   3.646  0.0646  0.5637  0.6081
  197MOL0     C26479   7.519   8.815   3.745 -0.5486 -0.5131  0.0268
  197MOL0     C26480   7.591   8.940   3.709 -0.2388 -0.4259  0.2150
  197MOL0     C26481   7.735   8.924   3.650  0.7957 -0.5525  0.5176
  197MOL0     C26482   7.819   8.833   3.744 -0.1045  1.1637  0.2973
  197MOL0     C26483   7.966   8.854   3.734 -0.7607 -0.2438  0.3073
  197MOL0     O26484   8.024   8.802   3.616  0.1637 -0.1542  0.7890
  197MOL0     C26485   8.160   8.829   3.609  0.4361 -0.2144 -0.7004
  197MOL0     C26486   8.200   8.935   3.543  0.6533  0.3147  0.4217
  197MOL0     C26487   8.333   8.974   3.542  0.1908  0.9322  0.1643
  197MOL0     C26488   8.425   8.898   3.619  0.0139  0.1593 -0.3697
  197MOL0     C26489   8.576   8.932   3.624 -0.2870  0.2300  0.9447
  197MOL0     O26490   8.619   9.026   3.536 -0.5763  0.2087 -0.0599
  197MOL0     C26491   8.752   9.055   3.516  0.0139  0.0950 -0.1484
  197MOL0     C26492   8.786   9.180   3.462 -0.0772  0.0319  0.4410
  197MOL0     C26493   8.918   9.212   3.434 -0.8614 -0.3369 -0.1906
  197MOL0     C26494   9.015   9.119   3.432 -0.3502 -0.7859  0.5633
  197MOL0     O26495   9.143   9.147   3.384  0.4840 -0.4227  0.1868
  197MOL0     C26496   9.200   9.279   3.406  0.1487  0.2867 -0.7340
  197MOL0     C26497   9.345   9.263   3.369  0.3709 -0.9047 -0.3104
  197MOL0     C26498   9.424   9.397   3.389  0.0922 -0.9038  0.1892
  197MOL0     C26499   9.576   9.366   3.378 -0.6957  0.4845 -0.2792
  197MOL0     C26500   9.663   9.480   3.385  0.2924  0.9209  0.3373
  197MOL0     C26501   9.809   9.441   3.368  0.3208 -1.0790 -0.4599
  197MOL0     C26502   9.904   9.558   3.371  0.3313 -0.5392  0.3862
  197MOL0     C26503  10.013   9.548   3.264 -0.1562  0.3715  0.4031
  197MOL0    Cl26504  10.124   9.690   3.285 -0.1137 -0.1466  0.1048
  197MOL0     C26505   8.987   8.994   3.487  0.1566 -0.6049  0.2299
  197MOL0     C26506   8.862   8.965   3.529  0.3824  0.4397  0.4161
  197MOL0     O26507   8.646   8.866   3.701  0.0431 -0.3212 -0.2056
  197MOL0     C26508   8.379   8.796   3.695 -1.3154  0.6043 -0.7790
  197MOL0     C26509   8.246   8.760   3.701  0.0950  0.0062 -1.2070
  197MOL0     N26510   7.519   8.741   3.862  1.1241 -0.2596  0.2009
  197MOL0     N26511   7.471   8.630   3.828  0.1266  0.1272 -0.9713
  197MOL0     C26512   6.379   8.970   3.448 -0.5717  0.1725 -1.0262
  197MOL0     C26513   6.243   9.000   3.457 -0.0044 -0.4289  0.6188
  197MOL0     C26514   5.784   8.922   3.449 -0.0653  0.7861  0.2119
  197MOL0     C26515   5.704   8.854   3.354  0.4287  0.6739  0.9923
  197MOL0     C26516   5.576   8.897   3.319 -0.0413  0.7712 -0.5735
  197MOL0     C26517   5.532   9.016   3.375  0.1355 -0.1908  0.0530
  197MOL0     O26518   5.412   9.073   3.341  0.3613  0.3276  0.6470
  197MOL0     C26519   5.300   8.991   3.286 -0.0985  0.1937 -0.5406
  197MOL0     C26520   5.161   9.068   3.299  0.4420  0.7391 -0.3022
  197MOL0     C26521   5.157   9.179   3.190  0.1598 -0.1379 -0.2559
  197MOL0     C26522   5.028   9.260   3.215 -0.0402 -0.0881  0.0125
  197MOL0     C26523   4.911   9.171   3.184  0.3994  0.4335 -0.2209
  197MOL0     C26524   4.819   9.094   3.150 -0.0502  0.3202 -0.4203
  197MOL0     C26525   5.613   9.080   3.467  0.2178  0.3352 -0.3578
  197MOL0     C26526   5.733   9.036   3.504 -0.2119 -0.4987  0.1883
  197MOL0     C26527   5.806   9.118   3.601  0.7396  0.0394 -0.3967
  197MOL0     H26528   6.120   8.710   3.577  2.3461 -2.6680 -0.9133
  197MOL0     H26529   6.366   8.646   3.546  1.1112  0.6322 -2.8145
  197MOL0     H26530   6.606   8.942   3.326 -2.3762  0.5076  1.7596
  197MOL0     H26531   6.687   8.972   3.481 -0.6947 -0.0470 -0.0690
  197MOL0     H26532   6.833   8.887   3.302  3.9807 -2.7837  0.2470
  197MOL0     H26533   6.740   8.741   3.298 -0.0181  0.7425 -1.2182
  197MOL0     H26534   6.824   8.655   3.502  0.9934 -0.9010 -1.4876
  197MOL0     H26535   6.899   8.816   3.545  2.0910 -0.4378 -0.6219
  197MOL0     H26536   6.973   8.653   3.303 -0.0974 -0.9481 -0.3120
  197MOL0     H26537   7.053   8.795   3.376 -3.3909  1.9887  1.8485
  197MOL0     H26538   7.021   8.511   3.501 -0.3957  1.0479  1.8011
  197MOL0     H26539   7.165   8.555   3.429 -1.0235 -0.0888 -1.3464
  197MOL0     H26540   7.187   8.747   3.607 -0.8960  0.4457  0.0916
  197MOL0     H26541   7.048   8.672   3.686 -1.4533 -2.2162 -0.1494
  197MOL0     H26542   7.164   8.444   3.705  0.5757  0.6228  1.8933
  197MOL0     H26543   7.215   8.589   3.796 -4.6104  2.9049 -1.1517
  197MOL0     H26544   7.387   8.419   3.673 -3.6244 -3.1054 -0.8919
  197MOL0     H26545   7.340   8.520   3.533  0.8062 -1.2108 -0.7185
  197MOL0     H26546   7.456   8.765   3.540  1.1167  0.7676  0.5835
  197MOL0     H26547   7.533   8.990   3.631 -1.0872  1.1663  1.7857
  197MOL0     H26548   7.600   9.004   3.797  0.1815  2.1593 -1.5838
  197MOL0     H26549   7.732   8.895   3.545  0.9148  3.5468 -0.7828
  197MOL0     H26550   7.774   9.027   3.645 -1.9383  0.5168 -0.6946
  197MOL0     H26551   7.795   8.729   3.722  0.2656  0.6145  2.3032
  197MOL0     H26552   7.801   8.853   3.850 -1.2109 -1.1074  0.5757
  197MOL0     H26553   8.017   8.810   3.820  0.6515  1.4768  0.4069
  197MOL0     H26554   7.988   8.958   3.756  2.5658 -1.2201  2.2935
  197MOL0     H26555   8.120   8.988   3.493 -0.7442 -2.3507 -0.3935
  197MOL0     H26556   8.369   9.048   3.471 -1.0983  0.1010 -1.4190
  197MOL0     H26557   8.703   9.248   3.446  0.8669  0.8721 -1.1511
  197MOL0     H26558   8.947   9.309   3.395 -0.6296 -0.2534  0.1859
  197MOL0     H26559   9.158   9.354   3.339 -0.9715  1.8894  1.6258
  197MOL0     H26560   9.185   9.313   3.509  2.0114  1.0502 -0.6776
  197MOL0     H26561   9.394   9.185   3.427 -0.6197 -0.1179  1.6636
  197MOL0     H26562   9.353   9.234   3.264 -1.7213  0.3120 -0.8759
  197MOL0     H26563   9.395   9.480   3.324  1.0093  0.1945  1.1278
  197MOL0     H26564   9.400   9.444   3.485  0.0914 -1.6608  0.5649
  197MOL0     H26565   9.601   9.313   3.285  1.0685 -0.9907  0.9721
  197MOL0     H26566   9.604   9.299   3.460 -1.3089 -0.3692 -0.7447
  197MOL0     H26567   9.655   9.539   3.476  3.5712 -0.2268  1.5149
  197MOL0     H26568   9.640   9.550   3.305  0.4570  0.6263  0.0235
  197MOL0     H26569   9.838   9.375   3.450 -0.0533 -2.6338 -1.5311
  197MOL0     H26570   9.808   9.391   3.271 -3.7695 -1.6660 -0.2751
  197MOL0     H26571   9.942   9.567   3.473 -0.2741 -0.4108  0.6087
  197MOL0     H26572   9.858   9.657   3.360  1.2715  0.2001  2.5118
  197MOL0     H26573  10.069   9.454   3.267  0.3020  0.6579  1.7346
  197MOL0     H26574   9.953   9.554   3.173  0.4836  0.2897 -0.0253
  197MOL0     H26575   9.055   8.909   3.485 -1.7074 -2.2062  1.2435
  197MOL0     H26576   8.844   8.860   3.549 -0.0038  0.4616  0.2055
  197MOL0     H26577   8.453   8.741   3.751  0.5578  0.5828 -3.1133
  197MOL0     H26578   8.214   8.674   3.759  3.7157  0.2726  1.5585
  197MOL0     H26579   6.442   9.049   3.409  0.8426 -0.1390  0.5089
  197MOL0     H26580   6.211   9.103   3.440  1.3495  0.2712  2.0409
  197MOL0     H26581   5.739   8.766   3.302 -4.2022  0.0946 -1.7339
  197MOL0     H26582   5.514   8.840   3.250  0.0643  0.2176 -0.2096
  197MOL0     H26583   5.310   8.895   3.337 -0.3427 -0.7030 -2.1484
  197MOL0     H26584   5.326   8.971   3.182 -0.1046  1.9781 -0.9151
  197MOL0     H26585   5.150   9.108   3.400  0.0795 -0.2305  0.0471
  197MOL0     H26586   5.080   8.996   3.283  2.7647 -1.9918 -0.5119
  197MOL0     H26587   5.157   9.142   3.087 -0.1792 -1.8009  0.3115
  197MOL0     H26588   5.245   9.244   3.198  1.5377 -1.9885  0.1353
  197MOL0     H26589   5.014   9.285   3.320  0.2981  3.2446 -0.6056
  197MOL0     H26590   5.018   9.351   3.154 -2.4299 -0.3871 -0.1386
  197MOL0     H26591   4.731   9.037   3.124 -1.6745  0.5320  3.8359
  197MOL0     H26592   5.588   9.182   3.497 -1.1369  0.2077 -0.9598
  197MOL0     H26593   5.746   9.191   3.657 -0.4840 -1.4782  0.3619
  197MOL0     H26594   5.843   9.050   3.678 -1.4262 -0.4256  0.3297
  197MOL0     H26595   5.894   9.166   3.557  0.7338 -0.5438 -1.0594
  198MOL0     O26596  10.791   3.361   5.800  0.3606  0.1618 -0.0226
  198MOL0     C26597  10.752   3.256   5.736  0.0592 -0.0444 -0.8589
  198MOL0     O26598  10.833   3.157   5.692 -0.2402  0.4495  0.1672
  198MOL0     C26599  10.964   3.177   5.702 -0.1362  0.3992  0.3420
  198MOL0     C26600  11.035   3.153   5.820 -0.2370  0.4036  0.0929
  198MOL0     C26601  11.167   3.199   5.825 -0.1642  0.1994  0.7218
  198MOL0     C26602  11.224   3.272   5.719 -0.1809  0.1583  0.7558
  198MOL0     O26603  11.353   3.337   5.732  0.3115  0.4328  0.3645
  198MOL0     C26604  11.402   3.357   5.862  0.1779 -1.0646  0.3562
  198MOL0     C26605  11.535   3.430   5.835  0.3773  0.6794  0.1292
  198MOL0     C26606  11.621   3.451   5.960 -0.3644 -0.6171 -0.4427
  198MOL0     C26607  11.717   3.334   5.986 -0.1414  0.0026 -0.5491
  198MOL0     C26608  11.802   3.342   6.114  0.8205  0.0709 -0.0268
  198MOL0     C26609  11.919   3.438   6.099  0.0661  0.5765  0.1087
  198MOL0     C26610  11.989   3.485   6.225 -0.8093 -0.4247  0.0620
  198MOL0     C26611  12.087   3.384   6.281 -0.3946 -0.1964 -0.7548
  198MOL0     N26612  12.219   3.444   6.261  0.6664  0.3578 -0.5259
  198MOL0     C26613  12.291   3.501   6.364 -0.9760 -0.1730 -0.6884
  198MOL0     C26614  12.420   3.514   6.309  0.1045  0.4442  0.0311
  198MOL0     C26615  12.540   3.557   6.368 -0.1828 -1.2040  0.1399
  198MOL0     C26616  12.651   3.462   6.342  0.4458  0.6960  0.5077
  198MOL0     C26617  12.778   3.505   6.426  0.2941 -0.2797  0.2786
  198MOL0     C26618  12.907   3.434   6.382 -0.0428 -0.4516 -0.2120
  198MOL0     O26619  12.966   3.359   6.489  0.0687 -0.7807  0.0625
  198MOL0     C26620  13.062   3.423   6.561  0.1551 -0.9911 -0.1885
  198MOL0     C26621  13.166   3.339   6.608  0.5508  0.4942  0.2174
  198MOL0     C26622  13.268   3.388   6.694 -0.0731 -0.2315 -1.1172
  198MOL0     C26623  13.270   3.529   6.724 -0.9368  0.1493 -0.0537
  198MOL0     C26624  13.384   3.584   6.807  0.0315  0.6010 -0.5261
  198MOL0     O26625  13.476   3.482   6.841 -0.1605  0.0061  0.0511
  198MOL0     C26626  13.582   3.486   6.924 -0.4037  0.0027 -0.1135
  198MOL0     C26627  13.661   3.374   6.940 -0.0933  0.0623  1.1623
  198MOL0     C26628  13.769   3.374   7.029  0.5140 -0.4971 -0.1308
  198MOL0     C26629  13.806   3.492   7.091 -0.0114 -0.8392  0.1165
  198MOL0     O26630  13.895   3.497   7.196  0.0342  0.1774 -0.8809
  198MOL0     C26631  14.019   3.434   7.178 -0.9823  0.5774 -0.3047
  198MOL0     C26632  14.084   3.421   7.320 -0.7810  0.8694  0.2501
  198MOL0     C26633  13.993   3.341   7.415 -0.6276  0.4887 -0.4441
  198MOL0     C26634  13.971   3.197   7.371 -0.5501 -0.0883 -0.4749
  198MOL0     C26635  13.856   3.134   7.457  0.0961  0.1489 -0.2152
  198MOL0     C26636  13.818   2.996   7.392  0.5867 -0.2707  0.6518
  198MOL0     C26637  13.724   2.912   7.481 -0.6895  0.4652 -0.2645
  198MOL0     C26638  13.716   2.776   7.412 -0.2328 -0.9208  0.0586
  198MOL0    Cl26639  13.612   2.782   7.269  0.2685  0.0425 -0.2164
  198MOL0     C26640  13.740   3.614   7.060  0.0518 -0.6389  0.5588
  198MOL0     C26641  13.626   3.607   6.981  0.0916  0.2110  0.8022
  198MOL0     O26642  13.401   3.705   6.816  0.5815 -0.2883 -0.1496
  198MOL0     C26643  13.166   3.617   6.667  0.3143 -0.0434  0.3376
  198MOL0     C26644  13.071   3.564   6.584  0.7149  0.3282  0.3995
  198MOL0     N26645  12.412   3.479   6.176  0.0665  0.2783  0.5184
  198MOL0     N26646  12.291   3.450   6.147 -0.2980  0.2275  0.2052
  198MOL0     C26647  11.144   3.302   5.611  0.5639 -0.0516  1.2159
  198MOL0     C26648  11.023   3.249   5.593  0.3102 -0.1096 -0.2973
  198MOL0     C26649  10.604   3.249   5.715  0.6196  0.5658 -0.4851
  198MOL0     C26650  10.564   3.152   5.620 -0.1530  0.2100 -0.0828
  198MOL0     C26651  10.426   3.128   5.601  0.0589  0.1349 -0.5838
  198MOL0     C26652  10.323   3.194   5.673  0.2244 -0.7413  0.1318
  198MOL0     O26653  10.185   3.187   5.646 -0.3745  0.2549 -0.4593
  198MOL0     C26654  10.129   3.081   5.561 -0.0042 -1.1104 -1.5688
  198MOL0     C26655   9.993   3.137   5.526 -0.7131  0.0916 -0.0293
  198MOL0     C26656   9.886   3.112   5.629 -0.2610 -0.4935  0.1069
  198MOL0     C26657   9.750   3.168   5.590  0.6861 -0.6332  0.2962
  198MOL0     C26658   9.680   3.074   5.499  0.6090 -0.0789  0.2270
  198MOL0     C26659   9.614   3.002   5.420  0.2700 -0.4416 -0.4619
  198MOL0     C26660  10.368   3.292   5.765 -0.8638  0.0526  0.1474
  198MOL0     C26661  10.498   3.333   5.780  0.1501  0.1331 -0.1114
  198MOL0     C26662  10.531   3.444   5.868 -0.2167  0.2532  0.0894
  198MOL0     H26663  10.975   3.101   5.893 -1.0821  2.3890  0.8964
  198MOL0     H26664  11.220   3.188   5.919  0.1013  0.0795  0.5585
  198MOL0     H26665  11.337   3.416   5.928 -0.6066 -0.9736 -0.4813
  198MOL0     H26666  11.432   3.262   5.906  1.5852  0.1059  2.0509
  198MOL0     H26667  11.502   3.528   5.796  2.3636  1.5707  0.5779
  198MOL0     H26668  11.597   3.377   5.763 -0.0044 -1.5927  1.3740
  198MOL0     H26669  11.552   3.479   6.040  1.9173  0.8071  1.1616
  198MOL0     H26670  11.689   3.535   5.941  1.6420 -1.2947  2.8446
  198MOL0     H26671  11.655   3.245   5.997 -0.5204  0.0616 -2.0546
  198MOL0     H26672  11.778   3.310   5.899  1.2834  1.0240  0.1208
  198MOL0     H26673  11.734   3.380   6.191  0.1430 -0.2934 -0.4287
  198MOL0     H26674  11.830   3.239   6.137 -1.8400 -1.7390 -3.7248
  198MOL0     H26675  11.993   3.392   6.033 -0.9320 -0.0587 -0.5984
  198MOL0     H26676  11.871   3.522   6.048  1.1928  1.5252  0.5586
  198MOL0     H26677  11.916   3.488   6.306  0.1375 -1.1285  0.9661
  198MOL0     H26678  12.033   3.585   6.224 -0.7895 -0.4341 -0.6601
  198MOL0     H26679  12.065   3.362   6.386 -0.1311  0.0826 -0.6402
  198MOL0     H26680  12.085   3.296   6.217  0.3487  0.4448 -1.6996
  198MOL0     H26681  12.270   3.517   6.470  3.9398  2.2712  0.2262
  198MOL0     H26682  12.558   3.662   6.344 -0.9057 -1.3348 -1.0895
  198MOL0     H26683  12.532   3.560   6.477  1.1177  0.9942  0.2289
  198MOL0     H26684  12.603   3.369   6.373 -0.3415  0.9672  0.1625
  198MOL0     H26685  12.678   3.441   6.238 -0.8152 -2.0175  0.6414
  198MOL0     H26686  12.766   3.476   6.531 -0.0264 -3.6945 -0.5877
  198MOL0     H26687  12.784   3.614   6.411  0.0856 -0.2098  0.6877
  198MOL0     H26688  12.980   3.503   6.337 -1.2318  0.1449 -1.3172
  198MOL0     H26689  12.889   3.362   6.302 -1.2399 -0.4903  0.0744
  198MOL0     H26690  13.166   3.232   6.586 -0.6821  0.5876 -0.3148
  198MOL0     H26691  13.336   3.312   6.733 -3.9567 -2.9496  0.9942
  198MOL0     H26692  13.624   3.284   6.891 -1.7342  0.4289  1.6634
  198MOL0     H26693  13.826   3.284   7.047  3.7070  1.2094 -0.8335
  198MOL0     H26694  14.010   3.341   7.121  1.3740  0.1273 -0.0444
  198MOL0     H26695  14.078   3.509   7.126  0.9053  0.3048  1.3325
  198MOL0     H26696  14.181   3.371   7.308 -1.3694  0.2336 -2.6853
  198MOL0     H26697  14.097   3.522   7.358  1.7361  0.7149  0.0068
  198MOL0     H26698  14.030   3.346   7.518 -2.1319 -1.5260  0.2611
  198MOL0     H26699  13.895   3.389   7.414 -0.1798  1.5185  1.1460
  198MOL0     H26700  14.068   3.149   7.388  0.5441  1.8427 -1.0484
  198MOL0     H26701  13.953   3.182   7.264  0.1873  0.8250 -0.7336
  198MOL0     H26702  13.776   3.208   7.447  1.3731  1.5535 -0.3426
  198MOL0     H26703  13.888   3.122   7.561  0.6556  0.3572 -0.3572
  198MOL0     H26704  13.761   3.012   7.300 -0.4496  1.1994  1.4986
  198MOL0     H26705  13.907   2.937   7.371 -1.1817 -2.9037 -0.0113
  198MOL0     H26706  13.627   2.964   7.485 -0.7331  0.6403 -2.4130
  198MOL0     H26707  13.766   2.903   7.582 -0.4103 -1.5761 -0.5298
  198MOL0     H26708  13.820   2.747   7.398  1.4800  2.7617  3.2287
  198MOL0     H26709  13.675   2.701   7.480  0.0100 -0.1491  1.0854
  198MOL0     H26710  13.783   3.701   7.109 -0.1149 -1.0685  1.5098
  198MOL0     H26711  13.584   3.701   6.948 -1.3189 -0.7901 -0.3850
  198MOL0     H26712  13.171   3.722   6.692  2.7080  0.9099 -3.3748
  198MOL0     H26713  12.995   3.634   6.551 -0.4731 -0.9365  0.3657
  198MOL0     H26714  11.180   3.368   5.533  1.9478 -1.5685  0.5430
  198MOL0     H26715  10.978   3.267   5.496 -0.1438 -1.1458 -0.2900
  198MOL0     H26716  10.635   3.086   5.572  1.7144  0.4524  2.2090
  198MOL0     H26717  10.398   3.049   5.531 -2.5057  1.8752 -1.6748
  198MOL0     H26718  10.114   2.986   5.614 -0.9531  1.2684  2.8354
  198MOL0     H26719  10.195   3.067   5.475  5.0640  1.5266  1.4267
  198MOL0     H26720   9.964   3.074   5.442  0.4393 -0.9667  0.3350
  198MOL0     H26721   9.989   3.238   5.484  2.8403 -0.4591 -2.0299
  198MOL0     H26722   9.923   3.153   5.723  0.8037  1.6165 -1.1532
  198MOL0     H26723   9.869   3.005   5.645 -0.8752 -0.5672 -0.9459
  198MOL0     H26724   9.693   3.175   5.683 -0.6222 -2.8929 -0.2789
  198MOL0     H26725   9.763   3.268   5.546 -0.2254  0.5628  2.5920
  198MOL0     H26726   9.547   2.952   5.353 -0.3564  0.9250 -0.8800
  198MOL0     H26727  10.291   3.340   5.825 -0.4804 -0.4052  1.0304
  198MOL0     H26728  10.575   3.407   5.960 -1.9082 -2.2724 -0.0163
  198MOL0     H26729  10.595   3.509   5.807 -2.1929  0.1950 -2.1779
  198MOL0     H26730  10.447   3.507   5.899 -0.6790  0.9910 -2.4245
  199MOL0     O26731   8.222  10.364  10.657 -0.2555  0.2185  0.6177
  199MOL0     C26732   8.123  10.340  10.599 -0.3513  0.1506 -0.0542
  199MOL0     O26733   8.122  10.298  10.474 -0.1565  0.0029  0.0207
  199MOL0     C26734   8.246  10.281  10.407  0.0743 -1.1880 -0.3422
  199MOL0     C26735   8.317  10.402  10.370 -0.4090  0.1521  0.3434
  199MOL0     C26736   8.433  10.394  10.291 -0.5338 -0.4035 -0.2340
  199MOL0     C26737   8.483  10.270  10.253  0.1984  0.3066  0.1768
  199MOL0     O26738   8.594  10.246  10.177  0.1344 -0.1729 -0.2334
  199MOL0     C26739   8.703  10.340  10.179  1.0433 -0.5080  0.3924
  199MOL0     C26740   8.838  10.263  10.180 -0.3839  0.1709 -0.1698
  199MOL0     C26741   8.952  10.358  10.219 -0.4303 -0.3433 -0.0020
  199MOL0     C26742   9.089  10.319  10.173  0.5610  0.1621  0.4995
  199MOL0     C26743   9.133  10.177  10.215 -0.0172  0.3787 -0.1148
  199MOL0     C26744   9.280  10.168  10.198 -0.4171 -0.1804  0.5654
  199MOL0     C26745   9.328  10.166  10.057 -0.2532 -0.0172 -0.4639
  199MOL0     C26746   9.474  10.131  10.040 -0.0149 -0.8627  0.0446
  199MOL0     N26747   9.564  10.253  10.023  0.2605  0.0017 -0.1334
  199MOL0     C26748   9.598  10.338  10.129  0.3583  0.6991 -0.0429
  199MOL0     C26749   9.657  10.441  10.065  0.0183 -0.6753  0.8760
  199MOL0     C26750   9.690  10.563  10.140 -0.3782  0.7145 -0.3927
  199MOL0     C26751   9.766  10.668  10.056  0.9410  0.5159  0.0822
  199MOL0     C26752   9.853  10.770  10.137 -0.2820  0.6077  0.0994
  199MOL0     C26753   9.881  10.897  10.059 -0.5559  0.2299  0.5456
  199MOL0     O26754   9.945  10.984  10.150  0.1909 -0.0123  0.6049
  199MOL0     C26755  10.077  10.997  10.132  0.2599  0.4206  0.8642
  199MOL0     C26756  10.178  10.912  10.191  0.7893 -0.3438 -0.6609
  199MOL0     C26757  10.310  10.932  10.169 -0.8728 -0.4853  0.4213
  199MOL0     C26758  10.360  11.038  10.089  0.9621  0.3198  0.0874
  199MOL0     C26759  10.501  11.045  10.069  0.3807 -0.8956  0.2781
  199MOL0     O26760  10.583  10.935  10.089  0.7144 -0.1084 -0.0578
  199MOL0     C26761  10.716  10.950  10.073  0.9961 -0.0468 -0.7582
  199MOL0     C26762  10.768  10.927   9.950  0.2941  0.3614  0.7974
  199MOL0     C26763  10.902  10.938   9.911  0.8682 -0.0558  0.2807
  199MOL0     C26764  10.990  10.954  10.026  0.2312 -0.1275 -0.5061
  199MOL0     O26765  11.127  10.937  10.017 -0.4298 -0.3233  0.0742
  199MOL0     C26766  11.181  10.926   9.883  0.3961 -0.1275 -0.4712
  199MOL0     C26767  11.329  10.933   9.877 -0.2427 -1.0070  0.0675
  199MOL0     C26768  11.391  10.832   9.783  0.2643 -0.4780  0.0892
  199MOL0     C26769  11.542  10.820   9.788  0.8415 -0.4980  0.8987
  199MOL0     C26770  11.597  10.710   9.688  0.2032 -0.8142  0.3818
  199MOL0     C26771  11.748  10.731   9.652 -0.0854  0.1642 -0.1484
  199MOL0     C26772  11.822  10.585   9.634  0.2821 -0.7754 -0.2537
  199MOL0     C26773  11.959  10.594   9.694 -0.0424  0.3992 -0.2209
  199MOL0    Cl26774  11.942  10.602   9.874  0.0800  0.0046 -0.2763
  199MOL0     C26775  10.940  10.984  10.155  0.2505 -0.3928  0.6773
  199MOL0     C26776  10.800  10.991  10.175 -0.9122 -1.0114 -0.2338
  199MOL0     O26777  10.538  11.154  10.022  0.2969  0.3184  0.3501
  199MOL0     C26778  10.253  11.123  10.039 -0.9530  0.0813  0.2375
  199MOL0     C26779  10.119  11.111  10.061  0.5217  0.1607 -0.1334
  199MOL0     N26780   9.660  10.409   9.929 -0.5067  0.2229 -0.2855
  199MOL0     N26781   9.616  10.294   9.909  0.8692  0.4349  0.1213
  199MOL0     C26782   8.414  10.152  10.293  0.1161 -0.1275  0.3726
  199MOL0     C26783   8.294  10.158  10.370  0.4652 -0.3289 -0.3929
  199MOL0     C26784   7.997  10.353  10.671  0.2722  0.3468 -0.1995
  199MOL0     C26785   8.001  10.385  10.805 -0.3086 -0.3273 -0.9554
  199MOL0     C26786   7.885  10.399  10.884  0.1642 -0.6408 -0.1281
  199MOL0     C26787   7.763  10.380  10.832 -0.4468  0.3419  0.6149
  199MOL0     O26788   7.664  10.394  10.911  0.8374 -0.3049 -0.7344
  199MOL0     C26789   7.532  10.358  10.871  0.2112 -0.0940  0.2401
  199MOL0     C26790   7.484  10.474  10.783  0.0851 -0.1121  0.1727
  199MOL0     C26791   7.346  10.433  10.717  0.4987  0.3728  0.8878
  199MOL0     C26792   7.361  10.352  10.583 -0.5269  0.0412 -0.0615
  199MOL0     C26793   7.461  10.399  10.482 -0.2962  0.4028  0.2016
  199MOL0     C26794   7.549  10.442  10.410  0.2945 -0.2797  0.6693
  199MOL0     C26795   7.757  10.338  10.697  0.3808  0.6790  0.0717
  199MOL0     C26796   7.873  10.319  10.613 -0.0739  1.2214 -0.5791
  199MOL0     C26797   7.844  10.254  10.480  0.0863 -0.0904 -0.0118
  199MOL0     H26798   8.282  10.498  10.407 -1.5167 -0.8552  2.0511
  199MOL0     H26799   8.488  10.484  10.263  0.1804 -0.8238 -0.2185
  199MOL0     H26800   8.714  10.400  10.088  0.3580 -5.4114 -3.3575
  199MOL0     H26801   8.702  10.412  10.261  0.5643  1.8184 -1.5471
  199MOL0     H26802   8.857  10.217  10.083  0.4710  2.4930 -1.1633
  199MOL0     H26803   8.815  10.194  10.262 -1.5908 -0.2385 -0.8329
  199MOL0     H26804   8.961  10.357  10.328 -1.9513  0.6913  0.1700
  199MOL0     H26805   8.933  10.462  10.188  2.7720 -0.5071 -3.1808
  199MOL0     H26806   9.100  10.325  10.064  0.5866 -1.5945  0.3747
  199MOL0     H26807   9.148  10.392  10.229 -0.1689  0.4688  0.8942
  199MOL0     H26808   9.109  10.165  10.321 -0.3886 -0.6648 -0.3033
  199MOL0     H26809   9.084  10.099  10.156 -0.2768  1.4043 -1.2972
  199MOL0     H26810   9.326  10.248  10.257 -1.0890  0.0007  0.8561
  199MOL0     H26811   9.311  10.074  10.246 -0.7103 -0.6012 -0.0509
  199MOL0     H26812   9.313  10.263  10.008  2.8043  0.7017 -0.1636
  199MOL0     H26813   9.278  10.081  10.008 -0.2078 -2.0560  2.7681
  199MOL0     H26814   9.496  10.076  10.131  0.8584  1.0701  1.0709
  199MOL0     H26815   9.478  10.071   9.948  0.4664  0.1252 -0.6024
  199MOL0     H26816   9.596  10.321  10.236  0.9204  1.1883  0.0498
  199MOL0     H26817   9.607  10.610  10.194 -2.5203  0.4228 -3.2142
  199MOL0     H26818   9.756  10.514  10.214 -1.7346  1.6310  1.5093
  199MOL0     H26819   9.828  10.618   9.981  0.0072 -2.2802  1.0362
  199MOL0     H26820   9.688  10.724  10.002 -4.0318 -1.1616  4.6077
  199MOL0     H26821   9.951  10.725  10.158  0.1731  0.3734 -2.2819
  199MOL0     H26822   9.804  10.794  10.232 -0.1361  1.7663 -0.1140
  199MOL0     H26823   9.788  10.947  10.032  1.0377  1.7906 -2.5403
  199MOL0     H26824   9.947  10.877   9.974  1.0543  3.8972  0.7272
  199MOL0     H26825  10.130  10.832  10.246 -0.0848  1.8355  1.9294
  199MOL0     H26826  10.381  10.870  10.222  1.2221  0.9480 -0.5521
  199MOL0     H26827  10.701  10.912   9.866  0.9353  1.2276  0.1088
  199MOL0     H26828  10.930  10.908   9.811  1.2068 -1.0400  0.6552
  199MOL0     H26829  11.148  10.830   9.841 -1.7354 -0.1210  0.9998
  199MOL0     H26830  11.143  11.009   9.823 -0.8001 -0.5516 -0.3298
  199MOL0     H26831  11.360  11.034   9.852  0.0087 -0.9375  0.6431
  199MOL0     H26832  11.360  10.908   9.979 -1.2632  1.5107  1.0640
  199MOL0     H26833  11.370  10.730   9.816  1.4648 -0.6314  0.4256
  199MOL0     H26834  11.353  10.854   9.683 -0.2395  2.2245  0.7659
  199MOL0     H26835  11.555  10.796   9.894 -0.8700  1.0277  1.4972
  199MOL0     H26836  11.599  10.912   9.771  0.5484 -0.8812 -2.8826
  199MOL0     H26837  11.547  10.724   9.592  0.6796 -2.0218 -0.0577
  199MOL0     H26838  11.575  10.613   9.734 -0.9363 -0.6719  0.1754
  199MOL0     H26839  11.772  10.799   9.569  0.2813 -0.2561 -0.3882
  199MOL0     H26840  11.789  10.771   9.746 -2.0594 -2.2381  1.8750
  199MOL0     H26841  11.838  10.557   9.529 -0.1799 -0.4677 -0.4104
  199MOL0     H26842  11.763  10.506   9.681  1.3602 -0.9373  0.8869
  199MOL0     H26843  12.018  10.505   9.671 -3.2266 -0.9864 -4.4499
  199MOL0     H26844  12.025  10.674   9.659  0.5244  0.1736  0.3127
  199MOL0     H26845  11.017  10.989  10.232 -0.2476 -1.5771  1.2844
  199MOL0     H26846  10.758  11.008  10.274 -1.8386  0.8025 -0.9040
  199MOL0     H26847  10.288  11.205   9.976 -3.2460  0.8194 -0.1687
  199MOL0     H26848  10.053  11.189  10.024 -1.3252  0.3060  3.1387
  199MOL0     H26849   8.448  10.055  10.256  0.3943  0.9203 -2.3266
  199MOL0     H26850   8.242  10.068  10.399  1.4347 -0.6213  0.4945
  199MOL0     H26851   8.097  10.405  10.850 -1.2157  0.6303  0.6489
  199MOL0     H26852   7.881  10.448  10.981 -3.0472  0.3405 -0.6421
  199MOL0     H26853   7.469  10.351  10.960 -1.7714 -2.8701 -1.2321
  199MOL0     H26854   7.529  10.266  10.812 -0.3992  0.8808 -1.2950
  199MOL0     H26855   7.556  10.506  10.708  0.0735 -0.5761 -0.0407
  199MOL0     H26856   7.469  10.554  10.856 -0.5647  0.6340 -0.7576
  199MOL0     H26857   7.279  10.518  10.698 -0.4623 -0.6374 -0.3958
  199MOL0     H26858   7.279  10.374  10.780 -0.6478  0.2996 -0.3504
  199MOL0     H26859   7.388  10.250  10.610 -1.3938 -0.7353 -1.9208
  199MOL0     H26860   7.260  10.344  10.540  0.2458  0.9669 -2.1531
  199MOL0     H26861   7.624  10.470  10.339 -1.1996  1.2297 -0.4192
  199MOL0     H26862   7.666  10.318  10.642  0.4412  0.2168  0.1365
  199MOL0     H26863   7.871  10.331  10.406 -0.7970 -0.7898 -1.1013
  199MOL0     H26864   7.900  10.161  10.467  1.2402  0.6660 -0.6965
  199MOL0     H26865   7.738  10.231  10.462 -1.5564  4.9788  1.4731
  200MOL0     O26866   8.650  11.053   0.148  0.7793 -0.2831  0.2857
  200MOL0     C26867   8.661  11.086   0.261 -0.8692  0.0122 -0.6914
  200MOL0     O26868   8.779  11.113   0.313  0.6928 -0.2714  0.0595
  200MOL0     C26869   8.897  11.099   0.247 -0.5050  0.3422 -0.5464
  200MOL0     C26870   8.926  11.141   0.119 -0.4609  0.4767 -0.1998
  200MOL0     C26871   9.060  11.117   0.064  0.6018 -0.5987 -0.0611
  200MOL0     C26872   9.163  11.066   0.146 -0.1537  0.3894  0.3313
  200MOL0     O26873   9.288  11.025   0.110  0.1338 -0.3817  0.3346
  200MOL0     C26874   9.354  11.085   0.003 -0.0842  0.5356  0.3966
  200MOL0     C26875   9.502  11.057   0.013 -0.5039  0.4813 -0.6877
  200MOL0     C26876   9.587  11.152  -0.068 -1.9088  0.1136  0.3761
  200MOL0     C26877   9.742  11.106  -0.045 -0.0447 -0.4349 -0.3161
  200MOL0     C26878   9.838  11.210  -0.106  0.2050  0.6867  0.3701
  200MOL0     C26879   9.842  11.344  -0.033 -0.5322  0.8175 -0.1951
  200MOL0     C26880   9.918  11.328   0.091  0.8685 -0.0856  0.3645
  200MOL0     C26881   9.952  11.464   0.148 -0.0082  0.6229 -0.3600
  200MOL0     N26882  10.011  11.431   0.281 -0.4412  0.1539  0.6598
  200MOL0     C26883  10.144  11.387   0.293  0.9887  0.4081 -0.0498
  200MOL0     C26884  10.157  11.352   0.432 -0.1198  0.2597  1.8480
  200MOL0     C26885  10.267  11.268   0.488 -0.5685 -0.3446 -0.3229
  200MOL0     C26886  10.391  11.357   0.521  0.4958 -0.8606 -0.6774
  200MOL0     C26887  10.450  11.452   0.419  0.8115  0.3993  0.6289
  200MOL0     C26888  10.599  11.477   0.454 -0.3164 -0.1141 -0.6083
  200MOL0     O26889  10.661  11.572   0.365  0.0419 -0.2678 -0.6749
  200MOL0     C26890  10.781  11.631   0.408 -0.2504  0.3431 -0.1121
  200MOL0     C26891  10.824  11.753   0.343  0.2179 -0.0723 -0.1505
  200MOL0     C26892  10.951  11.808   0.365  0.1902  0.1094 -0.1689
  200MOL0     C26893  11.033  11.743   0.464  0.3847 -0.2810 -0.2249
  200MOL0     C26894  11.163  11.804   0.490  0.6293 -0.7071  0.3938
  200MOL0     O26895  11.212  11.898   0.402 -0.0571  0.2953  0.2589
  200MOL0     C26896  11.346  11.934   0.400  0.2735  0.9427  0.4722
  200MOL0     C26897  11.457  11.880   0.470 -0.1113  0.6150 -1.0149
  200MOL0     C26898  11.588  11.910   0.439  0.4712  0.3120  0.6378
  200MOL0     C26899  11.616  12.009   0.345  0.1278 -0.0241 -0.4466
  200MOL0     O26900  11.748  12.032   0.317  0.0952 -0.6263  0.0030
  200MOL0     C26901  11.773  12.165   0.301  0.0486 -0.3780  0.2171
  200MOL0     C26902  11.931  12.190   0.307  0.2929  0.2240  0.0423
  200MOL0     C26903  11.957  12.347   0.324  0.6457 -0.4954 -0.0270
  200MOL0     C26904  12.109  12.389   0.310  0.9297 -0.2767  0.4510
  200MOL0     C26905  12.121  12.538   0.356  0.3013  0.0423 -0.1515
  200MOL0     C26906  12.268  12.564   0.361 -0.4167  0.3575  0.3351
  200MOL0     C26907  12.305  12.687   0.436  0.6287 -0.5141  0.5108
  200MOL0     C26908  12.321  12.663   0.581 -0.0439 -0.2951 -0.3351
  200MOL0    Cl26909  12.450  12.542   0.630 -0.5722  0.1875 -0.0464
  200MOL0     C26910  11.508  12.055   0.270  0.2815  0.5188  0.1479
  200MOL0     C26911  11.379  12.011   0.293 -0.1503  0.1153  0.1052
  200MOL0     O26912  11.219  11.759   0.590 -0.3155  0.2006 -0.0225
  200MOL0     C26913  11.001  11.621   0.521 -0.1566  0.1139  0.4880
  200MOL0     C26914  10.877  11.559   0.488 -0.3752  0.5103  0.1752
  200MOL0     N26915  10.034  11.369   0.489 -0.0412 -0.1074  0.4469
  200MOL0     N26916   9.951  11.422   0.404 -0.1237 -0.1332 -0.0280
  200MOL0     C26917   9.125  11.035   0.278  0.5092 -0.1400  0.2299
  200MOL0     C26918   8.997  11.053   0.331 -0.3830  0.1406 -0.0319
  200MOL0     C26919   8.546  11.091   0.345  1.8956 -0.2438 -0.4303
  200MOL0     C26920   8.435  11.158   0.293  0.4982 -0.6989 -0.4259
  200MOL0     C26921   8.312  11.169   0.364 -0.2526  0.4195  0.3905
  200MOL0     C26922   8.295  11.102   0.480  0.0598  0.4100  0.0302
  200MOL0     O26923   8.173  11.109   0.545 -0.8690 -0.1813 -0.0044
  200MOL0     C26924   8.123  10.989   0.594 -0.6154  0.7456 -0.0508
  200MOL0     C26925   7.995  11.020   0.670 -1.2901 -0.1709  0.5254
  200MOL0     C26926   7.895  10.892   0.699 -0.4186 -0.2805  0.4592
  200MOL0     C26927   7.832  10.827   0.571  0.4786  0.2953 -0.4641
  200MOL0     C26928   7.761  10.927   0.489 -0.6488  0.5283 -0.6809
  200MOL0     C26929   7.703  11.008   0.415  0.4466  0.3814  0.4217
  200MOL0     C26930   8.404  11.039   0.541 -0.3117  0.4481  0.8193
  200MOL0     C26931   8.533  11.036   0.476 -0.3338 -0.0366 -0.4883
  200MOL0     C26932   8.651  10.986   0.551  0.4470  0.1850  0.0529
  200MOL0     H26933   8.838  11.175   0.064  0.0917  3.0383  0.3740
  200MOL0     H26934   9.081  11.137  -0.040 -1.9686 -0.7640 -0.6657
  200MOL0     H26935   9.318  11.052  -0.095 -0.0228  0.5940  0.3537
  200MOL0     H26936   9.336  11.193   0.001  1.4928  0.8326 -1.4370
  200MOL0     H26937   9.516  10.954  -0.023 -5.6175 -0.5365 -0.4687
  200MOL0     H26938   9.535  11.065   0.117 -2.0116 -1.6349  0.0379
  200MOL0     H26939   9.572  11.253  -0.028 -1.4531 -0.1533  1.2338
  200MOL0     H26940   9.564  11.153  -0.175  2.6263 -1.5540 -0.8126
  200MOL0     H26941   9.761  11.093   0.062 -1.8546  0.3122  0.1377
  200MOL0     H26942   9.740  11.008  -0.093 -0.4504 -1.5408  1.8386
  200MOL0     H26943   9.942  11.175  -0.105 -0.3806 -1.2399  1.7281
  200MOL0     H26944   9.818  11.216  -0.213  1.1632 -1.7913 -0.0279
  200MOL0     H26945   9.896  11.412  -0.100 -0.9513 -0.6150 -2.0682
  200MOL0     H26946   9.741  11.380  -0.014 -1.2385 -1.8331  1.6384
  200MOL0     H26947  10.014  11.284   0.061  1.2930  0.4158  0.9388
  200MOL0     H26948   9.873  11.264   0.167  2.3356 -0.9411  0.5702
  200MOL0     H26949  10.030  11.515   0.090  0.9473 -1.6730 -1.2277
  200MOL0     H26950   9.875  11.542   0.152 -0.9820 -0.3304 -0.0670
  200MOL0     H26951  10.211  11.366   0.211 -0.9131 -1.3077 -1.2698
  200MOL0     H26952  10.228  11.207   0.570  0.2248  0.5609  0.7667
  200MOL0     H26953  10.298  11.199   0.409  0.0289 -0.3326 -0.1031
  200MOL0     H26954  10.354  11.421   0.602  2.9467 -0.0412 -0.1363
  200MOL0     H26955  10.467  11.294   0.566 -0.2530 -1.9176 -0.8607
  200MOL0     H26956  10.393  11.545   0.408  0.4613  0.2830  1.3480
  200MOL0     H26957  10.446  11.403   0.322  1.1021 -0.5618  1.0835
  200MOL0     H26958  10.652  11.381   0.451 -2.6157 -1.4307 -0.8004
  200MOL0     H26959  10.599  11.521   0.554  1.1541 -0.1119 -0.5790
  200MOL0     H26960  10.760  11.808   0.274 -1.1143 -2.6928 -1.1503
  200MOL0     H26961  10.981  11.894   0.305  1.3829  1.9905  2.8920
  200MOL0     H26962  11.434  11.798   0.536 -2.3507  0.2351 -2.1799
  200MOL0     H26963  11.672  11.863   0.488  1.2277  0.9777  0.0032
  200MOL0     H26964  11.733  12.181   0.201 -1.7812 -2.4606  0.5232
  200MOL0     H26965  11.709  12.229   0.364  1.3718  2.1142 -0.8190
  200MOL0     H26966  11.968  12.145   0.399 -1.2688  1.9343  1.5937
  200MOL0     H26967  11.990  12.151   0.223  1.9814 -0.1904  1.3845
  200MOL0     H26968  11.892  12.403   0.256 -1.5853 -1.3383  1.2800
  200MOL0     H26969  11.920  12.383   0.420 -0.5788  0.8091 -0.9507
  200MOL0     H26970  12.137  12.390   0.204 -0.1442  0.3070  0.1482
  200MOL0     H26971  12.179  12.322   0.361  2.3303  0.1526 -0.8318
  200MOL0     H26972  12.079  12.542   0.456 -0.3635 -0.4937 -0.3966
  200MOL0     H26973  12.069  12.610   0.291  3.0233  1.8761 -0.4604
  200MOL0     H26974  12.315  12.476   0.406  0.5568 -0.2200 -1.6642
  200MOL0     H26975  12.295  12.566   0.255 -2.2806  1.9405 -0.1627
  200MOL0     H26976  12.242  12.774   0.414 -0.1809 -0.9841  0.9577
  200MOL0     H26977  12.398  12.728   0.396  0.4136 -1.3123 -0.8601
  200MOL0     H26978  12.344  12.758   0.630 -1.6186 -0.1118  0.1034
  200MOL0     H26979  12.230  12.633   0.633 -0.1854  0.4703 -0.1368
  200MOL0     H26980  11.518  12.128   0.190 -0.1960  0.5908  0.1513
  200MOL0     H26981  11.300  12.039   0.225  0.0241  1.1044  0.2932
  200MOL0     H26982  11.073  11.561   0.575  1.6393  0.7704 -1.0805
  200MOL0     H26983  10.863  11.454   0.512  1.1886  0.0678 -0.7038
  200MOL0     H26984   9.194  11.009   0.358  1.2678  1.2185  0.0458
  200MOL0     H26985   8.977  11.020   0.432  1.1878 -4.3948 -0.9195
  200MOL0     H26986   8.436  11.213   0.199 -1.3723  1.7763  0.8677
  200MOL0     H26987   8.229  11.227   0.326 -0.8414 -1.5681 -1.5809
  200MOL0     H26988   8.192  10.939   0.662 -0.3857  1.9104  0.5945
  200MOL0     H26989   8.113  10.926   0.505  2.2092  0.7955 -0.5071
  200MOL0     H26990   7.945  11.106   0.625  2.1770  2.0485  0.6175
  200MOL0     H26991   8.034  11.061   0.763 -3.7580 -0.0756  1.5879
  200MOL0     H26992   7.813  10.937   0.757 -0.6805  1.4826 -1.2003
  200MOL0     H26993   7.944  10.817   0.761 -0.7216 -1.4009 -0.6236
  200MOL0     H26994   7.907  10.766   0.520 -0.9707 -1.1430 -0.9266
  200MOL0     H26995   7.756  10.757   0.604  1.2228  0.4470  1.7327
  200MOL0     H26996   7.644  11.064   0.346 -1.2151 -0.1737  1.3488
  200MOL0     H26997   8.389  11.005   0.643 -0.5224 -3.6874 -0.4100
  200MOL0     H26998   8.718  11.072   0.561 -2.4860  2.5129  1.3194
  200MOL0     H26999   8.626  10.952   0.652 -0.0978 -1.0411 -0.4706
  200MOL0     H27000   8.699  10.904   0.497  1.8734  2.1828 -1.8658
  201MOL0     O27001   6.257  10.868   4.360  0.1441  0.1307  0.6132
  201MOL0     C27002   6.145  10.881   4.315  0.3178 -0.2282 -0.2063
  201MOL0     O27003   6.108  10.862   4.187  0.7819 -0.7295 -0.7486
  201MOL0     C27004   6.207  10.847   4.098 -0.2050  0.6424  0.0703
  201MOL0     C27005   6.234  10.723   4.053 -0.3885 -0.9097  0.1366
  201MOL0     C27006   6.340  10.716   3.961 -0.5853  0.8742 -0.2766
  201MOL0     C27007   6.419  10.822   3.913  0.0349 -0.1600 -0.1017
  201MOL0     O27008   6.501  10.790   3.807  0.7954 -0.1539  0.0498
  201MOL0     C27009   6.529  10.897   3.708 -0.0511 -0.0366 -0.0746
  201MOL0     C27010   6.664  10.967   3.754  0.8202 -0.1244 -0.1182
  201MOL0     C27011   6.786  10.876   3.750  0.8710 -0.1229  0.6826
  201MOL0     C27012   6.911  10.952   3.790  0.5268  0.6049  0.9815
  201MOL0     C27013   7.045  10.889   3.750 -0.5902  0.1469 -0.3369
  201MOL0     C27014   7.170  10.973   3.760 -1.3454  0.5811  0.5551
  201MOL0     C27015   7.196  11.017   3.905 -0.0478  0.5826  0.4944
  201MOL0     C27016   7.353  11.041   3.912 -0.2575  0.0403  0.0278
  201MOL0     N27017   7.387  11.047   4.049  0.1865 -0.2083 -0.1756
  201MOL0     C27018   7.364  10.947   4.139  0.5222 -0.8635  0.2740
  201MOL0     C27019   7.446  10.980   4.238  0.3267 -0.7554  0.0461
  201MOL0     C27020   7.468  10.906   4.362 -0.0407  0.3939 -0.2136
  201MOL0     C27021   7.545  10.773   4.333 -0.7491  0.3082 -0.3456
  201MOL0     C27022   7.586  10.704   4.467 -0.4368 -0.1049  0.2355
  201MOL0     C27023   7.671  10.579   4.434 -0.0504 -0.8842 -0.5307
  201MOL0     O27024   7.802  10.612   4.393 -0.1562  0.8848 -0.1714
  201MOL0     C27025   7.879  10.499   4.369 -0.4406 -0.2253  0.0408
  201MOL0     C27026   8.019  10.516   4.362 -0.2907 -0.4398 -0.6663
  201MOL0     C27027   8.112  10.412   4.332  0.1893 -0.0690 -0.2073
  201MOL0     C27028   8.070  10.286   4.328 -0.0361  0.4695  0.1490
  201MOL0     C27029   8.160  10.181   4.294  0.1392  0.9269  0.1682
  201MOL0     O27030   8.267  10.218   4.214  0.2143  0.2091 -0.0167
  201MOL0     C27031   8.373  10.140   4.216 -0.1125  0.1582  0.7768
  201MOL0     C27032   8.367  10.002   4.180 -0.0618  0.4802 -0.5778
  201MOL0     C27033   8.491   9.934   4.176 -1.3434 -0.3263 -0.4128
  201MOL0     C27034   8.613   9.998   4.216  0.6862  0.3411  0.4129
  201MOL0     O27035   8.724   9.924   4.242 -0.1378 -0.5840 -0.1597
  201MOL0     C27036   8.718   9.780   4.246  0.7372 -0.7222  0.1870
  201MOL0     C27037   8.851   9.729   4.288 -0.1336  1.1895  0.2538
  201MOL0     C27038   8.953   9.770   4.184 -0.4796 -0.2465  0.7813
  201MOL0     C27039   9.094   9.729   4.228 -0.4250  0.4594 -0.4570
  201MOL0     C27040   9.194   9.792   4.130  0.9699  0.4960  0.0771
  201MOL0     C27041   9.340   9.775   4.165  0.0659 -0.2751  0.1873
  201MOL0     C27042   9.383   9.847   4.292 -0.6339 -0.3812 -0.9693
  201MOL0     C27043   9.535   9.904   4.291  0.4118 -0.5818  0.1613
  201MOL0    Cl27044   9.635   9.756   4.282  0.3423 -0.3215  0.1988
  201MOL0     C27045   8.612  10.138   4.227  0.1384 -0.5390 -0.2323
  201MOL0     C27046   8.491  10.210   4.232 -0.4084  0.3701 -0.3446
  201MOL0     O27047   8.135  10.066   4.345 -0.5474 -0.2976  0.2147
  201MOL0     C27048   7.934  10.261   4.342  0.5438 -0.2373 -0.1528
  201MOL0     C27049   7.843  10.365   4.366 -0.6787  0.2830  0.4644
  201MOL0     N27050   7.505  11.107   4.209 -0.0092  0.3971 -0.1074
  201MOL0     N27051   7.464  11.143   4.095 -0.3540 -0.0273  1.3026
  201MOL0     C27052   6.387  10.951   3.963 -0.4856  0.5766  0.2043
  201MOL0     C27053   6.287  10.956   4.058  0.4671  0.1861 -1.2599
  201MOL0     C27054   6.031  10.915   4.414 -0.0450 -0.4816  0.2304
  201MOL0     C27055   5.910  10.958   4.356 -0.7361  0.4632 -0.0477
  201MOL0     C27056   5.795  10.986   4.431  0.2182  0.2624 -0.3696
  201MOL0     C27057   5.802  10.975   4.570  0.2239 -0.6424  0.0421
  201MOL0     O27058   5.698  10.996   4.656  0.1133 -0.9641 -0.4955
  201MOL0     C27059   5.573  10.925   4.628  0.1104  1.4773  0.5121
  201MOL0     C27060   5.548  10.800   4.714 -0.0392  0.7984 -0.4484
  201MOL0     C27061   5.645  10.687   4.704 -0.8751  0.6159 -0.0240
  201MOL0     C27062   5.669  10.621   4.564 -0.0198 -0.0105  0.0597
  201MOL0     C27063   5.548  10.562   4.514 -0.7371  0.3594  0.1850
  201MOL0     C27064   5.459  10.500   4.464  0.0479 -0.2918 -0.2588
  201MOL0     C27065   5.924  10.956   4.628  0.0795  0.1117 -0.4709
  201MOL0     C27066   6.039  10.922   4.558 -0.5949  0.6077 -0.3096
  201MOL0     C27067   6.162  10.892   4.631 -0.3949 -1.0923  0.0718
  201MOL0     H27068   6.181  10.633   4.080 -0.8564 -1.1078 -1.3431
  201MOL0     H27069   6.357  10.615   3.923 -0.6283  0.6572  0.2693
  201MOL0     H27070   6.533  10.858   3.606 -1.0619  1.7997 -0.8704
  201MOL0     H27071   6.441  10.961   3.698 -0.1581 -0.4386 -2.2642
  201MOL0     H27072   6.646  11.001   3.856  0.2981  1.2928 -0.6446
  201MOL0     H27073   6.681  11.056   3.691 -0.8658 -0.6797 -1.4624
  201MOL0     H27074   6.805  10.832   3.652  3.4944 -1.8363  1.8533
  201MOL0     H27075   6.754  10.804   3.825 -2.8107  0.2952 -0.2848
  201MOL0     H27076   6.908  11.051   3.743 -1.7256  0.1263  0.0218
  201MOL0     H27077   6.907  10.951   3.899 -0.6985 -1.1577  0.9454
  201MOL0     H27078   7.049  10.789   3.794 -0.6604 -0.0015 -0.6663
  201MOL0     H27079   7.045  10.867   3.643 -2.5272 -0.1343 -0.3113
  201MOL0     H27080   7.252  10.909   3.727 -0.4544  2.1013 -0.3044
  201MOL0     H27081   7.177  11.055   3.688  1.4241  1.0477  1.2560
  201MOL0     H27082   7.167  10.937   3.973 -1.8529  1.9077  1.3847
  201MOL0     H27083   7.130  11.103   3.925  1.2297  2.4779 -2.6023
  201MOL0     H27084   7.399  10.949   3.873  0.1203  0.6339 -0.9538
  201MOL0     H27085   7.388  11.127   3.854 -0.5131 -0.6040 -1.1148
  201MOL0     H27086   7.311  10.853   4.124 -0.2344 -0.2018 -1.3207
  201MOL0     H27087   7.535  10.973   4.416 -0.5489  0.6527  0.1052
  201MOL0     H27088   7.376  10.891   4.420  0.8916 -1.4836  0.8836
  201MOL0     H27089   7.483  10.711   4.268 -3.3458 -0.4636  2.5860
  201MOL0     H27090   7.632  10.791   4.270 -0.5737 -3.6493 -1.5051
  201MOL0     H27091   7.491  10.676   4.513 -0.5627 -0.4960 -0.2628
  201MOL0     H27092   7.637  10.776   4.533  0.8575  0.4477 -1.3165
  201MOL0     H27093   7.614  10.522   4.361  1.0812 -2.6480 -0.1019
  201MOL0     H27094   7.671  10.517   4.524 -1.8432  0.0390  0.1588
  201MOL0     H27095   8.052  10.618   4.380  1.5018 -0.6188 -2.6114
  201MOL0     H27096   8.215  10.442   4.315  1.4913 -2.2290  3.0361
  201MOL0     H27097   8.275   9.955   4.146  0.1620 -0.0421 -0.4821
  201MOL0     H27098   8.493   9.829   4.151  0.4546 -1.4103  3.4782
  201MOL0     H27099   8.646   9.741   4.320  2.7949  0.6619  3.1146
  201MOL0     H27100   8.695   9.738   4.147  1.5944  1.4210 -0.9726
  201MOL0     H27101   8.878   9.770   4.385  1.4819  0.5230  0.1110
  201MOL0     H27102   8.852   9.620   4.286 -3.6915  1.0379 -0.3913
  201MOL0     H27103   8.930   9.724   4.088  1.8682 -2.1751  1.0456
  201MOL0     H27104   8.961   9.878   4.168  4.8665 -0.5056 -0.2065
  201MOL0     H27105   9.107   9.621   4.237 -0.6211  0.4088 -0.7472
  201MOL0     H27106   9.116   9.773   4.325 -1.5744 -0.5038  0.2661
  201MOL0     H27107   9.172   9.899   4.118  0.1164  0.7065  2.7546
  201MOL0     H27108   9.192   9.730   4.040 -0.0962 -0.9440  1.0332
  201MOL0     H27109   9.346   9.666   4.177 -1.2913 -0.2089  1.8575
  201MOL0     H27110   9.406   9.798   4.081  1.6383 -0.8019  1.2334
  201MOL0     H27111   9.376   9.772   4.372  0.7151  0.9879  0.5105
  201MOL0     H27112   9.334   9.942   4.317  0.7201  0.2473 -0.6011
  201MOL0     H27113   9.553   9.968   4.204 -0.5352 -1.5484 -0.7723
  201MOL0     H27114   9.551   9.966   4.379 -4.8199  2.0570 -0.3557
  201MOL0     H27115   8.706  10.188   4.251  0.9314 -2.7716  1.6485
  201MOL0     H27116   8.494  10.318   4.238  0.7140  0.4348 -1.4521
  201MOL0     H27117   7.896  10.159   4.345  3.5554 -1.6228 -2.9156
  201MOL0     H27118   7.741  10.328   4.371  0.0337 -1.9479 -0.2361
  201MOL0     H27119   6.439  11.040   3.927 -1.8431  1.9127  1.4343
  201MOL0     H27120   6.265  11.050   4.107  0.9392 -1.9280  3.5925
  201MOL0     H27121   5.903  10.969   4.248  3.4088  1.1661 -0.4030
  201MOL0     H27122   5.705  11.029   4.387  1.2477  2.1726 -0.7218
  201MOL0     H27123   5.577  10.883   4.528  3.5633  0.0471  1.1139
  201MOL0     H27124   5.484  10.988   4.638 -1.3803 -0.4887  0.2036
  201MOL0     H27125   5.454  10.757   4.680  0.8605 -0.5254 -1.3492
  201MOL0     H27126   5.544  10.841   4.815  3.6002 -2.1183  1.1047
  201MOL0     H27127   5.624  10.618   4.786 -0.7181  2.0694  1.2812
  201MOL0     H27128   5.738  10.740   4.727 -0.4666  0.7293 -1.7898
  201MOL0     H27129   5.711  10.688   4.489 -1.3241  1.2399  0.4137
  201MOL0     H27130   5.735  10.534   4.577 -0.7385 -0.8095 -1.3294
  201MOL0     H27131   5.381  10.438   4.425  1.3549 -2.0588 -0.2273
  201MOL0     H27132   5.928  10.959   4.736  1.7184  3.1410 -0.4923
  201MOL0     H27133   6.189  10.799   4.579 -0.8896 -0.2467 -1.7645
  201MOL0     H27134   6.244  10.963   4.616 -1.0785 -0.3636 -0.2370
  201MOL0     H27135   6.130  10.877   4.735 -3.9073 -0.8187 -0.8469
  202MOL0     O27136   7.674   9.274   4.528  0.9294 -0.5489 -0.4165
  202MOL0     C27137   7.668   9.326   4.636 -0.0842  0.0275  0.9167
  202MOL0     O27138   7.779   9.343   4.725 -0.0908  0.1359 -0.0132
  202MOL0     C27139   7.899   9.281   4.680  0.0570 -0.5864 -0.1769
  202MOL0     C27140   8.014   9.365   4.680 -0.2133 -0.3762 -0.1231
  202MOL0     C27141   8.139   9.311   4.635 -0.4324 -0.1941  0.2396
  202MOL0     C27142   8.161   9.168   4.627 -0.7620 -1.2573  0.7245
  202MOL0     O27143   8.286   9.108   4.614  0.1058  0.1730  0.3139
  202MOL0     C27144   8.415   9.172   4.597 -0.2279  0.3640  1.0805
  202MOL0     C27145   8.519   9.068   4.643 -0.1775  0.2863 -0.6593
  202MOL0     C27146   8.666   9.093   4.597 -0.4832 -0.4311 -0.8806
  202MOL0     C27147   8.755   8.975   4.640  0.3804  0.7302  0.1521
  202MOL0     C27148   8.896   8.994   4.589  0.3781 -0.7216  0.1536
  202MOL0     C27149   9.004   8.938   4.676 -0.1066  0.3393 -0.1854
  202MOL0     C27150   9.143   8.983   4.634  0.5047 -0.4642  0.1682
  202MOL0     C27151   9.252   8.917   4.713 -0.9047  0.8160  0.0209
  202MOL0     N27152   9.383   8.980   4.677 -0.0462 -0.1832 -0.4524
  202MOL0     C27153   9.483   8.944   4.595  0.2860  0.1259 -0.0227
  202MOL0     C27154   9.593   9.016   4.621 -0.0582 -0.0546  0.5911
  202MOL0     C27155   9.722   9.011   4.544 -0.6320  0.0527  0.2469
  202MOL0     C27156   9.835   9.100   4.617 -0.3620  0.0497 -0.1666
  202MOL0     C27157   9.909   9.024   4.722  0.1212  0.3553 -0.6095
  202MOL0     C27158   9.994   8.914   4.658 -0.9674 -0.4308 -0.5132
  202MOL0     O27159  10.130   8.947   4.639 -0.2679 -0.2053  0.1073
  202MOL0     C27160  10.204   8.978   4.748  0.0119 -0.1606 -0.3696
  202MOL0     C27161  10.307   9.069   4.730  0.6708  0.3863  0.2576
  202MOL0     C27162  10.390   9.099   4.832 -0.2414  1.1626 -0.4617
  202MOL0     C27163  10.374   9.042   4.963  0.1366 -0.1372  0.4646
  202MOL0     C27164  10.471   9.074   5.070 -0.6831 -0.0410  0.2861
  202MOL0     O27165  10.475   9.006   5.185 -0.7529 -0.4334  0.2274
  202MOL0     C27166  10.579   9.044   5.272  0.1038  1.0501  0.7383
  202MOL0     C27167  10.716   9.000   5.247 -0.4034 -0.1008  0.6943
  202MOL0     C27168  10.817   9.059   5.324 -0.0618  0.1876  0.8582
  202MOL0     C27169  10.795   9.145   5.432  0.1141 -0.4710 -0.0103
  202MOL0     O27170  10.902   9.194   5.510  0.0943 -0.3549 -0.0765
  202MOL0     C27171  10.877   9.273   5.625  0.3637  0.6965 -0.1372
  202MOL0     C27172  11.016   9.301   5.691 -1.0382 -0.0223 -0.3931
  202MOL0     C27173  11.112   9.372   5.597  0.4833  0.0708 -0.9214
  202MOL0     C27174  11.257   9.351   5.647  0.0724 -0.3964 -1.1474
  202MOL0     C27175  11.277   9.414   5.778 -0.1041  0.1597  0.2965
  202MOL0     C27176  11.425   9.391   5.831  0.0968  0.3536 -0.1769
  202MOL0     C27177  11.463   9.510   5.912 -0.1140  0.0519  0.3428
  202MOL0     C27178  11.604   9.494   5.982  0.2603 -0.8460  0.1429
  202MOL0    Cl27179  11.632   9.361   6.095  0.0411  0.1933 -0.0287
  202MOL0     C27180  10.662   9.162   5.467  0.1079  0.5073 -0.6666
  202MOL0     C27181  10.558   9.109   5.389  0.0732  0.8691 -0.4583
  202MOL0     O27182  10.542   9.174   5.053  0.0130 -0.4445  0.8053
  202MOL0     C27183  10.273   8.946   4.983 -0.3467 -0.0593 -0.0916
  202MOL0     C27184  10.192   8.920   4.877  0.3048 -0.5240 -1.0208
  202MOL0     N27185   9.561   9.102   4.721  0.1845  0.4023  0.7241
  202MOL0     N27186   9.438   9.082   4.753  0.0917 -0.0834 -0.0118
  202MOL0     C27187   8.051   9.082   4.635  0.1769  0.3874 -0.1953
  202MOL0     C27188   7.926   9.140   4.656 -0.5114  0.0055  0.2558
  202MOL0     C27189   7.541   9.396   4.672  0.5713  0.3434 -0.3813
  202MOL0     C27190   7.550   9.496   4.782 -0.5653  0.2633  0.2363
  202MOL0     C27191   7.445   9.573   4.827  0.1982 -0.3524 -0.2834
  202MOL0     C27192   7.315   9.539   4.772 -0.0635 -0.5663 -0.4485
  202MOL0     O27193   7.209   9.630   4.782 -0.5449 -0.1227  0.2572
  202MOL0     C27194   7.131   9.634   4.898  0.3041 -0.0537 -0.0701
  202MOL0     C27195   7.009   9.546   4.889 -1.3370  0.3144  0.5013
  202MOL0     C27196   6.888   9.591   4.799 -0.1990  0.0668 -0.1492
  202MOL0     C27197   6.911   9.576   4.649  0.4992 -0.5903 -0.7060
  202MOL0     C27198   6.912   9.439   4.595 -1.0120 -0.0680 -0.5049
  202MOL0     C27199   6.921   9.329   4.549  0.3461  0.0801  0.0002
  202MOL0     C27200   7.297   9.438   4.684 -0.2057 -0.2736 -0.0457
  202MOL0     C27201   7.405   9.364   4.628  0.1491  0.5270 -0.4931
  202MOL0     C27202   7.379   9.246   4.542 -0.7518 -0.4508  0.1745
  202MOL0     H27203   7.996   9.469   4.705 -1.5218  0.2781 -3.2979
  202MOL0     H27204   8.226   9.374   4.618 -0.8088  0.1097 -0.5932
  202MOL0     H27205   8.422   9.198   4.491 -2.9404  2.2710  1.2606
  202MOL0     H27206   8.420   9.258   4.665  1.2623  0.6283  0.6514
  202MOL0     H27207   8.483   8.967   4.623 -0.7590  0.0497  1.3651
  202MOL0     H27208   8.511   9.080   4.751  2.3009 -0.2699 -0.3594
  202MOL0     H27209   8.713   9.180   4.644  1.6721 -2.3035  0.7240
  202MOL0     H27210   8.668   9.098   4.488 -3.8250  1.3224 -0.9816
  202MOL0     H27211   8.758   8.982   4.749 -1.0850 -0.5915  0.3244
  202MOL0     H27212   8.699   8.884   4.614 -0.6052  1.2071  0.5509
  202MOL0     H27213   8.888   8.936   4.496 -2.2062 -0.4497  0.1270
  202MOL0     H27214   8.916   9.099   4.568 -0.5197 -0.6960 -0.6449
  202MOL0     H27215   8.988   8.977   4.777 -0.3012 -1.0443  0.3480
  202MOL0     H27216   8.993   8.829   4.669 -0.9107  0.4720 -1.1220
  202MOL0     H27217   9.147   9.090   4.657 -0.7646 -0.5247  0.7467
  202MOL0     H27218   9.168   8.965   4.529  0.5148 -3.0598  0.5411
  202MOL0     H27219   9.222   8.934   4.817 -1.3602  0.6317 -0.0792
  202MOL0     H27220   9.256   8.811   4.688  1.5048  0.5854  1.1447
  202MOL0     H27221   9.475   8.868   4.518 -1.2538 -1.1652  1.3423
  202MOL0     H27222   9.753   8.906   4.536 -2.1356 -0.5096  1.3089
  202MOL0     H27223   9.719   9.056   4.445  3.5073 -1.4167 -0.7738
  202MOL0     H27224   9.915   9.126   4.547  1.3368 -1.0472  1.2828
  202MOL0     H27225   9.789   9.193   4.652 -0.1446  0.3483 -0.6734
  202MOL0     H27226   9.847   8.992   4.805  0.4213 -1.9394 -1.2043
  202MOL0     H27227   9.978   9.091   4.774  0.2339 -1.3161  1.4897
  202MOL0     H27228   9.956   8.881   4.561 -1.4990  2.1265 -1.2362
  202MOL0     H27229   9.991   8.824   4.721 -1.7846 -0.3862 -0.4801
  202MOL0     H27230  10.322   9.119   4.634 -2.0502 -0.1622 -0.5260
  202MOL0     H27231  10.467   9.174   4.820  0.5773  0.3693 -0.2652
  202MOL0     H27232  10.727   8.936   5.161  0.6307 -0.7537  1.2905
  202MOL0     H27233  10.925   9.052   5.315 -0.3186 -1.0082 -2.4124
  202MOL0     H27234  10.819   9.362   5.600  2.3740  1.1275 -3.8762
  202MOL0     H27235  10.822   9.208   5.694  1.5866  0.5298  0.7122
  202MOL0     H27236  11.005   9.366   5.778 -0.7832  1.1330 -1.2012
  202MOL0     H27237  11.052   9.203   5.723  3.1400  1.9181  1.5416
  202MOL0     H27238  11.093   9.336   5.495 -3.0117  0.3704 -0.5019
  202MOL0     H27239  11.087   9.478   5.603 -2.1320 -0.5511  0.8499
  202MOL0     H27240  11.321   9.391   5.567  0.0304 -2.5109 -2.3080
  202MOL0     H27241  11.281   9.245   5.655 -1.4258 -0.8132 -1.8927
  202MOL0     H27242  11.210   9.376   5.855 -0.4058  1.5514  0.7566
  202MOL0     H27243  11.252   9.520   5.766 -0.3354  0.0849  0.1037
  202MOL0     H27244  11.425   9.302   5.895 -1.8969  0.1834 -0.3796
  202MOL0     H27245  11.484   9.357   5.745  0.8273 -0.3320  0.5679
  202MOL0     H27246  11.377   9.528   5.978 -2.8730  1.2560 -3.2934
  202MOL0     H27247  11.470   9.604   5.856 -0.8210 -0.3548 -0.4422
  202MOL0     H27248  11.687   9.492   5.912 -0.7745 -0.4756 -1.1285
  202MOL0     H27249  11.621   9.589   6.034  0.1987 -0.8563  0.1819
  202MOL0     H27250  10.638   9.208   5.563  1.1033  0.9756 -0.6329
  202MOL0     H27251  10.460   9.096   5.432  0.1935 -2.4245 -0.9119
  202MOL0     H27252  10.257   8.893   5.077 -1.3463  0.5168  0.0695
  202MOL0     H27253  10.108   8.859   4.911 -0.4721  0.9041 -0.2804
  202MOL0     H27254   8.063   8.974   4.627  0.8746  0.3358  1.1846
  202MOL0     H27255   7.844   9.070   4.644  1.6287 -2.3302 -1.6876
  202MOL0     H27256   7.647   9.524   4.823 -1.2061  1.0918  1.2563
  202MOL0     H27257   7.454   9.661   4.890 -1.1842 -1.5480  1.7171
  202MOL0     H27258   7.107   9.740   4.912 -0.7920 -0.0617 -1.6518
  202MOL0     H27259   7.191   9.603   4.984  1.7290  3.7359  0.5250
  202MOL0     H27260   6.968   9.522   4.987 -1.3278 -0.3793  0.3417
  202MOL0     H27261   7.037   9.446   4.853 -1.3975 -0.5611  2.7388
  202MOL0     H27262   6.876   9.696   4.826  1.8398  0.0588  1.0129
  202MOL0     H27263   6.799   9.533   4.825  0.8556 -0.7373  1.9408
  202MOL0     H27264   6.842   9.632   4.585  1.6766  2.3418  0.3896
  202MOL0     H27265   7.004   9.627   4.621 -0.6744  1.6655 -0.7581
  202MOL0     H27266   6.915   9.237   4.494  0.7901  0.6937 -1.0828
  202MOL0     H27267   7.193   9.427   4.654 -0.7455  1.7541  0.9016
  202MOL0     H27268   7.272   9.228   4.531 -1.1830  2.0091 -0.2231
  202MOL0     H27269   7.423   9.248   4.442 -1.0539 -2.4930 -0.0414
  202MOL0     H27270   7.435   9.166   4.590 -1.2569 -0.7683  0.2437
  203MOL0     O27271   0.137   2.242   7.266 -0.0852  0.4556  0.0373
  203MOL0     C27272   0.122   2.367   7.273  0.5569 -0.0579  0.1421
  203MOL0     O27273   0.220   2.457   7.291 -0.4817  0.2648 -0.3226
  203MOL0     C27274   0.342   2.406   7.262 -0.1499 -0.3615  0.3361
  203MOL0     C27275   0.432   2.366   7.367 -0.1453 -0.8234 -0.0302
  203MOL0     C27276   0.568   2.346   7.340 -0.1826  1.3077 -0.1234
  203MOL0     C27277   0.616   2.353   7.210  0.7684  0.6536 -0.1632
  203MOL0     O27278   0.752   2.328   7.184  0.5127 -0.4493  0.3963
  203MOL0     C27279   0.788   2.282   7.053 -0.1970  0.3396 -1.0138
  203MOL0     C27280   0.929   2.227   7.032 -0.7332  0.5914  0.7811
  203MOL0     C27281   0.988   2.254   6.890  1.2124 -0.4280  0.4711
  203MOL0     C27282   1.074   2.137   6.840  0.6651  0.7367 -0.3976
  203MOL0     C27283   1.215   2.180   6.802 -0.5370 -0.9895  0.1963
  203MOL0     C27284   1.314   2.062   6.780  0.3706  0.3547  0.7927
  203MOL0     C27285   1.451   2.113   6.717  0.8636  0.4728 -0.2954
  203MOL0     C27286   1.529   1.991   6.680 -0.9693  0.0690  0.0927
  203MOL0     N27287   1.661   2.022   6.627 -0.0691  0.5105  0.1140
  203MOL0     C27288   1.782   1.968   6.671  0.0229 -1.0129 -1.4606
  203MOL0     C27289   1.873   2.065   6.636  0.2148  0.0192  1.2993
  203MOL0     C27290   2.020   2.067   6.659 -0.4717  0.0612  0.1607
  203MOL0     C27291   2.106   2.045   6.534  0.4247  0.1523  0.3583
  203MOL0     C27292   2.230   2.135   6.546  0.4644  1.1178  1.2787
  203MOL0     C27293   2.309   2.116   6.418  0.5584  0.0081 -0.7531
  203MOL0     O27294   2.371   1.986   6.423  0.2723  0.6339  0.4191
  203MOL0     C27295   2.480   1.961   6.339  0.3108  0.4863 -0.6737
  203MOL0     C27296   2.538   2.055   6.251 -0.0957  0.1710 -0.1018
  203MOL0     C27297   2.657   2.030   6.192 -0.2046  0.7650  0.5168
  203MOL0     C27298   2.724   1.911   6.216 -0.5662  0.4308  0.0149
  203MOL0     C27299   2.848   1.884   6.138  0.1903 -0.2027 -0.0192
  203MOL0     O27300   2.885   1.751   6.145 -0.6123 -0.5068  0.6444
  203MOL0     C27301   2.988   1.724   6.055 -0.4521 -0.6484 -0.2716
  203MOL0     C27302   2.974   1.613   5.972  0.1334  0.0284  0.2021
  203MOL0     C27303   3.073   1.575   5.880 -0.2807 -0.4311 -0.4179
  203MOL0     C27304   3.195   1.631   5.893 -0.1005 -0.0996 -0.2915
  203MOL0     O27305   3.297   1.594   5.812  0.2538 -0.4323  0.0927
  203MOL0     C27306   3.414   1.682   5.796 -0.5513 -0.4299 -0.3591
  203MOL0     C27307   3.495   1.623   5.675  0.7205 -0.9979  0.0679
  203MOL0     C27308   3.640   1.657   5.694 -0.0603  0.2370 -0.3445
  203MOL0     C27309   3.721   1.606   5.583 -0.7565 -0.4242 -0.8261
  203MOL0     C27310   3.876   1.625   5.613  0.1106  0.4456  0.6730
  203MOL0     C27311   3.959   1.513   5.552  0.1494  0.0773 -0.4053
  203MOL0     C27312   4.109   1.556   5.548 -0.5090  0.0624 -0.5833
  203MOL0     C27313   4.199   1.440   5.505  0.1864  0.5466  0.9502
  203MOL0    Cl27314   4.359   1.493   5.459  0.3105 -0.2426 -0.2399
  203MOL0     C27315   3.210   1.737   5.979 -0.2371 -0.1245  0.6093
  203MOL0     C27316   3.111   1.783   6.063 -0.2954 -0.3448 -0.2879
  203MOL0     O27317   2.907   1.975   6.081 -0.4432  0.1884  0.5975
  203MOL0     C27318   2.676   1.826   6.314 -0.0979  0.2321 -0.0687
  203MOL0     C27319   2.557   1.848   6.368  0.4406  0.4809 -0.6948
  203MOL0     N27320   1.807   2.164   6.568 -0.5643 -0.9934 -0.2009
  203MOL0     N27321   1.683   2.147   6.569 -0.0788 -0.1255  0.2432
  203MOL0     C27322   0.519   2.377   7.107 -0.0332  0.6334 -0.7430
  203MOL0     C27323   0.382   2.402   7.132 -0.2639 -0.2146 -0.2468
  203MOL0     C27324  -0.014   2.428   7.272 -0.2689 -0.4265 -0.3265
  203MOL0     C27325  -0.027   2.557   7.317 -0.0763 -0.5531  0.5833
  203MOL0     C27326  -0.146   2.623   7.316  0.6455  0.5412 -0.4376
  203MOL0     C27327  -0.272   2.565   7.275  0.1784  0.1153  0.0305
  203MOL0     O27328  -0.392   2.627   7.265  0.4378 -0.0301 -0.2912
  203MOL0     C27329  -0.415   2.763   7.303 -0.2102 -0.7898  0.2139
  203MOL0     C27330  -0.466   2.844   7.191  0.8493 -0.3909 -0.0977
  203MOL0     C27331  -0.386   2.840   7.062  0.0171 -0.0715  0.1925
  203MOL0     C27332  -0.452   2.913   6.947  0.4429  0.1914  0.4119
  203MOL0     C27333  -0.578   2.855   6.893 -0.5873  0.1117  0.5036
  203MOL0     C27334  -0.679   2.822   6.837 -0.3340 -0.8676 -0.1467
  203MOL0     C27335  -0.256   2.436   7.224  0.2290  0.7052  0.0292
  203MOL0     C27336  -0.129   2.369   7.213  0.0917 -1.3392 -0.0364
  203MOL0     C27337  -0.128   2.234   7.153 -0.0361 -0.1910  0.3498
  203MOL0     H27338   0.392   2.365   7.468 -2.4254 -0.3033 -0.8744
  203MOL0     H27339   0.630   2.317   7.425 -1.6582  2.7531  1.5373
  203MOL0     H27340   0.716   2.211   7.013 -0.0226  1.0033 -2.5934
  203MOL0     H27341   0.785   2.374   6.994 -0.0254  0.1650 -1.2946
  203MOL0     H27342   0.938   2.124   7.066  0.0177 -0.3696 -2.0545
  203MOL0     H27343   0.998   2.278   7.099  1.3301  0.8699 -1.4373
  203MOL0     H27344   1.051   2.343   6.882 -1.0920  1.3232  1.0173
  203MOL0     H27345   0.910   2.280   6.819 -0.3262 -0.3713  2.1142
  203MOL0     H27346   1.077   2.060   6.919  1.5499  1.5040  0.3378
  203MOL0     H27347   1.021   2.093   6.755  3.4863  0.5844 -2.2064
  203MOL0     H27348   1.213   2.232   6.705  0.7995  0.5986  0.9547
  203MOL0     H27349   1.255   2.251   6.875  0.2259  0.3600 -1.4477
  203MOL0     H27350   1.329   2.018   6.879  0.2133  0.4547  0.8628
  203MOL0     H27351   1.268   1.988   6.713 -0.6135  0.8248  0.9240
  203MOL0     H27352   1.511   2.174   6.785  1.1999 -0.7597  0.5438
  203MOL0     H27353   1.426   2.169   6.625  3.7489  0.4452 -1.1737
  203MOL0     H27354   1.544   1.928   6.768  0.3907 -0.5019 -0.5183
  203MOL0     H27355   1.474   1.930   6.607  0.0213  1.4210 -1.8921
  203MOL0     H27356   1.799   1.885   6.739 -2.7126 -1.0198 -0.6787
  203MOL0     H27357   2.054   2.146   6.726 -0.4150  0.4277 -0.3013
  203MOL0     H27358   2.040   1.972   6.710  3.0512  0.9123  0.5941
  203MOL0     H27359   2.135   1.941   6.516 -2.0871 -0.6532  0.6823
  203MOL0     H27360   2.047   2.072   6.446  0.6418 -1.2085 -0.2223
  203MOL0     H27361   2.304   2.109   6.622  1.0022 -1.3932  0.0116
  203MOL0     H27362   2.197   2.239   6.550 -0.3320  0.8740  1.1839
  203MOL0     H27363   2.389   2.192   6.415 -0.4272  1.1062  0.0367
  203MOL0     H27364   2.244   2.138   6.333  1.2954 -0.9889 -1.5990
  203MOL0     H27365   2.504   2.158   6.252  1.0856  0.5767 -0.2180
  203MOL0     H27366   2.699   2.108   6.130  2.3426 -0.8125  0.1442
  203MOL0     H27367   2.876   1.567   5.981 -0.3778  1.2406  0.9529
  203MOL0     H27368   3.068   1.484   5.821 -0.2400 -1.1480  0.6437
  203MOL0     H27369   3.394   1.789   5.791  0.2633  0.1927  4.5350
  203MOL0     H27370   3.482   1.683   5.882  2.8868  0.5601 -2.9017
  203MOL0     H27371   3.474   1.517   5.660 -0.5759 -0.8265  0.5262
  203MOL0     H27372   3.452   1.687   5.597 -0.7442 -1.8943  0.1131
  203MOL0     H27373   3.665   1.764   5.697 -0.0594  0.4103 -3.1923
  203MOL0     H27374   3.663   1.617   5.793 -2.5055 -0.5357 -0.0201
  203MOL0     H27375   3.707   1.660   5.489  2.5056 -1.2669 -1.9292
  203MOL0     H27376   3.697   1.505   5.551  1.6249 -0.4017 -2.9779
  203MOL0     H27377   3.893   1.617   5.720 -0.5235 -2.8877  0.6296
  203MOL0     H27378   3.914   1.721   5.576 -3.2812  2.1447  1.2619
  203MOL0     H27379   3.940   1.420   5.605 -1.7322 -0.7820 -2.4394
  203MOL0     H27380   3.934   1.488   5.449  0.9817 -0.5858 -0.4571
  203MOL0     H27381   4.137   1.604   5.643  2.3048 -0.1602 -1.2151
  203MOL0     H27382   4.122   1.631   5.470 -0.6024 -0.2098 -0.8618
  203MOL0     H27383   4.209   1.362   5.581  0.2560  0.8353  1.2349
  203MOL0     H27384   4.160   1.401   5.410  1.9395  2.2569 -0.5439
  203MOL0     H27385   3.306   1.784   5.999 -0.1713 -0.4870  1.1988
  203MOL0     H27386   3.125   1.872   6.124 -1.8244 -0.7494  0.7036
  203MOL0     H27387   2.723   1.731   6.332 -2.6478 -1.7517 -2.8135
  203MOL0     H27388   2.501   1.778   6.429 -0.0992  0.5959 -1.0630
  203MOL0     H27389   0.545   2.374   7.001  1.3932  0.3339 -0.4102
  203MOL0     H27390   0.328   2.435   7.044  1.0160  3.0785  0.0619
  203MOL0     H27391   0.055   2.620   7.349  0.3918 -1.7508  1.8378
  203MOL0     H27392  -0.137   2.730   7.332  0.0962  0.5849 -0.3931
  203MOL0     H27393  -0.328   2.814   7.345  0.1169 -1.4443  0.3500
  203MOL0     H27394  -0.494   2.763   7.379  0.2278 -0.4894  0.6697
  203MOL0     H27395  -0.484   2.944   7.230  0.5086  0.7425 -2.9120
  203MOL0     H27396  -0.564   2.796   7.178  1.2995 -1.1583 -0.7123
  203MOL0     H27397  -0.368   2.734   7.039 -1.0618 -0.2652  0.1939
  203MOL0     H27398  -0.289   2.888   7.078 -0.4207  1.0720 -0.5154
  203MOL0     H27399  -0.468   3.016   6.978 -2.4989 -0.2456  0.6836
  203MOL0     H27400  -0.378   2.915   6.866  1.6891  0.1566  1.5269
  203MOL0     H27401  -0.758   2.767   6.791 -1.3687  0.8833 -0.5696
  203MOL0     H27402  -0.345   2.395   7.179 -0.0486  1.3818 -0.0551
  203MOL0     H27403  -0.117   2.161   7.233 -0.7817  0.6404  1.2267
  203MOL0     H27404  -0.221   2.219   7.096 -0.4435 -1.4253  1.2991
  203MOL0     H27405  -0.041   2.224   7.088  0.5676  1.3235  0.8963
  204MOL0     O27406   0.022   2.423   8.334  0.5558 -0.0547  0.2173
  204MOL0     C27407   0.033   2.431   8.211  0.2052 -0.6014 -0.6039
  204MOL0     O27408   0.144   2.398   8.136  0.1976  0.4686 -0.1860
  204MOL0     C27409   0.264   2.396   8.197 -0.6184  0.0564  0.4601
  204MOL0     C27410   0.365   2.322   8.132  0.4372  1.3199 -0.2753
  204MOL0     C27411   0.497   2.323   8.184 -0.6965 -0.6781  0.3199
  204MOL0     C27412   0.535   2.390   8.303  0.3664 -0.2624 -0.6132
  204MOL0     O27413   0.662   2.390   8.350 -0.4620  0.0742  0.0764
  204MOL0     C27414   0.697   2.468   8.459  0.8519 -0.1685 -0.4051
  204MOL0     C27415   0.847   2.467   8.494  0.3052 -0.0764  0.0743
  204MOL0     C27416   0.882   2.514   8.639 -0.1363  0.5656 -0.7773
  204MOL0     C27417   1.030   2.547   8.664 -0.4411  0.0489 -0.5909
  204MOL0     C27418   1.104   2.422   8.673  0.9572  0.9132  0.4982
  204MOL0     C27419   1.261   2.440   8.682  0.1934  0.2066 -0.7984
  204MOL0     C27420   1.329   2.300   8.680 -0.6957  1.0431 -0.0453
  204MOL0     C27421   1.483   2.327   8.705  0.3720  0.4306  1.0483
  204MOL0     N27422   1.546   2.386   8.587 -1.0168 -0.5693 -0.1687
  204MOL0     C27423   1.568   2.520   8.562 -0.3044 -0.0992 -0.1302
  204MOL0     C27424   1.628   2.523   8.440 -0.9468  0.6458 -0.1221
  204MOL0     C27425   1.678   2.646   8.370  0.1784 -1.3189  0.2190
  204MOL0     C27426   1.830   2.642   8.362  0.3280  0.0558  0.5905
  204MOL0     C27427   1.895   2.668   8.496 -0.5687  0.2180 -0.1902
  204MOL0     C27428   2.038   2.706   8.499  0.2804  0.0294 -0.0960
  204MOL0     O27429   2.105   2.589   8.457 -0.2072 -0.4884  0.4438
  204MOL0     C27430   2.246   2.589   8.459  0.1854  0.2264 -0.7549
  204MOL0     C27431   2.324   2.482   8.409  0.0355  0.1342 -0.3585
  204MOL0     C27432   2.459   2.466   8.415 -0.2316 -0.2564 -0.1413
  204MOL0     C27433   2.535   2.572   8.471  0.5015 -0.3995 -0.3169
  204MOL0     C27434   2.685   2.555   8.491  0.0458  0.7099 -0.4137
  204MOL0     O27435   2.741   2.444   8.431  0.4784  0.0273 -0.6630
  204MOL0     C27436   2.866   2.402   8.471  0.1776  0.7101  0.9586
  204MOL0     C27437   2.987   2.448   8.414  0.8346 -0.1955  0.2437
  204MOL0     C27438   3.114   2.397   8.458  0.1568 -0.2284  0.5774
  204MOL0     C27439   3.125   2.317   8.567  0.8423  0.6779  0.0850
  204MOL0     O27440   3.250   2.293   8.609 -0.1459  0.1692 -0.8466
  204MOL0     C27441   3.291   2.174   8.687 -0.3633 -0.4044  0.7522
  204MOL0     C27442   3.434   2.196   8.736  1.0996 -0.0245 -0.2396
  204MOL0     C27443   3.508   2.056   8.742  1.3336  0.3377  0.1210
  204MOL0     C27444   3.652   2.060   8.714  0.2513  1.3744 -0.2942
  204MOL0     C27445   3.708   1.913   8.686 -0.7747  0.3240  0.7252
  204MOL0     C27446   3.716   1.812   8.803  1.0255  0.0542  0.4664
  204MOL0     C27447   3.813   1.697   8.763  0.7340 -0.9168  0.6463
  204MOL0     C27448   3.796   1.567   8.828  0.2579  0.3514 -0.0832
  204MOL0    Cl27449   3.657   1.469   8.777 -0.4160  0.5319  0.2731
  204MOL0     C27450   3.005   2.270   8.632 -0.2124 -0.3333  0.2347
  204MOL0     C27451   2.880   2.311   8.575 -1.2829  0.5159  0.3588
  204MOL0     O27452   2.744   2.641   8.556 -0.4226  0.3087 -0.5116
  204MOL0     C27453   2.460   2.681   8.523  0.3551  0.0045 -0.2968
  204MOL0     C27454   2.318   2.693   8.515 -0.1107 -0.1838 -0.0051
  204MOL0     N27455   1.640   2.393   8.393 -0.7861 -0.1189  0.0213
  204MOL0     N27456   1.587   2.315   8.478  0.2407  0.2366 -0.2368
  204MOL0     C27457   0.428   2.460   8.364 -0.4782 -0.1575 -0.7511
  204MOL0     C27458   0.299   2.466   8.314  0.4557  0.6671 -0.1406
  204MOL0     C27459  -0.095   2.456   8.145  1.0144  0.7152 -0.2837
  204MOL0     C27460  -0.165   2.354   8.081 -0.1301 -0.4393  0.3228
  204MOL0     C27461  -0.295   2.371   8.035  0.3591 -0.5507 -0.2647
  204MOL0     C27462  -0.359   2.493   8.056  0.7417 -0.5666  0.1559
  204MOL0     O27463  -0.494   2.523   8.034 -0.4800  0.3977  0.2253
  204MOL0     C27464  -0.580   2.421   7.993 -0.2580 -0.0830 -0.0046
  204MOL0     C27465  -0.717   2.491   7.970  0.0597  0.0550 -0.9435
  204MOL0     C27466  -0.840   2.402   7.938  0.4315 -0.5823  0.1042
  204MOL0     C27467  -0.936   2.483   7.842  1.0023  0.0466 -1.1056
  204MOL0     C27468  -0.997   2.600   7.916 -0.2436 -0.0620 -0.5137
  204MOL0     C27469  -1.054   2.696   7.960  0.6524  0.3300 -0.5321
  204MOL0     C27470  -0.289   2.595   8.115  0.4601 -1.2173 -0.8805
  204MOL0     C27471  -0.163   2.578   8.164  0.8504  0.1193  0.3175
  204MOL0     C27472  -0.108   2.693   8.245 -0.6052 -0.8956  0.6075
  204MOL0     H27473   0.333   2.253   8.054 -0.9291 -1.3389  2.4208
  204MOL0     H27474   0.579   2.269   8.137  1.5500  1.2943  1.7247
  204MOL0     H27475   0.676   2.574   8.441  0.1055 -0.3607 -0.6800
  204MOL0     H27476   0.647   2.432   8.550 -0.4569  1.6693 -0.3455
  204MOL0     H27477   0.904   2.531   8.425 -0.8778  1.7404  0.6886
  204MOL0     H27478   0.889   2.370   8.467 -1.5990 -0.7380 -0.6376
  204MOL0     H27479   0.855   2.430   8.703  0.1566  1.0120 -0.0579
  204MOL0     H27480   0.812   2.592   8.670 -1.0351 -0.9632  1.3171
  204MOL0     H27481   1.073   2.618   8.592 -0.3809  0.5482 -0.0749
  204MOL0     H27482   1.044   2.597   8.760  0.2370  0.0223 -0.6692
  204MOL0     H27483   1.065   2.359   8.753  2.6125 -1.9644 -0.8152
  204MOL0     H27484   1.096   2.371   8.577  4.5596 -0.1925  0.6460
  204MOL0     H27485   1.294   2.507   8.602  1.8546 -0.1897 -0.4759
  204MOL0     H27486   1.279   2.480   8.782 -1.2997 -1.5962  0.2725
  204MOL0     H27487   1.314   2.256   8.581 -0.1497  4.6732 -1.9436
  204MOL0     H27488   1.295   2.248   8.769  0.6201  1.2248  0.5885
  204MOL0     H27489   1.499   2.391   8.792 -2.6733  2.2537  0.4266
  204MOL0     H27490   1.530   2.230   8.717 -0.9216 -0.3717 -0.0140
  204MOL0     H27491   1.532   2.599   8.629 -0.3501  0.3563 -0.6841
  204MOL0     H27492   1.650   2.628   8.266  2.0594 -1.7804 -0.2381
  204MOL0     H27493   1.648   2.746   8.402 -0.0424 -1.0991 -0.6554
  204MOL0     H27494   1.863   2.543   8.328  1.7411  0.0486  1.8857
  204MOL0     H27495   1.872   2.705   8.283  3.7247 -2.8461 -0.1657
  204MOL0     H27496   1.872   2.577   8.552 -1.0937  2.1640  3.0085
  204MOL0     H27497   1.844   2.751   8.546 -1.0427  0.1464 -0.5504
  204MOL0     H27498   2.057   2.728   8.605  2.3850 -0.2999 -0.3499
  204MOL0     H27499   2.062   2.793   8.437 -0.2720  1.3540  1.4732
  204MOL0     H27500   2.266   2.409   8.353  2.0660  0.2970 -2.8892
  204MOL0     H27501   2.518   2.384   8.375  0.7393  0.2229  0.2585
  204MOL0     H27502   2.977   2.516   8.330  1.1844 -1.7029 -1.0702
  204MOL0     H27503   3.207   2.412   8.404  0.2715 -2.2794  0.1337
  204MOL0     H27504   3.220   2.156   8.768  1.0497  0.5858  2.2588
  204MOL0     H27505   3.288   2.086   8.621 -3.2657 -1.1486  1.7435
  204MOL0     H27506   3.484   2.255   8.658  2.2584  0.7269  1.0242
  204MOL0     H27507   3.447   2.251   8.830  0.6992 -0.8666  0.3153
  204MOL0     H27508   3.481   2.012   8.839 -2.2412  0.1755 -0.8040
  204MOL0     H27509   3.467   2.001   8.658  1.1022  0.1310  0.3680
  204MOL0     H27510   3.712   2.110   8.791  0.2037 -1.8006  2.0361
  204MOL0     H27511   3.673   2.113   8.621  0.3092 -1.8885 -2.3160
  204MOL0     H27512   3.809   1.932   8.648 -0.5451 -1.5449  0.2925
  204MOL0     H27513   3.662   1.871   8.596  1.9584  1.7429 -1.5328
  204MOL0     H27514   3.731   1.871   8.893 -3.4372  0.8226  0.9187
  204MOL0     H27515   3.613   1.774   8.804  1.2830 -1.2505 -3.4520
  204MOL0     H27516   3.913   1.733   8.787  0.8131  0.5960 -1.6433
  204MOL0     H27517   3.808   1.688   8.654 -1.1787  0.3410  0.5787
  204MOL0     H27518   3.882   1.500   8.812 -0.0988  0.0822 -0.9868
  204MOL0     H27519   3.799   1.590   8.934  1.0984 -0.6946  0.1488
  204MOL0     H27520   3.020   2.213   8.723  3.2707  0.7599  0.4886
  204MOL0     H27521   2.796   2.266   8.626 -1.1453 -0.7262 -0.4712
  204MOL0     H27522   2.519   2.765   8.559  1.9950 -0.7174 -1.1639
  204MOL0     H27523   2.267   2.783   8.548 -0.8001  0.2582 -2.1439
  204MOL0     H27524   0.448   2.514   8.456 -1.2063  0.9442 -1.2165
  204MOL0     H27525   0.225   2.532   8.358  1.9240  2.6878 -0.5820
  204MOL0     H27526  -0.130   2.252   8.076 -2.2376 -1.3756  2.5028
  204MOL0     H27527  -0.355   2.288   7.999 -1.3563 -0.6493  2.5268
  204MOL0     H27528  -0.596   2.358   8.081 -0.1412  1.2236  0.9924
  204MOL0     H27529  -0.548   2.366   7.904 -0.3715 -1.8551  1.0034
  204MOL0     H27530  -0.682   2.549   7.884  1.1219 -0.1787 -0.6754
  204MOL0     H27531  -0.748   2.568   8.042  0.7903 -1.7296  1.3617
  204MOL0     H27532  -0.894   2.360   8.023 -0.6781 -1.5467 -1.0222
  204MOL0     H27533  -0.809   2.315   7.879 -0.1473 -0.1050 -0.9198
  204MOL0     H27534  -0.871   2.509   7.758 -0.6872  2.2908 -1.7948
  204MOL0     H27535  -1.013   2.411   7.813  1.5234 -2.8584  3.7079
  204MOL0     H27536  -1.116   2.781   7.981  0.6910 -0.1218  1.5420
  204MOL0     H27537  -0.329   2.696   8.114  0.1332 -1.3468 -1.3577
  204MOL0     H27538  -0.016   2.663   8.296  0.4364 -1.1358 -1.2991
  204MOL0     H27539  -0.073   2.779   8.187  0.0715  0.1925  2.5482
  204MOL0     H27540  -0.176   2.737   8.319 -0.2113  1.6204 -0.4027
  205MOL0     O27541   8.169   0.492   9.855  0.4044 -0.0993 -0.4828
  205MOL0     C27542   8.098   0.442   9.948 -0.0663  0.2152 -0.4055
  205MOL0     O27543   8.137   0.366  10.054  0.4288  0.2002 -0.3534
  205MOL0     C27544   8.267   0.327  10.058  1.1193  0.2015  0.5172
  205MOL0     C27545   8.312   0.190  10.032 -0.2095  0.8679 -0.1180
  205MOL0     C27546   8.445   0.156  10.046  0.0192 -0.1316 -0.6685
  205MOL0     C27547   8.548   0.254  10.083  0.2978 -0.4918 -1.1526
  205MOL0     O27548   8.681   0.219  10.091 -0.5332 -0.8661  0.6934
  205MOL0     C27549   8.772   0.327  10.097 -0.5172  0.4131  0.0825
  205MOL0     C27550   8.912   0.270  10.075  0.6606  0.3795  1.0235
  205MOL0     C27551   9.025   0.381  10.069 -0.2825  0.8082  0.3538
  205MOL0     C27552   9.081   0.390  10.207 -0.7489  0.5907 -0.7822
  205MOL0     C27553   9.207   0.496  10.205  0.2373  0.5060 -0.0899
  205MOL0     C27554   9.327   0.472  10.107 -0.5076 -0.9001 -0.5876
  205MOL0     C27555   9.367   0.330  10.105  0.3334  0.6830  0.6540
  205MOL0     C27556   9.410   0.261  10.232  0.4572 -0.1294 -0.3798
  205MOL0     N27557   9.529   0.326  10.291  0.3766 -0.8947  0.0329
  205MOL0     C27558   9.645   0.347  10.229  0.2398  0.1474 -0.0673
  205MOL0     C27559   9.708   0.430  10.303  0.4411  0.0889  0.3419
  205MOL0     C27560   9.842   0.487  10.261  0.5961 -0.4755 -0.5559
  205MOL0     C27561   9.952   0.481  10.371  0.2117  0.1708 -0.3711
  205MOL0     C27562  10.096   0.510  10.317  0.3825  0.1715 -0.6973
  205MOL0     C27563  10.203   0.506  10.431 -0.4326  0.8809 -0.1766
  205MOL0     O27564  10.322   0.428  10.404 -0.6853  0.5108 -0.2338
  205MOL0     C27565  10.405   0.388  10.513 -0.7603  0.0551  0.3440
  205MOL0     C27566  10.394   0.433  10.646 -0.3624 -0.2104 -0.1674
  205MOL0     C27567  10.482   0.383  10.749  0.5097 -0.7355  0.5439
  205MOL0     C27568  10.582   0.299  10.710 -1.5130  0.5231 -0.6677
  205MOL0     C27569  10.680   0.244  10.810  1.0884 -0.4360 -0.4414
  205MOL0     O27570  10.798   0.197  10.768  0.6735 -0.6644 -0.3371
  205MOL0     C27571  10.892   0.141  10.841  0.1758  0.7471 -0.3003
  205MOL0     C27572  10.882   0.088  10.971 -0.1513 -0.5597 -0.1111
  205MOL0     C27573  10.997   0.040  11.032 -0.4313 -1.1762  0.2072
  205MOL0     C27574  11.125   0.049  10.974  0.1576 -0.2279  0.5366
  205MOL0     O27575  11.246   0.018  11.040  0.0342 -0.3229  0.0999
  205MOL0     C27576  11.240  -0.012  11.180  0.0126  0.1563  0.1873
  205MOL0     C27577  11.373  -0.048  11.233 -0.2870 -0.3099  0.0961
  205MOL0     C27578  11.368  -0.050  11.386 -0.4487  0.3695  0.0208
  205MOL0     C27579  11.511  -0.076  11.435  0.5893 -0.5081 -0.2505
  205MOL0     C27580  11.517  -0.156  11.567  0.4896  0.0829 -0.0652
  205MOL0     C27581  11.666  -0.182  11.601 -0.3429 -0.2736  0.5956
  205MOL0     C27582  11.679  -0.268  11.718 -0.4406  0.2631 -0.1875
  205MOL0     C27583  11.821  -0.309  11.754  0.1472  0.2143  0.4216
  205MOL0    Cl27584  11.892  -0.417  11.625 -0.1729 -0.0303 -0.0575
  205MOL0     C27585  11.131   0.098  10.840  0.5001 -0.6058 -0.4439
  205MOL0     C27586  11.014   0.143  10.776 -1.4757 -1.0585  0.3976
  205MOL0     O27587  10.641   0.249  10.925  0.2165 -0.0897  0.2500
  205MOL0     C27588  10.604   0.261  10.573  0.3835  0.1243  0.5849
  205MOL0     C27589  10.511   0.305  10.480 -0.0562  0.4755  0.2387
  205MOL0     N27590   9.637   0.461  10.419  0.0798 -0.5071 -0.3506
  205MOL0     N27591   9.528   0.393  10.408 -0.3803 -0.0053 -0.5707
  205MOL0     C27592   8.489   0.381  10.112 -0.1736 -0.2190  0.1443
  205MOL0     C27593   8.358   0.420  10.100 -0.0630  0.0124  0.4162
  205MOL0     C27594   7.952   0.472   9.966  0.2073  0.3570  0.1301
  205MOL0     C27595   7.915   0.595   9.907 -0.7487 -0.2914 -0.4365
  205MOL0     C27596   7.781   0.635   9.909 -0.7384  0.4341 -0.1778
  205MOL0     C27597   7.684   0.557   9.971 -0.8916 -0.4564  0.2436
  205MOL0     O27598   7.560   0.597   9.994 -0.4609 -0.1477  0.0134
  205MOL0     C27599   7.491   0.663   9.886 -0.6715 -1.1870  0.9865
  205MOL0     C27600   7.341   0.669   9.917  0.2166  0.8665 -0.7182
  205MOL0     C27601   7.301   0.781  10.010 -0.0029 -0.5269  0.0458
  205MOL0     C27602   7.152   0.782  10.026 -0.0282 -0.0143 -0.3355
  205MOL0     C27603   7.104   0.673  10.104 -0.8419  0.1980  0.0704
  205MOL0     C27604   7.067   0.576  10.158 -0.2061 -0.7148  0.1007
  205MOL0     C27605   7.720   0.434  10.027 -0.3231 -0.1955  0.0434
  205MOL0     C27606   7.852   0.383  10.018 -0.3209 -0.2596 -0.1639
  205MOL0     C27607   7.887   0.241  10.060  0.3989  0.7936 -0.3420
  205MOL0     H27608   8.239   0.120   9.993 -0.3351  1.2192 -0.5223
  205MOL0     H27609   8.466   0.054  10.014  0.6417 -0.5708  1.0246
  205MOL0     H27610   8.771   0.398  10.014  0.4850  0.7021  0.2911
  205MOL0     H27611   8.780   0.375  10.195  2.1502 -3.6945  2.1517
  205MOL0     H27612   8.923   0.221   9.978 -0.8106  2.0305 -0.0447
  205MOL0     H27613   8.932   0.197  10.154 -1.3532 -0.5517  0.7248
  205MOL0     H27614   8.981   0.473  10.029  1.8902  0.1407 -4.3341
  205MOL0     H27615   9.100   0.351   9.995 -1.4214  1.4681 -1.1204
  205MOL0     H27616   9.010   0.421  10.284 -0.3400  1.7678 -0.8522
  205MOL0     H27617   9.105   0.295  10.256 -2.7550  1.0328  1.1860
  205MOL0     H27618   9.160   0.594  10.194 -3.2111 -0.7629  1.9083
  205MOL0     H27619   9.248   0.501  10.307 -1.7391  0.3073  0.7657
  205MOL0     H27620   9.307   0.500  10.003  2.4470 -1.7179 -1.4726
  205MOL0     H27621   9.414   0.528  10.142 -0.1568  0.0677 -2.8155
  205MOL0     H27622   9.446   0.327  10.029 -1.7873  0.0671 -1.6673
  205MOL0     H27623   9.285   0.266  10.070 -1.9597  3.0681  1.3129
  205MOL0     H27624   9.331   0.270  10.308 -1.1409 -0.5965 -1.9285
  205MOL0     H27625   9.421   0.153  10.221 -0.1570 -0.4092  1.3496
  205MOL0     H27626   9.680   0.323  10.129  0.5355  0.0669  0.0532
  205MOL0     H27627   9.876   0.424  10.179 -2.1023 -1.6802 -0.8775
  205MOL0     H27628   9.818   0.587  10.224  2.9453 -0.0112 -0.9796
  205MOL0     H27629   9.932   0.552  10.453  1.0741  1.0791 -0.9233
  205MOL0     H27630   9.945   0.378  10.407  1.3223 -0.9046 -2.9850
  205MOL0     H27631  10.102   0.611  10.275  3.9522  1.3741  2.1766
  205MOL0     H27632  10.117   0.439  10.237  2.6084  0.4066 -0.3755
  205MOL0     H27633  10.160   0.461  10.522 -1.1724  4.3402  1.3622
  205MOL0     H27634  10.222   0.612  10.452 -1.0899  1.1531 -0.9155
  205MOL0     H27635  10.313   0.503  10.666  2.2742  3.6063 -1.6406
  205MOL0     H27636  10.481   0.426  10.849  0.4227 -2.0597  1.1343
  205MOL0     H27637  10.784   0.077  11.017 -0.1862  0.5860  0.1087
  205MOL0     H27638  10.982  -0.013  11.126 -1.2887  1.1907  1.4818
  205MOL0     H27639  11.199   0.074  11.233  1.6414  0.4811  0.9760
  205MOL0     H27640  11.179  -0.102  11.191 -0.0613  0.3992  1.9904
  205MOL0     H27641  11.400  -0.147  11.194  1.4822  0.1802 -0.0115
  205MOL0     H27642  11.453   0.021  11.205 -1.4521  0.4989 -1.3268
  205MOL0     H27643  11.332   0.047  11.424  1.0615  0.6504  0.8148
  205MOL0     H27644  11.311  -0.138  11.415  4.6840 -2.9102  1.4284
  205MOL0     H27645  11.565   0.017  11.451 -2.8283  1.2174  2.6380
  205MOL0     H27646  11.554  -0.130  11.350 -2.9366  0.1046 -2.6428
  205MOL0     H27647  11.461  -0.250  11.559 -1.3466  0.9535  1.5424
  205MOL0     H27648  11.478  -0.083  11.638 -1.7866  0.4935 -1.6145
  205MOL0     H27649  11.715  -0.227  11.514 -0.1828  0.1987  0.4385
  205MOL0     H27650  11.710  -0.084  11.622  0.8998 -1.2648  3.0170
  205MOL0     H27651  11.610  -0.352  11.710 -0.4599  0.4615 -3.1521
  205MOL0     H27652  11.635  -0.218  11.805 -0.6150 -1.3716  0.6840
  205MOL0     H27653  11.885  -0.225  11.780  2.7843 -1.8135  0.9125
  205MOL0     H27654  11.795  -0.373  11.840 -3.0574  0.1430 -0.4751
  205MOL0     H27655  11.224   0.097  10.785 -0.3285 -1.5746 -1.9239
  205MOL0     H27656  11.028   0.185  10.677 -1.1509 -1.6948  0.1706
  205MOL0     H27657  10.683   0.195  10.538  0.8026  0.6147  0.5947
  205MOL0     H27658  10.504   0.279  10.375 -3.1303  2.7578 -0.2757
  205MOL0     H27659   8.550   0.461  10.155 -1.6770 -0.2294  2.5051
  205MOL0     H27660   8.314   0.513  10.135 -2.7835 -1.8543  2.3848
  205MOL0     H27661   7.994   0.660   9.870  0.3336 -2.0431 -1.2977
  205MOL0     H27662   7.745   0.724   9.859 -0.5732  0.0199 -1.0654
  205MOL0     H27663   7.514   0.624   9.786 -3.5548 -0.6967  0.0381
  205MOL0     H27664   7.528   0.764   9.867  0.8134 -1.5022  1.9970
  205MOL0     H27665   7.311   0.574   9.961 -0.6138  1.9628  1.2154
  205MOL0     H27666   7.293   0.685   9.819  0.0022  0.2139 -0.7234
  205MOL0     H27667   7.325   0.872   9.955 -2.5738  0.3753  0.2604
  205MOL0     H27668   7.345   0.782  10.111 -1.3285 -1.1333  0.6582
  205MOL0     H27669   7.117   0.870  10.081  1.9367 -0.9444  2.6380
  205MOL0     H27670   7.098   0.795   9.932  0.3699  0.5048 -0.4971
  205MOL0     H27671   7.041   0.492  10.220 -0.1535 -1.7248 -1.2070
  205MOL0     H27672   7.652   0.372  10.085  0.0246 -3.4354 -2.6717
  205MOL0     H27673   7.796   0.181  10.056  1.2620 -0.5181 -1.0552
  205MOL0     H27674   7.946   0.184   9.987  0.6832  1.7186 -0.8458
  205MOL0     H27675   7.936   0.247  10.158  1.5713  1.1518 -0.9219
  206MOL0     O27676   2.380   1.259   5.196 -0.1911  0.7293 -0.0426
  206MOL0     C27677   2.334   1.145   5.207  0.1935 -0.4047  0.1108
  206MOL0     O27678   2.387   1.059   5.295  0.3843 -0.4689 -0.1566
  206MOL0     C27679   2.504   1.072   5.350 -0.1504  0.2380  0.0375
  206MOL0     C27680   2.522   1.075   5.493 -0.3077  0.2566  1.4638
  206MOL0     C27681   2.658   1.075   5.549 -0.7314 -0.1213 -0.3358
  206MOL0     C27682   2.767   1.075   5.460 -1.1275 -0.3679  0.1064
  206MOL0     O27683   2.900   1.064   5.502  1.0951  0.6074  0.4312
  206MOL0     C27684   2.942   1.135   5.608 -0.1010 -0.0775  0.3485
  206MOL0     C27685   3.095   1.140   5.623  0.1449 -1.0263  1.0078
  206MOL0     C27686   3.167   1.239   5.530 -0.1406 -0.6065 -0.0446
  206MOL0     C27687   3.309   1.194   5.504  0.4985 -0.5607 -0.4482
  206MOL0     C27688   3.391   1.268   5.395 -0.2422 -0.9400  0.1597
  206MOL0     C27689   3.511   1.192   5.369 -0.3100  0.3459 -0.1846
  206MOL0     C27690   3.628   1.278   5.313 -0.5722  0.6718 -0.0834
  206MOL0     C27691   3.753   1.203   5.250 -0.1638  1.0764 -0.6213
  206MOL0     N27692   3.851   1.183   5.357  0.4340 -0.2073 -0.1953
  206MOL0     C27693   3.981   1.144   5.342 -0.6415  0.0545 -1.4406
  206MOL0     C27694   4.022   1.108   5.472 -0.3456 -0.8683 -0.4347
  206MOL0     C27695   4.154   1.041   5.502  0.1588 -0.2212  0.4279
  206MOL0     C27696   4.251   1.056   5.385  0.1661 -0.3927  0.7496
  206MOL0     C27697   4.364   0.948   5.410  0.1872 -0.3937  0.5803
  206MOL0     C27698   4.496   0.961   5.318  0.2711  0.4385 -0.0927
  206MOL0     O27699   4.604   0.896   5.376  0.1034  0.0719  0.9811
  206MOL0     C27700   4.715   0.873   5.301  0.3690  0.7059 -0.1405
  206MOL0     C27701   4.753   0.940   5.183 -0.2014 -0.7531 -0.1098
  206MOL0     C27702   4.884   0.925   5.143 -0.1459  0.4021  0.0743
  206MOL0     C27703   4.971   0.824   5.200  0.1649 -0.3571 -0.0742
  206MOL0     C27704   5.105   0.809   5.142  0.1410 -0.6391  0.6935
  206MOL0     O27705   5.176   0.713   5.207 -0.0315  0.0609  0.0551
  206MOL0     C27706   5.294   0.669   5.154  0.1289  0.3136 -0.0282
  206MOL0     C27707   5.384   0.625   5.252  0.8143  0.6070 -0.5191
  206MOL0     C27708   5.507   0.574   5.226 -0.5703 -0.1666 -0.0473
  206MOL0     C27709   5.553   0.564   5.095  0.2645  0.5140  0.2197
  206MOL0     O27710   5.674   0.512   5.050 -0.9123 -0.3868  1.0484
  206MOL0     C27711   5.787   0.538   5.137 -0.4751 -0.1694 -1.0902
  206MOL0     C27712   5.915   0.514   5.051  0.2054  0.0434  0.7996
  206MOL0     C27713   6.039   0.564   5.133 -0.0512  0.8298 -0.7405
  206MOL0     C27714   6.170   0.498   5.079 -0.0209  0.0808  0.6657
  206MOL0     C27715   6.293   0.594   5.096  0.2083  0.3184 -0.2348
  206MOL0     C27716   6.415   0.533   5.022  0.0403  0.8984  0.1690
  206MOL0     C27717   6.529   0.631   5.025 -0.3171  0.7673  1.1111
  206MOL0     C27718   6.663   0.551   4.981  0.2600 -0.3012  0.5149
  206MOL0    Cl27719   6.801   0.665   4.940  0.4262 -0.1630  0.4511
  206MOL0     C27720   5.457   0.590   4.996 -0.0452  0.1659 -0.4085
  206MOL0     C27721   5.325   0.638   5.027 -0.3418  0.4854  0.4157
  206MOL0     O27722   5.142   0.865   5.032  0.6198  0.0717 -0.5724
  206MOL0     C27723   4.920   0.754   5.316 -0.5527 -0.1060  1.0394
  206MOL0     C27724   4.795   0.777   5.358 -0.7362  0.3355  0.5878
  206MOL0     N27725   3.917   1.130   5.557 -0.8768  0.1028  1.0140
  206MOL0     N27726   3.812   1.162   5.489 -0.1786  0.0815 -0.3087
  206MOL0     C27727   2.746   1.072   5.320 -0.6918  0.7191 -0.0132
  206MOL0     C27728   2.615   1.074   5.270  0.6767  0.2268 -0.5205
  206MOL0     C27729   2.202   1.117   5.149  0.6089 -0.4130  0.4278
  206MOL0     C27730   2.136   1.001   5.193 -0.1065  0.0575 -0.2889
  206MOL0     C27731   2.025   0.952   5.132 -0.8258 -0.4154  0.2086
  206MOL0     C27732   1.960   1.029   5.029  0.7494 -0.4473  0.8196
  206MOL0     O27733   1.837   1.011   4.979 -0.3083 -0.1646 -0.1861
  206MOL0     C27734   1.732   0.985   5.076  0.0091  0.3133  0.4680
  206MOL0     C27735   1.724   1.115   5.157 -0.0636  0.4288 -0.2865
  206MOL0     C27736   1.606   1.125   5.257 -0.6127  0.1327  1.3222
  206MOL0     C27737   1.570   1.271   5.283  0.1276  0.0345  0.0552
  206MOL0     C27738   1.679   1.365   5.313  0.0571  0.6287  0.0854
  206MOL0     C27739   1.766   1.439   5.339 -0.0968  0.0004 -0.2214
  206MOL0     C27740   2.021   1.150   4.994  1.1795  0.0998  0.5232
  206MOL0     C27741   2.144   1.190   5.046 -0.8591 -1.3324  0.2053
  206MOL0     C27742   2.201   1.315   4.990  0.5758  0.5793  0.2157
  206MOL0     H27743   2.435   1.064   5.557 -2.1087  0.3507 -0.8725
  206MOL0     H27744   2.669   1.069   5.657 -2.5831  2.2820  0.0626
  206MOL0     H27745   2.901   1.236   5.594 -0.4272 -0.5551 -2.7803
  206MOL0     H27746   2.912   1.085   5.701 -1.8733  0.8905  0.3603
  206MOL0     H27747   3.145   1.044   5.608  0.0165 -0.8788 -0.5118
  206MOL0     H27748   3.116   1.175   5.724 -2.2754 -0.6138  1.4291
  206MOL0     H27749   3.150   1.340   5.571 -1.6212 -1.3525  1.2864
  206MOL0     H27750   3.111   1.244   5.436 -0.5077  0.8862  0.2278
  206MOL0     H27751   3.360   1.216   5.599 -1.1277  3.1787 -0.2492
  206MOL0     H27752   3.308   1.088   5.480 -1.0411  0.0112 -3.4398
  206MOL0     H27753   3.343   1.284   5.298 -0.1264  0.6850  0.3452
  206MOL0     H27754   3.415   1.370   5.425 -2.1409 -0.6556  0.8399
  206MOL0     H27755   3.556   1.148   5.459  5.3882 -0.1657 -2.8493
  206MOL0     H27756   3.492   1.105   5.306  3.0976 -0.9952  0.4177
  206MOL0     H27757   3.636   1.369   5.373 -2.0445  0.6577  0.1790
  206MOL0     H27758   3.592   1.319   5.218 -1.5781  0.8836  0.3768
  206MOL0     H27759   3.727   1.104   5.213  1.4202  0.4389 -0.0861
  206MOL0     H27760   3.791   1.268   5.171 -2.2156  2.4663 -0.5610
  206MOL0     H27761   4.039   1.139   5.250  1.2437  1.4112 -0.4051
  206MOL0     H27762   4.192   1.089   5.594  0.6278 -1.2243  0.7722
  206MOL0     H27763   4.143   0.933   5.508  1.1372 -0.3689 -0.1500
  206MOL0     H27764   4.208   1.035   5.287  2.3866  0.5005 -0.4983
  206MOL0     H27765   4.289   1.159   5.382 -3.0578  0.9434  1.1852
  206MOL0     H27766   4.316   0.850   5.398  2.1800 -1.1346 -2.6304
  206MOL0     H27767   4.409   0.941   5.510  0.1848 -2.0357  0.5004
  206MOL0     H27768   4.524   1.064   5.299 -4.2080  1.1912 -5.0239
  206MOL0     H27769   4.469   0.921   5.219 -1.0858 -1.7767  1.0836
  206MOL0     H27770   4.699   1.031   5.157 -0.7657 -1.0812 -0.0955
  206MOL0     H27771   4.917   0.986   5.060  3.0771  1.1788  1.7272
  206MOL0     H27772   5.354   0.650   5.353  1.4297 -0.9550  0.0850
  206MOL0     H27773   5.573   0.524   5.296 -1.0354 -1.7438 -0.6822
  206MOL0     H27774   5.775   0.644   5.164 -0.2029  0.3518 -2.8452
  206MOL0     H27775   5.781   0.472   5.223  0.3226  0.7863 -0.2737
  206MOL0     H27776   5.922   0.406   5.039  0.1143 -0.2921  3.2257
  206MOL0     H27777   5.903   0.564   4.955 -1.1429 -1.1460  0.3114
  206MOL0     H27778   6.065   0.670   5.125  1.2863  0.6778  0.9735
  206MOL0     H27779   6.024   0.548   5.240 -0.9375  0.7693 -0.8687
  206MOL0     H27780   6.162   0.490   4.970  1.7674  2.5195  0.2825
  206MOL0     H27781   6.186   0.397   5.119 -1.5817 -0.1379  0.8324
  206MOL0     H27782   6.319   0.611   5.201  0.0967 -0.1011 -0.1383
  206MOL0     H27783   6.269   0.696   5.063  0.7212  0.0253 -1.5243
  206MOL0     H27784   6.428   0.430   5.056 -1.9100  0.1151 -1.2816
  206MOL0     H27785   6.378   0.539   4.920  1.7367  0.3175 -0.5233
  206MOL0     H27786   6.549   0.686   5.117  0.9561  2.9328 -0.3643
  206MOL0     H27787   6.512   0.705   4.946  0.1089 -3.2718 -3.2006
  206MOL0     H27788   6.694   0.487   5.065  2.2556 -0.9909 -0.6933
  206MOL0     H27789   6.652   0.484   4.895 -1.6917 -1.8795  1.8863
  206MOL0     H27790   5.489   0.568   4.895 -1.3023  2.1758 -1.2749
  206MOL0     H27791   5.268   0.642   4.935 -1.4479  0.5697  1.0810
  206MOL0     H27792   4.976   0.673   5.362 -2.7585 -1.0775  2.1588
  206MOL0     H27793   4.745   0.715   5.432 -3.3260 -3.2709 -3.6598
  206MOL0     H27794   2.823   1.061   5.243 -0.7381 -0.3208  0.0696
  206MOL0     H27795   2.593   1.065   5.164  0.5252 -0.5968 -0.4230
  206MOL0     H27796   2.166   0.937   5.276 -1.6303 -0.8432 -0.3931
  206MOL0     H27797   1.975   0.864   5.171 -1.2885 -0.5157 -0.5901
  206MOL0     H27798   1.763   0.904   5.141  0.1278 -0.5137 -0.5891
  206MOL0     H27799   1.637   0.965   5.025 -1.1030  1.9526  1.7762
  206MOL0     H27800   1.721   1.194   5.082  0.1207 -0.6402 -1.4656
  206MOL0     H27801   1.807   1.132   5.226 -1.2611  0.9731  1.0499
  206MOL0     H27802   1.640   1.085   5.354  3.6149  1.9753  0.8186
  206MOL0     H27803   1.513   1.075   5.229 -0.0495 -0.0379 -0.3338
  206MOL0     H27804   1.511   1.311   5.200 -0.0007  1.7415  0.9271
  206MOL0     H27805   1.514   1.278   5.377  0.4136  2.1687  0.1192
  206MOL0     H27806   1.853   1.493   5.368 -0.1578 -0.2483  0.4380
  206MOL0     H27807   1.970   1.216   4.925 -0.2639 -0.1883  1.2985
  206MOL0     H27808   2.155   1.360   4.902  0.9394 -0.1020 -0.3338
  206MOL0     H27809   2.207   1.395   5.064  1.2021  1.3808 -0.6756
  206MOL0     H27810   2.302   1.290   4.955 -0.2092 -1.3577 -0.7903
  207MOL0     O27811   1.908   0.216   0.798  0.5742 -0.6405  0.4587
  207MOL0     C27812   1.815   0.261   0.861 -0.6642 -0.2057  0.5940
  207MOL0     O27813   1.789   0.397   0.876 -0.1557 -0.2386 -0.1829
  207MOL0     C27814   1.882   0.487   0.836 -0.8127 -0.5612  0.2281
  207MOL0     C27815   2.015   0.487   0.880 -0.4985 -0.1778  0.4000
  207MOL0     C27816   2.113   0.579   0.817 -0.3326 -0.0681  0.0657
  207MOL0     C27817   2.072   0.664   0.715  0.5901 -0.8551  0.1686
  207MOL0     O27818   2.150   0.737   0.625  0.5577 -0.0329  0.2691
  207MOL0     C27819   2.291   0.738   0.635 -0.6222  1.3490 -0.6335
  207MOL0     C27820   2.350   0.836   0.549 -0.4933 -0.5805  0.9780
  207MOL0     C27821   2.496   0.806   0.513  0.6841  0.6521 -0.3568
  207MOL0     C27822   2.575   0.852   0.630  0.1315 -0.3876  0.0965
  207MOL0     C27823   2.724   0.861   0.596 -0.0241  0.7732 -0.0176
  207MOL0     C27824   2.802   0.728   0.568  0.8998 -1.3984 -0.9830
  207MOL0     C27825   2.947   0.763   0.544  0.0760  0.6400  0.6134
  207MOL0     C27826   3.024   0.634   0.502  0.2345  0.2330  1.0505
  207MOL0     N27827   3.166   0.656   0.478 -0.8703  0.1081  0.1151
  207MOL0     C27828   3.236   0.621   0.363 -0.5508 -0.1723  0.1617
  207MOL0     C27829   3.371   0.637   0.392  0.1987  0.4563  0.7113
  207MOL0     C27830   3.486   0.586   0.310 -1.3920 -0.4949  0.0057
  207MOL0     C27831   3.626   0.656   0.334  0.2369  0.0402  0.2908
  207MOL0     C27832   3.727   0.587   0.237  0.7311 -0.0307 -0.2491
  207MOL0     C27833   3.867   0.664   0.238  0.4329  0.4416 -0.8069
  207MOL0     O27834   3.970   0.611   0.163 -0.5874  0.4459 -1.2327
  207MOL0     C27835   4.094   0.667   0.181  0.3089 -0.2205  0.4148
  207MOL0     C27836   4.185   0.644   0.079 -0.9608 -0.5648  0.5154
  207MOL0     C27837   4.312   0.700   0.083  0.0681  0.5259  0.7873
  207MOL0     C27838   4.362   0.773   0.194 -0.0344 -0.6448  0.3284
  207MOL0     C27839   4.496   0.847   0.183 -0.3380 -0.2646  0.2245
  207MOL0     O27840   4.538   0.918   0.298  0.3359 -0.8949  0.3249
  207MOL0     C27841   4.670   0.952   0.323  0.4251  0.1860  0.0730
  207MOL0     C27842   4.780   0.897   0.257 -0.9396 -0.2473 -0.0913
  207MOL0     C27843   4.918   0.933   0.286  0.2281 -0.4322  0.4909
  207MOL0     C27844   4.936   1.021   0.393  0.6499 -0.8514 -0.1519
  207MOL0     O27845   5.060   1.076   0.423 -0.0374  1.0005  0.1277
  207MOL0     C27846   5.092   1.107   0.557 -0.7569 -0.3035 -0.6420
  207MOL0     C27847   5.238   1.155   0.559  0.2551  0.6108 -0.1231
  207MOL0     C27848   5.300   1.174   0.697  0.8961  0.1600 -0.2902
  207MOL0     C27849   5.451   1.155   0.687  0.1424  0.2944  0.5711
  207MOL0     C27850   5.506   1.176   0.833  0.0679  0.0054  0.0051
  207MOL0     C27851   5.653   1.170   0.840 -0.5485  0.4903 -0.1236
  207MOL0     C27852   5.678   1.150   0.993  0.0133 -0.2196 -0.8842
  207MOL0     C27853   5.827   1.173   1.019 -0.1897 -0.1690  0.4571
  207MOL0    Cl27854   5.861   1.143   1.185 -0.1133  0.0269  0.0256
  207MOL0     C27855   4.826   1.070   0.470 -0.8237  0.2353  0.5422
  207MOL0     C27856   4.696   1.035   0.436 -0.3742  0.2889  0.7743
  207MOL0     O27857   4.565   0.831   0.080  0.7517  0.7391  0.0666
  207MOL0     C27858   4.274   0.791   0.301  0.2089  0.2124  0.2894
  207MOL0     C27859   4.145   0.733   0.289  0.7643  0.5944  0.1121
  207MOL0     N27860   3.380   0.695   0.517 -0.0807  0.1987  0.4172
  207MOL0     N27861   3.260   0.702   0.572  0.5934  0.1019  0.0367
  207MOL0     C27862   1.936   0.672   0.687  0.0553 -0.2384  0.0330
  207MOL0     C27863   1.843   0.591   0.752 -0.5333  0.1162  0.4240
  207MOL0     C27864   1.716   0.170   0.933  0.8514 -0.4775 -0.7657
  207MOL0     C27865   1.623   0.238   1.017 -0.4728 -0.2049  0.7176
  207MOL0     C27866   1.525   0.164   1.080 -0.2527 -0.5477 -0.5437
  207MOL0     C27867   1.508   0.033   1.065 -0.1069  0.1069  1.0303
  207MOL0     O27868   1.413  -0.045   1.124  0.5062 -0.9566  0.0858
  207MOL0     C27869   1.281  -0.024   1.077 -0.6132 -0.1369  0.2246
  207MOL0     C27870   1.220  -0.164   1.048 -0.1854 -0.4654  0.0655
  207MOL0     C27871   1.071  -0.148   1.026 -0.3846  1.0892  0.4085
  207MOL0     C27872   0.999  -0.278   1.082 -0.0104 -0.3065  0.0848
  207MOL0     C27873   0.856  -0.265   1.092  0.0050 -0.0571  0.7797
  207MOL0     C27874   0.736  -0.238   1.095 -0.5652  0.2607 -1.3324
  207MOL0     C27875   1.604  -0.032   0.986  0.2535  0.4470 -1.2873
  207MOL0     C27876   1.703   0.033   0.914 -0.0462 -0.1549  0.0360
  207MOL0     C27877   1.790  -0.054   0.823  0.2114  0.5738  0.5152
  207MOL0     H27878   2.040   0.419   0.961 -0.3197  1.8287  2.1033
  207MOL0     H27879   2.219   0.571   0.843 -0.4205  1.4504  1.0042
  207MOL0     H27880   2.311   0.771   0.738  0.6700  2.7435 -1.3057
  207MOL0     H27881   2.320   0.633   0.620 -1.1047  0.9586  0.8795
  207MOL0     H27882   2.341   0.935   0.594  1.5162  0.6313 -1.0192
  207MOL0     H27883   2.305   0.846   0.449  0.2948  0.4629  0.7041
  207MOL0     H27884   2.522   0.857   0.420 -1.7772 -1.2841 -2.2221
  207MOL0     H27885   2.505   0.699   0.495 -0.1266  0.2316  1.5128
  207MOL0     H27886   2.551   0.952   0.669  0.1671 -0.3388 -0.0074
  207MOL0     H27887   2.547   0.777   0.705 -2.7703  0.3839 -0.1052
  207MOL0     H27888   2.743   0.909   0.500  2.1162 -4.0628 -2.3694
  207MOL0     H27889   2.780   0.911   0.676 -1.4446 -1.0767  2.2738
  207MOL0     H27890   2.792   0.664   0.655  1.6676 -0.8135 -0.4528
  207MOL0     H27891   2.756   0.683   0.479 -0.5589 -2.1893  0.1236
  207MOL0     H27892   2.992   0.810   0.632  0.5903 -0.7640  1.1376
  207MOL0     H27893   2.951   0.830   0.458 -0.3307 -2.5195 -2.0751
  207MOL0     H27894   3.010   0.559   0.580  0.7719  0.0672  0.9937
  207MOL0     H27895   2.977   0.589   0.414 -0.2184 -0.0463  1.4338
  207MOL0     H27896   3.191   0.561   0.285 -1.8734 -1.2165  1.6425
  207MOL0     H27897   3.509   0.482   0.337 -0.3961 -1.1752 -3.0828
  207MOL0     H27898   3.453   0.575   0.207 -3.0214 -2.2380  0.6529
  207MOL0     H27899   3.622   0.765   0.322 -1.3105  0.0065  0.3060
  207MOL0     H27900   3.660   0.650   0.438  3.5066 -0.6271 -0.7143
  207MOL0     H27901   3.681   0.592   0.138  0.3891  0.3542 -0.0716
  207MOL0     H27902   3.727   0.483   0.270 -5.7448 -0.1327  0.7736
  207MOL0     H27903   3.893   0.680   0.343 -0.2235  2.4518 -0.8948
  207MOL0     H27904   3.852   0.766   0.200 -0.0817  1.8293  2.7104
  207MOL0     H27905   4.158   0.585  -0.007 -1.2783  0.1883  0.0870
  207MOL0     H27906   4.373   0.697  -0.006  1.1845  1.4331  1.4867
  207MOL0     H27907   4.779   0.833   0.170 -1.3711 -0.3597 -0.0090
  207MOL0     H27908   4.998   0.897   0.223  0.2245 -1.8908  1.2547
  207MOL0     H27909   5.029   1.190   0.591  0.7262 -0.1950  2.1091
  207MOL0     H27910   5.080   1.016   0.617 -2.2018  0.5128  0.3893
  207MOL0     H27911   5.295   1.073   0.515 -2.0098 -3.3037  3.5391
  207MOL0     H27912   5.248   1.251   0.507  2.8540  0.8910  0.7717
  207MOL0     H27913   5.274   1.271   0.739 -1.6499 -0.8667  0.7023
  207MOL0     H27914   5.250   1.115   0.773 -0.7993  2.0837  0.1780
  207MOL0     H27915   5.503   1.234   0.630 -1.2995  2.1627  1.7291
  207MOL0     H27916   5.459   1.051   0.654 -2.4856 -0.6718  2.6618
  207MOL0     H27917   5.446   1.106   0.893 -0.9968 -0.3998 -1.4871
  207MOL0     H27918   5.473   1.277   0.860 -0.4869 -0.4234  1.0396
  207MOL0     H27919   5.684   1.085   0.777 -1.5306 -1.0065  1.3420
  207MOL0     H27920   5.687   1.264   0.795 -2.9161  0.4054 -2.3198
  207MOL0     H27921   5.644   1.053   1.029  0.3316 -0.4979 -1.3195
  207MOL0     H27922   5.624   1.228   1.048 -1.8107 -0.9046 -1.6265
  207MOL0     H27923   5.895   1.115   0.956 -1.0219 -0.9051  0.2186
  207MOL0     H27924   5.854   1.277   0.999  0.8821 -0.2166  1.5309
  207MOL0     H27925   4.834   1.127   0.562  1.1641 -0.3664  0.7701
  207MOL0     H27926   4.608   1.072   0.488 -3.5135 -0.7666 -3.2708
  207MOL0     H27927   4.309   0.846   0.388 -1.5357 -0.1809  1.2909
  207MOL0     H27928   4.088   0.758   0.378 -1.1900 -0.7101 -0.6986
  207MOL0     H27929   1.915   0.742   0.607  0.6488 -1.0952 -0.9091
  207MOL0     H27930   1.741   0.598   0.716 -0.3722  3.3459  0.3422
  207MOL0     H27931   1.637   0.342   1.043  2.1291 -0.2465 -0.1958
  207MOL0     H27932   1.466   0.218   1.153  2.6584  2.3499 -0.1145
  207MOL0     H27933   1.283   0.026   0.980  0.5367  0.9981  0.7876
  207MOL0     H27934   1.227   0.034   1.153 -0.4449 -0.2311  0.4173
  207MOL0     H27935   1.249  -0.213   1.142 -0.8858  2.6556  2.0578
  207MOL0     H27936   1.273  -0.210   0.964  1.1830 -0.2132  0.7628
  207MOL0     H27937   1.049  -0.119   0.923 -0.9224  0.3695  0.3160
  207MOL0     H27938   1.042  -0.058   1.081  0.6736  1.7115 -0.0197
  207MOL0     H27939   1.024  -0.366   1.022  0.5160 -0.5210  0.6048
  207MOL0     H27940   1.031  -0.294   1.185 -0.9195  1.5134  0.6900
  207MOL0     H27941   0.630  -0.225   1.091 -0.7999 -1.5900 -2.3069
  207MOL0     H27942   1.598  -0.140   0.975 -1.1660  0.3503  0.0546
  207MOL0     H27943   1.759  -0.159   0.815 -0.3661  0.7304  0.6358
  207MOL0     H27944   1.780  -0.022   0.719 -3.1664 -0.9771  0.2333
  207MOL0     H27945   1.892  -0.036   0.857  0.2549  0.3841  0.4885
  208MOL0     O27946   9.367   4.358   3.960  0.2956 -0.2903 -0.0241
  208MOL0     C27947   9.288   4.357   4.055 -0.1743 -0.4797 -0.1784
  208MOL0     O27948   9.324   4.368   4.193  0.0446 -0.2548  0.1846
  208MOL0     C27949   9.456   4.404   4.221  0.3270 -0.2906 -0.5803
  208MOL0     C27950   9.567   4.335   4.170  0.6562 -0.0555  0.1953
  208MOL0     C27951   9.689   4.350   4.231 -0.0324  0.4013 -0.2712
  208MOL0     C27952   9.710   4.436   4.341  0.0483  0.5438  0.0708
  208MOL0     O27953   9.834   4.456   4.392  0.1225  0.4458  0.0997
  208MOL0     C27954   9.870   4.593   4.442 -0.3629 -0.0558  0.5251
  208MOL0     C27955  10.024   4.599   4.411  0.7707 -0.6462  0.9664
  208MOL0     C27956  10.077   4.743   4.437  0.0192  0.6135  0.1317
  208MOL0     C27957  10.224   4.741   4.394  0.4688 -0.2507 -0.3901
  208MOL0     C27958  10.274   4.866   4.324  0.6286  0.0171 -0.4142
  208MOL0     C27959  10.287   4.988   4.410  0.8053 -0.0868  0.2026
  208MOL0     C27960  10.387   5.086   4.389  0.3125  0.7081 -0.1006
  208MOL0     C27961  10.372   5.197   4.491  0.1924 -0.6655 -0.1156
  208MOL0     N27962  10.462   5.305   4.465  0.3828  0.1391  0.3529
  208MOL0     C27963  10.594   5.308   4.485 -0.1230  0.1001 -0.1408
  208MOL0     C27964  10.636   5.434   4.461  0.0136  0.0089 -0.5251
  208MOL0     C27965  10.778   5.483   4.474  0.4009 -0.6258 -0.0048
  208MOL0     C27966  10.794   5.638   4.438 -0.1412  0.2765 -0.1643
  208MOL0     C27967  10.775   5.738   4.557 -0.1661  0.1187  0.3469
  208MOL0     C27968  10.896   5.729   4.643 -0.0474 -1.0001  0.1940
  208MOL0     O27969  11.014   5.771   4.566 -0.5705 -0.1139  0.3698
  208MOL0     C27970  11.124   5.802   4.643  0.2172  0.2775  1.1770
  208MOL0     C27971  11.160   5.740   4.765  0.2723 -0.1899 -0.4782
  208MOL0     C27972  11.278   5.776   4.846  0.3870  0.1319  0.4582
  208MOL0     C27973  11.358   5.878   4.799  0.1475  0.1961  0.0854
  208MOL0     C27974  11.466   5.939   4.884  0.6023  0.5629  0.2074
  208MOL0     O27975  11.522   5.857   4.984  0.1676 -0.4434  0.2308
  208MOL0     C27976  11.621   5.911   5.055 -0.9062  0.3720  0.1867
  208MOL0     C27977  11.709   5.807   5.104  0.5605  0.3717  0.6432
  208MOL0     C27978  11.814   5.834   5.187  0.7372 -0.5140 -0.1688
  208MOL0     C27979  11.845   5.963   5.223  0.1610  0.0815 -0.4588
  208MOL0     O27980  11.956   5.974   5.303  0.2989 -0.5653 -0.1232
  208MOL0     C27981  11.978   6.093   5.376  0.2902  0.1444 -0.3820
  208MOL0     C27982  12.024   6.055   5.522 -0.6214 -0.1035  0.6013
  208MOL0     C27983  11.910   6.017   5.612  0.1542 -0.2135  0.0428
  208MOL0     C27984  11.972   5.970   5.746 -0.0862  0.9380 -0.1378
  208MOL0     C27985  11.854   5.967   5.846 -0.1351 -0.2812 -0.2160
  208MOL0     C27986  11.909   5.927   5.989 -0.2469 -0.0885  0.2145
  208MOL0     C27987  11.828   5.811   6.060  0.6580 -0.7024  0.3593
  208MOL0     C27988  11.899   5.763   6.193  0.0535  0.3313  0.1643
  208MOL0    Cl27989  12.052   5.672   6.152 -0.3851  0.3061  0.0083
  208MOL0     C27990  11.772   6.064   5.164  0.8882 -0.6516  0.9166
  208MOL0     C27991  11.660   6.041   5.087  0.8801 -0.2391 -0.7900
  208MOL0     O27992  11.495   6.057   4.860  0.6025 -0.1728  0.4183
  208MOL0     C27993  11.325   5.945   4.680  0.0435  0.7756 -0.4450
  208MOL0     C27994  11.210   5.909   4.600 -0.2272 -0.1943 -0.5468
  208MOL0     N27995  10.530   5.511   4.427  0.1253 -0.0095  0.3456
  208MOL0     N27996  10.428   5.430   4.425  0.8014 -0.0393  0.4738
  208MOL0     C27997   9.600   4.512   4.386  0.2664  0.3333 -0.2758
  208MOL0     C27998   9.476   4.491   4.323  0.5280  0.1606 -0.3202
  208MOL0     C27999   9.143   4.357   4.011 -0.3750 -0.0318 -0.7688
  208MOL0     C28000   9.067   4.451   4.084 -0.2904 -0.0299 -1.0073
  208MOL0     C28001   8.935   4.458   4.071 -0.4511  0.3577  0.5906
  208MOL0     C28002   8.870   4.379   3.975 -0.1965 -0.0875 -0.8030
  208MOL0     O28003   8.739   4.388   3.966 -0.0803  0.1363  0.7420
  208MOL0     C28004   8.675   4.264   4.012 -0.2473 -0.8623  0.0456
  208MOL0     C28005   8.526   4.300   4.040  0.1069 -0.4191 -0.5370
  208MOL0     C28006   8.457   4.170   4.091 -0.1969  0.0154  0.3139
  208MOL0     C28007   8.302   4.194   4.102 -0.0814 -0.2027 -0.2787
  208MOL0     C28008   8.224   4.204   3.972  0.4798  0.0127 -0.3786
  208MOL0     C28009   8.161   4.213   3.867  1.7070 -1.2689 -0.2389
  208MOL0     C28010   8.947   4.292   3.901  0.5399 -0.0248  0.4273
  208MOL0     C28011   9.084   4.275   3.916  0.6529  0.6149 -0.2031
  208MOL0     C28012   9.169   4.173   3.835 -0.0164  0.8701 -0.8675
  208MOL0     H28013   9.549   4.265   4.089 -0.6950 -0.4839  0.8318
  208MOL0     H28014   9.764   4.277   4.201 -0.8729 -0.5108 -0.2022
  208MOL0     H28015   9.814   4.662   4.379 -1.6422  0.2701  1.9553
  208MOL0     H28016   9.851   4.615   4.548 -1.3618 -1.3538  0.6340
  208MOL0     H28017  10.046   4.559   4.312 -3.6560 -0.7683 -0.1674
  208MOL0     H28018  10.067   4.534   4.488 -3.1253 -2.9402  1.4437
  208MOL0     H28019  10.060   4.792   4.533 -0.9594  2.6379 -0.9927
  208MOL0     H28020  10.018   4.803   4.366 -0.7277 -1.8502 -1.4329
  208MOL0     H28021  10.281   4.707   4.481 -0.4889  1.0364  0.7900
  208MOL0     H28022  10.234   4.659   4.322 -0.7873  0.5050 -1.4756
  208MOL0     H28023  10.373   4.838   4.287  0.9889 -1.8534  1.7306
  208MOL0     H28024  10.221   4.889   4.231  3.6346  0.8605 -2.0171
  208MOL0     H28025  10.190   5.037   4.397  0.7250 -0.4064 -0.4738
  208MOL0     H28026  10.305   4.944   4.508  0.8730 -5.5441 -1.9585
  208MOL0     H28027  10.381   5.124   4.286 -2.7863  0.9158  0.0548
  208MOL0     H28028  10.481   5.031   4.398 -0.4100 -0.5034  0.2479
  208MOL0     H28029  10.269   5.236   4.495  0.1215 -0.8584 -0.0148
  208MOL0     H28030  10.391   5.163   4.593 -0.4539  1.0350  0.6143
  208MOL0     H28031  10.655   5.226   4.522 -0.3766 -1.2518 -2.5387
  208MOL0     H28032  10.832   5.466   4.567  2.7820  1.9218 -0.7751
  208MOL0     H28033  10.835   5.425   4.400  0.5984 -0.8385  0.3156
  208MOL0     H28034  10.897   5.643   4.404 -0.0895 -0.8241 -0.2221
  208MOL0     H28035  10.727   5.667   4.356 -0.5645 -0.4684 -0.0955
  208MOL0     H28036  10.686   5.710   4.615 -0.1143 -3.1637 -0.9356
  208MOL0     H28037  10.756   5.836   4.511 -2.5606  1.9457  4.6452
  208MOL0     H28038  10.911   5.631   4.687  1.2364 -0.5951  0.7080
  208MOL0     H28039  10.897   5.799   4.727  4.1702 -0.5473 -0.0077
  208MOL0     H28040  11.112   5.652   4.808  0.9370  0.6139  2.0774
  208MOL0     H28041  11.296   5.727   4.941 -1.4387 -2.8257 -0.5980
  208MOL0     H28042  11.691   5.710   5.058 -0.1344  1.1326 -0.7501
  208MOL0     H28043  11.871   5.749   5.223  1.9884  0.5776  0.5575
  208MOL0     H28044  12.064   6.150   5.341  2.6952 -1.1570  2.9470
  208MOL0     H28045  11.890   6.157   5.390  0.5557 -0.1931  4.7348
  208MOL0     H28046  12.104   5.980   5.522 -0.1520  0.3897  0.2454
  208MOL0     H28047  12.079   6.140   5.564 -2.5689  1.2464  0.5564
  208MOL0     H28048  11.860   6.111   5.637  1.3460  0.2122  0.9368
  208MOL0     H28049  11.852   5.938   5.562  3.3362 -2.9060  0.2546
  208MOL0     H28050  12.051   6.035   5.785  1.8688 -0.4840 -1.5547
  208MOL0     H28051  12.015   5.871   5.733  0.3449  0.8451  1.7105
  208MOL0     H28052  11.768   5.905   5.817 -0.4981 -1.2246  2.6309
  208MOL0     H28053  11.821   6.071   5.854  0.6907 -0.0499  0.2281
  208MOL0     H28054  12.012   5.894   5.980 -0.0795  0.6985 -0.9900
  208MOL0     H28055  11.907   6.016   6.052 -0.2289  0.7463 -0.9366
  208MOL0     H28056  11.825   5.726   5.991  1.7597  0.9601 -1.8747
  208MOL0     H28057  11.728   5.851   6.077  0.1625 -2.3002  1.5699
  208MOL0     H28058  11.930   5.851   6.251  1.1783  0.5757 -0.7621
  208MOL0     H28059  11.826   5.709   6.254 -1.8278  1.9619 -0.5221
  208MOL0     H28060  11.795   6.168   5.183  0.1610  0.0867 -1.7662
  208MOL0     H28061  11.602   6.128   5.058 -2.9305 -1.3098  2.6191
  208MOL0     H28062  11.396   6.016   4.641 -1.4974  2.4383 -0.3442
  208MOL0     H28063  11.196   5.963   4.507  1.8797  0.0722 -0.7621
  208MOL0     H28064   9.594   4.570   4.478 -1.5438 -1.7707  1.0248
  208MOL0     H28065   9.384   4.531   4.366 -0.4509 -0.7852 -1.4587
  208MOL0     H28066   9.114   4.513   4.159 -1.0729 -1.5083  0.8105
  208MOL0     H28067   8.870   4.519   4.133  1.7379  3.6605 -0.1230
  208MOL0     H28068   8.738   4.241   4.099  1.3639  2.9418  0.0682
  208MOL0     H28069   8.689   4.185   3.938 -0.1739 -0.7290 -0.0818
  208MOL0     H28070   8.482   4.327   3.944 -3.4869 -0.7438  0.8725
  208MOL0     H28071   8.519   4.379   4.115  0.0031  2.2802 -3.2447
  208MOL0     H28072   8.494   4.139   4.189 -0.0238  2.7276  1.1897
  208MOL0     H28073   8.472   4.087   4.021 -4.1246  0.6063 -1.5207
  208MOL0     H28074   8.263   4.125   4.176  0.1507 -1.0003 -0.8930
  208MOL0     H28075   8.290   4.291   4.153  0.0914 -0.1343 -0.3661
  208MOL0     H28076   8.102   4.216   3.778  0.6220  2.2348  0.4487
  208MOL0     H28077   8.896   4.230   3.827  2.9338 -0.6640 -0.8032
  208MOL0     H28078   9.269   4.206   3.807  0.6012  2.7697  2.8944
  208MOL0     H28079   9.164   4.083   3.895  0.2803  0.5602 -1.3037
  208MOL0     H28080   9.121   4.151   3.739  1.1923 -1.1249 -1.0558
  209MOL0     O28081   2.690   9.121   5.301 -0.4169  0.6472  0.7292
  209MOL0     C28082   2.698   9.124   5.174 -0.1951  0.1701  0.3902
  209MOL0     O28083   2.804   9.154   5.098 -0.8927  0.0636 -0.1863
  209MOL0     C28084   2.923   9.192   5.155  0.3241 -0.6363 -0.1074
  209MOL0     C28085   3.037   9.169   5.086  0.2926  0.5061  0.4052
  209MOL0     C28086   3.160   9.200   5.150  0.0294 -0.9668  1.0225
  209MOL0     C28087   3.163   9.285   5.260 -0.7078  0.3170 -0.0034
  209MOL0     O28088   3.286   9.332   5.300 -0.6687  0.1280  0.3889
  209MOL0     C28089   3.303   9.405   5.423  0.9316  0.9687 -0.3588
  209MOL0     C28090   3.456   9.429   5.418  0.2139 -0.5195  0.5300
  209MOL0     C28091   3.554   9.309   5.414  0.1776 -0.1957  0.1127
  209MOL0     C28092   3.677   9.335   5.490 -0.9211  0.8957  0.2876
  209MOL0     C28093   3.774   9.435   5.419 -0.1141 -0.6332 -0.4206
  209MOL0     C28094   3.812   9.387   5.281 -0.3695  0.2777  0.4341
  209MOL0     C28095   3.910   9.273   5.283  0.0106 -0.5187 -0.1412
  209MOL0     C28096   3.963   9.240   5.134 -0.7523  0.4282 -0.0622
  209MOL0     N28097   4.062   9.339   5.091 -0.0498  0.7351  0.8157
  209MOL0     C28098   4.059   9.419   4.976 -0.2797 -0.4937 -0.5627
  209MOL0     C28099   4.171   9.487   4.977 -0.0812  0.5102 -0.2240
  209MOL0     C28100   4.227   9.593   4.886  0.4336 -0.2682 -0.1439
  209MOL0     C28101   4.189   9.737   4.939 -0.2081 -0.5115 -0.5304
  209MOL0     C28102   4.264   9.782   5.072 -0.0626 -0.2246 -0.6118
  209MOL0     C28103   4.414   9.757   5.069  0.2615  0.2403 -0.7941
  209MOL0     O28104   4.461   9.790   4.940  0.0680  0.1368  0.5301
  209MOL0     C28105   4.597   9.775   4.924  0.3259  0.6776 -0.0379
  209MOL0     C28106   4.673   9.882   4.871 -0.0357 -0.3828  1.4328
  209MOL0     C28107   4.812   9.855   4.860  0.0162 -0.2745 -0.5169
  209MOL0     C28108   4.880   9.735   4.881  0.6454  0.1007  0.6135
  209MOL0     C28109   5.027   9.724   4.876  0.0461  0.2284  0.3658
  209MOL0     O28110   5.096   9.831   4.832  0.6081 -0.5723 -0.1811
  209MOL0     C28111   5.229   9.834   4.852 -0.6976 -0.3920 -0.1279
  209MOL0     C28112   5.283   9.874   4.982  0.6089 -0.5233  0.4371
  209MOL0     C28113   5.412   9.872   5.013 -0.6671 -0.8042  0.0811
  209MOL0     C28114   5.512   9.829   4.917 -0.2374 -0.1011  0.7969
  209MOL0     O28115   5.651   9.841   4.943  0.0936 -0.2815  0.1747
  209MOL0     C28116   5.696   9.955   5.014  0.2007  0.2389  1.3975
  209MOL0     C28117   5.847   9.980   5.004 -0.3573 -1.2769 -0.0508
  209MOL0     C28118   5.939   9.872   5.059  0.3056  0.1292  0.3790
  209MOL0     C28119   6.075   9.888   4.998 -0.9072 -1.0688 -0.1339
  209MOL0     C28120   6.184   9.784   5.021 -0.2799 -0.0722 -0.0374
  209MOL0     C28121   6.310   9.821   4.933  0.5291  0.8507 -0.1047
  209MOL0     C28122   6.433   9.732   4.980  0.3311 -0.0519 -0.3360
  209MOL0     C28123   6.562   9.750   4.910 -0.1388 -0.3807  0.5064
  209MOL0    Cl28124   6.541   9.667   4.750 -0.2171  0.0876 -0.0385
  209MOL0     C28125   5.467   9.782   4.788 -0.3499 -0.2287 -0.0537
  209MOL0     C28126   5.331   9.792   4.762  0.0628  0.2210 -0.1381
  209MOL0     O28127   5.079   9.627   4.935  0.0578  0.1265 -0.1075
  209MOL0     C28128   4.795   9.630   4.921  0.5783  0.3564 -1.2589
  209MOL0     C28129   4.661   9.648   4.943 -0.4162 -0.7247  0.4701
  209MOL0     N28130   4.240   9.447   5.090 -0.3878  0.5064 -0.1209
  209MOL0     N28131   4.173   9.367   5.165 -0.2669 -0.1873 -0.2228
  209MOL0     C28132   3.050   9.320   5.314  0.7542 -0.2629  0.4031
  209MOL0     C28133   2.928   9.268   5.273  0.1766 -0.6009  0.0279
  209MOL0     C28134   2.564   9.123   5.094  0.6478  0.2572  0.0376
  209MOL0     C28135   2.541   9.218   4.989 -0.1073 -0.6544 -0.4721
  209MOL0     C28136   2.420   9.225   4.924  0.3253  0.0614 -0.4306
  209MOL0     C28137   2.306   9.156   4.979 -0.1673 -0.3582  0.4410
  209MOL0     O28138   2.180   9.169   4.941  0.2006 -0.0389 -0.0691
  209MOL0     C28139   2.133   9.292   4.895 -0.5776 -0.3819  0.1968
  209MOL0     C28140   1.981   9.292   4.899 -0.7767 -0.2479 -0.3172
  209MOL0     C28141   1.928   9.422   4.849  0.5299  0.4817 -0.5652
  209MOL0     C28142   1.783   9.388   4.801 -0.1339 -0.3320  0.0153
  209MOL0     C28143   1.689   9.362   4.913 -0.3111 -0.4678 -0.6381
  209MOL0     C28144   1.617   9.336   5.005 -0.2813 -0.4440  0.2909
  209MOL0     C28145   2.321   9.057   5.075 -0.2713  0.3965  0.1190
  209MOL0     C28146   2.451   9.048   5.138  0.8989  0.4930 -0.0016
  209MOL0     C28147   2.459   8.951   5.256 -0.8799  0.1773 -0.2828
  209MOL0     H28148   3.038   9.096   5.005  0.1058  0.6478  0.2741
  209MOL0     H28149   3.249   9.155   5.108  0.8867  0.1955  1.5593
  209MOL0     H28150   3.248   9.499   5.427  1.8425  1.6059 -2.0444
  209MOL0     H28151   3.266   9.346   5.508 -2.4150 -1.7864 -3.4558
  209MOL0     H28152   3.472   9.489   5.508  1.5736 -0.9039  0.5731
  209MOL0     H28153   3.476   9.485   5.326 -0.5057 -1.0081  0.0648
  209MOL0     H28154   3.574   9.264   5.316 -0.1853  0.7454 -0.4016
  209MOL0     H28155   3.493   9.235   5.466 -1.4252  1.8220  1.2394
  209MOL0     H28156   3.653   9.363   5.593  1.4071  1.8147  0.6550
  209MOL0     H28157   3.729   9.239   5.497 -1.6557  0.5788  1.8428
  209MOL0     H28158   3.729   9.535   5.409  1.0546  0.3731  3.0545
  209MOL0     H28159   3.864   9.454   5.478  0.1434 -2.3117 -0.2264
  209MOL0     H28160   3.728   9.354   5.219  0.5774 -1.7589  0.1878
  209MOL0     H28161   3.870   9.469   5.238  0.0771  0.6732  1.7204
  209MOL0     H28162   3.860   9.183   5.319 -0.4918 -0.6114 -1.0483
  209MOL0     H28163   3.992   9.294   5.352 -0.0210  1.5758 -0.6738
  209MOL0     H28164   4.015   9.145   5.147  0.3428  1.0212 -0.0019
  209MOL0     H28165   3.876   9.236   5.068  0.2714  0.9937 -1.4966
  209MOL0     H28166   3.986   9.431   4.896 -2.2491  2.3290  1.4219
  209MOL0     H28167   4.334   9.571   4.889  0.3481 -0.6953 -0.1256
  209MOL0     H28168   4.208   9.577   4.780  3.1101  3.1606 -1.3639
  209MOL0     H28169   4.212   9.804   4.856 -0.0243 -1.7943 -1.5532
  209MOL0     H28170   4.082   9.742   4.964 -0.4633 -1.4344 -1.3811
  209MOL0     H28171   4.212   9.735   5.156  1.8761  0.0594  0.8396
  209MOL0     H28172   4.241   9.889   5.082 -1.7200 -0.3929 -2.2354
  209MOL0     H28173   4.442   9.655   5.097  0.8693  1.0373  1.8097
  209MOL0     H28174   4.459   9.827   5.141  1.2095  0.6881 -1.8029
  209MOL0     H28175   4.639   9.977   4.831 -0.6635 -0.2764  2.2027
  209MOL0     H28176   4.870   9.940   4.827 -1.0823  0.3283 -0.9486
  209MOL0     H28177   5.207   9.913   5.049  0.0146  1.0563 -1.0616
  209MOL0     H28178   5.451   9.906   5.108 -0.1056 -1.1524 -0.0177
  209MOL0     H28179   5.636  10.038   4.977 -0.7577 -0.4936  1.2674
  209MOL0     H28180   5.663   9.949   5.118 -0.7701  2.0181  1.2298
  209MOL0     H28181   5.871  10.008   4.901  0.9965  1.2006  0.8489
  209MOL0     H28182   5.861  10.078   5.049  1.1021 -1.2710 -0.4891
  209MOL0     H28183   5.946   9.883   5.168 -0.3930  2.1442  0.2717
  209MOL0     H28184   5.899   9.771   5.044 -0.6005  0.5581 -0.1329
  209MOL0     H28185   6.122   9.980   5.032  0.7481 -2.3826  1.3366
  209MOL0     H28186   6.070   9.912   4.892 -1.6165  1.3163  0.3915
  209MOL0     H28187   6.137   9.694   4.981 -2.3004  0.7466  0.3691
  209MOL0     H28188   6.217   9.756   5.121  0.1217 -1.5315 -0.5468
  209MOL0     H28189   6.286   9.807   4.827 -2.1341  1.9255  0.2738
  209MOL0     H28190   6.336   9.927   4.944 -0.3938  1.0771 -0.0458
  209MOL0     H28191   6.399   9.630   4.956 -2.0933  0.3824  0.9456
  209MOL0     H28192   6.442   9.744   5.088  0.0007 -2.6507  0.0422
  209MOL0     H28193   6.582   9.857   4.905 -1.7714 -0.1126 -1.2113
  209MOL0     H28194   6.640   9.702   4.971 -1.0867  0.5689  2.5841
  209MOL0     H28195   5.539   9.765   4.709  1.9417 -0.6428  1.9837
  209MOL0     H28196   5.304   9.764   4.661 -0.0370 -1.3214  0.2883
  209MOL0     H28197   4.831   9.528   4.934  0.7001  0.3180 -1.8679
  209MOL0     H28198   4.607   9.557   4.966 -1.5827 -0.8845 -2.4994
  209MOL0     H28199   3.049   9.382   5.403  0.0354  1.1849 -0.5711
  209MOL0     H28200   2.844   9.300   5.334 -1.7169 -2.3696 -1.5001
  209MOL0     H28201   2.622   9.276   4.946  0.2382 -0.2045  0.7283
  209MOL0     H28202   2.402   9.295   4.844 -2.1036 -2.8671 -2.6683
  209MOL0     H28203   2.170   9.312   4.794 -0.5905 -1.2440  0.0158
  209MOL0     H28204   2.172   9.368   4.963  1.1913 -3.0478  2.3713
  209MOL0     H28205   1.960   9.284   5.006 -0.2623 -1.1017 -0.2767
  209MOL0     H28206   1.939   9.203   4.850 -3.6234 -1.3730  3.6295
  209MOL0     H28207   1.986   9.465   4.767  2.8499  1.5608  1.4854
  209MOL0     H28208   1.930   9.489   4.935  1.2552  0.7429 -0.7791
  209MOL0     H28209   1.751   9.476   4.745  0.7341 -0.3702 -0.5532
  209MOL0     H28210   1.766   9.302   4.735  0.3383 -0.4832  0.0873
  209MOL0     H28211   1.539   9.304   5.071 -2.0617  0.5050 -1.2692
  209MOL0     H28212   2.245   8.980   5.083  0.8147 -0.7099  0.0233
  209MOL0     H28213   2.374   8.883   5.261  0.5288 -1.5448  2.1540
  209MOL0     H28214   2.551   8.892   5.247 -1.5116 -0.8578 -0.0134
  209MOL0     H28215   2.463   8.999   5.354  1.0779  2.3007 -1.2875
  210MOL0     O28216   8.330   2.854   2.743 -0.4034 -0.9603 -0.1994
  210MOL0     C28217   8.358   2.736   2.727 -0.4400 -0.3275  0.4902
  210MOL0     O28218   8.485   2.687   2.712 -0.2786  0.0642  0.7827
  210MOL0     C28219   8.583   2.774   2.758 -0.3119  0.3465 -0.0826
  210MOL0     C28220   8.655   2.855   2.670 -0.8002 -0.1210  0.4336
  210MOL0     C28221   8.760   2.935   2.715 -1.0911  0.2449  0.3747
  210MOL0     C28222   8.791   2.937   2.851  0.4812 -0.5519 -0.4746
  210MOL0     O28223   8.882   3.013   2.920  0.2172  0.2372  1.5652
  210MOL0     C28224   8.975   3.082   2.831 -0.3001  0.5072  0.6488
  210MOL0     C28225   9.089   3.135   2.923 -0.0108  0.4132  0.2927
  210MOL0     C28226   9.181   3.223   2.839  0.0028  0.1596  0.5428
  210MOL0     C28227   9.311   3.270   2.914  0.3211  0.0930 -0.4052
  210MOL0     C28228   9.404   3.355   2.830 -0.7564  0.5150  0.0346
  210MOL0     C28229   9.343   3.487   2.776  0.7083  0.1439 -0.2442
  210MOL0     C28230   9.296   3.581   2.893  0.4663 -0.7153 -0.4176
  210MOL0     C28231   9.421   3.631   2.978 -0.5852 -0.9178 -0.5213
  210MOL0     N28232   9.531   3.711   2.905 -0.2079 -0.2636 -0.3235
  210MOL0     C28233   9.591   3.834   2.942  0.3686  0.1399  1.0101
  210MOL0     C28234   9.693   3.862   2.851 -0.2692  0.8196  0.5640
  210MOL0     C28235   9.780   3.987   2.839  0.7595  0.0037 -0.0790
  210MOL0     C28236   9.902   3.972   2.933 -0.2248  0.4053  0.4904
  210MOL0     C28237   9.990   4.102   2.926 -0.6162 -0.3115  0.3476
  210MOL0     C28238  10.095   4.101   3.030 -0.8298  0.5728 -0.6279
  210MOL0     O28239  10.186   4.208   3.034 -0.7459  0.1106 -0.2060
  210MOL0     C28240  10.283   4.213   3.135  0.3134  0.6763  0.8518
  210MOL0     C28241  10.306   4.108   3.224 -0.3591 -0.5133  0.0533
  210MOL0     C28242  10.417   4.111   3.315  0.1800 -1.0048 -0.6601
  210MOL0     C28243  10.505   4.218   3.317 -1.8273  0.3688 -0.3373
  210MOL0     C28244  10.619   4.232   3.403  0.1484 -0.3089  0.1962
  210MOL0     O28245  10.626   4.150   3.514  0.2760  0.0440  0.6829
  210MOL0     C28246  10.739   4.150   3.583 -0.0198  0.5847  0.4042
  210MOL0     C28247  10.851   4.071   3.547 -0.6417  0.0349 -0.1160
  210MOL0     C28248  10.966   4.055   3.619 -0.8211  0.1402 -0.5303
  210MOL0     C28249  10.977   4.120   3.742  0.0710 -0.3512 -0.0942
  210MOL0     O28250  11.079   4.091   3.828  0.7047 -0.1472 -0.0272
  210MOL0     C28251  11.205   4.058   3.768 -0.5840  0.6099  0.0414
  210MOL0     C28252  11.308   4.057   3.873 -0.2371  0.2153 -0.0760
  210MOL0     C28253  11.444   4.003   3.822  0.4399 -0.0613 -0.7989
  210MOL0     C28254  11.539   3.976   3.942  0.2186  1.0514  0.8030
  210MOL0     C28255  11.659   3.890   3.899  0.7625  0.7694  0.0410
  210MOL0     C28256  11.756   3.987   3.837  0.0394  0.6277 -1.1050
  210MOL0     C28257  11.885   3.910   3.793 -0.1790  0.0544 -0.0689
  210MOL0     C28258  11.970   3.839   3.892  0.0436  0.0887 -0.9503
  210MOL0    Cl28259  12.032   3.948   4.024 -0.1996  0.1318  0.2512
  210MOL0     C28260  10.869   4.201   3.788  0.3100  0.3288 -0.3899
  210MOL0     C28261  10.754   4.211   3.709 -0.4942 -0.8758 -0.6754
  210MOL0     O28262  10.701   4.323   3.385  0.4053  0.2947  1.1339
  210MOL0     C28263  10.476   4.320   3.224 -0.6045  0.0821 -0.8984
  210MOL0     C28264  10.369   4.321   3.135  0.6378  0.8040 -0.0603
  210MOL0     N28265   9.703   3.747   2.763 -0.0169 -0.7462 -0.3665
  210MOL0     N28266   9.617   3.662   2.808 -0.1126 -0.0259  0.3867
  210MOL0     C28267   8.718   2.852   2.936 -0.8990  0.0489  0.3459
  210MOL0     C28268   8.627   2.765   2.891 -0.2218  0.1612  0.1915
  210MOL0     C28269   8.247   2.633   2.716 -0.1007 -0.0465  0.1141
  210MOL0     C28270   8.284   2.501   2.739 -0.0051 -0.0776 -0.2896
  210MOL0     C28271   8.189   2.406   2.753  0.7205  0.4506 -0.3384
  210MOL0     C28272   8.059   2.435   2.750  0.5130  0.1544 -0.4412
  210MOL0     O28273   7.975   2.337   2.774 -0.9580  0.1409 -0.1898
  210MOL0     C28274   7.833   2.357   2.778 -0.0654 -0.9992  0.0156
  210MOL0     C28275   7.777   2.433   2.899  0.3375  0.7141  0.0004
  210MOL0     C28276   7.765   2.344   3.016 -0.0369  0.3253  0.7210
  210MOL0     C28277   7.661   2.233   3.013  0.4402  0.0173 -0.2535
  210MOL0     C28278   7.531   2.292   3.046  0.3323 -1.3099  0.6722
  210MOL0     C28279   7.421   2.337   3.079 -0.0313  0.5329  0.4512
  210MOL0     C28280   8.018   2.570   2.732  1.0811  1.0054 -0.1912
  210MOL0     C28281   8.110   2.668   2.703  0.2445 -0.0184 -0.8532
  210MOL0     C28282   8.056   2.800   2.672  0.4000  0.1521  0.0371
  210MOL0     H28283   8.628   2.856   2.565  0.4867 -0.2263  0.0757
  210MOL0     H28284   8.816   2.995   2.643 -1.6943 -0.9595 -1.1558
  210MOL0     H28285   9.020   3.012   2.760 -0.3435  1.7425 -0.6201
  210MOL0     H28286   8.923   3.164   2.782  0.4364 -0.4113 -1.8533
  210MOL0     H28287   9.151   3.052   2.957 -0.3247  0.0647  0.0337
  210MOL0     H28288   9.033   3.179   3.005 -1.5256 -1.1032  0.1542
  210MOL0     H28289   9.121   3.308   2.805 -0.5849 -0.5604 -0.2407
  210MOL0     H28290   9.215   3.174   2.748 -1.0370  0.4155 -0.0002
  210MOL0     H28291   9.289   3.322   3.008  2.7564  2.2096 -0.8866
  210MOL0     H28292   9.365   3.177   2.935 -0.9077 -0.4535  0.4696
  210MOL0     H28293   9.501   3.372   2.877 -0.4845  0.5118 -0.5182
  210MOL0     H28294   9.432   3.289   2.748  1.2416 -0.2577  1.2723
  210MOL0     H28295   9.400   3.552   2.708 -2.1403  1.3875 -1.6378
  210MOL0     H28296   9.253   3.470   2.717 -0.1911 -2.1847  1.6752
  210MOL0     H28297   9.218   3.526   2.947  1.0175  0.0777  1.2853
  210MOL0     H28298   9.250   3.670   2.852  0.0384 -1.8634 -2.5583
  210MOL0     H28299   9.385   3.698   3.056  2.3134 -0.3642  0.4415
  210MOL0     H28300   9.472   3.548   3.026 -0.5445  0.7943  2.6350
  210MOL0     H28301   9.564   3.890   3.031  1.1627 -0.3044  1.5416
  210MOL0     H28302   9.819   3.994   2.737  1.2091 -0.9023  0.0214
  210MOL0     H28303   9.730   4.078   2.871  4.6816  2.1377  0.6215
  210MOL0     H28304   9.870   3.963   3.037 -0.0031 -0.8418  0.4619
  210MOL0     H28305   9.967   3.888   2.905  0.6134  1.2928 -0.3359
  210MOL0     H28306   9.930   4.192   2.942 -0.4019  0.4631 -2.6790
  210MOL0     H28307  10.039   4.099   2.828  0.2540  0.0377  0.7614
  210MOL0     H28308  10.151   4.008   3.021 -0.0148  0.8383  1.2003
  210MOL0     H28309  10.033   4.105   3.120  0.2904  1.4984  0.1293
  210MOL0     H28310  10.239   4.023   3.222  0.5742 -1.2598 -1.1117
  210MOL0     H28311  10.433   4.029   3.385  0.7409 -1.4867 -1.3387
  210MOL0     H28312  10.852   4.022   3.450 -0.6774 -0.8310  0.3126
  210MOL0     H28313  11.049   3.998   3.577 -3.2020 -2.9315 -1.3988
  210MOL0     H28314  11.204   3.953   3.739  3.2329  0.1954  0.8639
  210MOL0     H28315  11.231   4.123   3.684 -2.0877 -1.5636 -2.2406
  210MOL0     H28316  11.321   4.161   3.904  0.5590 -0.0875  0.6348
  210MOL0     H28317  11.272   4.006   3.963 -2.1463  1.5484 -0.0354
  210MOL0     H28318  11.421   3.910   3.770  0.5083 -2.2713  2.7896
  210MOL0     H28319  11.481   4.089   3.765  1.1528  3.6663  4.5737
  210MOL0     H28320  11.485   3.921   4.020 -1.0458  0.4624 -0.4408
  210MOL0     H28321  11.572   4.067   3.992  2.4401 -0.0593  1.4665
  210MOL0     H28322  11.630   3.814   3.826 -2.0348  0.6912  1.0882
  210MOL0     H28323  11.688   3.835   3.989  0.5518  0.0822 -0.3090
  210MOL0     H28324  11.713   4.039   3.751 -0.7226 -2.8248 -2.9788
  210MOL0     H28325  11.789   4.064   3.908  0.9290  0.4171 -1.2842
  210MOL0     H28326  11.957   3.980   3.752 -0.8026  1.8230  1.7030
  210MOL0     H28327  11.851   3.837   3.718  0.4633  0.9548 -1.2571
  210MOL0     H28328  11.904   3.764   3.938  0.7549  1.7158  3.0825
  210MOL0     H28329  12.052   3.786   3.842  0.6518  0.2623 -0.1451
  210MOL0     H28330  10.883   4.251   3.883  3.6229 -0.9986 -0.0391
  210MOL0     H28331  10.671   4.273   3.744 -1.6367 -3.2109  1.0423
  210MOL0     H28332  10.533   4.413   3.221 -0.8800  0.2775 -0.2449
  210MOL0     H28333  10.359   4.393   3.055 -0.9299 -0.7499 -1.3335
  210MOL0     H28334   8.743   2.842   3.041 -0.8449  2.3506  0.5989
  210MOL0     H28335   8.575   2.694   2.954 -0.7817 -0.7612 -1.2329
  210MOL0     H28336   8.384   2.461   2.750  0.2470  0.2372 -1.3386
  210MOL0     H28337   8.220   2.303   2.766  0.8606  0.3705 -1.2277
  210MOL0     H28338   7.786   2.262   2.753  2.1544 -1.9715 -0.7095
  210MOL0     H28339   7.795   2.425   2.700 -1.0620 -2.0860 -0.4711
  210MOL0     H28340   7.674   2.463   2.877 -0.9975 -0.2453  4.0928
  210MOL0     H28341   7.847   2.513   2.925  1.3200 -0.5526  1.3776
  210MOL0     H28342   7.750   2.410   3.102  1.0800  0.2231  1.0156
  210MOL0     H28343   7.862   2.299   3.041  0.5540  0.9216 -0.4076
  210MOL0     H28344   7.653   2.175   2.920 -0.0742 -0.4286  0.0665
  210MOL0     H28345   7.704   2.162   3.085  1.8997  0.0416 -1.0454
  210MOL0     H28346   7.319   2.369   3.089  0.2043  1.5808 -0.2518
  210MOL0     H28347   7.915   2.605   2.729  0.0615 -1.5898  1.0570
  210MOL0     H28348   8.096   2.837   2.577 -2.2965 -0.8105 -1.5939
  210MOL0     H28349   7.948   2.789   2.653 -0.1972  0.9561  2.5645
  210MOL0     H28350   8.062   2.872   2.754 -0.4189  1.3206 -0.8936
  211MOL0     O28351   3.862   6.714   8.402  0.0939  0.3757 -0.8318
  211MOL0     C28352   3.970   6.734   8.458 -0.2230  0.0116 -0.0482
  211MOL0     O28353   4.103   6.733   8.397  0.4350 -0.1118 -0.7169
  211MOL0     C28354   4.112   6.717   8.258 -0.8671  0.2883 -1.1715
  211MOL0     C28355   4.220   6.650   8.196  0.3076  0.0426  0.1004
  211MOL0     C28356   4.236   6.653   8.062 -0.4630 -0.8967 -0.2842
  211MOL0     C28357   4.148   6.721   7.972 -0.8621  0.1156  0.2841
  211MOL0     O28358   4.188   6.718   7.841  0.4522  0.0471 -0.7493
  211MOL0     C28359   4.081   6.770   7.753 -0.4488 -0.1191 -0.0886
  211MOL0     C28360   4.128   6.766   7.598  1.1092  0.8380 -0.2137
  211MOL0     C28361   4.009   6.792   7.495 -0.5970 -0.4817  0.2047
  211MOL0     C28362   3.940   6.936   7.524 -0.4224  0.6456  0.0043
  211MOL0     C28363   3.842   6.978   7.416  0.1561  0.5762  1.0878
  211MOL0     C28364   3.780   7.119   7.437  0.4126 -0.2106 -0.0172
  211MOL0     C28365   3.721   7.156   7.577 -0.2888  0.4002  0.0019
  211MOL0     C28366   3.696   7.304   7.601  0.4976  0.9909  0.7508
  211MOL0     N28367   3.650   7.338   7.731 -0.1212 -0.1894 -0.4946
  211MOL0     C28368   3.531   7.301   7.790  0.5675  0.3805 -0.2388
  211MOL0     C28369   3.538   7.351   7.920 -0.6535  1.1344  0.1222
  211MOL0     C28370   3.425   7.353   8.039 -1.1628  0.4878  0.9335
  211MOL0     C28371   3.479   7.368   8.180 -0.4120  0.0364 -0.5868
  211MOL0     C28372   3.374   7.344   8.290 -0.3942  0.2243  0.1557
  211MOL0     C28373   3.233   7.404   8.259  0.1235 -0.4617  0.4004
  211MOL0     O28374   3.164   7.395   8.387 -0.3116 -1.0039 -0.3655
  211MOL0     C28375   3.033   7.430   8.398 -0.5998  1.1881 -0.4367
  211MOL0     C28376   2.977   7.446   8.524  0.2899  0.2031  0.0952
  211MOL0     C28377   2.843   7.484   8.545 -0.2656  0.2232 -0.2160
  211MOL0     C28378   2.764   7.518   8.436 -0.1561  0.8089 -0.2451
  211MOL0     C28379   2.619   7.564   8.460  0.8359 -0.4045 -0.1514
  211MOL0     O28380   2.577   7.570   8.591 -0.0282 -0.2123  0.8378
  211MOL0     C28381   2.452   7.620   8.617 -0.4769  0.2974  0.3097
  211MOL0     C28382   2.337   7.554   8.584 -0.7956  0.5022 -0.4302
  211MOL0     C28383   2.212   7.606   8.611  0.6270 -0.6225  0.6152
  211MOL0     C28384   2.198   7.729   8.682  0.2598 -0.9483 -0.6390
  211MOL0     O28385   2.070   7.755   8.730 -0.8175  0.1373  0.9704
  211MOL0     C28386   2.058   7.859   8.830 -0.5517 -0.1673  0.8239
  211MOL0     C28387   1.916   7.897   8.870  0.0870 -0.2663  0.4287
  211MOL0     C28388   1.922   8.007   8.975  0.3477  0.0724 -0.8071
  211MOL0     C28389   1.785   8.071   9.007 -0.0126 -0.8037  0.2096
  211MOL0     C28390   1.795   8.199   9.093  0.1686  1.0200 -0.1028
  211MOL0     C28391   1.657   8.263   9.090  1.2923  0.9705  0.7118
  211MOL0     C28392   1.638   8.361   9.204  0.1064 -0.0424  0.1733
  211MOL0     C28393   1.502   8.418   9.214  0.1406 -0.6403 -0.2558
  211MOL0    Cl28394   1.464   8.542   9.096  0.0931 -0.1334  0.1686
  211MOL0     C28395   2.310   7.797   8.729  0.2945 -0.3070  0.1882
  211MOL0     C28396   2.434   7.743   8.692  0.2710 -0.1239  0.6311
  211MOL0     O28397   2.546   7.586   8.363 -0.3246 -0.5399  0.4570
  211MOL0     C28398   2.822   7.507   8.306  0.2243 -0.6138  0.0711
  211MOL0     C28399   2.954   7.459   8.289 -0.5769 -0.3487  0.2263
  211MOL0     N28400   3.657   7.427   7.927  0.6626 -0.0523  0.9091
  211MOL0     N28401   3.724   7.401   7.823  0.9822 -0.2118  0.5011
  211MOL0     C28402   4.035   6.777   8.031 -0.1106  1.0573  0.2568
  211MOL0     C28403   4.021   6.781   8.174  0.4296  0.7167  0.6512
  211MOL0     C28404   3.955   6.766   8.603 -0.6984  0.5777  0.2894
  211MOL0     C28405   4.074   6.793   8.676 -0.6348 -1.0878  0.9606
  211MOL0     C28406   4.068   6.809   8.810 -0.0908 -0.6519  0.1463
  211MOL0     C28407   3.951   6.810   8.887  0.6459  0.2725  0.6555
  211MOL0     O28408   3.964   6.832   9.015 -0.2094 -0.1945  0.3720
  211MOL0     C28409   3.836   6.836   9.093 -0.0045  0.3593  0.2489
  211MOL0     C28410   3.861   6.873   9.241 -0.0455  0.4961  0.3242
  211MOL0     C28411   3.731   6.879   9.320  0.8884  0.7191 -0.3841
  211MOL0     C28412   3.759   6.909   9.465 -0.3023  0.4800  0.5279
  211MOL0     C28413   3.646   6.918   9.556 -0.4532  1.3843 -0.6511
  211MOL0     C28414   3.540   6.926   9.619 -0.0246  0.0004  0.3491
  211MOL0     C28415   3.834   6.778   8.810 -0.2493  0.2869  0.3073
  211MOL0     C28416   3.831   6.759   8.677 -0.3436 -0.0660  0.3094
  211MOL0     C28417   3.701   6.713   8.618 -0.1449 -0.0477  0.3855
  211MOL0     H28418   4.281   6.583   8.255 -2.4836 -2.3580  0.4257
  211MOL0     H28419   4.313   6.595   8.012  0.2892 -0.9332  0.8726
  211MOL0     H28420   3.982   6.726   7.762 -1.1338  1.3956  0.0367
  211MOL0     H28421   4.058   6.873   7.782  1.1134  0.1968  0.1407
  211MOL0     H28422   4.176   6.668   7.590 -1.0439 -0.1357 -3.3670
  211MOL0     H28423   4.207   6.840   7.585  2.6295 -0.5568  0.7978
  211MOL0     H28424   3.926   6.721   7.507 -0.5619 -0.4430  0.6870
  211MOL0     H28425   4.053   6.791   7.395  2.6338  1.1451  1.4742
  211MOL0     H28426   3.896   6.927   7.624  0.0267 -0.8270  0.0966
  211MOL0     H28427   4.013   7.017   7.528  0.9408 -0.5836  3.5616
  211MOL0     H28428   3.894   6.975   7.320 -0.6776 -1.0815  0.6404
  211MOL0     H28429   3.754   6.913   7.411  0.7049 -0.1004 -0.9766
  211MOL0     H28430   3.847   7.201   7.412 -1.8092  1.4015 -1.0798
  211MOL0     H28431   3.699   7.124   7.364  0.8838 -0.5453 -0.5697
  211MOL0     H28432   3.777   7.111   7.659 -3.3225 -0.4894  1.7621
  211MOL0     H28433   3.628   7.099   7.581  1.8345 -3.3864  4.8727
  211MOL0     H28434   3.785   7.354   7.563  0.1718  0.6264 -0.5465
  211MOL0     H28435   3.611   7.330   7.538  0.9972  0.1344 -0.3177
  211MOL0     H28436   3.450   7.267   7.726  1.2278  1.9900 -2.0371
  211MOL0     H28437   3.363   7.441   8.023  1.1600  1.8606 -1.5300
  211MOL0     H28438   3.374   7.257   8.029 -0.4143  0.2020 -0.4464
  211MOL0     H28439   3.563   7.299   8.184  0.2473  0.8004 -0.8435
  211MOL0     H28440   3.528   7.463   8.206  0.9002 -1.1034  1.3419
  211MOL0     H28441   3.405   7.383   8.387  1.4402  1.2306 -0.7781
  211MOL0     H28442   3.356   7.236   8.298  1.8944 -0.2688 -0.6191
  211MOL0     H28443   3.179   7.354   8.178 -0.1231  0.6472 -0.1351
  211MOL0     H28444   3.253   7.507   8.227  2.7509  0.0312  3.1116
  211MOL0     H28445   3.051   7.415   8.598  1.9742 -1.5511 -2.1688
  211MOL0     H28446   2.797   7.477   8.643 -0.0303 -0.7642 -0.1687
  211MOL0     H28447   2.330   7.461   8.529 -1.8978 -1.6163  2.9503
  211MOL0     H28448   2.122   7.557   8.574  0.3418 -0.5089  1.1409
  211MOL0     H28449   2.111   7.820   8.917  0.5549  2.3946  1.4089
  211MOL0     H28450   2.091   7.954   8.786 -1.7971 -0.0226  0.1463
  211MOL0     H28451   1.856   7.927   8.784  1.0928  1.8670  0.4077
  211MOL0     H28452   1.871   7.804   8.908 -1.1291  1.1078  2.5481
  211MOL0     H28453   1.957   7.980   9.075 -1.1322  1.7886  0.2443
  211MOL0     H28454   1.987   8.085   8.934  3.7608 -0.6514  2.6026
  211MOL0     H28455   1.712   7.994   9.034  1.5399 -3.3268 -2.1406
  211MOL0     H28456   1.755   8.109   8.909  0.9670 -0.2246  0.1122
  211MOL0     H28457   1.870   8.271   9.059  0.6347  1.5038  1.7933
  211MOL0     H28458   1.822   8.173   9.196  0.2855  0.6270 -0.2283
  211MOL0     H28459   1.653   8.316   8.995 -2.3165 -0.5231 -0.1282
  211MOL0     H28460   1.576   8.189   9.091  0.6935  1.5683 -0.9897
  211MOL0     H28461   1.712   8.441   9.190  2.0817 -2.1099 -2.1313
  211MOL0     H28462   1.655   8.315   9.301  1.4486 -0.7896 -0.3888
  211MOL0     H28463   1.428   8.337   9.215  1.3784 -1.7975  0.0612
  211MOL0     H28464   1.500   8.465   9.313  1.6307 -1.5950  0.2660
  211MOL0     H28465   2.311   7.881   8.797  0.4932  1.4040 -1.8188
  211MOL0     H28466   2.523   7.783   8.740 -0.7206  3.1202  0.0494
  211MOL0     H28467   2.768   7.516   8.212  1.9629  0.7369 -0.8699
  211MOL0     H28468   2.983   7.462   8.184 -1.4487 -2.4220 -0.1221
  211MOL0     H28469   3.954   6.816   7.970 -2.3047 -1.0181  1.6377
  211MOL0     H28470   3.937   6.839   8.211 -2.5609 -2.0843 -1.2524
  211MOL0     H28471   4.165   6.806   8.618 -0.7543  2.8033  1.3711
  211MOL0     H28472   4.162   6.832   8.860  1.0360 -1.6126 -1.4315
  211MOL0     H28473   3.792   6.736   9.088  1.3882 -0.2368 -0.8946
  211MOL0     H28474   3.757   6.898   9.051  0.8026  0.0760 -1.8019
  211MOL0     H28475   3.910   6.971   9.245 -0.7872  0.8511  0.7853
  211MOL0     H28476   3.934   6.803   9.281 -0.6272  1.0269  2.4036
  211MOL0     H28477   3.681   6.782   9.308 -0.8197  1.0812  2.7934
  211MOL0     H28478   3.676   6.957   9.267 -0.1009  1.4684  1.6517
  211MOL0     H28479   3.827   6.830   9.497 -1.2307 -0.2568  0.7532
  211MOL0     H28480   3.818   7.000   9.473  1.7982 -0.8300  0.7227
  211MOL0     H28481   3.439   6.928   9.655  0.0771 -3.5343  1.1655
  211MOL0     H28482   3.741   6.762   8.864  0.2532  1.1441  1.4571
  211MOL0     H28483   3.716   6.608   8.591  1.7794  0.2299  0.2138
  211MOL0     H28484   3.622   6.729   8.691  0.2546  0.4804  0.7189
  211MOL0     H28485   3.673   6.774   8.531  1.5686  3.7057  2.2150
  212MOL0     O28486   2.590   1.627   4.354 -0.1089  0.3321 -0.3433
  212MOL0     C28487   2.512   1.625   4.255  0.5383  0.9198 -0.0458
  212MOL0     O28488   2.547   1.661   4.123  0.9895  0.2393  0.1694
  212MOL0     C28489   2.660   1.733   4.097  0.0771  0.3197  0.1327
  212MOL0     C28490   2.668   1.875   4.097 -0.1300  0.6563 -0.4659
  212MOL0     C28491   2.777   1.943   4.058  0.7227  0.0859 -0.0180
  212MOL0     C28492   2.895   1.882   4.032  0.6666  0.0544 -0.3102
  212MOL0     O28493   2.999   1.952   3.988 -0.5713  0.2276  0.5187
  212MOL0     C28494   3.011   2.091   3.991  0.9594  0.2440  0.4998
  212MOL0     C28495   3.144   2.141   3.944 -0.7157  0.9763  0.0037
  212MOL0     C28496   3.258   2.100   4.043  0.0498  0.4654  1.3648
  212MOL0     C28497   3.392   2.114   3.972  0.0035  0.0920 -0.3882
  212MOL0     C28498   3.502   2.033   4.045  0.2549  0.2011 -0.4093
  212MOL0     C28499   3.645   2.060   3.992 -0.1959  0.8116  0.5411
  212MOL0     C28500   3.713   2.187   4.043  0.2595 -0.1039 -0.7151
  212MOL0     C28501   3.842   2.234   3.966 -0.2865 -1.2927 -0.2440
  212MOL0     N28502   3.939   2.129   3.963 -0.2005  0.2353 -0.2846
  212MOL0     C28503   3.953   2.034   3.866  0.3831  0.0717  0.6469
  212MOL0     C28504   4.067   1.969   3.910  0.2624 -0.7058 -0.3153
  212MOL0     C28505   4.133   1.863   3.819  0.4084 -0.0445  0.3107
  212MOL0     C28506   4.265   1.915   3.765  0.3551 -0.9692 -0.7814
  212MOL0     C28507   4.310   1.826   3.645  0.3459 -0.2337  0.9900
  212MOL0     C28508   4.441   1.865   3.589 -0.1967 -0.1875  0.5462
  212MOL0     O28509   4.546   1.833   3.686  0.7173 -0.1693 -0.0233
  212MOL0     C28510   4.682   1.847   3.659  0.3783 -0.4063 -0.9404
  212MOL0     C28511   4.735   1.893   3.540 -0.1833 -0.1187 -0.7775
  212MOL0     C28512   4.871   1.895   3.528 -0.4633  0.4553  0.2465
  212MOL0     C28513   4.956   1.871   3.635 -0.0925  0.4864  0.0743
  212MOL0     C28514   5.110   1.873   3.628  0.0065 -1.2878  0.7046
  212MOL0     O28515   5.179   1.848   3.745  0.4534 -0.0888  0.2635
  212MOL0     C28516   5.319   1.847   3.728  0.1414 -0.4941 -0.2463
  212MOL0     C28517   5.396   1.959   3.693 -0.1609  0.3106  0.7792
  212MOL0     C28518   5.542   1.952   3.708  0.9277 -0.8053  0.3651
  212MOL0     C28519   5.603   1.845   3.774 -0.8146  0.4305  0.0819
  212MOL0     O28520   5.742   1.850   3.782 -0.0002 -0.2726 -0.5566
  212MOL0     C28521   5.817   1.733   3.826 -0.2547  0.1084 -0.3423
  212MOL0     C28522   5.970   1.753   3.803 -0.5911  0.0860  0.0926
  212MOL0     C28523   6.009   1.858   3.897  0.0822 -0.3152  0.0189
  212MOL0     C28524   6.158   1.889   3.865  0.8957 -0.3487  0.1583
  212MOL0     C28525   6.257   1.770   3.881  0.3624 -0.2279 -0.6175
  212MOL0     C28526   6.396   1.817   3.877 -0.0244  0.3984 -0.8671
  212MOL0     C28527   6.498   1.718   3.933  0.1409  0.5525  0.4782
  212MOL0     C28528   6.641   1.753   3.895 -0.4284  0.8219  0.2252
  212MOL0    Cl28529   6.702   1.906   3.953 -0.5617  0.0508  0.2769
  212MOL0     C28530   5.520   1.744   3.808 -0.1971  0.4262  0.1922
  212MOL0     C28531   5.380   1.743   3.788  0.2626  0.0719 -0.4907
  212MOL0     O28532   5.155   1.898   3.520 -1.0831  0.1954  0.0391
  212MOL0     C28533   4.894   1.828   3.751 -0.8059  1.4648 -0.7088
  212MOL0     C28534   4.761   1.816   3.768 -0.1691  0.0554  0.3789
  212MOL0     N28535   4.112   2.020   4.029  0.6695  0.0861  0.5526
  212MOL0     N28536   4.048   2.129   4.050 -0.0821 -0.0125 -0.3810
  212MOL0     C28537   2.888   1.740   4.027 -0.3098 -0.3636  0.5949
  212MOL0     C28538   2.780   1.664   4.061  0.9337 -0.3925  0.0116
  212MOL0     C28539   2.367   1.591   4.281  0.4565  0.1335 -0.5804
  212MOL0     C28540   2.275   1.627   4.185  0.6283  0.0056 -0.4891
  212MOL0     C28541   2.136   1.582   4.197  0.3437 -0.2889 -0.1008
  212MOL0     C28542   2.096   1.498   4.304  0.2411  0.0457  0.0253
  212MOL0     O28543   1.967   1.452   4.330  0.6076  0.5141  0.7154
  212MOL0     C28544   1.917   1.383   4.211 -0.0721  0.0944 -0.6888
  212MOL0     C28545   1.831   1.276   4.261 -0.3836 -0.1521 -0.0695
  212MOL0     C28546   1.745   1.207   4.153 -0.3499  0.1167 -0.1718
  212MOL0     C28547   1.633   1.299   4.096  0.0478 -0.8441 -0.4784
  212MOL0     C28548   1.567   1.229   3.982 -0.5014  0.1105  0.3044
  212MOL0     C28549   1.513   1.162   3.902 -0.4486  0.4563  0.5173
  212MOL0     C28550   2.188   1.461   4.396 -0.9414 -0.6100 -0.2207
  212MOL0     C28551   2.320   1.511   4.392  0.7193 -0.0618 -0.3142
  212MOL0     C28552   2.407   1.467   4.505 -0.1593 -0.4637 -0.5419
  212MOL0     H28553   2.580   1.936   4.115 -1.2816  0.0385 -3.4522
  212MOL0     H28554   2.764   2.050   4.043 -1.7148 -0.0199  0.8248
  212MOL0     H28555   2.930   2.136   3.933  1.0478 -0.7227 -0.4085
  212MOL0     H28556   2.997   2.137   4.089  3.5288 -0.8108  1.4487
  212MOL0     H28557   3.142   2.248   3.919 -0.3981  0.8351 -0.6551
  212MOL0     H28558   3.154   2.099   3.843 -0.1200 -1.7163  1.1121
  212MOL0     H28559   3.244   1.996   4.075 -0.5652 -1.1757 -3.4381
  212MOL0     H28560   3.256   2.166   4.130 -0.6146  0.4217  1.3862
  212MOL0     H28561   3.394   2.078   3.868  1.3267 -1.5386  0.1455
  212MOL0     H28562   3.423   2.219   3.967 -1.4005  0.5946  1.0577
  212MOL0     H28563   3.487   2.053   4.152 -0.0069 -2.1819  0.0534
  212MOL0     H28564   3.481   1.926   4.040 -0.7956  0.4467 -4.9203
  212MOL0     H28565   3.714   1.977   4.008  0.7003  1.1354 -1.4011
  212MOL0     H28566   3.650   2.070   3.884  3.3249  2.1614  0.7150
  212MOL0     H28567   3.749   2.171   4.145  1.4067 -0.9663 -1.2454
  212MOL0     H28568   3.637   2.266   4.044  1.3764  1.0039 -0.8878
  212MOL0     H28569   3.811   2.289   3.877 -1.0676  1.6371  1.6642
  212MOL0     H28570   3.886   2.313   4.028 -0.6051 -2.1350  1.1189
  212MOL0     H28571   3.897   2.011   3.776  0.5749 -1.2083  0.8256
  212MOL0     H28572   4.131   1.767   3.873 -3.7728 -0.5671 -0.4320
  212MOL0     H28573   4.063   1.833   3.741  0.4980 -0.3228  0.3345
  212MOL0     H28574   4.239   2.015   3.728  1.4334  0.2262  1.4816
  212MOL0     H28575   4.350   1.917   3.835 -0.2047 -1.7773 -0.0618
  212MOL0     H28576   4.237   1.838   3.564 -1.4041  1.9079  2.7639
  212MOL0     H28577   4.308   1.722   3.680  2.6759 -0.4528  0.5955
  212MOL0     H28578   4.434   1.972   3.569 -2.4634 -0.1159  1.4289
  212MOL0     H28579   4.467   1.810   3.498 -1.2359 -1.0418  0.7339
  212MOL0     H28580   4.672   1.918   3.455  2.2221 -0.8366 -2.9270
  212MOL0     H28581   4.921   1.912   3.433  0.7270  0.7227  0.8952
  212MOL0     H28582   5.346   2.049   3.660  2.6276  1.9396  0.7291
  212MOL0     H28583   5.593   2.043   3.681 -1.6990  0.3680 -0.9919
  212MOL0     H28584   5.792   1.714   3.931 -0.6925  2.2220 -0.0131
  212MOL0     H28585   5.790   1.645   3.768  0.5198 -0.3891  0.0459
  212MOL0     H28586   6.027   1.661   3.821  2.4801  1.5640 -1.2784
  212MOL0     H28587   5.991   1.782   3.699  0.7320 -2.7242 -0.5269
  212MOL0     H28588   5.963   1.953   3.870  0.0696 -0.7859 -1.7391
  212MOL0     H28589   5.983   1.823   3.998  0.1665 -0.9049 -0.1592
  212MOL0     H28590   6.197   1.970   3.928 -0.4469  1.6430 -1.4218
  212MOL0     H28591   6.167   1.911   3.758  0.3548 -0.6183  0.0527
  212MOL0     H28592   6.236   1.703   3.796 -0.3948  1.9736 -2.2776
  212MOL0     H28593   6.231   1.718   3.974  0.8697 -1.0278 -0.9136
  212MOL0     H28594   6.423   1.842   3.774 -0.3605 -4.1780 -2.2879
  212MOL0     H28595   6.413   1.907   3.937  1.6470  2.3563 -4.0061
  212MOL0     H28596   6.477   1.615   3.903 -0.9824  0.3546  1.8197
  212MOL0     H28597   6.486   1.714   4.041 -1.7260 -0.1926  0.2895
  212MOL0     H28598   6.707   1.676   3.936 -3.1219 -1.1273  1.1411
  212MOL0     H28599   6.654   1.745   3.786 -1.5985 -0.9941  0.1690
  212MOL0     H28600   5.563   1.656   3.855  0.8304  0.8375  0.0453
  212MOL0     H28601   5.318   1.666   3.834  1.1982 -0.2420  0.2930
  212MOL0     H28602   4.966   1.804   3.828  1.4526  0.6531 -2.9329
  212MOL0     H28603   4.714   1.773   3.856 -2.7945 -0.8261 -1.3244
  212MOL0     H28604   2.977   1.686   3.994 -1.2691 -0.6989 -1.6228
  212MOL0     H28605   2.785   1.556   4.064  2.7617 -0.4141 -1.4107
  212MOL0     H28606   2.308   1.680   4.096  1.5729  0.4121  0.0829
  212MOL0     H28607   2.066   1.594   4.116  0.3567 -1.4049 -0.2956
  212MOL0     H28608   1.995   1.336   4.150  1.5383  1.9381 -0.1379
  212MOL0     H28609   1.867   1.462   4.154 -0.6654  0.4469  0.2976
  212MOL0     H28610   1.768   1.304   4.345  0.2574 -1.0022  0.7231
  212MOL0     H28611   1.900   1.200   4.299  1.4912  1.7205  0.4357
  212MOL0     H28612   1.704   1.120   4.204  2.3161  0.0092  2.0321
  212MOL0     H28613   1.813   1.181   4.071  1.1008  3.8604 -0.3982
  212MOL0     H28614   1.562   1.324   4.175 -0.0933  1.7872 -1.3208
  212MOL0     H28615   1.677   1.396   4.069  0.1844 -0.8912 -0.4248
  212MOL0     H28616   1.476   1.092   3.829 -2.1383 -1.8290  3.3442
  212MOL0     H28617   2.146   1.412   4.483 -4.3510  2.6602  0.2256
  212MOL0     H28618   2.478   1.394   4.466  1.2857  1.2528 -1.3016
  212MOL0     H28619   2.459   1.551   4.554 -1.2165 -1.0990  1.7949
  212MOL0     H28620   2.355   1.413   4.584  0.5867  0.3941  0.5658
  213MOL0     O28621   2.937   3.653   5.432 -0.0043  0.0062  0.5274
  213MOL0     C28622   2.975   3.627   5.549  0.9282 -0.3763 -0.4289
  213MOL0     O28623   3.074   3.556   5.588  0.5932 -0.6631 -0.0197
  213MOL0     C28624   3.170   3.529   5.490  0.6718  0.0413 -0.2418
  213MOL0     C28625   3.176   3.398   5.441 -0.0547  0.6486 -0.3153
  213MOL0     C28626   3.272   3.367   5.351 -1.0421  0.3656  0.3244
  213MOL0     C28627   3.363   3.464   5.304 -0.7939 -0.1293 -1.0169
  213MOL0     O28628   3.455   3.433   5.210  0.4321  0.3088  0.6865
  213MOL0     C28629   3.569   3.363   5.254  1.1207 -0.3387 -0.5009
  213MOL0     C28630   3.682   3.393   5.148  0.2312  0.0370 -0.2690
  213MOL0     C28631   3.804   3.314   5.198 -0.1442  0.6245 -0.2161
  213MOL0     C28632   3.922   3.341   5.103 -0.1184 -0.0653 -0.4846
  213MOL0     C28633   4.058   3.262   5.137  0.6397 -0.6720 -1.3755
  213MOL0     C28634   4.051   3.103   5.142  0.5366 -0.2734 -0.0424
  213MOL0     C28635   4.182   3.041   5.181  1.0496 -0.2425  0.9923
  213MOL0     C28636   4.312   3.082   5.117  0.2948  1.3971  0.4159
  213MOL0     N28637   4.311   3.024   4.983 -0.4231  0.3222  0.1049
  213MOL0     C28638   4.284   3.087   4.869 -0.2113 -0.4198  0.4439
  213MOL0     C28639   4.300   2.998   4.775 -0.1395  0.3766  0.2711
  213MOL0     C28640   4.273   3.005   4.629  0.5118 -0.7630 -0.3235
  213MOL0     C28641   4.418   3.018   4.568 -0.0029  0.3571 -0.5744
  213MOL0     C28642   4.484   3.160   4.595  0.1794 -0.1639  0.0590
  213MOL0     C28643   4.620   3.147   4.517  0.0827  0.4039  0.6723
  213MOL0     O28644   4.604   3.167   4.371  0.3566 -0.6321  0.0033
  213MOL0     C28645   4.708   3.107   4.298  0.6835 -0.6592  0.4981
  213MOL0     C28646   4.736   2.966   4.290  0.0092 -0.5708  0.2009
  213MOL0     C28647   4.849   2.913   4.226 -0.2449 -0.0058  0.0391
  213MOL0     C28648   4.943   3.000   4.164  0.5514  0.0040  0.7523
  213MOL0     C28649   5.058   2.936   4.104  0.7736 -0.6397  0.1316
  213MOL0     O28650   5.064   2.799   4.095  0.7251  0.7589 -0.1009
  213MOL0     C28651   5.179   2.739   4.051  0.1336 -0.0360 -0.4239
  213MOL0     C28652   5.302   2.750   4.119 -0.5594  0.0877  0.0608
  213MOL0     C28653   5.420   2.695   4.067  0.0525  1.0521  0.5960
  213MOL0     C28654   5.421   2.632   3.944 -0.0007 -0.0380  0.2228
  213MOL0     O28655   5.538   2.584   3.879  0.0575 -1.2619 -0.3237
  213MOL0     C28656   5.657   2.647   3.921 -0.3670 -0.3981 -0.9499
  213MOL0     C28657   5.773   2.603   3.823 -0.3124  0.6229  0.4064
  213MOL0     C28658   5.889   2.704   3.840  0.8577  0.4895 -0.9445
  213MOL0     C28659   6.026   2.661   3.789  0.1827 -0.1978 -0.1990
  213MOL0     C28660   6.138   2.764   3.802 -0.5857 -0.0103  0.4387
  213MOL0     C28661   6.270   2.726   3.732 -0.2929  0.2381  0.1211
  213MOL0     C28662   6.372   2.833   3.710  1.0183  0.5402 -0.6714
  213MOL0     C28663   6.473   2.800   3.599  0.0084 -0.4577 -0.1932
  213MOL0    Cl28664   6.542   2.624   3.614  0.2300 -0.1461 -0.5838
  213MOL0     C28665   5.299   2.624   3.872 -0.5464  0.0247  0.3077
  213MOL0     C28666   5.178   2.679   3.923  0.6420  0.7144 -0.0982
  213MOL0     O28667   5.148   3.017   4.070  0.1623  0.1875  0.4609
  213MOL0     C28668   4.914   3.138   4.168 -0.7610 -0.6205  0.2136
  213MOL0     C28669   4.796   3.193   4.232  0.3803  0.0292 -0.3502
  213MOL0     N28670   4.345   2.888   4.844  0.4615  0.1220 -0.1634
  213MOL0     N28671   4.357   2.901   4.973  0.7478 -0.0171  0.0709
  213MOL0     C28672   3.342   3.597   5.344  0.0704  0.2203  0.1843
  213MOL0     C28673   3.252   3.635   5.443 -0.3377  0.9274  0.0496
  213MOL0     C28674   2.911   3.692   5.668  0.1295  0.1764  0.6795
  213MOL0     C28675   2.855   3.816   5.649  0.6675  0.2479 -0.1597
  213MOL0     C28676   2.791   3.887   5.749 -0.6820  0.0941  0.2706
  213MOL0     C28677   2.772   3.824   5.870  0.0699 -0.6808 -0.8459
  213MOL0     O28678   2.689   3.877   5.970 -0.1175  0.0934  0.2579
  213MOL0     C28679   2.598   3.985   5.943  0.5143 -0.4202 -0.8336
  213MOL0     C28680   2.676   4.121   5.956 -0.4377  0.1138 -0.1462
  213MOL0     C28681   2.740   4.136   6.092 -1.2283  0.4437 -0.0779
  213MOL0     C28682   2.642   4.158   6.198  0.0219 -0.3314  0.3221
  213MOL0     C28683   2.713   4.181   6.321  0.3999 -0.0042 -0.4082
  213MOL0     C28684   2.745   4.202   6.436  0.4539  0.7401 -0.1508
  213MOL0     C28685   2.832   3.701   5.900 -0.5194 -0.9003  0.8612
  213MOL0     C28686   2.899   3.633   5.796  1.3827  0.1717 -0.1585
  213MOL0     C28687   2.945   3.495   5.828  0.2077 -0.6470  0.0624
  213MOL0     H28688   3.107   3.325   5.482 -0.8631  1.8090  0.4390
  213MOL0     H28689   3.270   3.274   5.296  0.1034 -0.5288  1.6975
  213MOL0     H28690   3.602   3.406   5.349  2.0419 -0.7979 -0.6066
  213MOL0     H28691   3.550   3.256   5.269  0.4930 -0.2635 -0.7161
  213MOL0     H28692   3.717   3.497   5.151 -1.8492  0.8586  4.0378
  213MOL0     H28693   3.655   3.363   5.047 -0.3962 -1.1857  0.2411
  213MOL0     H28694   3.781   3.209   5.216  0.6072  0.7520  1.6961
  213MOL0     H28695   3.820   3.366   5.293  2.2925  1.4625 -1.0149
  213MOL0     H28696   3.893   3.303   5.004  2.7745 -0.9208 -1.0988
  213MOL0     H28697   3.933   3.450   5.096 -2.1863  0.2665  0.6191
  213MOL0     H28698   4.133   3.290   5.063 -1.1199 -1.8883 -3.7602
  213MOL0     H28699   4.089   3.307   5.232 -2.6169 -0.4834 -0.2877
  213MOL0     H28700   3.982   3.081   5.224  0.8117  0.6293  0.4517
  213MOL0     H28701   4.013   3.061   5.049  1.1433  0.7515 -0.7696
  213MOL0     H28702   4.166   2.934   5.169 -1.3651  0.1575 -0.1240
  213MOL0     H28703   4.198   3.060   5.287  3.3395  0.3600  0.5938
  213MOL0     H28704   4.336   3.189   5.116  0.4185  1.3913 -1.5424
  213MOL0     H28705   4.395   3.028   5.164 -0.7679 -1.1355 -0.4466
  213MOL0     H28706   4.233   3.180   4.845  0.6321 -0.6730 -2.7548
  213MOL0     H28707   4.208   2.927   4.589  0.0700  0.7676 -2.8505
  213MOL0     H28708   4.218   3.096   4.606  4.5276  1.7556 -0.9982
  213MOL0     H28709   4.478   2.934   4.604 -3.1685 -2.2936 -0.9066
  213MOL0     H28710   4.406   2.997   4.461 -1.9255 -0.4765 -0.2536
  213MOL0     H28711   4.506   3.168   4.702  2.0055 -1.5574 -0.1562
  213MOL0     H28712   4.411   3.238   4.572 -1.5745 -1.7654 -0.0635
  213MOL0     H28713   4.672   3.053   4.537  1.9781  0.5903 -2.6518
  213MOL0     H28714   4.688   3.223   4.556  3.1296 -2.3902  1.2037
  213MOL0     H28715   4.673   2.888   4.331  1.3455 -0.2576  3.0985
  213MOL0     H28716   4.867   2.807   4.241  0.7116  0.2172  0.5127
  213MOL0     H28717   5.310   2.799   4.216  2.2563 -0.9324  0.4494
  213MOL0     H28718   5.514   2.695   4.123  1.2636 -2.3985 -1.1664
  213MOL0     H28719   5.649   2.756   3.920 -1.8064 -0.4195  1.4192
  213MOL0     H28720   5.677   2.608   4.021 -0.9879 -1.2402 -1.1488
  213MOL0     H28721   5.808   2.503   3.851 -0.7471  0.8543  1.8643
  213MOL0     H28722   5.738   2.617   3.720 -0.1699  2.1990  0.5516
  213MOL0     H28723   5.870   2.801   3.795 -1.1468  0.1608 -0.8766
  213MOL0     H28724   5.896   2.717   3.949  1.4437  2.2829 -1.1624
  213MOL0     H28725   6.014   2.629   3.685  0.9425 -0.9882 -0.0517
  213MOL0     H28726   6.059   2.572   3.844 -2.0945 -2.2010 -1.8828
  213MOL0     H28727   6.166   2.777   3.907 -2.4365 -0.8867  1.0880
  213MOL0     H28728   6.100   2.852   3.749 -1.4819 -2.4259 -3.3468
  213MOL0     H28729   6.313   2.638   3.781 -0.2898 -0.5913 -1.3133
  213MOL0     H28730   6.229   2.704   3.633 -0.1490 -2.3017  0.5605
  213MOL0     H28731   6.416   2.851   3.808  0.0206  3.8943 -0.7015
  213MOL0     H28732   6.319   2.924   3.680  1.6599  0.9374 -0.6177
  213MOL0     H28733   6.416   2.811   3.506 -1.2275 -0.1737  0.5730
  213MOL0     H28734   6.551   2.877   3.602  0.8926 -1.3431 -0.0057
  213MOL0     H28735   5.299   2.587   3.770 -1.7437  0.1337  0.2458
  213MOL0     H28736   5.087   2.672   3.864  0.3281  0.7568  0.3731
  213MOL0     H28737   4.969   3.208   4.105 -1.9180 -0.7545 -0.9866
  213MOL0     H28738   4.777   3.299   4.247  1.1848 -0.1057  2.1264
  213MOL0     H28739   3.399   3.671   5.289  0.7709  0.1519  0.8128
  213MOL0     H28740   3.230   3.739   5.464  1.0107  1.7732 -2.3490
  213MOL0     H28741   2.854   3.861   5.551 -0.7166  0.2644 -0.1581
  213MOL0     H28742   2.763   3.987   5.717  1.5319 -0.0404 -2.5497
  213MOL0     H28743   2.523   3.996   6.022 -0.0812  1.1614 -1.5719
  213MOL0     H28744   2.548   3.979   5.846  0.0061  1.0960 -0.6926
  213MOL0     H28745   2.615   4.208   5.930 -0.9115 -0.0808  0.3113
  213MOL0     H28746   2.761   4.117   5.887 -0.6793  0.1066 -0.4461
  213MOL0     H28747   2.819   4.212   6.085  2.9664 -3.6113 -1.4415
  213MOL0     H28748   2.789   4.041   6.112  0.3148  1.2185 -0.0091
  213MOL0     H28749   2.572   4.240   6.180  2.9145  2.1744 -0.3980
  213MOL0     H28750   2.577   4.071   6.208  0.3611 -0.9278 -2.1676
  213MOL0     H28751   2.773   4.216   6.538  0.0686 -2.3104  0.4850
  213MOL0     H28752   2.814   3.659   5.998 -1.8962 -3.9703 -0.5852
  213MOL0     H28753   2.901   3.441   5.912  2.8913 -0.3720  1.7587
  213MOL0     H28754   2.929   3.429   5.742 -1.8485 -0.3618  0.1792
  213MOL0     H28755   3.050   3.511   5.855 -0.0762 -2.5595  2.7365
  214MOL0     O28756   0.332  10.294   1.898 -0.4263  1.1925 -0.6842
  214MOL0     C28757   0.257  10.332   1.812 -1.1722  0.5152 -0.8272
  214MOL0     O28758   0.295  10.365   1.692 -0.2769  0.1761  0.4516
  214MOL0     C28759   0.432  10.371   1.656  0.1349  0.5519  0.0025
  214MOL0     C28760   0.454  10.315   1.532  0.3623  0.1154  0.5880
  214MOL0     C28761   0.586  10.301   1.495 -0.2843  0.5955 -0.5051
  214MOL0     C28762   0.699  10.358   1.567  0.3752  0.6808 -0.1920
  214MOL0     O28763   0.826  10.335   1.515  0.4441 -0.0776 -0.0183
  214MOL0     C28764   0.938  10.419   1.562  0.2788 -0.5825  0.5088
  214MOL0     C28765   1.058  10.376   1.476  0.3016 -0.2958 -0.1295
  214MOL0     C28766   1.095  10.226   1.509 -0.6639  0.1121  0.3630
  214MOL0     C28767   1.211  10.208   1.616  0.1858 -0.1873  0.1393
  214MOL0     C28768   1.289  10.077   1.614 -0.6606  0.1984  0.0643
  214MOL0     C28769   1.376  10.061   1.494 -0.2755 -0.6749 -0.3259
  214MOL0     C28770   1.452   9.931   1.503 -0.0805  0.1878 -0.4733
  214MOL0     C28771   1.525   9.894   1.374  0.5596 -0.2541 -0.4416
  214MOL0     N28772   1.635   9.979   1.356  0.0874 -0.7766  0.3714
  214MOL0     C28773   1.615  10.088   1.274 -0.1622 -0.4064  0.4059
  214MOL0     C28774   1.737  10.142   1.259  0.5865  0.7903  0.1710
  214MOL0     C28775   1.746  10.245   1.155 -0.0626 -0.3564  0.7107
  214MOL0     C28776   1.898  10.287   1.130 -0.5884  0.0606 -0.8083
  214MOL0     C28777   1.904  10.402   1.022 -0.2137  0.9102  0.7666
  214MOL0     C28778   2.047  10.424   0.952 -0.3834 -0.1442 -1.5721
  214MOL0     O28779   2.132  10.483   1.054  0.4529 -0.0719 -0.4031
  214MOL0     C28780   2.262  10.456   1.040  0.0263  0.1376  0.1887
  214MOL0     C28781   2.320  10.464   0.912 -0.6284  0.1760 -0.6936
  214MOL0     C28782   2.455  10.453   0.898 -0.1322 -0.2480  0.5585
  214MOL0     C28783   2.548  10.441   1.005  0.5281  0.6523 -0.0546
  214MOL0     C28784   2.688  10.429   0.974  0.3488  0.2851 -0.6279
  214MOL0     O28785   2.720  10.433   0.847  0.0645  0.1162 -0.5892
  214MOL0     C28786   2.849  10.411   0.792  0.5569 -0.6825  1.2050
  214MOL0     C28787   2.967  10.367   0.843  0.3608 -0.3088 -0.6184
  214MOL0     C28788   3.083  10.340   0.761  0.3886  0.1884 -0.5800
  214MOL0     C28789   3.079  10.352   0.623 -0.3874 -0.4914 -0.0803
  214MOL0     O28790   3.179  10.300   0.542  0.2962 -0.1346  0.2493
  214MOL0     C28791   3.274  10.209   0.600  0.8058 -0.9584  0.0473
  214MOL0     C28792   3.384  10.170   0.511  0.2404  0.4830  0.0007
  214MOL0     C28793   3.492  10.276   0.502  0.6079 -0.4306 -0.1382
  214MOL0     C28794   3.616  10.230   0.436  0.4503 -0.4419 -0.3447
  214MOL0     C28795   3.727  10.338   0.452  0.2274 -0.8997  0.6707
  214MOL0     C28796   3.857  10.295   0.386  0.6742 -0.3916 -0.5889
  214MOL0     C28797   3.981  10.370   0.418  0.9595  0.1480 -0.0136
  214MOL0     C28798   4.015  10.374   0.563  0.2055 -0.0067 -0.2594
  214MOL0    Cl28799   4.202  10.386   0.590  0.4297 -0.4987 -0.0962
  214MOL0     C28800   2.957  10.397   0.568  0.4060 -0.2888 -0.8532
  214MOL0     C28801   2.848  10.429   0.653 -0.3968 -0.0609  1.0529
  214MOL0     O28802   2.764  10.398   1.069 -0.5118 -0.1928  0.2708
  214MOL0     C28803   2.490  10.439   1.132  0.4606 -0.3574  0.3049
  214MOL0     C28804   2.352  10.451   1.149  0.3593 -0.1287 -0.4963
  214MOL0     N28805   1.834  10.059   1.310  0.1499  0.2436 -1.2471
  214MOL0     N28806   1.771   9.957   1.370 -0.1969  0.1228 -0.1595
  214MOL0     C28807   0.669  10.426   1.687 -0.1029 -0.3483  0.1877
  214MOL0     C28808   0.533  10.429   1.736 -0.1631  0.1518  0.5234
  214MOL0     C28809   0.111  10.328   1.842 -0.5611  0.4395 -0.3191
  214MOL0     C28810   0.029  10.393   1.748  0.2120  0.6561 -0.4380
  214MOL0     C28811  -0.108  10.405   1.767 -0.0238 -0.2339 -0.3444
  214MOL0     C28812  -0.168  10.363   1.884  0.2569 -0.1437  0.5175
  214MOL0     O28813  -0.302  10.395   1.896  0.0387  0.0100 -0.5314
  214MOL0     C28814  -0.361  10.373   2.028 -0.1297 -0.2426 -0.0289
  214MOL0     C28815  -0.499  10.437   2.029  0.3268 -0.7574 -0.0141
  214MOL0     C28816  -0.520  10.588   1.978 -0.3374  0.4867 -0.5943
  214MOL0     C28817  -0.499  10.688   2.087 -0.6092  0.2483  0.8902
  214MOL0     C28818  -0.609  10.677   2.186 -0.0447  0.4122 -0.9254
  214MOL0     C28819  -0.717  10.665   2.247  0.1958  0.5619  0.0770
  214MOL0     C28820  -0.087  10.296   1.976 -0.7807  0.6595  0.5028
  214MOL0     C28821   0.048  10.271   1.959 -0.6303 -0.2385 -0.1603
  214MOL0     C28822   0.126  10.206   2.072  0.3968  0.4475 -0.2478
  214MOL0     H28823   0.367  10.275   1.482 -0.4907  2.1066  0.4006
  214MOL0     H28824   0.598  10.251   1.400 -1.4585  1.0778 -0.9288
  214MOL0     H28825   0.913  10.524   1.552  0.0273 -0.3701  2.7402
  214MOL0     H28826   0.946  10.405   1.671  0.3418  1.7977  0.8536
  214MOL0     H28827   1.143  10.444   1.491  2.5120 -2.8444 -0.4619
  214MOL0     H28828   1.036  10.380   1.369  2.4480 -0.8084 -0.6303
  214MOL0     H28829   1.141  10.207   1.412  1.6723  1.0116  1.2355
  214MOL0     H28830   1.022  10.144   1.512  1.5832 -2.0885 -1.1589
  214MOL0     H28831   1.283  10.290   1.608  1.9049 -1.8157 -2.4318
  214MOL0     H28832   1.165  10.228   1.713 -1.7244  0.3049 -0.8231
  214MOL0     H28833   1.342  10.057   1.708 -2.4850  1.6327  1.4662
  214MOL0     H28834   1.220   9.993   1.604  0.3646 -0.6540 -0.1519
  214MOL0     H28835   1.304  10.070   1.411 -1.5461 -0.9307  0.7202
  214MOL0     H28836   1.440  10.148   1.477 -1.0999 -0.3367 -1.9835
  214MOL0     H28837   1.389   9.845   1.529 -2.4894  1.9591 -0.0979
  214MOL0     H28838   1.520   9.942   1.588 -1.1274  1.9042  0.2010
  214MOL0     H28839   1.561   9.791   1.385  0.0769 -0.4750 -0.8838
  214MOL0     H28840   1.458   9.874   1.290  0.4496 -0.7120 -0.2495
  214MOL0     H28841   1.521  10.124   1.233  0.2907  0.5608  0.1874
  214MOL0     H28842   1.717  10.213   1.054  2.5383 -0.9563  0.0795
  214MOL0     H28843   1.691  10.332   1.190 -2.0840 -1.3047  0.0894
  214MOL0     H28844   1.943  10.318   1.224  0.7555 -0.4723 -1.2585
  214MOL0     H28845   1.948  10.195   1.098 -1.4898 -0.9995  0.7404
  214MOL0     H28846   1.885  10.496   1.074 -2.4107  0.5435  0.7159
  214MOL0     H28847   1.828  10.374   0.948  0.9908  1.3155 -0.6842
  214MOL0     H28848   2.051  10.483   0.860  1.9297 -1.4270 -2.3729
  214MOL0     H28849   2.090  10.333   0.909 -0.6482 -0.2140 -1.6876
  214MOL0     H28850   2.258  10.480   0.824 -1.1453  2.7273  0.0432
  214MOL0     H28851   2.486  10.464   0.794  0.4274 -0.9851  0.6393
  214MOL0     H28852   2.994  10.352   0.947 -0.5973  1.3988 -0.0776
  214MOL0     H28853   3.167  10.294   0.811 -0.1926 -0.1331  0.1149
  214MOL0     H28854   3.320  10.252   0.690 -0.0113 -0.4849  0.2487
  214MOL0     H28855   3.217  10.120   0.629 -2.0265  0.6638 -0.1477
  214MOL0     H28856   3.420  10.074   0.548 -1.2955 -0.5816 -1.1403
  214MOL0     H28857   3.334  10.147   0.416  0.2252  0.4993  0.0048
  214MOL0     H28858   3.458  10.374   0.468 -0.0788 -0.6692 -0.1712
  214MOL0     H28859   3.527  10.295   0.604 -1.0568 -3.5223  1.1515
  214MOL0     H28860   3.591  10.209   0.331 -3.6926 -1.0824  0.6041
  214MOL0     H28861   3.642  10.136   0.487  1.5659 -1.3210 -2.3852
  214MOL0     H28862   3.743  10.353   0.559  2.7676  1.6716  0.0547
  214MOL0     H28863   3.690  10.430   0.405 -0.2928  1.3194  4.9110
  214MOL0     H28864   3.870  10.191   0.416  1.1383 -0.8242 -2.2332
  214MOL0     H28865   3.856  10.298   0.277  0.4786 -2.7611 -0.6855
  214MOL0     H28866   3.972  10.470   0.375 -1.1814 -0.2202 -0.4951
  214MOL0     H28867   4.056  10.314   0.360 -1.6968 -2.0214 -1.5859
  214MOL0     H28868   3.966  10.462   0.604 -0.1766 -0.3204 -0.0342
  214MOL0     H28869   3.977  10.285   0.614  0.8443  0.9510  2.0121
  214MOL0     H28870   2.953  10.415   0.460  2.0243 -0.5183 -0.9660
  214MOL0     H28871   2.760  10.461   0.598  1.3998  3.1289 -0.2472
  214MOL0     H28872   2.555  10.445   1.219  2.1852  0.0720 -0.9568
  214MOL0     H28873   2.309  10.466   1.248 -0.3314 -0.3690 -0.7558
  214MOL0     H28874   0.744  10.455   1.759  1.2586 -0.8830 -0.9757
  214MOL0     H28875   0.497  10.462   1.833  1.4320  3.2678  0.2008
  214MOL0     H28876   0.071  10.447   1.664 -3.8966 -0.6543 -3.6751
  214MOL0     H28877  -0.168  10.470   1.704  1.6339  0.6261 -1.0985
  214MOL0     H28878  -0.299  10.410   2.110 -0.4788  1.0139 -0.2999
  214MOL0     H28879  -0.378  10.265   2.037  1.2799 -0.5145 -0.4140
  214MOL0     H28880  -0.546  10.428   2.127  1.5750 -1.3298  0.5589
  214MOL0     H28881  -0.559  10.384   1.955 -0.0120  0.4800 -0.6420
  214MOL0     H28882  -0.617  10.609   1.932 -1.2595  0.4668  1.2435
  214MOL0     H28883  -0.443  10.608   1.903  2.4457  2.2266  2.4514
  214MOL0     H28884  -0.399  10.675   2.130  1.5485  3.1723 -2.6408
  214MOL0     H28885  -0.507  10.791   2.050 -0.1490  0.0663  0.2720
  214MOL0     H28886  -0.805  10.659   2.307 -1.8830  0.5133 -2.7570
  214MOL0     H28887  -0.129  10.245   2.062 -2.3358  0.5469 -0.2741
  214MOL0     H28888   0.150  10.281   2.147 -1.3999 -1.2801  2.2311
  214MOL0     H28889   0.062  10.132   2.121  0.3748  0.8552  0.3504
  214MOL0     H28890   0.217  10.152   2.044 -0.5040 -2.6613  2.1725
  215MOL0     O28891   2.326   2.660   7.892 -0.0004  0.3582  0.0611
  215MOL0     C28892   2.267   2.595   7.979  0.1739  0.4562 -0.0369
  215MOL0     O28893   2.332   2.542   8.088  0.0384  0.2484  1.1448
  215MOL0     C28894   2.459   2.592   8.109  0.1885  0.2083  0.1157
  215MOL0     C28895   2.482   2.724   8.162 -0.3516  0.2736 -0.2017
  215MOL0     C28896   2.603   2.776   8.199  0.0746 -0.7732 -0.3455
  215MOL0     C28897   2.717   2.705   8.172 -0.3238  0.1250  0.4966
  215MOL0     O28898   2.855   2.743   8.200  0.3409  0.3841  0.0068
  215MOL0     C28899   2.873   2.875   8.260  0.0390  1.2749 -0.0494
  215MOL0     C28900   3.020   2.904   8.289  0.7116 -0.3083  0.5903
  215MOL0     C28901   3.110   2.841   8.179 -0.1227 -0.0010 -0.1721
  215MOL0     C28902   3.248   2.918   8.171  0.3992  0.0831  0.0100
  215MOL0     C28903   3.343   2.857   8.075 -1.1097  0.7448 -0.5523
  215MOL0     C28904   3.460   2.947   8.035 -1.2271  0.5190 -0.5336
  215MOL0     C28905   3.561   2.872   7.937  0.1594 -0.4056  0.7434
  215MOL0     C28906   3.646   2.983   7.867 -0.2930  0.2132 -0.5367
  215MOL0     N28907   3.741   3.045   7.952 -0.4427 -0.0889 -0.3758
  215MOL0     C28908   3.824   2.987   8.052 -0.1928  0.0003 -0.6100
  215MOL0     C28909   3.902   3.088   8.103 -0.4985 -0.0249  0.9943
  215MOL0     C28910   4.023   3.092   8.194  0.0792  0.1946  0.1442
  215MOL0     C28911   4.122   2.988   8.141 -0.6077  0.3526  0.2703
  215MOL0     C28912   4.153   2.993   7.990 -0.3623 -0.9200  0.1264
  215MOL0     C28913   4.268   2.904   7.959  0.1557 -0.4235  0.9928
  215MOL0     O28914   4.396   2.962   7.985  0.3702 -0.3093 -0.5119
  215MOL0     C28915   4.512   2.888   7.961  0.1802  0.2770  0.0240
  215MOL0     C28916   4.505   2.757   7.909  0.0292 -0.0865 -0.3554
  215MOL0     C28917   4.632   2.694   7.869  0.1934 -0.3976  0.2909
  215MOL0     C28918   4.752   2.764   7.892  1.0468  0.0019 -0.2277
  215MOL0     C28919   4.872   2.700   7.847 -0.4015  0.1827  0.6631
  215MOL0     O28920   4.863   2.561   7.815  0.1104  0.3038  1.0916
  215MOL0     C28921   4.991   2.510   7.774  0.1293  0.0981  0.3205
  215MOL0     C28922   5.014   2.505   7.639 -0.4094 -0.0802 -0.2648
  215MOL0     C28923   5.139   2.468   7.591  0.0172 -0.0023 -0.5415
  215MOL0     C28924   5.247   2.431   7.673  1.3361 -0.9851  0.8836
  215MOL0     O28925   5.366   2.395   7.609  0.1230 -0.3023  0.1563
  215MOL0     C28926   5.484   2.363   7.682 -1.4239  0.3098  0.1229
  215MOL0     C28927   5.579   2.287   7.581 -0.5835 -0.7392  0.1090
  215MOL0     C28928   5.722   2.305   7.629 -0.0473  0.8054  0.8960
  215MOL0     C28929   5.818   2.219   7.539 -0.2547  0.0827 -0.3445
  215MOL0     C28930   5.964   2.236   7.578 -0.7276 -0.1799 -0.5887
  215MOL0     C28931   5.986   2.195   7.723  0.0098 -0.1432  0.2343
  215MOL0     C28932   6.131   2.182   7.763 -0.2034  0.0257  0.9058
  215MOL0     C28933   6.194   2.315   7.792 -0.5609 -1.2662 -0.5422
  215MOL0    Cl28934   6.131   2.397   7.934  0.2635 -0.1269  0.1743
  215MOL0     C28935   5.210   2.409   7.812  0.1344 -0.3742 -0.8158
  215MOL0     C28936   5.087   2.457   7.860 -0.3533  0.2433  0.9232
  215MOL0     O28937   4.976   2.757   7.862  0.3390 -0.7909 -0.9171
  215MOL0     C28938   4.756   2.898   7.945  0.2395  0.6966 -0.4367
  215MOL0     C28939   4.632   2.944   7.992 -0.1357 -1.0277 -0.9643
  215MOL0     N28940   3.858   3.210   8.044  0.4441  0.3117 -0.7438
  215MOL0     N28941   3.755   3.181   7.969  0.4713 -0.2291  0.4880
  215MOL0     C28942   2.703   2.579   8.114 -0.2691 -0.5630 -0.0546
  215MOL0     C28943   2.575   2.521   8.079 -0.2045  0.7107 -0.1345
  215MOL0     C28944   2.134   2.551   7.963 -0.6459 -0.8208  0.1990
  215MOL0     C28945   2.065   2.503   8.076 -0.3375 -0.4994 -0.1696
  215MOL0     C28946   1.946   2.445   8.065  0.8421  0.0446 -0.0372
  215MOL0     C28947   1.875   2.439   7.937 -0.4504  0.2870 -1.1940
  215MOL0     O28948   1.760   2.363   7.922  0.0866 -0.6897 -0.6276
  215MOL0     C28949   1.656   2.381   8.020  0.1121 -0.8273  0.4468
  215MOL0     C28950   1.517   2.319   7.976  0.5379  0.1022 -0.8813
  215MOL0     C28951   1.467   2.375   7.843 -0.3636 -0.4075  0.2184
  215MOL0     C28952   1.462   2.260   7.737  0.3254 -0.1059 -0.2562
  215MOL0     C28953   1.355   2.164   7.779  0.1951  1.0893  0.0198
  215MOL0     C28954   1.276   2.073   7.804  0.6090  0.3162 -0.4712
  215MOL0     C28955   1.950   2.482   7.832  0.6554 -0.0208 -0.6718
  215MOL0     C28956   2.073   2.544   7.835  0.0322  0.2204  1.0181
  215MOL0     C28957   2.135   2.564   7.702 -0.0625 -0.2377  0.8639
  215MOL0     H28958   2.394   2.782   8.189  0.2290  0.2106  2.0161
  215MOL0     H28959   2.608   2.877   8.239  0.9201 -1.8962  2.6790
  215MOL0     H28960   2.835   2.945   8.185 -1.7435  1.4193  0.9216
  215MOL0     H28961   2.818   2.888   8.354  1.1964  1.7441  0.5838
  215MOL0     H28962   3.055   2.852   8.379  0.6530 -1.1778  0.1248
  215MOL0     H28963   3.025   3.012   8.301  0.4805 -0.3263  0.8576
  215MOL0     H28964   3.053   2.851   8.087 -1.3494  0.2502  0.5888
  215MOL0     H28965   3.130   2.737   8.205  0.2408 -0.5454 -2.4455
  215MOL0     H28966   3.234   3.024   8.152  0.6033 -0.0195 -0.7568
  215MOL0     H28967   3.294   2.907   8.270  0.1705 -0.9538  0.0161
  215MOL0     H28968   3.389   2.767   8.117  2.7250  3.4681  1.7869
  215MOL0     H28969   3.287   2.833   7.985 -0.4300 -0.1491 -0.7423
  215MOL0     H28970   3.418   3.042   7.998 -2.0821  0.6953  0.8116
  215MOL0     H28971   3.523   2.969   8.121  1.9599 -2.0276 -2.0288
  215MOL0     H28972   3.500   2.825   7.858 -0.1370  0.9353  0.1462
  215MOL0     H28973   3.634   2.803   7.980  2.3961  1.9773  0.9620
  215MOL0     H28974   3.690   2.948   7.773 -1.1314  0.1232 -0.8981
  215MOL0     H28975   3.589   3.071   7.838  1.1277  0.1775 -3.8889
  215MOL0     H28976   3.841   2.880   8.063 -0.2841  0.0064 -0.4124
  215MOL0     H28977   4.068   3.192   8.197 -1.8594  1.0902  0.9675
  215MOL0     H28978   3.996   3.061   8.295 -0.4028  0.3725  0.0735
  215MOL0     H28979   4.209   3.006   8.205  1.2691  0.3430 -2.1122
  215MOL0     H28980   4.092   2.886   8.166  2.9117 -0.3049  2.5251
  215MOL0     H28981   4.179   3.095   7.961 -1.8276 -0.1509  1.3684
  215MOL0     H28982   4.059   2.974   7.937 -0.3904  0.8033 -0.5164
  215MOL0     H28983   4.274   2.884   7.851  2.0408 -1.3738  1.2380
  215MOL0     H28984   4.262   2.811   8.015  0.1968 -1.1454 -0.1555
  215MOL0     H28985   4.411   2.705   7.892  0.5004 -1.6696  1.4992
  215MOL0     H28986   4.636   2.606   7.806  0.2514  1.3883 -2.4108
  215MOL0     H28987   4.939   2.530   7.564 -2.3043  0.4951  1.7083
  215MOL0     H28988   5.150   2.468   7.483 -1.7605 -0.5554 -0.7513
  215MOL0     H28989   5.545   2.449   7.712  1.0743 -1.0741 -0.7321
  215MOL0     H28990   5.456   2.303   7.769 -2.0561  2.8080  1.7593
  215MOL0     H28991   5.550   2.181   7.583  0.3849 -1.0179 -0.1727
  215MOL0     H28992   5.555   2.322   7.480 -3.2054 -0.5380  0.7416
  215MOL0     H28993   5.763   2.407   7.626 -0.0530  0.8469  1.9129
  215MOL0     H28994   5.737   2.264   7.729  0.9888 -3.1637 -0.7049
  215MOL0     H28995   5.810   2.242   7.433  2.7676 -3.3668 -1.5556
  215MOL0     H28996   5.801   2.112   7.555  4.0910 -0.5781  1.2865
  215MOL0     H28997   5.984   2.341   7.556 -0.2513 -0.1152  0.1446
  215MOL0     H28998   6.023   2.164   7.519  0.9194  1.0892 -0.5644
  215MOL0     H28999   5.953   2.280   7.784  0.5899 -0.3260  0.8064
  215MOL0     H29000   5.918   2.112   7.746 -2.4904  1.8875  0.6110
  215MOL0     H29001   6.185   2.130   7.683  0.0724  0.4277  0.8259
  215MOL0     H29002   6.127   2.124   7.856 -1.1840  0.0475  0.8913
  215MOL0     H29003   6.303   2.303   7.796  0.1771  3.7055  0.1454
  215MOL0     H29004   6.195   2.382   7.706 -0.2155 -0.0530  0.3690
  215MOL0     H29005   5.277   2.380   7.892 -1.2415  0.8322  0.8477
  215MOL0     H29006   5.075   2.441   7.967 -0.5260 -0.4222  0.8039
  215MOL0     H29007   4.848   2.951   7.968  0.3160  1.2089 -1.8389
  215MOL0     H29008   4.623   3.038   8.046 -0.1622 -2.3108  1.4322
  215MOL0     H29009   2.790   2.519   8.087  1.5314  1.8407  0.1377
  215MOL0     H29010   2.571   2.436   8.011 -2.3529 -0.6869  1.6274
  215MOL0     H29011   2.099   2.496   8.179 -1.7401 -1.6571  0.2344
  215MOL0     H29012   1.899   2.401   8.152  0.2692 -0.0089 -0.3625
  215MOL0     H29013   1.640   2.488   8.038 -0.2684 -1.1326  2.0050
  215MOL0     H29014   1.688   2.332   8.112 -0.8823 -0.8994  0.7604
  215MOL0     H29015   1.434   2.331   8.047  1.2848 -0.4528  0.1108
  215MOL0     H29016   1.533   2.211   7.968 -0.7414 -0.2232  0.4485
  215MOL0     H29017   1.524   2.460   7.803 -1.0061 -0.8318 -1.6842
  215MOL0     H29018   1.369   2.420   7.859 -1.3888 -2.5943  0.4409
  215MOL0     H29019   1.424   2.294   7.640  0.8606  2.5296  0.3780
  215MOL0     H29020   1.563   2.221   7.724  1.2801  2.2340 -0.2867
  215MOL0     H29021   1.209   1.990   7.820  0.1595  1.0696  1.8385
  215MOL0     H29022   1.886   2.485   7.745 -1.6967  0.8444  0.9963
  215MOL0     H29023   2.147   2.672   7.690  1.7540 -0.1880  2.5386
  215MOL0     H29024   2.229   2.509   7.688  0.6321  1.5127 -2.2120
  215MOL0     H29025   2.073   2.520   7.623  1.6471  0.4272 -0.9230
  216MOL0     O29026   2.082   2.592   5.300 -0.2097  0.4421 -0.5330
  216MOL0     C29027   2.055   2.523   5.201 -0.4688 -0.1925 -0.2434
  216MOL0     O29028   2.133   2.508   5.086 -0.6346 -0.6872 -0.3279
  216MOL0     C29029   2.260   2.561   5.087  1.1347  0.0291  0.2194
  216MOL0     C29030   2.353   2.501   5.173  0.4858  0.3748  0.4472
  216MOL0     C29031   2.492   2.523   5.165 -0.2340  0.1423  1.1633
  216MOL0     C29032   2.537   2.609   5.054 -0.0945 -1.1655 -0.5900
  216MOL0     O29033   2.663   2.656   5.036 -0.1937 -0.3129 -0.8266
  216MOL0     C29034   2.757   2.621   5.142 -0.7005  0.0482 -0.2820
  216MOL0     C29035   2.901   2.661   5.097  0.3279 -0.4151 -0.3982
  216MOL0     C29036   2.955   2.577   4.985 -0.6995 -0.4985  0.3986
  216MOL0     C29037   3.087   2.626   4.917  0.0599  0.3200  0.1447
  216MOL0     C29038   3.131   2.517   4.816  0.0781 -0.1229  0.0492
  216MOL0     C29039   3.272   2.550   4.764  0.0164  0.1576  0.6477
  216MOL0     C29040   3.285   2.463   4.645 -0.0001 -0.3108  0.2468
  216MOL0     C29041   3.267   2.317   4.676 -0.6764 -0.1503  0.2374
  216MOL0     N29042   3.309   2.224   4.569  0.4291 -0.4371 -0.2278
  216MOL0     C29043   3.334   2.094   4.599  0.5581 -0.0955  0.4169
  216MOL0     C29044   3.393   2.041   4.488  0.6351  0.7139  0.3169
  216MOL0     C29045   3.470   1.909   4.475  0.6178 -0.1252 -0.6369
  216MOL0     C29046   3.613   1.928   4.443  0.0969 -0.0110  0.2019
  216MOL0     C29047   3.677   1.799   4.390  0.2764 -0.0534 -0.5825
  216MOL0     C29048   3.825   1.789   4.373  0.1492 -0.8456 -0.0072
  216MOL0     O29049   3.859   1.656   4.335 -0.3032  0.1826  0.2450
  216MOL0     C29050   3.981   1.612   4.283  0.1954 -0.4742 -0.7538
  216MOL0     C29051   4.007   1.480   4.267  0.5444  0.1665  1.0529
  216MOL0     C29052   4.121   1.434   4.205  0.7110  1.0565  0.3244
  216MOL0     C29053   4.217   1.522   4.161 -0.1246 -0.1982 -0.5740
  216MOL0     C29054   4.340   1.470   4.105  0.5608 -0.5106  0.2752
  216MOL0     O29055   4.404   1.553   4.020  0.2948 -0.3339  0.1349
  216MOL0     C29056   4.522   1.522   3.957  0.0836 -0.6430 -0.3268
  216MOL0     C29057   4.625   1.483   4.042  0.0639  0.7722 -0.4958
  216MOL0     C29058   4.740   1.432   3.984 -0.0174  0.1526  0.0301
  216MOL0     C29059   4.762   1.433   3.845  0.4035  0.1653  0.2689
  216MOL0     O29060   4.891   1.390   3.810  0.7213  0.5228  0.0852
  216MOL0     C29061   4.942   1.453   3.690 -0.0182  0.4179 -0.2685
  216MOL0     C29062   5.091   1.446   3.705  0.7880  0.3093 -0.2406
  216MOL0     C29063   5.141   1.457   3.561 -0.1067  0.6986 -0.6135
  216MOL0     C29064   5.290   1.480   3.569 -0.0112  0.2457  0.6285
  216MOL0     C29065   5.345   1.502   3.425  0.3210  0.8475  0.8458
  216MOL0     C29066   5.499   1.515   3.419  0.0904  0.2631 -0.1994
  216MOL0     C29067   5.542   1.658   3.443  0.7397  0.2108  0.5774
  216MOL0     C29068   5.695   1.657   3.475 -0.1907  0.3070 -0.0616
  216MOL0    Cl29069   5.787   1.616   3.327  0.0139  0.1741 -0.0807
  216MOL0     C29070   4.660   1.472   3.756 -0.6487 -0.3863 -0.1166
  216MOL0     C29071   4.535   1.507   3.812  0.2355 -0.4672 -0.4078
  216MOL0     O29072   4.371   1.348   4.119 -0.6098 -0.0684 -0.4155
  216MOL0     C29073   4.190   1.663   4.169  0.0426  0.2072  0.5109
  216MOL0     C29074   4.079   1.706   4.236  0.1606  0.5846  0.0042
  216MOL0     N29075   3.390   2.143   4.390 -0.2132 -0.1800  0.5185
  216MOL0     N29076   3.335   2.247   4.433  0.5427 -0.2223 -0.4952
  216MOL0     C29077   2.448   2.670   4.966  1.0225  0.7146 -0.4425
  216MOL0     C29078   2.308   2.653   4.986 -0.4561  0.8858 -0.0160
  216MOL0     C29079   1.928   2.443   5.196 -0.4470 -0.3207  0.8278
  216MOL0     C29080   1.931   2.318   5.145  0.6763  0.0598 -0.0657
  216MOL0     C29081   1.815   2.236   5.143  0.3514  1.0335  0.1175
  216MOL0     C29082   1.691   2.280   5.184  0.2107 -0.2741 -0.1245
  216MOL0     O29083   1.582   2.189   5.164  0.2603 -0.3162 -0.5385
  216MOL0     C29084   1.456   2.234   5.212  0.6510  0.9252 -0.1387
  216MOL0     C29085   1.338   2.140   5.194 -0.1397 -0.2812  0.8040
  216MOL0     C29086   1.370   1.992   5.227 -0.5775  0.1992 -0.4052
  216MOL0     C29087   1.250   1.907   5.205 -0.7435  0.6238  0.4577
  216MOL0     C29088   1.286   1.768   5.230  0.0989 -1.4986 -0.3590
  216MOL0     C29089   1.313   1.650   5.245  0.0301  0.6456  0.7861
  216MOL0     C29090   1.688   2.417   5.236 -0.1225  0.2959  0.5293
  216MOL0     C29091   1.807   2.495   5.238 -0.5941  0.2579 -0.0159
  216MOL0     C29092   1.787   2.637   5.295 -0.4190 -1.0128 -0.0760
  216MOL0     H29093   2.307   2.432   5.242  4.0809  1.5696  4.4585
  216MOL0     H29094   2.554   2.489   5.247 -0.7512  1.0036  1.9375
  216MOL0     H29095   2.726   2.673   5.234 -4.8581 -0.5177 -1.1514
  216MOL0     H29096   2.748   2.514   5.161 -1.7865  0.3201  0.9484
  216MOL0     H29097   2.967   2.652   5.184  0.7963 -0.0485 -0.7081
  216MOL0     H29098   2.894   2.769   5.083  1.6381 -0.0648  1.3192
  216MOL0     H29099   2.873   2.568   4.913 -2.3235  1.3411  1.9076
  216MOL0     H29100   2.979   2.475   5.016  0.1120 -0.2763  0.5194
  216MOL0     H29101   3.069   2.721   4.867 -0.9302 -1.6665 -3.7404
  216MOL0     H29102   3.169   2.633   4.989  2.1618 -1.5885 -1.9003
  216MOL0     H29103   3.132   2.422   4.870  1.0941  1.9528  4.0555
  216MOL0     H29104   3.054   2.511   4.739  1.9643  0.7928 -2.0163
  216MOL0     H29105   3.277   2.655   4.737  3.2261 -0.3485 -1.2205
  216MOL0     H29106   3.346   2.531   4.842  1.3747 -0.4669 -0.7568
  216MOL0     H29107   3.392   2.472   4.626 -0.1554  2.9175  0.3207
  216MOL0     H29108   3.244   2.493   4.549  0.7295 -0.1360 -0.0196
  216MOL0     H29109   3.316   2.284   4.768  3.4423  0.9806 -1.3057
  216MOL0     H29110   3.164   2.283   4.688 -0.2449 -2.2731 -1.5586
  216MOL0     H29111   3.332   2.043   4.695  1.4291  0.7504  0.9022
  216MOL0     H29112   3.459   1.850   4.567 -0.2347  1.3299  0.2443
  216MOL0     H29113   3.418   1.854   4.396 -1.7601  1.4585 -0.2921
  216MOL0     H29114   3.626   2.005   4.366  1.2940  2.0408  2.2992
  216MOL0     H29115   3.675   1.954   4.530  1.1016  0.5286 -0.6431
  216MOL0     H29116   3.631   1.766   4.297 -1.1120  0.9070 -0.2642
  216MOL0     H29117   3.645   1.718   4.456  1.3939 -1.1878 -1.3858
  216MOL0     H29118   3.880   1.817   4.463  0.0188 -0.3455 -0.0759
  216MOL0     H29119   3.852   1.860   4.294 -3.9581  2.4914  1.1748
  216MOL0     H29120   3.934   1.414   4.311 -1.9358  2.4014  0.5416
  216MOL0     H29121   4.134   1.326   4.206  1.0247  1.0886  1.6070
  216MOL0     H29122   4.609   1.494   4.149 -2.3028  1.1360 -0.8221
  216MOL0     H29123   4.812   1.375   4.043  1.6524  2.2953  0.2072
  216MOL0     H29124   4.909   1.397   3.602  1.1983 -1.1322  0.2103
  216MOL0     H29125   4.913   1.558   3.678  0.8631  1.1926  3.2366
  216MOL0     H29126   5.129   1.527   3.769  1.8165 -0.0104 -0.4310
  216MOL0     H29127   5.112   1.352   3.757 -0.1669  1.3966  2.2833
  216MOL0     H29128   5.113   1.360   3.520 -0.8684  0.4085  0.5504
  216MOL0     H29129   5.091   1.538   3.506 -1.2285  0.0581 -0.5632
  216MOL0     H29130   5.332   1.387   3.609 -0.9840 -1.9008 -2.8394
  216MOL0     H29131   5.305   1.565   3.635  0.4894 -0.1675  1.0569
  216MOL0     H29132   5.299   1.593   3.386  1.6210  2.1839  2.2622
  216MOL0     H29133   5.319   1.420   3.358  0.2538  1.7273 -0.2256
  216MOL0     H29134   5.533   1.449   3.499 -1.0216 -1.0254 -0.7582
  216MOL0     H29135   5.540   1.478   3.325 -3.4223  1.0200 -2.2248
  216MOL0     H29136   5.484   1.697   3.528  2.8056  3.1743  0.8027
  216MOL0     H29137   5.509   1.721   3.360 -0.9871 -1.9078 -0.4309
  216MOL0     H29138   5.726   1.756   3.510 -0.0760  0.0835  0.4788
  216MOL0     H29139   5.728   1.594   3.558 -2.6114  2.2517  2.5822
  216MOL0     H29140   4.671   1.463   3.648 -0.4282  1.2012 -0.2430
  216MOL0     H29141   4.448   1.540   3.757 -1.9717  0.2246  3.1696
  216MOL0     H29142   4.258   1.737   4.128 -0.3614 -0.4325 -1.4537
  216MOL0     H29143   4.063   1.813   4.238 -2.6510  0.2268  0.5215
  216MOL0     H29144   2.486   2.730   4.884  1.6108  2.1352  0.8203
  216MOL0     H29145   2.236   2.686   4.911 -1.6929 -1.2291  0.1594
  216MOL0     H29146   2.024   2.275   5.109  2.1783  2.3695  0.8078
  216MOL0     H29147   1.832   2.135   5.108  0.2487  1.3252 -0.8076
  216MOL0     H29148   1.425   2.317   5.147  1.7699  1.8265  0.4441
  216MOL0     H29149   1.460   2.275   5.314 -0.7889  1.2299 -0.1748
  216MOL0     H29150   1.303   2.145   5.091  1.4323 -2.3101  0.1264
  216MOL0     H29151   1.249   2.175   5.248 -2.3343 -0.1806 -2.6227
  216MOL0     H29152   1.404   1.990   5.331 -0.4874  0.0169 -0.4371
  216MOL0     H29153   1.446   1.954   5.158  0.5307  1.0617  0.3127
  216MOL0     H29154   1.178   1.946   5.277  2.4970  1.7315  3.3548
  216MOL0     H29155   1.200   1.902   5.108 -3.2731 -2.7679  1.7226
  216MOL0     H29156   1.334   1.545   5.250 -1.4554  0.3570  1.3142
  216MOL0     H29157   1.592   2.463   5.255  0.0246  0.2362  1.4962
  216MOL0     H29158   1.835   2.704   5.223  0.2840 -3.3921 -1.9240
  216MOL0     H29159   1.683   2.673   5.292 -0.0036  0.1798 -1.4378
  216MOL0     H29160   1.822   2.655   5.397 -0.6316 -1.2848  0.0445
  217MOL0     O29161   0.035   3.805   4.872  0.0625  0.1578 -0.2874
  217MOL0     C29162   0.076   3.730   4.789  0.6083  0.3276 -0.8093
  217MOL0     O29163   0.197   3.744   4.731  0.7102  0.2230  0.3700
  217MOL0     C29164   0.282   3.849   4.754 -0.3175  0.1601  0.3357
  217MOL0     C29165   0.250   3.981   4.740 -0.4906 -0.0239 -0.2505
  217MOL0     C29166   0.348   4.080   4.757  0.0080  0.1459 -0.9927
  217MOL0     C29167   0.484   4.048   4.788 -0.2065 -0.3282 -1.2077
  217MOL0     O29168   0.574   4.149   4.786 -0.1386  0.6642 -0.3097
  217MOL0     C29169   0.625   4.166   4.654  0.1535  0.2057  0.4017
  217MOL0     C29170   0.690   4.307   4.630 -0.4277  0.3935  0.0954
  217MOL0     C29171   0.820   4.336   4.712  0.5631 -0.5233  0.0804
  217MOL0     C29172   0.892   4.466   4.656  0.4204  0.4977 -0.1343
  217MOL0     C29173   0.988   4.528   4.755  0.3520 -0.2016  0.2026
  217MOL0     C29174   0.918   4.624   4.849 -0.3067 -0.4998  0.0736
  217MOL0     C29175   1.012   4.700   4.945  0.7833 -0.5466  0.2792
  217MOL0     C29176   1.048   4.614   5.067 -0.8101  0.6385 -1.1929
  217MOL0     N29177   1.145   4.683   5.154  0.0127  0.4011  0.8122
  217MOL0     C29178   1.282   4.656   5.143  0.2060 -0.3536  0.8900
  217MOL0     C29179   1.353   4.710   5.246 -0.3390 -0.2803 -0.0452
  217MOL0     C29180   1.496   4.694   5.280 -0.1477  0.2559  0.1956
  217MOL0     C29181   1.553   4.815   5.347  0.1286 -0.8158 -0.8341
  217MOL0     C29182   1.486   4.833   5.490  0.1001 -0.1352 -0.4271
  217MOL0     C29183   1.593   4.907   5.575  0.5316 -0.9843 -0.1410
  217MOL0     O29184   1.692   4.812   5.594  0.4548 -0.1335 -0.7190
  217MOL0     C29185   1.819   4.873   5.601  0.3059  0.4244 -0.5440
  217MOL0     C29186   1.855   4.996   5.660  1.1737  0.5149  0.6428
  217MOL0     C29187   1.987   5.036   5.681 -0.2512 -1.0378  0.3863
  217MOL0     C29188   2.093   4.951   5.655  1.0936 -0.3100 -0.5963
  217MOL0     C29189   2.234   4.974   5.688  0.2831 -0.1064 -0.6172
  217MOL0     O29190   2.329   4.874   5.658  0.1113 -0.0669 -0.5979
  217MOL0     C29191   2.461   4.885   5.700 -0.1469 -0.6918  0.3221
  217MOL0     C29192   2.523   4.960   5.812 -0.0242  0.0346  1.1081
  217MOL0     C29193   2.661   4.972   5.828  0.4807 -0.2640  0.4841
  217MOL0     C29194   2.742   4.885   5.757 -0.3482  0.7351  0.2664
  217MOL0     O29195   2.879   4.899   5.769  0.3268 -0.0628 -0.4283
  217MOL0     C29196   2.973   4.798   5.713  0.6132 -0.0189 -0.0031
  217MOL0     C29197   3.121   4.845   5.722  0.0519 -0.2630 -0.3815
  217MOL0     C29198   3.217   4.725   5.729  0.1503  0.1369 -0.8602
  217MOL0     C29199   3.203   4.634   5.610 -0.5072  0.6325 -0.2696
  217MOL0     C29200   3.339   4.574   5.566  0.0197  0.2061 -0.3474
  217MOL0     C29201   3.334   4.443   5.490  0.0868 -0.3125  0.3529
  217MOL0     C29202   3.467   4.390   5.430 -0.2909 -0.4180  0.4338
  217MOL0     C29203   3.439   4.281   5.317 -0.0109 -0.8219  0.1493
  217MOL0    Cl29204   3.413   4.126   5.386 -0.2167 -0.0384 -0.4140
  217MOL0     C29205   2.687   4.796   5.659  0.4979  0.8370  0.1938
  217MOL0     C29206   2.553   4.801   5.634  0.5201  0.2929 -1.2384
  217MOL0     O29207   2.268   5.083   5.734  0.2143  0.0378 -0.5441
  217MOL0     C29208   2.053   4.827   5.611 -0.4246  0.3735 -0.4840
  217MOL0     C29209   1.920   4.788   5.582 -1.1023 -0.1007  0.3116
  217MOL0     N29210   1.257   4.777   5.319  0.2480 -0.2398 -0.5314
  217MOL0     N29211   1.136   4.760   5.270 -0.1235 -0.3514  0.2076
  217MOL0     C29212   0.517   3.913   4.812 -0.1052  0.5228  0.1710
  217MOL0     C29213   0.414   3.821   4.790  0.4384 -0.4849 -0.4339
  217MOL0     C29214  -0.031   3.643   4.722 -0.0222 -0.4033  0.8560
  217MOL0     C29215   0.013   3.573   4.606 -0.4081  0.7619 -0.3089
  217MOL0     C29216  -0.080   3.505   4.524  0.4719 -0.0229 -0.8865
  217MOL0     C29217  -0.213   3.490   4.571 -0.4090  0.7024  0.3628
  217MOL0     O29218  -0.299   3.431   4.487  0.4641  0.1901  0.3515
  217MOL0     C29219  -0.421   3.384   4.550  0.0207  0.8290  0.3505
  217MOL0     C29220  -0.477   3.286   4.458  0.0659 -0.4294 -0.4085
  217MOL0     C29221  -0.587   3.203   4.533  0.2130 -0.1358  0.2985
  217MOL0     C29222  -0.666   3.110   4.442  0.2270 -0.0851  0.7794
  217MOL0     C29223  -0.745   3.181   4.335 -0.2004 -0.0180 -0.0163
  217MOL0     C29224  -0.819   3.240   4.260  0.3407  0.3074 -0.4758
  217MOL0     C29225  -0.250   3.548   4.693 -0.1638  0.3892  0.1401
  217MOL0     C29226  -0.166   3.625   4.771 -0.0448 -0.0003 -0.7213
  217MOL0     C29227  -0.219   3.678   4.907 -0.1611  0.6400  0.4927
  217MOL0     H29228   0.151   4.011   4.707  0.4207  0.9719 -2.2404
  217MOL0     H29229   0.318   4.184   4.748 -3.2226 -0.6353 -0.5337
  217MOL0     H29230   0.693   4.085   4.629  0.5416  0.2400  1.3102
  217MOL0     H29231   0.543   4.160   4.582  1.3146 -3.2094 -0.8521
  217MOL0     H29232   0.610   4.380   4.639 -0.6496 -0.0560  2.0789
  217MOL0     H29233   0.716   4.296   4.524 -2.2348 -0.6064 -0.2808
  217MOL0     H29234   0.887   4.252   4.691  1.0390  0.2617 -1.7763
  217MOL0     H29235   0.780   4.345   4.813 -0.5642 -0.1447 -0.3837
  217MOL0     H29236   0.958   4.434   4.575 -3.5394 -0.7861 -3.2206
  217MOL0     H29237   0.816   4.531   4.611 -0.6081 -1.6408 -1.6603
  217MOL0     H29238   1.050   4.452   4.804  2.2422 -0.0868 -1.8842
  217MOL0     H29239   1.060   4.585   4.696  2.6367 -2.7955  0.2667
  217MOL0     H29240   0.873   4.698   4.783 -0.5024 -1.7064 -1.1853
  217MOL0     H29241   0.845   4.576   4.916  0.3605  0.8940  1.9081
  217MOL0     H29242   0.956   4.788   4.977  1.2181  0.8345 -2.4645
  217MOL0     H29243   1.097   4.734   4.885  0.6099 -2.5045 -1.1655
  217MOL0     H29244   0.960   4.588   5.127 -1.8964  0.9990 -2.5916
  217MOL0     H29245   1.093   4.521   5.034 -0.4310  0.7872 -1.1053
  217MOL0     H29246   1.325   4.587   5.072  1.8229  0.1430  1.3355
  217MOL0     H29247   1.499   4.602   5.340 -1.1129 -0.4432 -0.7952
  217MOL0     H29248   1.556   4.683   5.190 -2.1031  0.8885 -1.2510
  217MOL0     H29249   1.661   4.803   5.354 -0.0915 -2.0324  1.3478
  217MOL0     H29250   1.535   4.908   5.293  1.7654 -0.0213 -0.0793
  217MOL0     H29251   1.466   4.736   5.536 -2.8304  0.0822 -1.0909
  217MOL0     H29252   1.392   4.888   5.494  1.1546  1.7023 -0.0769
  217MOL0     H29253   1.549   4.942   5.669 -0.5399  0.7177 -1.2036
  217MOL0     H29254   1.626   5.003   5.533 -2.1730 -0.3950 -1.0958
  217MOL0     H29255   1.789   5.074   5.697  3.9456  2.6046  1.5377
  217MOL0     H29256   1.997   5.133   5.728  1.2022 -0.4147 -1.1084
  217MOL0     H29257   2.455   5.022   5.870 -0.9367  1.2303 -1.1275
  217MOL0     H29258   2.704   5.048   5.892  0.3325 -0.8919  1.3564
  217MOL0     H29259   2.969   4.710   5.777 -0.3942  0.3872  0.5130
  217MOL0     H29260   2.966   4.767   5.608  4.0842 -3.2880  0.5123
  217MOL0     H29261   3.142   4.916   5.641  1.0296 -0.5287 -0.3638
  217MOL0     H29262   3.129   4.903   5.814  0.6849 -0.9887  0.0339
  217MOL0     H29263   3.318   4.766   5.728  0.5207 -0.3884  2.8587
  217MOL0     H29264   3.212   4.666   5.821  5.5414  1.5566  0.6922
  217MOL0     H29265   3.153   4.676   5.522  0.1532  0.8263 -0.5572
  217MOL0     H29266   3.130   4.558   5.639 -1.4136  1.0925 -1.2647
  217MOL0     H29267   3.400   4.550   5.653  0.5218 -1.3457 -1.0758
  217MOL0     H29268   3.387   4.646   5.500 -0.5998  0.1112 -0.9257
  217MOL0     H29269   3.301   4.371   5.565  3.0335 -0.4983  1.6137
  217MOL0     H29270   3.264   4.447   5.407  1.1097  4.6059 -0.5990
  217MOL0     H29271   3.527   4.339   5.506  1.4986  1.4915  0.3907
  217MOL0     H29272   3.526   4.468   5.382 -0.2139  0.0941  1.3467
  217MOL0     H29273   3.360   4.311   5.248  2.2151  3.1034 -1.0358
  217MOL0     H29274   3.526   4.275   5.250  2.0689  3.2333  2.0832
  217MOL0     H29275   2.746   4.724   5.604 -2.2511 -0.7579 -0.8947
  217MOL0     H29276   2.526   4.724   5.563  2.3257 -0.6264 -0.9837
  217MOL0     H29277   2.126   4.748   5.593 -1.7715 -0.4844 -2.5865
  217MOL0     H29278   1.909   4.682   5.558 -0.9000 -0.8259  3.0600
  217MOL0     H29279   0.614   3.879   4.845 -0.2760 -1.0716 -0.8540
  217MOL0     H29280   0.438   3.716   4.806  1.2473 -0.6439 -2.3975
  217MOL0     H29281   0.118   3.573   4.576 -0.0491 -0.2535  0.8577
  217MOL0     H29282  -0.035   3.459   4.437  1.6802 -0.3768 -0.0945
  217MOL0     H29283  -0.497   3.459   4.572  0.4213  1.5461 -0.6399
  217MOL0     H29284  -0.403   3.313   4.632 -1.3246 -1.4992 -1.2578
  217MOL0     H29285  -0.396   3.221   4.423  2.1173  0.9532  1.5928
  217MOL0     H29286  -0.517   3.347   4.376 -0.0832  0.4584  0.3192
  217MOL0     H29287  -0.659   3.274   4.573 -1.5803 -0.9246 -1.3540
  217MOL0     H29288  -0.543   3.142   4.613 -0.5844 -2.0476 -0.6564
  217MOL0     H29289  -0.592   3.042   4.398  2.0422  1.9169  0.5366
  217MOL0     H29290  -0.726   3.044   4.505  3.8276 -4.8227 -0.1262
  217MOL0     H29291  -0.876   3.298   4.191  0.7464  3.3941  1.5889
  217MOL0     H29292  -0.347   3.522   4.736 -1.2932  1.6063 -1.5459
  217MOL0     H29293  -0.320   3.642   4.926 -0.5400  2.0630  1.3208
  217MOL0     H29294  -0.148   3.652   4.987  0.4359  1.8424  0.3704
  217MOL0     H29295  -0.213   3.787   4.911  0.7668  0.6117  0.1504
  218MOL0     O29296   3.793   2.857   5.913 -0.1568  0.1363 -0.3846
  218MOL0     C29297   3.845   2.874   6.027 -0.2258  1.2046  0.5033
  218MOL0     O29298   3.979   2.851   6.054 -0.6205  0.4745 -0.3349
  218MOL0     C29299   4.064   2.815   5.950  0.3548  0.4600 -0.3240
  218MOL0     C29300   4.146   2.912   5.888 -0.1091 -0.0836  0.1267
  218MOL0     C29301   4.235   2.876   5.787 -0.0103  0.3994 -0.7265
  218MOL0     C29302   4.256   2.741   5.749 -0.2593  1.1152  0.4724
  218MOL0     O29303   4.338   2.705   5.637 -0.7791  0.3235  0.3694
  218MOL0     C29304   4.406   2.808   5.548 -0.2368 -0.2999 -0.4872
  218MOL0     C29305   4.502   2.739   5.460 -0.3872  0.0344 -0.3054
  218MOL0     C29306   4.588   2.832   5.379 -0.8012 -0.3767  0.1626
  218MOL0     C29307   4.714   2.759   5.323 -0.0196  0.1975 -0.2788
  218MOL0     C29308   4.802   2.845   5.244  0.0578  0.0904  0.2012
  218MOL0     C29309   4.761   2.900   5.116 -0.6600 -0.3076  0.7672
  218MOL0     C29310   4.728   2.798   5.013 -0.2613 -0.0372  0.1347
  218MOL0     C29311   4.698   2.878   4.878  0.5387  0.7720  1.2597
  218MOL0     N29312   4.696   2.781   4.767 -0.1686 -0.1151 -0.6950
  218MOL0     C29313   4.782   2.771   4.660 -0.1226  0.0982  0.5638
  218MOL0     C29314   4.735   2.659   4.590 -0.3594 -0.9696  0.2261
  218MOL0     C29315   4.793   2.604   4.474  0.5110 -0.2198  0.3111
  218MOL0     C29316   4.935   2.558   4.478  1.0185  0.4878 -0.1208
  218MOL0     C29317   5.005   2.538   4.346  0.4672 -0.4185  0.9585
  218MOL0     C29318   5.148   2.491   4.356 -0.1436 -0.2355  0.0670
  218MOL0     O29319   5.227   2.592   4.424  0.3676  0.2199 -0.4108
  218MOL0     C29320   5.363   2.587   4.425  0.5680  0.6156 -0.8344
  218MOL0     C29321   5.437   2.475   4.390  0.6330 -0.1496  0.0725
  218MOL0     C29322   5.574   2.480   4.378 -0.0223 -1.2779  0.7495
  218MOL0     C29323   5.649   2.602   4.397  0.8470  0.6880 -0.6878
  218MOL0     C29324   5.792   2.602   4.394 -0.4339  1.1731  0.8180
  218MOL0     O29325   5.849   2.481   4.400  0.3202 -0.3756 -0.0217
  218MOL0     C29326   5.983   2.476   4.367  0.5648 -0.7542 -0.2496
  218MOL0     C29327   6.015   2.516   4.231  0.8203 -0.9052 -0.2645
  218MOL0     C29328   6.145   2.484   4.185 -1.2073 -0.0107 -0.1357
  218MOL0     C29329   6.237   2.415   4.268 -0.7929  0.9481 -0.0989
  218MOL0     O29330   6.361   2.381   4.207 -0.2197  0.2194 -0.4515
  218MOL0     C29331   6.459   2.305   4.277  0.7882  0.1270  0.3933
  218MOL0     C29332   6.546   2.223   4.183  0.2801 -0.2299  1.0497
  218MOL0     C29333   6.651   2.296   4.098 -0.8417 -0.1502 -0.3452
  218MOL0     C29334   6.778   2.342   4.181  0.0394  0.2308  0.0330
  218MOL0     C29335   6.841   2.217   4.257 -0.2733 -0.2458  0.0820
  218MOL0     C29336   6.989   2.242   4.287 -0.1309 -0.5493 -0.0600
  218MOL0     C29337   7.042   2.127   4.362 -0.0223  0.0695  0.2216
  218MOL0     C29338   7.179   2.163   4.426  0.1176 -0.4489  0.2618
  218MOL0    Cl29339   7.236   2.017   4.520 -0.1790  0.3384  0.0794
  218MOL0     C29340   6.200   2.381   4.403 -0.2909 -0.7993  0.0290
  218MOL0     C29341   6.070   2.418   4.450  0.4056  0.2681 -0.2776
  218MOL0     O29342   5.852   2.711   4.373  0.1805 -0.0025 -0.1732
  218MOL0     C29343   5.575   2.718   4.428 -0.3883 -0.2646 -0.1046
  218MOL0     C29344   5.436   2.705   4.443  0.1100 -0.7085  0.6229
  218MOL0     N29345   4.627   2.612   4.658  0.8074 -0.2967  0.0443
  218MOL0     N29346   4.603   2.680   4.763 -0.2859 -0.7123 -0.4669
  218MOL0     C29347   4.173   2.643   5.815 -0.6733 -0.2719  0.2995
  218MOL0     C29348   4.078   2.682   5.907  0.4122  0.0187  0.1040
  218MOL0     C29349   3.762   2.923   6.144  0.6196 -0.0738  0.8995
  218MOL0     C29350   3.829   2.966   6.257 -0.1288  0.3364  0.8181
  218MOL0     C29351   3.767   3.020   6.369 -0.9990  1.8998  0.8367
  218MOL0     C29352   3.632   3.048   6.358 -0.8765  0.1266 -0.8021
  218MOL0     O29353   3.553   3.081   6.469  0.2774  0.6040  0.4205
  218MOL0     C29354   3.610   3.111   6.594 -0.1687  0.3852  0.4788
  218MOL0     C29355   3.510   3.182   6.689  0.0684  0.7308 -0.0342
  218MOL0     C29356   3.462   3.319   6.646  0.0332 -0.6387 -1.1666
  218MOL0     C29357   3.361   3.375   6.744  0.0463 -0.3818 -0.2769
  218MOL0     C29358   3.318   3.513   6.720 -1.0811  0.6688  0.3170
  218MOL0     C29359   3.290   3.625   6.712  0.0589  0.1680  0.6697
  218MOL0     C29360   3.567   3.009   6.248  0.1025 -0.3174 -0.7988
  218MOL0     C29361   3.626   2.949   6.137  0.3428  0.7446 -0.7485
  218MOL0     C29362   3.529   2.895   6.041  0.9075  0.1314  0.4058
  218MOL0     H29363   4.142   3.015   5.922  0.0120 -0.1287  0.2795
  218MOL0     H29364   4.290   2.956   5.738  1.1690  1.1436  1.6789
  218MOL0     H29365   4.321   2.848   5.493  0.5175 -0.5096 -1.8530
  218MOL0     H29366   4.459   2.882   5.609 -1.6160  1.0959 -0.9230
  218MOL0     H29367   4.449   2.667   5.397  1.3857 -0.7387 -0.9895
  218MOL0     H29368   4.561   2.678   5.530  1.8941  2.1813 -0.2198
  218MOL0     H29369   4.631   2.907   5.446  0.7308 -1.3514  0.3298
  218MOL0     H29370   4.536   2.886   5.300 -1.8313 -1.2645  0.2206
  218MOL0     H29371   4.766   2.723   5.412  0.4368 -0.1783 -0.6918
  218MOL0     H29372   4.689   2.672   5.262 -0.5456  1.0517 -1.3267
  218MOL0     H29373   4.824   2.934   5.306 -4.7295  1.1019  0.8042
  218MOL0     H29374   4.900   2.797   5.235  1.1130  2.3175 -1.1394
  218MOL0     H29375   4.672   2.962   5.132 -2.0347 -1.8569 -0.5170
  218MOL0     H29376   4.843   2.965   5.083 -0.9495 -1.6747 -3.1162
  218MOL0     H29377   4.645   2.738   5.054  0.6726 -1.8571 -0.5157
  218MOL0     H29378   4.816   2.736   4.994 -2.0908 -2.6163 -0.5145
  218MOL0     H29379   4.601   2.924   4.900 -0.5605 -0.7106 -0.1560
  218MOL0     H29380   4.769   2.955   4.847  0.5376  0.2772 -0.0265
  218MOL0     H29381   4.869   2.831   4.634 -1.3553  2.3333  1.3227
  218MOL0     H29382   4.732   2.517   4.447  2.3405 -1.7268  0.7551
  218MOL0     H29383   4.778   2.678   4.395 -0.5995  1.3197  1.8763
  218MOL0     H29384   4.986   2.639   4.531 -1.2509  1.1756  1.1568
  218MOL0     H29385   4.948   2.464   4.532 -3.2199 -0.5335 -0.5569
  218MOL0     H29386   5.005   2.637   4.300 -0.9673 -0.0387  1.7207
  218MOL0     H29387   4.948   2.470   4.282  0.9809 -0.7632  0.8636
  218MOL0     H29388   5.180   2.471   4.253 -1.5080  0.4025 -0.5008
  218MOL0     H29389   5.152   2.394   4.407 -1.7935  0.3615  1.4165
  218MOL0     H29390   5.389   2.377   4.397  1.5478 -0.4931  2.6301
  218MOL0     H29391   5.635   2.391   4.369  5.4834  1.8618  2.1214
  218MOL0     H29392   5.939   2.558   4.166  0.4341 -3.0223 -1.2807
  218MOL0     H29393   6.161   2.507   4.080  0.4243 -2.9169 -0.6407
  218MOL0     H29394   6.514   2.379   4.337 -1.6223  2.7140 -0.3676
  218MOL0     H29395   6.409   2.230   4.339 -2.4116  1.6702 -0.1422
  218MOL0     H29396   6.602   2.139   4.225  2.5940 -0.4236 -2.0579
  218MOL0     H29397   6.479   2.179   4.109 -1.6688  0.0778  2.5505
  218MOL0     H29398   6.698   2.223   4.031  0.5410  1.0593 -0.7470
  218MOL0     H29399   6.607   2.373   4.035 -0.5095  1.5696  1.4392
  218MOL0     H29400   6.754   2.416   4.258  1.1163 -0.1312  0.7486
  218MOL0     H29401   6.852   2.386   4.113 -0.7554 -0.3153 -1.2051
  218MOL0     H29402   6.833   2.124   4.200  1.2405 -0.0865 -0.4357
  218MOL0     H29403   6.788   2.195   4.350  1.6507 -0.5048  1.1587
  218MOL0     H29404   7.042   2.256   4.192  0.1413  2.5859  0.4747
  218MOL0     H29405   6.997   2.333   4.347 -1.4754 -1.6644  1.9391
  218MOL0     H29406   7.062   2.042   4.295 -0.0391  0.8665 -0.8155
  218MOL0     H29407   6.972   2.091   4.438  2.0769  0.3553  2.4315
  218MOL0     H29408   7.254   2.175   4.347  2.4046 -3.5885  1.7170
  218MOL0     H29409   7.172   2.248   4.495 -1.2542 -3.0325  3.6037
  218MOL0     H29410   6.273   2.335   4.469  0.4599  1.4076  0.8682
  218MOL0     H29411   6.029   2.384   4.544 -0.9805  1.2021 -0.5037
  218MOL0     H29412   5.624   2.811   4.454  0.7439 -0.4442 -1.4771
  218MOL0     H29413   5.362   2.779   4.471 -0.0383 -0.5059 -0.2804
  218MOL0     H29414   4.197   2.546   5.774  1.5839  0.9192 -1.3911
  218MOL0     H29415   4.006   2.614   5.950 -0.9863  2.9145  2.7580
  218MOL0     H29416   3.937   2.957   6.251  0.1703  3.7106 -2.4513
  218MOL0     H29417   3.818   3.025   6.464 -1.3125 -0.5669  1.2060
  218MOL0     H29418   3.701   3.171   6.580 -0.2281  0.8195  1.7822
  218MOL0     H29419   3.639   3.017   6.643 -1.8200  0.1173  0.9920
  218MOL0     H29420   3.558   3.193   6.787 -0.8591 -0.6415  0.6003
  218MOL0     H29421   3.421   3.119   6.702 -2.5027  3.5550 -2.4254
  218MOL0     H29422   3.400   3.320   6.555 -1.3763 -0.4100 -0.2466
  218MOL0     H29423   3.547   3.388   6.642 -0.6824  0.5476  1.4668
  218MOL0     H29424   3.270   3.315   6.748 -0.9628  1.1609  2.6055
  218MOL0     H29425   3.414   3.370   6.839  4.3792 -0.2094 -2.4286
  218MOL0     H29426   3.288   3.732   6.711  0.8911  0.1932  1.0358
  218MOL0     H29427   3.461   3.033   6.237 -0.0268 -1.4172 -2.2123
  218MOL0     H29428   3.550   2.789   6.024 -0.3739 -0.1195  0.2915
  218MOL0     H29429   3.424   2.903   6.071  0.8517 -0.2442  0.3199
  218MOL0     H29430   3.539   2.937   5.941 -1.3899 -2.3876 -1.0326
  219MOL0     O29431   1.760   9.906   6.628  0.1186  0.3447 -0.3119
  219MOL0     C29432   1.728   9.963   6.523 -0.1682  0.0489 -0.5911
  219MOL0     O29433   1.801  10.058   6.458 -0.6744  0.2979  0.4878
  219MOL0     C29434   1.926  10.092   6.514 -0.4935  0.5473  0.6045
  219MOL0     C29435   1.960  10.210   6.576  0.7878  0.2868  0.5832
  219MOL0     C29436   2.078  10.233   6.637 -0.5039 -0.3866  0.5254
  219MOL0     C29437   2.182  10.147   6.645  0.1307  1.2065  0.1114
  219MOL0     O29438   2.295  10.188   6.720  0.0224 -0.4163 -0.3593
  219MOL0     C29439   2.415  10.107   6.705  0.5311 -0.8186 -0.6705
  219MOL0     C29440   2.522  10.205   6.719  0.2036 -0.8425  0.3494
  219MOL0     C29441   2.665  10.128   6.708 -0.5910 -0.4887  0.4297
  219MOL0     C29442   2.696  10.094   6.557 -0.3798 -0.7286 -0.2286
  219MOL0     C29443   2.818   9.990   6.549  0.1340 -0.1973 -0.2243
  219MOL0     C29444   2.847   9.945   6.408 -0.5700  0.7078 -0.5706
  219MOL0     C29445   2.935  10.042   6.322  0.1836  0.7379  0.0405
  219MOL0     C29446   2.892  10.037   6.175 -0.6634  0.0410  0.1819
  219MOL0     N29447   2.978  10.134   6.098 -0.1399  0.3963 -0.2521
  219MOL0     C29448   3.073  10.111   5.999  0.1306  0.2117  0.9030
  219MOL0     C29449   3.147  10.226   6.000  0.1259 -0.1344 -0.3577
  219MOL0     C29450   3.248  10.259   5.893  0.7637 -0.4423  0.5352
  219MOL0     C29451   3.365  10.348   5.927  0.0429 -1.0618 -0.8602
  219MOL0     C29452   3.482  10.339   5.834  0.3126 -0.7363  0.1721
  219MOL0     C29453   3.617  10.359   5.903  0.0098 -0.7747 -0.3147
  219MOL0     O29454   3.636  10.502   5.932  0.0578 -0.6047  0.2123
  219MOL0     C29455   3.764  10.542   5.940  0.0739 -0.5357 -0.5024
  219MOL0     C29456   3.864  10.454   6.000 -0.0556 -1.0532  0.5311
  219MOL0     C29457   3.992  10.504   6.020 -0.0223  0.0317  0.5210
  219MOL0     C29458   4.028  10.630   5.986 -0.4694 -0.3158  0.6341
  219MOL0     C29459   4.172  10.676   6.006 -0.0427 -0.7153 -0.3225
  219MOL0     O29460   4.267  10.587   6.065  0.0470 -0.5301  0.3232
  219MOL0     C29461   4.402  10.614   6.065 -0.1252 -1.0657 -0.2571
  219MOL0     C29462   4.467  10.679   5.956  0.2513 -0.1327 -0.1134
  219MOL0     C29463   4.607  10.694   5.957  0.3329 -0.4183 -0.1416
  219MOL0     C29464   4.685  10.662   6.060  0.1046 -0.6051  0.3580
  219MOL0     O29465   4.817  10.684   6.055 -0.3257  0.3395 -0.1190
  219MOL0     C29466   4.879  10.694   5.925 -1.0039  0.0438 -0.4034
  219MOL0     C29467   5.028  10.688   5.942  0.2415  0.8222  0.0749
  219MOL0     C29468   5.095  10.698   5.807 -0.4115  0.1204  0.0840
  219MOL0     C29469   5.246  10.718   5.834  0.5489 -0.2497  0.4542
  219MOL0     C29470   5.337  10.732   5.711 -0.3748 -0.0475 -0.0069
  219MOL0     C29471   5.484  10.738   5.764  1.1179 -0.0032 -0.3127
  219MOL0     C29472   5.579  10.751   5.650  0.4404 -0.2974  0.4742
  219MOL0     C29473   5.721  10.685   5.672  0.0216  0.8180  0.3779
  219MOL0    Cl29474   5.832  10.801   5.593  0.2794 -0.6118 -0.2603
  219MOL0     C29475   4.622  10.597   6.165 -0.8134 -0.2503  0.4693
  219MOL0     C29476   4.482  10.567   6.170 -0.4469  0.0543 -0.6194
  219MOL0     O29477   4.186  10.799   5.981 -0.2695 -0.2241 -0.5919
  219MOL0     C29478   3.934  10.713   5.921  0.3720  0.0340  0.5741
  219MOL0     C29479   3.797  10.675   5.903  0.5472 -0.0378 -0.7530
  219MOL0     N29480   3.097  10.322   6.082 -0.3570  0.5286  0.2910
  219MOL0     N29481   2.984  10.268   6.127 -0.1441 -1.0148 -0.1552
  219MOL0     C29482   2.148  10.019   6.584  0.2204  0.2268  0.2600
  219MOL0     C29483   2.023   9.989   6.526 -0.4099 -0.5136  0.2812
  219MOL0     C29484   1.593   9.940   6.465  0.5110 -0.5252  0.1885
  219MOL0     C29485   1.551  10.007   6.341  0.3087  0.7510  0.3175
  219MOL0     C29486   1.421  10.001   6.282 -0.5395  0.1349  0.6122
  219MOL0     C29487   1.335   9.908   6.338 -0.3899 -0.3523 -0.3368
  219MOL0     O29488   1.213   9.869   6.290 -0.8089 -0.9986  0.1015
  219MOL0     C29489   1.142   9.963   6.202 -0.2875  0.0331 -0.1787
  219MOL0     C29490   0.998   9.914   6.176  0.0714 -1.0879  1.0880
  219MOL0     C29491   0.908   9.924   6.300 -0.0412  0.6039  1.3772
  219MOL0     C29492   0.828   9.803   6.318  0.5972 -0.4810  0.6002
  219MOL0     C29493   0.714   9.865   6.379  1.2222 -0.3091 -0.1897
  219MOL0     C29494   0.615   9.922   6.438  0.0930  0.4367 -0.0915
  219MOL0     C29495   1.372   9.853   6.460 -0.4441 -0.3361 -0.2430
  219MOL0     C29496   1.491   9.866   6.527  0.3305 -0.8245  0.1614
  219MOL0     C29497   1.508   9.791   6.660 -0.4494 -0.9211  0.3121
  219MOL0     H29498   1.884  10.287   6.578  1.1756  0.6616  2.0369
  219MOL0     H29499   2.081  10.328   6.689  1.3913 -0.8231  1.2994
  219MOL0     H29500   2.418  10.037   6.789  1.2030  0.2312  0.2063
  219MOL0     H29501   2.412  10.047   6.614 -2.3216  0.7709 -1.7492
  219MOL0     H29502   2.508  10.265   6.809 -0.4828  3.5740 -2.4309
  219MOL0     H29503   2.522  10.278   6.638  2.5959  0.0635  1.0551
  219MOL0     H29504   2.657  10.032   6.758 -0.4420 -0.2025  1.0081
  219MOL0     H29505   2.750  10.179   6.754 -2.3032  0.4984  2.7219
  219MOL0     H29506   2.616  10.042   6.504 -2.0174 -1.5877  2.8717
  219MOL0     H29507   2.718  10.187   6.504 -1.7044  0.2368  0.8452
  219MOL0     H29508   2.902  10.041   6.597  0.5192 -3.3053  2.7911
  219MOL0     H29509   2.797   9.901   6.609  0.9126 -0.4205 -0.2690
  219MOL0     H29510   2.896   9.848   6.404 -1.6754 -0.0213  1.7194
  219MOL0     H29511   2.755   9.927   6.351 -1.4350  0.4994  0.8303
  219MOL0     H29512   3.037  10.003   6.319 -0.3768 -0.9093  0.6541
  219MOL0     H29513   2.924  10.140   6.369  0.9218 -0.4909  3.0246
  219MOL0     H29514   2.905   9.932   6.148 -1.8545  0.6151 -3.0295
  219MOL0     H29515   2.787  10.063   6.156 -0.1771  2.0835  0.0134
  219MOL0     H29516   3.084  10.019   5.942  0.9482  1.9635 -1.9555
  219MOL0     H29517   3.286  10.165   5.852  0.9027 -0.2306  0.1664
  219MOL0     H29518   3.194  10.313   5.814  0.3399 -1.9023 -0.2177
  219MOL0     H29519   3.327  10.451   5.926  0.6855 -0.8234 -1.6006
  219MOL0     H29520   3.396  10.324   6.029 -0.5558  2.9777  0.4552
  219MOL0     H29521   3.475  10.413   5.754 -0.5849  0.4337  1.2993
  219MOL0     H29522   3.484  10.239   5.789 -2.2443 -1.4545  1.4371
  219MOL0     H29523   3.698  10.316   5.845  1.7626 -0.6104  1.8520
  219MOL0     H29524   3.616  10.299   5.995 -0.0563  1.1651  1.0323
  219MOL0     H29525   3.855  10.350   6.030 -0.5422 -1.3357 -0.5448
  219MOL0     H29526   4.074  10.441   6.052  2.9805  2.2914 -2.0039
  219MOL0     H29527   4.411  10.712   5.869  1.4916  0.2500 -0.7994
  219MOL0     H29528   4.643  10.751   5.872  1.8458  0.4796  1.0420
  219MOL0     H29529   4.849  10.604   5.872 -2.6679 -0.8314  1.8606
  219MOL0     H29530   4.858  10.790   5.876 -1.1744 -0.1220 -0.6518
  219MOL0     H29531   5.064  10.762   6.014  0.3932 -0.4327  1.3220
  219MOL0     H29532   5.048  10.589   5.982 -1.9213  0.8919  1.4713
  219MOL0     H29533   5.079  10.611   5.743  2.0612  0.3015 -0.8843
  219MOL0     H29534   5.051  10.784   5.755  1.6738  2.4009  1.7816
  219MOL0     H29535   5.282  10.643   5.905 -0.2329 -0.4083  0.6986
  219MOL0     H29536   5.257  10.809   5.894 -0.0145  0.4151 -0.4119
  219MOL0     H29537   5.296  10.821   5.662 -4.1391  0.2063  3.1671
  219MOL0     H29538   5.311  10.642   5.653 -0.1047 -0.8008  1.0076
  219MOL0     H29539   5.509  10.805   5.847  2.5956 -1.4770  0.5003
  219MOL0     H29540   5.508  10.648   5.822 -2.2139  0.4747  2.1672
  219MOL0     H29541   5.598  10.856   5.629 -0.1668 -0.1049  0.8758
  219MOL0     H29542   5.539  10.706   5.559 -0.1027  1.0518  0.0312
  219MOL0     H29543   5.750  10.676   5.777  0.2844 -0.4769  0.2167
  219MOL0     H29544   5.735  10.581   5.641  1.6243  0.7371  1.2342
  219MOL0     H29545   4.689  10.576   6.248  0.1991  1.6175  0.1872
  219MOL0     H29546   4.433  10.519   6.254  0.2454  0.6545  0.1449
  219MOL0     H29547   3.969  10.806   5.879  1.6646 -0.4519  0.5482
  219MOL0     H29548   3.724  10.739   5.855 -0.2122 -1.3826 -1.4432
  219MOL0     H29549   2.215   9.935   6.599  0.1231  0.1904  0.5061
  219MOL0     H29550   2.002   9.888   6.495 -0.7148  0.3264 -2.4479
  219MOL0     H29551   1.625  10.070   6.294 -0.8439  1.5844 -0.4311
  219MOL0     H29552   1.388  10.067   6.203  0.5893  1.8265  1.5071
  219MOL0     H29553   1.199   9.963   6.108 -2.2845  2.4067 -1.5062
  219MOL0     H29554   1.157  10.066   6.237 -0.3160  0.0764 -0.2954
  219MOL0     H29555   0.996   9.808   6.146 -1.7919 -0.1521 -2.7338
  219MOL0     H29556   0.953   9.978   6.100  3.3714  0.9164  0.6010
  219MOL0     H29557   0.855  10.016   6.274  1.9111  1.0312 -1.6713
  219MOL0     H29558   0.968   9.946   6.388  0.5210 -0.0014  1.1639
  219MOL0     H29559   0.794   9.758   6.224 -0.8044 -2.5172  1.9902
  219MOL0     H29560   0.882   9.734   6.384 -1.2423 -3.5188 -0.8391
  219MOL0     H29561   0.537   9.958   6.501  1.9211  1.3522  1.7657
  219MOL0     H29562   1.289   9.794   6.498 -2.0048  0.8033 -1.7629
  219MOL0     H29563   1.517   9.869   6.736 -0.9672 -2.2313  1.7634
  219MOL0     H29564   1.428   9.721   6.684 -0.4530 -0.7491  0.8022
  219MOL0     H29565   1.602   9.735   6.657  0.6719  0.8823 -1.5769
  220MOL0     O29566   8.682   1.843   5.017  0.3095 -0.4071 -0.3585
  220MOL0     C29567   8.632   1.925   4.940 -0.3380 -1.1404  0.2596
  220MOL0     O29568   8.696   2.024   4.883  0.4391  0.4060 -0.1575
  220MOL0     C29569   8.837   2.042   4.889 -0.0455 -0.6769  0.2627
  220MOL0     C29570   8.912   2.017   4.775  0.0049  0.0088  0.6742
  220MOL0     C29571   9.054   2.051   4.767  0.0512 -0.2304 -0.3561
  220MOL0     C29572   9.121   2.087   4.885 -0.1017 -1.2315  0.0893
  220MOL0     O29573   9.256   2.103   4.872  0.2868  0.8891 -0.1905
  220MOL0     C29574   9.346   2.100   4.985  0.4813  0.4703  0.2894
  220MOL0     C29575   9.484   2.101   4.924  0.7619  0.1474 -0.5584
  220MOL0     C29576   9.595   2.051   5.022 -0.2557  1.2999  0.6795
  220MOL0     C29577   9.607   2.153   5.132  0.0879  0.2816  0.2127
  220MOL0     C29578   9.748   2.153   5.202 -0.1030  0.4658 -0.7246
  220MOL0     C29579   9.841   2.240   5.113 -0.1548 -0.1725  0.0444
  220MOL0     C29580   9.969   2.266   5.191 -0.3629  0.3531 -0.1562
  220MOL0     C29581  10.082   2.321   5.100  0.0217 -0.1741 -1.0430
  220MOL0     N29582  10.209   2.337   5.174 -0.0277  1.0474  0.7230
  220MOL0     C29583  10.307   2.243   5.164  0.1280 -0.0779 -0.5291
  220MOL0     C29584  10.411   2.293   5.246  0.9891 -0.0737 -0.2953
  220MOL0     C29585  10.538   2.219   5.283 -0.5591 -0.2063 -1.1340
  220MOL0     C29586  10.656   2.315   5.276 -0.7271  0.2151  0.0163
  220MOL0     C29587  10.786   2.237   5.312  0.7873 -0.2421  0.1078
  220MOL0     C29588  10.921   2.303   5.295 -0.8175 -0.0761 -0.7420
  220MOL0     O29589  11.026   2.238   5.366  0.6166  0.4672 -0.6226
  220MOL0     C29590  11.151   2.275   5.353 -0.5852 -1.4201  0.5654
  220MOL0     C29591  11.247   2.186   5.372  0.2077 -0.2148 -0.1284
  220MOL0     C29592  11.385   2.218   5.365 -0.4182  0.4445  0.7540
  220MOL0     C29593  11.420   2.350   5.334  0.6433  1.1233  1.0192
  220MOL0     C29594  11.559   2.403   5.333  0.0119  0.5080 -0.4132
  220MOL0     O29595  11.579   2.540   5.327  0.1065  0.1853  0.4277
  220MOL0     C29596  11.712   2.572   5.341 -0.7018 -0.4322  0.9641
  220MOL0     C29597  11.763   2.613   5.474  0.0506  0.5643  0.1822
  220MOL0     C29598  11.900   2.651   5.490  0.6530 -0.9028  0.1032
  220MOL0     C29599  11.985   2.657   5.387  0.1651 -0.6054  0.3136
  220MOL0     O29600  12.118   2.696   5.395  0.2328 -0.9755  0.8214
  220MOL0     C29601  12.185   2.703   5.521  0.9954 -0.4911  0.3348
  220MOL0     C29602  12.326   2.751   5.511  0.9772  0.0807  0.3151
  220MOL0     C29603  12.325   2.897   5.490  0.4842 -0.3619  0.4080
  220MOL0     C29604  12.472   2.932   5.471 -0.5437 -0.1967 -0.4529
  220MOL0     C29605  12.481   3.086   5.430  0.6932  0.1807  0.6031
  220MOL0     C29606  12.613   3.110   5.360  0.4018  0.3325  0.2726
  220MOL0     C29607  12.654   3.262   5.334  0.1722 -0.0512 -0.6383
  220MOL0     C29608  12.639   3.356   5.452 -0.0067 -0.1446 -0.0481
  220MOL0    Cl29609  12.693   3.516   5.409 -0.3816 -0.3457  0.0997
  220MOL0     C29610  11.946   2.609   5.257  0.0326  0.0277 -0.1955
  220MOL0     C29611  11.807   2.576   5.230 -0.5421 -0.1277 -0.8333
  220MOL0     O29612  11.651   2.321   5.328 -0.3443  0.5033  0.4245
  220MOL0     C29613  11.316   2.441   5.316  0.6968 -0.2766  0.6832
  220MOL0     C29614  11.183   2.411   5.329  0.1813 -0.1048 -0.6637
  220MOL0     N29615  10.364   2.414   5.295 -0.2597 -0.3862 -0.5789
  220MOL0     N29616  10.244   2.437   5.263 -0.0661  0.4817 -0.0876
  220MOL0     C29617   9.043   2.114   5.002 -0.2970  0.9077  0.7091
  220MOL0     C29618   8.900   2.102   4.999 -0.0177 -0.2455  0.1683
  220MOL0     C29619   8.478   1.924   4.920 -0.3622 -0.9643  0.5304
  220MOL0     C29620   8.439   1.985   4.802  0.6271  0.7448  0.7209
  220MOL0     C29621   8.300   1.987   4.774  0.8084  1.1386  0.6640
  220MOL0     C29622   8.197   1.933   4.859  0.0749  0.0987  0.1864
  220MOL0     O29623   8.056   1.946   4.847  0.3161 -0.2535  0.4538
  220MOL0     C29624   8.010   2.001   4.720 -0.0455 -0.3881  0.0678
  220MOL0     C29625   7.860   2.015   4.717 -0.6265 -0.4592 -0.4222
  220MOL0     C29626   7.801   2.071   4.588  0.1175 -0.1769  0.3772
  220MOL0     C29627   7.643   2.067   4.595  0.0695 -0.0409  0.4570
  220MOL0     C29628   7.579   2.163   4.505 -0.2935 -0.2610  0.4668
  220MOL0     C29629   7.540   2.243   4.416 -0.6854 -0.1407 -0.0374
  220MOL0     C29630   8.245   1.874   4.976  0.2995 -0.0762 -0.6434
  220MOL0     C29631   8.386   1.867   5.007  0.1355  0.4045 -0.6171
  220MOL0     C29632   8.426   1.805   5.142  0.4492 -0.1718  0.4334
  220MOL0     H29633   8.875   1.984   4.678  1.3171  2.3197 -0.7103
  220MOL0     H29634   9.109   2.037   4.675  0.2033  3.8253 -1.0699
  220MOL0     H29635   9.332   2.189   5.046 -0.3943  0.4177  0.1814
  220MOL0     H29636   9.327   2.012   5.048 -1.2634  0.4885 -0.1565
  220MOL0     H29637   9.513   2.198   4.883  0.1580  1.6004  2.2397
  220MOL0     H29638   9.475   2.028   4.843  0.1121 -0.0116 -0.3522
  220MOL0     H29639   9.693   2.037   4.976  0.7503 -1.3341  3.3348
  220MOL0     H29640   9.575   1.950   5.058 -0.9764  0.6097 -1.4689
  220MOL0     H29641   9.580   2.257   5.111 -0.1519  0.7575  2.5193
  220MOL0     H29642   9.528   2.121   5.200 -0.6025 -2.1506 -1.5911
  220MOL0     H29643   9.738   2.209   5.295  3.5426  1.1349 -0.5835
  220MOL0     H29644   9.773   2.053   5.239 -3.3691  0.5616  2.3419
  220MOL0     H29645   9.848   2.185   5.019  1.5570  0.6965 -0.3796
  220MOL0     H29646   9.792   2.336   5.093  1.3013  0.3571 -1.1714
  220MOL0     H29647   9.998   2.171   5.237 -3.5499 -0.0902  1.1974
  220MOL0     H29648   9.958   2.333   5.277  2.9138 -1.8223  2.2404
  220MOL0     H29649  10.105   2.256   5.015 -2.9675 -0.0702 -2.0357
  220MOL0     H29650  10.057   2.419   5.059  2.0553  0.1331 -1.6954
  220MOL0     H29651  10.299   2.148   5.112  0.8562 -1.0664  1.0771
  220MOL0     H29652  10.513   2.188   5.385 -0.5388  1.7126 -0.5008
  220MOL0     H29653  10.559   2.127   5.230  1.0024 -0.0300 -0.8571
  220MOL0     H29654  10.663   2.351   5.173  0.5808  0.8439  0.3073
  220MOL0     H29655  10.633   2.397   5.344 -2.1697 -0.5742  0.5233
  220MOL0     H29656  10.784   2.148   5.248  0.7489 -0.2536  0.1253
  220MOL0     H29657  10.785   2.203   5.416  1.3375 -1.1272 -0.1613
  220MOL0     H29658  10.914   2.409   5.322  1.4015 -0.0045 -0.2401
  220MOL0     H29659  10.963   2.305   5.194  1.5231 -1.5702  0.1059
  220MOL0     H29660  11.213   2.088   5.403  0.4256 -0.1553  0.3131
  220MOL0     H29661  11.440   2.125   5.372 -1.6980 -0.4989 -0.9215
  220MOL0     H29662  11.703   2.595   5.562  1.6090  1.2337  1.4393
  220MOL0     H29663  11.935   2.679   5.589  2.2077 -1.3534 -0.2832
  220MOL0     H29664  12.134   2.784   5.575 -0.7797 -0.8741 -0.6785
  220MOL0     H29665  12.180   2.611   5.580  2.2262  0.2070  1.5868
  220MOL0     H29666  12.371   2.725   5.607  0.1926 -1.6217  0.2591
  220MOL0     H29667  12.378   2.708   5.425 -2.2357  0.2324 -1.8863
  220MOL0     H29668  12.272   2.925   5.399 -1.1619  0.3740  1.5526
  220MOL0     H29669  12.282   2.947   5.578 -1.9921 -0.8504 -0.4662
  220MOL0     H29670  12.513   2.872   5.389 -1.7510 -1.0375 -0.4724
  220MOL0     H29671  12.535   2.905   5.556  1.6813 -0.6934 -2.1747
  220MOL0     H29672  12.475   3.149   5.519 -3.5195  0.4832  0.3063
  220MOL0     H29673  12.408   3.119   5.356  0.1222  0.8940  1.4605
  220MOL0     H29674  12.697   3.065   5.414 -0.3192 -1.4159 -0.0083
  220MOL0     H29675  12.602   3.052   5.267 -4.0489 -0.0159  0.7834
  220MOL0     H29676  12.588   3.304   5.258  0.1957  1.6028  0.2208
  220MOL0     H29677  12.756   3.259   5.297  0.2106 -1.6222 -0.4745
  220MOL0     H29678  12.537   3.361   5.490  0.3871 -3.5817  1.8745
  220MOL0     H29679  12.699   3.318   5.536 -0.6196  0.5193  0.7022
  220MOL0     H29680  12.024   2.602   5.183  0.1659 -1.9046  0.0636
  220MOL0     H29681  11.775   2.530   5.137 -1.8608  0.2051 -0.5608
  220MOL0     H29682  11.331   2.546   5.297  1.3351  0.3253  3.9232
  220MOL0     H29683  11.110   2.491   5.337  1.2475  0.8081  0.0778
  220MOL0     H29684   9.086   2.147   5.096 -1.5241 -0.8154  1.9310
  220MOL0     H29685   8.826   2.124   5.076 -2.2341 -1.7969 -1.4096
  220MOL0     H29686   8.514   2.042   4.746  1.6846  2.6682  3.8652
  220MOL0     H29687   8.265   2.050   4.693  0.6956  3.4920  2.4496
  220MOL0     H29688   8.048   1.934   4.642 -0.6784 -2.1049  1.1787
  220MOL0     H29689   8.048   2.098   4.689  1.4407 -0.7979  0.4976
  220MOL0     H29690   7.829   2.075   4.803  1.0266 -2.4847  1.7289
  220MOL0     H29691   7.825   1.914   4.739  4.3264 -2.1372  1.2236
  220MOL0     H29692   7.827   2.015   4.497  0.6451  1.8485 -0.7891
  220MOL0     H29693   7.832   2.176   4.576 -2.5835  0.6165 -0.3154
  220MOL0     H29694   7.613   1.967   4.562  2.9446 -0.3487 -1.6502
  220MOL0     H29695   7.608   2.086   4.697 -1.9804 -0.4159 -0.1368
  220MOL0     H29696   7.512   2.307   4.335 -0.0205 -2.1276 -1.9458
  220MOL0     H29697   8.155   1.838   5.024  0.2328  0.2348 -0.5363
  220MOL0     H29698   8.465   1.703   5.136  2.9891  0.8028 -1.5934
  220MOL0     H29699   8.494   1.875   5.193 -1.3384  1.8622  0.1583
  220MOL0     H29700   8.335   1.800   5.202 -0.5004  2.5643 -0.6197
  221MOL0     O29701   4.953   2.249   7.263 -0.2651  0.3010  0.3580
  221MOL0     C29702   4.978   2.363   7.261  0.8253 -0.4095 -0.0965
  221MOL0     O29703   5.095   2.422   7.236 -0.3268 -0.4679  0.3721
  221MOL0     C29704   5.204   2.344   7.200 -0.1589  0.3198  0.0713
  221MOL0     C29705   5.208   2.295   7.070 -0.7827 -0.6393 -0.1991
  221MOL0     C29706   5.315   2.217   7.018 -0.0885  0.4971  0.4203
  221MOL0     C29707   5.422   2.186   7.102  0.1653  0.3421 -0.1012
  221MOL0     O29708   5.520   2.105   7.048 -0.4891  0.2469  0.8747
  221MOL0     C29709   5.598   2.013   7.122 -0.6415 -0.0654  0.5067
  221MOL0     C29710   5.699   1.954   7.021 -0.2820  0.4021  0.8000
  221MOL0     C29711   5.785   1.851   7.083  0.4665  0.7224  0.4536
  221MOL0     C29712   5.853   1.890   7.206 -0.2996  0.2323 -0.3668
  221MOL0     C29713   5.984   1.813   7.237 -0.1887 -0.0795 -0.4649
  221MOL0     C29714   5.961   1.680   7.299  0.1656  0.0164 -0.7910
  221MOL0     C29715   6.093   1.602   7.297  0.2311 -0.6261 -0.3450
  221MOL0     C29716   6.101   1.488   7.396 -0.0807 -0.3239  0.7270
  221MOL0     N29717   6.236   1.439   7.379 -0.2695  0.5282  0.1534
  221MOL0     C29718   6.297   1.378   7.272  0.2756 -0.7479  0.3506
  221MOL0     C29719   6.418   1.339   7.322 -0.3289  0.1485  0.3709
  221MOL0     C29720   6.504   1.246   7.237 -0.0814  0.1117 -0.0745
  221MOL0     C29721   6.657   1.276   7.239  0.1250 -0.1959  0.9539
  221MOL0     C29722   6.731   1.161   7.169 -0.6311  0.4644 -0.4372
  221MOL0     C29723   6.881   1.183   7.164  0.2391 -0.6503 -0.0909
  221MOL0     O29724   6.912   1.315   7.107  1.0124 -0.7854 -0.2738
  221MOL0     C29725   7.044   1.344   7.101 -0.4233 -0.3863 -0.4041
  221MOL0     C29726   7.098   1.368   6.971  0.3484  0.3684 -1.2781
  221MOL0     C29727   7.236   1.397   6.949 -0.4606 -0.2730  0.6214
  221MOL0     C29728   7.326   1.408   7.062 -0.2057  0.2213 -0.0491
  221MOL0     C29729   7.469   1.441   7.049 -1.0829  0.1823 -0.3928
  221MOL0     O29730   7.537   1.444   7.161 -0.3758  0.3315 -0.0024
  221MOL0     C29731   7.672   1.479   7.154  1.0332 -0.0976  0.0386
  221MOL0     C29732   7.763   1.440   7.052  0.8329 -0.5085  0.1045
  221MOL0     C29733   7.897   1.471   7.070  0.1680 -0.4016  0.6766
  221MOL0     C29734   7.955   1.542   7.177 -0.9486  0.1502  0.4499
  221MOL0     O29735   8.085   1.571   7.187 -0.4605  0.0513  0.0721
  221MOL0     C29736   8.137   1.591   7.318 -0.3108  0.2633 -0.3310
  221MOL0     C29737   8.284   1.544   7.327  0.0636 -0.6840  0.0480
  221MOL0     C29738   8.333   1.574   7.470  0.0073  0.1670  0.0283
  221MOL0     C29739   8.482   1.565   7.463 -0.1566 -1.1696  0.0567
  221MOL0     C29740   8.559   1.436   7.422  0.3094  0.4656  0.1631
  221MOL0     C29741   8.551   1.323   7.524  1.2601  0.2463  0.5548
  221MOL0     C29742   8.655   1.219   7.501 -0.1131  0.2155  0.6070
  221MOL0     C29743   8.656   1.096   7.595  0.2291  0.3821 -0.6497
  221MOL0    Cl29744   8.512   0.991   7.586  0.4516 -0.0608  0.0206
  221MOL0     C29745   7.860   1.586   7.267 -0.2729 -1.4137  0.1593
  221MOL0     C29746   7.725   1.548   7.260 -0.0725 -0.8667 -0.2849
  221MOL0     O29747   7.506   1.476   6.937  0.1748  0.5524 -0.2209
  221MOL0     C29748   7.263   1.394   7.186 -0.5907 -0.0806 -0.5100
  221MOL0     C29749   7.133   1.361   7.207  0.3021 -0.0091  0.4864
  221MOL0     N29750   6.433   1.371   7.454  0.7367  0.3450 -0.1809
  221MOL0     N29751   6.325   1.439   7.481 -0.4865 -0.0677 -0.5832
  221MOL0     C29752   5.434   2.242   7.227 -0.2672 -0.1759 -0.8672
  221MOL0     C29753   5.315   2.313   7.280 -0.2338  0.6195  0.6740
  221MOL0     C29754   4.869   2.472   7.279  0.0929 -0.5348 -0.4441
  221MOL0     C29755   4.868   2.592   7.203  0.9067  0.2231  0.3572
  221MOL0     C29756   4.774   2.692   7.226  0.0422 -1.0197 -0.0995
  221MOL0     C29757   4.659   2.670   7.306  0.0668 -0.3253  0.3868
  221MOL0     O29758   4.570   2.771   7.307  0.1563 -0.3604  0.6000
  221MOL0     C29759   4.443   2.750   7.375 -0.1422 -0.7437 -0.1278
  221MOL0     C29760   4.393   2.872   7.444 -0.1304 -0.0139 -0.3496
  221MOL0     C29761   4.482   2.895   7.568 -0.8741  0.3983  0.1815
  221MOL0     C29762   4.455   3.037   7.620 -0.0334 -1.2628  0.5238
  221MOL0     C29763   4.320   3.095   7.626 -0.6049 -0.2959  0.5055
  221MOL0     C29764   4.212   3.152   7.620  0.0006  0.1249 -0.5188
  221MOL0     C29765   4.648   2.545   7.367 -0.2432 -0.6130  0.2978
  221MOL0     C29766   4.749   2.448   7.354 -1.1895 -0.2823  0.0369
  221MOL0     C29767   4.731   2.322   7.431  0.4259 -0.2221 -0.2762
  221MOL0     H29768   5.130   2.320   6.999 -0.5060 -0.1249 -0.3278
  221MOL0     H29769   5.306   2.179   6.916  1.1742  0.4711  0.3045
  221MOL0     H29770   5.646   2.062   7.207 -1.5244 -0.2836  1.1446
  221MOL0     H29771   5.525   1.944   7.165 -1.5488 -0.4995 -1.6236
  221MOL0     H29772   5.767   2.033   6.989 -0.5047  0.7149  1.0929
  221MOL0     H29773   5.647   1.911   6.934  0.8833 -2.0478  1.2108
  221MOL0     H29774   5.857   1.818   7.008  0.1806  1.0306  0.0344
  221MOL0     H29775   5.718   1.767   7.103  0.0374  0.6475 -1.1759
  221MOL0     H29776   5.880   1.995   7.186 -2.5375  0.8334 -0.4911
  221MOL0     H29777   5.790   1.890   7.295  0.8693  2.4128  0.5586
  221MOL0     H29778   6.028   1.799   7.138 -0.3419  0.4423 -0.6102
  221MOL0     H29779   6.045   1.876   7.303 -1.7274  0.9319  0.0615
  221MOL0     H29780   5.920   1.687   7.400  1.4343 -1.4187 -0.1348
  221MOL0     H29781   5.886   1.626   7.239 -0.3009  0.5664 -0.7089
  221MOL0     H29782   6.178   1.670   7.310 -2.1909  2.6826 -0.6227
  221MOL0     H29783   6.100   1.558   7.197  0.5099  0.1328 -0.6595
  221MOL0     H29784   6.081   1.525   7.497  0.1994 -2.9597  1.8319
  221MOL0     H29785   6.036   1.401   7.381 -2.7365  1.5807  0.4383
  221MOL0     H29786   6.247   1.346   7.181 -0.9628  1.6529  0.1178
  221MOL0     H29787   6.491   1.148   7.283  2.4735 -0.1517  0.2100
  221MOL0     H29788   6.463   1.244   7.135  1.5563 -1.0320 -0.7631
  221MOL0     H29789   6.661   1.369   7.182 -0.5574  0.1823  1.5125
  221MOL0     H29790   6.699   1.283   7.340  1.6080 -2.2622  0.5554
  221MOL0     H29791   6.684   1.147   7.071 -1.6623 -0.3638  0.1514
  221MOL0     H29792   6.714   1.072   7.230  2.2810 -0.0323 -0.2050
  221MOL0     H29793   6.938   1.110   7.107 -1.9965 -2.7146  0.1502
  221MOL0     H29794   6.915   1.178   7.268 -2.6763  0.0214  1.0141
  221MOL0     H29795   7.037   1.343   6.885  0.0311  2.6501 -1.7885
  221MOL0     H29796   7.277   1.401   6.849 -1.1186  1.1733  0.3867
  221MOL0     H29797   7.718   1.378   6.976 -3.7274 -2.8387  4.1751
  221MOL0     H29798   7.965   1.430   6.996 -0.3425 -0.3886  0.1973
  221MOL0     H29799   8.118   1.695   7.347 -1.5260 -0.2174  0.6952
  221MOL0     H29800   8.092   1.526   7.394  2.1557 -1.8209 -0.5058
  221MOL0     H29801   8.292   1.438   7.301 -0.7550 -0.4083 -1.4404
  221MOL0     H29802   8.345   1.596   7.253  2.3744 -3.5599 -0.2378
  221MOL0     H29803   8.299   1.675   7.495 -1.0586 -0.1376 -0.1196
  221MOL0     H29804   8.307   1.498   7.544  3.4405  0.0721  1.3035
  221MOL0     H29805   8.523   1.606   7.555  3.0315 -0.6992 -1.4356
  221MOL0     H29806   8.513   1.641   7.391  0.7181  0.0750  1.6813
  221MOL0     H29807   8.659   1.467   7.393 -0.4926  2.0477 -1.0830
  221MOL0     H29808   8.515   1.408   7.325 -0.0846  1.8359 -0.0706
  221MOL0     H29809   8.567   1.375   7.619  1.5824  0.6021  0.3123
  221MOL0     H29810   8.451   1.278   7.524  1.1329  0.5241  0.5711
  221MOL0     H29811   8.750   1.271   7.517 -0.4685  0.9104  0.5128
  221MOL0     H29812   8.648   1.189   7.396 -0.5889  3.5413 -0.4275
  221MOL0     H29813   8.738   1.024   7.581 -0.9024 -1.0638 -0.1572
  221MOL0     H29814   8.669   1.144   7.692 -0.1316  0.8237 -0.8169
  221MOL0     H29815   7.884   1.650   7.352 -0.1243 -0.6728 -0.4264
  221MOL0     H29816   7.651   1.584   7.330 -0.2117 -3.4335  0.9965
  221MOL0     H29817   7.322   1.408   7.276 -1.4644 -1.9673  0.4061
  221MOL0     H29818   7.098   1.364   7.310  1.9823 -0.3396  1.1026
  221MOL0     H29819   5.517   2.224   7.295 -2.0333  2.7971  2.3830
  221MOL0     H29820   5.301   2.343   7.383 -1.4868 -0.1565  0.7532
  221MOL0     H29821   4.951   2.604   7.134  1.5160 -1.7346  0.6709
  221MOL0     H29822   4.768   2.789   7.178 -1.8948 -0.7700  0.5512
  221MOL0     H29823   4.455   2.672   7.451 -0.0707 -1.9862 -1.3736
  221MOL0     H29824   4.372   2.712   7.301 -0.3464 -1.3567  0.3739
  221MOL0     H29825   4.292   2.843   7.472  0.5380 -2.6143 -0.3559
  221MOL0     H29826   4.386   2.960   7.379  0.7788 -0.9478 -1.7861
  221MOL0     H29827   4.589   2.894   7.546 -0.7519 -1.6058  0.6753
  221MOL0     H29828   4.464   2.820   7.645  1.3575 -0.6965 -0.2941
  221MOL0     H29829   4.504   3.041   7.718  0.2797 -0.9200  0.3539
  221MOL0     H29830   4.511   3.105   7.556  0.2896 -3.7704 -2.1061
  221MOL0     H29831   4.125   3.212   7.606  0.1325  0.5548  0.4089
  221MOL0     H29832   4.576   2.515   7.442  1.2586 -2.3146  1.1249
  221MOL0     H29833   4.716   2.235   7.366 -0.9324 -0.0973 -0.1645
  221MOL0     H29834   4.814   2.309   7.501  0.5305 -1.2504 -0.5745
  221MOL0     H29835   4.646   2.336   7.499  0.1843  3.0958 -1.0775
  222MOL0     O29836   2.369   5.386  10.235 -0.0555  0.5011 -0.0854
  222MOL0     C29837   2.358   5.503  10.261  0.0660 -0.2091  0.1302
  222MOL0     O29838   2.458   5.587  10.272  0.3092 -0.2174  0.2756
  222MOL0     C29839   2.591   5.560  10.285 -0.6138  0.8406 -0.2062
  222MOL0     C29840   2.658   5.638  10.378 -0.4461 -0.6300  0.1527
  222MOL0     C29841   2.801   5.645  10.383  0.5925  0.9191 -0.2205
  222MOL0     C29842   2.874   5.570  10.292 -0.5085 -0.1940  0.5239
  222MOL0     O29843   3.006   5.566  10.280 -0.4938 -0.3577 -0.2631
  222MOL0     C29844   3.082   5.590  10.400 -0.0458  0.5929 -0.5154
  222MOL0     C29845   3.230   5.568  10.377  0.3563  0.5214 -0.2338
  222MOL0     C29846   3.313   5.550  10.506 -0.0897  0.2131 -0.2115
  222MOL0     C29847   3.458   5.588  10.477  0.2325  0.0373  0.1580
  222MOL0     C29848   3.538   5.594  10.602 -0.0546  0.0259  0.1027
  222MOL0     C29849   3.681   5.641  10.565  0.0873  0.3452  0.4647
  222MOL0     C29850   3.779   5.637  10.678 -0.0463 -0.2755  0.7516
  222MOL0     C29851   3.914   5.699  10.647  0.0046 -0.4017  1.0601
  222MOL0     N29852   3.997   5.673  10.767 -0.0956 -0.1279 -0.1124
  222MOL0     C29853   4.066   5.554  10.797 -0.2196 -0.3693 -0.7975
  222MOL0     C29854   4.141   5.584  10.904  1.1535  0.5674 -0.1864
  222MOL0     C29855   4.239   5.494  10.971 -0.7049 -1.1248 -0.3614
  222MOL0     C29856   4.382   5.556  10.980 -0.1255  0.5753  0.6485
  222MOL0     C29857   4.462   5.456  11.063  0.1575 -0.1093  0.1507
  222MOL0     C29858   4.599   5.510  11.068  0.2896 -0.3272 -0.6358
  222MOL0     O29859   4.649   5.499  10.936 -0.1180  0.7451  0.0463
  222MOL0     C29860   4.774   5.445  10.919  0.5388 -0.2382  0.1704
  222MOL0     C29861   4.863   5.403  11.022  0.3120 -0.1400  1.0683
  222MOL0     C29862   4.977   5.335  10.969 -0.3902 -0.0237 -0.4424
  222MOL0     C29863   5.021   5.336  10.834  0.4705 -0.5262  0.2727
  222MOL0     C29864   5.147   5.273  10.787  0.1471 -0.6604  0.2957
  222MOL0     O29865   5.182   5.295  10.661  0.2677  0.1234 -0.1836
  222MOL0     C29866   5.299   5.224  10.630 -0.0339  0.5997 -0.5051
  222MOL0     C29867   5.419   5.299  10.628  0.6790  0.6671 -0.3696
  222MOL0     C29868   5.536   5.228  10.606  0.3550 -0.4213 -0.9103
  222MOL0     C29869   5.550   5.087  10.598  0.6320 -0.2276 -0.3265
  222MOL0     O29870   5.663   5.013  10.576 -0.3256 -0.3689 -0.2856
  222MOL0     C29871   5.788   5.067  10.628  0.7090  0.3639  0.3492
  222MOL0     C29872   5.886   4.954  10.644  0.5143  0.0166 -0.2348
  222MOL0     C29873   6.019   5.009  10.697  0.8331  0.6756 -0.0093
  222MOL0     C29874   6.115   4.892  10.727 -0.0054 -0.2453  0.4591
  222MOL0     C29875   6.099   4.812  10.855 -0.8904  1.1047  0.0428
  222MOL0     C29876   6.189   4.685  10.842  0.1666 -0.1938 -0.4785
  222MOL0     C29877   6.213   4.617  10.979 -0.2266 -0.1001  0.1536
  222MOL0     C29878   6.274   4.482  10.953 -0.5958  0.0584  0.3667
  222MOL0    Cl29879   6.438   4.480  10.884 -0.1212 -0.0311  0.4506
  222MOL0     C29880   5.427   5.019  10.600  0.3011  0.4229  0.6389
  222MOL0     C29881   5.301   5.089  10.617  0.2756  0.6013  0.3180
  222MOL0     O29882   5.216   5.213  10.877  0.4336 -0.2959 -0.5459
  222MOL0     C29883   4.934   5.396  10.741  0.1791  0.5169  0.1577
  222MOL0     C29884   4.807   5.440  10.780 -0.2042 -0.5758 -0.7021
  222MOL0     N29885   4.128   5.713  10.933  0.7642  0.0214 -0.2594
  222MOL0     N29886   4.043   5.769  10.860 -0.1575 -0.8748  0.3291
  222MOL0     C29887   2.803   5.483  10.202  0.0526  0.2098 -0.1091
  222MOL0     C29888   2.669   5.477  10.203  0.3901  0.7395 -0.2063
  222MOL0     C29889   2.213   5.544  10.285  0.1645 -0.8917  0.1480
  222MOL0     C29890   2.109   5.453  10.248  0.4212 -0.0311 -0.3037
  222MOL0     C29891   1.978   5.495  10.271 -0.0275  0.1378  0.4531
  222MOL0     C29892   1.946   5.617  10.329 -0.0200  0.1223 -0.1846
  222MOL0     O29893   1.815   5.645  10.358  0.0195  0.2638  0.1938
  222MOL0     C29894   1.788   5.766  10.440 -0.0884 -0.1956  0.4354
  222MOL0     C29895   1.646   5.769  10.469  0.4688 -0.5380 -0.1435
  222MOL0     C29896   1.583   5.664  10.563 -0.0074  0.2533  0.5063
  222MOL0     C29897   1.446   5.719  10.612  0.1701 -0.0337  0.0571
  222MOL0     C29898   1.341   5.712  10.513  0.3538  0.3759 -0.7391
  222MOL0     C29899   1.252   5.707  10.431  0.1241  0.4889  0.8448
  222MOL0     C29900   2.049   5.706  10.361  0.1101  0.4978  0.2409
  222MOL0     C29901   2.185   5.668  10.343 -0.0657 -0.5746  0.0878
  222MOL0     C29902   2.291   5.759  10.391 -0.4044 -1.2362  0.4682
  222MOL0     H29903   2.596   5.697  10.444  0.6331 -0.0842  0.7024
  222MOL0     H29904   2.839   5.716  10.456 -1.6470  2.1903 -0.1907
  222MOL0     H29905   3.078   5.696  10.425  0.6361  0.8052 -1.2829
  222MOL0     H29906   3.034   5.530  10.478 -1.5479  2.2324 -0.1118
  222MOL0     H29907   3.258   5.657  10.320  0.3302  0.3931 -0.4489
  222MOL0     H29908   3.238   5.475  10.320 -1.0565 -0.3241  0.8673
  222MOL0     H29909   3.312   5.455  10.559 -0.2359  0.5974  0.4886
  222MOL0     H29910   3.274   5.624  10.577  0.4614  0.6122 -0.3195
  222MOL0     H29911   3.510   5.518  10.412  2.1707 -0.2901  1.9557
  222MOL0     H29912   3.470   5.690  10.437  1.1177 -1.1506 -2.8889
  222MOL0     H29913   3.499   5.666  10.674  1.2482  3.2262 -2.1657
  222MOL0     H29914   3.551   5.493  10.642  1.8161  0.1573 -0.0628
  222MOL0     H29915   3.718   5.583  10.480  1.1345 -0.0918  1.2081
  222MOL0     H29916   3.656   5.743  10.534 -1.8895  0.0953  1.0880
  222MOL0     H29917   3.794   5.535  10.713 -0.3962 -1.0541 -1.2545
  222MOL0     H29918   3.744   5.701  10.760  0.7201 -0.4501  1.2230
  222MOL0     H29919   3.966   5.646  10.566  0.0908 -1.2559  1.6646
  222MOL0     H29920   3.911   5.806  10.627  0.4668 -0.6105 -0.2775
  222MOL0     H29921   4.054   5.458  10.748  0.1921 -0.1270 -1.3739
  222MOL0     H29922   4.199   5.468  11.070  0.0341 -0.6097  0.0838
  222MOL0     H29923   4.247   5.402  10.911  2.9494  1.1352 -3.8439
  222MOL0     H29924   4.409   5.567  10.875  1.3915 -2.8179  0.5458
  222MOL0     H29925   4.378   5.648  11.038 -0.1372 -0.3105  2.1137
  222MOL0     H29926   4.459   5.365  11.003  0.9894  0.4340 -0.7510
  222MOL0     H29927   4.406   5.447  11.157  1.5347 -0.7441  0.9404
  222MOL0     H29928   4.652   5.450  11.142 -0.4506 -1.3687 -0.9287
  222MOL0     H29929   4.595   5.617  11.094 -1.8872 -0.5835  0.2967
  222MOL0     H29930   4.837   5.394  11.127 -1.7992 -0.1113  0.5943
  222MOL0     H29931   5.032   5.282  11.046 -0.7639 -0.5364 -0.5272
  222MOL0     H29932   5.420   5.408  10.629  0.9760  0.6789 -1.1292
  222MOL0     H29933   5.626   5.287  10.602  0.6088 -0.7679 -0.4249
  222MOL0     H29934   5.823   5.144  10.558  3.0404  1.0105  2.1021
  222MOL0     H29935   5.778   5.124  10.720  4.8397  0.5389  0.8791
  222MOL0     H29936   5.848   4.870  10.703  0.5316 -0.6680 -1.1643
  222MOL0     H29937   5.886   4.898  10.550 -2.7435 -3.5381  1.5752
  222MOL0     H29938   6.067   5.079  10.627  1.4083  2.3665  1.9794
  222MOL0     H29939   5.999   5.070  10.785 -1.5332 -0.6560  0.4496
  222MOL0     H29940   6.216   4.934  10.738  0.0326 -0.2634  0.1916
  222MOL0     H29941   6.111   4.829  10.638 -0.9438  0.1700  0.1961
  222MOL0     H29942   5.994   4.783  10.867 -0.0999 -2.3615 -0.3394
  222MOL0     H29943   6.137   4.861  10.944  2.3449 -0.1180 -0.5272
  222MOL0     H29944   6.142   4.618  10.769 -1.8001  1.5071 -0.8464
  222MOL0     H29945   6.286   4.712  10.799 -0.7785  0.0322 -2.6075
  222MOL0     H29946   6.114   4.609  11.024 -0.3555 -2.7090 -0.4552
  222MOL0     H29947   6.280   4.676  11.043  1.2650 -3.1228  1.5459
  222MOL0     H29948   6.286   4.442  11.054 -1.3679  0.6634  0.7127
  222MOL0     H29949   6.209   4.429  10.882 -0.7879 -0.5714  1.0077
  222MOL0     H29950   5.425   4.911  10.588 -0.5350  0.5343 -0.3597
  222MOL0     H29951   5.209   5.031  10.623  0.0552  0.4596 -2.8314
  222MOL0     H29952   4.955   5.397  10.635  0.6114  2.5980  0.2054
  222MOL0     H29953   4.740   5.479  10.704  1.0849 -2.6475 -3.0692
  222MOL0     H29954   2.860   5.425  10.130  4.8278  3.1714  0.8811
  222MOL0     H29955   2.620   5.422  10.124  0.1178 -0.5191  0.8125
  222MOL0     H29956   2.117   5.351  10.212  2.6021  0.7205 -2.1771
  222MOL0     H29957   1.897   5.427  10.248 -1.9582  2.7531 -1.0484
  222MOL0     H29958   1.814   5.850  10.374 -1.6115 -1.6619 -2.1810
  222MOL0     H29959   1.839   5.781  10.536 -3.1013  1.2275  1.9266
  222MOL0     H29960   1.587   5.767  10.377 -0.5911  1.2143  0.4547
  222MOL0     H29961   1.624   5.864  10.518  0.5650 -1.6904  2.2658
  222MOL0     H29962   1.647   5.638  10.648 -0.4592  2.6218  1.6350
  222MOL0     H29963   1.567   5.570  10.509  1.3708  1.5109 -2.3045
  222MOL0     H29964   1.417   5.665  10.703 -0.7584  1.7426  0.8572
  222MOL0     H29965   1.457   5.824  10.637  1.8994  0.7122 -3.2391
  222MOL0     H29966   1.178   5.714  10.354  1.5630  0.1048 -0.6451
  222MOL0     H29967   2.031   5.801  10.410  2.1961  0.4294  1.2573
  222MOL0     H29968   2.338   5.819  10.313  0.6520  1.2523  2.8567
  222MOL0     H29969   2.239   5.840  10.443 -0.8599 -0.5504 -1.0148
  222MOL0     H29970   2.369   5.712  10.452  1.0200 -1.5439 -1.4948
  223MOL0     O29971   0.061   2.469   3.480 -0.5497 -0.5775  0.0332
  223MOL0     C29972   0.010   2.425   3.579  1.0097  0.4568  0.6264
  223MOL0     O29973  -0.100   2.476   3.628  0.3722  0.0542  0.4101
  223MOL0     C29974  -0.182   2.563   3.569  0.3922 -0.3814  0.4096
  223MOL0     C29975  -0.201   2.569   3.428 -0.2847  0.5366 -0.0456
  223MOL0     C29976  -0.272   2.676   3.370  0.3153 -0.0117 -0.4040
  223MOL0     C29977  -0.342   2.765   3.451  0.2098 -0.3877 -0.4802
  223MOL0     O29978  -0.440   2.841   3.392  0.3497  0.4781  0.1078
  223MOL0     C29979  -0.537   2.923   3.471 -0.0763 -0.0595  0.2339
  223MOL0     C29980  -0.604   3.029   3.376  0.3375 -0.0149 -0.4723
  223MOL0     C29981  -0.714   2.970   3.285 -0.2576  0.6184 -0.7428
  223MOL0     C29982  -0.830   2.916   3.369 -0.3341 -0.3297  0.2614
  223MOL0     C29983  -0.858   2.766   3.358  1.0975  0.2237 -0.3144
  223MOL0     C29984  -0.916   2.725   3.228 -0.1990  0.1325 -0.1748
  223MOL0     C29985  -0.937   2.569   3.216  0.3953 -0.4775  0.2898
  223MOL0     C29986  -0.813   2.480   3.215 -0.2304 -0.5093 -0.3288
  223MOL0     N29987  -0.708   2.518   3.124  0.6569 -0.3604  0.3687
  223MOL0     C29988  -0.600   2.602   3.147  0.1427 -0.0869 -0.0415
  223MOL0     C29989  -0.549   2.630   3.026  0.3647 -0.0456 -0.5007
  223MOL0     C29990  -0.427   2.712   3.005  0.3861  0.4852 -0.1494
  223MOL0     C29991  -0.454   2.855   3.046  0.5842  0.5340  0.1283
  223MOL0     C29992  -0.344   2.955   3.017 -0.2357  1.0499  0.8786
  223MOL0     C29993  -0.370   3.082   3.098  1.4037 -0.1386 -0.6323
  223MOL0     O29994  -0.303   3.189   3.032 -0.6835 -0.2886 -0.0525
  223MOL0     C29995  -0.177   3.225   3.068  0.3111  0.2908  0.2635
  223MOL0     C29996  -0.130   3.350   3.018  0.2140 -0.1353  0.4625
  223MOL0     C29997  -0.004   3.396   3.057 -0.0076 -0.6600 -0.0709
  223MOL0     C29998   0.070   3.322   3.154 -0.0102 -1.2877  0.0648
  223MOL0     C29999   0.196   3.373   3.217 -0.5256  0.4819  0.2046
  223MOL0     O30000   0.286   3.284   3.263 -0.7642 -0.1960 -0.2098
  223MOL0     C30001   0.408   3.344   3.303  0.3415  0.7789 -0.4533
  223MOL0     C30002   0.518   3.345   3.222 -0.2416 -0.6333  0.6167
  223MOL0     C30003   0.638   3.402   3.264  0.4632 -0.1828  0.1892
  223MOL0     C30004   0.649   3.464   3.389  0.1936 -0.4155 -0.7652
  223MOL0     O30005   0.762   3.516   3.438 -0.1042 -0.7330  0.0596
  223MOL0     C30006   0.837   3.609   3.351 -0.4766 -0.3775  0.2141
  223MOL0     C30007   0.954   3.675   3.429  0.3405  0.2987  0.4133
  223MOL0     C30008   1.025   3.769   3.342  0.0000  1.0657  1.1227
  223MOL0     C30009   1.130   3.848   3.415 -0.0986 -0.2427  0.0783
  223MOL0     C30010   1.240   3.909   3.320 -0.1126  0.3081  0.5648
  223MOL0     C30011   1.371   3.956   3.388  0.2886  0.1443  0.1657
  223MOL0     C30012   1.345   4.056   3.503  0.7663 -0.0653  0.4371
  223MOL0     C30013   1.473   4.081   3.585 -0.2822  0.3174  0.1102
  223MOL0    Cl30014   1.588   4.162   3.484  0.2684 -0.1655  0.3342
  223MOL0     C30015   0.541   3.449   3.477  0.1579 -0.8032 -0.5628
  223MOL0     C30016   0.430   3.378   3.438  0.5092  0.4159 -0.0097
  223MOL0     O30017   0.202   3.491   3.211  0.0227  0.5131 -0.1656
  223MOL0     C30018   0.008   3.209   3.210 -0.5177  0.6970 -0.3007
  223MOL0     C30019  -0.103   3.153   3.159 -0.2091 -0.2570  0.4232
  223MOL0     N30020  -0.618   2.563   2.929 -1.1017 -0.1323 -1.1333
  223MOL0     N30021  -0.716   2.501   2.991  0.8064  1.0243  0.3967
  223MOL0     C30022  -0.321   2.762   3.592 -0.0820  0.3886 -0.4082
  223MOL0     C30023  -0.243   2.665   3.649  0.3929  0.2675  0.2633
  223MOL0     C30024   0.081   2.336   3.672 -0.1290  0.1445 -0.5796
  223MOL0     C30025   0.214   2.366   3.704  0.1168  0.1358  0.5797
  223MOL0     C30026   0.284   2.284   3.795 -0.2205  0.6149  0.3945
  223MOL0     C30027   0.221   2.165   3.847 -0.1299  0.1989  0.0933
  223MOL0     O30028   0.281   2.076   3.942  1.3150 -0.6568 -0.7457
  223MOL0     C30029   0.421   2.045   3.926 -0.6861 -0.1946 -0.0707
  223MOL0     C30030   0.495   1.949   4.036  0.3026 -0.1594 -0.2015
  223MOL0     C30031   0.462   1.986   4.185 -0.2554 -0.9355 -0.0351
  223MOL0     C30032   0.569   1.926   4.289 -0.4635  0.2941  0.3078
  223MOL0     C30033   0.497   1.871   4.410  1.3512 -0.9278  0.1085
  223MOL0     C30034   0.443   1.825   4.511  0.6477  0.2624 -0.0554
  223MOL0     C30035   0.086   2.145   3.818  0.3266 -0.0022  0.1134
  223MOL0     C30036   0.015   2.226   3.727  0.1887  0.2455 -0.2533
  223MOL0     C30037  -0.120   2.190   3.687 -0.2493  0.8112  0.2527
  223MOL0     H30038  -0.181   2.482   3.367 -1.6279 -0.0165  0.2629
  223MOL0     H30039  -0.283   2.659   3.263  1.1539  0.4547 -0.5698
  223MOL0     H30040  -0.609   2.857   3.520  1.3822 -1.2447  0.8609
  223MOL0     H30041  -0.501   2.983   3.555 -0.5310 -0.1651  0.5019
  223MOL0     H30042  -0.533   3.091   3.321  0.5979  1.6656  1.5966
  223MOL0     H30043  -0.637   3.107   3.445 -3.5961 -1.5700 -0.3311
  223MOL0     H30044  -0.669   2.897   3.217 -0.4066  1.0302 -1.2886
  223MOL0     H30045  -0.742   3.051   3.217  3.0120  1.0078 -1.7973
  223MOL0     H30046  -0.802   2.938   3.472 -0.0532 -2.0229  0.5632
  223MOL0     H30047  -0.923   2.968   3.347  0.9761  1.8792 -0.4191
  223MOL0     H30048  -0.768   2.707   3.377 -0.2415 -1.3774  1.4553
  223MOL0     H30049  -0.934   2.738   3.431  2.2749 -0.6623  0.6050
  223MOL0     H30050  -1.006   2.787   3.219  2.3710  4.0052 -2.2640
  223MOL0     H30051  -0.852   2.756   3.145 -0.3414 -0.3894 -0.4773
  223MOL0     H30052  -0.977   2.567   3.114  0.6370 -0.0111  0.1837
  223MOL0     H30053  -1.005   2.526   3.290  1.7626 -4.1320 -0.3857
  223MOL0     H30054  -0.768   2.481   3.315  1.6593  0.2937 -1.1371
  223MOL0     H30055  -0.844   2.379   3.185 -1.6972  0.1270 -1.0224
  223MOL0     H30056  -0.557   2.631   3.243 -0.5850 -1.9826  0.9325
  223MOL0     H30057  -0.342   2.673   3.061  2.2702  0.9006 -2.5970
  223MOL0     H30058  -0.395   2.709   2.901 -0.1682 -0.2919 -0.3052
  223MOL0     H30059  -0.541   2.890   2.989  0.2822  0.5497  0.5962
  223MOL0     H30060  -0.468   2.855   3.155  2.1980  1.1630  0.3607
  223MOL0     H30061  -0.356   2.989   2.914 -0.9234  0.5405  0.7792
  223MOL0     H30062  -0.241   2.922   3.034 -0.6872 -1.6663 -1.1172
  223MOL0     H30063  -0.328   3.074   3.199  1.0870  3.2400 -0.1223
  223MOL0     H30064  -0.478   3.095   3.107  1.5129  1.8962 -1.6938
  223MOL0     H30065  -0.189   3.405   2.946  0.3213  0.9878  1.2072
  223MOL0     H30066   0.032   3.492   3.023 -1.3636 -0.0763  0.0693
  223MOL0     H30067   0.503   3.310   3.120 -2.7675  1.3602  0.1879
  223MOL0     H30068   0.719   3.385   3.193 -0.2852 -1.1112 -0.4636
  223MOL0     H30069   0.873   3.551   3.266 -2.9366 -0.5633 -0.7852
  223MOL0     H30070   0.769   3.684   3.310  1.0888  0.1972 -1.4365
  223MOL0     H30071   0.920   3.725   3.520  0.7707  1.8509 -0.2462
  223MOL0     H30072   1.029   3.605   3.465  0.1002 -0.3865 -0.3843
  223MOL0     H30073   1.063   3.705   3.262 -3.0929 -1.5786  1.5725
  223MOL0     H30074   0.956   3.832   3.285  0.6625  1.8179  1.1261
  223MOL0     H30075   1.187   3.783   3.482 -1.2806  0.5879  1.9905
  223MOL0     H30076   1.070   3.918   3.474 -1.0661  0.8212 -2.0566
  223MOL0     H30077   1.202   4.003   3.277  1.8979  2.8242  3.8037
  223MOL0     H30078   1.259   3.839   3.237 -1.5314  0.7638 -0.1795
  223MOL0     H30079   1.422   3.864   3.420  0.2919 -0.0328 -0.3461
  223MOL0     H30080   1.435   4.007   3.315 -1.8732  1.4615 -0.8880
  223MOL0     H30081   1.281   4.013   3.580  1.5847 -0.7721  0.7395
  223MOL0     H30082   1.294   4.144   3.462  1.6407 -1.1550 -3.4129
  223MOL0     H30083   1.436   4.142   3.668 -1.7917  2.2616 -1.8618
  223MOL0     H30084   1.529   3.994   3.622  3.8759  2.9971  0.7506
  223MOL0     H30085   0.541   3.501   3.572  1.2624 -0.6573 -0.6360
  223MOL0     H30086   0.355   3.350   3.511  0.2987  2.5402  0.6636
  223MOL0     H30087   0.064   3.157   3.287  0.8855  0.0615 -1.7058
  223MOL0     H30088  -0.141   3.061   3.203 -1.3290 -0.7290 -1.4383
  223MOL0     H30089  -0.371   2.834   3.656  0.6647 -0.3639  1.0706
  223MOL0     H30090  -0.240   2.669   3.758 -1.6078  2.1380  0.3197
  223MOL0     H30091   0.257   2.461   3.675 -0.8314  1.1447  2.2990
  223MOL0     H30092   0.383   2.319   3.821  0.8718 -0.5061 -2.0288
  223MOL0     H30093   0.473   2.141   3.933 -2.8106  1.0297 -0.2411
  223MOL0     H30094   0.445   2.006   3.827  4.4637  3.2980 -0.6166
  223MOL0     H30095   0.602   1.954   4.015  0.4570 -1.1307  0.3065
  223MOL0     H30096   0.463   1.847   4.014  0.8379 -0.8270  1.8836
  223MOL0     H30097   0.362   1.948   4.207 -0.5212  0.4318  1.3259
  223MOL0     H30098   0.467   2.096   4.192 -1.5102 -0.9150  0.9999
  223MOL0     H30099   0.629   1.845   4.246  0.1920  0.8136  0.2200
  223MOL0     H30100   0.642   2.004   4.314  1.8466 -1.8854  0.8853
  223MOL0     H30101   0.380   1.779   4.584  0.4284  2.8712  1.5183
  223MOL0     H30102   0.027   2.076   3.877 -2.1063  2.4911  0.7990
  223MOL0     H30103  -0.127   2.173   3.579  1.1130  0.0917  0.2517
  223MOL0     H30104  -0.140   2.090   3.727 -0.1379 -0.0638 -1.7396
  223MOL0     H30105  -0.203   2.252   3.721 -3.9590 -2.7563 -1.4706
  224MOL0     O30106   0.498   6.935  11.149 -0.3245 -0.5083 -0.4967
  224MOL0     C30107   0.489   6.924  11.028 -0.1895 -0.1719  0.5259
  224MOL0     O30108   0.589   6.901  10.943  0.5278 -0.1064  0.5597
  224MOL0     C30109   0.717   6.915  10.993  0.8230 -0.1979  1.0073
  224MOL0     C30110   0.803   6.806  11.025 -0.1959 -0.2442  0.3626
  224MOL0     C30111   0.930   6.849  11.075  1.1166  0.1862 -0.4129
  224MOL0     C30112   0.964   6.985  11.091 -0.0394 -0.2581 -0.4543
  224MOL0     O30113   1.074   7.033  11.168 -0.4437  0.2508 -0.0516
  224MOL0     C30114   1.189   6.943  11.156  0.2329  0.3814  0.2450
  224MOL0     C30115   1.245   6.924  11.010  0.8223 -1.1465 -0.3898
  224MOL0     C30116   1.385   6.866  11.003  0.8098 -0.2563 -0.4105
  224MOL0     C30117   1.501   6.972  11.002  0.0083  0.2663  0.9016
  224MOL0     C30118   1.630   6.905  11.033 -0.0108  0.1352 -0.7397
  224MOL0     C30119   1.734   7.014  11.018  0.5955  0.5309  0.2029
  224MOL0     C30120   1.877   6.962  11.038 -0.5339 -0.4103 -0.1002
  224MOL0     C30121   1.964   7.088  11.058 -0.4882  0.2434  0.4198
  224MOL0     N30122   1.991   7.160  10.925  0.4500  0.6800  0.1588
  224MOL0     C30123   2.092   7.137  10.837 -0.5382 -0.0224  0.8398
  224MOL0     C30124   2.072   7.244  10.751 -0.0276 -0.9024  0.1786
  224MOL0     C30125   2.135   7.268  10.618  0.5617  0.1769 -0.5303
  224MOL0     C30126   2.275   7.326  10.624  0.2442  0.2305 -0.3222
  224MOL0     C30127   2.364   7.313  10.498 -0.0236  0.8734 -0.8199
  224MOL0     C30128   2.395   7.165  10.457  0.6260  0.6092  0.1647
  224MOL0     O30129   2.475   7.110  10.563 -0.0964  0.9028 -0.0985
  224MOL0     C30130   2.598   7.066  10.524 -0.2492  0.3223  0.1564
  224MOL0     C30131   2.708   7.147  10.552  0.4997 -0.6286  0.3661
  224MOL0     C30132   2.835   7.106  10.517 -0.9807  0.1383 -0.6834
  224MOL0     C30133   2.858   6.979  10.450  0.4737 -0.3235  0.2204
  224MOL0     C30134   2.994   6.940  10.417 -0.2063  1.6268  0.3174
  224MOL0     O30135   3.089   7.038  10.429 -0.3036 -0.1921 -0.1274
  224MOL0     C30136   3.216   7.023  10.383 -0.0982  0.3199 -0.0493
  224MOL0     C30137   3.287   6.906  10.362 -0.4005 -0.3996  0.0582
  224MOL0     C30138   3.420   6.902  10.320 -0.2960 -0.3258 -0.0446
  224MOL0     C30139   3.483   7.030  10.300 -0.7444 -1.0836  0.2702
  224MOL0     O30140   3.608   7.042  10.233 -0.1298 -0.1872  0.0356
  224MOL0     C30141   3.612   6.982  10.098 -0.5760 -1.1707  0.1209
  224MOL0     C30142   3.561   7.091  10.000  0.3605  0.2056  0.1297
  224MOL0     C30143   3.661   7.207   9.990  0.5845 -0.6436 -0.0999
  224MOL0     C30144   3.623   7.277   9.865 -0.5212  0.3261 -0.5990
  224MOL0     C30145   3.693   7.411   9.847  1.1089 -0.0042  0.0801
  224MOL0     C30146   3.841   7.407   9.825  0.0439 -0.0709  0.4699
  224MOL0     C30147   3.920   7.530   9.873 -0.2571  0.1917  0.1580
  224MOL0     C30148   4.029   7.568   9.767  0.0865  0.6096  0.2664
  224MOL0    Cl30149   4.139   7.431   9.753 -0.3423 -0.1728 -0.3039
  224MOL0     C30150   3.413   7.151  10.317 -0.0917 -0.2875 -0.4304
  224MOL0     C30151   3.285   7.146  10.372 -0.2767 -0.5683 -0.0946
  224MOL0     O30152   3.012   6.827  10.365  0.0545 -0.6886 -0.0655
  224MOL0     C30153   2.742   6.905  10.410 -0.4195  0.1642 -0.3428
  224MOL0     C30154   2.616   6.948  10.452 -0.0211  0.2956  0.6884
  224MOL0     N30155   1.975   7.330  10.793 -0.0152 -0.2407 -0.2193
  224MOL0     N30156   1.930   7.278  10.906  0.3426 -0.2729  0.8110
  224MOL0     C30157   0.880   7.082  11.031 -0.3527  0.6283  0.3248
  224MOL0     C30158   0.757   7.049  10.986  0.0159 -0.0110  0.0718
  224MOL0     C30159   0.350   6.932  10.971 -0.1316 -0.4704 -0.2519
  224MOL0     C30160   0.252   6.891  11.057  0.9145  0.1644  0.5843
  224MOL0     C30161   0.122   6.887  11.013  0.0929 -0.8919  0.6542
  224MOL0     C30162   0.087   6.914  10.882  0.0185  0.3341 -0.1832
  224MOL0     O30163  -0.045   6.926  10.842 -0.1418  0.0263 -0.4197
  224MOL0     C30164  -0.147   6.881  10.936  0.8762  0.0329  0.3689
  224MOL0     C30165  -0.284   6.871  10.861  0.5633 -1.1634 -0.5393
  224MOL0     C30166  -0.406   6.850  10.954  0.0632 -0.1226  0.4838
  224MOL0     C30167  -0.452   6.701  10.960 -0.0340 -0.2366  0.3657
  224MOL0     C30168  -0.576   6.693  11.030  0.3552 -0.1313 -0.0535
  224MOL0     C30169  -0.676   6.663  11.092  0.0404 -0.7886 -0.3324
  224MOL0     C30170   0.180   6.969  10.797 -1.0273 -0.5614 -0.5213
  224MOL0     C30171   0.314   6.973  10.844  0.5790  0.4040  0.9844
  224MOL0     C30172   0.418   7.045  10.759  0.2860 -0.3383  0.5720
  224MOL0     H30173   0.762   6.706  11.025 -2.4088  0.5599  2.8077
  224MOL0     H30174   0.996   6.773  11.116  2.7004  1.5961 -0.2412
  224MOL0     H30175   1.264   6.999  11.212 -1.0700 -0.0601  2.5214
  224MOL0     H30176   1.177   6.846  11.204 -2.5137 -0.3584 -1.7033
  224MOL0     H30177   1.248   7.024  10.966 -0.5427 -0.5883  0.7351
  224MOL0     H30178   1.178   6.856  10.955  0.7897  0.2829 -2.2421
  224MOL0     H30179   1.394   6.809  10.910 -1.6601 -0.0350 -0.8618
  224MOL0     H30180   1.381   6.802  11.091  0.2028  0.2479 -0.0647
  224MOL0     H30181   1.500   7.012  10.900 -1.5172  0.9747  1.1686
  224MOL0     H30182   1.479   7.049  11.076 -0.9642 -0.1524  1.0688
  224MOL0     H30183   1.640   6.870  11.136  2.0331 -1.8799 -1.5439
  224MOL0     H30184   1.654   6.818  10.972 -1.0911 -1.1739  0.6205
  224MOL0     H30185   1.721   7.050  10.915  1.1364 -0.5016 -0.2402
  224MOL0     H30186   1.723   7.098  11.087  0.6143  0.5114  0.2300
  224MOL0     H30187   1.906   6.899  10.954 -0.4075 -0.0108 -0.3602
  224MOL0     H30188   1.875   6.911  11.135  1.7428 -0.2407  0.0844
  224MOL0     H30189   1.927   7.163  11.129  2.6057  2.4120 -0.0169
  224MOL0     H30190   2.061   7.046  11.088  0.1641  1.7528  0.5286
  224MOL0     H30191   2.155   7.050  10.817 -0.1024  0.7006 -1.0607
  224MOL0     H30192   2.135   7.166  10.578 -1.5518  0.2717 -0.8761
  224MOL0     H30193   2.072   7.333  10.557 -0.5873 -0.2894  0.1236
  224MOL0     H30194   2.263   7.432  10.644 -2.7539 -0.1305  0.3301
  224MOL0     H30195   2.327   7.289  10.713 -1.2878 -1.8561 -0.1965
  224MOL0     H30196   2.461   7.354  10.526  0.7984 -1.9313  0.9176
  224MOL0     H30197   2.324   7.371  10.414  0.5848  2.2160 -0.2115
  224MOL0     H30198   2.447   7.170  10.361  0.9012  3.0537  0.3640
  224MOL0     H30199   2.303   7.107  10.445 -0.0393  1.7625 -0.5207
  224MOL0     H30200   2.683   7.238  10.605 -0.8705 -0.3838 -0.6395
  224MOL0     H30201   2.913   7.177  10.541 -1.7372  0.1080  2.2365
  224MOL0     H30202   3.245   6.807  10.377  2.1849 -1.6478 -0.4097
  224MOL0     H30203   3.468   6.805  10.311 -0.6668 -0.5988  0.7733
  224MOL0     H30204   3.715   6.953  10.076  0.1647  0.5387  1.0577
  224MOL0     H30205   3.554   6.890  10.094 -0.8713 -0.9791 -0.0732
  224MOL0     H30206   3.547   7.035   9.907  2.2674 -1.6399  0.8733
  224MOL0     H30207   3.466   7.138  10.029 -0.1430  1.1841 -2.8056
  224MOL0     H30208   3.657   7.274  10.076  1.9737 -0.8714  0.1578
  224MOL0     H30209   3.759   7.160   9.980 -0.0542 -1.9809 -0.3827
  224MOL0     H30210   3.516   7.298   9.864 -0.2902  1.5361 -1.1143
  224MOL0     H30211   3.646   7.215   9.778  0.1066  2.3249 -1.9319
  224MOL0     H30212   3.671   7.476   9.932  1.4293 -0.5758  0.6087
  224MOL0     H30213   3.650   7.457   9.758  2.9687  1.9570  0.1148
  224MOL0     H30214   3.875   7.310   9.863 -1.3383 -1.3191 -1.3318
  224MOL0     H30215   3.862   7.395   9.719  0.7349 -0.4858  0.6462
  224MOL0     H30216   3.955   7.518   9.976  0.2419  2.6736  0.3531
  224MOL0     H30217   3.846   7.611   9.871 -2.6004 -1.7966 -2.5763
  224MOL0     H30218   3.983   7.578   9.669 -0.1624  0.7682  0.4017
  224MOL0     H30219   4.081   7.661   9.790  0.4558  0.3955  0.3133
  224MOL0     H30220   3.457   7.247  10.289  1.0020 -0.6689 -0.0816
  224MOL0     H30221   3.233   7.240  10.389 -0.0469  0.0814 -2.5028
  224MOL0     H30222   2.762   6.807  10.369 -2.2989 -0.0656 -0.8370
  224MOL0     H30223   2.534   6.887  10.416  2.2969 -1.0484 -2.7747
  224MOL0     H30224   0.916   7.184  11.023 -1.6971  1.2092  1.3654
  224MOL0     H30225   0.691   7.120  10.938 -1.0126 -0.7155  0.4143
  224MOL0     H30226   0.267   6.876  11.164 -0.0785  0.9630  0.8585
  224MOL0     H30227   0.043   6.864  11.084 -0.8157  1.0147  0.3142
  224MOL0     H30228  -0.158   6.954  11.016  1.4352  1.4232 -0.7812
  224MOL0     H30229  -0.128   6.784  10.984 -0.2708  0.6857  2.2141
  224MOL0     H30230  -0.286   6.785  10.793 -1.9540 -0.6619 -1.1939
  224MOL0     H30231  -0.296   6.966  10.808 -2.1835  2.1141  5.0586
  224MOL0     H30232  -0.490   6.909  10.917 -1.4387 -0.5146  3.0658
  224MOL0     H30233  -0.381   6.892  11.052  0.2006 -0.3347  0.5415
  224MOL0     H30234  -0.470   6.669  10.857  0.0805  0.6571  0.0621
  224MOL0     H30235  -0.374   6.647  11.015  2.8794  2.3048 -0.9925
  224MOL0     H30236  -0.760   6.632  11.151 -0.5251  2.3173  0.6852
  224MOL0     H30237   0.141   7.009  10.704 -1.1208 -1.0502 -0.6905
  224MOL0     H30238   0.381   7.091  10.668 -1.0788 -1.1122  0.7087
  224MOL0     H30239   0.463   7.120  10.825 -3.0480  0.3659  2.2513
  224MOL0     H30240   0.494   6.970  10.731 -1.9491 -1.8920 -1.7457
  225MOL0     O30241   6.084   8.844  10.102 -0.9343 -0.0640 -0.4989
  225MOL0     C30242   6.002   8.938  10.085 -0.6741 -0.5567 -0.6522
  225MOL0     O30243   6.015   9.067  10.120 -0.0115  0.1896 -0.3673
  225MOL0     C30244   6.126   9.109  10.191 -0.4132 -0.2190  0.6899
  225MOL0     C30245   6.259   9.082  10.135 -0.7882 -0.0211 -1.1605
  225MOL0     C30246   6.369   9.141  10.207 -0.3875  0.1382 -0.7126
  225MOL0     C30247   6.348   9.209  10.334  0.0470 -0.0337 -0.9011
  225MOL0     O30248   6.453   9.284  10.393 -0.0576 -0.0535 -0.0193
  225MOL0     C30249   6.588   9.308  10.343 -0.1958  0.0106  1.2559
  225MOL0     C30250   6.663   9.417  10.428 -0.3775 -1.1711 -0.8467
  225MOL0     C30251   6.588   9.549  10.450  0.3694  0.3027 -0.8906
  225MOL0     C30252   6.558   9.611  10.321 -1.1511 -0.2352  0.4920
  225MOL0     C30253   6.495   9.747  10.359  0.4519  0.4131  0.3789
  225MOL0     C30254   6.413   9.813  10.258 -0.0457  0.1024  0.0498
  225MOL0     C30255   6.493   9.856  10.137 -0.5814 -0.1283 -0.6558
  225MOL0     C30256   6.619   9.936  10.161 -0.4405  0.5060 -0.1654
  225MOL0     N30257   6.715   9.905  10.058  0.8196 -0.0649 -0.2015
  225MOL0     C30258   6.698   9.906   9.920 -0.0914 -0.1214  1.0183
  225MOL0     C30259   6.819   9.864   9.876 -0.3374  0.1289  0.3011
  225MOL0     C30260   6.867   9.853   9.733 -0.0708  0.6479 -0.3086
  225MOL0     C30261   6.970   9.961   9.690 -0.0262 -0.2431 -0.9728
  225MOL0     C30262   7.038   9.941   9.557  0.6863 -0.7195  0.3711
  225MOL0     C30263   7.156  10.037   9.537  0.0304  0.1022  0.6056
  225MOL0     O30264   7.225   9.989   9.424  0.0868  0.6803 -0.2290
  225MOL0     C30265   7.339  10.055   9.383 -0.2014 -0.8839 -0.0569
  225MOL0     C30266   7.420  10.119   9.472  0.2862  0.0470 -0.7457
  225MOL0     C30267   7.543  10.176   9.441  0.1270  0.6179 -0.2393
  225MOL0     C30268   7.585  10.183   9.306  0.1495 -0.4089  1.0196
  225MOL0     C30269   7.719  10.243   9.258  0.0570  0.8799 -0.4102
  225MOL0     O30270   7.742  10.265   9.122  0.4912  0.5209  0.5650
  225MOL0     C30271   7.869  10.297   9.075  0.6354  0.0320 -0.4955
  225MOL0     C30272   7.986  10.248   9.133 -0.1040  0.1082 -0.2361
  225MOL0     C30273   8.115  10.291   9.081 -0.2421 -0.7022  0.3648
  225MOL0     C30274   8.125  10.370   8.967 -0.3225  0.1969  0.0239
  225MOL0     O30275   8.252  10.408   8.921 -0.7603 -0.1962 -0.2730
  225MOL0     C30276   8.282  10.489   8.811 -0.3064  0.2021  0.4492
  225MOL0     C30277   8.433  10.528   8.802  0.1695  0.4028  1.0122
  225MOL0     C30278   8.462  10.624   8.914 -0.1853 -0.1726 -0.0611
  225MOL0     C30279   8.559  10.737   8.866 -0.2497 -0.1121 -0.0216
  225MOL0     C30280   8.589  10.847   8.968  0.7984  0.3527 -1.0900
  225MOL0     C30281   8.642  10.783   9.107 -0.1523 -0.2913 -0.0799
  225MOL0     C30282   8.633  10.874   9.229 -0.6431  0.6484  0.2577
  225MOL0     C30283   8.721  10.993   9.231 -0.5936  0.4445 -0.3181
  225MOL0    Cl30284   8.739  11.060   9.388 -0.0939 -0.1256 -0.0890
  225MOL0     C30285   8.001  10.396   8.903  0.4174 -0.0965  0.6554
  225MOL0     C30286   7.872  10.366   8.955  0.2363  0.3942  0.2482
  225MOL0     O30287   7.789  10.276   9.353  0.5770 -0.2830  0.4512
  225MOL0     C30288   7.497  10.132   9.212 -0.0185  0.5887 -0.4350
  225MOL0     C30289   7.379  10.060   9.243  0.3805 -0.4760  0.2474
  225MOL0     N30290   6.890   9.816   9.981 -0.3099  0.7229 -0.6161
  225MOL0     N30291   6.828   9.844  10.088  0.0422 -0.0838 -0.5244
  225MOL0     C30292   6.215   9.212  10.383 -0.7224 -0.7425  0.4844
  225MOL0     C30293   6.106   9.170  10.310 -0.0386 -0.3168 -0.7042
  225MOL0     C30294   5.877   8.915  10.010  0.7192 -0.4137  0.5785
  225MOL0     C30295   5.750   8.963  10.057 -0.2787 -0.0000 -0.2980
  225MOL0     C30296   5.630   8.949   9.982  0.2581  0.1913  0.4073
  225MOL0     C30297   5.639   8.910   9.852  0.7750 -0.6223 -0.1221
  225MOL0     O30298   5.521   8.904   9.774 -0.1962  0.0604  0.1756
  225MOL0     C30299   5.463   8.775   9.758 -0.0618 -0.2738 -0.1664
  225MOL0     C30300   5.328   8.780   9.825  0.1996 -0.0803  0.7420
  225MOL0     C30301   5.249   8.647   9.842  0.1190 -0.0635 -0.0545
  225MOL0     C30302   5.113   8.660   9.913  0.2012  0.0404 -0.2004
  225MOL0     C30303   5.121   8.680  10.058 -0.9446  0.1192 -1.8242
  225MOL0     C30304   5.129   8.693  10.176 -0.1841 -0.6207 -0.3288
  225MOL0     C30305   5.755   8.863   9.807 -1.3643 -0.4080  0.5981
  225MOL0     C30306   5.875   8.870   9.874 -0.2485  0.5603  0.3153
  225MOL0     C30307   6.002   8.822   9.816 -0.4702 -0.0204  0.5247
  225MOL0     H30308   6.283   9.012  10.056  3.0477 -0.1112 -0.1505
  225MOL0     H30309   6.471   9.128  10.170  0.2949  0.5324  0.9335
  225MOL0     H30310   6.643   9.214  10.344 -0.6084 -0.2782 -0.6091
  225MOL0     H30311   6.574   9.341  10.240 -2.0110  0.3530  1.5865
  225MOL0     H30312   6.759   9.444  10.383 -0.7469 -0.2149 -1.0854
  225MOL0     H30313   6.677   9.365  10.524  2.2789  2.8811  1.2689
  225MOL0     H30314   6.658   9.615  10.502 -0.6374  1.2320 -0.6720
  225MOL0     H30315   6.496   9.518  10.502  0.7352 -1.9147 -1.4520
  225MOL0     H30316   6.648   9.628  10.260 -2.2141 -1.1938 -1.4624
  225MOL0     H30317   6.490   9.560  10.252 -0.4636 -1.1497  0.4770
  225MOL0     H30318   6.426   9.724  10.440 -0.2755  3.5515  0.7566
  225MOL0     H30319   6.569   9.809  10.412 -0.1039 -0.0275  1.7187
  225MOL0     H30320   6.345   9.741  10.211  0.3021  1.6182 -3.0079
  225MOL0     H30321   6.356   9.890  10.311  1.7784  0.2104  1.9727
  225MOL0     H30322   6.437   9.916  10.065 -1.3051  1.0630  0.8288
  225MOL0     H30323   6.522   9.767  10.080 -0.1146  0.6253 -1.6313
  225MOL0     H30324   6.600  10.044  10.152 -0.1017  0.5654 -0.1783
  225MOL0     H30325   6.664   9.905  10.255  2.3025  2.7795 -0.5948
  225MOL0     H30326   6.617   9.932   9.853  1.0168 -2.5667 -1.5123
  225MOL0     H30327   6.910   9.754   9.719 -2.6724 -0.4064 -1.5037
  225MOL0     H30328   6.775   9.861   9.674 -0.2252 -0.2357 -0.2060
  225MOL0     H30329   6.921  10.059   9.693  1.6895  0.7253  3.5796
  225MOL0     H30330   7.047   9.979   9.766 -0.4850 -0.5580 -0.4212
  225MOL0     H30331   6.969   9.955   9.474  1.4534 -0.8887 -0.2979
  225MOL0     H30332   7.079   9.840   9.545 -2.1852 -1.7725 -1.8762
  225MOL0     H30333   7.224  10.038   9.623 -0.5103 -0.4859  1.0534
  225MOL0     H30334   7.111  10.136   9.520 -0.9604 -0.7394 -2.1998
  225MOL0     H30335   7.390  10.107   9.576  0.0673 -1.1691 -0.9465
  225MOL0     H30336   7.609  10.200   9.524  1.6158  0.2403 -1.2745
  225MOL0     H30337   7.983  10.184   9.220  0.3198  1.2913  0.6811
  225MOL0     H30338   8.212  10.255   9.113 -0.1147 -0.9640 -0.2901
  225MOL0     H30339   8.236  10.452   8.719  2.3188  2.6985 -2.0655
  225MOL0     H30340   8.235  10.586   8.828  1.0978  1.1049 -0.5911
  225MOL0     H30341   8.493  10.437   8.788 -0.5350  0.2211 -1.1996
  225MOL0     H30342   8.453  10.580   8.708 -1.2689 -1.2173 -0.2624
  225MOL0     H30343   8.375  10.674   8.958 -0.7167  0.6197 -1.9008
  225MOL0     H30344   8.500  10.560   8.994 -0.8588 -1.9365 -1.0899
  225MOL0     H30345   8.510  10.778   8.777 -0.4085  0.7421  0.4516
  225MOL0     H30346   8.657  10.696   8.842  1.4415  2.0065  2.6725
  225MOL0     H30347   8.499  10.904   8.989  0.4883 -0.6431  0.4820
  225MOL0     H30348   8.667  10.909   8.924  0.0942  1.7757 -0.3788
  225MOL0     H30349   8.589  10.692   9.137 -0.9439 -0.3497 -1.5883
  225MOL0     H30350   8.750  10.770   9.102 -0.1098 -0.2592  0.5993
  225MOL0     H30351   8.665  10.815   9.316 -1.3796  0.7429  0.6007
  225MOL0     H30352   8.529  10.900   9.250 -1.3858 -1.3658 -0.7248
  225MOL0     H30353   8.817  10.968   9.186 -1.1289 -1.2716 -0.6101
  225MOL0     H30354   8.680  11.069   9.164  1.8081 -0.9907 -3.7015
  225MOL0     H30355   8.005  10.457   8.814 -1.2182  1.2517  1.4552
  225MOL0     H30356   7.777  10.379   8.906  1.3232  0.2142 -2.0642
  225MOL0     H30357   7.529  10.130   9.108  0.3439  1.4751 -0.3470
  225MOL0     H30358   7.317  10.015   9.166  0.4864 -1.7469  0.8870
  225MOL0     H30359   6.206   9.272  10.473  1.9408 -1.8396  1.5791
  225MOL0     H30360   6.006   9.193  10.345  0.1013  1.2729 -1.2386
  225MOL0     H30361   5.739   9.013  10.153  2.2349  1.1132 -0.5217
  225MOL0     H30362   5.539   8.982  10.032 -0.1438 -0.5142  0.1654
  225MOL0     H30363   5.532   8.710   9.813  2.9433  1.6533 -1.3450
  225MOL0     H30364   5.457   8.751   9.652  0.1088 -0.2043 -0.1922
  225MOL0     H30365   5.272   8.845   9.757  1.9011 -0.7933 -1.4454
  225MOL0     H30366   5.335   8.828   9.923 -0.3718  0.9505  0.3005
  225MOL0     H30367   5.311   8.573   9.893  1.6428  0.9584 -0.3485
  225MOL0     H30368   5.238   8.611   9.739  2.0188 -1.2766  0.1069
  225MOL0     H30369   5.064   8.750   9.876  0.0286  0.7686  1.6762
  225MOL0     H30370   5.053   8.571   9.893  1.4133 -0.6524 -0.8151
  225MOL0     H30371   5.129   8.708  10.282 -1.7009 -2.0999 -0.0627
  225MOL0     H30372   5.748   8.836   9.702 -0.2264  1.4811 -0.0221
  225MOL0     H30373   5.979   8.766   9.724 -1.1925 -0.2686  0.8485
  225MOL0     H30374   6.069   8.907   9.797 -1.4625  1.0232  1.5308
  225MOL0     H30375   6.042   8.745   9.882  0.6699  0.4672  0.4343
  226MOL0     O30376   4.236   5.105   8.964  0.4414 -0.3019 -0.0929
  226MOL0     C30377   4.197   5.009   9.036 -0.3614 -0.8871  0.1617
  226MOL0     O30378   4.267   4.950   9.132  0.3796  0.7893  0.1285
  226MOL0     C30379   4.400   4.975   9.143 -0.0156 -0.3462 -0.3281
  226MOL0     C30380   4.439   5.056   9.258 -0.7231 -0.1051  1.1418
  226MOL0     C30381   4.576   5.079   9.277  0.3915  0.5797  0.4487
  226MOL0     C30382   4.668   5.031   9.188 -0.3214 -0.1697 -0.7488
  226MOL0     O30383   4.797   5.052   9.224 -1.0653 -0.1487  0.3632
  226MOL0     C30384   4.906   4.979   9.156  0.3926 -0.1093 -1.1200
  226MOL0     C30385   5.031   5.037   9.224  0.8864  0.6143  0.0176
  226MOL0     C30386   5.070   5.159   9.140 -0.4650 -0.0473 -0.1537
  226MOL0     C30387   5.206   5.227   9.167 -1.0413 -0.4552  0.8718
  226MOL0     C30388   5.234   5.268   9.309  0.1379  0.1483  0.6909
  226MOL0     C30389   5.335   5.385   9.328 -0.1716  0.1980  0.1942
  226MOL0     C30390   5.469   5.337   9.269  0.0694 -1.1158  0.0015
  226MOL0     C30391   5.589   5.392   9.345  0.5770 -0.8716  0.1808
  226MOL0     N30392   5.692   5.298   9.308 -0.3157  0.0722 -0.2874
  226MOL0     C30393   5.773   5.313   9.196 -0.7734  0.5068 -0.3245
  226MOL0     C30394   5.863   5.205   9.213  0.8430 -0.0863  0.2219
  226MOL0     C30395   5.975   5.162   9.132  0.0159 -0.0432  0.9582
  226MOL0     C30396   6.108   5.210   9.178  0.7453 -0.3609 -0.4569
  226MOL0     C30397   6.216   5.147   9.090  0.8685  0.2136 -0.1521
  226MOL0     C30398   6.347   5.207   9.115 -0.7811 -0.8892  0.4995
  226MOL0     O30399   6.426   5.133   9.018 -0.7565  0.4140 -0.3467
  226MOL0     C30400   6.564   5.145   9.033 -0.4168  0.5929  0.2322
  226MOL0     C30401   6.646   5.099   8.934 -0.2291 -1.1336  0.6649
  226MOL0     C30402   6.785   5.108   8.940  0.8770  0.3727 -0.5833
  226MOL0     C30403   6.842   5.156   9.054 -0.5576 -0.1081  0.0447
  226MOL0     C30404   6.981   5.186   9.064 -0.2569  0.3937 -0.0043
  226MOL0     O30405   7.033   5.227   9.191  0.2385 -0.6096  0.0313
  226MOL0     C30406   7.161   5.266   9.193  0.2509  0.2336 -0.2369
  226MOL0     C30407   7.278   5.191   9.148  0.4538 -0.5747 -0.3447
  226MOL0     C30408   7.406   5.240   9.160  0.5677  0.3370 -0.8070
  226MOL0     C30409   7.431   5.376   9.196  0.5832  0.3318 -0.0305
  226MOL0     O30410   7.548   5.436   9.213 -0.0352  0.1579  0.3453
  226MOL0     C30411   7.671   5.360   9.181  0.5023 -0.2736 -0.2514
  226MOL0     C30412   7.807   5.425   9.232  0.6175 -0.0609  0.1400
  226MOL0     C30413   7.939   5.336   9.214  1.3627 -0.0522  0.4845
  226MOL0     C30414   8.059   5.415   9.263  0.2454 -0.3750  0.9602
  226MOL0     C30415   8.189   5.337   9.279  0.3249  0.2600 -0.1658
  226MOL0     C30416   8.305   5.411   9.349  0.4818 -0.2852  0.1700
  226MOL0     C30417   8.440   5.335   9.360 -0.0416 -0.3172  0.2222
  226MOL0     C30418   8.431   5.195   9.432  0.0071 -0.0515 -0.1080
  226MOL0    Cl30419   8.583   5.107   9.421  0.6972 -0.3409 -0.3623
  226MOL0     C30420   7.319   5.451   9.222  0.9608  0.9273  0.5276
  226MOL0     C30421   7.186   5.399   9.226  0.4449  0.0725  0.4870
  226MOL0     O30422   7.049   5.171   8.961 -0.8163 -0.7157  0.0674
  226MOL0     C30423   6.763   5.208   9.159  0.9823 -0.1391  0.1299
  226MOL0     C30424   6.626   5.209   9.144  0.1016 -0.1642  0.3892
  226MOL0     N30425   5.820   5.138   9.328 -0.2555 -0.0068  0.1707
  226MOL0     N30426   5.715   5.190   9.382  0.9534 -0.6608  1.2392
  226MOL0     C30427   4.623   4.962   9.083 -0.0404  1.0574  0.4420
  226MOL0     C30428   4.494   4.934   9.057  0.1498  0.1180  0.3427
  226MOL0     C30429   4.064   4.948   9.003 -1.0149  0.2138 -0.2696
  226MOL0     C30430   4.021   4.852   9.084 -0.4096  0.3800 -0.7133
  226MOL0     C30431   3.898   4.787   9.071  0.3228  0.1407  0.5573
  226MOL0     C30432   3.815   4.827   8.962  0.0843  0.6298  0.6343
  226MOL0     O30433   3.699   4.763   8.957 -0.0990  0.5914 -0.0275
  226MOL0     C30434   3.621   4.752   8.839  0.4251  0.0183 -1.0264
  226MOL0     C30435   3.490   4.823   8.866 -0.0992 -0.0990 -0.7826
  226MOL0     C30436   3.401   4.756   8.966  0.3911  0.1445  0.3422
  226MOL0     C30437   3.324   4.633   8.917  0.5612 -0.0501  0.2130
  226MOL0     C30438   3.233   4.603   9.024  0.9499 -0.3594  0.1636
  226MOL0     C30439   3.178   4.567   9.122 -0.4634  1.2154  0.0837
  226MOL0     C30440   3.854   4.935   8.885  0.2293  0.0472  0.7459
  226MOL0     C30441   3.972   5.000   8.907 -0.1927 -0.0467 -0.7050
  226MOL0     C30442   3.985   5.126   8.833  0.1320  0.3257 -0.2383
  226MOL0     H30443   4.353   5.093   9.314  0.9284  2.0841  2.3921
  226MOL0     H30444   4.614   5.123   9.369  2.9623  1.6032 -1.0210
  226MOL0     H30445   4.896   4.877   9.192 -0.6725  0.1874 -0.5280
  226MOL0     H30446   4.908   4.992   9.047  0.5732  0.0270 -1.1017
  226MOL0     H30447   5.112   4.964   9.215  0.7231  0.4652 -0.2482
  226MOL0     H30448   5.018   5.057   9.331 -0.0765  1.2399 -0.1993
  226MOL0     H30449   4.999   5.236   9.171 -1.1262 -1.4017  1.8539
  226MOL0     H30450   5.068   5.138   9.032  1.3134  1.0935 -0.4526
  226MOL0     H30451   5.292   5.166   9.138  0.3497  1.8695 -0.2745
  226MOL0     H30452   5.221   5.317   9.106  2.7914 -0.6483  1.2457
  226MOL0     H30453   5.136   5.298   9.350 -0.2321  0.0654 -0.1170
  226MOL0     H30454   5.255   5.179   9.369 -2.2407 -1.8892 -1.2766
  226MOL0     H30455   5.294   5.471   9.275 -5.6813 -0.0597  3.2538
  226MOL0     H30456   5.342   5.404   9.436 -0.3178  0.8457  0.0935
  226MOL0     H30457   5.476   5.379   9.168  0.4634  1.9009  1.1692
  226MOL0     H30458   5.483   5.229   9.265  0.6636 -1.1627  2.1506
  226MOL0     H30459   5.604   5.495   9.311  2.8231 -1.7659 -1.8635
  226MOL0     H30460   5.570   5.379   9.452  1.3981 -1.9179  0.2181
  226MOL0     H30461   5.772   5.396   9.125 -0.3812  1.7786  1.1019
  226MOL0     H30462   5.978   5.053   9.126 -0.6409 -0.0622  0.9699
  226MOL0     H30463   5.959   5.203   9.032  5.1183  2.2749  0.7793
  226MOL0     H30464   6.120   5.318   9.190 -1.7250  0.2027 -2.2231
  226MOL0     H30465   6.118   5.167   9.278 -0.2282 -0.7314 -0.5138
  226MOL0     H30466   6.175   5.156   8.989 -1.0748 -0.7596  0.4797
  226MOL0     H30467   6.211   5.041   9.114  0.2521  0.2770  0.0194
  226MOL0     H30468   6.374   5.187   9.219 -0.2040 -0.0360  0.5184
  226MOL0     H30469   6.357   5.315   9.102 -1.9608 -0.5409  2.0901
  226MOL0     H30470   6.597   5.061   8.845  0.2973  0.9347 -0.5705
  226MOL0     H30471   6.848   5.069   8.862  1.3738 -0.0300  0.0103
  226MOL0     H30472   7.248   5.093   9.113 -2.2449 -0.5428  1.5103
  226MOL0     H30473   7.473   5.161   9.126  1.3391  1.0250 -0.9053
  226MOL0     H30474   7.668   5.266   9.237  0.2196  1.1711  2.2930
  226MOL0     H30475   7.673   5.336   9.074 -3.3560 -1.3765 -0.2131
  226MOL0     H30476   7.813   5.518   9.176 -1.1682 -1.0964 -1.9175
  226MOL0     H30477   7.802   5.442   9.340  0.9238 -1.5370  0.4131
  226MOL0     H30478   7.929   5.241   9.267 -0.2197  1.4743  3.1129
  226MOL0     H30479   7.946   5.321   9.105  0.2769 -0.1337  0.4145
  226MOL0     H30480   8.035   5.464   9.358  0.7421  2.5203 -0.3133
  226MOL0     H30481   8.075   5.498   9.194 -1.2074  1.6889  2.9709
  226MOL0     H30482   8.218   5.303   9.179 -1.7751 -1.2410 -0.3478
  226MOL0     H30483   8.171   5.253   9.347  0.8752  1.0200  0.9364
  226MOL0     H30484   8.302   5.489   9.272 -2.2835 -1.4108 -0.9926
  226MOL0     H30485   8.278   5.442   9.450  0.4705  1.3044 -0.2879
  226MOL0     H30486   8.519   5.392   9.407  0.6395 -1.0308 -0.0366
  226MOL0     H30487   8.470   5.317   9.256 -2.1911  0.6605 -0.6401
  226MOL0     H30488   8.399   5.210   9.535 -1.8835  0.1943 -0.6964
  226MOL0     H30489   8.349   5.136   9.391 -1.1310  1.0216  0.5506
  226MOL0     H30490   7.343   5.556   9.237 -0.6790  1.3737  0.2084
  226MOL0     H30491   7.100   5.460   9.250 -1.0127 -0.2468 -3.2066
  226MOL0     H30492   6.815   5.248   9.245  0.4846  3.1584 -0.9732
  226MOL0     H30493   6.566   5.250   9.225  1.9944 -1.6789  2.6879
  226MOL0     H30494   4.703   4.936   9.015  0.1704 -1.2584  1.4977
  226MOL0     H30495   4.467   4.877   8.968 -1.6486  0.2969  0.7310
  226MOL0     H30496   4.083   4.812   9.163  0.0550  1.0390 -0.7353
  226MOL0     H30497   3.881   4.699   9.132  0.7313  0.6886  1.4785
  226MOL0     H30498   3.610   4.645   8.820  1.7305 -0.2265 -0.4551
  226MOL0     H30499   3.661   4.797   8.748 -0.0113 -2.0680 -2.2959
  226MOL0     H30500   3.433   4.817   8.773  0.0667 -0.3273 -0.8714
  226MOL0     H30501   3.514   4.927   8.889  1.1749 -0.2891 -1.1470
  226MOL0     H30502   3.339   4.840   8.999 -0.2162  0.4086 -1.3595
  226MOL0     H30503   3.466   4.733   9.051 -1.5942 -0.1159  1.8778
  226MOL0     H30504   3.267   4.654   8.826  0.3120  1.8204  0.7631
  226MOL0     H30505   3.388   4.545   8.914 -0.1836 -0.5951 -0.0880
  226MOL0     H30506   3.125   4.533   9.209  2.1442 -0.9631  0.9769
  226MOL0     H30507   3.776   4.970   8.817 -0.7772 -2.2242  0.6181
  226MOL0     H30508   4.048   5.103   8.747  0.9485 -0.4988  0.5531
  226MOL0     H30509   3.887   5.164   8.806  0.2079  0.6891 -0.0156
  226MOL0     H30510   4.046   5.204   8.880  1.2829 -0.9938  0.5635
  227MOL0     O30511   4.302   1.381   8.431  0.1791  0.0463 -0.2437
  227MOL0     C30512   4.393   1.362   8.511  0.7233 -0.7812 -0.7535
  227MOL0     O30513   4.480   1.263   8.514 -0.0716 -0.6174 -0.1259
  227MOL0     C30514   4.475   1.180   8.401  0.4305  0.1652  0.1061
  227MOL0     C30515   4.540   1.205   8.281 -0.5494 -0.1941 -1.0042
  227MOL0     C30516   4.521   1.126   8.168  0.2925  0.0950 -0.2572
  227MOL0     C30517   4.437   1.014   8.184  0.2815  0.2771  0.1218
  227MOL0     O30518   4.407   0.943   8.074 -1.5269  0.2300 -0.3206
  227MOL0     C30519   4.316   0.830   8.077 -0.4893  0.8570 -0.6216
  227MOL0     C30520   4.318   0.772   7.930  0.3502 -0.4048 -1.0134
  227MOL0     C30521   4.446   0.695   7.891 -0.1440 -0.1828 -1.0425
  227MOL0     C30522   4.460   0.651   7.742 -0.2253  0.0582 -0.1085
  227MOL0     C30523   4.344   0.552   7.690 -0.0765  0.0504  0.1068
  227MOL0     C30524   4.374   0.501   7.548  0.6981  0.4015 -0.1732
  227MOL0     C30525   4.272   0.385   7.518 -0.2473 -0.5726  0.3705
  227MOL0     C30526   4.293   0.306   7.390 -0.5731 -0.0114 -0.2163
  227MOL0     N30527   4.403   0.211   7.398 -0.6882  0.2897  1.0637
  227MOL0     C30528   4.513   0.215   7.311 -2.0716 -0.5270 -0.2377
  227MOL0     C30529   4.578   0.098   7.318 -0.7074  0.0710 -0.1362
  227MOL0     C30530   4.693   0.049   7.231  0.2851 -0.0807  0.4402
  227MOL0     C30531   4.642   0.065   7.081  0.0257 -0.2426  0.2928
  227MOL0     C30532   4.770   0.085   6.989  0.2173  0.0097  0.4096
  227MOL0     C30533   4.721   0.114   6.855  0.4572 -0.4592 -0.5482
  227MOL0     O30534   4.650   0.247   6.853 -0.4324  0.0061 -0.2589
  227MOL0     C30535   4.728   0.357   6.837  0.3912  0.0496 -0.3109
  227MOL0     C30536   4.661   0.482   6.833 -0.7000 -0.9055 -0.3503
  227MOL0     C30537   4.739   0.602   6.816  1.0944 -0.7897 -0.3137
  227MOL0     C30538   4.875   0.605   6.809  0.6681 -0.1284 -0.6131
  227MOL0     C30539   4.950   0.736   6.794  0.1506  0.3229  0.5666
  227MOL0     O30540   5.082   0.741   6.801 -0.8497 -0.2592 -0.1467
  227MOL0     C30541   5.146   0.850   6.743  0.3103 -0.2094  0.9032
  227MOL0     C30542   5.206   0.938   6.838  0.1210  0.1172  0.3997
  227MOL0     C30543   5.269   1.053   6.794 -0.4578  0.1208 -0.7376
  227MOL0     C30544   5.292   1.074   6.662  0.2459 -0.3107  0.9646
  227MOL0     O30545   5.360   1.190   6.612 -0.0541 -0.2903  0.3669
  227MOL0     C30546   5.454   1.161   6.509 -0.2322  0.0200  0.6142
  227MOL0     C30547   5.561   1.056   6.546 -0.2927 -0.0013 -0.4718
  227MOL0     C30548   5.626   1.091   6.681  0.3561 -0.3604  0.2437
  227MOL0     C30549   5.755   1.022   6.707 -0.1358  0.4478 -0.5320
  227MOL0     C30550   5.829   1.056   6.845 -0.2321  0.0439 -0.1234
  227MOL0     C30551   5.948   0.976   6.879 -0.4211 -0.4849 -0.1370
  227MOL0     C30552   6.051   1.008   6.777  0.0618 -1.2083 -0.0714
  227MOL0     C30553   6.191   0.966   6.826 -1.6480  0.0205  0.3638
  227MOL0    Cl30554   6.248   1.056   6.974 -0.1715 -0.3295  0.4976
  227MOL0     C30555   5.229   0.989   6.568  0.3916  0.7793  0.0074
  227MOL0     C30556   5.152   0.883   6.608 -0.0905  0.1064 -0.3206
  227MOL0     O30557   4.881   0.835   6.761 -0.4170  0.0017 -0.3549
  227MOL0     C30558   4.937   0.485   6.816 -0.7583  0.0901 -0.0035
  227MOL0     C30559   4.865   0.362   6.820 -0.2500  0.8726  0.0477
  227MOL0     N30560   4.516   0.025   7.422 -0.4661  0.0148  0.1800
  227MOL0     N30561   4.418   0.095   7.469  0.1060  0.5690  0.3667
  227MOL0     C30562   4.360   0.986   8.300 -0.5805  0.3532  0.1619
  227MOL0     C30563   4.387   1.067   8.407  0.0084 -0.2945 -0.6230
  227MOL0     C30564   4.408   1.446   8.631  0.1929 -0.4355 -0.1437
  227MOL0     C30565   4.543   1.454   8.675 -0.6293  0.0474 -0.4610
  227MOL0     C30566   4.566   1.524   8.801 -0.5019  0.1838  1.2279
  227MOL0     C30567   4.465   1.572   8.880 -0.0436  0.3046 -0.7094
  227MOL0     O30568   4.500   1.620   9.010  0.0534  0.2154 -0.0391
  227MOL0     C30569   4.397   1.671   9.101 -0.0780 -0.8833  0.5926
  227MOL0     C30570   4.484   1.753   9.200 -0.3571  0.2498  0.1341
  227MOL0     C30571   4.396   1.808   9.316 -0.0808 -0.3473 -0.0127
  227MOL0     C30572   4.476   1.880   9.424  0.2241  0.3257  0.6344
  227MOL0     C30573   4.580   1.793   9.474 -0.1608 -0.5248  0.1294
  227MOL0     C30574   4.676   1.719   9.495  0.2947  0.3985 -0.3278
  227MOL0     C30575   4.334   1.564   8.824  1.0094 -0.0490  0.2435
  227MOL0     C30576   4.301   1.512   8.699  0.3523  0.2396 -0.7246
  227MOL0     C30577   4.159   1.518   8.645 -0.7574 -0.3832 -0.4338
  227MOL0     H30578   4.609   1.289   8.286 -1.3866  0.6058 -2.2247
  227MOL0     H30579   4.566   1.151   8.072 -1.0664  1.2478 -0.6274
  227MOL0     H30580   4.349   0.749   8.143  0.5063  1.1421 -0.7499
  227MOL0     H30581   4.220   0.864   8.115 -0.8819 -0.5772 -0.2971
  227MOL0     H30582   4.310   0.860   7.866  0.9157 -1.2670 -2.3009
  227MOL0     H30583   4.228   0.714   7.911  0.9831 -0.5045 -4.1983
  227MOL0     H30584   4.463   0.603   7.947  1.5697  0.2411 -0.8141
  227MOL0     H30585   4.528   0.763   7.917 -1.9792  1.3657  1.0588
  227MOL0     H30586   4.471   0.738   7.678  1.8515 -0.4654 -0.5313
  227MOL0     H30587   4.555   0.597   7.736 -0.5836 -0.5592 -0.4323
  227MOL0     H30588   4.342   0.472   7.764  2.4645 -0.7951 -0.6288
  227MOL0     H30589   4.244   0.597   7.686 -0.2645 -0.1831  1.6130
  227MOL0     H30590   4.352   0.576   7.471  0.2738  1.3091  0.8196
  227MOL0     H30591   4.478   0.470   7.539  0.8725  0.3180  1.7900
  227MOL0     H30592   4.168   0.416   7.504  0.3214  1.1284 -0.3620
  227MOL0     H30593   4.273   0.310   7.598 -0.1578  0.6571  1.5676
  227MOL0     H30594   4.199   0.249   7.399 -2.7985  3.3405 -0.4023
  227MOL0     H30595   4.295   0.371   7.302  1.0303 -0.0817 -0.2525
  227MOL0     H30596   4.538   0.296   7.243  1.1326 -1.6670 -0.6027
  227MOL0     H30597   4.781   0.112   7.250  0.7071 -1.4393  3.4090
  227MOL0     H30598   4.735  -0.052   7.234 -0.6103 -0.4580  0.6212
  227MOL0     H30599   4.584  -0.023   7.048 -0.4862  0.6135 -1.2027
  227MOL0     H30600   4.573   0.149   7.069  0.1831 -0.2316 -0.6460
  227MOL0     H30601   4.817  -0.013   6.976 -0.6930 -0.2731 -0.9493
  227MOL0     H30602   4.833   0.168   7.022  0.8505  1.0810 -3.1567
  227MOL0     H30603   4.659   0.029   6.825  2.3846 -1.4030 -2.0516
  227MOL0     H30604   4.798   0.120   6.778 -0.1421 -0.7757 -1.1805
  227MOL0     H30605   4.555   0.493   6.854 -0.4722  0.6560  0.1272
  227MOL0     H30606   4.692   0.700   6.823 -1.1529 -1.7720 -0.5372
  227MOL0     H30607   5.210   0.909   6.943  0.1508 -1.0936  0.0674
  227MOL0     H30608   5.311   1.118   6.870 -1.3752 -2.0052  1.7321
  227MOL0     H30609   5.414   1.136   6.410  4.5992 -0.9506 -1.4155
  227MOL0     H30610   5.512   1.249   6.480  1.1357 -1.1187 -0.3006
  227MOL0     H30611   5.529   0.952   6.552  1.3335 -0.4721  0.7893
  227MOL0     H30612   5.635   1.062   6.466  3.0705  1.0921  2.4709
  227MOL0     H30613   5.649   1.198   6.683  1.5312 -0.6044  0.9910
  227MOL0     H30614   5.558   1.058   6.761  1.6558 -1.4496  0.9298
  227MOL0     H30615   5.826   1.038   6.625 -1.5929  0.3012 -1.8741
  227MOL0     H30616   5.742   0.913   6.712  1.3457  0.1855 -1.3990
  227MOL0     H30617   5.755   1.061   6.925 -2.2000 -0.8463 -1.8195
  227MOL0     H30618   5.855   1.161   6.829  0.9003 -0.4090 -1.4894
  227MOL0     H30619   5.982   1.010   6.977  0.7348  0.4194 -0.8284
  227MOL0     H30620   5.939   0.867   6.877 -1.1854 -0.4308 -0.1123
  227MOL0     H30621   6.059   1.116   6.765 -3.2321 -0.7361  1.0648
  227MOL0     H30622   6.023   0.961   6.682 -4.2967  1.9074 -0.6302
  227MOL0     H30623   6.194   0.861   6.855 -1.2146  0.2522  1.1900
  227MOL0     H30624   6.266   0.982   6.748 -1.2014 -1.9707  0.3497
  227MOL0     H30625   5.240   1.008   6.462 -2.6780  3.0816 -0.0313
  227MOL0     H30626   5.102   0.808   6.548  1.2966  0.5986 -2.2224
  227MOL0     H30627   5.045   0.483   6.827 -0.9259 -0.9149  1.8266
  227MOL0     H30628   4.932   0.277   6.826 -1.9801 -0.5302  0.2981
  227MOL0     H30629   4.293   0.902   8.314  1.1293 -1.2422 -0.7890
  227MOL0     H30630   4.333   1.051   8.500  1.2849  1.9907  0.5975
  227MOL0     H30631   4.626   1.420   8.615  0.2000  0.5227  0.3973
  227MOL0     H30632   4.667   1.545   8.837  0.3200 -0.0118 -0.8688
  227MOL0     H30633   4.343   1.583   9.138 -0.0396 -2.6296 -3.0674
  227MOL0     H30634   4.322   1.738   9.058  2.7189  0.5995 -2.4741
  227MOL0     H30635   4.535   1.839   9.155  0.7263  0.2818  1.3517
  227MOL0     H30636   4.571   1.691   9.224  0.2977  0.3014 -1.9126
  227MOL0     H30637   4.346   1.725   9.367  0.6414 -0.4974  0.4601
  227MOL0     H30638   4.318   1.871   9.272 -0.6336  0.6874  2.3254
  227MOL0     H30639   4.516   1.976   9.391 -0.6353  0.3961 -0.2545
  227MOL0     H30640   4.410   1.918   9.502 -2.2174  0.6280 -1.4326
  227MOL0     H30641   4.755   1.649   9.517  0.1705  0.8982  2.0254
  227MOL0     H30642   4.253   1.579   8.894 -0.6011 -0.0602 -1.5406
  227MOL0     H30643   4.092   1.577   8.708 -0.0774 -0.6275  0.5374
  227MOL0     H30644   4.158   1.577   8.553 -1.0306  0.5806  0.1663
  227MOL0     H30645   4.124   1.415   8.633 -3.2900 -0.0574  2.8093
  228MOL0     O30646   1.519   5.509   2.125 -0.4547 -0.2670 -0.4841
  228MOL0     C30647   1.473   5.622   2.132  0.2981 -0.1580 -0.2856
  228MOL0     O30648   1.528   5.723   2.211 -0.1053 -0.4354  0.3748
  228MOL0     C30649   1.640   5.685   2.283 -0.8950  0.2657 -0.0180
  228MOL0     C30650   1.665   5.741   2.411 -0.5386 -0.0353 -0.9045
  228MOL0     C30651   1.787   5.719   2.479  0.4809 -1.2791  0.4903
  228MOL0     C30652   1.891   5.649   2.427 -0.4627  1.2392  0.2935
  228MOL0     O30653   2.010   5.633   2.499 -0.2025  0.2613 -0.2091
  228MOL0     C30654   2.136   5.655   2.429  0.5489 -0.8707 -0.0382
  228MOL0     C30655   2.251   5.680   2.527  0.0531 -0.6848 -0.8657
  228MOL0     C30656   2.392   5.678   2.469 -0.3035  0.1507 -1.4564
  228MOL0     C30657   2.485   5.764   2.554  0.2323 -0.2275 -0.5095
  228MOL0     C30658   2.633   5.737   2.515 -0.2461  0.0182 -0.3299
  228MOL0     C30659   2.728   5.819   2.608  0.3704 -0.2239  0.5079
  228MOL0     C30660   2.882   5.795   2.571  0.6157  0.7327 -0.5323
  228MOL0     C30661   2.978   5.870   2.668  0.2134  0.2287 -0.1836
  228MOL0     N30662   3.111   5.873   2.606 -0.4915  0.6840 -0.5506
  228MOL0     C30663   3.154   5.971   2.520  0.0609 -0.2410 -0.0560
  228MOL0     C30664   3.281   5.932   2.488 -0.2048 -0.6089  0.3558
  228MOL0     C30665   3.364   6.017   2.399 -0.0164  0.6814  1.1403
  228MOL0     C30666   3.494   5.942   2.348  0.4519  0.1915 -0.4621
  228MOL0     C30667   3.578   6.046   2.270 -0.4147 -0.6207  0.6353
  228MOL0     C30668   3.713   5.987   2.237 -0.7637  0.7021  0.8803
  228MOL0     O30669   3.806   6.092   2.192 -0.4676  0.3870 -0.3210
  228MOL0     C30670   3.937   6.051   2.183 -1.0517  0.2668  0.2666
  228MOL0     C30671   4.016   6.142   2.119 -0.5663  0.1483 -0.4667
  228MOL0     C30672   4.158   6.133   2.110  0.2215  0.4335 -0.0344
  228MOL0     C30673   4.209   6.008   2.153 -1.0537  0.1605 -0.0685
  228MOL0     C30674   4.361   5.979   2.141  0.1605  0.0931  0.1490
  228MOL0     O30675   4.436   6.072   2.090 -0.5327 -0.6913  0.0941
  228MOL0     C30676   4.572   6.059   2.094 -0.8882 -0.5884  0.2311
  228MOL0     C30677   4.663   6.076   1.986  0.5339 -0.3106 -0.1666
  228MOL0     C30678   4.801   6.064   2.003 -0.5389 -0.7237 -0.5652
  228MOL0     C30679   4.863   6.060   2.129  0.5685  1.0507  0.8185
  228MOL0     O30680   4.998   6.064   2.132  0.1476 -0.1917 -0.4546
  228MOL0     C30681   5.068   6.018   2.251 -0.6524  0.1654 -0.1811
  228MOL0     C30682   5.214   6.048   2.230  0.3577  0.6367  0.0151
  228MOL0     C30683   5.277   5.952   2.124 -0.0822 -0.0527 -0.2657
  228MOL0     C30684   5.425   5.973   2.116 -0.8320  0.4914 -0.2452
  228MOL0     C30685   5.493   5.888   2.011  0.5141 -0.1064 -0.4915
  228MOL0     C30686   5.647   5.869   2.035 -0.0788 -0.3101 -0.0988
  228MOL0     C30687   5.715   5.813   1.910 -0.6305  0.1265  0.1349
  228MOL0     C30688   5.860   5.853   1.900 -0.8461 -0.1548 -0.6256
  228MOL0    Cl30689   5.938   5.791   2.050  0.4405  0.6261 -0.0281
  228MOL0     C30690   4.772   6.038   2.239 -0.0161 -0.7412 -0.4946
  228MOL0     C30691   4.632   6.038   2.217  1.2512  0.1253 -0.1902
  228MOL0     O30692   4.403   5.877   2.184 -0.0856 -0.6874 -0.8784
  228MOL0     C30693   4.133   5.912   2.230 -0.6924 -0.2670  0.8363
  228MOL0     C30694   3.995   5.940   2.240  0.0765  0.2284  0.3369
  228MOL0     N30695   3.317   5.812   2.556  0.2671 -0.6201  0.0399
  228MOL0     N30696   3.208   5.781   2.621 -0.4031 -0.3704 -0.8212
  228MOL0     C30697   1.877   5.608   2.296 -0.4640 -0.6293 -0.2838
  228MOL0     C30698   1.751   5.624   2.223 -0.3241  0.4132 -0.7689
  228MOL0     C30699   1.350   5.659   2.058 -0.8160  0.0547  0.6842
  228MOL0     C30700   1.319   5.795   2.064  0.2791 -0.1355 -0.8161
  228MOL0     C30701   1.203   5.844   2.001  0.1835 -0.2084  0.0606
  228MOL0     C30702   1.127   5.766   1.921 -0.2876  0.9013 -0.8077
  228MOL0     O30703   1.030   5.816   1.835 -0.4304  0.9578 -0.2438
  228MOL0     C30704   1.021   5.956   1.821 -0.0465  0.6525 -0.2035
  228MOL0     C30705   0.928   5.999   1.714  1.3163  0.1730  0.5286
  228MOL0     C30706   0.772   5.984   1.747  0.0481 -0.0054  0.9929
  228MOL0     C30707   0.695   6.069   1.656  0.6676  0.4485 -0.8164
  228MOL0     C30708   0.548   6.061   1.664  0.1292  0.1379 -0.0857
  228MOL0     C30709   0.433   6.066   1.675  0.9808  0.1142  0.2298
  228MOL0     C30710   1.151   5.631   1.922 -0.6677  1.4834  0.1412
  228MOL0     C30711   1.264   5.569   1.982 -0.4474 -0.1724  0.0295
  228MOL0     C30712   1.284   5.420   1.968 -0.3746 -0.2070 -0.2898
  228MOL0     H30713   1.586   5.794   2.462 -0.8120 -2.4370  1.3680
  228MOL0     H30714   1.783   5.762   2.579  2.8140  2.7302 -0.8950
  228MOL0     H30715   2.169   5.572   2.366  2.2145  0.6476 -1.2618
  228MOL0     H30716   2.115   5.738   2.361 -1.4208 -1.1789  0.1323
  228MOL0     H30717   2.252   5.611   2.612  1.7756  0.1957 -0.1266
  228MOL0     H30718   2.231   5.778   2.572 -0.3428 -0.7140 -0.9756
  228MOL0     H30719   2.407   5.722   2.370  2.2333  3.2141  0.1104
  228MOL0     H30720   2.422   5.573   2.463  0.0179  0.2952 -5.7663
  228MOL0     H30721   2.462   5.870   2.564 -0.1570 -0.2933 -0.7201
  228MOL0     H30722   2.473   5.725   2.655  0.6343  1.5696  0.2754
  228MOL0     H30723   2.660   5.633   2.539  0.3859 -0.3227 -2.3696
  228MOL0     H30724   2.656   5.765   2.412  0.5467  2.0442  0.3531
  228MOL0     H30725   2.701   5.925   2.601  0.3379 -0.2253  0.6074
  228MOL0     H30726   2.721   5.808   2.717 -0.5739  0.2461  0.5111
  228MOL0     H30727   2.906   5.831   2.471  2.7968  0.8870 -0.0022
  228MOL0     H30728   2.909   5.690   2.590  1.2769  0.7736 -1.2001
  228MOL0     H30729   2.947   5.975   2.674  1.3666  0.6007 -0.3895
  228MOL0     H30730   2.980   5.823   2.766 -2.3860  0.5216  0.0860
  228MOL0     H30731   3.104   6.057   2.476 -1.8679 -0.8950  0.7612
  228MOL0     H30732   3.302   6.036   2.311  1.2006  0.8938  0.2956
  228MOL0     H30733   3.387   6.118   2.434  5.2896 -0.1550  0.9300
  228MOL0     H30734   3.552   5.897   2.429 -0.8793  1.2026  1.1087
  228MOL0     H30735   3.475   5.861   2.278 -0.0570 -1.9922  2.0316
  228MOL0     H30736   3.581   6.139   2.328 -3.8059  0.0535 -0.0326
  228MOL0     H30737   3.535   6.075   2.173  1.8481 -2.4501 -1.0212
  228MOL0     H30738   3.706   5.901   2.170 -0.5229  0.1091  1.6154
  228MOL0     H30739   3.752   5.948   2.331 -0.2255 -2.9653 -0.6992
  228MOL0     H30740   3.972   6.228   2.070 -1.0899 -0.6424 -1.4256
  228MOL0     H30741   4.221   6.212   2.069 -0.9539  1.9813  1.0487
  228MOL0     H30742   4.607   6.086   1.894 -1.3921 -0.0859  0.9689
  228MOL0     H30743   4.866   6.061   1.916 -0.6777  0.7699 -0.7417
  228MOL0     H30744   5.034   6.072   2.340  3.7438  0.7220  1.4099
  228MOL0     H30745   5.045   5.912   2.261  1.7695 -0.5724 -1.7865
  228MOL0     H30746   5.227   6.148   2.188  1.5252 -0.2206 -1.8035
  228MOL0     H30747   5.267   6.044   2.325 -2.9929 -1.0038  2.0391
  228MOL0     H30748   5.246   5.849   2.140 -2.3308  0.4930 -0.7166
  228MOL0     H30749   5.236   5.973   2.025 -5.4199  2.3227  2.0870
  228MOL0     H30750   5.479   5.949   2.208 -1.6326  2.0456  0.6784
  228MOL0     H30751   5.438   6.076   2.083 -1.9399  0.0882 -2.0626
  228MOL0     H30752   5.478   5.922   1.908  1.2602 -1.2728 -1.0023
  228MOL0     H30753   5.448   5.789   2.008  1.0292 -0.3328 -1.8797
  228MOL0     H30754   5.687   5.968   2.059 -0.1858 -0.2574 -0.1343
  228MOL0     H30755   5.659   5.813   2.128 -2.6390  0.3761  0.7336
  228MOL0     H30756   5.659   5.842   1.820 -0.1716  0.1876 -0.1344
  228MOL0     H30757   5.711   5.704   1.914  0.4956  0.1237  1.6526
  228MOL0     H30758   5.919   5.820   1.813  1.8293 -0.2596  1.1258
  228MOL0     H30759   5.867   5.962   1.900 -1.0360 -0.1392  0.3220
  228MOL0     H30760   4.797   6.026   2.344 -1.8452  1.8866  0.3483
  228MOL0     H30761   4.570   6.026   2.305  0.7384  1.9017 -0.2672
  228MOL0     H30762   4.185   5.833   2.283  1.2274  0.2200 -0.2101
  228MOL0     H30763   3.941   5.865   2.297  0.8568 -0.0052  0.7864
  228MOL0     H30764   1.961   5.560   2.247 -0.0219  1.1236 -1.3449
  228MOL0     H30765   1.742   5.590   2.121 -0.2678  1.8666 -1.2870
  228MOL0     H30766   1.380   5.875   2.105  0.3874 -0.6783  0.1105
  228MOL0     H30767   1.187   5.949   2.024  1.8131 -0.4702  2.7673
  228MOL0     H30768   1.118   6.003   1.802 -0.4979  0.9127 -2.0260
  228MOL0     H30769   0.988   6.001   1.915  3.3474  0.0163  1.4714
  228MOL0     H30770   0.947   5.927   1.633  1.1397  1.0002 -0.2570
  228MOL0     H30771   0.960   6.099   1.686  4.2412 -1.5000 -2.9554
  228MOL0     H30772   0.746   6.017   1.848 -1.8116  2.4893 -0.2064
  228MOL0     H30773   0.748   5.878   1.740  1.1222 -0.1875 -0.3354
  228MOL0     H30774   0.733   6.171   1.664 -2.5745  1.6933  0.8168
  228MOL0     H30775   0.727   6.040   1.556  1.8904  0.3533 -0.4168
  228MOL0     H30776   0.326   6.074   1.676  0.9106 -0.7364  1.2707
  228MOL0     H30777   1.078   5.571   1.869 -0.6005  0.5641  1.0681
  228MOL0     H30778   1.348   5.399   1.882  0.8769  1.5361  0.1601
  228MOL0     H30779   1.326   5.363   2.052 -1.5544 -0.5129  0.1072
  228MOL0     H30780   1.183   5.379   1.960  0.0056 -0.9330 -1.5643
  229MOL0     O30781   5.226   4.151   1.083 -0.6555  0.0069 -0.2694
  229MOL0     C30782   5.259   4.088   0.981  0.3464 -0.2926  0.2464
  229MOL0     O30783   5.384   4.061   0.932 -0.1919  0.1237 -0.3061
  229MOL0     C30784   5.510   4.103   0.981  1.2510  0.0553 -0.3087
  229MOL0     C30785   5.616   4.034   0.933  0.0923  0.0076  0.0050
  229MOL0     C30786   5.748   4.067   0.958 -0.5780 -0.6148  0.0834
  229MOL0     C30787   5.776   4.169   1.049 -0.1828  0.2870 -0.5607
  229MOL0     O30788   5.911   4.180   1.084  0.2484  0.0893  0.6958
  229MOL0     C30789   5.956   4.227   1.209  0.1514  0.2230 -0.1877
  229MOL0     C30790   6.112   4.248   1.190  0.0384  0.0889  0.3552
  229MOL0     C30791   6.144   4.380   1.113 -0.1228  0.3761 -0.3128
  229MOL0     C30792   6.093   4.395   0.969 -0.1837 -0.0623 -0.6064
  229MOL0     C30793   6.155   4.514   0.884 -0.2063 -1.0432 -0.7213
  229MOL0     C30794   6.304   4.515   0.871 -0.3944  0.2750 -0.6754
  229MOL0     C30795   6.366   4.631   0.798 -0.3339  0.1553  0.2171
  229MOL0     C30796   6.506   4.666   0.844 -0.0919  0.7899  0.3440
  229MOL0     N30797   6.598   4.559   0.822 -0.5290 -0.4757 -0.5616
  229MOL0     C30798   6.683   4.511   0.922  1.2467 -0.0347  0.3800
  229MOL0     C30799   6.762   4.425   0.854 -0.4430 -0.2112  0.4296
  229MOL0     C30800   6.858   4.334   0.923  0.5345 -0.4221  1.0381
  229MOL0     C30801   7.000   4.378   0.920 -0.4239 -0.6075  0.1795
  229MOL0     C30802   7.055   4.396   0.782  0.5539 -0.3709  0.4869
  229MOL0     C30803   7.192   4.472   0.789 -0.1161  0.1986 -0.0549
  229MOL0     O30804   7.293   4.405   0.877  0.0500  0.1671 -0.4087
  229MOL0     C30805   7.396   4.329   0.822 -0.0568 -0.5924 -0.5661
  229MOL0     C30806   7.517   4.334   0.891  0.2814 -0.1220  0.4194
  229MOL0     C30807   7.628   4.265   0.846 -0.5499 -0.1169  0.2050
  229MOL0     C30808   7.625   4.180   0.739 -0.1271 -0.2548  0.7207
  229MOL0     C30809   7.728   4.083   0.698 -0.6704  0.1386 -0.2395
  229MOL0     O30810   7.849   4.102   0.759  0.2571 -0.5601  0.0785
  229MOL0     C30811   7.951   4.036   0.690 -0.5571 -0.2873  0.3956
  229MOL0     C30812   7.985   3.903   0.721 -0.5655  0.7663  0.0561
  229MOL0     C30813   8.094   3.832   0.669 -0.6110  0.2246  0.5147
  229MOL0     C30814   8.172   3.887   0.567 -0.0432  0.8916 -0.3073
  229MOL0     O30815   8.276   3.812   0.506 -0.2114 -0.5416 -0.4140
  229MOL0     C30816   8.397   3.891   0.462  1.2531  0.3231 -0.1351
  229MOL0     C30817   8.506   3.789   0.478 -0.2019  0.4335 -0.1413
  229MOL0     C30818   8.642   3.853   0.441  0.7168  0.0455 -0.9553
  229MOL0     C30819   8.769   3.756   0.453  0.3072 -0.5662 -0.3829
  229MOL0     C30820   8.886   3.825   0.385  0.7982 -1.0514  0.4275
  229MOL0     C30821   9.011   3.734   0.394 -0.4017 -0.3211 -0.0108
  229MOL0     C30822   9.000   3.627   0.278 -0.6836 -0.0035 -0.3073
  229MOL0     C30823   9.050   3.502   0.345 -0.1770  1.6683  0.2994
  229MOL0    Cl30824   8.928   3.427   0.456  0.1487  0.0093  0.0409
  229MOL0     C30825   8.143   4.022   0.530 -0.6012 -0.3656  0.1445
  229MOL0     C30826   8.042   4.096   0.591  0.5903 -0.4547 -0.4170
  229MOL0     O30827   7.707   4.001   0.612  0.3102 -0.3494  0.9001
  229MOL0     C30828   7.501   4.177   0.670 -0.6186 -0.2756 -0.1145
  229MOL0     C30829   7.385   4.243   0.714  0.5195 -0.1416 -0.3017
  229MOL0     N30830   6.732   4.417   0.723  0.0817  0.2653  0.0909
  229MOL0     N30831   6.640   4.508   0.701 -0.3627 -0.2260  0.5961
  229MOL0     C30832   5.669   4.223   1.126 -0.6206  0.6659  0.0732
  229MOL0     C30833   5.537   4.195   1.088 -0.3038  0.1431  0.2004
  229MOL0     C30834   5.146   4.019   0.908  0.2359  1.4069 -0.4495
  229MOL0     C30835   5.171   3.893   0.849 -0.1547  0.2931  0.2433
  229MOL0     C30836   5.065   3.843   0.772  1.2263 -0.4101  1.8988
  229MOL0     C30837   4.929   3.900   0.755 -0.8083 -0.5831 -0.2609
  229MOL0     O30838   4.825   3.861   0.676 -0.2851 -0.2621 -0.4461
  229MOL0     C30839   4.826   3.741   0.603  0.5178  0.3875 -0.2884
  229MOL0     C30840   4.681   3.690   0.566  0.2502  0.4751  0.3479
  229MOL0     C30841   4.579   3.698   0.677  0.3756 -0.7563  0.3086
  229MOL0     C30842   4.436   3.661   0.636  0.5459 -0.5225  0.0678
  229MOL0     C30843   4.348   3.655   0.754  0.3659 -0.4214  0.2694
  229MOL0     C30844   4.286   3.657   0.858  0.1739 -0.9765 -0.4740
  229MOL0     C30845   4.918   4.017   0.830  0.5507  1.0055  0.1550
  229MOL0     C30846   5.022   4.079   0.899  1.0761  0.0147 -0.8506
  229MOL0     C30847   4.980   4.209   0.974  0.3915 -0.3212 -0.1850
  229MOL0     H30848   5.597   3.951   0.866  3.3353 -0.6545 -0.2511
  229MOL0     H30849   5.828   4.006   0.918 -1.5346 -1.2157 -0.9838
  229MOL0     H30850   5.908   4.321   1.237  0.4478  0.1586  0.5521
  229MOL0     H30851   5.935   4.153   1.286 -3.5934 -2.5025 -3.3804
  229MOL0     H30852   6.153   4.166   1.130 -1.3164 -0.1221 -0.3314
  229MOL0     H30853   6.172   4.252   1.281  0.9870  2.1808 -0.2867
  229MOL0     H30854   6.253   4.380   1.121 -0.0404  2.5662 -1.0034
  229MOL0     H30855   6.096   4.459   1.171 -2.5659 -1.4702  0.3506
  229MOL0     H30856   6.129   4.310   0.911  0.3410 -0.0738 -0.2728
  229MOL0     H30857   5.984   4.391   0.969 -0.1927  0.1293 -0.3661
  229MOL0     H30858   6.110   4.521   0.785 -5.7413  1.5400  1.5813
  229MOL0     H30859   6.131   4.609   0.934  2.1977 -0.7570  0.0224
  229MOL0     H30860   6.355   4.512   0.968 -2.4615  1.4771  0.5187
  229MOL0     H30861   6.328   4.426   0.812  1.2854 -0.0702  0.4575
  229MOL0     H30862   6.304   4.720   0.805  1.7226  1.7483 -0.7175
  229MOL0     H30863   6.368   4.603   0.692  1.2863 -0.8457  0.4732
  229MOL0     H30864   6.549   4.744   0.779 -3.7476  1.3714 -1.6487
  229MOL0     H30865   6.503   4.706   0.945  1.0142 -0.3204  0.8403
  229MOL0     H30866   6.688   4.527   1.029  2.5050 -0.6777  0.4362
  229MOL0     H30867   6.823   4.322   1.026  2.6011  0.0859  1.8348
  229MOL0     H30868   6.859   4.232   0.883 -0.0188 -0.3947  0.9393
  229MOL0     H30869   7.000   4.477   0.967 -1.1996 -0.2218 -0.6008
  229MOL0     H30870   7.053   4.304   0.980  0.8497 -0.7244 -1.0511
  229MOL0     H30871   6.984   4.458   0.727 -0.6128 -0.2981  1.9905
  229MOL0     H30872   7.062   4.296   0.738  0.3622  0.2918 -1.0768
  229MOL0     H30873   7.181   4.569   0.839  2.5794  0.6862 -0.2724
  229MOL0     H30874   7.242   4.490   0.694 -1.9559 -1.6846 -1.4757
  229MOL0     H30875   7.514   4.397   0.979  2.8215  1.5088 -0.5557
  229MOL0     H30876   7.720   4.280   0.902 -0.4841 -1.8361  0.5964
  229MOL0     H30877   7.927   3.849   0.795 -0.7753  1.8562  0.7145
  229MOL0     H30878   8.116   3.728   0.691 -0.9409  0.3435  1.4611
  229MOL0     H30879   8.401   3.920   0.357  1.4992  0.4869 -0.0800
  229MOL0     H30880   8.413   3.977   0.528 -2.7050  0.5144  0.8174
  229MOL0     H30881   8.507   3.777   0.586 -1.3169  4.2209  0.4500
  229MOL0     H30882   8.491   3.692   0.429  1.4753  0.2808 -0.4170
  229MOL0     H30883   8.634   3.882   0.335 -0.8117  1.9948 -0.3672
  229MOL0     H30884   8.660   3.931   0.515  1.2852  0.4704 -1.5196
  229MOL0     H30885   8.753   3.661   0.400 -4.0624  0.2561 -0.8900
  229MOL0     H30886   8.797   3.743   0.558  0.2983  2.2291  0.0452
  229MOL0     H30887   8.902   3.920   0.436 -2.5641  0.6414 -1.3423
  229MOL0     H30888   8.857   3.852   0.283  0.3925  1.0853  1.0642
  229MOL0     H30889   9.106   3.786   0.381  0.1780 -1.3498 -0.0738
  229MOL0     H30890   9.014   3.701   0.498  2.7534  0.8499  0.3893
  229MOL0     H30891   9.075   3.640   0.200  1.2959 -3.2645  0.8614
  229MOL0     H30892   8.895   3.607   0.253 -0.7703 -0.9529  0.7164
  229MOL0     H30893   9.082   3.422   0.277 -1.3402  0.3913  1.1952
  229MOL0     H30894   9.131   3.522   0.414  1.4133 -2.0652 -0.2231
  229MOL0     H30895   8.196   4.063   0.445 -4.5788  0.7575 -2.0578
  229MOL0     H30896   8.037   4.203   0.575  0.1105 -0.5381 -0.8581
  229MOL0     H30897   7.495   4.107   0.586  1.7386  0.1452 -0.7144
  229MOL0     H30898   7.294   4.229   0.657 -0.5118 -2.2891  1.6825
  229MOL0     H30899   5.683   4.290   1.210 -2.8655  0.8504  0.3444
  229MOL0     H30900   5.446   4.238   1.130 -1.1363 -0.5088 -0.8899
  229MOL0     H30901   5.265   3.839   0.855 -0.2663  0.0170 -0.3558
  229MOL0     H30902   5.076   3.752   0.714  0.4846 -0.8977  2.4957
  229MOL0     H30903   4.878   3.666   0.663 -0.0845 -0.6578 -1.0365
  229MOL0     H30904   4.886   3.755   0.512  0.2427  0.4922 -0.4569
  229MOL0     H30905   4.691   3.587   0.532  4.1302  0.5594  0.8646
  229MOL0     H30906   4.641   3.750   0.483 -1.3491  1.2010  1.5799
  229MOL0     H30907   4.572   3.799   0.719  3.0676 -0.8687  1.2443
  229MOL0     H30908   4.607   3.628   0.756 -1.5506  0.1592  1.9035
  229MOL0     H30909   4.396   3.733   0.564 -2.1801  0.5444  2.4504
  229MOL0     H30910   4.422   3.563   0.589 -0.4670  0.0995 -0.9833
  229MOL0     H30911   4.220   3.658   0.943  0.3775 -1.1592 -0.3146
  229MOL0     H30912   4.819   4.061   0.826  0.0793 -0.0133  0.3431
  229MOL0     H30913   5.050   4.290   0.953  1.0610 -1.0299 -0.7279
  229MOL0     H30914   4.879   4.241   0.946  1.2905  1.3989 -1.7281
  229MOL0     H30915   4.987   4.198   1.083 -0.6351  0.5492 -0.0159
  230MOL0     O30916   4.371   1.300   6.593 -0.4746 -0.0863 -0.1895
  230MOL0     C30917   4.264   1.234   6.584 -1.2801 -0.3167  0.0208
  230MOL0     O30918   4.234   1.129   6.665  0.7715 -0.5911 -0.3880
  230MOL0     C30919   4.332   1.084   6.749 -0.2497  0.0552 -0.4375
  230MOL0     C30920   4.460   1.054   6.707  0.0651  0.8322 -0.1132
  230MOL0     C30921   4.552   0.992   6.791 -0.1702  0.3630 -0.1571
  230MOL0     C30922   4.529   0.978   6.928  0.9443  0.3009 -0.1950
  230MOL0     O30923   4.620   0.925   7.015 -0.3402  0.4133 -0.1644
  230MOL0     C30924   4.585   0.806   7.094 -0.0068  0.2903 -0.2507
  230MOL0     C30925   4.706   0.755   7.165 -0.1516  0.3077 -0.3340
  230MOL0     C30926   4.677   0.626   7.243 -0.3277 -0.0321  0.5705
  230MOL0     C30927   4.791   0.581   7.341 -0.1024 -0.3942 -0.1774
  230MOL0     C30928   4.762   0.438   7.394  0.1965 -0.6444 -0.6300
  230MOL0     C30929   4.870   0.393   7.499  0.3534 -0.5333  0.1008
  230MOL0     C30930   4.829   0.266   7.566  0.1187 -0.2297 -0.3540
  230MOL0     C30931   4.948   0.162   7.566 -0.0683  0.5082 -0.8090
  230MOL0     N30932   4.911   0.043   7.643  0.0919  0.1029  0.1457
  230MOL0     C30933   4.815  -0.049   7.604  0.7485  0.4684 -0.0669
  230MOL0     C30934   4.841  -0.157   7.686 -0.4574 -0.4745  0.1713
  230MOL0     C30935   4.782  -0.299   7.681 -0.3067 -0.4903 -0.2298
  230MOL0     C30936   4.631  -0.302   7.708 -0.2975  0.5430 -0.7661
  230MOL0     C30937   4.598  -0.249   7.847 -0.6410 -0.4991 -0.1919
  230MOL0     C30938   4.446  -0.244   7.863  0.0369  0.0140  0.5200
  230MOL0     O30939   4.391  -0.376   7.856  0.7499 -0.2197 -0.3296
  230MOL0     C30940   4.258  -0.376   7.843  0.2370 -0.0451 -0.1333
  230MOL0     C30941   4.218  -0.506   7.809  0.1804 -0.8927 -0.7708
  230MOL0     C30942   4.080  -0.533   7.798 -0.8965 -0.5079  0.1253
  230MOL0     C30943   3.987  -0.434   7.826  0.3478  0.9671  0.2106
  230MOL0     C30944   3.838  -0.467   7.828 -0.4156  0.3123  1.0460
  230MOL0     O30945   3.752  -0.373   7.860  0.2632  0.1797  0.3343
  230MOL0     C30946   3.622  -0.395   7.832  0.5533  0.2212  0.2282
  230MOL0     C30947   3.565  -0.302   7.753  0.2178  0.1466 -0.4103
  230MOL0     C30948   3.427  -0.301   7.726 -0.9581 -0.0658  0.5910
  230MOL0     C30949   3.337  -0.389   7.791 -0.0838 -0.3085 -0.0928
  230MOL0     O30950   3.206  -0.377   7.785  0.6672 -0.3671 -0.5163
  230MOL0     C30951   3.133  -0.484   7.842  0.5524  0.3670 -0.7493
  230MOL0     C30952   2.991  -0.493   7.786  0.1734 -0.0851  1.4843
  230MOL0     C30953   2.915  -0.611   7.848  0.5528 -0.2816 -0.3685
  230MOL0     C30954   2.776  -0.623   7.777  0.0992  0.5812 -0.2456
  230MOL0     C30955   2.691  -0.745   7.820 -0.2716 -0.8830  0.6918
  230MOL0     C30956   2.540  -0.742   7.772  0.5401  0.0804 -0.2312
  230MOL0     C30957   2.467  -0.865   7.821 -0.1573  0.4760 -0.6473
  230MOL0     C30958   2.338  -0.882   7.739 -0.2117  0.2474  0.0194
  230MOL0    Cl30959   2.208  -0.986   7.832  0.1990 -0.3960  0.2897
  230MOL0     C30960   3.401  -0.484   7.874  0.1326 -0.5062  0.7755
  230MOL0     C30961   3.541  -0.491   7.889  0.0182  0.5135  0.2028
  230MOL0     O30962   3.812  -0.583   7.812 -0.3397 -0.4092 -0.2549
  230MOL0     C30963   4.028  -0.297   7.848  0.0729  0.6001 -0.5852
  230MOL0     C30964   4.164  -0.267   7.863  0.6352 -0.6866  0.0776
  230MOL0     N30965   4.955  -0.128   7.768  0.1607 -0.6993  0.0494
  230MOL0     N30966   4.986  -0.000   7.744  0.3745  0.3970 -0.8023
  230MOL0     C30967   4.400   1.014   6.969 -0.2470  0.0030 -0.4319
  230MOL0     C30968   4.300   1.052   6.880  0.1448  0.8639  0.1791
  230MOL0     C30969   4.173   1.276   6.472 -0.9045 -0.0265  0.5328
  230MOL0     C30970   4.038   1.305   6.486  0.1121  0.4917  0.1159
  230MOL0     C30971   3.963   1.354   6.386 -0.0013 -0.3983  0.1600
  230MOL0     C30972   4.027   1.389   6.265 -1.1575  1.0796  0.3531
  230MOL0     O30973   3.977   1.452   6.156  0.9000  0.5105  0.0262
  230MOL0     C30974   3.828   1.451   6.139 -0.0786 -0.3515  0.0589
  230MOL0     C30975   3.798   1.453   5.988  0.0833 -0.0337  0.2616
  230MOL0     C30976   3.833   1.321   5.904  0.0826  0.6125 -0.0241
  230MOL0     C30977   3.726   1.279   5.807 -0.0392 -0.3031  0.6821
  230MOL0     C30978   3.591   1.274   5.852 -0.3700  0.2825 -0.6685
  230MOL0     C30979   3.479   1.241   5.884  0.4989 -0.1439  0.4026
  230MOL0     C30980   4.161   1.357   6.243  0.3787  0.0893  0.0903
  230MOL0     C30981   4.232   1.291   6.342 -0.3710 -0.2817 -0.4308
  230MOL0     C30982   4.374   1.244   6.312  0.9116  0.1013  0.3849
  230MOL0     H30983   4.480   1.066   6.601  2.6951  0.5770  0.2838
  230MOL0     H30984   4.652   0.983   6.750 -0.9040  1.4258 -2.2935
  230MOL0     H30985   4.503   0.829   7.162  1.5042 -0.7189  2.0252
  230MOL0     H30986   4.546   0.723   7.035 -1.2191  0.6779 -0.0183
  230MOL0     H30987   4.724   0.836   7.237 -1.5345 -1.1436  1.7365
  230MOL0     H30988   4.787   0.743   7.093 -0.2943  0.0359 -0.4490
  230MOL0     H30989   4.666   0.546   7.169 -0.8413  1.1963 -0.7277
  230MOL0     H30990   4.581   0.621   7.294 -1.1291 -3.0440 -0.9878
  230MOL0     H30991   4.884   0.577   7.283 -1.2786 -3.3363 -2.1382
  230MOL0     H30992   4.805   0.646   7.428  1.3529 -0.5321 -0.2794
  230MOL0     H30993   4.675   0.451   7.460  0.8062 -1.7275  0.4316
  230MOL0     H30994   4.729   0.370   7.315 -2.0137  1.5863 -1.7590
  230MOL0     H30995   4.964   0.375   7.445  2.1178 -0.7113  2.9957
  230MOL0     H30996   4.894   0.469   7.575  0.5310 -1.3221  0.8530
  230MOL0     H30997   4.737   0.234   7.516 -0.2368 -0.0048  0.1513
  230MOL0     H30998   4.808   0.283   7.672 -1.6593 -1.7078 -0.4206
  230MOL0     H30999   4.965   0.140   7.460  1.2916 -0.6003 -0.3786
  230MOL0     H31000   5.036   0.210   7.609  1.0010 -1.4374 -0.7359
  230MOL0     H31001   4.738  -0.042   7.527  0.2401  0.2146  0.4091
  230MOL0     H31002   4.807  -0.340   7.582  0.6052 -1.9595  0.5695
  230MOL0     H31003   4.830  -0.357   7.760  2.0903  1.1991 -0.3487
  230MOL0     H31004   4.582  -0.238   7.634  2.0762  2.6612 -0.6010
  230MOL0     H31005   4.613  -0.410   7.699  5.2956 -0.8731  1.2728
  230MOL0     H31006   4.649  -0.154   7.867  1.5475 -0.9605 -2.9100
  230MOL0     H31007   4.641  -0.314   7.924 -0.8403  1.0873  1.3212
  230MOL0     H31008   4.407  -0.184   7.780  2.2735  1.4510  0.4067
  230MOL0     H31009   4.424  -0.200   7.961 -1.8676  0.4292 -0.0550
  230MOL0     H31010   4.302  -0.574   7.801  2.3736  1.3542  1.3721
  230MOL0     H31011   4.055  -0.630   7.757 -0.8502 -0.4635 -0.0124
  230MOL0     H31012   3.633  -0.222   7.724  1.7250 -0.7029  0.6308
  230MOL0     H31013   3.403  -0.203   7.687  1.7170  0.7324  0.8049
  230MOL0     H31014   3.175  -0.584   7.832  2.7020  0.7871  2.5512
  230MOL0     H31015   3.124  -0.469   7.950  2.0624  0.4033 -0.6071
  230MOL0     H31016   2.938  -0.400   7.808 -1.4975 -0.8860  1.0502
  230MOL0     H31017   2.996  -0.506   7.678  1.1686 -2.0241  1.7335
  230MOL0     H31018   2.976  -0.702   7.846  0.9740 -0.0324  0.4761
  230MOL0     H31019   2.906  -0.595   7.956 -0.2972 -1.3854 -0.2623
  230MOL0     H31020   2.787  -0.648   7.671 -2.2989 -3.5460  0.2684
  230MOL0     H31021   2.712  -0.536   7.792 -2.8795 -1.1919 -1.8211
  230MOL0     H31022   2.700  -0.742   7.929  2.7647 -2.3063  0.5898
  230MOL0     H31023   2.735  -0.834   7.774 -0.6624  0.3944 -2.3410
  230MOL0     H31024   2.490  -0.651   7.806  2.5089 -0.4380  4.9571
  230MOL0     H31025   2.542  -0.741   7.662 -2.0925  0.4265 -0.3301
  230MOL0     H31026   2.455  -0.850   7.929 -0.7594  1.4877 -0.8414
  230MOL0     H31027   2.527  -0.957   7.821  0.5502  0.8930  1.1027
  230MOL0     H31028   2.288  -0.786   7.727 -1.8711 -0.8399 -2.3381
  230MOL0     H31029   2.358  -0.926   7.641 -2.1451 -1.4052  0.3039
  230MOL0     H31030   3.347  -0.553   7.938  1.6142 -0.4967  2.1098
  230MOL0     H31031   3.582  -0.576   7.943  0.0600  0.3443 -0.0856
  230MOL0     H31032   3.950  -0.225   7.871  0.2844 -0.0057  2.5215
  230MOL0     H31033   4.209  -0.171   7.886  2.7693 -1.6704  0.3108
  230MOL0     H31034   4.370   1.021   7.073  2.8027 -2.8568  0.8181
  230MOL0     H31035   4.200   1.071   6.919 -1.2893  0.4417 -2.9918
  230MOL0     H31036   4.007   1.279   6.586 -0.4564  0.3269 -0.0994
  230MOL0     H31037   3.858   1.379   6.397 -0.1920 -1.0379 -0.1642
  230MOL0     H31038   3.781   1.539   6.183  1.3226  0.1210  0.6458
  230MOL0     H31039   3.781   1.365   6.188  1.8314 -1.4941 -0.0493
  230MOL0     H31040   3.846   1.539   5.942 -0.1747 -0.3301 -0.5768
  230MOL0     H31041   3.691   1.473   5.973  0.0479 -1.4752 -1.7966
  230MOL0     H31042   3.859   1.239   5.972  0.6375 -0.6987 -1.7462
  230MOL0     H31043   3.920   1.352   5.846 -0.8989  3.0280 -0.3211
  230MOL0     H31044   3.730   1.330   5.710 -0.4356 -1.1621  0.2024
  230MOL0     H31045   3.753   1.180   5.771 -1.5265 -2.4716  4.9241
  230MOL0     H31046   3.377   1.240   5.918 -0.2776  1.6507 -1.6001
  230MOL0     H31047   4.211   1.388   6.152  0.8897 -1.2827 -0.1228
  230MOL0     H31048   4.378   1.140   6.348 -3.0429 -0.9452 -1.6274
  230MOL0     H31049   4.392   1.239   6.205  2.1486  1.3436  0.5104
  230MOL0     H31050   4.452   1.306   6.357 -1.2009  2.0508  1.5784
  231MOL0     O31051   3.287   4.383   6.127 -0.2687 -0.4792 -0.9779
  231MOL0     C31052   3.237   4.497   6.108 -0.4170 -0.3310  0.3781
  231MOL0     O31053   3.297   4.598   6.035 -0.9013 -0.9604  0.3381
  231MOL0     C31054   3.428   4.575   5.997 -0.4214  0.2370 -0.3352
  231MOL0     C31055   3.458   4.474   5.904  0.3980  1.2924  0.6142
  231MOL0     C31056   3.593   4.448   5.868  0.5586  0.2329  0.0068
  231MOL0     C31057   3.690   4.531   5.924 -0.7696  1.0609  0.4606
  231MOL0     O31058   3.823   4.512   5.901  0.2189  0.6238  0.6163
  231MOL0     C31059   3.878   4.397   5.969  0.2396  0.0904 -0.3197
  231MOL0     C31060   4.027   4.404   5.995 -0.1940 -0.3470  0.3585
  231MOL0     C31061   4.064   4.312   6.108  0.1790  0.0543 -0.9275
  231MOL0     C31062   4.215   4.278   6.110 -0.4079  0.5670 -0.0086
  231MOL0     C31063   4.260   4.163   6.200 -0.6442  1.0751 -0.0464
  231MOL0     C31064   4.209   4.189   6.339  0.2985 -0.4881 -0.0948
  231MOL0     C31065   4.298   4.123   6.443  0.9194 -0.2968  0.2527
  231MOL0     C31066   4.307   4.194   6.576 -0.2126  0.8700  0.6814
  231MOL0     N31067   4.380   4.102   6.657  0.4200  0.8026  0.5232
  231MOL0     C31068   4.514   4.077   6.658 -0.3918 -0.1433  0.9661
  231MOL0     C31069   4.530   3.951   6.722 -1.0788 -1.1543 -0.0409
  231MOL0     C31070   4.668   3.894   6.751  1.2606 -0.0020 -0.0728
  231MOL0     C31071   4.761   3.902   6.631 -0.0989  0.1853 -0.4441
  231MOL0     C31072   4.879   3.806   6.676  0.6893 -0.5097 -0.2650
  231MOL0     C31073   4.985   3.812   6.562  0.4358 -0.7344  0.2572
  231MOL0     O31074   5.084   3.714   6.575  0.1366  0.3699 -0.4568
  231MOL0     C31075   5.196   3.721   6.500  0.1872 -0.6113 -0.1636
  231MOL0     C31076   5.317   3.724   6.568  0.2813  0.4792  0.3138
  231MOL0     C31077   5.431   3.732   6.486  0.6983  0.2166 -0.5237
  231MOL0     C31078   5.427   3.748   6.344 -0.0834  0.2215 -0.7047
  231MOL0     C31079   5.559   3.756   6.271  0.7304  0.1166  1.1619
  231MOL0     O31080   5.676   3.746   6.351  0.6930  0.2456  0.1911
  231MOL0     C31081   5.802   3.726   6.307  0.7543 -0.0623 -0.4106
  231MOL0     C31082   5.894   3.747   6.401  0.1050  0.2602 -0.6208
  231MOL0     C31083   6.028   3.722   6.375  0.0662 -1.4198 -0.3655
  231MOL0     C31084   6.071   3.662   6.254 -0.0483  0.0749 -0.1072
  231MOL0     O31085   6.196   3.612   6.236  0.2505  0.5252 -0.4733
  231MOL0     C31086   6.294   3.652   6.330 -0.3219  0.6499  0.2406
  231MOL0     C31087   6.431   3.601   6.287  0.3113 -0.2689 -0.7248
  231MOL0     C31088   6.535   3.612   6.403 -0.0111  0.4488  0.1452
  231MOL0     C31089   6.627   3.491   6.396  0.0252 -0.1417 -0.2407
  231MOL0     C31090   6.725   3.502   6.516 -0.2152  0.4691  0.0008
  231MOL0     C31091   6.656   3.485   6.651  0.3329 -0.1394  0.1576
  231MOL0     C31092   6.745   3.470   6.780 -0.2643 -0.7893 -0.1407
  231MOL0     C31093   6.670   3.452   6.911  0.9340 -1.4933  0.2887
  231MOL0    Cl31094   6.546   3.581   6.912  0.2482 -0.2821 -0.1449
  231MOL0     C31095   5.975   3.643   6.153 -0.7215 -0.2081  0.0141
  231MOL0     C31096   5.841   3.669   6.181  0.5479 -0.5145 -0.2365
  231MOL0     O31097   5.554   3.756   6.145 -0.5806 -0.1762 -0.1643
  231MOL0     C31098   5.303   3.751   6.278 -0.2363  0.1570  0.5135
  231MOL0     C31099   5.191   3.735   6.360 -0.1185 -0.4084  0.2154
  231MOL0     N31100   4.408   3.907   6.756 -0.3816 -0.6426 -0.6705
  231MOL0     N31101   4.319   3.992   6.720  0.7638  0.1844 -0.8823
  231MOL0     C31102   3.662   4.634   6.024 -0.7556  0.3347 -0.1514
  231MOL0     C31103   3.532   4.656   6.047  0.7992  0.4927 -0.8518
  231MOL0     C31104   3.088   4.531   6.130  0.0729 -0.3952 -0.4961
  231MOL0     C31105   3.031   4.661   6.082 -0.4777 -0.0075  0.5307
  231MOL0     C31106   2.900   4.697   6.106 -0.5906 -0.0578  0.3957
  231MOL0     C31107   2.823   4.603   6.175 -0.5061 -0.1960  0.5128
  231MOL0     O31108   2.692   4.624   6.202 -0.3516 -0.3247  0.2215
  231MOL0     C31109   2.608   4.690   6.104  0.4705 -0.6723  0.2304
  231MOL0     C31110   2.599   4.614   5.973  0.3499 -0.2364 -0.0268
  231MOL0     C31111   2.545   4.464   5.987 -0.7495 -0.1114 -0.5559
  231MOL0     C31112   2.417   4.453   6.078 -0.0977  0.4570  1.2716
  231MOL0     C31113   2.334   4.331   6.055  0.0068 -0.0103  0.7793
  231MOL0     C31114   2.267   4.238   6.013  0.7636  0.1313  0.1764
  231MOL0     C31115   2.876   4.487   6.230 -0.6195 -0.8934  0.0512
  231MOL0     C31116   3.004   4.444   6.206 -0.2050  0.5334 -0.6529
  231MOL0     C31117   3.049   4.316   6.268 -0.6886 -0.1211  0.0281
  231MOL0     H31118   3.371   4.416   5.875  1.5535  0.4010 -1.2655
  231MOL0     H31119   3.630   4.369   5.803  0.0252  2.6438 -3.4996
  231MOL0     H31120   3.827   4.370   6.063 -2.6630  1.5965 -1.3268
  231MOL0     H31121   3.855   4.313   5.903 -0.5512  0.1119 -0.0871
  231MOL0     H31122   4.040   4.511   6.013 -2.0997 -0.3129  1.7626
  231MOL0     H31123   4.079   4.378   5.902  1.6191  0.8833  0.9835
  231MOL0     H31124   3.991   4.230   6.106 -0.8316  0.8957 -4.0480
  231MOL0     H31125   4.043   4.364   6.201  1.7091 -1.3503  0.2649
  231MOL0     H31126   4.248   4.249   6.009 -1.0242 -2.1623  0.5020
  231MOL0     H31127   4.269   4.369   6.135  2.8863 -1.7218  1.9216
  231MOL0     H31128   4.228   4.067   6.158 -0.0403  1.5973 -1.7938
  231MOL0     H31129   4.369   4.162   6.200 -0.6025 -0.2266  1.8752
  231MOL0     H31130   4.221   4.298   6.350 -2.1411 -0.2255  0.6406
  231MOL0     H31131   4.105   4.162   6.359  0.7801 -1.2215  1.6290
  231MOL0     H31132   4.400   4.112   6.404  0.9539 -1.6459  0.6683
  231MOL0     H31133   4.266   4.019   6.454  2.2542 -0.6985  0.5008
  231MOL0     H31134   4.360   4.290   6.568 -0.8007  1.1056 -0.5009
  231MOL0     H31135   4.207   4.207   6.619  0.1283  1.5137  1.3073
  231MOL0     H31136   4.587   4.134   6.601 -0.6930 -1.3151 -0.6554
  231MOL0     H31137   4.723   3.944   6.831  1.9023 -2.4475  1.1094
  231MOL0     H31138   4.645   3.792   6.781 -2.3954  1.2973  2.2900
  231MOL0     H31139   4.720   3.857   6.540  0.8055  1.0509 -1.3074
  231MOL0     H31140   4.802   4.000   6.603  2.6100 -1.1616 -1.5351
  231MOL0     H31141   4.840   3.704   6.684 -0.3498 -0.0500  1.0064
  231MOL0     H31142   4.916   3.833   6.776  1.1287 -0.7299 -0.3671
  231MOL0     H31143   5.021   3.915   6.568 -2.5142  0.3198  3.9807
  231MOL0     H31144   4.933   3.795   6.468  1.2602 -2.6360  0.1018
  231MOL0     H31145   5.311   3.738   6.676  0.6742  1.1442  0.2551
  231MOL0     H31146   5.526   3.742   6.536 -0.0554  0.1440  0.9931
  231MOL0     H31147   5.860   3.789   6.496 -0.4168  1.6219 -1.3851
  231MOL0     H31148   6.085   3.736   6.466 -2.4747  2.1808  0.9036
  231MOL0     H31149   6.310   3.760   6.326  1.3994  0.4193 -3.6885
  231MOL0     H31150   6.269   3.610   6.428 -6.5057  3.6670  0.4299
  231MOL0     H31151   6.431   3.495   6.259 -0.3200 -0.5791  0.3884
  231MOL0     H31152   6.473   3.645   6.197  0.0244  0.3234 -0.5740
  231MOL0     H31153   6.600   3.699   6.388  2.0699 -1.0159  0.3256
  231MOL0     H31154   6.484   3.622   6.500  1.0984 -1.0895  0.9418
  231MOL0     H31155   6.685   3.480   6.304  0.5621  1.3172 -0.0945
  231MOL0     H31156   6.570   3.400   6.414  0.6003 -1.0079 -2.4750
  231MOL0     H31157   6.777   3.598   6.523 -1.0305  0.8185  1.9460
  231MOL0     H31158   6.791   3.415   6.508  0.9420  1.4454 -2.0633
  231MOL0     H31159   6.587   3.569   6.662  0.8133  0.1435  1.0689
  231MOL0     H31160   6.603   3.390   6.646  0.5916 -0.2421 -0.9551
  231MOL0     H31161   6.822   3.547   6.784  2.7297 -3.5933  0.6404
  231MOL0     H31162   6.802   3.377   6.781  0.3518 -0.4599  2.3485
  231MOL0     H31163   6.639   3.347   6.921 -1.7501 -1.1186 -2.5576
  231MOL0     H31164   6.741   3.480   6.990  3.8784  1.6575 -3.1193
  231MOL0     H31165   5.997   3.587   6.063 -0.2478 -1.8672  1.1117
  231MOL0     H31166   5.759   3.637   6.117  0.9297  0.4260 -1.2335
  231MOL0     H31167   5.285   3.757   6.171 -2.5414 -3.3822  0.4979
  231MOL0     H31168   5.097   3.737   6.305 -1.0541  0.0885  1.7621
  231MOL0     H31169   3.748   4.687   6.063  0.0001 -2.5151  2.4528
  231MOL0     H31170   3.512   4.737   6.117 -2.8655 -1.2387  0.3927
  231MOL0     H31171   3.092   4.732   6.027  1.9160  0.1654  3.1648
  231MOL0     H31172   2.860   4.793   6.077  0.2923  0.5971  1.2969
  231MOL0     H31173   2.645   4.789   6.077 -1.5524  0.3068  0.8095
  231MOL0     H31174   2.507   4.703   6.145  0.5425 -2.1417  0.9510
  231MOL0     H31175   2.696   4.610   5.922 -0.0167 -3.6477 -0.7395
  231MOL0     H31176   2.529   4.663   5.904 -0.4953 -2.8296 -1.1626
  231MOL0     H31177   2.635   4.412   6.021  0.2615  1.7857 -0.2301
  231MOL0     H31178   2.528   4.417   5.889 -0.7214 -1.9177  0.2665
  231MOL0     H31179   2.440   4.440   6.184 -0.4601  0.9154  1.4092
  231MOL0     H31180   2.357   4.544   6.066 -0.0242  0.4622  0.9313
  231MOL0     H31181   2.203   4.176   5.954  0.6755 -1.2153  1.6154
  231MOL0     H31182   2.811   4.425   6.290 -0.5274  0.3548  1.5246
  231MOL0     H31183   3.138   4.335   6.328  0.9054 -2.9844 -1.2621
  231MOL0     H31184   2.980   4.267   6.338  0.8322 -2.4021  0.0298
  231MOL0     H31185   3.067   4.239   6.193 -1.0709 -1.4947  1.2966
  232MOL0     O31186   7.850   0.172   9.292 -0.0404 -0.0258  0.0409
  232MOL0     C31187   7.860   0.152   9.172 -0.7920 -0.3616 -0.0612
  232MOL0     O31188   7.936   0.224   9.090  0.2536  0.1199 -0.1953
  232MOL0     C31189   8.005   0.321   9.150  0.4952  0.2376  0.0903
  232MOL0     C31190   7.965   0.455   9.140  0.4992 -0.1160 -0.2816
  232MOL0     C31191   8.049   0.551   9.188 -0.5833 -0.7415 -0.4148
  232MOL0     C31192   8.181   0.527   9.241 -0.0143 -0.1882 -1.1070
  232MOL0     O31193   8.251   0.638   9.269 -0.6279  0.4561 -0.3305
  232MOL0     C31194   8.378   0.623   9.339  0.6860 -0.0485 -0.4919
  232MOL0     C31195   8.420   0.772   9.369 -0.6462 -0.1795  0.2456
  232MOL0     C31196   8.560   0.773   9.432 -0.0551  0.3681  0.5144
  232MOL0     C31197   8.662   0.757   9.321 -0.4187  0.2122 -0.0770
  232MOL0     C31198   8.804   0.751   9.374  0.1269  0.5951 -0.6745
  232MOL0     C31199   8.850   0.892   9.428 -0.3927  0.4310 -0.0146
  232MOL0     C31200   9.000   0.891   9.475 -0.3162 -0.5449  0.8023
  232MOL0     C31201   9.114   0.866   9.376  0.5201 -0.3024 -0.4025
  232MOL0     N31202   9.241   0.917   9.432 -0.3141 -0.5905  0.3113
  232MOL0     C31203   9.350   0.940   9.356  0.1772 -0.2529 -0.7689
  232MOL0     C31204   9.445   0.983   9.446  0.1831  0.0498 -0.4147
  232MOL0     C31205   9.578   1.033   9.411  0.2317  0.2565 -0.3401
  232MOL0     C31206   9.696   0.932   9.433  0.4894  0.7284 -0.4568
  232MOL0     C31207   9.830   1.001   9.398 -0.4808  0.2123  0.3177
  232MOL0     C31208   9.949   0.904   9.421 -0.0435  0.4433  0.1095
  232MOL0     O31209  10.072   0.971   9.439 -0.6407  0.1630 -0.7017
  232MOL0     C31210  10.182   0.897   9.491  0.6060  0.0883 -0.2869
  232MOL0     C31211  10.307   0.927   9.432 -0.4478 -0.1305  0.0091
  232MOL0     C31212  10.419   0.859   9.470 -1.3411  1.1268  0.5849
  232MOL0     C31213  10.416   0.768   9.582 -0.3086 -0.4121 -0.2833
  232MOL0     C31214  10.532   0.687   9.633 -0.4832 -0.4899  0.0460
  232MOL0     O31215  10.647   0.691   9.561 -0.3081 -0.1039 -0.4764
  232MOL0     C31216  10.759   0.612   9.584 -0.2317 -0.4779  0.0807
  232MOL0     C31217  10.859   0.646   9.491 -0.3583 -0.6839 -0.2700
  232MOL0     C31218  10.989   0.573   9.502 -0.3263  0.6826  0.2115
  232MOL0     C31219  11.013   0.479   9.600  0.6728 -0.8235  0.0541
  232MOL0     O31220  11.134   0.413   9.580  0.7131  0.0153  0.1038
  232MOL0     C31221  11.179   0.355   9.697  0.3577 -0.0344 -1.4695
  232MOL0     C31222  11.330   0.358   9.704 -0.6700 -0.2620 -0.5437
  232MOL0     C31223  11.380   0.324   9.846 -0.2028 -0.0959 -0.1121
  232MOL0     C31224  11.519   0.375   9.863  0.4178 -0.5402 -0.0114
  232MOL0     C31225  11.561   0.337  10.011 -0.5292  0.0416  0.4923
  232MOL0     C31226  11.697   0.400  10.049  0.5194  1.2358 -1.0206
  232MOL0     C31227  11.821   0.373   9.963 -0.3500  0.6640 -0.1777
  232MOL0     C31228  11.948   0.395  10.043  0.3521 -0.5924  0.2277
  232MOL0    Cl31229  11.981   0.571  10.070 -0.6968  0.1052  0.1165
  232MOL0     C31230  10.904   0.440   9.683 -0.1388  0.5463  0.7502
  232MOL0     C31231  10.783   0.505   9.672 -0.1413  1.0523  0.4736
  232MOL0     O31232  10.512   0.611   9.730 -0.4371  0.5401  0.9478
  232MOL0     C31233  10.286   0.743   9.631  0.2718  0.3517 -0.0217
  232MOL0     C31234  10.174   0.804   9.592  0.1327 -0.0977 -1.1910
  232MOL0     N31235   9.397   0.968   9.574  0.2982  0.7875 -0.2750
  232MOL0     N31236   9.285   0.909   9.561  0.3580 -0.2560  0.1191
  232MOL0     C31237   8.221   0.399   9.259  1.2814 -0.3218  0.2509
  232MOL0     C31238   8.136   0.296   9.207  1.1672 -0.3256 -0.5929
  232MOL0     C31239   7.789   0.042   9.117  0.1867  0.7399  0.4154
  232MOL0     C31240   7.838  -0.019   8.996  1.0057 -0.4181 -0.2062
  232MOL0     C31241   7.782  -0.132   8.941 -0.0734 -0.7809  0.4901
  232MOL0     C31242   7.665  -0.185   8.987  0.2000 -0.6594 -0.1655
  232MOL0     O31243   7.597  -0.280   8.921 -0.9305  0.3224  0.3046
  232MOL0     C31244   7.626  -0.413   8.951 -0.0764  0.6302  0.0428
  232MOL0     C31245   7.534  -0.507   8.882 -0.5149 -1.1995 -0.6940
  232MOL0     C31246   7.397  -0.466   8.917  1.0442 -0.2299 -0.4001
  232MOL0     C31247   7.306  -0.557   8.843 -0.0043 -1.1442  0.1267
  232MOL0     C31248   7.298  -0.690   8.905  0.2129  0.4886  0.1108
  232MOL0     C31249   7.309  -0.789   8.975 -0.1498  0.1035  0.1497
  232MOL0     C31250   7.595  -0.110   9.091  0.6131 -0.2326 -0.5888
  232MOL0     C31251   7.661  -0.008   9.164 -0.2983  0.6107 -0.1094
  232MOL0     C31252   7.583   0.064   9.271 -0.3038 -0.4253  0.5679
  232MOL0     H31253   7.882   0.499   9.085  1.8553  1.1506 -1.4113
  232MOL0     H31254   8.018   0.653   9.172 -0.2082  0.0459  3.0565
  232MOL0     H31255   8.358   0.575   9.436  0.2252 -3.3022 -2.0799
  232MOL0     H31256   8.445   0.573   9.269 -0.3481 -0.4408 -1.2132
  232MOL0     H31257   8.349   0.819   9.437  0.1931  0.4530  0.6928
  232MOL0     H31258   8.420   0.836   9.280  1.6635 -0.8952 -0.3327
  232MOL0     H31259   8.580   0.685   9.494  1.8915 -0.0007 -0.5528
  232MOL0     H31260   8.583   0.870   9.478 -0.0031  2.4996 -3.5606
  232MOL0     H31261   8.641   0.667   9.262  0.1106 -0.1923  0.3374
  232MOL0     H31262   8.658   0.845   9.256 -0.1485 -0.0097 -0.4036
  232MOL0     H31263   8.811   0.674   9.452  1.4420  0.0808 -1.2619
  232MOL0     H31264   8.876   0.727   9.295  0.0149  2.2240 -1.3070
  232MOL0     H31265   8.832   0.963   9.347  1.0455 -0.5650 -1.2824
  232MOL0     H31266   8.791   0.922   9.515  0.1456 -1.2824  0.9906
  232MOL0     H31267   9.008   0.805   9.542 -1.3528  0.1214  1.8085
  232MOL0     H31268   9.026   0.985   9.523  1.5009  1.0415 -2.8768
  232MOL0     H31269   9.132   0.760   9.357  0.8037 -0.3222 -0.0340
  232MOL0     H31270   9.101   0.918   9.281  1.1408  2.0356  0.7228
  232MOL0     H31271   9.359   0.931   9.248  1.7026 -1.2447 -0.5887
  232MOL0     H31272   9.574   1.054   9.303  1.7720 -2.0605 -0.9267
  232MOL0     H31273   9.605   1.126   9.462  2.9073 -0.3840 -0.4552
  232MOL0     H31274   9.691   0.896   9.536 -1.8255  0.0440 -0.7296
  232MOL0     H31275   9.678   0.853   9.359 -2.1893  1.3328 -0.5598
  232MOL0     H31276   9.844   1.091   9.458  1.7493 -0.9614  1.7152
  232MOL0     H31277   9.835   1.029   9.293  3.5380  0.5884  0.4578
  232MOL0     H31278   9.963   0.846   9.330  3.9203 -1.7060  1.8315
  232MOL0     H31279   9.919   0.832   9.498  1.0454 -1.0539 -0.8194
  232MOL0     H31280  10.305   1.007   9.359  0.7038  0.3922  0.5400
  232MOL0     H31281  10.509   0.892   9.418 -0.0410  0.9878  2.6293
  232MOL0     H31282  10.852   0.729   9.421  1.5566 -1.7058 -1.7661
  232MOL0     H31283  11.078   0.608   9.451 -1.7328  3.1482 -0.7370
  232MOL0     H31284  11.146   0.423   9.776  0.3410 -1.1565 -0.4830
  232MOL0     H31285  11.139   0.254   9.710  2.1712 -0.4751  1.7426
  232MOL0     H31286  11.379   0.286   9.639 -3.0535 -1.1017 -1.4782
  232MOL0     H31287  11.359   0.454   9.660 -1.8166 -0.2132 -1.2162
  232MOL0     H31288  11.322   0.389   9.912 -0.7514  0.5685 -1.2202
  232MOL0     H31289  11.357   0.220   9.871 -3.3617 -0.2004 -2.7764
  232MOL0     H31290  11.508   0.484   9.865 -1.6002 -0.6982  0.2869
  232MOL0     H31291  11.595   0.337   9.794  1.0607  0.2034  0.2765
  232MOL0     H31292  11.558   0.231  10.036 -1.1538  0.3344  1.7151
  232MOL0     H31293  11.484   0.364  10.084  0.1836 -2.2728  2.2167
  232MOL0     H31294  11.691   0.509  10.041  2.9619  1.3681 -1.6466
  232MOL0     H31295  11.712   0.359  10.149  0.8564  1.2696 -1.0576
  232MOL0     H31296  11.821   0.417   9.863 -1.7089 -1.2629 -1.0956
  232MOL0     H31297  11.823   0.264   9.949  2.8394  0.6826 -0.6674
  232MOL0     H31298  11.942   0.344  10.140  0.9455  1.3944  1.3596
  232MOL0     H31299  12.037   0.340  10.010  0.8339  0.0442  0.4640
  232MOL0     H31300  10.906   0.356   9.752 -0.3029  1.3334  1.7246
  232MOL0     H31301  10.708   0.461   9.737  1.3655  0.3625  1.8534
  232MOL0     H31302  10.274   0.674   9.714  1.0847 -0.1623 -0.3242
  232MOL0     H31303  10.081   0.797   9.648  0.2525  3.0923 -0.4165
  232MOL0     H31304   8.310   0.364   9.310  2.1996 -1.2858 -1.8579
  232MOL0     H31305   8.161   0.191   9.199 -0.5102 -0.7087 -1.2087
  232MOL0     H31306   7.922   0.031   8.948  1.4916  0.4699  1.4807
  232MOL0     H31307   7.832  -0.180   8.858 -0.0850 -3.9278  2.1794
  232MOL0     H31308   7.619  -0.419   9.060  0.1633  1.2340  0.0931
  232MOL0     H31309   7.731  -0.429   8.926 -0.3283 -1.3570  0.0367
  232MOL0     H31310   7.560  -0.598   8.936 -0.2879  0.5124  2.3038
  232MOL0     H31311   7.559  -0.513   8.776  1.2624 -1.7266 -0.2769
  232MOL0     H31312   7.376  -0.362   8.887  0.5655 -0.8997 -2.5862
  232MOL0     H31313   7.381  -0.466   9.025  1.8000  0.6268 -0.2760
  232MOL0     H31314   7.212  -0.501   8.851  1.3372  1.2721 -0.1087
  232MOL0     H31315   7.326  -0.564   8.736  1.3539  0.5051  0.2308
  232MOL0     H31316   7.317  -0.882   9.027 -0.0881  0.1282  0.1857
  232MOL0     H31317   7.498  -0.148   9.122 -0.1037  1.2433 -0.9285
  232MOL0     H31318   7.582   0.172   9.253  0.0036 -0.7724 -1.8128
  232MOL0     H31319   7.481   0.027   9.272 -0.3558 -0.2802  1.6657
  232MOL0     H31320   7.633   0.043   9.366 -0.5506  0.6387  0.9490
  233MOL0     O31321   7.387   3.162   9.274  0.4842 -0.2842  0.0355
  233MOL0     C31322   7.321   3.262   9.262 -0.0080 -0.7136  0.4284
  233MOL0     O31323   7.372   3.389   9.259 -0.0644  0.2429 -0.3118
  233MOL0     C31324   7.501   3.411   9.223 -0.4570  0.3623  0.2242
  233MOL0     C31325   7.528   3.450   9.095  1.3488 -0.0637 -0.6136
  233MOL0     C31326   7.660   3.474   9.054 -0.2493 -0.2856  0.2666
  233MOL0     C31327   7.767   3.459   9.143 -0.9324 -0.0839 -0.2671
  233MOL0     O31328   7.897   3.467   9.087 -0.6393 -0.0796 -0.2033
  233MOL0     C31329   8.018   3.454   9.169  0.2725  0.2604 -0.4100
  233MOL0     C31330   8.034   3.600   9.229 -0.6048 -0.4229 -0.5812
  233MOL0     C31331   8.133   3.604   9.342 -0.4198  0.1136 -0.2244
  233MOL0     C31332   8.273   3.594   9.275 -0.2622  0.6271 -0.3620
  233MOL0     C31333   8.373   3.577   9.383 -0.9455  0.1805  0.0077
  233MOL0     C31334   8.518   3.566   9.329  0.5223 -0.4565 -0.0378
  233MOL0     C31335   8.612   3.487   9.431 -0.5598  0.3540  0.0500
  233MOL0     C31336   8.645   3.580   9.551 -0.0655  0.2416 -0.1529
  233MOL0     N31337   8.717   3.511   9.659 -0.1896  0.1546  0.1179
  233MOL0     C31338   8.728   3.550   9.792  1.0527 -0.4325 -0.1867
  233MOL0     C31339   8.832   3.493   9.852 -0.7597  0.3276 -0.6771
  233MOL0     C31340   8.864   3.496   9.996  0.3928  0.5341 -0.3346
  233MOL0     C31341   9.010   3.501  10.018 -0.3922  0.4836 -0.3165
  233MOL0     C31342   9.038   3.500  10.169  0.2061  1.1170 -0.2507
  233MOL0     C31343   9.182   3.534  10.190 -0.4800 -0.3329  0.0678
  233MOL0     O31344   9.272   3.429  10.137  0.0589  0.5383  0.7201
  233MOL0     C31345   9.412   3.424  10.166 -0.8444 -1.4332 -0.3508
  233MOL0     C31346   9.481   3.526  10.240  0.1635  0.5129 -0.3817
  233MOL0     C31347   9.615   3.509  10.274  0.8783  1.1866 -0.0401
  233MOL0     C31348   9.682   3.393  10.236  1.1050  1.0130 -0.0108
  233MOL0     C31349   9.815   3.366  10.281  1.0878 -0.2106 -0.8925
  233MOL0     O31350   9.883   3.472  10.340  0.3137  0.1585  0.1535
  233MOL0     C31351  10.011   3.467  10.393  0.4115 -0.0287  0.9656
  233MOL0     C31352  10.098   3.353  10.409 -0.5394 -0.0963  0.1726
  233MOL0     C31353  10.230   3.365  10.443 -0.7895 -0.0746 -0.2972
  233MOL0     C31354  10.286   3.493  10.461  0.4077  0.4821  0.5665
  233MOL0     O31355  10.419   3.520  10.478  0.4951  0.3642 -0.5111
  233MOL0     C31356  10.491   3.435  10.565 -0.2978  0.2555 -0.3236
  233MOL0     C31357  10.642   3.430  10.525 -0.1457 -0.3210  0.3824
  233MOL0     C31358  10.704   3.572  10.533  0.6606 -0.1150  0.4831
  233MOL0     C31359  10.849   3.566  10.490 -0.1053 -0.0337  0.3741
  233MOL0     C31360  10.945   3.684  10.522  0.2558  0.5680  0.2010
  233MOL0     C31361  11.085   3.642  10.493 -0.8593 -0.2341 -0.3506
  233MOL0     C31362  11.203   3.745  10.512  0.6458  0.5106  0.1455
  233MOL0     C31363  11.193   3.798  10.661  0.4945 -0.2048 -0.6839
  233MOL0    Cl31364  11.322   3.911  10.701 -0.0862 -0.1205  0.0446
  233MOL0     C31365  10.201   3.603  10.454 -0.2792  0.0174 -0.6929
  233MOL0     C31366  10.062   3.594  10.432 -0.4981  0.4754  0.1630
  233MOL0     O31367   9.863   3.259  10.257  1.0893 -0.3448  0.9142
  233MOL0     C31368   9.615   3.301  10.154 -0.7911 -0.2944  0.5770
  233MOL0     C31369   9.482   3.315  10.114 -0.3712 -0.3327  0.1556
  233MOL0     N31370   8.887   3.409   9.750 -0.4186 -0.0758 -0.7501
  233MOL0     N31371   8.814   3.417   9.646  0.4907  0.1284 -0.3010
  233MOL0     C31372   7.734   3.422   9.276 -0.7766  0.1595 -0.2011
  233MOL0     C31373   7.601   3.396   9.317 -0.4658 -0.3403  0.6889
  233MOL0     C31374   7.180   3.238   9.236  0.1540 -1.0337 -0.1746
  233MOL0     C31375   7.115   3.341   9.166 -0.4185 -0.0212  0.3255
  233MOL0     C31376   6.981   3.342   9.121  0.5906 -0.0533  0.0368
  233MOL0     C31377   6.903   3.229   9.137  0.6611  0.6822 -0.9037
  233MOL0     O31378   6.770   3.224   9.099 -0.1719 -0.0335 -0.1792
  233MOL0     C31379   6.678   3.113   9.127  0.3876 -0.3113 -0.7189
  233MOL0     C31380   6.543   3.130   9.044 -0.4005 -0.5891  0.0826
  233MOL0     C31381   6.484   2.989   9.040  0.2357 -0.4589 -0.1986
  233MOL0     C31382   6.337   3.000   9.018 -0.4580 -0.7374  0.4318
  233MOL0     C31383   6.259   3.034   9.135 -0.7650 -1.4189 -0.5123
  233MOL0     C31384   6.201   3.071   9.239  0.2038  0.4839  0.4438
  233MOL0     C31385   6.961   3.129   9.225  0.0089  0.1660 -0.5098
  233MOL0     C31386   7.100   3.128   9.269 -0.1009  0.5627  0.8216
  233MOL0     C31387   7.143   3.011   9.351  0.4830  0.3864 -0.1029
  233MOL0     H31388   7.448   3.460   9.022  2.0153  1.5710 -1.1728
  233MOL0     H31389   7.686   3.465   8.949 -0.2056 -1.1691  0.3503
  233MOL0     H31390   8.002   3.375   9.243 -2.6533  0.5688 -0.5926
  233MOL0     H31391   8.105   3.429   9.109  0.3994  0.2143 -0.2074
  233MOL0     H31392   7.935   3.622   9.269  0.2770  1.1167  0.8996
  233MOL0     H31393   8.056   3.666   9.144  0.5087 -2.8138 -2.2752
  233MOL0     H31394   8.117   3.522   9.413  2.4126 -0.4639 -0.1472
  233MOL0     H31395   8.109   3.696   9.395 -0.9680  1.1736 -2.2029
  233MOL0     H31396   8.285   3.518   9.196  0.1589 -0.0527  0.3398
  233MOL0     H31397   8.295   3.685   9.218 -2.5497  0.5667 -1.4701
  233MOL0     H31398   8.362   3.670   9.441 -3.4263  1.2486 -1.9481
  233MOL0     H31399   8.348   3.493   9.448  2.3494 -0.6078  0.4225
  233MOL0     H31400   8.513   3.502   9.240  0.0427 -0.4148 -0.0431
  233MOL0     H31401   8.559   3.660   9.292  0.8914  0.3521  2.2647
  233MOL0     H31402   8.704   3.461   9.379  1.1373  0.9542  2.5745
  233MOL0     H31403   8.558   3.397   9.460  0.6428  0.1612  1.8102
  233MOL0     H31404   8.700   3.671   9.525  0.0075  0.0685 -0.6167
  233MOL0     H31405   8.548   3.600   9.597  0.2515  0.8296  0.2623
  233MOL0     H31406   8.655   3.607   9.849  1.7151 -1.8680  2.2196
  233MOL0     H31407   8.813   3.584  10.037 -1.2987  0.3244 -1.8570
  233MOL0     H31408   8.822   3.412  10.052  0.7241 -0.1843 -1.1477
  233MOL0     H31409   9.069   3.422   9.968  1.8448  1.2704  0.9219
  233MOL0     H31410   9.053   3.593   9.978  0.6453  1.0282  1.8843
  233MOL0     H31411   9.016   3.398  10.202 -0.6161 -0.1444 -4.1024
  233MOL0     H31412   8.973   3.570  10.222  2.5052  2.7963  0.5243
  233MOL0     H31413   9.197   3.540  10.299  0.9436  0.5347 -0.1417
  233MOL0     H31414   9.210   3.635  10.158 -0.4064  0.9188  3.5686
  233MOL0     H31415   9.424   3.607  10.284  1.1831  0.6830  0.6734
  233MOL0     H31416   9.653   3.579  10.348  2.5077 -1.0802  1.4191
  233MOL0     H31417  10.051   3.256  10.399  1.1590 -1.0860  1.3572
  233MOL0     H31418  10.283   3.271  10.458  1.2470  1.0202 -0.3012
  233MOL0     H31419  10.481   3.456  10.671 -1.3587 -1.5701 -0.0202
  233MOL0     H31420  10.454   3.332  10.565 -0.7369  0.3414  2.4276
  233MOL0     H31421  10.696   3.365  10.594  0.2144 -1.8473 -1.2751
  233MOL0     H31422  10.654   3.394  10.422 -1.8972  1.6989 -0.6193
  233MOL0     H31423  10.650   3.633  10.460  1.4939 -1.6921 -1.5550
  233MOL0     H31424  10.687   3.618  10.630  0.9510  0.3466  0.3171
  233MOL0     H31425  10.858   3.547  10.382  1.7895 -0.4536  0.5695
  233MOL0     H31426  10.882   3.475  10.541  3.7952  1.5773  1.1329
  233MOL0     H31427  10.944   3.715  10.627  1.6270 -0.9851  0.7197
  233MOL0     H31428  10.929   3.766  10.452  1.1316 -0.8490 -1.7738
  233MOL0     H31429  11.110   3.552  10.549  0.2917 -0.5667 -1.3563
  233MOL0     H31430  11.084   3.609  10.388 -2.6357  1.0907 -0.7990
  233MOL0     H31431  11.189   3.826  10.441  0.2554 -0.4351 -0.8820
  233MOL0     H31432  11.295   3.699  10.476  1.2829  2.3916 -0.7403
  233MOL0     H31433  11.096   3.839  10.690  1.8794  2.2691  0.7606
  233MOL0     H31434  11.204   3.709  10.723  2.0353 -0.4289 -1.2347
  233MOL0     H31435  10.244   3.697  10.487 -4.1492  1.6368  0.2233
  233MOL0     H31436   9.997   3.681  10.433  0.3130  1.1563 -1.6843
  233MOL0     H31437   9.670   3.214  10.118  0.1123  0.7473 -0.6413
  233MOL0     H31438   9.431   3.239  10.056 -0.5125 -0.8584  0.9489
  233MOL0     H31439   7.816   3.402   9.345 -0.2102  0.2470 -0.8373
  233MOL0     H31440   7.579   3.347   9.412  2.2908 -0.8843  1.1362
  233MOL0     H31441   7.179   3.421   9.130 -0.9710 -0.4166 -1.6436
  233MOL0     H31442   6.948   3.433   9.073 -2.2547 -1.0654 -0.1030
  233MOL0     H31443   6.647   3.103   9.232 -3.0944  0.3793 -1.5671
  233MOL0     H31444   6.728   3.018   9.103  1.2216  0.3042 -1.4598
  233MOL0     H31445   6.574   3.165   8.945 -3.6294 -1.0755 -1.2153
  233MOL0     H31446   6.481   3.201   9.100  1.4598  2.0226 -0.9429
  233MOL0     H31447   6.505   2.943   9.137  0.0219 -0.1912 -0.0225
  233MOL0     H31448   6.531   2.929   8.961 -0.1732  1.0115 -1.6200
  233MOL0     H31449   6.301   3.071   8.943 -0.7175  1.1724  2.3030
  233MOL0     H31450   6.307   2.898   8.990 -0.0151 -0.7408 -0.0549
  233MOL0     H31451   6.147   3.100   9.327  0.0952 -0.2636  0.6290
  233MOL0     H31452   6.904   3.055   9.281 -0.2423  1.1596  0.5954
  233MOL0     H31453   7.215   3.045   9.426  0.0336  2.0348 -0.3984
  233MOL0     H31454   7.062   2.973   9.415  0.9714 -0.9911 -0.2669
  233MOL0     H31455   7.195   2.934   9.293 -0.4815 -1.1154  0.9402
  234MOL0     O31456   7.741   9.935   8.189 -0.2058 -0.2547 -0.8203
  234MOL0     C31457   7.765   9.873   8.294  0.3425  0.0337  0.9730
  234MOL0     O31458   7.887   9.810   8.333  0.1665  0.1492 -0.5224
  234MOL0     C31459   8.000   9.814   8.259 -0.5486 -0.8879 -0.6248
  234MOL0     C31460   8.116   9.818   8.335  0.5791 -0.4705  0.3528
  234MOL0     C31461   8.236   9.826   8.266 -0.6168 -0.7937  0.0457
  234MOL0     C31462   8.253   9.814   8.129  0.6885 -0.6739 -0.5911
  234MOL0     O31463   8.386   9.815   8.085  0.1875  0.0164  0.3221
  234MOL0     C31464   8.417   9.756   7.959  0.8854 -0.3173  0.0453
  234MOL0     C31465   8.479   9.875   7.871  0.3928  1.0254  0.2892
  234MOL0     C31466   8.371   9.939   7.791 -0.0312 -0.3264  0.1534
  234MOL0     C31467   8.423  10.056   7.718 -0.1641 -0.1512 -0.2223
  234MOL0     C31468   8.322  10.159   7.662  0.4971 -0.9589  0.2904
  234MOL0     C31469   8.230  10.108   7.545 -0.1745 -0.1061  0.4407
  234MOL0     C31470   8.140  10.216   7.500  0.7731 -0.0782 -0.4005
  234MOL0     C31471   8.079  10.207   7.360 -0.3907 -0.4224  0.1186
  234MOL0     N31472   8.171  10.248   7.252  0.7889 -0.1993  0.0010
  234MOL0     C31473   8.263  10.353   7.262 -0.0182 -0.3664  0.9218
  234MOL0     C31474   8.337  10.350   7.145  0.6991 -0.3058 -0.1578
  234MOL0     C31475   8.463  10.433   7.105  0.2297 -0.8677 -0.1900
  234MOL0     C31476   8.591  10.388   7.169  0.1858  0.0017  0.4637
  234MOL0     C31477   8.699  10.484   7.127  0.2877 -0.7005  0.3892
  234MOL0     C31478   8.831  10.414   7.171 -0.5090  0.2682 -0.0279
  234MOL0     O31479   8.938  10.466   7.083 -0.4571  0.6966 -0.5895
  234MOL0     C31480   9.066  10.466   7.117 -0.5236 -0.7081  1.2277
  234MOL0     C31481   9.166  10.483   7.021 -0.1637 -0.7469  0.1330
  234MOL0     C31482   9.305  10.480   7.044  0.1263  0.2652  0.2690
  234MOL0     C31483   9.350  10.455   7.173  0.1053 -0.7137  0.3005
  234MOL0     C31484   9.492  10.463   7.207  0.2360  0.9885 -0.0587
  234MOL0     O31485   9.575  10.509   7.115  0.0387  0.2079 -0.6203
  234MOL0     C31486   9.711  10.517   7.135 -0.6698 -0.1964 -0.4581
  234MOL0     C31487   9.779  10.634   7.104  0.0539 -0.8808 -0.4984
  234MOL0     C31488   9.917  10.646   7.106  0.1267 -0.0313 -0.0530
  234MOL0     C31489   9.996  10.538   7.146  0.2479 -0.3749 -0.2973
  234MOL0     O31490  10.128  10.567   7.140  0.1830 -1.0657  0.3492
  234MOL0     C31491  10.223  10.464   7.168  0.0896  0.5998  0.3419
  234MOL0     C31492  10.359  10.525   7.206  0.3116  0.2150 -0.5340
  234MOL0     C31493  10.468  10.441   7.181 -0.0538  0.8235 -0.5823
  234MOL0     C31494  10.591  10.486   7.263  0.8622 -0.2890 -0.4105
  234MOL0     C31495  10.711  10.401   7.229  0.6769 -0.5820  0.0889
  234MOL0     C31496  10.823  10.441   7.317 -0.0392 -0.6900 -0.6013
  234MOL0     C31497  10.950  10.359   7.292 -0.1552 -0.1075 -0.3807
  234MOL0     C31498  11.050  10.382   7.411 -0.1588 -0.1252 -0.2051
  234MOL0    Cl31499  11.204  10.321   7.374  0.5891  0.0624 -0.4917
  234MOL0     C31500   9.929  10.421   7.196 -0.5227  0.5352  0.1420
  234MOL0     C31501   9.790  10.408   7.192 -0.7764  0.2019  0.3060
  234MOL0     O31502   9.518  10.422   7.325  0.7194 -0.0678  0.0047
  234MOL0     C31503   9.254  10.434   7.276  0.2752  0.1237  0.1347
  234MOL0     C31504   9.117  10.431   7.243  0.1910  0.0194  0.3421
  234MOL0     N31505   8.291  10.247   7.072 -0.5372  0.8620  0.4557
  234MOL0     N31506   8.198  10.188   7.136  0.6908  0.2672  0.4379
  234MOL0     C31507   8.132   9.804   8.055 -0.6486  0.0935  0.5154
  234MOL0     C31508   8.012   9.806   8.119  0.1551  0.3974 -0.0068
  234MOL0     C31509   7.649   9.859   8.385 -0.5948 -0.5234  0.5721
  234MOL0     C31510   7.562   9.971   8.422 -0.5026  1.4166 -0.1789
  234MOL0     C31511   7.469   9.966   8.514 -0.6418  0.0759 -0.3240
  234MOL0     C31512   7.429   9.843   8.564  0.2902  0.7561  0.4445
  234MOL0     O31513   7.321   9.832   8.650 -0.2243  0.0369  0.1368
  234MOL0     C31514   7.343   9.838   8.793  0.4238  0.5429 -0.2823
  234MOL0     C31515   7.211   9.906   8.862 -0.9529  0.6570  0.1191
  234MOL0     C31516   7.089   9.816   8.820 -0.1609 -0.1742 -0.7478
  234MOL0     C31517   6.964   9.844   8.900 -0.0985 -0.8896 -0.2869
  234MOL0     C31518   6.974   9.808   9.042  0.2763  0.7654  0.1969
  234MOL0     C31519   7.009   9.781   9.155  0.1622  0.1321 -1.2415
  234MOL0     C31520   7.496   9.724   8.519 -0.2127 -0.2767 -0.6272
  234MOL0     C31521   7.612   9.730   8.441  0.6857  0.8214 -0.2571
  234MOL0     C31522   7.675   9.597   8.395  0.0317 -1.3687 -0.1740
  234MOL0     H31523   8.096   9.829   8.441  3.0854 -0.4334  0.8882
  234MOL0     H31524   8.319   9.846   8.332  0.0285 -1.4383 -0.5575
  234MOL0     H31525   8.494   9.682   7.985  0.4216 -1.4381 -1.6055
  234MOL0     H31526   8.336   9.706   7.905  0.7009  1.6942 -1.6825
  234MOL0     H31527   8.542   9.835   7.792  2.3828 -1.9108  3.0875
  234MOL0     H31528   8.537   9.944   7.933  2.5105  0.9006 -1.4287
  234MOL0     H31529   8.286   9.979   7.848 -1.9503 -0.3166 -2.5099
  234MOL0     H31530   8.325   9.865   7.725  1.2935 -3.1713  2.2303
  234MOL0     H31531   8.484  10.109   7.792 -1.2605 -1.8337  2.0212
  234MOL0     H31532   8.490  10.018   7.641 -0.6513  2.5895 -2.1586
  234MOL0     H31533   8.257  10.187   7.746  0.2188  0.3328 -0.3382
  234MOL0     H31534   8.376  10.249   7.636 -2.0135  0.4418 -0.3811
  234MOL0     H31535   8.292  10.070   7.463  0.3380  0.2047  0.6776
  234MOL0     H31536   8.171  10.023   7.580  2.8644 -1.5454  2.5887
  234MOL0     H31537   8.178  10.318   7.508  0.0725  0.2485 -1.0930
  234MOL0     H31538   8.059  10.206   7.572 -0.2658 -3.7147 -1.8579
  234MOL0     H31539   8.043  10.109   7.327  3.9220 -1.7055 -1.5231
  234MOL0     H31540   7.996  10.279   7.357  1.7744  2.1835 -1.6456
  234MOL0     H31541   8.283  10.412   7.351  0.6566  0.9877 -0.0957
  234MOL0     H31542   8.473  10.431   6.996 -0.9107  1.7601 -0.4295
  234MOL0     H31543   8.439  10.537   7.128 -0.7537 -1.4813  1.7531
  234MOL0     H31544   8.571  10.376   7.276  0.0579  1.9949  0.6959
  234MOL0     H31545   8.596  10.286   7.132 -2.2067  0.1995 -0.5743
  234MOL0     H31546   8.701  10.578   7.184  3.6769 -0.7558  0.5791
  234MOL0     H31547   8.690  10.493   7.019  3.9281 -2.3453 -0.2193
  234MOL0     H31548   8.832  10.305   7.171  0.2827  0.2649 -0.3657
  234MOL0     H31549   8.846  10.446   7.274  2.3694 -0.7893 -0.0217
  234MOL0     H31550   9.130  10.509   6.922 -4.5933  2.4317  2.2488
  234MOL0     H31551   9.374  10.497   6.962  0.4360 -0.1255  0.4481
  234MOL0     H31552   9.728  10.721   7.063  0.9405  0.2695  0.7426
  234MOL0     H31553   9.970  10.736   7.076  0.5314 -1.0944 -2.8374
  234MOL0     H31554  10.186  10.394   7.244  1.9246 -0.5491  0.2485
  234MOL0     H31555  10.247  10.408   7.077  1.6712  0.5187  0.7830
  234MOL0     H31556  10.367  10.620   7.152  3.1740  1.2596  1.5556
  234MOL0     H31557  10.360  10.551   7.312 -3.5323  0.6133 -0.4491
  234MOL0     H31558  10.444  10.342   7.220  1.7035  0.7926  0.5384
  234MOL0     H31559  10.482  10.436   7.072  2.6728  0.7846 -0.2989
  234MOL0     H31560  10.563  10.489   7.369 -1.8007 -0.4531 -1.0209
  234MOL0     H31561  10.603  10.591   7.236  0.3361 -0.0093  0.4207
  234MOL0     H31562  10.740  10.418   7.125  0.7100 -4.1559 -0.5984
  234MOL0     H31563  10.702  10.293   7.240  0.1635 -0.3584  2.3047
  234MOL0     H31564  10.854  10.546   7.307  2.3889 -0.6199  4.2768
  234MOL0     H31565  10.796  10.430   7.423  1.9327  0.7890  0.1347
  234MOL0     H31566  10.990  10.388   7.195  1.5563  3.1971  1.1732
  234MOL0     H31567  10.926  10.252   7.294  2.2861 -0.7809  3.2330
  234MOL0     H31568  11.050  10.490   7.431  1.7316 -0.1675  0.1995
  234MOL0     H31569  11.022  10.323   7.499  1.4055  0.8717  1.0295
  234MOL0     H31570   9.988  10.337   7.233 -0.4916  1.2088  1.6913
  234MOL0     H31571   9.740  10.322   7.235  1.5396 -1.6691 -0.5600
  234MOL0     H31572   9.284  10.404   7.376  0.2366  0.3266  0.2076
  234MOL0     H31573   9.049  10.411   7.326 -1.2743  0.9184 -0.6008
  234MOL0     H31574   8.137   9.780   7.949 -3.3914 -0.5838  0.4777
  234MOL0     H31575   7.923   9.798   8.057  1.2461  1.5959 -1.8224
  234MOL0     H31576   7.591  10.067   8.380  0.2755  1.7172  0.9860
  234MOL0     H31577   7.424  10.061   8.540 -0.0007  0.6887 -1.3925
  234MOL0     H31578   7.431   9.901   8.809  0.0825  1.0145 -0.2705
  234MOL0     H31579   7.363   9.742   8.843 -0.9179  0.6072  0.4140
  234MOL0     H31580   7.191  10.008   8.830  1.1825  1.2328  0.4558
  234MOL0     H31581   7.214   9.906   8.971  0.1133  0.4291  0.1010
  234MOL0     H31582   7.114   9.710   8.829 -0.7341 -0.2585 -0.0980
  234MOL0     H31583   7.065   9.830   8.714  1.5700 -1.9470 -1.4278
  234MOL0     H31584   6.948   9.950   8.882  1.0592 -0.3511  1.5227
  234MOL0     H31585   6.881   9.794   8.849  0.8162 -1.8828 -0.8514
  234MOL0     H31586   7.025   9.761   9.258  1.8935  2.1985 -1.0212
  234MOL0     H31587   7.463   9.628   8.556  0.6207 -0.6679 -0.8856
  234MOL0     H31588   7.622   9.507   8.424 -1.1035 -1.1645 -1.5115
  234MOL0     H31589   7.680   9.597   8.286 -0.3891  0.4732 -0.2306
  234MOL0     H31590   7.777   9.604   8.436 -0.6858  1.4296  1.3780
  235MOL0     O31591   4.270   6.616   0.350  0.2960 -0.4883 -0.2612
  235MOL0     C31592   4.226   6.700   0.276  0.1561 -0.5581  0.4839
  235MOL0     O31593   4.298   6.758   0.170 -0.1642 -0.3942 -0.3071
  235MOL0     C31594   4.420   6.704   0.136 -0.7355 -0.3990 -0.9247
  235MOL0     C31595   4.527   6.706   0.224 -0.5393  0.1432 -0.7604
  235MOL0     C31596   4.661   6.679   0.189  0.2806 -0.0980  0.1251
  235MOL0     C31597   4.684   6.634   0.056 -0.1227  0.1904 -0.2783
  235MOL0     O31598   4.812   6.617   0.013  0.3055 -0.0655  0.5019
  235MOL0     C31599   4.915   6.701   0.061 -0.8339  0.5233  0.1639
  235MOL0     C31600   5.038   6.643  -0.002  0.8681 -0.3829  0.0591
  235MOL0     C31601   5.165   6.699   0.056 -0.5251  0.7960  0.5693
  235MOL0     C31602   5.282   6.673  -0.044  0.6085 -0.9919 -0.1068
  235MOL0     C31603   5.414   6.734  -0.001  1.0208 -0.0254  0.8529
  235MOL0     C31604   5.509   6.733  -0.119  0.2419 -0.2752  0.7880
  235MOL0     C31605   5.648   6.790  -0.071 -0.2236  0.3592  0.4492
  235MOL0     C31606   5.762   6.764  -0.171 -1.1304  0.6749  0.0515
  235MOL0     N31607   5.894   6.808  -0.118 -0.3732 -0.0997  0.8293
  235MOL0     C31608   5.935   6.939  -0.108  0.1197  0.1337 -0.4710
  235MOL0     C31609   6.058   6.935  -0.038 -0.5311 -0.0678  0.2593
  235MOL0     C31610   6.143   7.052  -0.000 -1.0169 -0.1478  0.0600
  235MOL0     C31611   6.277   7.046  -0.079 -0.2514 -0.1978  0.5358
  235MOL0     C31612   6.378   7.148  -0.010 -0.4879 -0.5995 -0.2230
  235MOL0     C31613   6.446   7.076   0.113  0.0968 -0.4667 -0.4777
  235MOL0     O31614   6.555   6.998   0.057  0.4595  0.3507 -0.0470
  235MOL0     C31615   6.683   7.053   0.042 -0.2109 -1.1022  0.8309
  235MOL0     C31616   6.743   7.177   0.079  0.2443  0.4627 -0.4666
  235MOL0     C31617   6.878   7.200   0.041  0.1051  0.9086  0.3311
  235MOL0     C31618   6.955   7.105  -0.028 -0.6434 -0.5959 -0.5463
  235MOL0     C31619   7.095   7.139  -0.068  0.4171 -0.0380 -0.4920
  235MOL0     O31620   7.123   7.267  -0.071 -0.0473 -0.6758 -0.0520
  235MOL0     C31621   7.245   7.296  -0.136  0.1063 -0.4581 -0.1186
  235MOL0     C31622   7.368   7.312  -0.071  0.2213 -1.0137 -0.7614
  235MOL0     C31623   7.489   7.331  -0.147  0.7711  0.4331  0.1686
  235MOL0     C31624   7.485   7.355  -0.289  0.1015  0.3403 -0.3096
  235MOL0     O31625   7.605   7.395  -0.350  0.2663  0.2422 -0.1674
  235MOL0     C31626   7.711   7.307  -0.325 -0.7030  0.1296  0.3841
  235MOL0     C31627   7.820   7.306  -0.439  0.5034 -0.1496 -0.3071
  235MOL0     C31628   7.942   7.224  -0.406  0.2194  0.4269  0.4778
  235MOL0     C31629   8.035   7.275  -0.298 -0.3124  1.0895 -0.3935
  235MOL0     C31630   8.152   7.177  -0.309 -0.5189  1.1750  0.0512
  235MOL0     C31631   8.267   7.212  -0.213 -0.4266  0.1499 -0.1871
  235MOL0     C31632   8.390   7.120  -0.217 -0.3097 -0.3561  0.1035
  235MOL0     C31633   8.480   7.126  -0.100  0.3629  0.0725 -0.8232
  235MOL0    Cl31634   8.614   7.005  -0.138  0.1717 -0.7948  0.3522
  235MOL0     C31635   7.357   7.335  -0.360 -0.3741  0.1779  0.0254
  235MOL0     C31636   7.245   7.311  -0.279  1.1847  0.2222 -0.1769
  235MOL0     O31637   7.162   7.045  -0.116 -0.0058 -0.4885 -0.8971
  235MOL0     C31638   6.894   6.991  -0.069  1.2477 -0.8369 -0.1357
  235MOL0     C31639   6.760   6.963  -0.033 -0.2723 -0.8271 -0.2192
  235MOL0     N31640   6.091   6.807  -0.016 -0.2216 -0.1109 -0.1236
  235MOL0     N31641   5.993   6.732  -0.062 -0.0312  0.6029 -0.5890
  235MOL0     C31642   4.579   6.637  -0.035  0.5581  0.2982  0.1127
  235MOL0     C31643   4.448   6.668   0.007  0.0915 -0.9043 -0.7448
  235MOL0     C31644   4.088   6.750   0.280  0.1569  0.4004 -0.6887
  235MOL0     C31645   4.035   6.832   0.174 -0.2296  1.0871  0.8355
  235MOL0     C31646   3.902   6.865   0.176  0.2621  0.5364  0.4286
  235MOL0     C31647   3.813   6.823   0.275  0.4252 -0.6769  0.1435
  235MOL0     O31648   3.679   6.855   0.277  0.1003 -0.8015 -0.0231
  235MOL0     C31649   3.612   6.913   0.167 -0.7213 -0.3279 -0.4286
  235MOL0     C31650   3.606   7.063   0.182 -0.3974 -0.0209  0.1897
  235MOL0     C31651   3.526   7.099   0.313  0.8400 -0.1707 -1.0191
  235MOL0     C31652   3.462   7.234   0.295  0.8226 -0.5675 -0.9398
  235MOL0     C31653   3.391   7.270   0.414  0.7111 -0.8756  0.0435
  235MOL0     C31654   3.324   7.284   0.519  0.3822 -0.8910 -0.2690
  235MOL0     C31655   3.861   6.753   0.380 -0.8585 -0.0022  0.1745
  235MOL0     C31656   4.000   6.713   0.385 -0.2654  0.1854  0.4057
  235MOL0     C31657   4.042   6.628   0.504  0.9055 -0.1937 -0.2873
  235MOL0     H31658   4.508   6.745   0.323 -0.4617  4.0608 -2.1065
  235MOL0     H31659   4.739   6.689   0.264 -1.6819  1.7756  2.0729
  235MOL0     H31660   4.908   6.804   0.023  0.8796 -0.3554 -2.9015
  235MOL0     H31661   4.920   6.700   0.170  3.7704 -0.0406  0.1429
  235MOL0     H31662   5.033   6.664  -0.109 -1.8126  1.3837  0.4391
  235MOL0     H31663   5.035   6.534   0.002 -3.3655 -0.3966  1.6316
  235MOL0     H31664   5.194   6.646   0.147 -0.2077  2.0719  1.2369
  235MOL0     H31665   5.151   6.805   0.079  0.9310  0.5369  2.9104
  235MOL0     H31666   5.288   6.566  -0.069  2.2205 -0.4641 -2.3908
  235MOL0     H31667   5.258   6.725  -0.138 -1.4457 -3.0935 -0.8404
  235MOL0     H31668   5.400   6.836   0.036 -0.7702  0.2891 -0.5638
  235MOL0     H31669   5.455   6.662   0.070  0.6343 -2.1934 -1.0086
  235MOL0     H31670   5.515   6.628  -0.148 -3.3207 -0.6718  1.0384
  235MOL0     H31671   5.463   6.788  -0.202 -0.0931 -1.6442  0.0279
  235MOL0     H31672   5.672   6.734   0.020  1.8189 -0.8920 -0.7900
  235MOL0     H31673   5.636   6.896  -0.047  0.1833  0.3761  0.5762
  235MOL0     H31674   5.772   6.655  -0.182  1.7613  1.1356 -4.6261
  235MOL0     H31675   5.738   6.798  -0.272 -1.2419 -2.1644 -0.9743
  235MOL0     H31676   5.871   7.024  -0.131  0.4956  0.4442 -0.3764
  235MOL0     H31677   6.092   7.145  -0.024  3.3886  2.6149  0.2530
  235MOL0     H31678   6.165   7.038   0.106 -0.8785 -3.4227 -0.2921
  235MOL0     H31679   6.323   6.947  -0.083  1.5863  0.6419 -2.7043
  235MOL0     H31680   6.269   7.069  -0.186  2.1452 -1.4726  0.0121
  235MOL0     H31681   6.321   7.234   0.027 -1.5183 -0.4277 -2.0912
  235MOL0     H31682   6.460   7.186  -0.070  2.0619 -1.2642  2.5824
  235MOL0     H31683   6.372   7.020   0.171  0.3340  0.8155  1.1282
  235MOL0     H31684   6.490   7.150   0.180 -0.9522 -0.4231  0.1743
  235MOL0     H31685   6.692   7.258   0.131 -2.3294 -0.6568 -1.0445
  235MOL0     H31686   6.920   7.297   0.064 -0.5855  1.0762  0.9220
  235MOL0     H31687   7.368   7.311   0.038  0.9278  1.2794 -0.6803
  235MOL0     H31688   7.584   7.343  -0.095  1.4394 -0.5806 -0.7934
  235MOL0     H31689   7.757   7.349  -0.235 -0.6311  2.7602 -0.7666
  235MOL0     H31690   7.670   7.208  -0.307  0.8231 -0.3923  1.1853
  235MOL0     H31691   7.760   7.271  -0.523  0.1880  1.5440 -0.8147
  235MOL0     H31692   7.866   7.404  -0.455  1.4211 -0.5335 -0.0762
  235MOL0     H31693   7.912   7.121  -0.385 -2.2966 -0.0177 -4.1001
  235MOL0     H31694   7.996   7.204  -0.499  1.3292  2.3649  0.6503
  235MOL0     H31695   7.988   7.285  -0.200  1.7166  1.7065  0.5790
  235MOL0     H31696   8.069   7.376  -0.322  4.6008  0.0646  1.1289
  235MOL0     H31697   8.191   7.165  -0.410  3.1069 -2.1974  1.5969
  235MOL0     H31698   8.123   7.075  -0.282 -0.1293  1.8274  3.4427
  235MOL0     H31699   8.304   7.311  -0.243 -0.1012 -0.0880 -0.5774
  235MOL0     H31700   8.223   7.208  -0.113  1.9316 -1.6539  0.8743
  235MOL0     H31701   8.451   7.156  -0.301  2.5229 -2.5599  1.0657
  235MOL0     H31702   8.357   7.018  -0.241  1.5024 -1.1550  0.8689
  235MOL0     H31703   8.522   7.227  -0.091  0.4461  0.3643 -3.4835
  235MOL0     H31704   8.437   7.099  -0.004 -1.0940  1.2700 -1.1053
  235MOL0     H31705   7.339   7.333  -0.467 -2.7810 -2.8861  0.3514
  235MOL0     H31706   7.151   7.301  -0.333  1.4132  2.5743 -1.1492
  235MOL0     H31707   6.948   6.918  -0.128  2.6251 -1.5403  1.8690
  235MOL0     H31708   6.714   6.865  -0.042 -0.4594 -0.8906  1.2255
  235MOL0     H31709   4.596   6.627  -0.141  1.0321  2.7484 -0.0928
  235MOL0     H31710   4.363   6.660  -0.060 -2.2340  1.0937  1.7438
  235MOL0     H31711   4.095   6.862   0.089 -1.1923 -0.1148 -0.3099
  235MOL0     H31712   3.876   6.929   0.093 -0.3805 -0.6232 -0.2748
  235MOL0     H31713   3.507   6.882   0.162 -0.6216 -0.5201 -1.8108
  235MOL0     H31714   3.654   6.887   0.069  1.8861 -0.1381  0.5787
  235MOL0     H31715   3.575   7.115   0.091  1.5898 -1.7512 -1.5773
  235MOL0     H31716   3.706   7.102   0.201 -0.3343 -0.7911  1.6295
  235MOL0     H31717   3.586   7.098   0.405  1.1469  0.8799 -1.1950
  235MOL0     H31718   3.445   7.029   0.334  1.6595 -0.2372  2.6047
  235MOL0     H31719   3.544   7.305   0.283  1.9337 -1.5200  0.6530
  235MOL0     H31720   3.394   7.232   0.209  0.4500 -1.3835 -0.6378
  235MOL0     H31721   3.277   7.294   0.615 -1.2984 -2.0014 -0.9140
  235MOL0     H31722   3.799   6.715   0.461 -1.2383 -2.3379 -1.1408
  235MOL0     H31723   4.128   6.665   0.560 -1.0600 -0.8178  3.4245
  235MOL0     H31724   3.954   6.615   0.567  1.2541  1.2813  0.5374
  235MOL0     H31725   4.070   6.528   0.468 -0.6681 -1.1859  1.0934
  236MOL0     O31726   4.418   7.072   6.854 -0.1542  0.1530  0.3783
  236MOL0     C31727   4.516   7.000   6.872  0.4823  0.1823 -0.6754
  236MOL0     O31728   4.617   7.017   6.964  0.4095  0.3484  0.3838
  236MOL0     C31729   4.597   7.113   7.059 -1.0109  0.0138 -0.8293
  236MOL0     C31730   4.706   7.201   7.083  0.4364  0.4974 -0.1093
  236MOL0     C31731   4.692   7.297   7.182  0.1737  0.5945 -0.1069
  236MOL0     C31732   4.575   7.308   7.258  0.1338 -0.2893  0.5118
  236MOL0     O31733   4.560   7.399   7.359  0.0452 -0.0089 -0.3889
  236MOL0     C31734   4.468   7.499   7.321  0.0135 -0.4707 -0.3903
  236MOL0     C31735   4.472   7.618   7.420 -0.0828  0.9734  0.4459
  236MOL0     C31736   4.607   7.670   7.438 -0.2526 -0.6465  0.1750
  236MOL0     C31737   4.605   7.803   7.512  0.5693  0.4907 -0.6759
  236MOL0     C31738   4.748   7.858   7.523  0.5413  0.8892 -0.1149
  236MOL0     C31739   4.747   8.004   7.574  0.1529 -0.1691  0.3547
  236MOL0     C31740   4.884   8.077   7.575  0.1581 -0.0691 -0.8996
  236MOL0     C31741   5.000   7.998   7.620 -0.2659  0.1577  0.3856
  236MOL0     N31742   5.016   7.960   7.759  0.7857  0.0779 -0.8627
  236MOL0     C31743   5.028   8.052   7.866 -0.7379  0.2057  0.2238
  236MOL0     C31744   5.027   7.982   7.975 -0.8470  0.2722 -0.7443
  236MOL0     C31745   5.038   8.034   8.119 -0.6280 -0.1513  0.1131
  236MOL0     C31746   5.175   8.005   8.169 -0.4758  0.5176 -0.9188
  236MOL0     C31747   5.191   8.027   8.315 -0.6405  0.1338 -0.2892
  236MOL0     C31748   5.336   7.995   8.356  0.3391 -0.0047  0.3756
  236MOL0     O31749   5.403   8.133   8.358 -0.3592 -0.1682 -0.1687
  236MOL0     C31750   5.533   8.138   8.399 -0.3025  0.4524 -0.3120
  236MOL0     C31751   5.606   8.024   8.450  0.0351 -0.0200 -0.5140
  236MOL0     C31752   5.740   8.041   8.496 -0.1442  0.8076  0.6465
  236MOL0     C31753   5.800   8.164   8.496 -0.0811 -0.6927 -1.7037
  236MOL0     C31754   5.931   8.183   8.565  0.5095  0.4484 -0.3207
  236MOL0     O31755   6.006   8.073   8.574  0.1311  0.3917 -0.2506
  236MOL0     C31756   6.131   8.079   8.640 -0.1440  0.2033  0.4030
  236MOL0     C31757   6.132   8.070   8.779  0.6254  0.0816 -0.3725
  236MOL0     C31758   6.246   8.061   8.854  0.0319 -0.3422  0.1671
  236MOL0     C31759   6.371   8.063   8.787  0.0131 -0.1729 -0.5888
  236MOL0     O31760   6.485   8.057   8.858  0.2413 -0.0479  0.0543
  236MOL0     C31761   6.553   7.932   8.844 -0.0278  0.4264  0.3540
  236MOL0     C31762   6.671   7.923   8.941 -0.0507  0.4013  0.2108
  236MOL0     C31763   6.625   7.925   9.081 -0.0069  0.0160  0.0199
  236MOL0     C31764   6.740   7.916   9.179 -0.4351  0.1878 -0.1946
  236MOL0     C31765   6.700   7.870   9.317 -0.1001  0.4563 -0.5446
  236MOL0     C31766   6.826   7.817   9.386  0.1960 -0.0891  0.7181
  236MOL0     C31767   6.797   7.785   9.538 -0.3073 -0.8332 -0.1685
  236MOL0     C31768   6.900   7.688   9.601  0.5486  0.4594  0.2885
  236MOL0    Cl31769   6.811   7.612   9.745 -0.1195  0.0788  0.0243
  236MOL0     C31770   6.374   8.064   8.644  0.8792  0.8585 -0.4366
  236MOL0     C31771   6.252   8.072   8.568 -0.1126 -0.6340  0.6077
  236MOL0     O31772   5.971   8.295   8.596 -0.6091  0.5079  0.3817
  236MOL0     C31773   5.723   8.273   8.443 -0.5790 -0.5747 -0.0882
  236MOL0     C31774   5.603   8.262   8.388 -0.5966  0.3337  0.5092
  236MOL0     N31775   5.015   7.845   7.942  0.0719 -0.1880  0.3855
  236MOL0     N31776   5.010   7.833   7.816 -0.6267 -0.5078  0.2440
  236MOL0     C31777   4.477   7.216   7.244  0.1206 -0.0648  0.4327
  236MOL0     C31778   4.480   7.118   7.137 -0.0189  0.4512 -0.1114
  236MOL0     C31779   4.539   6.886   6.781 -0.6446  0.3559  0.2079
  236MOL0     C31780   4.587   6.767   6.838  0.0386 -0.2864  0.0448
  236MOL0     C31781   4.625   6.654   6.763  0.7412  0.1117 -0.2179
  236MOL0     C31782   4.617   6.664   6.623 -0.3807  0.3099 -0.2182
  236MOL0     O31783   4.651   6.567   6.535 -0.1179 -0.8139 -0.7859
  236MOL0     C31784   4.719   6.451   6.585  0.2807  0.1296 -0.8680
  236MOL0     C31785   4.765   6.371   6.458  0.8441  0.4375 -0.0860
  236MOL0     C31786   4.824   6.228   6.495  0.1031 -1.4540 -0.2357
  236MOL0     C31787   4.814   6.140   6.357 -0.6268 -0.2798 -1.3976
  236MOL0     C31788   4.864   6.012   6.374 -0.0893  0.0386  0.0008
  236MOL0     C31789   4.907   5.904   6.390 -1.0225  0.0914 -0.3519
  236MOL0     C31790   4.553   6.776   6.567 -0.4228  0.0002  0.1797
  236MOL0     C31791   4.512   6.884   6.642  0.6440  0.1023  0.2372
  236MOL0     C31792   4.450   7.005   6.571  0.1919 -0.8887  0.6069
  236MOL0     H31793   4.790   7.186   7.016 -0.8878  0.3534 -1.8038
  236MOL0     H31794   4.772   7.369   7.190 -1.2023  2.2963 -0.9299
  236MOL0     H31795   4.488   7.543   7.223  1.8366  2.7185  1.2594
  236MOL0     H31796   4.366   7.460   7.323 -0.3087  0.3624  0.1265
  236MOL0     H31797   4.444   7.580   7.518  4.3882 -2.2625  0.7946
  236MOL0     H31798   4.398   7.693   7.389 -1.5450  0.3528  2.2581
  236MOL0     H31799   4.646   7.689   7.338  4.0604  0.9829  1.9485
  236MOL0     H31800   4.680   7.603   7.485  2.2653  1.0811 -1.0492
  236MOL0     H31801   4.540   7.881   7.472 -3.3484  0.1627  4.0727
  236MOL0     H31802   4.559   7.778   7.608  0.9710 -1.0937 -0.8662
  236MOL0     H31803   4.807   7.789   7.584  0.0960  0.3176 -0.3298
  236MOL0     H31804   4.797   7.850   7.426  2.2540 -0.3864  0.8025
  236MOL0     H31805   4.674   8.049   7.505 -0.4749  0.8668  1.6474
  236MOL0     H31806   4.698   8.008   7.671  0.4476  1.0367  0.4726
  236MOL0     H31807   4.865   8.157   7.647  2.1969  0.0763 -0.4590
  236MOL0     H31808   4.910   8.113   7.475  0.6630 -1.5193 -1.3155
  236MOL0     H31809   5.003   7.912   7.552 -0.8418  0.8887 -0.5865
  236MOL0     H31810   5.090   8.057   7.598 -1.4392  1.7085 -0.4885
  236MOL0     H31811   5.030   8.159   7.846 -0.2014  0.1231 -0.1836
  236MOL0     H31812   5.022   8.142   8.129 -0.6980 -0.1428 -0.0940
  236MOL0     H31813   4.964   7.979   8.179  0.8901 -1.5856  0.7647
  236MOL0     H31814   5.190   7.897   8.156  0.6622  0.9597 -3.8989
  236MOL0     H31815   5.245   8.062   8.107 -0.6110  0.4935 -1.0951
  236MOL0     H31816   5.128   7.952   8.364  1.1000 -0.0096  1.8895
  236MOL0     H31817   5.150   8.125   8.338  0.8813  0.4972  1.0496
  236MOL0     H31818   5.384   7.928   8.284 -1.6832 -1.9709  0.7286
  236MOL0     H31819   5.340   7.947   8.455  0.2926 -0.5850  0.1008
  236MOL0     H31820   5.560   7.927   8.459 -0.9475  0.4468 -0.3627
  236MOL0     H31821   5.780   7.958   8.553  0.7122  0.3937 -0.5125
  236MOL0     H31822   6.042   8.072   8.839  1.0334 -1.5600  0.3313
  236MOL0     H31823   6.234   8.051   8.961 -2.0600  0.3471  0.0351
  236MOL0     H31824   6.484   7.850   8.868  0.5228  0.2795  1.5038
  236MOL0     H31825   6.593   7.915   8.744 -0.7092  1.6078 -0.1404
  236MOL0     H31826   6.729   7.832   8.920 -2.0925 -1.3011  1.5376
  236MOL0     H31827   6.735   8.009   8.919  0.5220 -0.3724 -1.3313
  236MOL0     H31828   6.578   8.023   9.088 -0.9357 -0.4030 -0.2434
  236MOL0     H31829   6.558   7.842   9.106  1.3318 -0.7020  1.3837
  236MOL0     H31830   6.794   8.009   9.196 -1.5093  0.7391  0.3669
  236MOL0     H31831   6.809   7.843   9.137 -1.5962 -1.2059  0.2117
  236MOL0     H31832   6.626   7.790   9.318 -1.7280  1.9084  0.4328
  236MOL0     H31833   6.667   7.959   9.371  3.2299  1.9499 -0.6957
  236MOL0     H31834   6.869   7.729   9.338 -2.3249 -1.7110  1.2684
  236MOL0     H31835   6.909   7.889   9.390  0.6951 -0.6758  1.2239
  236MOL0     H31836   6.698   7.739   9.538 -0.3821 -0.8172  2.6442
  236MOL0     H31837   6.788   7.875   9.598 -3.4223 -2.2304  1.7045
  236MOL0     H31838   6.925   7.608   9.531 -1.0625  1.6257 -1.7516
  236MOL0     H31839   6.989   7.745   9.631  0.7638  0.6830 -0.7313
  236MOL0     H31840   6.472   8.065   8.597  1.8628  2.4426  1.5110
  236MOL0     H31841   6.244   8.069   8.460 -0.5360  0.2165  0.6052
  236MOL0     H31842   5.776   8.368   8.441 -2.5650  0.5772 -0.1614
  236MOL0     H31843   5.557   8.347   8.340  0.2225 -0.7942 -2.4949
  236MOL0     H31844   4.396   7.216   7.316  0.6083 -2.5973  1.0730
  236MOL0     H31845   4.396   7.051   7.121  0.7894 -0.4941 -0.4840
  236MOL0     H31846   4.579   6.758   6.946 -1.4338 -1.0167 -0.1004
  236MOL0     H31847   4.663   6.561   6.802  0.6003 -0.5396 -1.5966
  236MOL0     H31848   4.645   6.399   6.646  0.5145  0.7832 -0.0207
  236MOL0     H31849   4.806   6.481   6.643  2.4608  0.5225 -4.1000
  236MOL0     H31850   4.839   6.433   6.406  0.8847  0.7753  0.3741
  236MOL0     H31851   4.678   6.355   6.393 -1.7636  3.1772  2.4246
  236MOL0     H31852   4.768   6.176   6.573 -0.5288 -2.5109 -1.3610
  236MOL0     H31853   4.929   6.242   6.523 -0.4231 -0.5912  1.4005
  236MOL0     H31854   4.712   6.146   6.319 -0.0950  3.1738 -2.6185
  236MOL0     H31855   4.886   6.186   6.288  1.0070  1.2130  1.1231
  236MOL0     H31856   4.953   5.807   6.395 -5.3215 -2.1271  4.1622
  236MOL0     H31857   4.535   6.773   6.460 -1.7698 -0.0375  0.4011
  236MOL0     H31858   4.507   7.091   6.607 -0.1567 -0.4683  0.1777
  236MOL0     H31859   4.452   6.995   6.462  0.9736  0.3228  0.4895
  236MOL0     H31860   4.347   7.022   6.604  1.0240  1.9172  2.1338
  237MOL0     O31861   0.319   4.680   3.869  0.4981  0.1567  0.7835
  237MOL0     C31862   0.329   4.629   3.761  0.1150  0.6032  0.3641
  237MOL0     O31863   0.440   4.648   3.675  0.0761  0.0253  0.5260
  237MOL0     C31864   0.553   4.701   3.734 -0.6020  0.0619 -0.1058
  237MOL0     C31865   0.639   4.617   3.807  0.3771 -0.1674  0.6296
  237MOL0     C31866   0.765   4.660   3.858  0.5606  0.5306  0.0314
  237MOL0     C31867   0.794   4.800   3.845 -1.1807 -0.5977 -0.2045
  237MOL0     O31868   0.902   4.861   3.904  0.1383 -0.4120 -0.2961
  237MOL0     C31869   0.982   4.780   3.995 -0.1360  0.5711 -0.0194
  237MOL0     C31870   1.093   4.857   4.064 -0.6695  0.4857  0.3514
  237MOL0     C31871   1.211   4.887   3.958 -0.3738  0.4995 -0.1789
  237MOL0     C31872   1.341   4.864   4.035  0.2089  0.6679 -0.0527
  237MOL0     C31873   1.449   4.925   3.948  0.0401  0.5033  0.1370
  237MOL0     C31874   1.581   4.919   4.017  0.0996 -0.1179 -0.7495
  237MOL0     C31875   1.700   4.958   3.924  0.2493  0.2356  0.5427
  237MOL0     C31876   1.775   4.835   3.858 -0.4219  0.8112 -0.6218
  237MOL0     N31877   1.837   4.740   3.948 -0.1452 -0.1406 -0.2493
  237MOL0     C31878   1.957   4.754   3.994 -0.0243 -0.0994  0.2180
  237MOL0     C31879   1.984   4.644   4.057 -0.3814 -0.2584 -0.0899
  237MOL0     C31880   2.101   4.608   4.144 -0.2678  1.2051  0.1718
  237MOL0     C31881   2.189   4.510   4.071 -0.9158 -0.4877 -0.5385
  237MOL0     C31882   2.317   4.581   4.026  0.3025 -0.4965 -0.2450
  237MOL0     C31883   2.292   4.649   3.889  0.5295 -0.7276 -0.5519
  237MOL0     O31884   2.305   4.573   3.771  0.1199 -0.7462 -0.2229
  237MOL0     C31885   2.429   4.557   3.714  0.4200 -0.4152  0.5231
  237MOL0     C31886   2.549   4.593   3.771  0.1348 -0.1273 -0.3568
  237MOL0     C31887   2.670   4.569   3.706  0.5236 -0.9946  0.0735
  237MOL0     C31888   2.668   4.514   3.574  0.2853 -0.3718  0.3698
  237MOL0     C31889   2.793   4.515   3.496  0.4330  0.3321  0.2576
  237MOL0     O31890   2.785   4.488   3.361  0.3275  0.4892 -0.0869
  237MOL0     C31891   2.898   4.499   3.285  0.5205 -0.0431  0.1435
  237MOL0     C31892   2.950   4.613   3.230 -0.6345 -0.1255 -0.5621
  237MOL0     C31893   3.062   4.622   3.148  0.3248  0.5187  0.2542
  237MOL0     C31894   3.128   4.505   3.129 -0.2016 -0.3055  0.5021
  237MOL0     O31895   3.251   4.513   3.060  0.2466 -0.6264  0.0618
  237MOL0     C31896   3.346   4.400   3.068  0.4085  0.1303  0.3412
  237MOL0     C31897   3.474   4.431   2.993 -0.4749  0.7307 -0.2036
  237MOL0     C31898   3.441   4.458   2.847 -0.6630 -0.5266 -0.0299
  237MOL0     C31899   3.570   4.463   2.760 -0.0407  0.1869  0.2573
  237MOL0     C31900   3.667   4.573   2.800  0.6302 -0.3007 -0.3240
  237MOL0     C31901   3.802   4.522   2.842 -0.5534 -0.2793  0.1143
  237MOL0     C31902   3.891   4.645   2.879 -0.7281 -0.4450 -0.2891
  237MOL0     C31903   4.024   4.586   2.927  1.1722 -0.0607  0.2731
  237MOL0    Cl31904   4.127   4.553   2.786  0.3521 -0.1677 -0.0128
  237MOL0     C31905   3.088   4.387   3.188 -0.0738  0.0105 -0.7511
  237MOL0     C31906   2.977   4.382   3.269 -0.4619  0.2727  0.5325
  237MOL0     O31907   2.898   4.545   3.558 -0.3956  0.5312  0.3988
  237MOL0     C31908   2.548   4.478   3.510  0.6511 -0.2823 -0.9475
  237MOL0     C31909   2.431   4.497   3.583 -0.3764 -0.0723 -0.0818
  237MOL0     N31910   1.863   4.567   4.058  0.1145  0.4838 -0.2338
  237MOL0     N31911   1.776   4.634   3.993 -0.2280 -0.4052  0.2581
  237MOL0     C31912   0.703   4.882   3.785  0.7687 -1.4268 -0.0622
  237MOL0     C31913   0.577   4.837   3.728 -0.2493 -0.1882 -0.0175
  237MOL0     C31914   0.217   4.541   3.709  1.0678 -0.1673  1.3813
  237MOL0     C31915   0.207   4.530   3.571 -0.2458  0.1703 -0.0311
  237MOL0     C31916   0.101   4.453   3.519  0.6328  0.6399 -0.3482
  237MOL0     C31917   0.005   4.392   3.597  0.3973  1.3099 -0.2714
  237MOL0     O31918  -0.086   4.310   3.544  0.4809 -0.4317  0.0440
  237MOL0     C31919  -0.199   4.370   3.462 -0.0065 -0.5370 -0.2330
  237MOL0     C31920  -0.291   4.471   3.534 -0.3300 -0.0501 -1.0530
  237MOL0     C31921  -0.373   4.555   3.435  0.2238  0.4775 -0.7916
  237MOL0     C31922  -0.285   4.655   3.351 -0.6876  0.5581 -0.2920
  237MOL0     C31923  -0.211   4.744   3.425  0.1479 -0.2922  0.1467
  237MOL0     C31924  -0.158   4.831   3.486 -0.2245  0.1149 -0.5176
  237MOL0     C31925   0.014   4.405   3.738 -0.4198 -1.4378  1.0611
  237MOL0     C31926   0.121   4.480   3.798  0.4924 -0.0990  0.2377
  237MOL0     C31927   0.125   4.478   3.951  0.3356  0.7837 -0.2666
  237MOL0     H31928   0.603   4.514   3.812  0.6476 -0.3347 -0.5501
  237MOL0     H31929   0.821   4.583   3.911 -1.8357 -1.5942 -0.3419
  237MOL0     H31930   0.913   4.740   4.070  2.1309 -0.6552  1.5328
  237MOL0     H31931   1.012   4.686   3.947 -2.8075 -0.4337  0.1301
  237MOL0     H31932   1.130   4.787   4.139 -2.3725 -2.2327 -1.1935
  237MOL0     H31933   1.056   4.952   4.103 -1.6909  1.1342 -2.0259
  237MOL0     H31934   1.205   4.993   3.935 -0.9242  0.3528 -0.7433
  237MOL0     H31935   1.205   4.834   3.862  1.5668 -0.9241  0.4181
  237MOL0     H31936   1.327   4.907   4.134  0.9863 -0.9558  0.8027
  237MOL0     H31937   1.350   4.755   4.048 -0.8606  0.0185 -3.6457
  237MOL0     H31938   1.446   4.860   3.860  0.0281  1.3183 -0.4744
  237MOL0     H31939   1.425   5.026   3.913  1.3745  1.1011  0.8919
  237MOL0     H31940   1.579   4.993   4.098  1.7535 -1.2774  0.4211
  237MOL0     H31941   1.603   4.825   4.069  2.1713  0.2935 -0.7839
  237MOL0     H31942   1.773   5.004   3.990  0.7279 -0.3747  0.4393
  237MOL0     H31943   1.672   5.032   3.848  0.8568 -0.2160 -0.1336
  237MOL0     H31944   1.706   4.768   3.805  2.5528 -1.4127 -1.9564
  237MOL0     H31945   1.843   4.883   3.788 -0.4599  2.0734  0.1668
  237MOL0     H31946   2.021   4.841   3.991 -0.2513  0.1866  2.4202
  237MOL0     H31947   2.153   4.700   4.174  1.1206  0.3590  0.4951
  237MOL0     H31948   2.060   4.559   4.233  1.3691 -2.1134 -0.7087
  237MOL0     H31949   2.224   4.420   4.123  1.7686 -0.5970 -2.3615
  237MOL0     H31950   2.134   4.475   3.983 -2.2936  1.2685 -0.4464
  237MOL0     H31951   2.404   4.515   4.025 -0.3526 -1.4969  2.0190
  237MOL0     H31952   2.339   4.655   4.104 -3.5217 -0.0551  0.6538
  237MOL0     H31953   2.356   4.738   3.886  2.4347 -2.0084  0.1001
  237MOL0     H31954   2.191   4.691   3.888  0.5453 -0.6786 -0.3095
  237MOL0     H31955   2.555   4.629   3.873  1.0122  0.9228 -0.7683
  237MOL0     H31956   2.767   4.589   3.750 -0.0122  0.1617  0.7385
  237MOL0     H31957   2.907   4.711   3.247  0.2965  0.1913  0.0530
  237MOL0     H31958   3.095   4.709   3.092  2.5291 -0.6367 -0.3616
  237MOL0     H31959   3.369   4.360   3.167 -0.3491 -2.3937 -0.4404
  237MOL0     H31960   3.284   4.329   3.013 -0.4221  1.7108 -0.8664
  237MOL0     H31961   3.521   4.521   3.035  3.1139 -2.2045  2.8358
  237MOL0     H31962   3.551   4.355   3.006 -0.1664  1.0230 -0.2931
  237MOL0     H31963   3.391   4.368   2.812  1.2697 -1.9182  0.6014
  237MOL0     H31964   3.375   4.544   2.834 -2.8045 -2.3582 -2.1755
  237MOL0     H31965   3.545   4.484   2.656  0.2626 -0.4266  0.0615
  237MOL0     H31966   3.620   4.366   2.762 -1.1424 -0.4091  0.0795
  237MOL0     H31967   3.617   4.631   2.878 -1.9448  0.1691 -2.2231
  237MOL0     H31968   3.681   4.643   2.718  3.0394  0.5971  0.7506
  237MOL0     H31969   3.799   4.458   2.931 -0.4799 -0.1416  0.2158
  237MOL0     H31970   3.842   4.470   2.753 -1.4415  1.4221 -1.3428
  237MOL0     H31971   3.843   4.700   2.959 -0.2514 -2.3928  1.4294
  237MOL0     H31972   3.902   4.708   2.790 -1.6417  0.1433  0.0034
  237MOL0     H31973   4.068   4.666   2.987 -0.5274  1.1685 -0.0284
  237MOL0     H31974   4.023   4.497   2.991  0.6242 -2.2383 -2.5916
  237MOL0     H31975   3.145   4.296   3.173 -0.6499 -0.4229 -0.3415
  237MOL0     H31976   2.946   4.293   3.323  1.4761  0.5867  2.2811
  237MOL0     H31977   2.531   4.451   3.407  1.6137  3.9441 -2.4259
  237MOL0     H31978   2.339   4.459   3.539  0.8352 -3.5739  0.0900
  237MOL0     H31979   0.721   4.989   3.782 -1.7713 -0.9677 -2.0471
  237MOL0     H31980   0.497   4.897   3.685 -0.4105  1.7483  2.7562
  237MOL0     H31981   0.273   4.585   3.504 -0.2854  0.9482  0.5553
  237MOL0     H31982   0.105   4.442   3.411  0.8343  1.2850 -0.4125
  237MOL0     H31983  -0.268   4.289   3.440  0.2365 -0.5047 -1.1632
  237MOL0     H31984  -0.158   4.412   3.369 -0.0933  0.0113 -0.0253
  237MOL0     H31985  -0.229   4.536   3.597  0.1124  1.0570 -2.5678
  237MOL0     H31986  -0.370   4.421   3.590 -1.5983  2.2986 -0.5882
  237MOL0     H31987  -0.455   4.609   3.483  1.2580  0.2640  1.3425
  237MOL0     H31988  -0.420   4.479   3.373  1.8045 -0.0851 -1.3538
  237MOL0     H31989  -0.218   4.603   3.281  0.1740  1.1981  0.0406
  237MOL0     H31990  -0.353   4.710   3.285  1.7284  1.1016 -2.5068
  237MOL0     H31991  -0.107   4.905   3.545 -1.9814 -0.5360  1.9505
  237MOL0     H31992  -0.069   4.354   3.787 -2.0306  2.3047  2.5914
  237MOL0     H31993   0.223   4.451   3.991  0.1681 -0.5725 -0.7238
  237MOL0     H31994   0.094   4.572   3.998 -0.1193  0.2196  0.5779
  237MOL0     H31995   0.057   4.403   3.992  0.2484 -0.3228 -2.3323
  238MOL0     O31996   5.932   2.327   8.609  0.3319  0.4008 -0.2426
  238MOL0     C31997   5.867   2.270   8.698 -0.4315  0.3764 -0.1865
  238MOL0     O31998   5.913   2.157   8.771 -0.1324  0.7571 -0.2473
  238MOL0     C31999   6.039   2.110   8.736  0.2359 -0.0808 -0.5349
  238MOL0     C32000   6.055   1.979   8.693 -0.5029  0.8109  0.3770
  238MOL0     C32001   6.179   1.921   8.659  0.7555 -0.3918 -0.7181
  238MOL0     C32002   6.292   2.002   8.683 -0.8808 -0.1569 -0.0842
  238MOL0     O32003   6.414   1.954   8.648 -0.3843 -0.1709  0.0494
  238MOL0     C32004   6.456   1.820   8.695  1.1157  0.0728 -0.5890
  238MOL0     C32005   6.576   1.763   8.624  0.8326  0.0542  0.0379
  238MOL0     C32006   6.689   1.845   8.683 -0.4670 -0.2815  0.7517
  238MOL0     C32007   6.809   1.825   8.589  0.4849  0.0795  0.2383
  238MOL0     C32008   6.941   1.900   8.625  0.3608  0.1914  0.1176
  238MOL0     C32009   6.985   1.878   8.771  0.4830  0.1549  0.0649
  238MOL0     C32010   7.140   1.898   8.783  1.1949  0.2514 -0.6019
  238MOL0     C32011   7.223   1.768   8.747  0.1896 -0.4264  0.2586
  238MOL0     N32012   7.256   1.764   8.603 -0.4013  0.3460  0.1189
  238MOL0     C32013   7.186   1.688   8.510 -0.2174 -0.6045  0.0684
  238MOL0     C32014   7.214   1.743   8.382 -0.1793 -0.0652  0.4802
  238MOL0     C32015   7.154   1.697   8.245  0.2843  0.7274 -0.0194
  238MOL0     C32016   7.015   1.755   8.227  0.5960 -0.1381  0.5727
  238MOL0     C32017   6.949   1.699   8.107  0.1044  0.2814 -0.3162
  238MOL0     C32018   6.796   1.728   8.102 -0.4903  0.7369  0.5978
  238MOL0     O32019   6.729   1.696   7.984 -0.2916 -0.4524 -0.0391
  238MOL0     C32020   6.591   1.716   7.974  0.1044  0.1066 -0.6720
  238MOL0     C32021   6.523   1.653   7.867 -0.9033 -0.0367 -1.5082
  238MOL0     C32022   6.386   1.663   7.849 -1.1048  0.0991  0.2210
  238MOL0     C32023   6.310   1.737   7.941 -0.3799 -1.0090 -0.5229
  238MOL0     C32024   6.163   1.752   7.925 -0.1436  0.9563  0.5290
  238MOL0     O32025   6.113   1.699   7.812 -0.2289 -0.6913 -0.4750
  238MOL0     C32026   5.974   1.718   7.796  0.2950  0.1186 -0.2121
  238MOL0     C32027   5.870   1.650   7.863  0.0570 -0.0551 -0.2671
  238MOL0     C32028   5.734   1.673   7.833 -0.2010 -0.7551 -0.1478
  238MOL0     C32029   5.705   1.757   7.728 -0.7441 -0.2069  0.7315
  238MOL0     O32030   5.576   1.754   7.694  0.3664 -0.1683  0.1498
  238MOL0     C32031   5.540   1.691   7.568 -0.5246  0.1458 -0.7852
  238MOL0     C32032   5.484   1.787   7.461 -0.0154  0.3893 -0.0858
  238MOL0     C32033   5.349   1.850   7.516 -0.3458 -0.4447  0.1222
  238MOL0     C32034   5.318   1.983   7.442 -0.5169 -0.5539 -0.2759
  238MOL0     C32035   5.204   2.063   7.505  0.4821 -0.1552 -0.0389
  238MOL0     C32036   5.084   1.959   7.526 -0.4958 -0.9956  0.2490
  238MOL0     C32037   4.960   2.050   7.558  1.0423  0.7797  0.0214
  238MOL0     C32038   4.844   1.969   7.600  0.1161  0.3333  0.2025
  238MOL0    Cl32039   4.719   2.079   7.673  0.0173  0.4452  0.6266
  238MOL0     C32040   5.802   1.837   7.661 -0.3391 -0.3714 -0.4479
  238MOL0     C32041   5.936   1.806   7.693 -0.3850  0.2699 -0.5183
  238MOL0     O32042   6.102   1.805   8.012  0.1034  0.0655 -0.0807
  238MOL0     C32043   6.377   1.800   8.049 -1.0004  0.0985 -0.4630
  238MOL0     C32044   6.514   1.792   8.061  0.6606  0.7307  0.5809
  238MOL0     N32045   7.301   1.849   8.404  0.4614 -0.5842 -0.3628
  238MOL0     N32046   7.330   1.853   8.531  0.7666  0.2014 -0.3463
  238MOL0     C32047   6.280   2.125   8.729  0.2673 -0.2109  0.1409
  238MOL0     C32048   6.158   2.186   8.759 -0.5986  0.4923 -0.2936
  238MOL0     C32049   5.740   2.330   8.740 -0.4608 -0.2752  0.7350
  238MOL0     C32050   5.700   2.306   8.867 -0.5374  0.7943 -0.0638
  238MOL0     C32051   5.575   2.356   8.913 -0.0744  1.1313  0.1798
  238MOL0     C32052   5.489   2.439   8.824  0.8073  0.3487 -0.9283
  238MOL0     O32053   5.362   2.489   8.858 -0.0775  0.1213 -1.0746
  238MOL0     C32054   5.311   2.470   8.994  0.0777  0.2073 -0.0197
  238MOL0     C32055   5.162   2.490   9.000 -0.5035  0.0900  0.8633
  238MOL0     C32056   5.089   2.360   8.955  1.3315  0.8493  0.3828
  238MOL0     C32057   4.944   2.387   8.937 -0.8863  0.1846 -0.1340
  238MOL0     C32058   4.874   2.437   9.056  0.4864 -0.4496  0.4556
  238MOL0     C32059   4.812   2.469   9.154 -0.1923  0.8334  1.3850
  238MOL0     C32060   5.542   2.469   8.704  0.5409  0.2108 -0.7683
  238MOL0     C32061   5.664   2.415   8.655 -0.6183 -0.5891 -0.7065
  238MOL0     C32062   5.693   2.437   8.513 -0.0474  0.0167 -0.2592
  238MOL0     H32063   5.971   1.911   8.698  0.8580 -0.8255  2.6258
  238MOL0     H32064   6.181   1.816   8.634 -1.2522 -0.2983 -1.4264
  238MOL0     H32065   6.476   1.822   8.803 -1.8722 -0.8409  0.0787
  238MOL0     H32066   6.381   1.743   8.677  1.7059 -0.0211 -2.9166
  238MOL0     H32067   6.566   1.770   8.515 -2.9227 -4.2390 -0.2147
  238MOL0     H32068   6.587   1.656   8.643  3.1689  0.3729  0.7141
  238MOL0     H32069   6.705   1.808   8.785  0.1591 -2.7863 -0.1997
  238MOL0     H32070   6.677   1.953   8.670 -0.5541 -0.4429 -0.6233
  238MOL0     H32071   6.835   1.719   8.585  0.6506  0.1543 -1.8071
  238MOL0     H32072   6.778   1.850   8.487  2.2418  2.1233  0.1267
  238MOL0     H32073   7.017   1.874   8.551 -1.5725 -4.3800 -0.6083
  238MOL0     H32074   6.921   2.007   8.615  1.6381  0.2004 -4.6793
  238MOL0     H32075   6.926   1.949   8.830 -0.8335 -0.3711 -0.5611
  238MOL0     H32076   6.955   1.778   8.804  0.0043  0.5055  0.7131
  238MOL0     H32077   7.159   1.926   8.887  0.9456 -1.8060  0.0465
  238MOL0     H32078   7.178   1.976   8.716  1.9972 -1.4483 -2.2199
  238MOL0     H32079   7.315   1.777   8.805 -0.6110  2.9886  1.2163
  238MOL0     H32080   7.166   1.679   8.775 -0.5244 -0.2365 -0.5211
  238MOL0     H32081   7.109   1.614   8.531  2.0218 -2.4718  2.5067
  238MOL0     H32082   7.220   1.724   8.163  1.4385 -0.1274  0.5936
  238MOL0     H32083   7.142   1.588   8.241  0.3827  0.6988  0.3974
  238MOL0     H32084   6.955   1.724   8.313 -2.4404  2.0788 -0.5473
  238MOL0     H32085   7.018   1.864   8.218 -0.9731 -0.1083  0.1746
  238MOL0     H32086   6.954   1.591   8.096 -3.8330 -0.0253 -0.5531
  238MOL0     H32087   6.993   1.744   8.017 -0.1303 -0.0320 -0.5903
  238MOL0     H32088   6.789   1.836   8.120 -0.0283  1.0902 -1.0903
  238MOL0     H32089   6.746   1.678   8.185 -0.3356  1.7045  1.2947
  238MOL0     H32090   6.595   1.604   7.804  0.8960  0.3651  0.1371
  238MOL0     H32091   6.356   1.614   7.757 -1.5981 -0.4665  0.6712
  238MOL0     H32092   5.889   1.575   7.939 -5.0829  0.2463  1.6989
  238MOL0     H32093   5.659   1.619   7.890  1.8714 -0.3460  3.2346
  238MOL0     H32094   5.622   1.629   7.531 -0.7957 -1.5018  1.2147
  238MOL0     H32095   5.462   1.621   7.599 -0.4783  0.8932  1.1574
  238MOL0     H32096   5.553   1.859   7.416 -0.0652  0.1076 -0.6200
  238MOL0     H32097   5.447   1.721   7.382 -4.3860  1.4324  0.7810
  238MOL0     H32098   5.262   1.786   7.500 -1.1122 -0.0379  2.3434
  238MOL0     H32099   5.357   1.864   7.624  0.7619 -1.5833  0.2046
  238MOL0     H32100   5.289   1.952   7.341 -1.6128 -2.0273  0.4521
  238MOL0     H32101   5.413   2.035   7.439 -1.2526  0.9683  1.2435
  238MOL0     H32102   5.182   2.142   7.433  0.8461  1.0070  1.1066
  238MOL0     H32103   5.236   2.097   7.603 -0.6853 -1.4059  0.8194
  238MOL0     H32104   5.068   1.908   7.430  1.0493  1.6149 -1.5205
  238MOL0     H32105   5.110   1.890   7.607  1.1186  1.3121  1.8044
  238MOL0     H32106   4.937   2.111   7.470  1.9184  0.8583 -0.1601
  238MOL0     H32107   4.983   2.114   7.644  1.8441 -1.9263  1.9683
  238MOL0     H32108   4.801   1.918   7.513  1.6966  0.5274 -0.7314
  238MOL0     H32109   4.863   1.893   7.677 -0.0292 -0.1867 -0.2672
  238MOL0     H32110   5.773   1.902   7.579  2.2311  0.4000 -0.8259
  238MOL0     H32111   6.011   1.844   7.624  1.2205 -1.4495  0.2158
  238MOL0     H32112   6.304   1.841   8.119 -1.9223 -1.6053 -0.3644
  238MOL0     H32113   6.571   1.842   8.139  2.6708  2.2054 -1.7003
  238MOL0     H32114   6.375   2.176   8.736  1.1279 -1.4818 -1.5525
  238MOL0     H32115   6.146   2.285   8.802  0.4968  0.0906  0.9813
  238MOL0     H32116   5.753   2.251   8.944  0.3602  0.6937 -0.7371
  238MOL0     H32117   5.540   2.317   9.008 -1.6263 -0.5991 -1.0356
  238MOL0     H32118   5.354   2.545   9.060  2.8165  1.5799 -3.0828
  238MOL0     H32119   5.334   2.369   9.030 -1.2328  0.0011  0.2769
  238MOL0     H32120   5.136   2.574   8.935  1.2785  0.8222  1.0255
  238MOL0     H32121   5.137   2.515   9.103  1.8811  2.6544  0.9436
  238MOL0     H32122   5.102   2.287   9.036 -3.1880  1.2004  1.6830
  238MOL0     H32123   5.127   2.315   8.863  0.5314 -1.6358  1.1842
  238MOL0     H32124   4.932   2.455   8.853 -2.1281 -0.5002 -0.5334
  238MOL0     H32125   4.882   2.302   8.907 -1.2237  0.3643  0.0372
  238MOL0     H32126   4.760   2.502   9.242 -0.7854  1.7996  0.6937
  238MOL0     H32127   5.478   2.535   8.647 -0.4386  0.5874  0.7222
  238MOL0     H32128   5.685   2.343   8.457  2.6408 -0.0043 -0.7385
  238MOL0     H32129   5.617   2.506   8.476 -1.4364 -1.1998  0.1992
  238MOL0     H32130   5.789   2.488   8.499  0.3689 -0.4228  0.8870
  239MOL0     O32131   3.899   7.668   0.916  0.0260 -0.7319 -0.1084
  239MOL0     C32132   3.878   7.778   0.964  0.2995  0.5339 -0.9333
  239MOL0     O32133   3.975   7.881   0.982  0.6703  0.3880  0.2006
  239MOL0     C32134   4.101   7.842   0.989 -0.8130 -0.1497  0.3796
  239MOL0     C32135   4.141   7.757   1.094  0.1004  0.4570 -0.7845
  239MOL0     C32136   4.268   7.700   1.097 -0.0015  0.3610 -0.2160
  239MOL0     C32137   4.357   7.748   1.009 -0.2890  0.2641 -0.1612
  239MOL0     O32138   4.488   7.702   1.014  0.0658 -0.2099  0.6252
  239MOL0     C32139   4.542   7.655   1.145  0.2695 -0.4266  0.5727
  239MOL0     C32140   4.692   7.624   1.133  0.7790  0.5193 -0.5274
  239MOL0     C32141   4.725   7.488   1.089  0.7644  0.4555  0.2630
  239MOL0     C32142   4.863   7.473   1.015 -0.1519  0.1354  0.1666
  239MOL0     C32143   4.858   7.365   0.902  0.1895 -0.6208 -0.8210
  239MOL0     C32144   4.815   7.436   0.775  0.5940  0.1662 -0.9954
  239MOL0     C32145   4.805   7.335   0.660  0.0764  0.7127 -0.1962
  239MOL0     C32146   4.729   7.403   0.535  0.6116 -0.4747 -0.6799
  239MOL0     N32147   4.829   7.470   0.446 -0.0091  0.5218  0.3281
  239MOL0     C32148   4.923   7.576   0.466  0.8721  0.1856 -1.3459
  239MOL0     C32149   4.970   7.599   0.338  0.9912 -0.0642  0.0841
  239MOL0     C32150   5.061   7.712   0.300 -1.3265 -0.9831 -0.4030
  239MOL0     C32151   5.167   7.748   0.412  0.0289 -0.2304  0.2506
  239MOL0     C32152   5.300   7.796   0.345 -0.2528 -0.5288  0.0568
  239MOL0     C32153   5.375   7.897   0.433  0.1564  0.7678  0.1569
  239MOL0     O32154   5.508   7.925   0.375 -0.1956  0.2512 -0.2869
  239MOL0     C32155   5.609   7.997   0.442 -0.9981 -0.1459 -0.3042
  239MOL0     C32156   5.578   8.080   0.560  0.5312 -0.1059 -0.0349
  239MOL0     C32157   5.675   8.164   0.613  0.2097  0.4879 -0.2488
  239MOL0     C32158   5.809   8.167   0.560 -0.0278  0.8907 -0.5596
  239MOL0     C32159   5.907   8.256   0.627 -0.8994  0.2666 -0.1844
  239MOL0     O32160   5.873   8.361   0.702  0.4821 -0.1828 -0.0833
  239MOL0     C32161   5.955   8.435   0.787  0.5565 -0.4459  0.9365
  239MOL0     C32162   5.882   8.526   0.870 -0.1243 -0.5100 -0.1508
  239MOL0     C32163   5.953   8.621   0.955  0.4457 -0.0257 -0.7918
  239MOL0     C32164   6.096   8.615   0.957  0.0865 -0.1036  0.1740
  239MOL0     O32165   6.179   8.700   1.025  0.0642 -0.4731  0.3471
  239MOL0     C32166   6.134   8.767   1.140 -0.0394  0.0314 -0.0597
  239MOL0     C32167   6.227   8.874   1.186 -0.6802  0.0485  0.7121
  239MOL0     C32168   6.363   8.799   1.224  0.2392 -0.2220 -0.6548
  239MOL0     C32169   6.420   8.861   1.354  0.1056  0.4887  1.2343
  239MOL0     C32170   6.558   8.802   1.389  0.7088 -0.0980 -0.3531
  239MOL0     C32171   6.557   8.655   1.430 -1.4175  0.4003 -0.2581
  239MOL0     C32172   6.704   8.608   1.451  0.3452 -0.3137 -0.0788
  239MOL0     C32173   6.803   8.688   1.540 -0.6113 -0.3796 -0.3361
  239MOL0    Cl32174   6.933   8.591   1.600  0.2493  0.4413 -0.4535
  239MOL0     C32175   6.162   8.520   0.880  0.8824 -0.1463 -0.6448
  239MOL0     C32176   6.097   8.435   0.801 -0.0632  1.0099  0.0206
  239MOL0     O32177   6.023   8.221   0.604  0.1258 -0.3183 -0.4279
  239MOL0     C32178   5.837   8.081   0.446 -0.3686 -0.1284 -0.3131
  239MOL0     C32179   5.740   7.996   0.386  0.3821 -0.1950 -0.1819
  239MOL0     N32180   4.915   7.503   0.248 -0.3053 -0.1237 -0.2503
  239MOL0     N32181   4.850   7.419   0.315 -0.3419  0.3254 -0.4004
  239MOL0     C32182   4.329   7.839   0.915 -0.2370  1.3035 -0.0953
  239MOL0     C32183   4.193   7.879   0.895  0.4805  0.2783 -0.7360
  239MOL0     C32184   3.741   7.811   1.016  0.1030 -0.3564 -0.7477
  239MOL0     C32185   3.628   7.775   0.935 -1.3579 -0.0168  0.4244
  239MOL0     C32186   3.496   7.792   0.968  0.6191  1.0453 -0.3325
  239MOL0     C32187   3.467   7.828   1.103 -1.3332  0.2257  0.0249
  239MOL0     O32188   3.341   7.831   1.158  0.7816  0.3458  0.4185
  239MOL0     C32189   3.222   7.838   1.072  0.6285  0.0805  0.6567
  239MOL0     C32190   3.105   7.884   1.152 -1.3008  0.3297 -0.2995
  239MOL0     C32191   2.966   7.863   1.080 -0.5233 -0.3988 -0.4634
  239MOL0     C32192   2.914   7.723   1.103  0.5940  0.5194 -0.1570
  239MOL0     C32193   2.771   7.705   1.076 -0.1013  0.1181  0.6886
  239MOL0     C32194   2.656   7.706   1.051 -0.2242 -0.7079  0.5092
  239MOL0     C32195   3.581   7.872   1.180  0.8829 -0.3197 -0.7180
  239MOL0     C32196   3.711   7.861   1.141 -0.6678 -0.2348  0.3940
  239MOL0     C32197   3.810   7.934   1.232  0.2694  0.3060  0.9263
  239MOL0     H32198   4.068   7.730   1.170  0.0432  1.5979 -0.4157
  239MOL0     H32199   4.282   7.628   1.177  0.6305  1.3831  0.6201
  239MOL0     H32200   4.530   7.731   1.222  0.7015  0.7968 -0.5317
  239MOL0     H32201   4.494   7.559   1.164 -1.0684 -0.1976 -1.3425
  239MOL0     H32202   4.731   7.647   1.233 -1.3474  1.9022  0.0507
  239MOL0     H32203   4.749   7.690   1.066  0.0308  1.2396 -0.4749
  239MOL0     H32204   4.654   7.469   1.007 -1.0054 -0.5053  1.9374
  239MOL0     H32205   4.708   7.410   1.163  0.6937 -1.3642 -1.5750
  239MOL0     H32206   4.894   7.573   0.981  2.5416 -1.4972 -2.6802
  239MOL0     H32207   4.939   7.454   1.092 -1.4678  2.5162  2.2153
  239MOL0     H32208   4.964   7.346   0.885  0.5510  2.3538 -2.4662
  239MOL0     H32209   4.814   7.270   0.935  3.3300 -0.5128  5.0037
  239MOL0     H32210   4.716   7.479   0.798  0.0171  1.4193 -5.0866
  239MOL0     H32211   4.888   7.513   0.747  0.1096  0.2613 -2.0402
  239MOL0     H32212   4.742   7.250   0.686  1.0535  0.1367  0.3023
  239MOL0     H32213   4.906   7.309   0.629  0.8642  2.4749  0.7237
  239MOL0     H32214   4.679   7.321   0.484 -1.0751 -2.1320  3.2549
  239MOL0     H32215   4.657   7.480   0.565 -0.8350 -2.1411  0.3204
  239MOL0     H32216   4.937   7.633   0.557 -0.4604  3.8119 -3.2041
  239MOL0     H32217   5.111   7.681   0.208 -0.3353  2.8163 -1.2778
  239MOL0     H32218   5.010   7.806   0.278  0.6354  0.1659 -0.2271
  239MOL0     H32219   5.121   7.825   0.473  1.7984  0.2385  1.0437
  239MOL0     H32220   5.175   7.657   0.472 -2.7475 -0.1886  0.7918
  239MOL0     H32221   5.291   7.829   0.241  1.5400 -2.9606 -0.9613
  239MOL0     H32222   5.370   7.713   0.331 -0.5503 -0.3540 -3.4056
  239MOL0     H32223   5.388   7.844   0.527 -2.0650 -1.0477 -0.4960
  239MOL0     H32224   5.313   7.981   0.466 -3.9227 -2.7170  2.1921
  239MOL0     H32225   5.481   8.101   0.603  0.9155  3.6262 -0.6493
  239MOL0     H32226   5.651   8.222   0.701  1.8854  1.7925 -0.6147
  239MOL0     H32227   5.775   8.538   0.857 -0.2842 -0.6688  0.8862
  239MOL0     H32228   5.890   8.686   1.016 -0.5705 -0.1957 -1.6178
  239MOL0     H32229   6.034   8.811   1.136  0.5847  1.8383  2.0940
  239MOL0     H32230   6.123   8.688   1.215  1.0713 -0.7028 -0.6453
  239MOL0     H32231   6.237   8.948   1.106 -1.2223 -1.7392 -1.0993
  239MOL0     H32232   6.194   8.920   1.280  1.0316 -1.2070  2.0096
  239MOL0     H32233   6.353   8.694   1.253 -0.3857  0.0277  0.0427
  239MOL0     H32234   6.433   8.810   1.141  1.5952  1.9276  0.6935
  239MOL0     H32235   6.353   8.847   1.440 -0.5385 -1.1407  0.5112
  239MOL0     H32236   6.424   8.970   1.341 -2.0260  0.4667 -0.0050
  239MOL0     H32237   6.616   8.855   1.466 -1.7877  1.5484  0.5201
  239MOL0     H32238   6.625   8.807   1.303 -1.1753 -2.4554 -2.0672
  239MOL0     H32239   6.497   8.639   1.520  0.3643 -1.2702  0.6936
  239MOL0     H32240   6.509   8.597   1.350 -0.5982  1.3516 -1.4807
  239MOL0     H32241   6.744   8.605   1.349 -0.1252 -1.6108 -0.2412
  239MOL0     H32242   6.701   8.507   1.492  0.3443 -0.4759 -0.4744
  239MOL0     H32243   6.848   8.767   1.478 -1.0774  0.1135 -0.0560
  239MOL0     H32244   6.751   8.732   1.626  0.7451 -0.5550  0.6131
  239MOL0     H32245   6.270   8.519   0.891  0.8134  1.2240  0.4966
  239MOL0     H32246   6.155   8.368   0.738 -1.2341 -1.7913  1.7734
  239MOL0     H32247   5.940   8.080   0.412  0.6579 -1.5413  2.5280
  239MOL0     H32248   5.762   7.935   0.299 -0.9646 -1.2938  0.2141
  239MOL0     H32249   4.413   7.889   0.867  0.6245  1.4710  1.5187
  239MOL0     H32250   4.172   7.949   0.815  0.9503  1.2255 -0.0501
  239MOL0     H32251   3.649   7.721   0.843 -2.2792  0.3450 -0.0087
  239MOL0     H32252   3.426   7.754   0.893  3.3466 -1.4635 -1.8060
  239MOL0     H32253   3.197   7.744   1.020  0.2792 -1.1421  2.8850
  239MOL0     H32254   3.232   7.917   0.998  0.9194 -0.0269  0.5799
  239MOL0     H32255   3.115   7.991   1.172 -1.6459  0.2856  0.1118
  239MOL0     H32256   3.106   7.848   1.255  1.4721  0.2113 -0.2952
  239MOL0     H32257   2.980   7.891   0.975 -2.6017  1.0666 -0.4241
  239MOL0     H32258   2.896   7.936   1.124 -2.5997 -3.1312  1.1070
  239MOL0     H32259   2.976   7.654   1.045  2.0071  0.2238  1.6120
  239MOL0     H32260   2.926   7.703   1.210  0.2036  1.7082  0.1146
  239MOL0     H32261   2.550   7.717   1.039 -0.2584  1.4140  2.2225
  239MOL0     H32262   3.569   7.906   1.282 -1.5977 -3.4553  0.1860
  239MOL0     H32263   3.915   7.920   1.209  0.1740  1.7551 -0.5255
  239MOL0     H32264   3.795   8.042   1.231 -1.1829  0.1857 -2.5571
  239MOL0     H32265   3.792   7.887   1.330 -2.1331 -0.8938 -0.0035
  240MOL0     O32266  10.716   0.019   6.755  0.5568  0.4971  0.2649
  240MOL0     C32267  10.642   0.112   6.727 -1.0315 -1.1942  1.3400
  240MOL0     O32268  10.681   0.227   6.659 -0.2563 -0.4674  0.4781
  240MOL0     C32269  10.819   0.238   6.637 -0.4321  0.2120  0.3250
  240MOL0     C32270  10.875   0.155   6.535 -0.8119  0.2255 -0.7076
  240MOL0     C32271  11.016   0.167   6.509  0.5736 -0.9227  0.1177
  240MOL0     C32272  11.092   0.254   6.588 -0.0809  0.2621  0.3279
  240MOL0     O32273  11.217   0.264   6.534 -0.5184  0.3748 -0.2446
  240MOL0     C32274  11.329   0.231   6.628  0.6820  0.3301  0.1562
  240MOL0     C32275  11.458   0.263   6.548 -0.1024  0.1010  0.1413
  240MOL0     C32276  11.471   0.158   6.431 -0.1440 -0.6105 -0.7315
  240MOL0     C32277  11.584   0.195   6.333 -0.3637  0.6150 -0.2237
  240MOL0     C32278  11.599   0.090   6.219  0.0823  0.5481  0.1410
  240MOL0     C32279  11.490   0.077   6.118  0.3684  0.7724  0.5423
  240MOL0     C32280  11.479  -0.066   6.064  0.0339 -1.2019 -0.3908
  240MOL0     C32281  11.379  -0.080   5.947 -0.0901 -0.0371  0.9052
  240MOL0     N32282  11.381  -0.215   5.886 -0.2472 -0.9003 -0.0630
  240MOL0     C32283  11.450  -0.264   5.778  0.7643  0.7356 -0.3329
  240MOL0     C32284  11.376  -0.374   5.743  0.5999  0.0919 -0.7485
  240MOL0     C32285  11.402  -0.462   5.620  0.4700 -0.2822 -1.3314
  240MOL0     C32286  11.342  -0.445   5.483 -0.4004  0.2928 -0.1083
  240MOL0     C32287  11.392  -0.323   5.413 -0.0408  0.4882 -0.4028
  240MOL0     C32288  11.519  -0.345   5.316 -0.0949 -0.0975  0.0457
  240MOL0     O32289  11.573  -0.211   5.274 -0.4711 -0.4107  0.2277
  240MOL0     C32290  11.711  -0.185   5.264 -0.1011  0.0568 -0.1977
  240MOL0     C32291  11.792  -0.295   5.245 -0.2671 -1.0020 -0.5466
  240MOL0     C32292  11.931  -0.277   5.247  0.4316  0.8599 -0.9856
  240MOL0     C32293  11.984  -0.157   5.278  0.1962 -0.0932 -0.4188
  240MOL0     C32294  12.128  -0.139   5.281  0.3710 -0.0865  0.0718
  240MOL0     O32295  12.201  -0.246   5.242  0.4643  0.0939  0.0588
  240MOL0     C32296  12.336  -0.248   5.262 -0.2584 -0.0788  0.8095
  240MOL0     C32297  12.411  -0.221   5.144  0.2365  0.4612 -0.4285
  240MOL0     C32298  12.547  -0.220   5.155  0.2679 -0.4414  0.9223
  240MOL0     C32299  12.615  -0.256   5.278  0.4188  0.0350  0.5749
  240MOL0     O32300  12.754  -0.253   5.263  0.9743 -0.6997 -0.1299
  240MOL0     C32301  12.857  -0.232   5.363 -0.6400  0.0021  0.0563
  240MOL0     C32302  12.985  -0.232   5.289 -0.4349  0.7868 -0.6562
  240MOL0     C32303  13.100  -0.197   5.387 -0.6587  0.1072  0.4297
  240MOL0     C32304  13.234  -0.236   5.320  0.1865 -0.8894 -0.9519
  240MOL0     C32305  13.347  -0.202   5.422 -0.0117 -0.3096 -0.9771
  240MOL0     C32306  13.474  -0.279   5.393  0.6930  0.3548 -0.1392
  240MOL0     C32307  13.568  -0.282   5.509 -0.5503  0.2431  0.0698
  240MOL0     C32308  13.684  -0.363   5.473 -0.4861 -0.4897 -0.8940
  240MOL0    Cl32309  13.782  -0.301   5.327 -0.2847  0.3092  0.5378
  240MOL0     C32310  12.537  -0.275   5.388  0.0829  0.1788 -0.2473
  240MOL0     C32311  12.397  -0.285   5.383  0.2913  0.1057  0.3896
  240MOL0     O32312  12.177  -0.039   5.332  0.0460  0.6548 -0.3930
  240MOL0     C32313  11.905  -0.041   5.278 -0.1476  0.6245  0.3987
  240MOL0     C32314  11.766  -0.059   5.281  0.4729  0.4112  0.2596
  240MOL0     N32315  11.274  -0.394   5.834 -0.2957 -0.4524 -0.0377
  240MOL0     N32316  11.273  -0.290   5.908  0.1770  0.9668 -0.5076
  240MOL0     C32317  11.038   0.320   6.702  0.9040  0.2327  0.0363
  240MOL0     C32318  10.900   0.314   6.716 -0.1324 -0.0701 -0.8343
  240MOL0     C32319  10.495   0.124   6.765 -0.0533  0.0744 -0.9128
  240MOL0     C32320  10.426   0.241   6.736  0.2765 -0.0732 -0.3127
  240MOL0     C32321  10.294   0.258   6.776  0.3749  0.0481 -0.6639
  240MOL0     C32322  10.225   0.158   6.836  0.7147  0.7279 -0.2011
  240MOL0     O32323  10.089   0.184   6.863 -1.0589 -0.4228 -0.0262
  240MOL0     C32324  10.018   0.084   6.936  0.2939  0.5731 -0.0197
  240MOL0     C32325   9.885   0.141   6.971 -0.6950 -0.3639  0.4051
  240MOL0     C32326   9.898   0.253   7.070  0.0003  1.0308 -0.4268
  240MOL0     C32327   9.790   0.358   7.063 -1.1297  0.4634 -0.3631
  240MOL0     C32328   9.767   0.429   7.194 -0.3991  0.0704  0.7965
  240MOL0     C32329   9.748   0.493   7.291  0.1371  0.3026  0.3514
  240MOL0     C32330  10.288   0.040   6.875 -0.1751  0.3493  0.4293
  240MOL0     C32331  10.424   0.030   6.843 -0.1486  0.6086 -0.1062
  240MOL0     C32332  10.484  -0.106   6.883 -0.8245 -1.1371 -0.2024
  240MOL0     H32333  10.824   0.077   6.480  1.9389 -2.8297  0.7046
  240MOL0     H32334  11.069   0.123   6.425  0.5350  0.1822 -0.5192
  240MOL0     H32335  11.310   0.291   6.718 -0.8522  0.3497 -0.1589
  240MOL0     H32336  11.330   0.128   6.665  1.0623  0.2922  0.0464
  240MOL0     H32337  11.544   0.271   6.616  0.3818  0.3009 -0.4822
  240MOL0     H32338  11.447   0.364   6.509  2.0202  0.7122  0.9945
  240MOL0     H32339  11.380   0.147   6.372  0.7967 -1.5200 -2.0832
  240MOL0     H32340  11.486   0.064   6.485  0.9759 -0.5048 -0.8410
  240MOL0     H32341  11.552   0.283   6.276 -1.6773 -0.8553 -1.8889
  240MOL0     H32342  11.677   0.209   6.389 -0.5115  1.0407 -0.0800
  240MOL0     H32343  11.690   0.113   6.163  1.3283 -3.3186  0.2605
  240MOL0     H32344  11.616  -0.001   6.278  2.5819  2.2429  2.2681
  240MOL0     H32345  11.395   0.099   6.167 -1.4577  1.5187 -3.0008
  240MOL0     H32346  11.513   0.144   6.034  1.1036 -1.3131 -1.0193
  240MOL0     H32347  11.451  -0.137   6.142  1.1158  0.5450  1.7315
  240MOL0     H32348  11.580  -0.092   6.032  0.6275  0.1948  0.2266
  240MOL0     H32349  11.279  -0.057   5.984 -0.6579 -0.8102 -0.1166
  240MOL0     H32350  11.410  -0.013   5.866  0.1779  0.5022  1.4439
  240MOL0     H32351  11.537  -0.226   5.725  2.3963 -1.1751  0.8262
  240MOL0     H32352  11.510  -0.457   5.606  0.2846 -1.7709 -3.8430
  240MOL0     H32353  11.379  -0.561   5.662 -0.0504  0.6038  0.5833
  240MOL0     H32354  11.379  -0.539   5.440  0.5293  0.2329  0.7795
  240MOL0     H32355  11.235  -0.425   5.491  0.0736  2.7279  1.0426
  240MOL0     H32356  11.408  -0.246   5.489  1.2109 -2.2306  2.3015
  240MOL0     H32357  11.309  -0.284   5.352 -0.1009  0.7766 -0.1419
  240MOL0     H32358  11.485  -0.394   5.225  2.8223 -1.4335 -0.4602
  240MOL0     H32359  11.599  -0.405   5.361  1.2308  1.1377 -0.5543
  240MOL0     H32360  11.753  -0.395   5.229 -0.3091 -1.3619  1.4830
  240MOL0     H32361  11.989  -0.369   5.250  0.2244  0.7187  2.2860
  240MOL0     H32362  12.360  -0.181   5.057 -0.9732 -1.2078 -0.5221
  240MOL0     H32363  12.607  -0.202   5.066  1.1308 -0.2255  1.5362
  240MOL0     H32364  12.851  -0.137   5.417  2.2405 -1.3030  3.0645
  240MOL0     H32365  12.842  -0.316   5.431 -0.3405 -1.8408 -2.0415
  240MOL0     H32366  12.990  -0.331   5.243 -0.0830  0.5602 -0.1404
  240MOL0     H32367  12.982  -0.156   5.210  2.1594  2.2372  0.5180
  240MOL0     H32368  13.098  -0.088   5.399  0.4524  0.1944 -0.1416
  240MOL0     H32369  13.082  -0.235   5.488 -1.1384 -1.2486 -0.1474
  240MOL0     H32370  13.251  -0.179   5.229 -0.9693  3.1909  1.1540
  240MOL0     H32371  13.237  -0.344   5.301 -1.9732 -0.5939 -3.4797
  240MOL0     H32372  13.310  -0.226   5.523 -0.1594 -1.7864 -1.3579
  240MOL0     H32373  13.358  -0.093   5.432 -4.5914  0.1670  1.4821
  240MOL0     H32374  13.453  -0.383   5.369  1.1153  0.4446 -0.9459
  240MOL0     H32375  13.518  -0.244   5.299 -0.1676 -1.4793 -1.2847
  240MOL0     H32376  13.531  -0.331   5.600  0.7048  1.6473  1.3870
  240MOL0     H32377  13.589  -0.181   5.545 -0.8739  0.6430 -0.8288
  240MOL0     H32378  13.749  -0.372   5.561 -3.1177 -1.0623  1.1330
  240MOL0     H32379  13.654  -0.466   5.451 -2.2897 -0.4738  1.1584
  240MOL0     H32380  12.574  -0.309   5.484 -0.7460 -2.7802 -0.8717
  240MOL0     H32381  12.340  -0.299   5.474  0.9571  1.9959  1.1571
  240MOL0     H32382  11.956   0.055   5.277 -0.9580  1.0958 -1.9992
  240MOL0     H32383  11.694   0.022   5.287  0.5808  0.7621 -2.0817
  240MOL0     H32384  11.093   0.398   6.754  1.7116  1.1086 -2.0460
  240MOL0     H32385  10.845   0.386   6.775  1.1163  0.8788 -0.7862
  240MOL0     H32386  10.481   0.325   6.694  0.9210 -0.1073  0.4412
  240MOL0     H32387  10.244   0.353   6.757  0.7942  0.9943  2.3891
  240MOL0     H32388  10.074   0.043   7.021  0.4298 -0.4979 -0.6049
  240MOL0     H32389  10.010  -0.003   6.870  0.8486  1.5302 -1.3934
  240MOL0     H32390   9.831   0.053   7.008  0.3388 -2.6506 -3.0208
  240MOL0     H32391   9.840   0.188   6.883  0.1595  1.1006  0.7304
  240MOL0     H32392  10.000   0.289   7.055  0.9676 -1.3889 -0.0969
  240MOL0     H32393   9.898   0.199   7.165 -1.4570 -2.1025 -2.0766
  240MOL0     H32394   9.823   0.419   6.978  0.1324 -0.7671 -0.8070
  240MOL0     H32395   9.695   0.318   7.026 -2.9968  1.6284  2.8116
  240MOL0     H32396   9.750   0.540   7.387  2.4747 -0.9402  0.9905
  240MOL0     H32397  10.236  -0.048   6.913 -0.3589  0.7650  1.1633
  240MOL0     H32398  10.422  -0.148   6.962  0.3014 -1.4689  0.5299
  240MOL0     H32399  10.493  -0.173   6.797  1.0774  0.9437 -1.7359
  240MOL0     H32400  10.586  -0.089   6.919  0.8616 -3.3519 -3.4644
  241MOL0     O32401   1.499   7.808   0.343  0.7751  0.1154 -0.3626
  241MOL0     C32402   1.419   7.751   0.411 -0.0804  1.5921 -0.4091
  241MOL0     O32403   1.319   7.677   0.363  0.2931  0.0692  0.1255
  241MOL0     C32404   1.285   7.653   0.233 -0.0324  0.0887  1.0999
  241MOL0     C32405   1.277   7.753   0.134 -0.9461  0.0909  0.7205
  241MOL0     C32406   1.227   7.714   0.011 -0.4779  0.0575 -0.4031
  241MOL0     C32407   1.203   7.580  -0.020  0.2795  0.5168 -0.4428
  241MOL0     O32408   1.152   7.549  -0.147  0.7904 -0.2759  0.1521
  241MOL0     C32409   1.174   7.417  -0.209 -0.3606 -0.3347  0.1589
  241MOL0     C32410   1.131   7.435  -0.359  0.6573  1.0673 -0.2634
  241MOL0     C32411   1.184   7.319  -0.448 -0.0687 -0.4724 -0.4088
  241MOL0     C32412   1.335   7.305  -0.448 -0.4410  0.0717  0.3557
  241MOL0     C32413   1.380   7.222  -0.573  0.6247 -0.1167 -0.0767
  241MOL0     C32414   1.537   7.226  -0.579  0.2298 -1.0371 -0.6786
  241MOL0     C32415   1.603   7.175  -0.710  0.5883  0.6492  0.1952
  241MOL0     C32416   1.750   7.208  -0.711  1.0740 -0.0126  0.8988
  241MOL0     N32417   1.816   7.173  -0.845  0.7574  0.8042 -0.0584
  241MOL0     C32418   1.798   7.216  -0.973  0.3016 -0.7440 -0.3041
  241MOL0     C32419   1.881   7.154  -1.052 -1.4452 -0.2797 -0.0221
  241MOL0     C32420   1.885   7.176  -1.208  0.2186 -0.4845 -0.8457
  241MOL0     C32421   1.999   7.274  -1.244  1.0298  0.7617  0.1538
  241MOL0     C32422   2.128   7.216  -1.197  1.1276  0.1010 -0.1325
  241MOL0     C32423   2.245   7.285  -1.267  0.5076 -0.0775 -0.4296
  241MOL0     O32424   2.356   7.206  -1.238 -0.7917 -0.2072  0.4608
  241MOL0     C32425   2.485   7.254  -1.266  0.2553  0.2391 -0.9148
  241MOL0     C32426   2.584   7.177  -1.213 -0.0691  0.6163 -0.4692
  241MOL0     C32427   2.721   7.210  -1.231 -0.2483  0.3347  0.0273
  241MOL0     C32428   2.756   7.325  -1.296 -1.1778  0.1331 -0.3587
  241MOL0     C32429   2.895   7.384  -1.292  1.0643  0.1414  0.6100
  241MOL0     O32430   2.977   7.333  -1.200  0.0208  0.6217  0.7786
  241MOL0     C32431   3.093   7.400  -1.178  0.4990  0.0071 -0.7114
  241MOL0     C32432   3.195   7.415  -1.270  0.1456  0.2901 -0.1163
  241MOL0     C32433   3.313   7.482  -1.226  0.1159  0.1263 -0.2835
  241MOL0     C32434   3.327   7.530  -1.101  0.2660  0.1751 -1.4393
  241MOL0     O32435   3.449   7.578  -1.068 -0.0612 -0.8073 -0.1412
  241MOL0     C32436   3.488   7.584  -0.926  0.3803 -0.6283 -0.2082
  241MOL0     C32437   3.637   7.628  -0.932 -0.4395  0.6350  0.2593
  241MOL0     C32438   3.716   7.503  -0.974  0.8492  0.4435  0.5721
  241MOL0     C32439   3.861   7.551  -0.988 -0.4719  0.4726 -0.1508
  241MOL0     C32440   3.947   7.440  -1.047 -0.1159 -0.2446 -0.0326
  241MOL0     C32441   4.094   7.484  -1.067 -0.8216 -0.5368 -0.4719
  241MOL0     C32442   4.187   7.400  -1.158  0.5569  0.5989 -0.6458
  241MOL0     C32443   4.318   7.469  -1.180  0.1652  0.0120  0.0880
  241MOL0    Cl32444   4.415   7.354  -1.268 -0.0424 -0.2430  0.5185
  241MOL0     C32445   3.222   7.512  -1.014  0.2129 -0.4825  0.4227
  241MOL0     C32446   3.106   7.440  -1.047 -0.1831  0.9387 -0.0531
  241MOL0     O32447   2.925   7.468  -1.374 -1.0485 -0.1942  0.1865
  241MOL0     C32448   2.655   7.402  -1.348  0.1472  0.1368  0.6869
  241MOL0     C32449   2.522   7.368  -1.332 -0.1054  0.3503  0.4966
  241MOL0     N32450   1.959   7.073  -0.972 -0.0054  0.4859 -0.0287
  241MOL0     N32451   1.919   7.084  -0.852  0.6717 -0.1117 -0.0469
  241MOL0     C32452   1.202   7.488   0.083 -0.4105  1.0213  0.1739
  241MOL0     C32453   1.247   7.527   0.203 -0.8590  0.2834 -0.3238
  241MOL0     C32454   1.428   7.761   0.556  1.1186 -0.1764 -0.5714
  241MOL0     C32455   1.499   7.871   0.613 -0.7357  0.1989  0.1268
  241MOL0     C32456   1.488   7.903   0.750  0.8993 -0.7604  0.8054
  241MOL0     C32457   1.413   7.834   0.842  0.0617  0.4501 -0.0111
  241MOL0     O32458   1.399   7.860   0.981 -0.0551 -0.0292 -0.0920
  241MOL0     C32459   1.450   7.989   1.032 -0.9875 -0.4218 -0.2946
  241MOL0     C32460   1.325   8.085   1.021  0.2709 -0.5380 -0.9666
  241MOL0     C32461   1.199   8.026   1.076  0.5456 -0.1199 -0.4692
  241MOL0     C32462   1.221   7.985   1.233  0.8654 -0.2904 -0.4920
  241MOL0     C32463   1.280   8.090   1.323 -0.5977  0.7562  0.2361
  241MOL0     C32464   1.316   8.166   1.405  0.2715 -0.3596 -0.0765
  241MOL0     C32465   1.351   7.723   0.784 -0.0773 -0.2121 -0.9494
  241MOL0     C32466   1.348   7.685   0.648 -0.3184  0.4868  0.2962
  241MOL0     C32467   1.260   7.559   0.624 -0.3012 -0.2791  0.1473
  241MOL0     H32468   1.304   7.853   0.165  0.0056 -0.3988  1.5470
  241MOL0     H32469   1.217   7.784  -0.071  0.3315 -1.0928 -1.5324
  241MOL0     H32470   1.279   7.387  -0.207 -0.6828 -1.5482 -0.1034
  241MOL0     H32471   1.111   7.345  -0.155  0.0728 -1.0523 -0.2759
  241MOL0     H32472   1.140   7.533  -0.406 -0.5537  1.3010 -0.0504
  241MOL0     H32473   1.022   7.425  -0.358  0.6121 -1.7875 -4.5814
  241MOL0     H32474   1.157   7.332  -0.553  1.6490 -0.5080 -0.8814
  241MOL0     H32475   1.124   7.235  -0.411 -1.3024  1.0367  1.2223
  241MOL0     H32476   1.385   7.402  -0.461  0.3403 -0.4446 -0.6008
  241MOL0     H32477   1.371   7.262  -0.354  1.2969 -1.0558 -0.7686
  241MOL0     H32478   1.341   7.120  -0.572  0.2972  0.0041  0.5513
  241MOL0     H32479   1.343   7.274  -0.661  0.9396  0.8076  0.3203
  241MOL0     H32480   1.561   7.333  -0.570 -1.6066 -0.6734  0.2555
  241MOL0     H32481   1.579   7.180  -0.489  0.2691  4.2778  2.4603
  241MOL0     H32482   1.565   7.223  -0.800 -0.7367 -0.0657  0.3486
  241MOL0     H32483   1.587   7.067  -0.714  1.6506  0.5058 -0.6991
  241MOL0     H32484   1.765   7.316  -0.696 -1.4267  0.4516  0.4753
  241MOL0     H32485   1.793   7.152  -0.628  4.5405  2.9695  1.3623
  241MOL0     H32486   1.725   7.290  -1.005 -0.4894 -1.5805 -0.4682
  241MOL0     H32487   1.895   7.077  -1.254 -3.0870 -2.2399  1.7569
  241MOL0     H32488   1.792   7.222  -1.242  0.2149  0.8383  0.8220
  241MOL0     H32489   2.004   7.298  -1.350  0.7968 -1.4952 -0.4228
  241MOL0     H32490   1.963   7.365  -1.196 -1.1188 -0.8242  1.8273
  241MOL0     H32491   2.122   7.108  -1.215 -3.6941  0.0672  0.3457
  241MOL0     H32492   2.144   7.247  -1.093  0.5069  1.0721 -0.3150
  241MOL0     H32493   2.253   7.392  -1.244  0.3386  0.4515 -2.6741
  241MOL0     H32494   2.225   7.291  -1.374 -0.8106  0.2488 -0.1864
  241MOL0     H32495   2.571   7.077  -1.173 -0.1829  0.3064 -1.2751
  241MOL0     H32496   2.802   7.149  -1.191  0.1729  1.8334  1.5833
  241MOL0     H32497   3.179   7.386  -1.373  0.2309  1.6336 -0.5288
  241MOL0     H32498   3.396   7.495  -1.295 -0.9621  1.7993 -1.3295
  241MOL0     H32499   3.434   7.664  -0.875  0.9606  1.3316 -2.4445
  241MOL0     H32500   3.468   7.490  -0.875 -3.4873 -0.0046 -0.3310
  241MOL0     H32501   3.655   7.715  -0.995  0.7724  1.2575  1.4106
  241MOL0     H32502   3.671   7.658  -0.832 -1.0133 -1.1887  1.0605
  241MOL0     H32503   3.700   7.416  -0.909 -4.4581 -1.9690 -3.1999
  241MOL0     H32504   3.683   7.477  -1.075 -3.0527 -1.5113  2.1485
  241MOL0     H32505   3.908   7.571  -0.891 -0.8505 -1.6715  0.5175
  241MOL0     H32506   3.873   7.638  -1.053  0.1880 -1.9951 -3.6074
  241MOL0     H32507   3.902   7.421  -1.145  1.1249  1.0456 -0.8883
  241MOL0     H32508   3.955   7.345  -0.993  0.6214 -0.7999 -1.0780
  241MOL0     H32509   4.095   7.588  -1.098 -1.2494 -0.7792 -1.3244
  241MOL0     H32510   4.142   7.488  -0.968 -0.2170  1.6413 -0.8069
  241MOL0     H32511   4.134   7.379  -1.251 -1.3927  0.5196  0.4210
  241MOL0     H32512   4.211   7.304  -1.113 -0.7288 -0.1803 -1.5714
  241MOL0     H32513   4.298   7.557  -1.243 -0.1456 -0.6828 -0.7980
  241MOL0     H32514   4.371   7.509  -1.093  2.7805 -1.3476 -0.7657
  241MOL0     H32515   3.212   7.557  -0.916  0.7858 -1.8268  1.1214
  241MOL0     H32516   3.032   7.411  -0.974  0.0999 -0.5429 -0.3207
  241MOL0     H32517   2.687   7.488  -1.406  1.9691 -1.1766 -0.3573
  241MOL0     H32518   2.442   7.427  -1.376 -0.3501 -0.7537 -0.6189
  241MOL0     H32519   1.162   7.387   0.076 -0.3634  1.0530 -0.6997
  241MOL0     H32520   1.237   7.447   0.276 -1.7993 -0.2107 -0.9718
  241MOL0     H32521   1.555   7.936   0.546 -2.8188  1.0855 -0.8488
  241MOL0     H32522   1.557   7.984   0.772  0.6020  0.5106 -2.3903
  241MOL0     H32523   1.538   8.020   0.974  0.5145 -1.2673  1.4235
  241MOL0     H32524   1.476   7.974   1.137 -1.3772 -0.6278 -0.2249
  241MOL0     H32525   1.300   8.113   0.918 -2.0238 -0.4402 -0.4457
  241MOL0     H32526   1.349   8.182   1.065 -1.4839 -1.1914  1.6527
  241MOL0     H32527   1.175   7.936   1.018 -1.6397 -0.8532  1.4276
  241MOL0     H32528   1.117   8.098   1.067 -0.4898 -0.7005  2.8493
  241MOL0     H32529   1.126   7.947   1.271 -0.2482  1.7427 -1.1099
  241MOL0     H32530   1.294   7.903   1.234  0.3669 -0.7362 -0.1323
  241MOL0     H32531   1.365   8.233   1.473 -0.4193 -0.8652  0.9541
  241MOL0     H32532   1.294   7.655   0.846 -0.3432 -0.7478 -1.7512
  241MOL0     H32533   1.240   7.506   0.718 -3.1096  0.9448  0.3380
  241MOL0     H32534   1.163   7.580   0.578 -0.0571  0.9571  0.1668
  241MOL0     H32535   1.317   7.485   0.568  1.6514 -0.8609  2.7112
  242MOL0     O32536   3.297   3.106   7.366 -0.5206  0.3115  0.6891
  242MOL0     C32537   3.286   3.203   7.297  0.9823 -0.1186  0.4904
  242MOL0     O32538   3.309   3.203   7.160 -0.1355  0.0801 -0.3409
  242MOL0     C32539   3.434   3.158   7.123 -0.1626 -0.3210 -0.1881
  242MOL0     C32540   3.534   3.245   7.091  1.2955 -0.1410  0.7522
  242MOL0     C32541   3.655   3.194   7.046 -0.3772  0.1959  0.1409
  242MOL0     C32542   3.685   3.062   7.030  0.4735 -0.2394 -1.0302
  242MOL0     O32543   3.804   3.009   6.995 -0.8192 -0.0198 -0.6256
  242MOL0     C32544   3.851   3.027   6.859 -0.2101 -0.1643 -0.8383
  242MOL0     C32545   3.996   3.039   6.859 -0.2186  0.1259 -0.3877
  242MOL0     C32546   4.058   3.052   6.728 -0.5314  0.0472  0.5788
  242MOL0     C32547   4.076   2.913   6.657  0.4909 -0.0353 -0.0642
  242MOL0     C32548   4.169   2.920   6.536 -1.0057 -0.4377  0.5432
  242MOL0     C32549   4.189   2.776   6.482  0.3524  1.1563  0.2230
  242MOL0     C32550   4.295   2.766   6.372 -0.0808  0.1848 -0.5378
  242MOL0     C32551   4.326   2.613   6.340 -0.4573 -1.2860  0.0338
  242MOL0     N32552   4.439   2.615   6.245 -0.4608  0.1348  0.1547
  242MOL0     C32553   4.420   2.624   6.106 -0.0914 -1.2254 -0.7170
  242MOL0     C32554   4.549   2.632   6.064  0.3981 -0.6756 -0.5319
  242MOL0     C32555   4.573   2.674   5.927 -0.3480  0.1908 -0.4374
  242MOL0     C32556   4.725   2.690   5.901  0.1035 -0.2218 -0.1180
  242MOL0     C32557   4.796   2.552   5.877 -0.1810  0.3392 -0.8013
  242MOL0     C32558   4.933   2.571   5.812 -0.4934 -0.3044 -0.6924
  242MOL0     O32559   4.923   2.647   5.688 -0.7587 -0.1630 -0.4096
  242MOL0     C32560   5.037   2.649   5.617 -0.8467  0.0656 -0.1006
  242MOL0     C32561   5.153   2.717   5.660  0.4617  0.7665 -0.7595
  242MOL0     C32562   5.261   2.725   5.577 -0.3770  0.0791  0.3092
  242MOL0     C32563   5.264   2.655   5.459 -0.4497 -0.3312  0.1127
  242MOL0     C32564   5.389   2.666   5.371 -0.1778  0.1561  0.5023
  242MOL0     O32565   5.509   2.671   5.435  0.0687  0.1474  0.1340
  242MOL0     C32566   5.633   2.658   5.368 -0.1293  0.0951  0.5668
  242MOL0     C32567   5.643   2.569   5.252 -0.2383 -0.5186  0.2849
  242MOL0     C32568   5.768   2.545   5.188  0.1281  0.4250  0.0455
  242MOL0     C32569   5.881   2.605   5.233  0.2747  0.4117  0.2167
  242MOL0     O32570   5.995   2.580   5.157 -0.4741  0.2470 -0.3300
  242MOL0     C32571   6.128   2.592   5.205  0.5217  0.5807 -0.8715
  242MOL0     C32572   6.229   2.592   5.088  0.3870 -0.4172  0.3164
  242MOL0     C32573   6.350   2.511   5.126  0.2075 -0.0356 -0.0345
  242MOL0     C32574   6.467   2.541   5.033  0.0632  0.2349 -0.4609
  242MOL0     C32575   6.591   2.457   5.054 -0.6045  0.0486  0.2645
  242MOL0     C32576   6.712   2.508   4.968  0.4945  0.0234  0.2387
  242MOL0     C32577   6.822   2.399   4.994 -0.7945 -0.1369  0.8767
  242MOL0     C32578   6.943   2.444   4.902 -0.2732 -0.3145  0.6830
  242MOL0    Cl32579   7.040   2.575   4.977  0.3922 -0.5658 -0.5794
  242MOL0     C32580   5.872   2.684   5.355 -0.7937  0.2208  0.8535
  242MOL0     C32581   5.746   2.704   5.428 -0.1035 -0.6083  0.0034
  242MOL0     O32582   5.375   2.666   5.249 -0.4108  0.1288 -0.1736
  242MOL0     C32583   5.154   2.591   5.416  0.2870  1.1992 -0.5576
  242MOL0     C32584   5.038   2.586   5.490  0.3769  0.4492 -0.2520
  242MOL0     N32585   4.647   2.618   6.160 -0.4014  0.1675 -0.0866
  242MOL0     N32586   4.578   2.604   6.268  0.0792 -0.8155 -0.9749
  242MOL0     C32587   3.580   2.979   7.075  0.0182  1.1344  0.7108
  242MOL0     C32588   3.455   3.027   7.106 -0.7771  0.0771  0.2197
  242MOL0     C32589   3.215   3.321   7.355  0.3101 -0.5070 -0.8127
  242MOL0     C32590   3.161   3.306   7.482  1.0393  1.1174 -0.0932
  242MOL0     C32591   3.077   3.405   7.542  0.1996 -0.3738 -0.1230
  242MOL0     C32592   3.060   3.525   7.479  0.6514  1.0171 -0.1306
  242MOL0     O32593   2.976   3.626   7.532  0.1950 -0.2922  0.5163
  242MOL0     C32594   2.909   3.599   7.655  0.1897 -0.0335 -0.1068
  242MOL0     C32595   3.004   3.659   7.761  0.0322 -0.4958  0.1814
  242MOL0     C32596   2.983   3.585   7.902  0.3700 -0.6753  1.2692
  242MOL0     C32597   2.962   3.678   8.021 -1.0913  0.7288 -0.1057
  242MOL0     C32598   3.086   3.757   8.039 -0.5170 -0.6577  0.6482
  242MOL0     C32599   3.181   3.826   8.068 -0.0420  0.0322 -0.0231
  242MOL0     C32600   3.108   3.539   7.352 -0.1175 -0.1353  0.3042
  242MOL0     C32601   3.183   3.442   7.282  0.7442 -0.5415 -0.2640
  242MOL0     C32602   3.229   3.482   7.146 -0.1967  0.8644 -0.2447
  242MOL0     H32603   3.517   3.352   7.102  0.2530 -0.3709  1.5149
  242MOL0     H32604   3.733   3.268   7.030 -1.2224  0.8569 -1.1361
  242MOL0     H32605   3.829   2.931   6.812 -0.4461 -1.7831  2.2686
  242MOL0     H32606   3.805   3.112   6.808 -1.7440 -0.5183 -0.1010
  242MOL0     H32607   4.037   2.958   6.920  0.2813  1.8831  1.7471
  242MOL0     H32608   4.031   3.125   6.918  1.0561  0.2328 -1.2589
  242MOL0     H32609   4.158   3.093   6.743 -0.3119  0.3054 -1.3275
  242MOL0     H32610   4.010   3.120   6.657  4.3749  0.7866 -2.5615
  242MOL0     H32611   4.120   2.847   6.733 -0.0549  0.9512  1.1441
  242MOL0     H32612   3.978   2.879   6.624  0.1387  0.8916 -0.0064
  242MOL0     H32613   4.118   2.977   6.458  0.3549  0.6237  0.3990
  242MOL0     H32614   4.264   2.964   6.568 -2.3141  3.0342  0.0958
  242MOL0     H32615   4.206   2.719   6.573 -2.2682  2.4306  1.6456
  242MOL0     H32616   4.090   2.752   6.441  1.4178 -2.9826 -0.3927
  242MOL0     H32617   4.384   2.824   6.397 -1.0250  1.2233  0.5574
  242MOL0     H32618   4.258   2.817   6.283  2.0293  1.2854 -0.8628
  242MOL0     H32619   4.349   2.548   6.425 -2.4923 -2.3567 -0.1545
  242MOL0     H32620   4.241   2.563   6.292 -0.8625 -2.1327  1.5934
  242MOL0     H32621   4.331   2.627   6.044  0.9808 -2.3470 -2.3972
  242MOL0     H32622   4.533   2.593   5.864  1.9768 -0.0606 -1.6701
  242MOL0     H32623   4.533   2.775   5.912 -0.7842 -0.0350 -0.8403
  242MOL0     H32624   4.736   2.756   5.815 -4.2472 -0.5025 -1.0949
  242MOL0     H32625   4.780   2.746   5.977 -0.6697 -0.3808  0.5749
  242MOL0     H32626   4.734   2.487   5.814 -1.1090  1.3297 -0.9519
  242MOL0     H32627   4.803   2.511   5.978 -1.1502  1.4491 -0.2511
  242MOL0     H32628   4.974   2.472   5.791  0.7264 -0.5565  2.3853
  242MOL0     H32629   5.002   2.620   5.881  0.5010  1.2515 -2.6590
  242MOL0     H32630   5.129   2.775   5.749 -1.4051 -1.9984  0.6803
  242MOL0     H32631   5.348   2.773   5.620  1.8993 -2.5294 -1.0469
  242MOL0     H32632   5.552   2.529   5.209  0.4900 -2.3549  0.3453
  242MOL0     H32633   5.778   2.480   5.102 -0.1868 -0.1271  0.4151
  242MOL0     H32634   6.134   2.691   5.253  2.6935 -0.6624  1.6406
  242MOL0     H32635   6.144   2.507   5.272  2.1945  2.0285  0.6750
  242MOL0     H32636   6.180   2.554   4.998 -1.5643  1.8376  0.3351
  242MOL0     H32637   6.260   2.694   5.064 -2.1701  1.0210  2.6029
  242MOL0     H32638   6.386   2.523   5.229  0.3088 -4.3501  0.6363
  242MOL0     H32639   6.325   2.405   5.115 -1.3431  0.3299 -0.1723
  242MOL0     H32640   6.492   2.647   5.043  2.3805 -0.0977 -1.9694
  242MOL0     H32641   6.434   2.509   4.934 -1.7163 -2.1633  0.7852
  242MOL0     H32642   6.574   2.351   5.036 -1.5428  0.7520 -3.9949
  242MOL0     H32643   6.619   2.466   5.160 -2.1644 -3.1110  1.0579
  242MOL0     H32644   6.688   2.514   4.861  1.5315 -0.4617 -0.0393
  242MOL0     H32645   6.742   2.604   5.010  3.2336  0.3436 -2.1239
  242MOL0     H32646   6.775   2.304   4.967 -0.9967 -0.2544  1.6111
  242MOL0     H32647   6.857   2.397   5.098 -0.8436  1.1356  0.9324
  242MOL0     H32648   7.006   2.357   4.881 -2.9026 -1.8315 -1.6696
  242MOL0     H32649   6.902   2.474   4.805 -1.5317 -1.3732  0.8613
  242MOL0     H32650   5.972   2.705   5.393 -0.1994 -1.9644  0.6015
  242MOL0     H32651   5.742   2.746   5.528 -1.4428  0.3376 -0.4189
  242MOL0     H32652   5.163   2.532   5.325  0.6774 -0.9368  0.7908
  242MOL0     H32653   4.951   2.529   5.458  1.4779  0.0838 -2.8346
  242MOL0     H32654   3.595   2.872   7.081 -2.2462  0.7287  0.0465
  242MOL0     H32655   3.379   2.949   7.112  1.1325 -2.0687 -1.5645
  242MOL0     H32656   3.166   3.209   7.531 -0.1358  2.0662  2.0426
  242MOL0     H32657   3.038   3.386   7.641  2.0821  1.2712  0.9892
  242MOL0     H32658   2.882   3.494   7.667  0.8166 -0.1663  0.1767
  242MOL0     H32659   2.813   3.652   7.662  0.1624 -0.1222  0.2557
  242MOL0     H32660   2.977   3.764   7.771 -2.3317 -0.8866 -1.2067
  242MOL0     H32661   3.110   3.660   7.735  0.3286  1.7832  1.2709
  242MOL0     H32662   3.066   3.519   7.928  0.8364 -0.1464  1.1476
  242MOL0     H32663   2.903   3.511   7.899  0.5289 -0.8480  1.2781
  242MOL0     H32664   2.874   3.740   8.002 -1.0903  1.0528  0.9149
  242MOL0     H32665   2.956   3.620   8.114  1.1654  3.5387  1.9713
  242MOL0     H32666   3.267   3.884   8.093  0.4379 -1.1523  1.2163
  242MOL0     H32667   3.083   3.631   7.300  3.4336  1.1958  0.7141
  242MOL0     H32668   3.161   3.562   7.114 -0.8295  1.8500  3.1612
  242MOL0     H32669   3.328   3.528   7.150  1.3288 -2.2041  0.3785
  242MOL0     H32670   3.222   3.400   7.074 -2.3321  2.1425 -1.6017
  243MOL0     O32671   3.310   0.460   3.814  0.2160 -0.0559  0.0355
  243MOL0     C32672   3.404   0.422   3.747 -0.6048 -0.4494  0.7985
  243MOL0     O32673   3.403   0.319   3.659  0.0441  0.1338 -0.2241
  243MOL0     C32674   3.285   0.252   3.618 -0.4702  0.8257  0.0593
  243MOL0     C32675   3.155   0.298   3.620 -1.0676 -0.2238 -0.1569
  243MOL0     C32676   3.051   0.211   3.579  0.4289 -1.1134  0.4192
  243MOL0     C32677   3.081   0.087   3.521  0.2383  0.6280  0.6262
  243MOL0     O32678   2.987  -0.005   3.476  0.4556 -0.2982  0.0130
  243MOL0     C32679   2.849   0.002   3.512  0.6634  0.1761  0.0274
  243MOL0     C32680   2.772  -0.117   3.458 -0.7566 -0.7145  0.7832
  243MOL0     C32681   2.625  -0.112   3.478  0.5888 -0.1086 -0.1740
  243MOL0     C32682   2.555  -0.197   3.380 -0.0887  0.2501  0.7941
  243MOL0     C32683   2.405  -0.213   3.393 -0.2434 -0.4874 -0.1826
  243MOL0     C32684   2.350  -0.341   3.334 -0.3110 -0.1675 -0.1346
  243MOL0     C32685   2.202  -0.379   3.344  0.2373 -0.4362 -0.4141
  243MOL0     C32686   2.179  -0.524   3.282  0.5992  0.0224  0.1238
  243MOL0     N32687   2.189  -0.516   3.136 -1.0563 -0.2119 -1.1943
  243MOL0     C32688   2.305  -0.534   3.063 -0.5255  0.1100  0.9754
  243MOL0     C32689   2.268  -0.533   2.929  0.5917 -0.4257 -0.8627
  243MOL0     C32690   2.338  -0.563   2.808 -0.5234 -0.2729 -0.1592
  243MOL0     C32691   2.437  -0.451   2.771  0.3877 -0.0663 -0.2553
  243MOL0     C32692   2.491  -0.461   2.629  0.6814  1.1245  0.7447
  243MOL0     C32693   2.580  -0.343   2.592 -0.1310 -0.4051  0.9960
  243MOL0     O32694   2.689  -0.340   2.675 -0.0131 -0.1215 -1.0161
  243MOL0     C32695   2.793  -0.250   2.651 -0.4065  0.0167  0.2381
  243MOL0     C32696   2.800  -0.168   2.537 -0.4366  0.0003 -0.0309
  243MOL0     C32697   2.907  -0.092   2.502 -0.0069 -0.7611 -0.3430
  243MOL0     C32698   3.022  -0.081   2.583 -0.2205  0.8024  0.9779
  243MOL0     C32699   3.129   0.007   2.556 -0.7434 -0.5863  0.4163
  243MOL0     O32700   3.110   0.090   2.448 -0.5056  0.5544 -0.7472
  243MOL0     C32701   3.190   0.196   2.430 -0.6096  0.8109 -0.1501
  243MOL0     C32702   3.145   0.323   2.445  0.9767  0.5150 -0.7404
  243MOL0     C32703   3.227   0.434   2.424  0.8365  0.5690  0.1206
  243MOL0     C32704   3.362   0.416   2.386  0.0349  0.0176 -0.6752
  243MOL0     O32705   3.454   0.517   2.369  0.1291  0.0053  0.9579
  243MOL0     C32706   3.440   0.645   2.432 -0.2476  0.1908 -0.4730
  243MOL0     C32707   3.566   0.716   2.400  0.5591 -0.0872 -0.5302
  243MOL0     C32708   3.593   0.828   2.502 -0.0346 -1.5041 -0.0724
  243MOL0     C32709   3.731   0.885   2.459 -0.5274 -1.0329  0.6397
  243MOL0     C32710   3.781   1.000   2.549 -0.6986 -0.8213  0.4300
  243MOL0     C32711   3.928   1.048   2.505  1.2805 -0.1839 -0.3219
  243MOL0     C32712   3.990   1.146   2.613  0.5012 -1.0151 -0.2735
  243MOL0     C32713   3.920   1.286   2.613 -0.9544  0.5150  1.0497
  243MOL0    Cl32714   3.978   1.384   2.737 -0.1677 -0.3457  0.1485
  243MOL0     C32715   3.405   0.285   2.360  0.1292  0.3827 -0.8285
  243MOL0     C32716   3.322   0.179   2.385  0.6289  0.5291 -0.4459
  243MOL0     O32717   3.223   0.013   2.634 -0.7373  0.6623 -0.2556
  243MOL0     C32718   3.022  -0.164   2.698  0.2271 -0.7191 -0.5718
  243MOL0     C32719   2.913  -0.245   2.731 -0.0790  0.3879 -0.3656
  243MOL0     N32720   2.128  -0.502   2.932 -0.6040  0.4241  0.2181
  243MOL0     N32721   2.085  -0.503   3.051  0.5119 -0.2381  1.1046
  243MOL0     C32722   3.215   0.054   3.502 -0.4994 -0.0926 -0.4086
  243MOL0     C32723   3.315   0.139   3.542  0.1185 -0.0773  0.1261
  243MOL0     C32724   3.538   0.468   3.785 -0.9583  0.5627  0.0918
  243MOL0     C32725   3.647   0.382   3.757 -0.4612  0.3581 -0.2703
  243MOL0     C32726   3.780   0.431   3.759  0.8872  0.5267 -0.2076
  243MOL0     C32727   3.797   0.566   3.787 -0.2944 -0.1563 -0.0890
  243MOL0     O32728   3.920   0.634   3.779  0.3897  0.9961  0.4933
  243MOL0     C32729   4.038   0.572   3.714  0.7398  0.3862 -0.8436
  243MOL0     C32730   4.161   0.651   3.741  0.1724 -0.3989  0.2640
  243MOL0     C32731   4.282   0.567   3.684  0.4996  0.2637  0.4990
  243MOL0     C32732   4.421   0.614   3.726  0.0379 -0.4735  0.0919
  243MOL0     C32733   4.448   0.589   3.865 -1.2180  0.3367 -1.1562
  243MOL0     C32734   4.464   0.562   3.979 -0.1335 -0.2829 -0.3592
  243MOL0     C32735   3.695   0.655   3.815 -0.5056  0.1440  0.4917
  243MOL0     C32736   3.565   0.607   3.824 -0.0210 -1.5198  0.6490
  243MOL0     C32737   3.452   0.708   3.840  0.0550  0.3628  0.0153
  243MOL0     H32738   3.134   0.398   3.654 -6.5513 -0.9228 -0.6535
  243MOL0     H32739   2.946   0.241   3.585  0.6626 -0.4629  1.4350
  243MOL0     H32740   2.825  -0.008   3.619 -0.3148 -2.5262 -0.3682
  243MOL0     H32741   2.810   0.098   3.479  2.9857  1.6201  1.2447
  243MOL0     H32742   2.808  -0.205   3.512 -0.9688 -1.6794 -0.5894
  243MOL0     H32743   2.800  -0.124   3.352  1.4789  1.3306  1.1575
  243MOL0     H32744   2.587  -0.010   3.465  0.8422  0.0284  0.1466
  243MOL0     H32745   2.594  -0.146   3.577  0.7008  0.3911  0.0391
  243MOL0     H32746   2.579  -0.152   3.283 -2.1560 -2.9545 -1.4308
  243MOL0     H32747   2.605  -0.294   3.380 -1.0595 -0.3586 -2.3980
  243MOL0     H32748   2.389  -0.208   3.501  3.1294 -0.8126  0.4376
  243MOL0     H32749   2.336  -0.135   3.357  0.0315 -1.0579 -2.0325
  243MOL0     H32750   2.388  -0.340   3.232  2.0683  1.3728  0.6749
  243MOL0     H32751   2.400  -0.429   3.375  1.8597  1.1428  0.1785
  243MOL0     H32752   2.131  -0.304   3.308 -0.5082 -1.8048 -1.8859
  243MOL0     H32753   2.170  -0.389   3.448  0.8174 -0.4301 -0.2326
  243MOL0     H32754   2.257  -0.591   3.318  2.3129  1.0396 -1.4642
  243MOL0     H32755   2.080  -0.561   3.308  0.3325 -0.2100 -1.1325
  243MOL0     H32756   2.405  -0.556   3.099  0.2177  0.9680 -0.4968
  243MOL0     H32757   2.386  -0.661   2.800  0.7115  0.2207  0.8650
  243MOL0     H32758   2.260  -0.560   2.732 -2.5232 -0.4836  1.7926
  243MOL0     H32759   2.380  -0.358   2.776 -1.5531 -1.2334  0.3689
  243MOL0     H32760   2.526  -0.442   2.833  1.2978 -0.0978 -1.5055
  243MOL0     H32761   2.412  -0.470   2.554  0.6306 -0.3028  0.9481
  243MOL0     H32762   2.542  -0.557   2.625 -0.8162  0.2937  0.7864
  243MOL0     H32763   2.525  -0.248   2.595  1.1810  0.4830 -0.7847
  243MOL0     H32764   2.631  -0.360   2.496  0.3143  0.2778  1.1031
  243MOL0     H32765   2.721  -0.167   2.463  0.8373 -0.7965 -1.4612
  243MOL0     H32766   2.914  -0.041   2.406  1.7076 -0.6778 -0.1972
  243MOL0     H32767   3.044   0.337   2.482  0.4023 -1.8340 -1.2549
  243MOL0     H32768   3.179   0.529   2.446 -4.4391 -1.8154  0.5466
  243MOL0     H32769   3.361   0.713   2.400 -1.9099 -0.0929  2.6133
  243MOL0     H32770   3.423   0.618   2.537 -1.3067 -2.6405 -1.2729
  243MOL0     H32771   3.650   0.647   2.399 -0.5793 -1.5109 -0.5311
  243MOL0     H32772   3.548   0.741   2.294 -3.1236 -1.8976 -0.4911
  243MOL0     H32773   3.530   0.917   2.489  3.0561  0.6575 -1.7195
  243MOL0     H32774   3.593   0.796   2.606 -1.0186 -0.7554  0.1837
  243MOL0     H32775   3.730   0.910   2.353  3.7544 -1.4603  0.2906
  243MOL0     H32776   3.812   0.811   2.459  1.1067  0.5082 -2.8419
  243MOL0     H32777   3.774   0.968   2.653 -1.7126 -2.8903 -0.2028
  243MOL0     H32778   3.709   1.080   2.534 -0.8282 -1.1994 -1.1721
  243MOL0     H32779   3.988   0.957   2.496 -1.7284 -2.2641 -0.9551
  243MOL0     H32780   3.921   1.102   2.410 -2.8102 -0.1391 -0.2005
  243MOL0     H32781   4.095   1.161   2.587  0.2050 -0.2106 -1.0385
  243MOL0     H32782   3.991   1.101   2.713  0.4816 -2.2424 -0.8047
  243MOL0     H32783   3.932   1.346   2.523  2.1001  2.4217  2.5815
  243MOL0     H32784   3.814   1.258   2.619 -0.3177 -2.8107 -0.4420
  243MOL0     H32785   3.506   0.258   2.332  0.8657 -0.7451  2.4807
  243MOL0     H32786   3.358   0.077   2.371 -0.5297  0.3058 -2.0937
  243MOL0     H32787   3.108  -0.153   2.763  0.2671  2.2589 -1.0069
  243MOL0     H32788   2.908  -0.309   2.818 -2.1870 -2.0199 -2.0884
  243MOL0     H32789   3.243  -0.045   3.468 -0.1629 -0.2774  0.3738
  243MOL0     H32790   3.414   0.097   3.534 -1.1373 -3.9096  2.1163
  243MOL0     H32791   3.646   0.284   3.711 -0.5068 -0.4121  1.3143
  243MOL0     H32792   3.860   0.372   3.714 -0.2441  1.0138 -3.0722
  243MOL0     H32793   4.017   0.544   3.610 -3.1769  0.5604 -0.2777
  243MOL0     H32794   4.052   0.474   3.760  0.0627 -0.5410 -2.5170
  243MOL0     H32795   4.168   0.683   3.845 -3.1480  3.8112 -0.4899
  243MOL0     H32796   4.156   0.747   3.689  0.6906 -0.0822  0.7889
  243MOL0     H32797   4.287   0.571   3.575 -0.1696 -1.0308  0.4028
  243MOL0     H32798   4.274   0.463   3.718  0.7711  0.7303  2.0546
  243MOL0     H32799   4.490   0.552   3.668 -1.7550 -0.3110 -2.3659
  243MOL0     H32800   4.432   0.720   3.701  0.8284 -0.8585 -1.2950
  243MOL0     H32801   4.487   0.542   4.082 -0.9721 -0.0735 -0.1266
  243MOL0     H32802   3.712   0.758   3.843  0.1807  0.1767 -0.0147
  243MOL0     H32803   3.366   0.677   3.779 -0.7084  1.0417  0.7164
  243MOL0     H32804   3.421   0.717   3.944  1.5488 -0.2210  0.5333
  243MOL0     H32805   3.481   0.806   3.800  2.9928  0.0468  1.1466
  244MOL0     O32806   5.363  10.044   2.766  0.3911  0.1499  0.2643
  244MOL0     C32807   5.312   9.996   2.868 -0.2465  0.6257  0.9058
  244MOL0     O32808   5.344   9.888   2.927 -0.3070  0.9192  0.7979
  244MOL0     C32809   5.443   9.802   2.874  1.0728  0.5367 -0.8091
  244MOL0     C32810   5.432   9.768   2.738  0.5177 -0.4847  0.1905
  244MOL0     C32811   5.529   9.696   2.673  0.3292 -0.6198 -0.8984
  244MOL0     C32812   5.641   9.648   2.749  0.5757 -1.8056  0.5219
  244MOL0     O32813   5.743   9.589   2.674 -0.6668  0.5026  0.0693
  244MOL0     C32814   5.834   9.500   2.739 -0.4893 -0.1856  0.5627
  244MOL0     C32815   5.954   9.578   2.791 -0.0093 -0.1728 -0.1241
  244MOL0     C32816   6.070   9.482   2.810  0.1759 -0.3651  0.2878
  244MOL0     C32817   6.195   9.560   2.865  0.3006 -0.5918 -0.5149
  244MOL0     C32818   6.303   9.459   2.908 -0.0876  0.9406  0.3766
  244MOL0     C32819   6.426   9.543   2.949 -0.7173  0.6998 -0.6448
  244MOL0     C32820   6.556   9.459   2.981  0.6341  0.0691 -0.7427
  244MOL0     C32821   6.556   9.398   3.128  0.8128 -0.0520  0.6701
  244MOL0     N32822   6.682   9.333   3.170  0.2737  0.6037 -0.3346
  244MOL0     C32823   6.816   9.369   3.149 -0.2047 -0.6532  0.7808
  244MOL0     C32824   6.891   9.273   3.208  0.8588  0.1661  0.4446
  244MOL0     C32825   7.039   9.267   3.211  0.3202  0.7706  0.7422
  244MOL0     C32826   7.092   9.148   3.299  0.1541  0.1970  0.2636
  244MOL0     C32827   7.249   9.152   3.315  0.3887  0.0990 -0.2466
  244MOL0     C32828   7.301   9.039   3.399 -0.0979 -0.1256 -0.1065
  244MOL0     O32829   7.410   8.981   3.319  0.5109  0.1553  0.5727
  244MOL0     C32830   7.538   9.031   3.310 -0.4714 -0.7499  0.3804
  244MOL0     C32831   7.579   9.162   3.350  0.4770 -0.2872  0.0770
  244MOL0     C32832   7.718   9.199   3.335  0.1806 -0.1201 -0.1008
  244MOL0     C32833   7.817   9.106   3.286 -0.2277  0.6219  0.0964
  244MOL0     C32834   7.965   9.148   3.279  0.5696  0.5469 -0.0894
  244MOL0     O32835   8.042   9.073   3.200 -0.8870 -0.1728  0.9285
  244MOL0     C32836   8.178   9.081   3.210 -0.2504 -0.6686  0.1931
  244MOL0     C32837   8.245   9.204   3.207  0.3022 -0.1458 -0.2926
  244MOL0     C32838   8.381   9.204   3.200 -0.1135 -1.1214 -0.0350
  244MOL0     C32839   8.459   9.093   3.206 -0.2221 -0.2595 -0.0489
  244MOL0     O32840   8.594   9.089   3.184 -0.8897  0.0713  0.7629
  244MOL0     C32841   8.663   9.210   3.139 -0.5275 -0.1368 -0.2747
  244MOL0     C32842   8.771   9.164   3.034  0.5960  0.4547 -0.1074
  244MOL0     C32843   8.839   9.288   2.969  0.1260 -0.2392 -0.1431
  244MOL0     C32844   8.927   9.351   3.078  0.0751  0.3998  0.1194
  244MOL0     C32845   9.006   9.468   3.017  0.3113 -0.1944 -0.7464
  244MOL0     C32846   9.123   9.411   2.928 -0.1577  0.3631  1.6173
  244MOL0     C32847   9.269   9.442   2.995  0.6830 -0.2181 -0.1872
  244MOL0     C32848   9.392   9.357   2.964 -0.3823  0.0787 -0.0545
  244MOL0    Cl32849   9.440   9.392   2.797 -0.1404 -0.6126  0.1288
  244MOL0     C32850   8.392   8.971   3.217 -0.2861 -0.7257 -0.0064
  244MOL0     C32851   8.256   8.961   3.214  0.2436 -0.3690 -0.9005
  244MOL0     O32852   7.996   9.246   3.343 -0.0730  0.3281  0.2537
  244MOL0     C32853   7.767   8.979   3.238  0.0545  0.0924 -0.7235
  244MOL0     C32854   7.627   8.946   3.255 -0.1930 -0.1115 -0.1362
  244MOL0     N32855   6.799   9.180   3.270  0.1347  1.1524 -0.5504
  244MOL0     N32856   6.678   9.222   3.251  0.1146 -0.4758  0.2171
  244MOL0     C32857   5.644   9.668   2.887  0.0092 -0.1038 -0.2809
  244MOL0     C32858   5.548   9.749   2.947  1.0665 -0.2263 -0.0306
  244MOL0     C32859   5.204  10.062   2.938 -0.0886  1.0975  0.1596
  244MOL0     C32860   5.136  10.011   3.052  0.3650 -0.1005  0.3328
  244MOL0     C32861   5.031  10.068   3.113 -0.7231  1.0211 -0.2331
  244MOL0     C32862   4.980  10.180   3.072  0.6123 -0.5535  0.3686
  244MOL0     O32863   4.864  10.234   3.128  0.1277  0.0455  0.3791
  244MOL0     C32864   4.829  10.369   3.101 -0.5970  0.1616 -0.2063
  244MOL0     C32865   4.718  10.407   3.201 -0.6243 -0.1902 -0.3440
  244MOL0     C32866   4.737  10.553   3.255 -0.2982 -0.2278  0.7690
  244MOL0     C32867   4.653  10.584   3.386 -0.7277  0.6215 -0.8798
  244MOL0     C32868   4.718  10.528   3.508 -0.3274 -0.8503 -0.1877
  244MOL0     C32869   4.780  10.487   3.603 -0.4804  0.1673  0.8528
  244MOL0     C32870   5.044  10.242   2.957  0.4737 -0.2316  0.1573
  244MOL0     C32871   5.151  10.184   2.893  0.5236  0.8764  0.5680
  244MOL0     C32872   5.197  10.266   2.768 -0.0790  0.7906 -0.3386
  244MOL0     H32873   5.340   9.782   2.682  0.8876  2.3472  0.1528
  244MOL0     H32874   5.525   9.673   2.567 -2.2620  0.3088 -1.0662
  244MOL0     H32875   5.780   9.451   2.821  0.7378 -0.6236  1.1357
  244MOL0     H32876   5.872   9.427   2.668  1.9398  0.2888  1.2802
  244MOL0     H32877   5.938   9.644   2.877 -2.7236 -1.2005  0.2702
  244MOL0     H32878   5.983   9.652   2.716 -1.8361  1.3218  0.5695
  244MOL0     H32879   6.104   9.438   2.716  1.0138  0.8204  0.0144
  244MOL0     H32880   6.041   9.397   2.874  0.4431 -1.8382 -1.4617
  244MOL0     H32881   6.235   9.624   2.786  0.5556  1.2121  1.0024
  244MOL0     H32882   6.168   9.624   2.950  0.0116 -1.1716 -0.1683
  244MOL0     H32883   6.266   9.409   2.999 -0.5859 -1.4614 -1.0737
  244MOL0     H32884   6.332   9.386   2.833  1.9737  0.7487  1.2924
  244MOL0     H32885   6.444   9.608   2.863 -0.7644  2.0446  0.3411
  244MOL0     H32886   6.402   9.604   3.036  2.6703  0.5905  0.4736
  244MOL0     H32887   6.645   9.524   2.983  1.3293 -0.8462  1.3876
  244MOL0     H32888   6.578   9.375   2.916 -0.4241 -0.7552 -0.0662
  244MOL0     H32889   6.525   9.485   3.188 -1.7448 -1.3872  1.4654
  244MOL0     H32890   6.471   9.329   3.136 -0.9328  1.9506  0.2149
  244MOL0     H32891   6.853   9.457   3.098 -1.4920 -0.0806  0.8166
  244MOL0     H32892   7.080   9.254   3.111  0.7018 -0.0684  1.0031
  244MOL0     H32893   7.083   9.361   3.246  3.2345 -0.8053  1.6001
  244MOL0     H32894   7.045   9.161   3.397  0.8718 -0.3673  0.6944
  244MOL0     H32895   7.067   9.050   3.257  2.1745  0.1482 -0.9431
  244MOL0     H32896   7.284   9.247   3.356  1.1830 -1.0297  1.8001
  244MOL0     H32897   7.294   9.134   3.217  0.8286 -0.7964  0.1093
  244MOL0     H32898   7.227   8.959   3.406  0.7044 -1.6219 -4.9070
  244MOL0     H32899   7.336   9.065   3.499  2.5346  0.0360 -0.9845
  244MOL0     H32900   7.500   9.228   3.383  0.3379  1.0158 -2.6467
  244MOL0     H32901   7.749   9.298   3.367 -1.6948 -0.6444  4.0274
  244MOL0     H32902   8.197   9.301   3.200 -4.1386 -2.0399  0.4731
  244MOL0     H32903   8.417   9.306   3.188 -3.8168  0.1591 -1.7592
  244MOL0     H32904   8.606   9.285   3.084  2.1312  0.9447 -1.7470
  244MOL0     H32905   8.699   9.267   3.225 -0.7979 -1.3232  0.6489
  244MOL0     H32906   8.844   9.099   3.084 -0.6810 -0.2876  0.8600
  244MOL0     H32907   8.723   9.110   2.952 -2.5709  1.6978  0.7776
  244MOL0     H32908   8.898   9.257   2.882  1.6693 -3.0629  1.7810
  244MOL0     H32909   8.761   9.357   2.934  0.9676  0.6908 -0.2537
  244MOL0     H32910   8.999   9.275   3.111  0.0787 -0.5450 -1.9048
  244MOL0     H32911   8.873   9.392   3.164  1.9122  1.2166  0.9455
  244MOL0     H32912   9.043   9.523   3.104  0.2708 -1.3036 -0.0107
  244MOL0     H32913   8.935   9.523   2.955  0.6542  0.1749 -0.8151
  244MOL0     H32914   9.110   9.309   2.892  0.6529  0.5324  0.8064
  244MOL0     H32915   9.120   9.470   2.836 -0.3616  0.5707  1.7550
  244MOL0     H32916   9.263   9.453   3.104  1.7787  2.4176 -0.3020
  244MOL0     H32917   9.298   9.539   2.953 -2.3432  0.1366 -1.6900
  244MOL0     H32918   9.468   9.361   3.043 -2.4528 -0.1997  2.0505
  244MOL0     H32919   9.365   9.251   2.969 -0.2841  0.1147  1.5178
  244MOL0     H32920   8.457   8.886   3.237  0.3210 -0.4036 -0.5503
  244MOL0     H32921   8.217   8.860   3.214 -0.4564 -0.1120 -0.1377
  244MOL0     H32922   7.832   8.905   3.194  0.8675  1.8522 -2.6756
  244MOL0     H32923   7.588   8.847   3.233 -0.2069 -0.1253 -0.0541
  244MOL0     H32924   5.727   9.631   2.947 -0.1186  2.7106  1.8398
  244MOL0     H32925   5.569   9.784   3.047 -0.6812 -1.9381  0.9829
  244MOL0     H32926   5.176   9.918   3.093 -1.3533 -0.3622  1.5344
  244MOL0     H32927   4.997  10.038   3.212  0.9142 -1.2455 -0.2684
  244MOL0     H32928   4.809  10.391   2.996  1.6536 -4.9893 -2.0799
  244MOL0     H32929   4.922  10.420   3.128 -1.3238  2.1543 -1.2831
  244MOL0     H32930   4.742  10.346   3.288 -0.5998 -1.3845 -1.1599
  244MOL0     H32931   4.613  10.401   3.169 -0.8213  1.1084  0.0365
  244MOL0     H32932   4.708  10.623   3.176 -3.0179 -1.6863  0.3731
  244MOL0     H32933   4.840  10.561   3.290 -0.5076 -0.9322  1.5867
  244MOL0     H32934   4.653  10.693   3.399 -0.2856  0.4383  0.9376
  244MOL0     H32935   4.550  10.547   3.379 -0.0807 -2.0720  1.7987
  244MOL0     H32936   4.825  10.451   3.694  1.0307  3.6342  1.6268
  244MOL0     H32937   4.995  10.329   2.915 -0.2630 -0.8033 -0.1818
  244MOL0     H32938   5.131  10.353   2.764 -2.7049 -0.8973  2.2032
  244MOL0     H32939   5.301  10.300   2.773  0.6190 -1.1936 -0.4765
  244MOL0     H32940   5.181  10.205   2.679 -1.7430 -3.0093  2.3035
  245MOL0     O32941   3.002   7.765   2.669 -0.2487 -0.1066  0.2375
  245MOL0     C32942   2.915   7.680   2.658 -0.2596 -0.1008 -0.4194
  245MOL0     O32943   2.929   7.553   2.708  0.1257  0.7803  0.4281
  245MOL0     C32944   3.058   7.498   2.700 -0.3504  0.6582  0.4378
  245MOL0     C32945   3.102   7.430   2.587  0.3078  0.3670  0.8899
  245MOL0     C32946   3.229   7.381   2.590 -0.3200  0.4404  0.8020
  245MOL0     C32947   3.330   7.402   2.690  0.2451 -0.3217  0.2067
  245MOL0     O32948   3.453   7.338   2.683  0.0023  0.8519 -0.2457
  245MOL0     C32949   3.531   7.360   2.800 -0.1695  0.9894 -0.0476
  245MOL0     C32950   3.668   7.299   2.759  0.3345  0.9092  0.6478
  245MOL0     C32951   3.782   7.338   2.852  0.3074 -0.4009  0.2252
  245MOL0     C32952   3.749   7.276   2.990  0.0198  0.3333 -0.8140
  245MOL0     C32953   3.853   7.277   3.097 -1.3400 -0.2823  0.1794
  245MOL0     C32954   3.812   7.182   3.208 -0.3917  0.2384  0.6391
  245MOL0     C32955   3.930   7.137   3.307 -0.8566 -0.8725 -0.3653
  245MOL0     C32956   3.877   7.067   3.431  0.3134  0.1662 -0.1675
  245MOL0     N32957   3.981   7.041   3.531 -0.2432  0.2939 -0.1556
  245MOL0     C32958   4.056   7.146   3.591 -0.1028 -0.6238 -0.5539
  245MOL0     C32959   4.126   7.085   3.691  0.0442  0.1926  0.1095
  245MOL0     C32960   4.235   7.146   3.779 -0.2831  0.4683  0.1430
  245MOL0     C32961   4.367   7.075   3.751  0.0454 -0.1178 -0.5552
  245MOL0     C32962   4.492   7.125   3.839  0.7449 -0.2659 -0.3191
  245MOL0     C32963   4.624   7.058   3.791  0.2433 -0.3117  0.1194
  245MOL0     O32964   4.648   7.073   3.649 -0.9361 -1.1503  0.1303
  245MOL0     C32965   4.774   7.118   3.608 -0.3509  0.1594 -0.4943
  245MOL0     C32966   4.883   7.118   3.697 -0.1943  0.7748  0.0196
  245MOL0     C32967   5.009   7.162   3.654  0.0216 -0.8756  0.4073
  245MOL0     C32968   5.032   7.198   3.519  0.5107  0.3567  0.3287
  245MOL0     C32969   5.174   7.211   3.466 -0.1531  0.4167  0.1893
  245MOL0     O32970   5.278   7.216   3.559 -0.2884 -0.3224  0.4215
  245MOL0     C32971   5.410   7.234   3.521  0.2952 -0.4296 -0.2610
  245MOL0     C32972   5.463   7.319   3.414 -0.1382 -0.2355 -0.3661
  245MOL0     C32973   5.596   7.332   3.391  0.8589  0.3557 -0.2451
  245MOL0     C32974   5.694   7.267   3.465 -0.2804 -0.2163 -0.3737
  245MOL0     O32975   5.830   7.271   3.437 -0.2382  0.2874 -0.3319
  245MOL0     C32976   5.880   7.334   3.316  0.1360 -0.3970  0.0350
  245MOL0     C32977   6.028   7.302   3.281  0.2260  0.2066 -0.5248
  245MOL0     C32978   6.118   7.359   3.394  0.3782 -0.1072  0.1310
  245MOL0     C32979   6.262   7.370   3.337 -0.0288 -0.1931 -0.7714
  245MOL0     C32980   6.367   7.385   3.447  0.0233 -0.2151  0.2489
  245MOL0     C32981   6.358   7.524   3.526 -0.1657 -0.2538 -0.5717
  245MOL0     C32982   6.431   7.525   3.660  0.3226  0.0053 -0.1037
  245MOL0     C32983   6.369   7.437   3.768 -0.0964  0.5360 -0.4743
  245MOL0    Cl32984   6.225   7.516   3.842  0.1955 -0.0752  0.1279
  245MOL0     C32985   5.647   7.186   3.564  0.3513 -0.2021 -0.2890
  245MOL0     C32986   5.512   7.172   3.592 -0.0030  0.5782  0.8262
  245MOL0     O32987   5.185   7.218   3.343  0.0148  0.7161 -0.0598
  245MOL0     C32988   4.924   7.187   3.427 -0.7457  0.6680 -0.0246
  245MOL0     C32989   4.801   7.144   3.478 -0.3301 -0.1114 -0.1888
  245MOL0     N32990   4.093   6.947   3.682 -0.1014 -0.0854  0.4353
  245MOL0     N32991   4.010   6.925   3.586  0.1055  0.0142  0.7793
  245MOL0     C32992   3.280   7.470   2.809 -0.4738 -0.6756  0.2102
  245MOL0     C32993   3.150   7.516   2.802  0.7398 -0.4268 -0.4202
  245MOL0     C32994   2.781   7.717   2.598 -0.1233 -0.6714  0.6487
  245MOL0     C32995   2.687   7.612   2.591 -0.0279  0.6571 -0.2110
  245MOL0     C32996   2.559   7.635   2.549 -0.5576  1.2691 -0.1923
  245MOL0     C32997   2.523   7.754   2.502  0.1415 -0.0474 -0.2899
  245MOL0     O32998   2.398   7.772   2.471  0.8813  0.0710 -0.0144
  245MOL0     C32999   2.306   7.829   2.568  0.3418  0.1167 -0.4028
  245MOL0     C33000   2.165   7.766   2.557 -0.1613  0.2940  0.2305
  245MOL0     C33001   2.080   7.769   2.689 -0.3021 -1.2472  0.0473
  245MOL0     C33002   1.965   7.686   2.688  0.6282  0.3653 -0.1174
  245MOL0     C33003   2.001   7.540   2.685 -0.7365 -0.6062 -0.3529
  245MOL0     C33004   2.051   7.434   2.694 -0.2325 -0.4386 -0.8572
  245MOL0     C33005   2.609   7.860   2.508 -0.4515 -0.2913  0.1362
  245MOL0     C33006   2.743   7.844   2.557  0.1420 -0.5196  0.8955
  245MOL0     C33007   2.817   7.974   2.590 -0.6822 -0.6208  0.2555
  245MOL0     H33008   3.031   7.417   2.506  1.3827  0.4956 -0.1105
  245MOL0     H33009   3.259   7.322   2.504  0.3163 -1.4717  2.2445
  245MOL0     H33010   3.544   7.463   2.835  3.2993  0.8511 -0.6049
  245MOL0     H33011   3.493   7.303   2.886 -0.8822  1.7393  0.1440
  245MOL0     H33012   3.686   7.331   2.656 -0.7124  0.7763  0.4187
  245MOL0     H33013   3.645   7.192   2.757 -3.8398  1.6486 -1.7686
  245MOL0     H33014   3.802   7.444   2.870  3.3266 -0.9392  0.4946
  245MOL0     H33015   3.878   7.300   2.817  0.0554  1.1719 -2.4809
  245MOL0     H33016   3.661   7.321   3.036 -1.4088 -2.2946 -0.7836
  245MOL0     H33017   3.718   7.171   2.987 -1.0286  0.6515 -1.9455
  245MOL0     H33018   3.954   7.255   3.062 -0.8934 -0.7052  1.6468
  245MOL0     H33019   3.869   7.381   3.127  2.8937 -1.2326  1.9829
  245MOL0     H33020   3.735   7.231   3.269 -0.1113 -1.6696  2.6873
  245MOL0     H33021   3.778   7.090   3.160 -0.3632  0.3520  0.4025
  245MOL0     H33022   3.994   7.219   3.341 -0.6874 -0.0729 -2.4798
  245MOL0     H33023   3.999   7.071   3.255 -0.3434  1.0449 -2.2855
  245MOL0     H33024   3.800   7.126   3.481  2.7067 -0.0865  4.3331
  245MOL0     H33025   3.826   6.974   3.403 -2.2916  1.6508 -0.6226
  245MOL0     H33026   4.055   7.250   3.560 -1.1754  0.4218  2.5989
  245MOL0     H33027   4.235   7.254   3.760  1.0315  0.3138 -0.8367
  245MOL0     H33028   4.208   7.133   3.884 -1.1143  0.9418 -0.0002
  245MOL0     H33029   4.359   6.968   3.771 -1.2225  0.0540 -0.0744
  245MOL0     H33030   4.396   7.085   3.646  3.5007  1.0574  0.3855
  245MOL0     H33031   4.489   7.113   3.947 -0.1483  2.9296  0.0963
  245MOL0     H33032   4.491   7.233   3.824 -0.1884 -0.4817 -2.1846
  245MOL0     H33033   4.628   6.951   3.813  3.5976 -0.4946 -0.8897
  245MOL0     H33034   4.700   7.096   3.860  1.2665  0.8721 -1.5787
  245MOL0     H33035   4.884   7.088   3.802 -1.1383 -3.0731 -0.9277
  245MOL0     H33036   5.098   7.158   3.716  0.1704 -1.3323  0.1694
  245MOL0     H33037   5.397   7.382   3.354 -1.1100 -1.2620 -0.3936
  245MOL0     H33038   5.615   7.402   3.311 -0.2220  1.1987  0.2114
  245MOL0     H33039   5.811   7.300   3.238 -5.1411  0.0845  3.9665
  245MOL0     H33040   5.886   7.443   3.321 -0.1236 -0.4367  1.6088
  245MOL0     H33041   6.041   7.195   3.265 -2.1134 -0.5149  1.6792
  245MOL0     H33042   6.051   7.361   3.192 -3.3994 -0.4278 -2.0292
  245MOL0     H33043   6.076   7.455   3.425  0.2774 -0.8304  2.4206
  245MOL0     H33044   6.113   7.304   3.489  1.2522  1.6239  1.2436
  245MOL0     H33045   6.279   7.453   3.267 -0.9565  2.0582  1.4827
  245MOL0     H33046   6.285   7.275   3.289 -0.5880 -1.9239  2.1320
  245MOL0     H33047   6.468   7.374   3.404  0.2394 -2.2149  1.1867
  245MOL0     H33048   6.354   7.303   3.518 -1.5223  0.4211  0.7434
  245MOL0     H33049   6.401   7.597   3.457  0.5617 -0.7354 -0.6470
  245MOL0     H33050   6.251   7.540   3.541 -0.1171 -1.3211  1.1767
  245MOL0     H33051   6.432   7.628   3.697  1.2843  0.2932 -0.8844
  245MOL0     H33052   6.537   7.497   3.649  1.6974  3.6815  1.9453
  245MOL0     H33053   6.350   7.334   3.736 -1.6936  0.4867  0.5549
  245MOL0     H33054   6.450   7.421   3.840  0.6910 -0.4862 -1.5391
  245MOL0     H33055   5.720   7.137   3.627  2.0718 -0.2320 -2.1861
  245MOL0     H33056   5.480   7.124   3.684 -0.6527  0.8320  0.7411
  245MOL0     H33057   4.943   7.197   3.320  0.5048  2.4142  0.3188
  245MOL0     H33058   4.722   7.137   3.404 -0.1813  0.1711 -0.3766
  245MOL0     H33059   3.336   7.476   2.903 -1.0506 -0.0843  0.5220
  245MOL0     H33060   3.108   7.568   2.888  0.0830 -0.5667 -0.6533
  245MOL0     H33061   2.704   7.509   2.620 -0.8787  1.0074  1.7126
  245MOL0     H33062   2.488   7.553   2.548  1.3813 -0.5294  1.1301
  245MOL0     H33063   2.296   7.937   2.549  1.9412  0.0180 -2.0800
  245MOL0     H33064   2.340   7.816   2.672 -2.0574  3.7233  1.0573
  245MOL0     H33065   2.172   7.660   2.532 -2.3831  0.4640 -1.4543
  245MOL0     H33066   2.105   7.800   2.472 -2.1962 -1.8957  0.6897
  245MOL0     H33067   2.055   7.874   2.702  2.7462 -0.1599 -1.8099
  245MOL0     H33068   2.133   7.758   2.785 -2.6042  4.3380  2.4275
  245MOL0     H33069   1.897   7.708   2.771 -0.2409 -1.4539 -0.2861
  245MOL0     H33070   1.909   7.695   2.595 -2.0913  1.3399  1.4943
  245MOL0     H33071   2.098   7.338   2.702 -0.0301 -0.3104 -0.4761
  245MOL0     H33072   2.583   7.953   2.459 -0.4567 -0.4525 -0.1668
  245MOL0     H33073   2.924   7.970   2.570 -0.9254 -0.0321 -1.2282
  245MOL0     H33074   2.781   8.060   2.533  0.0867 -0.2762  0.2772
  245MOL0     H33075   2.799   8.009   2.693  0.7181  2.0828 -0.3294
  246MOL0     O33076   2.265   4.997   9.732 -0.2846  1.4998 -0.3266
  246MOL0     C33077   2.251   5.110   9.773  0.0027 -0.4204  0.0159
  246MOL0     O33078   2.347   5.202   9.783  0.2581 -0.1033 -0.6795
  246MOL0     C33079   2.480   5.170   9.740  0.4131 -0.2360 -0.6071
  246MOL0     C33080   2.507   5.133   9.610 -1.4479  0.8938  0.1834
  246MOL0     C33081   2.648   5.109   9.576  0.0937 -0.6790 -0.2420
  246MOL0     C33082   2.749   5.114   9.673  0.0308 -0.2016 -0.1332
  246MOL0     O33083   2.875   5.104   9.619  0.8831 -0.1049  0.4521
  246MOL0     C33084   2.995   5.140   9.693 -0.6798 -0.0938 -0.1585
  246MOL0     C33085   3.108   5.061   9.647  0.7958  0.0915  0.6969
  246MOL0     C33086   3.228   5.090   9.733 -0.3718 -0.3603 -0.7465
  246MOL0     C33087   3.359   5.048   9.660 -0.0799 -0.2691  1.0342
  246MOL0     C33088   3.464   5.040   9.765  0.8093 -0.7456 -0.5495
  246MOL0     C33089   3.600   4.992   9.710 -0.4613  0.2668 -0.2034
  246MOL0     C33090   3.716   5.004   9.802  0.3212 -0.4096 -0.3071
  246MOL0     C33091   3.749   5.151   9.825  0.2045 -0.6097 -0.4055
  246MOL0     N33092   3.887   5.169   9.868  0.2696  0.1093 -0.6421
  246MOL0     C33093   3.921   5.205   9.996 -0.5564  1.5593 -0.2610
  246MOL0     C33094   4.061   5.200   9.984  0.3669 -0.4715 -0.2772
  246MOL0     C33095   4.167   5.215  10.090 -0.2060  0.3390  0.9571
  246MOL0     C33096   4.145   5.131  10.218 -0.5553 -0.2010 -0.2268
  246MOL0     C33097   4.235   5.178  10.339  0.2006 -0.0843 -0.4193
  246MOL0     C33098   4.369   5.107  10.318 -0.8172  0.8316 -0.1505
  246MOL0     O33099   4.384   4.967  10.302  0.4902 -0.3716  0.3109
  246MOL0     C33100   4.508   4.903  10.295 -0.1130  0.1193 -0.0895
  246MOL0     C33101   4.524   4.785  10.217 -0.4082 -0.5071 -0.3502
  246MOL0     C33102   4.647   4.724  10.209 -0.6240  0.4070  0.1383
  246MOL0     C33103   4.760   4.776  10.280  0.1897  0.1189  0.5050
  246MOL0     C33104   4.889   4.697  10.281 -0.3561  0.2578  0.5608
  246MOL0     O33105   4.909   4.611  10.176  0.3956 -0.2558 -0.0159
  246MOL0     C33106   5.023   4.545  10.153 -0.1861  0.0492  0.0498
  246MOL0     C33107   5.013   4.443  10.061  0.4143  1.0997  0.3441
  246MOL0     C33108   5.119   4.356  10.023 -0.1003 -0.6345 -0.3385
  246MOL0     C33109   5.240   4.372  10.081 -0.0576  0.1412 -0.3132
  246MOL0     O33110   5.341   4.282  10.048 -0.3522 -0.0931  0.2293
  246MOL0     C33111   5.463   4.281  10.130 -0.5176  0.3344  0.7555
  246MOL0     C33112   5.545   4.154  10.115 -0.0992 -0.1700 -0.5077
  246MOL0     C33113   5.685   4.168  10.176 -0.2806 -0.0919  0.2732
  246MOL0     C33114   5.767   4.281  10.109  0.4207 -0.8341  0.4751
  246MOL0     C33115   5.920   4.249  10.082 -0.2292  0.1089 -0.7786
  246MOL0     C33116   5.999   4.250  10.213  0.4833  0.2523  1.2992
  246MOL0     C33117   6.147   4.200  10.185 -0.6166 -0.8423  0.1461
  246MOL0     C33118   6.162   4.060  10.218 -0.4967 -0.5016 -0.1663
  246MOL0    Cl33119   6.341   4.009  10.200  0.2854 -0.5546 -0.3194
  246MOL0     C33120   5.263   4.480  10.173 -0.2697 -0.7666 -0.3013
  246MOL0     C33121   5.148   4.559  10.211  0.3941 -0.4836  0.4369
  246MOL0     O33122   4.965   4.718  10.370 -0.4614 -1.0634  0.3310
  246MOL0     C33123   4.744   4.896  10.345  0.4172  0.2601 -0.0733
  246MOL0     C33124   4.619   4.957  10.360 -0.3974 -0.4452  0.5899
  246MOL0     N33125   4.100   5.171   9.851  0.3169  0.0144 -0.3740
  246MOL0     N33126   3.993   5.153   9.784 -0.5437  0.0898 -1.0869
  246MOL0     C33127   2.714   5.135   9.802 -0.0553 -0.4451  0.0254
  246MOL0     C33128   2.578   5.166   9.835  0.3041 -0.0453 -0.4958
  246MOL0     C33129   2.110   5.149   9.830  0.4586  0.0216  0.0838
  246MOL0     C33130   2.003   5.053   9.826 -0.2963 -0.1284  0.7946
  246MOL0     C33131   1.868   5.090   9.853 -0.4114  0.6635 -0.3426
  246MOL0     C33132   1.839   5.213   9.895  0.2431  0.4973 -0.7272
  246MOL0     O33133   1.707   5.253   9.918  0.1801  0.0226  0.0716
  246MOL0     C33134   1.609   5.155   9.945 -0.3117  0.6087  0.0223
  246MOL0     C33135   1.480   5.224   9.974 -0.6754  0.1586 -1.1208
  246MOL0     C33136   1.353   5.138   9.970 -0.5247 -0.7030 -0.2843
  246MOL0     C33137   1.333   5.050   9.839  0.2361 -0.2577 -0.4794
  246MOL0     C33138   1.201   4.987   9.849 -0.5221  0.4220  0.2513
  246MOL0     C33139   1.104   4.920   9.880 -0.3499 -0.1047  0.5439
  246MOL0     C33140   1.935   5.309   9.911  0.1710 -0.4202 -0.0127
  246MOL0     C33141   2.072   5.280   9.883 -0.6219  0.5255 -0.7348
  246MOL0     C33142   2.169   5.394   9.910  0.2593 -0.4188  0.6825
  246MOL0     H33143   2.431   5.144   9.533 -0.2894  0.9143 -0.9865
  246MOL0     H33144   2.675   5.107   9.471  1.4425 -0.6323  0.0737
  246MOL0     H33145   3.009   5.247   9.674 -1.0127 -0.1995 -1.0577
  246MOL0     H33146   2.980   5.121   9.800  1.2573 -1.7487 -0.1415
  246MOL0     H33147   3.135   5.086   9.544  0.5188 -1.6506  0.1593
  246MOL0     H33148   3.081   4.955   9.649  0.9833 -0.2997 -4.4307
  246MOL0     H33149   3.224   5.032   9.825 -1.8116 -0.3085 -0.7438
  246MOL0     H33150   3.226   5.196   9.756 -0.7989 -0.3863 -0.6452
  246MOL0     H33151   3.348   4.950   9.612  2.7658  0.3421 -1.1751
  246MOL0     H33152   3.397   5.119   9.586  1.7959 -0.0802  2.1507
  246MOL0     H33153   3.480   5.139   9.810  3.6830 -2.2971  2.2405
  246MOL0     H33154   3.439   4.975   9.849  0.6104  1.2287  1.0065
  246MOL0     H33155   3.586   4.886   9.686  0.4493  0.1869 -0.3968
  246MOL0     H33156   3.625   5.046   9.618 -1.3156 -1.5314 -1.5765
  246MOL0     H33157   3.801   4.952   9.759  2.1054  1.0575  1.2622
  246MOL0     H33158   3.687   4.957   9.897 -2.3062  2.2353  0.3952
  246MOL0     H33159   3.725   5.201   9.731 -1.3842 -2.4367 -1.0456
  246MOL0     H33160   3.682   5.205   9.893  1.9093  1.3212 -0.1578
  246MOL0     H33161   3.864   5.226  10.086  0.2549 -0.7342  0.8671
  246MOL0     H33162   4.267   5.192  10.053  0.5808  2.2788  1.7557
  246MOL0     H33163   4.170   5.314  10.136 -0.5864  0.1536  1.3913
  246MOL0     H33164   4.040   5.137  10.250 -1.1840  0.4228 -2.2072
  246MOL0     H33165   4.165   5.024  10.207  3.2469 -0.1778  3.7415
  246MOL0     H33166   4.182   5.143  10.427  1.3167  0.6093  0.5520
  246MOL0     H33167   4.242   5.284  10.364 -1.3904 -0.1815  0.5670
  246MOL0     H33168   4.433   5.137  10.400 -0.6017  1.9845 -0.7189
  246MOL0     H33169   4.423   5.139  10.228  1.7221 -2.2114  0.1147
  246MOL0     H33170   4.442   4.746  10.158  0.2411 -1.4177 -0.6694
  246MOL0     H33171   4.662   4.628  10.160  1.8134  0.4420  0.6529
  246MOL0     H33172   4.914   4.443  10.015  0.1712  0.6558  0.8502
  246MOL0     H33173   5.107   4.278   9.948 -1.5485 -0.0285 -0.7689
  246MOL0     H33174   5.531   4.356  10.090 -1.0206 -0.3156 -1.4710
  246MOL0     H33175   5.452   4.307  10.236 -1.6681 -1.2637  1.0871
  246MOL0     H33176   5.487   4.076  10.165 -0.8168  0.1225 -0.8543
  246MOL0     H33177   5.556   4.123  10.011 -0.2622 -0.0878 -0.5516
  246MOL0     H33178   5.686   4.180  10.285  1.7630 -4.9211  1.0334
  246MOL0     H33179   5.727   4.069  10.154 -1.0194 -0.0077 -1.7633
  246MOL0     H33180   5.737   4.378  10.149 -1.8890 -1.2160 -0.1945
  246MOL0     H33181   5.728   4.280  10.006 -0.9130  0.8454  0.9172
  246MOL0     H33182   5.969   4.312  10.008 -0.0340  0.6527 -0.1927
  246MOL0     H33183   5.924   4.147  10.041  0.8067 -0.2341  0.1299
  246MOL0     H33184   6.006   4.358  10.230 -0.2309  0.6284 -0.5200
  246MOL0     H33185   5.947   4.196  10.292 -1.7605 -0.5262 -0.6324
  246MOL0     H33186   6.222   4.248  10.249  1.0527  0.5499 -2.6612
  246MOL0     H33187   6.174   4.211  10.080 -5.9346 -0.1107 -1.4524
  246MOL0     H33188   6.146   4.040  10.324 -1.1135 -2.3166 -0.5632
  246MOL0     H33189   6.096   4.001  10.154 -0.9440  1.3477 -1.5124
  246MOL0     H33190   5.363   4.500  10.210 -0.9984 -1.0424  1.9712
  246MOL0     H33191   5.172   4.637  10.283  0.0193 -0.6425  0.7400
  246MOL0     H33192   4.832   4.936  10.394  1.2868 -2.3538  0.7056
  246MOL0     H33193   4.611   5.051  10.413 -3.4442  1.7957 -3.3003
  246MOL0     H33194   2.785   5.141   9.884  2.2585 -1.1630 -1.7928
  246MOL0     H33195   2.546   5.198   9.934  0.4572 -1.1171 -0.0883
  246MOL0     H33196   2.011   4.951   9.792  1.9792  1.1485 -3.1430
  246MOL0     H33197   1.797   5.009   9.837  1.2071 -0.6811 -1.1474
  246MOL0     H33198   1.631   5.083  10.025  0.5900 -0.1794 -0.9021
  246MOL0     H33199   1.588   5.100   9.852 -1.1086  0.0730  0.5022
  246MOL0     H33200   1.470   5.304   9.900 -0.8284  0.4234 -0.8151
  246MOL0     H33201   1.483   5.261  10.077  2.0653  1.3683 -1.5386
  246MOL0     H33202   1.269   5.207   9.983 -0.4072 -0.6511  0.2166
  246MOL0     H33203   1.370   5.078  10.059 -0.7437  1.6550  1.4344
  246MOL0     H33204   1.338   5.116   9.752  1.0361 -3.7061 -3.2625
  246MOL0     H33205   1.417   4.981   9.835  0.1872 -0.3939  0.6002
  246MOL0     H33206   1.018   4.861   9.903 -1.0261 -0.8139 -3.1315
  246MOL0     H33207   1.893   5.405   9.942 -1.9167 -1.1799 -0.3201
  246MOL0     H33208   2.230   5.429   9.826 -2.3424  2.8257 -0.0548
  246MOL0     H33209   2.122   5.484   9.952  2.8920  1.2537  0.2921
  246MOL0     H33210   2.234   5.355   9.989  1.1260 -0.1191  0.1350
  247MOL0     O33211   3.212   0.903   2.816  0.4079  0.0417 -0.0628
  247MOL0     C33212   3.096   0.923   2.847  0.4514 -1.2781  1.2715
  247MOL0     O33213   3.065   1.012   2.948  0.1992 -0.3303 -0.0328
  247MOL0     C33214   3.162   1.056   3.030 -0.8305 -0.9004 -0.2006
  247MOL0     C33215   3.161   1.033   3.172  0.3370  0.1859  0.4668
  247MOL0     C33216   3.250   1.095   3.256  0.0593 -0.5587  0.2379
  247MOL0     C33217   3.359   1.175   3.206  0.2861  0.5526  0.5618
  247MOL0     O33218   3.445   1.226   3.298 -0.0137 -0.2764  0.3531
  247MOL0     C33219   3.571   1.174   3.310 -0.1044  0.5456 -0.5455
  247MOL0     C33220   3.663   1.199   3.193 -0.1178  0.8765 -0.4512
  247MOL0     C33221   3.797   1.137   3.234  0.0072 -0.3193  0.0492
  247MOL0     C33222   3.899   1.177   3.127  0.1023 -0.1826  0.3331
  247MOL0     C33223   4.044   1.123   3.146  0.3145  1.1579 -0.4225
  247MOL0     C33224   4.125   1.114   3.023 -0.2777 -0.3683 -0.1553
  247MOL0     C33225   4.266   1.074   3.036 -0.0004 -0.7560 -0.7684
  247MOL0     C33226   4.337   1.067   2.904  0.0973 -0.4373 -0.8577
  247MOL0     N33227   4.479   1.056   2.933  0.0565 -0.4383 -0.3071
  247MOL0     C33228   4.551   0.958   2.999 -0.3248 -0.0499 -0.5818
  247MOL0     C33229   4.674   0.963   2.955  0.7796  1.1276  1.0819
  247MOL0     C33230   4.776   0.854   2.984  0.4227  0.6522  0.3176
  247MOL0     C33231   4.902   0.869   2.902  0.3804 -0.0865 -0.4288
  247MOL0     C33232   5.012   0.782   2.946 -1.0012 -0.6257  0.4095
  247MOL0     C33233   5.143   0.822   2.878  0.3594  0.6551  0.2318
  247MOL0     O33234   5.250   0.751   2.941  0.3921 -0.2408 -0.5397
  247MOL0     C33235   5.296   0.630   2.908  0.3709  0.5710 -0.4726
  247MOL0     C33236   5.255   0.555   2.795 -0.4747  0.0291  0.0002
  247MOL0     C33237   5.312   0.431   2.765 -0.0912  0.1966  0.6352
  247MOL0     C33238   5.405   0.379   2.848  0.1167 -0.6288  0.2595
  247MOL0     C33239   5.470   0.249   2.819  0.4954 -0.1043  0.1523
  247MOL0     O33240   5.582   0.214   2.894 -0.1739 -0.3977 -0.1893
  247MOL0     C33241   5.630   0.090   2.884 -0.1283  0.5199 -0.2573
  247MOL0     C33242   5.663   0.033   2.760 -1.1044 -0.7658 -0.3552
  247MOL0     C33243   5.705  -0.096   2.742  1.0222 -0.8054 -0.3671
  247MOL0     C33244   5.736  -0.170   2.857 -0.7144  0.1029 -0.2347
  247MOL0     O33245   5.782  -0.292   2.855 -0.3315  0.9864 -0.4181
  247MOL0     C33246   5.899  -0.325   2.787 -0.1616  0.3388  0.8663
  247MOL0     C33247   5.920  -0.473   2.805  0.1003  0.3345  0.4098
  247MOL0     C33248   6.057  -0.513   2.778 -0.7046 -0.1249 -0.0768
  247MOL0     C33249   6.080  -0.658   2.817  0.1732 -0.4846 -0.5617
  247MOL0     C33250   6.176  -0.674   2.935  0.9338 -1.0522 -0.0300
  247MOL0     C33251   6.123  -0.795   3.012  0.5289  0.1413  0.1862
  247MOL0     C33252   6.134  -0.935   2.941  0.2200 -0.5368 -0.1546
  247MOL0     C33253   6.006  -1.014   2.939  0.3734 -1.1214 -0.1176
  247MOL0    Cl33254   5.899  -0.945   2.823 -0.0995  0.4158  0.5460
  247MOL0     C33255   5.708  -0.116   2.988 -0.8685  0.4928 -0.1393
  247MOL0     C33256   5.658   0.014   2.999 -0.3517  0.4421 -0.0807
  247MOL0     O33257   5.418   0.180   2.729 -0.2996 -0.2828  0.1281
  247MOL0     C33258   5.452   0.454   2.957  0.4747  0.9720  1.5666
  247MOL0     C33259   5.384   0.569   2.997 -0.4483  0.4145 -1.1357
  247MOL0     N33260   4.686   1.073   2.875 -0.4028 -0.0405  0.2006
  247MOL0     N33261   4.573   1.134   2.867  0.2269  0.2288  0.3183
  247MOL0     C33262   3.357   1.199   3.073 -0.0364 -0.0296  0.4357
  247MOL0     C33263   3.267   1.144   2.991 -0.0718 -0.3691 -0.1138
  247MOL0     C33264   2.978   0.866   2.775  0.6519  0.4105  0.0687
  247MOL0     C33265   2.865   0.823   2.846  0.5533 -0.6495  0.1047
  247MOL0     C33266   2.752   0.771   2.791  0.5312 -0.0756  0.8599
  247MOL0     C33267   2.748   0.743   2.651 -0.3009 -0.2556 -0.2905
  247MOL0     O33268   2.635   0.694   2.588 -0.1488  0.0543  0.2943
  247MOL0     C33269   2.499   0.703   2.643 -0.0324  0.8131  0.6100
  247MOL0     C33270   2.461   0.569   2.698  1.0257  0.3390 -0.5195
  247MOL0     C33271   2.312   0.560   2.747 -0.1768 -0.6223  0.8563
  247MOL0     C33272   2.294   0.427   2.812  0.6939  1.0314 -0.5056
  247MOL0     C33273   2.152   0.420   2.845 -0.1901 -0.7025  0.1415
  247MOL0     C33274   2.041   0.406   2.885 -0.9039 -0.8934 -0.3357
  247MOL0     C33275   2.861   0.777   2.573  0.8401 -0.9345  0.8448
  247MOL0     C33276   2.971   0.845   2.635  0.3487  0.5777 -0.3674
  247MOL0     C33277   3.081   0.874   2.544 -0.1163  0.2945  0.1771
  247MOL0     H33278   3.076   0.977   3.207  0.0732  0.2286 -0.0967
  247MOL0     H33279   3.226   1.082   3.361 -0.2911  0.3811  0.2800
  247MOL0     H33280   3.620   1.217   3.398  0.4548  2.2208 -1.6269
  247MOL0     H33281   3.558   1.068   3.335 -2.6427  1.1174  0.8928
  247MOL0     H33282   3.671   1.304   3.163  1.4378  2.0336  3.4432
  247MOL0     H33283   3.631   1.133   3.111  4.4090 -0.1947 -1.6665
  247MOL0     H33284   3.783   1.029   3.242  1.8949 -0.6014 -0.0299
  247MOL0     H33285   3.832   1.180   3.328  0.4749 -1.7352  0.5486
  247MOL0     H33286   3.871   1.134   3.030  1.0966 -1.7985  0.7228
  247MOL0     H33287   3.909   1.285   3.113 -1.7219 -0.1352 -0.8995
  247MOL0     H33288   4.087   1.186   3.224  3.5008 -0.0377 -1.0639
  247MOL0     H33289   4.047   1.020   3.183 -0.4021  1.3966  0.3301
  247MOL0     H33290   4.072   1.049   2.953  1.7954 -1.1419 -1.0693
  247MOL0     H33291   4.115   1.213   2.976 -1.2936 -0.2006  0.3907
  247MOL0     H33292   4.272   0.977   3.087 -0.8032 -1.1099 -1.3353
  247MOL0     H33293   4.304   1.151   3.104 -0.3117 -2.0063  0.9042
  247MOL0     H33294   4.302   0.977   2.852 -0.1380 -0.6715 -0.2988
  247MOL0     H33295   4.317   1.156   2.844 -2.8173 -0.6918 -0.3829
  247MOL0     H33296   4.509   0.885   3.068  2.5233 -1.8144 -0.5540
  247MOL0     H33297   4.805   0.858   3.089 -0.9165  0.9184  0.6879
  247MOL0     H33298   4.731   0.758   2.959 -0.0782  1.2444 -1.2283
  247MOL0     H33299   4.867   0.835   2.804 -1.5337 -2.7414  1.0383
  247MOL0     H33300   4.931   0.974   2.911  0.9340 -0.4245  3.5171
  247MOL0     H33301   4.994   0.675   2.931  1.2986 -1.2606  1.6925
  247MOL0     H33302   5.025   0.789   3.055  1.0822  0.2922  0.1526
  247MOL0     H33303   5.158   0.928   2.898 -0.9898  0.5866  1.8609
  247MOL0     H33304   5.129   0.808   2.770 -1.9049  2.0467  0.2748
  247MOL0     H33305   5.173   0.605   2.744 -1.2922  0.9582  2.0610
  247MOL0     H33306   5.270   0.374   2.683 -0.6828 -1.6357  2.1708
  247MOL0     H33307   5.642   0.085   2.666  1.3590 -1.4396 -1.3652
  247MOL0     H33308   5.723  -0.132   2.640 -0.3569 -1.2447 -0.4807
  247MOL0     H33309   5.880  -0.305   2.681 -2.5134  0.4768  1.2630
  247MOL0     H33310   5.980  -0.275   2.841 -0.5221  0.3596  1.3923
  247MOL0     H33311   5.896  -0.492   2.910 -0.7912 -2.0247 -0.1789
  247MOL0     H33312   5.853  -0.529   2.741  1.1722  0.5515 -0.9438
  247MOL0     H33313   6.083  -0.510   2.672  2.4288  1.0779  0.6013
  247MOL0     H33314   6.124  -0.451   2.839  0.0712  1.7783 -2.6998
  247MOL0     H33315   6.133  -0.714   2.739  0.0658 -1.4058  0.0123
  247MOL0     H33316   5.981  -0.697   2.842 -0.6049  2.3294  1.2400
  247MOL0     H33317   6.172  -0.586   3.000 -0.1542 -2.3891  1.7873
  247MOL0     H33318   6.283  -0.674   2.909  1.4604 -1.5546  1.9772
  247MOL0     H33319   6.175  -0.799   3.108  0.1823 -1.4281  0.3337
  247MOL0     H33320   6.019  -0.778   3.041  0.4358 -0.0764 -0.0108
  247MOL0     H33321   6.196  -1.000   3.003 -0.9171 -1.4742  0.0328
  247MOL0     H33322   6.164  -0.928   2.836 -3.2025 -1.3557 -1.3172
  247MOL0     H33323   6.029  -1.119   2.914 -0.7078 -1.1238 -1.1756
  247MOL0     H33324   5.962  -1.010   3.039  0.5803 -4.0091  0.1967
  247MOL0     H33325   5.728  -0.176   3.076 -2.2698  0.1047 -0.0543
  247MOL0     H33326   5.634   0.046   3.100  1.4975 -4.0986  2.0793
  247MOL0     H33327   5.529   0.407   3.019  1.1180  0.3569  0.3394
  247MOL0     H33328   5.423   0.630   3.078  2.2135  0.5274 -2.3774
  247MOL0     H33329   3.435   1.264   3.036  0.4033 -1.6195 -1.6615
  247MOL0     H33330   3.276   1.175   2.887 -3.3598 -0.4162 -0.5239
  247MOL0     H33331   2.854   0.861   2.947 -2.0114  2.6392 -1.2251
  247MOL0     H33332   2.665   0.743   2.850  0.1316 -0.4853  0.0896
  247MOL0     H33333   2.434   0.731   2.560 -1.1406 -0.6161  0.9573
  247MOL0     H33334   2.493   0.769   2.729 -0.0069 -1.2173  2.2529
  247MOL0     H33335   2.526   0.543   2.782  0.5580  1.4712  0.2374
  247MOL0     H33336   2.482   0.501   2.616  2.3312 -0.8068  0.7246
  247MOL0     H33337   2.250   0.570   2.657  0.6825 -0.5142  0.2591
  247MOL0     H33338   2.290   0.636   2.822 -1.7979 -0.8703  0.6846
  247MOL0     H33339   2.339   0.347   2.752  3.6041  1.9623  0.2412
  247MOL0     H33340   2.341   0.408   2.909  1.0581 -4.0417 -1.3716
  247MOL0     H33341   1.939   0.400   2.919 -0.0436  1.1170  3.1502
  247MOL0     H33342   2.848   0.764   2.466 -1.7413  0.2113  0.9630
  247MOL0     H33343   3.076   0.983   2.540 -3.1286  0.2254 -0.7746
  247MOL0     H33344   3.180   0.836   2.571  0.7350  0.1234 -2.8303
  247MOL0     H33345   3.073   0.846   2.438 -4.2817  1.0618  0.1026
  248MOL0     O33346   4.680   8.254   9.374  0.4566 -0.8896  1.4826
  248MOL0     C33347   4.621   8.294   9.473  0.4414 -0.2782 -0.0177
  248MOL0     O33348   4.676   8.381   9.566  1.2175  0.0266  0.3060
  248MOL0     C33349   4.800   8.434   9.538  0.5373  0.4734 -0.8078
  248MOL0     C33350   4.818   8.572   9.533 -0.2206  0.8769 -0.2139
  248MOL0     C33351   4.946   8.633   9.514 -0.0659 -0.3885  0.0126
  248MOL0     C33352   5.056   8.558   9.502 -0.1292 -0.0947  0.7897
  248MOL0     O33353   5.183   8.609   9.478  0.4368  0.1312  0.1792
  248MOL0     C33354   5.190   8.742   9.430  0.0065 -0.6087 -0.1018
  248MOL0     C33355   5.298   8.762   9.325  0.0156  0.5146 -0.1948
  248MOL0     C33356   5.240   8.744   9.182 -0.5256  0.8510  0.3282
  248MOL0     C33357   5.213   8.599   9.137 -0.4534 -0.2418 -0.1580
  248MOL0     C33358   5.128   8.589   9.005  0.5140 -0.7852 -0.1398
  248MOL0     C33359   5.083   8.446   8.978  0.4704 -0.0074 -1.0146
  248MOL0     C33360   5.022   8.434   8.846 -0.1573 -0.1524  0.5572
  248MOL0     C33361   4.987   8.288   8.818  0.7811  1.1334  0.4308
  248MOL0     N33362   4.937   8.282   8.680  0.0329  0.2903 -0.0363
  248MOL0     C33363   4.850   8.372   8.620  0.1887 -0.0109  0.3547
  248MOL0     C33364   4.827   8.334   8.495 -0.7430  0.2870  1.1024
  248MOL0     C33365   4.750   8.421   8.397  0.5646 -0.4147  0.1443
  248MOL0     C33366   4.661   8.329   8.310 -0.8780 -0.3118  0.2345
  248MOL0     C33367   4.564   8.413   8.225  0.1855  0.0324  0.3816
  248MOL0     C33368   4.465   8.322   8.146  0.0876  1.0409 -0.2221
  248MOL0     O33369   4.356   8.290   8.233  0.3390 -0.0612  1.6308
  248MOL0     C33370   4.247   8.377   8.249 -0.6169  0.1711 -0.7624
  248MOL0     C33371   4.240   8.517   8.210 -0.3318  0.7986 -0.2614
  248MOL0     C33372   4.144   8.599   8.256  0.8251  0.0712 -0.2862
  248MOL0     C33373   4.047   8.554   8.350 -0.1474  0.7429 -0.4727
  248MOL0     C33374   3.951   8.646   8.414  0.5570  1.0173  0.0594
  248MOL0     O33375   3.871   8.595   8.517 -0.1836  0.3358 -0.0717
  248MOL0     C33376   3.782   8.690   8.578 -0.5702  0.2422  0.0110
  248MOL0     C33377   3.649   8.663   8.586  0.2832 -0.5149 -0.6160
  248MOL0     C33378   3.558   8.746   8.649  0.2421  0.0530  0.3625
  248MOL0     C33379   3.603   8.861   8.710  0.3990  0.7868 -0.2281
  248MOL0     O33380   3.528   8.952   8.779  0.0159 -0.1713 -0.0198
  248MOL0     C33381   3.391   8.927   8.809 -0.0539 -1.1655  0.3988
  248MOL0     C33382   3.307   8.990   8.694  0.7826 -0.5155 -0.0812
  248MOL0     C33383   3.159   8.992   8.734  1.1749  0.5270 -1.0702
  248MOL0     C33384   3.071   9.045   8.626 -0.0021  0.4878 -0.3453
  248MOL0     C33385   2.926   9.055   8.659 -0.4526  0.3016  0.4768
  248MOL0     C33386   2.887   9.167   8.754  0.2013  0.0612 -1.1620
  248MOL0     C33387   2.947   9.309   8.731  0.2199  0.2762  0.0335
  248MOL0     C33388   2.921   9.358   8.590  0.1875  0.6200  0.4002
  248MOL0    Cl33389   2.744   9.357   8.561 -0.5143  0.2108 -0.2829
  248MOL0     C33390   3.739   8.890   8.702 -0.0534  0.5826 -0.3393
  248MOL0     C33391   3.832   8.807   8.644  0.1234 -0.3106 -0.3790
  248MOL0     O33392   3.936   8.760   8.363 -0.6901  0.1838 -0.6010
  248MOL0     C33393   4.058   8.422   8.392 -0.8758  0.7922 -0.0952
  248MOL0     C33394   4.153   8.333   8.341  0.4366 -0.0893 -1.3187
  248MOL0     N33395   4.909   8.225   8.469  0.3912  0.1313  0.2653
  248MOL0     N33396   4.972   8.197   8.580  0.3474 -0.6217 -0.3523
  248MOL0     C33397   5.034   8.423   9.494 -0.5366 -0.7485  0.0149
  248MOL0     C33398   4.915   8.358   9.511 -0.0104  0.1031 -0.5083
  248MOL0     C33399   4.480   8.247   9.490  0.8904 -0.1605 -0.4028
  248MOL0     C33400   4.429   8.204   9.610 -1.4303  0.6180  0.0505
  248MOL0     C33401   4.298   8.175   9.633  0.2733 -0.6350  0.6354
  248MOL0     C33402   4.204   8.171   9.528  0.3683 -1.2038  0.6037
  248MOL0     O33403   4.066   8.144   9.539  0.0442 -0.1947  0.5989
  248MOL0     C33404   4.032   8.031   9.625  0.0087 -1.3508  0.4018
  248MOL0     C33405   3.982   7.909   9.538  0.9323 -0.4746 -0.6207
  248MOL0     C33406   4.071   7.866   9.426 -0.2415  0.8083 -0.1405
  248MOL0     C33407   4.034   7.729   9.359 -0.6517 -0.3506 -0.6104
  248MOL0     C33408   3.896   7.712   9.306 -0.8288  0.2815  0.4124
  248MOL0     C33409   3.785   7.691   9.264 -0.7762  0.7275  0.0273
  248MOL0     C33410   4.249   8.218   9.402  0.2634  0.2868 -0.4879
  248MOL0     C33411   4.381   8.254   9.385 -0.7975  0.3173  0.4203
  248MOL0     C33412   4.422   8.299   9.250 -0.3564 -0.6514 -0.0635
  248MOL0     H33413   4.737   8.638   9.561  0.5721  2.9873 -2.5576
  248MOL0     H33414   4.966   8.738   9.529  0.4922 -0.4054 -0.5465
  248MOL0     H33415   5.094   8.765   9.384 -1.1155  0.6645  2.7087
  248MOL0     H33416   5.206   8.809   9.515 -1.3116  0.2414 -0.4958
  248MOL0     H33417   5.374   8.684   9.343  0.4478  1.0653  0.3986
  248MOL0     H33418   5.338   8.862   9.341 -0.5779  0.8650 -0.8267
  248MOL0     H33419   5.315   8.785   9.113 -1.7757  0.7021 -1.1899
  248MOL0     H33420   5.152   8.808   9.169 -0.1103  1.0371 -2.1460
  248MOL0     H33421   5.303   8.538   9.138  0.2942  0.5620  4.3194
  248MOL0     H33422   5.144   8.557   9.211 -0.2453 -0.8727 -0.3221
  248MOL0     H33423   5.032   8.642   9.016 -0.0007 -1.9983  1.8774
  248MOL0     H33424   5.197   8.630   8.931 -0.3843  1.4798  0.1822
  248MOL0     H33425   5.172   8.381   8.982 -0.2295 -0.9433  2.0309
  248MOL0     H33426   5.026   8.410   9.064 -2.0816  1.5765 -1.9236
  248MOL0     H33427   5.087   8.469   8.765 -1.0960  2.4147  0.8224
  248MOL0     H33428   4.932   8.497   8.845  0.2272  0.4330  1.6545
  248MOL0     H33429   5.075   8.223   8.822  0.2332  0.1413 -2.1251
  248MOL0     H33430   4.907   8.263   8.888  1.7296 -0.1520  1.0945
  248MOL0     H33431   4.829   8.470   8.660 -0.4757 -1.0343  2.6190
  248MOL0     H33432   4.680   8.474   8.463  1.3733 -2.1940  2.5808
  248MOL0     H33433   4.819   8.487   8.343 -0.8344 -0.3000 -1.5919
  248MOL0     H33434   4.728   8.270   8.246  2.8296  0.6532  2.8351
  248MOL0     H33435   4.619   8.258   8.383  0.9870  0.2860  2.0050
  248MOL0     H33436   4.624   8.468   8.152 -1.8539 -0.7583 -2.0470
  248MOL0     H33437   4.506   8.483   8.285 -2.5145 -2.8056  1.3069
  248MOL0     H33438   4.511   8.234   8.101 -3.2066 -0.5957 -0.6692
  248MOL0     H33439   4.422   8.372   8.059 -1.5147  0.1385  0.0192
  248MOL0     H33440   4.304   8.567   8.137 -2.4076  1.1288 -1.9622
  248MOL0     H33441   4.142   8.702   8.220 -0.3984 -0.5723 -2.1904
  248MOL0     H33442   3.620   8.571   8.535  0.2818 -1.8130  1.5980
  248MOL0     H33443   3.452   8.723   8.657  0.4340 -1.3635 -0.7564
  248MOL0     H33444   3.358   8.823   8.820 -2.5754 -0.6200 -1.0792
  248MOL0     H33445   3.365   8.983   8.899 -1.5658  1.4425 -1.5210
  248MOL0     H33446   3.335   9.094   8.678 -1.8201  0.8073  2.7549
  248MOL0     H33447   3.321   8.931   8.604  0.8797  1.5453 -1.4725
  248MOL0     H33448   3.128   8.892   8.766  0.7082  1.1687  0.5492
  248MOL0     H33449   3.135   9.052   8.822 -0.7818  0.5173 -1.5415
  248MOL0     H33450   3.083   8.992   8.531  0.5855 -0.2503  0.1325
  248MOL0     H33451   3.096   9.150   8.609  0.2650  0.2674 -1.3753
  248MOL0     H33452   2.879   8.967   8.702  0.8577 -0.7772 -0.2262
  248MOL0     H33453   2.885   9.090   8.564  2.0247  1.2529 -0.3360
  248MOL0     H33454   2.779   9.181   8.750  0.0285 -1.3734 -3.2239
  248MOL0     H33455   2.900   9.125   8.854  1.7268 -1.0373 -1.7732
  248MOL0     H33456   3.052   9.323   8.757  0.7456 -2.5122 -0.3014
  248MOL0     H33457   2.900   9.378   8.802  1.9122  0.6736  0.8075
  248MOL0     H33458   2.959   9.461   8.598  1.6193  0.1708 -0.2477
  248MOL0     H33459   2.979   9.313   8.508  1.6154  2.1863  0.4877
  248MOL0     H33460   3.773   8.984   8.743  0.9998  0.4958 -0.9790
  248MOL0     H33461   3.938   8.832   8.645  0.8621 -3.0816  0.5786
  248MOL0     H33462   3.993   8.380   8.469 -0.8586 -1.6139 -1.3019
  248MOL0     H33463   4.168   8.235   8.384  0.9105  0.7580  0.5970
  248MOL0     H33464   5.126   8.368   9.477 -0.5611 -0.6310 -0.5227
  248MOL0     H33465   4.913   8.250   9.505 -1.0254 -0.0745  1.7989
  248MOL0     H33466   4.502   8.202   9.691 -1.2807 -0.5045 -0.0881
  248MOL0     H33467   4.271   8.155   9.736 -0.3812  0.7702  0.7659
  248MOL0     H33468   3.948   8.054   9.691 -0.3820 -0.3722 -0.4142
  248MOL0     H33469   4.119   7.991   9.677  1.5731 -1.4711 -2.1448
  248MOL0     H33470   3.890   7.939   9.487  0.5500 -0.4218  0.0873
  248MOL0     H33471   3.968   7.823   9.604  0.2832  0.7624  0.9116
  248MOL0     H33472   4.174   7.867   9.462 -0.2917 -1.9781  0.2797
  248MOL0     H33473   4.071   7.936   9.342  0.0350 -1.1465 -1.8384
  248MOL0     H33474   4.101   7.726   9.272  1.4877  0.3305  0.9511
  248MOL0     H33475   4.048   7.644   9.425 -0.8137  1.5852  2.0622
  248MOL0     H33476   3.683   7.668   9.241 -1.5540  1.8573  2.0729
  248MOL0     H33477   4.179   8.228   9.320  0.6485 -0.7395 -0.9481
  248MOL0     H33478   4.326   8.294   9.197 -1.2241 -2.1506  1.5416
  248MOL0     H33479   4.459   8.401   9.247 -1.1620 -0.3614 -0.5719
  248MOL0     H33480   4.480   8.218   9.204 -0.3488 -1.0351  0.6062
  249MOL0     O33481   3.373   9.900   1.433 -0.2431  0.1302  0.1302
  249MOL0     C33482   3.344   9.802   1.366  0.0243 -0.3114 -0.8355
  249MOL0     O33483   3.433   9.727   1.300 -0.6087 -0.1444  0.1744
  249MOL0     C33484   3.567   9.758   1.275 -0.2596 -0.0118  0.8488
  249MOL0     C33485   3.631   9.708   1.160 -0.8150 -1.4674  0.0204
  249MOL0     C33486   3.766   9.725   1.138 -0.8919  0.0196  0.4099
  249MOL0     C33487   3.851   9.803   1.219  0.6991  0.3984 -0.8425
  249MOL0     O33488   3.984   9.822   1.187  0.6598 -0.1215  0.0849
  249MOL0     C33489   4.066   9.892   1.278 -0.0314 -0.3938  0.2078
  249MOL0     C33490   4.207   9.900   1.224  0.3729  0.3204 -0.9495
  249MOL0     C33491   4.271   9.762   1.203 -0.3614 -0.7265  0.0616
  249MOL0     C33492   4.423   9.751   1.160 -0.8107 -0.4365  0.0439
  249MOL0     C33493   4.488   9.613   1.162  0.2104 -0.2204 -0.3091
  249MOL0     C33494   4.639   9.615   1.123  0.4272 -0.3071  0.0965
  249MOL0     C33495   4.696   9.476   1.084 -0.7215 -0.8950 -0.0113
  249MOL0     C33496   4.846   9.491   1.050  0.1132  0.1259 -0.3225
  249MOL0     N33497   4.921   9.358   1.056  0.2827 -0.4527 -0.1045
  249MOL0     C33498   4.900   9.246   0.973 -0.9245  0.3148 -0.3666
  249MOL0     C33499   5.005   9.165   1.002 -0.0509  0.9355 -0.7432
  249MOL0     C33500   5.040   9.034   0.935 -0.8134 -0.7122  0.1021
  249MOL0     C33501   4.957   8.912   0.981 -0.0037  0.6177  0.5711
  249MOL0     C33502   5.009   8.855   1.114  0.2243 -0.1630  0.1296
  249MOL0     C33503   4.939   8.729   1.153 -0.9544  0.8752 -0.0797
  249MOL0     O33504   4.922   8.630   1.052  0.2443  0.5687  0.6067
  249MOL0     C33505   5.016   8.535   1.010 -0.0374 -0.3957 -0.1444
  249MOL0     C33506   5.010   8.470   0.889 -0.1618  0.2813  0.1816
  249MOL0     C33507   5.100   8.381   0.847  0.9011  0.8608 -0.2541
  249MOL0     C33508   5.205   8.349   0.931 -0.2326  0.4694 -0.3047
  249MOL0     C33509   5.307   8.246   0.887  0.5215  0.3504 -0.5281
  249MOL0     O33510   5.392   8.200   0.991  0.0142 -0.1064 -0.4655
  249MOL0     C33511   5.492   8.107   0.953  0.4593 -1.3502 -1.5846
  249MOL0     C33512   5.458   7.974   0.914  0.5989 -0.5793 -0.8276
  249MOL0     C33513   5.557   7.889   0.878  0.1585 -0.0922 -0.2199
  249MOL0     C33514   5.695   7.932   0.878 -0.0928  0.3523  1.3138
  249MOL0     O33515   5.784   7.832   0.835  0.2486  0.5247  0.2803
  249MOL0     C33516   5.876   7.889   0.728 -0.1668 -0.8636 -0.0641
  249MOL0     C33517   6.004   7.807   0.717 -0.3351  0.3729 -1.2796
  249MOL0     C33518   6.078   7.815   0.588 -0.3339  0.3525  0.1353
  249MOL0     C33519   6.019   7.758   0.461 -0.0777 -0.2165  0.2815
  249MOL0     C33520   6.100   7.792   0.346  0.0966 -0.6193 -0.7377
  249MOL0     C33521   6.045   7.749   0.214 -0.0684 -0.6671 -0.6377
  249MOL0     C33522   6.053   7.596   0.193  0.6398 -0.4999 -0.5630
  249MOL0     C33523   5.987   7.554   0.062  0.5630  1.0246  0.9722
  249MOL0    Cl33524   5.977   7.378   0.031 -0.2504 -0.0590 -0.0691
  249MOL0     C33525   5.726   8.063   0.919  0.0526  0.3092 -1.0114
  249MOL0     C33526   5.630   8.145   0.965 -0.1227 -0.7299  0.7896
  249MOL0     O33527   5.313   8.215   0.768 -0.2194  0.5596  0.1122
  249MOL0     C33528   5.227   8.429   1.047  0.4946 -0.5818 -0.0544
  249MOL0     C33529   5.140   8.524   1.081  0.8955 -0.1135  0.2501
  249MOL0     N33530   5.080   9.229   1.104 -0.1971  0.0980  0.8353
  249MOL0     N33531   5.035   9.346   1.133  0.7198  0.2196 -0.0399
  249MOL0     C33532   3.787   9.854   1.328  0.3292  0.8229 -0.5343
  249MOL0     C33533   3.653   9.829   1.356  0.4608  0.3801 -0.8855
  249MOL0     C33534   3.205   9.740   1.371 -0.3672  0.0098 -0.2557
  249MOL0     C33535   3.104   9.815   1.432  0.4238  0.4396 -0.8167
  249MOL0     C33536   2.965   9.772   1.432 -0.6442  0.2284  0.3830
  249MOL0     C33537   2.931   9.648   1.361 -0.3404 -0.3731  0.4225
  249MOL0     O33538   2.803   9.593   1.347  0.0273  0.1553 -0.1331
  249MOL0     C33539   2.704   9.667   1.414 -0.4403 -0.2547 -0.2198
  249MOL0     C33540   2.573   9.587   1.399 -1.0002 -0.5653  0.6081
  249MOL0     C33541   2.567   9.436   1.424  0.1110 -0.0431 -0.0206
  249MOL0     C33542   2.427   9.377   1.435 -0.1855 -0.2790 -0.5465
  249MOL0     C33543   2.362   9.354   1.304 -0.1487 -0.5089  0.0638
  249MOL0     C33544   2.320   9.327   1.193  0.2737 -0.4154 -0.2191
  249MOL0     C33545   3.031   9.581   1.295  0.5304  0.6220 -0.3835
  249MOL0     C33546   3.165   9.620   1.307 -0.1064  0.7430 -0.7281
  249MOL0     C33547   3.259   9.519   1.229 -0.0986 -0.8415  0.4085
  249MOL0     H33548   3.573   9.648   1.091 -0.8220 -2.3701  0.7938
  249MOL0     H33549   3.809   9.682   1.048  1.6784 -1.8113  2.3364
  249MOL0     H33550   4.028   9.993   1.293  1.3392  0.1153  0.4106
  249MOL0     H33551   4.063   9.841   1.375  3.4516 -0.3740  0.4838
  249MOL0     H33552   4.264   9.954   1.300 -1.8862  2.2091 -0.4849
  249MOL0     H33553   4.206   9.947   1.125  1.0433  0.9392 -0.6675
  249MOL0     H33554   4.213   9.720   1.120  1.7577  1.9816 -3.0741
  249MOL0     H33555   4.246   9.689   1.281 -3.9435 -1.3905 -1.5061
  249MOL0     H33556   4.429   9.792   1.059  0.5500 -0.8602 -0.0640
  249MOL0     H33557   4.478   9.814   1.231 -0.7478 -0.4705  0.0249
  249MOL0     H33558   4.477   9.571   1.263  3.6590 -0.2556  0.1513
  249MOL0     H33559   4.426   9.551   1.095  0.5839  0.6441 -1.4808
  249MOL0     H33560   4.656   9.675   1.033  2.3994  0.4903  0.9472
  249MOL0     H33561   4.709   9.660   1.193 -0.6122  0.2371  0.8045
  249MOL0     H33562   4.634   9.437   1.002 -3.9725  0.4372  1.6046
  249MOL0     H33563   4.678   9.411   1.170 -1.3830  1.4167  1.7086
  249MOL0     H33564   4.856   9.534   0.949 -0.6157 -0.5614 -0.7031
  249MOL0     H33565   4.887   9.555   1.128 -4.9712  2.6602  0.7159
  249MOL0     H33566   4.824   9.226   0.898 -1.4305 -0.3142  0.3118
  249MOL0     H33567   5.022   9.048   0.828 -0.0111 -1.4835 -0.1483
  249MOL0     H33568   5.149   9.025   0.945 -0.4621  3.4750  2.1854
  249MOL0     H33569   4.853   8.943   0.991 -0.8363 -0.0113 -3.8651
  249MOL0     H33570   4.965   8.834   0.905 -1.1339  0.7804  0.2705
  249MOL0     H33571   4.986   8.923   1.196  2.1255  2.4117 -1.3100
  249MOL0     H33572   5.117   8.838   1.111  0.4146 -0.1147  3.4059
  249MOL0     H33573   4.842   8.767   1.186 -1.3286  1.7998 -2.1159
  249MOL0     H33574   4.991   8.685   1.240  2.2031  0.1417 -2.1559
  249MOL0     H33575   4.924   8.490   0.826  0.4123  0.5806 -0.5238
  249MOL0     H33576   5.082   8.328   0.754 -2.5684  2.5827 -0.6946
  249MOL0     H33577   5.355   7.942   0.921  0.6653 -0.5601  0.4988
  249MOL0     H33578   5.524   7.789   0.851  0.4272  0.0333 -1.0371
  249MOL0     H33579   5.827   7.896   0.630 -0.9561  0.9332  0.4141
  249MOL0     H33580   5.905   7.992   0.751 -1.7600  0.2842 -2.6765
  249MOL0     H33581   6.075   7.828   0.797  0.3528  0.4274 -1.8978
  249MOL0     H33582   5.977   7.703   0.737 -2.4216  1.1150  0.1010
  249MOL0     H33583   6.093   7.923   0.577  1.5124  0.2988  1.5590
  249MOL0     H33584   6.176   7.766   0.600  0.4061  1.9697  1.0286
  249MOL0     H33585   5.915   7.788   0.447  0.0707  0.0704 -0.2259
  249MOL0     H33586   6.022   7.649   0.469  1.6388 -0.1313  1.2936
  249MOL0     H33587   6.203   7.762   0.371  0.0329  0.2080  0.6550
  249MOL0     H33588   6.110   7.901   0.337 -0.6300 -0.7086 -3.2298
  249MOL0     H33589   5.940   7.774   0.197 -1.3496 -3.9096  1.4840
  249MOL0     H33590   6.104   7.795   0.134 -0.3861 -0.0448 -0.5177
  249MOL0     H33591   6.007   7.546   0.280  1.1649  1.7530  1.1124
  249MOL0     H33592   6.160   7.574   0.190  0.1458 -3.2398 -0.6266
  249MOL0     H33593   5.880   7.572   0.070 -0.0397 -0.6400 -1.8580
  249MOL0     H33594   6.025   7.599  -0.030 -1.8553  1.6042  0.1860
  249MOL0     H33595   5.828   8.097   0.934 -0.1403  0.6748 -0.4958
  249MOL0     H33596   5.650   8.248   0.992  2.4430 -0.6022 -1.2501
  249MOL0     H33597   5.323   8.408   1.092  1.0247 -1.0773 -1.3812
  249MOL0     H33598   5.161   8.586   1.168 -0.3195  2.1783 -0.9918
  249MOL0     H33599   3.843   9.918   1.396  2.0861 -1.2480  0.0708
  249MOL0     H33600   3.601   9.886   1.432 -2.9328  0.7311 -3.2362
  249MOL0     H33601   3.118   9.903   1.493 -4.2105  0.9348 -0.0981
  249MOL0     H33602   2.896   9.830   1.492 -2.2863  1.6406 -2.6332
  249MOL0     H33603   2.691   9.763   1.364  0.4126 -0.1053 -0.1633
  249MOL0     H33604   2.725   9.685   1.520 -0.7449 -0.1853 -0.1696
  249MOL0     H33605   2.562   9.592   1.290 -0.5698 -1.5212  0.5081
  249MOL0     H33606   2.492   9.647   1.441 -1.7329  1.7497 -3.5867
  249MOL0     H33607   2.618   9.418   1.519 -2.0395  1.8913  1.6069
  249MOL0     H33608   2.624   9.393   1.342 -0.0993  0.1683 -0.2803
  249MOL0     H33609   2.432   9.282   1.489 -1.9449  0.6771  1.4604
  249MOL0     H33610   2.367   9.443   1.499  0.7391 -0.5923  0.6909
  249MOL0     H33611   2.302   9.304   1.090 -2.4956 -1.7106  0.4502
  249MOL0     H33612   3.001   9.496   1.234  0.7819 -0.0305  0.3865
  249MOL0     H33613   3.318   9.472   1.308 -0.8613 -0.8613  0.9804
  249MOL0     H33614   3.197   9.445   1.178 -2.0093 -0.5488  2.1991
  249MOL0     H33615   3.333   9.563   1.161  0.3182 -0.8826  0.8284
  250MOL0     O33616   5.562   7.593   2.174  0.2182  0.3320  0.3037
  250MOL0     C33617   5.619   7.556   2.070 -0.2415  0.4634 -0.5011
  250MOL0     O33618   5.565   7.504   1.958 -0.1828 -0.1818  0.2614
  250MOL0     C33619   5.429   7.472   1.949  0.0661 -0.7690  0.1724
  250MOL0     C33620   5.374   7.480   1.819 -0.5082 -0.0215 -0.5146
  250MOL0     C33621   5.236   7.454   1.806  0.0381  0.1104 -0.0964
  250MOL0     C33622   5.156   7.414   1.910  0.1754 -0.6295  0.6179
  250MOL0     O33623   5.020   7.389   1.889  0.0925  0.4982  0.1779
  250MOL0     C33624   4.920   7.436   1.988  0.0810  1.0038 -0.1944
  250MOL0     C33625   4.801   7.455   1.904  0.1031 -0.9652  0.2823
  250MOL0     C33626   4.696   7.534   1.980  0.3745  0.7599 -0.1280
  250MOL0     C33627   4.738   7.656   2.053 -1.1642 -0.4208  0.4311
  250MOL0     C33628   4.624   7.762   2.059  0.1221  0.0585  0.0534
  250MOL0     C33629   4.503   7.740   2.156  1.0263 -0.7112  0.0784
  250MOL0     C33630   4.531   7.800   2.294 -0.2010 -0.2170 -0.2857
  250MOL0     C33631   4.408   7.775   2.389 -0.4503  0.2151 -0.0453
  250MOL0     N33632   4.433   7.808   2.531 -0.2749 -0.3438  0.0213
  250MOL0     C33633   4.434   7.942   2.575 -0.2775 -0.7381  0.1197
  250MOL0     C33634   4.470   7.925   2.707  0.4463  1.3378  0.4895
  250MOL0     C33635   4.477   8.041   2.795 -0.2389 -0.5121 -0.0780
  250MOL0     C33636   4.609   8.121   2.775  0.3017 -0.2998 -0.1465
  250MOL0     C33637   4.732   8.028   2.815  0.4825 -0.4676 -0.3777
  250MOL0     C33638   4.862   8.111   2.830  0.6059  1.2418  0.1284
  250MOL0     O33639   4.873   8.199   2.712 -0.6090  0.3825  0.2889
  250MOL0     C33640   4.985   8.197   2.627 -0.0024 -0.7531  0.2154
  250MOL0     C33641   4.977   8.284   2.509 -0.6714 -0.0456 -0.7134
  250MOL0     C33642   5.088   8.292   2.425 -0.5831 -0.1466  0.1481
  250MOL0     C33643   5.203   8.217   2.446  0.2005  0.3462 -0.4842
  250MOL0     C33644   5.325   8.225   2.350  0.4370 -0.6469 -0.9384
  250MOL0     O33645   5.427   8.139   2.366 -1.0506 -0.3318  0.1087
  250MOL0     C33646   5.538   8.129   2.281 -0.0821 -0.0703 -0.1773
  250MOL0     C33647   5.605   8.232   2.213  0.6625 -0.6005  0.6672
  250MOL0     C33648   5.713   8.205   2.120  0.3605 -0.7457 -0.3027
  250MOL0     C33649   5.763   8.078   2.107 -0.6045  0.1839  0.3341
  250MOL0     O33650   5.859   8.074   2.012  0.1345 -0.2722 -0.0233
  250MOL0     C33651   5.938   7.953   2.002  0.2623 -0.8753 -0.3071
  250MOL0     C33652   6.044   7.958   1.888  0.2418  0.9927 -0.3975
  250MOL0     C33653   6.143   8.067   1.929  1.1558  0.2450  0.4843
  250MOL0     C33654   6.272   8.039   1.848 -0.2377 -0.7643 -0.4088
  250MOL0     C33655   6.376   8.150   1.892  0.3765 -0.2775 -0.0682
  250MOL0     C33656   6.512   8.147   1.815  0.2736  0.3882 -0.4448
  250MOL0     C33657   6.615   8.263   1.864  0.3212  0.4426  0.2496
  250MOL0     C33658   6.552   8.402   1.855 -0.8946  0.3321 -0.0645
  250MOL0    Cl33659   6.444   8.453   1.709 -0.1982 -0.4017  0.1199
  250MOL0     C33660   5.714   7.977   2.199  0.9838  0.7102  1.0031
  250MOL0     C33661   5.600   8.000   2.275  0.4297 -0.0222 -0.0847
  250MOL0     O33662   5.315   8.305   2.263  0.4378  0.1875 -0.4642
  250MOL0     C33663   5.215   8.147   2.565 -0.5943  0.0124 -0.2670
  250MOL0     C33664   5.108   8.132   2.647  0.4094 -0.6438 -0.3680
  250MOL0     N33665   4.501   7.791   2.734 -0.3654  0.7364  0.5954
  250MOL0     N33666   4.488   7.731   2.622  0.0651  0.1800 -0.5373
  250MOL0     C33667   5.216   7.394   2.030 -0.1741  0.0997  1.0501
  250MOL0     C33668   5.347   7.423   2.056  0.5659 -0.2033  0.0530
  250MOL0     C33669   5.768   7.568   2.061  0.7747 -0.6819 -0.0454
  250MOL0     C33670   5.831   7.591   1.936 -0.3166  0.7040 -0.1390
  250MOL0     C33671   5.971   7.603   1.927  0.0504 -0.5450  0.0409
  250MOL0     C33672   6.047   7.615   2.043  0.0783 -0.3946 -0.0245
  250MOL0     O33673   6.179   7.667   2.022  0.5117  0.5924 -0.4696
  250MOL0     C33674   6.283   7.650   2.125  0.5862 -0.1253  0.0249
  250MOL0     C33675   6.343   7.514   2.112 -0.1143  0.1398 -0.3423
  250MOL0     C33676   6.362   7.466   1.972 -0.1201  0.0312  0.6984
  250MOL0     C33677   6.455   7.346   1.946 -0.6790 -0.4276 -0.6139
  250MOL0     C33678   6.586   7.374   1.994  0.0396 -0.4196  0.4755
  250MOL0     C33679   6.690   7.414   2.021  0.3274  1.0996  0.6280
  250MOL0     C33680   5.989   7.606   2.167 -0.5800 -0.0963 -0.3930
  250MOL0     C33681   5.849   7.585   2.177  0.9806  0.7167 -0.2910
  250MOL0     C33682   5.789   7.564   2.309  0.8794  0.3436 -0.2116
  250MOL0     H33683   5.440   7.507   1.738  1.6489 -1.9503  0.4855
  250MOL0     H33684   5.204   7.475   1.704  0.2050 -0.3989 -0.2537
  250MOL0     H33685   4.908   7.359   2.065 -0.1877  1.3984  0.1650
  250MOL0     H33686   4.952   7.523   2.047  1.2193 -0.3886  1.3423
  250MOL0     H33687   4.753   7.361   1.873 -1.6465 -0.2882  0.7861
  250MOL0     H33688   4.831   7.505   1.811  2.5867  0.4990  1.7718
  250MOL0     H33689   4.645   7.464   2.046 -0.6679  1.1563 -0.4865
  250MOL0     H33690   4.627   7.565   1.901 -0.4700  0.7867  0.6096
  250MOL0     H33691   4.767   7.625   2.154  1.4573 -0.8937 -0.4009
  250MOL0     H33692   4.822   7.699   1.997 -1.6367 -1.4486 -1.1250
  250MOL0     H33693   4.660   7.861   2.090 -2.7037  1.9812 -2.2694
  250MOL0     H33694   4.584   7.762   1.957 -0.6232 -2.2646  0.2967
  250MOL0     H33695   4.423   7.795   2.106  0.1578 -2.8644 -1.0003
  250MOL0     H33696   4.483   7.633   2.156  0.9145 -0.6893 -0.0849
  250MOL0     H33697   4.551   7.907   2.282  1.4642 -0.6128 -1.1666
  250MOL0     H33698   4.616   7.742   2.332 -2.0969 -1.9423  1.6388
  250MOL0     H33699   4.323   7.833   2.351 -0.0263  0.2240 -0.9973
  250MOL0     H33700   4.383   7.669   2.377  3.0981 -0.6733 -0.7310
  250MOL0     H33701   4.407   8.027   2.513 -2.1701 -0.9222  0.6504
  250MOL0     H33702   4.390   8.106   2.780 -1.1067 -1.4034  0.9616
  250MOL0     H33703   4.478   8.022   2.902  2.8094 -1.9175 -0.2474
  250MOL0     H33704   4.615   8.162   2.673 -0.7914  1.1334  0.3455
  250MOL0     H33705   4.611   8.205   2.845 -1.2465 -1.7502  1.7455
  250MOL0     H33706   4.763   7.957   2.738  3.2236  0.9935 -0.7549
  250MOL0     H33707   4.714   7.972   2.907  1.3735 -0.8414 -0.4283
  250MOL0     H33708   4.953   8.051   2.840 -0.0602  0.3169  0.9029
  250MOL0     H33709   4.860   8.161   2.928 -0.5938 -2.0583  1.9484
  250MOL0     H33710   4.888   8.346   2.499 -1.4754 -1.3157 -1.9003
  250MOL0     H33711   5.080   8.356   2.339 -0.9455 -0.8786 -0.3736
  250MOL0     H33712   5.573   8.335   2.224  3.5705  0.2488  2.0680
  250MOL0     H33713   5.761   8.282   2.061  0.3799  0.2683  1.0007
  250MOL0     H33714   5.981   7.926   2.099  3.6170  1.5868 -0.9099
  250MOL0     H33715   5.862   7.877   1.980 -1.4953  1.1130 -1.3901
  250MOL0     H33716   6.091   7.860   1.874 -0.9656  0.2017  0.8541
  250MOL0     H33717   6.003   7.987   1.790 -1.8710 -0.8361 -0.1379
  250MOL0     H33718   6.102   8.166   1.907  0.4595 -0.2415 -0.5166
  250MOL0     H33719   6.151   8.067   2.038  0.0871  2.0965  0.6108
  250MOL0     H33720   6.256   8.041   1.739  0.8172 -0.8128 -0.5786
  250MOL0     H33721   6.299   7.942   1.890 -2.3679 -1.5768 -0.8215
  250MOL0     H33722   6.391   8.143   2.000  2.5334  1.1181 -0.2178
  250MOL0     H33723   6.332   8.247   1.868 -0.1578 -0.5027 -0.0133
  250MOL0     H33724   6.567   8.055   1.835 -0.3540 -0.3809 -2.1697
  250MOL0     H33725   6.495   8.132   1.708 -1.9058 -2.1315  0.1475
  250MOL0     H33726   6.705   8.257   1.802 -0.6145 -0.3111 -1.1155
  250MOL0     H33727   6.658   8.245   1.962  1.8184 -4.5233 -1.0580
  250MOL0     H33728   6.492   8.410   1.947 -0.6847  0.4065  0.0674
  250MOL0     H33729   6.638   8.469   1.865 -1.4931  0.8045  3.0383
  250MOL0     H33730   5.769   7.884   2.207  3.2641  1.8716 -0.2507
  250MOL0     H33731   5.561   7.916   2.331  0.2518  0.5194  0.6142
  250MOL0     H33732   5.313   8.115   2.597 -0.5856 -2.4266 -2.4407
  250MOL0     H33733   5.115   8.066   2.733 -0.3625  0.4820  0.5925
  250MOL0     H33734   5.149   7.359   2.109  0.7988  2.4053  3.0188
  250MOL0     H33735   5.370   7.421   2.162 -0.8435 -1.3427  0.3732
  250MOL0     H33736   5.768   7.593   1.847 -2.4289  2.1691  1.2714
  250MOL0     H33737   6.021   7.618   1.832 -2.1521  2.7047 -0.8070
  250MOL0     H33738   6.259   7.682   2.227  0.3253  1.2981 -0.4616
  250MOL0     H33739   6.366   7.720   2.108  1.3194 -0.3358  2.2916
  250MOL0     H33740   6.280   7.432   2.149  0.1823 -0.3131 -0.8189
  250MOL0     H33741   6.438   7.514   2.168 -0.1724 -1.7663 -0.1724
  250MOL0     H33742   6.390   7.556   1.916 -2.1982 -0.5105 -1.3867
  250MOL0     H33743   6.269   7.432   1.925  0.6462  1.5102 -2.1203
  250MOL0     H33744   6.419   7.260   2.004  1.1637 -0.3851  0.6807
  250MOL0     H33745   6.454   7.309   1.843 -0.2734  0.2811 -0.8790
  250MOL0     H33746   6.785   7.450   2.054  1.5150  0.6098 -2.0196
  250MOL0     H33747   6.059   7.605   2.250  2.1882  1.6204 -2.5263
  250MOL0     H33748   5.720   7.641   2.347 -1.5841 -3.0924  3.0694
  250MOL0     H33749   5.723   7.477   2.310  1.3709 -0.0342  0.3868
  250MOL0     H33750   5.872   7.555   2.380 -0.3001  1.3259  1.3755
  251MOL0     O33751  11.302   5.323   6.541  0.5655 -0.1967  0.2003
  251MOL0     C33752  11.288   5.240   6.628  0.6554  0.8034 -0.2987
  251MOL0     O33753  11.281   5.264   6.761 -0.5759 -0.1451  0.3512
  251MOL0     C33754  11.359   5.372   6.799 -0.3380  0.4801  0.2953
  251MOL0     C33755  11.312   5.501   6.787 -0.6526  0.1035  0.5744
  251MOL0     C33756  11.381   5.612   6.837  0.3136 -0.0175 -0.1278
  251MOL0     C33757  11.509   5.588   6.905  0.3044  0.0785 -0.3710
  251MOL0     O33758  11.586   5.696   6.955 -0.4975 -0.0140 -0.1012
  251MOL0     C33759  11.570   5.824   6.893  0.5898 -0.5884 -0.2290
  251MOL0     C33760  11.658   5.934   6.955 -0.0807  0.2146  0.2487
  251MOL0     C33761  11.804   5.908   6.928  0.2866  0.5244  0.4275
  251MOL0     C33762  11.878   6.038   6.932 -0.7441 -0.5354  0.6633
  251MOL0     C33763  12.030   6.026   6.954 -0.1609 -0.7209 -0.4615
  251MOL0     C33764  12.104   6.153   6.938 -0.6588  0.0663  0.1851
  251MOL0     C33765  12.233   6.140   7.028  1.0705  0.0242 -0.4429
  251MOL0     C33766  12.349   6.215   6.971  0.5213  0.4556  0.4190
  251MOL0     N33767  12.455   6.242   7.064 -0.7343  0.3346 -0.4316
  251MOL0     C33768  12.462   6.349   7.154 -0.0628  0.0889 -0.1232
  251MOL0     C33769  12.589   6.345   7.199  0.4896  0.2478  0.4555
  251MOL0     C33770  12.644   6.451   7.281 -0.2864  0.5904  0.2897
  251MOL0     C33771  12.775   6.509   7.217 -0.7809 -0.1319  0.9191
  251MOL0     C33772  12.827   6.638   7.293  0.1030  0.0098  0.2514
  251MOL0     C33773  12.957   6.702   7.237 -0.5458 -0.5095  0.7506
  251MOL0     O33774  13.004   6.817   7.318 -0.2146 -0.6769 -0.3200
  251MOL0     C33775  13.122   6.808   7.391 -0.0705 -0.6724  0.1145
  251MOL0     C33776  13.238   6.746   7.341 -0.2475  0.0095  0.8827
  251MOL0     C33777  13.364   6.746   7.410 -1.0342  0.0181  0.9338
  251MOL0     C33778  13.370   6.804   7.534 -0.8919  0.3287  0.0477
  251MOL0     C33779  13.501   6.805   7.617  0.7728  0.7677  0.5104
  251MOL0     O33780  13.503   6.862   7.734 -0.1755 -0.1913 -0.3740
  251MOL0     C33781  13.598   6.821   7.822 -0.2176  0.4667  1.3783
  251MOL0     C33782  13.739   6.850   7.797 -0.3797  0.8397 -0.5126
  251MOL0     C33783  13.828   6.799   7.896  0.4171 -0.0341  1.0027
  251MOL0     C33784  13.790   6.731   8.008  1.4014  0.3093  0.7230
  251MOL0     O33785  13.894   6.663   8.074 -0.7623  0.6879 -0.5161
  251MOL0     C33786  13.859   6.567   8.181  0.8765  0.2131  0.6347
  251MOL0     C33787  13.982   6.504   8.243  0.1303 -1.2348 -0.2197
  251MOL0     C33788  13.965   6.379   8.334  0.1446  0.1854 -0.0533
  251MOL0     C33789  14.099   6.362   8.398  0.1267  0.4781 -0.2820
  251MOL0     C33790  14.097   6.233   8.496  0.3209  0.0413  0.1744
  251MOL0     C33791  14.224   6.212   8.577  0.6829  0.5783  0.1732
  251MOL0     C33792  14.252   6.316   8.682  0.1909 -0.3233  0.1073
  251MOL0     C33793  14.401   6.351   8.702  0.0702  0.6234 -0.0765
  251MOL0    Cl33794  14.416   6.463   8.837  0.1465  0.0197 -0.0881
  251MOL0     C33795  13.654   6.722   8.034 -0.0363  0.0485  0.1519
  251MOL0     C33796  13.559   6.769   7.948 -0.8332 -0.1361  0.3018
  251MOL0     O33797  13.597   6.752   7.563  0.4618 -0.3460 -0.4407
  251MOL0     C33798  13.255   6.870   7.580 -0.3046 -0.0053  0.6402
  251MOL0     C33799  13.131   6.876   7.511  0.3758 -0.5075 -0.4959
  251MOL0     N33800  12.651   6.229   7.153  0.3618  0.2666  0.6372
  251MOL0     N33801  12.570   6.179   7.065  0.0342  0.6329 -0.4750
  251MOL0     C33802  11.554   5.460   6.917 -0.7354 -0.3301  0.1826
  251MOL0     C33803  11.486   5.352   6.866  0.0802 -0.3616  0.4049
  251MOL0     C33804  11.223   5.111   6.585  0.1408  0.5954 -0.5157
  251MOL0     C33805  11.149   5.047   6.687  0.7855  0.0984  0.8698
  251MOL0     C33806  11.077   4.924   6.657 -0.5808 -0.8001 -0.4874
  251MOL0     C33807  11.074   4.871   6.529 -0.0730  0.5960 -0.5252
  251MOL0     O33808  11.005   4.752   6.513 -0.0614 -0.6634  0.9062
  251MOL0     C33809  11.014   4.682   6.384  0.1957 -0.1329  0.6830
  251MOL0     C33810  10.924   4.559   6.381 -0.2865  0.1563 -1.3159
  251MOL0     C33811  10.947   4.466   6.509  0.0210  0.0156 -0.3704
  251MOL0     C33812  10.858   4.342   6.503 -0.1045 -0.4734  0.4576
  251MOL0     C33813  10.713   4.364   6.525  0.4088 -0.3096 -0.2448
  251MOL0     C33814  10.593   4.373   6.546 -0.1827 -0.1099  0.0964
  251MOL0     C33815  11.144   4.932   6.430 -0.1339 -0.1287 -0.8201
  251MOL0     C33816  11.220   5.049   6.457  0.2143 -0.2984  0.2097
  251MOL0     C33817  11.303   5.109   6.346  1.0145  1.0792  0.1808
  251MOL0     H33818  11.218   5.516   6.734  0.4453 -1.4169 -1.9552
  251MOL0     H33819  11.344   5.713   6.824 -1.0204 -0.7089 -2.0691
  251MOL0     H33820  11.578   5.819   6.784 -1.2227 -0.1046 -0.4245
  251MOL0     H33821  11.467   5.848   6.920  0.8512 -0.1768  0.4262
  251MOL0     H33822  11.636   5.922   7.061 -2.0881 -0.6933 -0.2305
  251MOL0     H33823  11.631   6.034   6.921  2.1015  1.4076  1.7629
  251MOL0     H33824  11.803   5.865   6.827 -0.4127  5.7019 -2.1116
  251MOL0     H33825  11.844   5.837   7.001 -0.7503  0.1390  0.6538
  251MOL0     H33826  11.849   6.088   6.840 -0.4204  2.2277  1.9621
  251MOL0     H33827  11.834   6.092   7.017 -0.0650  0.8976  0.1288
  251MOL0     H33828  12.024   6.001   7.060 -1.7313  0.7556 -0.1577
  251MOL0     H33829  12.070   5.949   6.888  1.0942 -0.0136 -0.5447
  251MOL0     H33830  12.133   6.179   6.836 -1.3843  0.4735  0.0766
  251MOL0     H33831  12.059   6.247   6.972  1.5248  1.9535 -1.8378
  251MOL0     H33832  12.262   6.037   7.048  1.7343  0.5786  1.8028
  251MOL0     H33833  12.211   6.194   7.121  3.5916 -0.5461  0.5673
  251MOL0     H33834  12.384   6.154   6.887 -2.0750  0.0762 -0.4747
  251MOL0     H33835  12.317   6.307   6.921 -1.6378  0.2249  1.2846
  251MOL0     H33836  12.383   6.419   7.181  1.4352  0.8311  2.6632
  251MOL0     H33837  12.581   6.540   7.292 -4.6657 -2.1629 -0.5081
  251MOL0     H33838  12.667   6.407   7.379  2.2859  0.8258 -0.1290
  251MOL0     H33839  12.852   6.432   7.203  1.5245  2.3092 -0.5674
  251MOL0     H33840  12.754   6.549   7.118 -2.0787  1.9440  1.9716
  251MOL0     H33841  12.864   6.614   7.393  2.4274  0.6742 -0.3688
  251MOL0     H33842  12.752   6.718   7.288 -0.8615 -0.9444 -1.9734
  251MOL0     H33843  12.929   6.737   7.138  0.8727 -2.0483 -0.2422
  251MOL0     H33844  13.031   6.622   7.226 -1.6631 -1.4014 -0.6155
  251MOL0     H33845  13.247   6.701   7.243 -0.3203  3.1454 -0.6974
  251MOL0     H33846  13.447   6.699   7.358 -1.1881  0.1945  0.5271
  251MOL0     H33847  13.777   6.894   7.705 -1.1047  1.6012 -0.4547
  251MOL0     H33848  13.933   6.813   7.874 -0.2390  1.8648 -1.3528
  251MOL0     H33849  13.795   6.606   8.260  1.2352  1.5222  0.3081
  251MOL0     H33850  13.803   6.482   8.140  0.0474  0.3772  1.3946
  251MOL0     H33851  14.049   6.471   8.164  2.5349  0.7665  0.8463
  251MOL0     H33852  14.034   6.577   8.307 -0.5731 -0.4953 -0.4710
  251MOL0     H33853  13.889   6.404   8.408  0.3282 -0.3765  0.3314
  251MOL0     H33854  13.935   6.290   8.278 -0.4686  1.7020 -2.2724
  251MOL0     H33855  14.116   6.456   8.451 -1.5390 -0.1544  1.4818
  251MOL0     H33856  14.181   6.351   8.326 -0.2172  0.3653 -0.6547
  251MOL0     H33857  14.086   6.145   8.432  2.9330 -0.4170  0.2102
  251MOL0     H33858  14.012   6.244   8.563  0.7673 -1.0878  0.9539
  251MOL0     H33859  14.227   6.114   8.625 -0.9533  0.7418  0.6760
  251MOL0     H33860  14.307   6.215   8.506  1.8019 -0.9646  1.3404
  251MOL0     H33861  14.217   6.275   8.778 -0.7324  1.7959  0.7345
  251MOL0     H33862  14.198   6.408   8.660 -1.5977 -1.0611  1.1247
  251MOL0     H33863  14.465   6.264   8.720 -1.7295 -1.1010 -1.5945
  251MOL0     H33864  14.436   6.411   8.617  0.4400  2.1313  1.0948
  251MOL0     H33865  13.616   6.667   8.119 -0.1709  0.8965  0.6510
  251MOL0     H33866  13.454   6.751   7.969 -0.6871 -0.2207  0.9955
  251MOL0     H33867  13.258   6.923   7.675  0.5404  1.4304 -0.1545
  251MOL0     H33868  13.046   6.914   7.566  1.5100 -0.8381  1.5664
  251MOL0     H33869  11.648   5.451   6.969 -0.4309 -0.2807 -0.3461
  251MOL0     H33870  11.527   5.259   6.903  0.0079  0.4855  2.8490
  251MOL0     H33871  11.137   5.067   6.793  1.4885 -1.5829  1.3029
  251MOL0     H33872  11.024   4.870   6.735 -0.9696  0.4726  0.1522
  251MOL0     H33873  11.116   4.649   6.364  0.5598  0.7468  1.0357
  251MOL0     H33874  10.980   4.755   6.310  0.1304 -3.3271 -2.7227
  251MOL0     H33875  10.945   4.496   6.294  3.0630 -1.4002  0.4111
  251MOL0     H33876  10.819   4.588   6.380  0.0786  1.8117  1.0076
  251MOL0     H33877  10.923   4.524   6.598 -0.9519 -3.2229  1.6629
  251MOL0     H33878  11.049   4.428   6.520 -0.1888 -0.9438 -1.5351
  251MOL0     H33879  10.870   4.290   6.408  0.0572  0.6902 -0.1815
  251MOL0     H33880  10.900   4.285   6.586  0.9341 -0.1852  0.1523
  251MOL0     H33881  10.489   4.379   6.572 -0.0171  1.6145  0.5229
  251MOL0     H33882  11.141   4.887   6.332 -3.1601 -1.8052 -0.0799
  251MOL0     H33883  11.408   5.124   6.370  1.0621  1.5499 -0.2860
  251MOL0     H33884  11.300   5.032   6.269 -0.8861 -1.5815  2.7116
  251MOL0     H33885  11.265   5.205   6.309 -0.4100  0.9066  1.1330
  252MOL0     O33886   3.073   5.030   6.082  0.4226  0.0112  1.0849
  252MOL0     C33887   3.008   5.055   6.183  0.1872 -0.1954  0.3028
  252MOL0     O33888   3.039   5.040   6.309  0.0969  0.9638  0.0414
  252MOL0     C33889   3.169   5.001   6.330 -0.3395  0.0710 -0.4321
  252MOL0     C33890   3.269   5.093   6.323 -0.8553  0.7034 -0.2172
  252MOL0     C33891   3.396   5.053   6.352  0.0386 -0.1949 -0.2649
  252MOL0     C33892   3.437   4.921   6.393 -0.6267 -0.7709 -0.0690
  252MOL0     O33893   3.569   4.887   6.410  0.1522 -0.0590  0.6108
  252MOL0     C33894   3.661   4.995   6.417 -0.5851  0.8542  0.0772
  252MOL0     C33895   3.793   4.946   6.474 -0.0204 -0.2011 -1.0805
  252MOL0     C33896   3.851   4.835   6.395 -0.6335 -0.0876  0.8401
  252MOL0     C33897   4.008   4.826   6.424  0.0279 -0.6910  0.3754
  252MOL0     C33898   4.067   4.693   6.367 -0.1649  0.5663  0.4438
  252MOL0     C33899   4.198   4.666   6.427  0.0305  0.6433 -0.6135
  252MOL0     C33900   4.312   4.758   6.385  0.8331  0.3549 -0.4162
  252MOL0     C33901   4.453   4.721   6.439 -0.5676  0.1263  0.0501
  252MOL0     N33902   4.510   4.591   6.396 -0.2057 -1.2177 -0.3548
  252MOL0     C33903   4.497   4.563   6.266  0.1785 -0.2459 -0.7477
  252MOL0     C33904   4.557   4.442   6.251  0.4542 -0.3579 -0.2546
  252MOL0     C33905   4.574   4.372   6.124 -0.4491  0.0305  0.6948
  252MOL0     C33906   4.698   4.417   6.040 -0.0888  0.0311 -0.5029
  252MOL0     C33907   4.824   4.416   6.130  0.5463  0.1772  1.0594
  252MOL0     C33908   4.958   4.428   6.040 -0.5743  0.0846  0.4711
  252MOL0     O33909   5.070   4.462   6.125 -0.5801  0.4729  0.7320
  252MOL0     C33910   5.193   4.474   6.071  0.4256  0.3354  0.2000
  252MOL0     C33911   5.225   4.475   5.932 -0.0609  1.0881 -0.4073
  252MOL0     C33912   5.350   4.472   5.890 -0.0500  0.0339 -0.3010
  252MOL0     C33913   5.455   4.486   5.978 -0.2477 -0.3288 -0.6540
  252MOL0     C33914   5.594   4.493   5.928  0.6824  0.0545 -1.3664
  252MOL0     O33915   5.688   4.531   6.019  0.3068 -0.3913  0.4220
  252MOL0     C33916   5.821   4.524   5.980  0.2281  0.0613  0.5307
  252MOL0     C33917   5.887   4.400   5.945  1.0936 -0.8383 -1.4216
  252MOL0     C33918   6.022   4.400   5.909 -0.0963 -0.2279  0.6150
  252MOL0     C33919   6.101   4.513   5.907  0.4620  0.2885  0.2896
  252MOL0     O33920   6.232   4.512   5.856  0.5301  0.1365 -1.1024
  252MOL0     C33921   6.341   4.540   5.953  0.1438 -1.2970 -0.0050
  252MOL0     C33922   6.450   4.605   5.871  0.5186  0.6698  0.4853
  252MOL0     C33923   6.523   4.512   5.771 -0.7703  0.3754 -0.8520
  252MOL0     C33924   6.645   4.591   5.709  0.0644 -0.8293 -0.0309
  252MOL0     C33925   6.706   4.511   5.600 -0.6407  0.1563 -0.1488
  252MOL0     C33926   6.833   4.575   5.539 -1.0536  0.2276  0.2201
  252MOL0     C33927   6.903   4.469   5.450  0.3718  0.0859 -0.2288
  252MOL0     C33928   6.817   4.421   5.332 -0.2277 -0.7137  0.4602
  252MOL0    Cl33929   6.900   4.296   5.237  0.0896 -0.1547 -0.1019
  252MOL0     C33930   6.037   4.633   5.936 -0.4509  0.5099  0.8681
  252MOL0     C33931   5.897   4.643   5.972  0.4147  0.5048  0.6980
  252MOL0     O33932   5.620   4.473   5.812 -0.2319  0.3810 -0.1125
  252MOL0     C33933   5.432   4.493   6.110 -0.4620  0.5912  0.5576
  252MOL0     C33934   5.300   4.489   6.155 -1.3047  0.1604  0.1563
  252MOL0     N33935   4.596   4.400   6.375  0.0486 -0.3813 -0.3907
  252MOL0     N33936   4.555   4.485   6.469 -0.6692 -0.2170 -0.5278
  252MOL0     C33937   3.338   4.823   6.400  0.3161  0.4184 -0.0662
  252MOL0     C33938   3.208   4.867   6.364  0.6031 -0.1743 -0.5361
  252MOL0     C33939   2.879   5.122   6.167  0.2461  0.1372  0.5857
  252MOL0     C33940   2.879   5.230   6.075  0.1615  0.0211 -0.4388
  252MOL0     C33941   2.755   5.283   6.033  0.3041 -0.5059 -0.4969
  252MOL0     C33942   2.630   5.240   6.091 -0.2752 -0.6388 -0.5716
  252MOL0     O33943   2.517   5.300   6.050  0.1044  0.3405  0.5235
  252MOL0     C33944   2.389   5.253   6.098 -0.5695  0.0805 -0.3273
  252MOL0     C33945   2.282   5.323   6.024 -0.0461 -0.0220 -0.8683
  252MOL0     C33946   2.149   5.254   6.044 -0.5473 -0.4494 -0.3648
  252MOL0     C33947   2.043   5.327   5.966  0.6645 -0.1015 -0.7408
  252MOL0     C33948   1.901   5.284   5.993 -0.8661 -0.2816  0.1911
  252MOL0     C33949   1.783   5.271   6.000 -0.5236  0.1069 -0.3879
  252MOL0     C33950   2.638   5.137   6.188 -0.2338 -0.4690 -0.3732
  252MOL0     C33951   2.758   5.075   6.225 -0.0939  0.2818 -0.1471
  252MOL0     C33952   2.746   4.974   6.336 -0.3912 -0.0791 -0.5892
  252MOL0     H33953   3.250   5.196   6.293 -1.3192  0.4370 -0.8742
  252MOL0     H33954   3.462   5.136   6.326  0.2381 -0.2281  0.1369
  252MOL0     H33955   3.668   5.044   6.319 -2.1151  0.8942 -0.0507
  252MOL0     H33956   3.611   5.065   6.485  1.1966  0.9305  1.3541
  252MOL0     H33957   3.784   4.924   6.580  1.3208  0.0359 -0.8938
  252MOL0     H33958   3.869   5.025   6.473  1.5847 -1.5508  1.9240
  252MOL0     H33959   3.842   4.859   6.288  2.1533 -0.4339  0.4409
  252MOL0     H33960   3.809   4.737   6.419 -1.0251 -1.4167 -4.1167
  252MOL0     H33961   4.059   4.916   6.390 -0.9717 -0.6838 -1.2258
  252MOL0     H33962   4.022   4.817   6.532 -1.3808 -2.8697  0.4404
  252MOL0     H33963   3.997   4.609   6.378 -2.6072  1.8870 -3.0893
  252MOL0     H33964   4.082   4.714   6.261  2.8629 -0.7840  0.4975
  252MOL0     H33965   4.184   4.659   6.535 -0.4774 -1.5303 -0.7858
  252MOL0     H33966   4.230   4.562   6.420 -1.3013 -0.0597  2.1781
  252MOL0     H33967   4.297   4.861   6.418  1.4256 -0.3941  2.4695
  252MOL0     H33968   4.321   4.754   6.276  4.3624  2.2958 -0.3293
  252MOL0     H33969   4.521   4.799   6.404  1.1177 -2.7021 -3.6265
  252MOL0     H33970   4.447   4.733   6.548 -1.5221  0.3056 -0.0144
  252MOL0     H33971   4.453   4.634   6.196 -1.3816  0.0200  0.4491
  252MOL0     H33972   4.580   4.267   6.154 -2.1670 -0.1103  0.6612
  252MOL0     H33973   4.497   4.391   6.049  0.7507 -2.3505 -1.2650
  252MOL0     H33974   4.718   4.353   5.954  3.5655 -0.0870  0.2698
  252MOL0     H33975   4.663   4.517   6.013  0.4027  0.8769  1.7469
  252MOL0     H33976   4.837   4.329   6.194  1.6633  0.9876  1.9485
  252MOL0     H33977   4.832   4.504   6.193  2.2305  1.3724 -0.7225
  252MOL0     H33978   4.947   4.498   5.957  0.9379  0.4343  0.5378
  252MOL0     H33979   4.967   4.325   6.005  0.8388 -0.1742  1.5075
  252MOL0     H33980   5.150   4.460   5.855  0.6338  2.4833 -1.3926
  252MOL0     H33981   5.363   4.455   5.784  1.3307  1.7657 -0.4532
  252MOL0     H33982   5.827   4.310   5.948  1.0919 -0.9266 -3.2069
  252MOL0     H33983   6.086   4.316   5.882  0.1174 -1.0550  3.3776
  252MOL0     H33984   6.300   4.601   6.034 -2.0424 -1.0632 -1.2158
  252MOL0     H33985   6.369   4.447   6.005  1.8404  1.5391  4.9081
  252MOL0     H33986   6.417   4.687   5.807  1.0853 -0.0640 -0.7903
  252MOL0     H33987   6.530   4.641   5.937  1.4921 -1.8110  0.7638
  252MOL0     H33988   6.546   4.409   5.800 -1.6788 -0.5748 -3.2601
  252MOL0     H33989   6.460   4.498   5.682 -0.6497 -3.0674 -0.5209
  252MOL0     H33990   6.722   4.606   5.786 -0.4843  1.6901  0.0912
  252MOL0     H33991   6.618   4.688   5.667 -0.0144 -1.2774 -1.0472
  252MOL0     H33992   6.624   4.495   5.529  1.0242  0.6347 -2.2401
  252MOL0     H33993   6.734   4.410   5.631  0.7525  0.3081 -0.8848
  252MOL0     H33994   6.805   4.666   5.485  1.0812  1.0106  0.3555
  252MOL0     H33995   6.911   4.596   5.612 -2.2695  0.6947  1.4406
  252MOL0     H33996   6.930   4.381   5.510 -1.1988  1.3495  2.5090
  252MOL0     H33997   6.995   4.511   5.408  0.2667  0.2950 -0.2492
  252MOL0     H33998   6.727   4.372   5.370 -2.0958  0.4848 -2.0713
  252MOL0     H33999   6.786   4.512   5.280  1.6563  0.5685  1.4512
  252MOL0     H34000   6.101   4.719   5.918  1.0971 -0.5695  1.1011
  252MOL0     H34001   5.842   4.735   5.989  1.0171  0.5745  2.4946
  252MOL0     H34002   5.502   4.512   6.191 -3.6885  1.8632  3.2870
  252MOL0     H34003   5.282   4.497   6.262 -0.3458  2.5613  0.2013
  252MOL0     H34004   3.364   4.724   6.437  1.2320  0.4355 -0.6191
  252MOL0     H34005   3.128   4.793   6.366 -1.9224  2.3583 -1.4859
  252MOL0     H34006   2.973   5.265   6.033  0.1779 -1.3001 -1.5589
  252MOL0     H34007   2.761   5.363   5.959  1.6268  0.1653  0.3122
  252MOL0     H34008   2.363   5.271   6.203 -2.3306  2.4047 -1.0665
  252MOL0     H34009   2.373   5.146   6.078  0.4553 -0.4941  1.6530
  252MOL0     H34010   2.306   5.325   5.917  2.3183  2.4268 -0.3968
  252MOL0     H34011   2.272   5.426   6.056  2.6281  0.1600 -0.3714
  252MOL0     H34012   2.121   5.243   6.150 -3.5412  1.5406 -0.8342
  252MOL0     H34013   2.154   5.151   6.008 -1.1793 -0.4152 -0.5695
  252MOL0     H34014   2.045   5.433   5.994  1.9892 -0.1250 -0.6796
  252MOL0     H34015   2.054   5.339   5.858  0.9306  0.4531 -0.6552
  252MOL0     H34016   1.678   5.253   6.012 -0.4066  0.2645  1.1499
  252MOL0     H34017   2.544   5.110   6.235  1.2563  0.5661  3.5758
  252MOL0     H34018   2.658   4.909   6.334 -1.3389  1.1128  0.5631
  252MOL0     H34019   2.827   4.900   6.337  1.1548  1.4569 -2.6256
  252MOL0     H34020   2.748   5.022   6.434 -1.5542 -2.7093  0.8368
  253MOL0     O34021   5.323   6.350   6.769 -0.7275 -0.4801 -0.0560
  253MOL0     C34022   5.281   6.304   6.672  0.8499  0.8046  0.1390
  253MOL0     O34023   5.284   6.166   6.646  0.1743 -0.1413 -0.2044
  253MOL0     C34024   5.383   6.103   6.720 -0.4008 -0.2980  0.6553
  253MOL0     C34025   5.364   6.086   6.856  0.6494  1.2205 -0.7863
  253MOL0     C34026   5.452   6.007   6.934 -0.1636 -0.0854  1.0816
  253MOL0     C34027   5.567   5.951   6.869 -0.3311 -0.2630 -0.4227
  253MOL0     O34028   5.658   5.869   6.932  0.1590 -0.5622 -0.1837
  253MOL0     C34029   5.601   5.781   7.033 -0.3278 -0.1897 -0.5334
  253MOL0     C34030   5.700   5.677   7.079  0.1427  0.4699 -0.1843
  253MOL0     C34031   5.804   5.727   7.184  0.1145 -0.4767  0.5068
  253MOL0     C34032   5.892   5.616   7.233  1.1353  0.3113 -0.2715
  253MOL0     C34033   6.015   5.664   7.302  0.2102  1.0620  0.0905
  253MOL0     C34034   5.996   5.745   7.437 -0.7649  0.5158 -0.3312
  253MOL0     C34035   5.901   5.682   7.532 -0.2861  0.5527  0.8840
  253MOL0     C34036   5.875   5.752   7.664  0.1262  0.1650 -0.4259
  253MOL0     N34037   5.949   5.715   7.791 -0.7668 -0.8186 -0.3121
  253MOL0     C34038   5.923   5.617   7.880 -0.5937 -0.3643 -0.7070
  253MOL0     C34039   6.039   5.586   7.943  0.3440  0.3581 -0.4346
  253MOL0     C34040   6.067   5.472   8.036 -0.8087 -0.3045 -0.7016
  253MOL0     C34041   6.194   5.403   7.980  0.2681 -0.0237 -0.2586
  253MOL0     C34042   6.235   5.273   8.054  0.2541 -0.4958 -0.3312
  253MOL0     C34043   6.361   5.275   8.145 -0.0313 -0.0512  0.3197
  253MOL0     O34044   6.475   5.312   8.062  0.8050  0.2289 -0.0809
  253MOL0     C34045   6.601   5.280   8.104 -0.7693  1.0719 -0.2631
  253MOL0     C34046   6.628   5.255   8.243  0.3210  0.0462 -0.1297
  253MOL0     C34047   6.756   5.238   8.275 -0.0142 -0.1493  0.3100
  253MOL0     C34048   6.861   5.235   8.178 -0.8160 -0.7615  0.1981
  253MOL0     C34049   7.003   5.218   8.228  0.1274 -0.2132 -0.1695
  253MOL0     O34050   7.089   5.169   8.144  0.2879 -0.4238  0.2920
  253MOL0     C34051   7.210   5.150   8.208  0.4071 -0.9776 -0.0998
  253MOL0     C34052   7.251   5.031   8.272  0.4269 -0.0126 -0.4134
  253MOL0     C34053   7.382   5.017   8.328 -0.7426  0.1217 -0.0459
  253MOL0     C34054   7.474   5.119   8.314  0.5079 -0.0331  0.4090
  253MOL0     O34055   7.600   5.103   8.360  1.2169  0.3330  0.2096
  253MOL0     C34056   7.710   5.198   8.329 -0.1056 -0.1280  0.1366
  253MOL0     C34057   7.835   5.171   8.407 -0.0523 -0.3740 -0.2335
  253MOL0     C34058   7.952   5.263   8.366  0.0240  0.9500 -0.8092
  253MOL0     C34059   8.095   5.210   8.414 -0.6871 -0.4526 -0.4267
  253MOL0     C34060   8.151   5.120   8.314  0.1090  0.4232 -0.2526
  253MOL0     C34061   8.294   5.074   8.343 -0.6413  0.8358 -0.7127
  253MOL0     C34062   8.319   4.942   8.273 -0.1628  0.2030  0.7850
  253MOL0     C34063   8.466   4.927   8.240  0.1591  0.4766  0.3021
  253MOL0    Cl34064   8.525   5.073   8.156 -0.2001  0.0341 -0.0498
  253MOL0     C34065   7.439   5.230   8.244  0.0817  0.1905 -0.1196
  253MOL0     C34066   7.306   5.247   8.193 -0.5145 -0.2581  0.3141
  253MOL0     O34067   7.030   5.237   8.350  1.1806  0.2305  0.0106
  253MOL0     C34068   6.833   5.273   8.048 -0.5026  0.9186  0.0854
  253MOL0     C34069   6.707   5.281   8.006  0.4309 -0.1694 -1.1149
  253MOL0     N34070   6.129   5.686   7.908  0.0740 -0.5389  0.0144
  253MOL0     N34071   6.076   5.758   7.813 -0.3682  0.8530 -0.5541
  253MOL0     C34072   5.582   5.969   6.729  0.1180 -0.3239 -0.1580
  253MOL0     C34073   5.487   6.037   6.651 -0.5201  0.2515 -0.2400
  253MOL0     C34074   5.218   6.399   6.580 -0.2839 -0.3991  1.0661
  253MOL0     C34075   5.181   6.525   6.628  0.1155  0.4888 -0.4403
  253MOL0     C34076   5.113   6.616   6.556 -0.8214  0.6144  0.0765
  253MOL0     C34077   5.066   6.582   6.429  0.4759 -0.4924  0.5151
  253MOL0     O34078   5.002   6.678   6.355  0.8762 -0.5152 -0.0767
  253MOL0     C34079   4.903   6.762   6.420  0.1912  0.4565  0.2046
  253MOL0     C34080   4.964   6.902   6.458 -0.0361 -0.1220  0.7100
  253MOL0     C34081   4.889   6.949   6.585  0.1846 -0.5951 -0.0113
  253MOL0     C34082   4.899   7.111   6.616 -0.2335 -0.4601  0.4357
  253MOL0     C34083   4.837   7.175   6.500  0.3740 -0.9984  0.2534
  253MOL0     C34084   4.785   7.249   6.415  0.1070 -0.7530 -0.1457
  253MOL0     C34085   5.091   6.451   6.375  0.2827 -0.1622  0.2632
  253MOL0     C34086   5.164   6.365   6.450 -0.5131  0.0774  0.9506
  253MOL0     C34087   5.192   6.223   6.389 -0.8311 -0.4245  0.5739
  253MOL0     H34088   5.286   6.138   6.911  1.2729  1.1575  0.2006
  253MOL0     H34089   5.435   5.991   7.040  3.2152  0.1581  1.7811
  253MOL0     H34090   5.573   5.838   7.122  0.5275  0.4216 -0.6415
  253MOL0     H34091   5.509   5.738   6.991  0.4952  0.0224 -2.6960
  253MOL0     H34092   5.756   5.633   6.995  2.4643  0.8729  1.0748
  253MOL0     H34093   5.637   5.602   7.128 -1.1267  0.7261 -1.3451
  253MOL0     H34094   5.748   5.756   7.273  1.4658  2.4095  0.5371
  253MOL0     H34095   5.864   5.810   7.144  1.5483 -1.1031  1.3083
  253MOL0     H34096   5.824   5.560   7.297 -0.3627 -0.7114 -2.6333
  253MOL0     H34097   5.925   5.549   7.153  0.0398 -0.0015 -0.4796
  253MOL0     H34098   6.064   5.573   7.337 -3.7668 -0.5873  2.0757
  253MOL0     H34099   6.089   5.707   7.234 -0.5864  0.1446 -1.4141
  253MOL0     H34100   6.092   5.767   7.487 -1.1186 -1.0421  1.1372
  253MOL0     H34101   5.948   5.840   7.416 -1.2265 -0.3305 -3.5167
  253MOL0     H34102   5.937   5.581   7.551 -0.0854  0.1416 -1.4646
  253MOL0     H34103   5.802   5.668   7.488  0.4619  1.4365 -1.1857
  253MOL0     H34104   5.889   5.859   7.645  1.6439  0.6619  2.8552
  253MOL0     H34105   5.768   5.740   7.682  0.1178 -1.8071 -1.4679
  253MOL0     H34106   5.829   5.561   7.884 -2.4287  2.3111 -2.7527
  253MOL0     H34107   6.091   5.509   8.137  0.6989 -0.9226 -0.8084
  253MOL0     H34108   5.977   5.411   8.039 -2.1476  1.6089  1.1714
  253MOL0     H34109   6.178   5.377   7.875 -0.3201  1.3591 -0.5373
  253MOL0     H34110   6.279   5.473   7.981  0.6172 -0.4424  0.2017
  253MOL0     H34111   6.247   5.201   7.973 -0.2266  0.6273 -1.4209
  253MOL0     H34112   6.155   5.220   8.107  0.3216 -2.1737 -1.8079
  253MOL0     H34113   6.368   5.171   8.179 -2.2265 -0.7504 -1.1268
  253MOL0     H34114   6.355   5.339   8.233  4.0050  1.6258 -0.4307
  253MOL0     H34115   6.545   5.269   8.312 -0.5826 -0.6570 -1.0256
  253MOL0     H34116   6.785   5.218   8.378 -0.1157  0.3790  0.4451
  253MOL0     H34117   7.187   4.946   8.292 -1.7221  1.6074 -0.0535
  253MOL0     H34118   7.413   4.926   8.378  0.7513 -0.0327 -1.1753
  253MOL0     H34119   7.733   5.212   8.224  1.3580  2.1141  0.6840
  253MOL0     H34120   7.683   5.299   8.362  1.1337 -0.3184  1.8605
  253MOL0     H34121   7.804   5.176   8.512 -1.7080  0.5758 -0.7470
  253MOL0     H34122   7.859   5.065   8.391  0.9553 -0.6903  2.6943
  253MOL0     H34123   7.954   5.271   8.257 -3.0599  0.8915 -0.9421
  253MOL0     H34124   7.947   5.362   8.411  2.7550 -0.0308  2.0057
  253MOL0     H34125   8.088   5.170   8.515  2.5298 -0.0275  0.0571
  253MOL0     H34126   8.163   5.296   8.413  0.0657 -1.0362 -1.0883
  253MOL0     H34127   8.168   5.182   8.226  2.9940  0.1162 -0.0330
  253MOL0     H34128   8.083   5.036   8.300  0.2325  0.2681  0.0541
  253MOL0     H34129   8.366   5.154   8.319 -1.8122  2.2010  0.1806
  253MOL0     H34130   8.293   5.059   8.451 -0.4300  1.0871 -0.6746
  253MOL0     H34131   8.255   4.945   8.184  2.0731  0.3752 -0.8881
  253MOL0     H34132   8.305   4.854   8.336  1.3149 -0.7015 -0.0987
  253MOL0     H34133   8.513   4.909   8.337 -0.0253  2.3540  0.7794
  253MOL0     H34134   8.476   4.843   8.171  0.7423  2.5003 -2.2535
  253MOL0     H34135   7.513   5.309   8.233  0.7905 -0.6562 -1.7868
  253MOL0     H34136   7.283   5.334   8.132  1.6568  2.3278  2.9132
  253MOL0     H34137   6.910   5.272   7.971  1.0046  0.8300  1.5311
  253MOL0     H34138   6.691   5.299   7.900  0.5530 -1.6005 -1.4044
  253MOL0     H34139   5.666   5.921   6.679 -0.3168  0.3032 -1.5294
  253MOL0     H34140   5.513   6.047   6.546 -0.9982 -0.5700 -0.4441
  253MOL0     H34141   5.195   6.554   6.732  2.5716 -0.4142 -0.4651
  253MOL0     H34142   5.105   6.720   6.584 -0.9250  1.4275 -2.7096
  253MOL0     H34143   4.870   6.699   6.503 -1.1806 -0.1434 -0.7659
  253MOL0     H34144   4.819   6.772   6.352  0.1370  2.6505  0.5128
  253MOL0     H34145   4.937   6.966   6.373 -1.5594 -1.3110  0.2482
  253MOL0     H34146   5.071   6.884   6.459 -0.2798 -2.0851 -1.2567
  253MOL0     H34147   4.924   6.902   6.677  1.3917 -0.3895 -0.3521
  253MOL0     H34148   4.785   6.916   6.584  0.1942 -0.7700  2.1804
  253MOL0     H34149   4.841   7.129   6.707  1.9775 -0.5706  1.9579
  253MOL0     H34150   5.001   7.141   6.641 -0.5214  0.2249  0.7895
  253MOL0     H34151   4.736   7.315   6.346  0.3810  0.0265  0.3961
  253MOL0     H34152   5.062   6.431   6.272 -2.5572  1.5597  0.6357
  253MOL0     H34153   5.298   6.206   6.372 -0.4790  2.0807 -0.1492
  253MOL0     H34154   5.158   6.144   6.457 -0.0773  0.1655  1.6586
  253MOL0     H34155   5.137   6.213   6.295  0.0354  2.3085 -0.3332
  254MOL0     O34156   2.689   3.633   9.775  0.1384 -0.2282 -0.8576
  254MOL0     C34157   2.711   3.543   9.855 -0.5133  0.5783 -0.4177
  254MOL0     O34158   2.835   3.493   9.872  0.2256 -0.1875 -0.3703
  254MOL0     C34159   2.943   3.520   9.790 -0.7266 -0.1372 -0.1065
  254MOL0     C34160   3.002   3.643   9.781 -0.3495  0.2224  0.1165
  254MOL0     C34161   3.113   3.668   9.697 -0.1307  0.6210 -0.3617
  254MOL0     C34162   3.179   3.570   9.627 -0.1978  0.5625  0.2299
  254MOL0     O34163   3.296   3.593   9.554 -0.4173 -0.5482 -1.1069
  254MOL0     C34164   3.344   3.481   9.484  0.0085  0.0091 -0.3461
  254MOL0     C34165   3.441   3.530   9.375 -0.3294 -0.1071  0.7556
  254MOL0     C34166   3.483   3.411   9.286 -0.2175 -0.5832 -0.6669
  254MOL0     C34167   3.534   3.449   9.149 -0.1727 -0.1185  0.2907
  254MOL0     C34168   3.416   3.500   9.060 -0.1394  1.0009  0.4709
  254MOL0     C34169   3.410   3.443   8.921 -0.1918  0.3887  0.0223
  254MOL0     C34170   3.530   3.494   8.849 -1.2092  0.0498  0.4131
  254MOL0     C34171   3.548   3.409   8.720 -1.4759  0.1476 -0.9228
  254MOL0     N34172   3.644   3.473   8.630  1.4086 -0.3685 -0.0479
  254MOL0     C34173   3.764   3.536   8.677 -0.5723 -0.1683  0.4134
  254MOL0     C34174   3.811   3.602   8.572  0.1660  0.1986  0.5907
  254MOL0     C34175   3.937   3.686   8.587 -1.2766 -0.3223 -0.8639
  254MOL0     C34176   3.987   3.730   8.451 -0.6538 -0.1037 -0.9136
  254MOL0     C34177   4.105   3.828   8.484  0.3584  0.3563  0.4036
  254MOL0     C34178   4.233   3.746   8.516  0.4377  0.0856 -0.6343
  254MOL0     O34179   4.355   3.817   8.474 -0.1462  0.5418  0.1185
  254MOL0     C34180   4.465   3.799   8.551  0.2148 -0.0122 -0.0439
  254MOL0     C34181   4.558   3.901   8.551 -0.2360 -1.2962 -0.3544
  254MOL0     C34182   4.674   3.893   8.619  0.2495 -0.9322  0.5330
  254MOL0     C34183   4.715   3.768   8.672  0.6054  0.0204 -0.3320
  254MOL0     C34184   4.850   3.750   8.726 -0.7102 -1.0424 -0.1999
  254MOL0     O34185   4.917   3.869   8.752  0.0203  0.1066 -0.8239
  254MOL0     C34186   5.052   3.878   8.750 -0.1643  0.9011  0.8491
  254MOL0     C34187   5.118   3.796   8.657 -0.0005 -0.4112  1.0154
  254MOL0     C34188   5.260   3.827   8.647  0.0376  0.7747 -0.3882
  254MOL0     C34189   5.327   3.918   8.736  0.2887  0.0972  0.3346
  254MOL0     O34190   5.462   3.945   8.727 -0.2030 -0.2391  0.5087
  254MOL0     C34191   5.539   3.938   8.600  0.2007 -0.2702 -0.2525
  254MOL0     C34192   5.656   3.846   8.620 -0.5155  0.6489 -0.9293
  254MOL0     C34193   5.795   3.882   8.563  0.0261 -0.0367  0.4139
  254MOL0     C34194   5.853   4.008   8.618  0.9523  1.0060 -0.0682
  254MOL0     C34195   6.002   4.002   8.646 -0.6584  0.0995 -0.1613
  254MOL0     C34196   6.088   4.034   8.523 -0.2619 -0.0178  0.2037
  254MOL0     C34197   6.235   4.075   8.561 -0.6112  0.6351  0.6254
  254MOL0     C34198   6.334   4.058   8.444 -0.3062 -0.3560 -0.5168
  254MOL0    Cl34199   6.415   3.898   8.460  0.4127  0.4619 -0.5406
  254MOL0     C34200   5.254   3.974   8.829  0.3806 -0.2089 -0.2576
  254MOL0     C34201   5.114   3.962   8.836 -0.7034 -0.2480 -0.2776
  254MOL0     O34202   4.893   3.635   8.752  0.3494 -0.1985  0.2618
  254MOL0     C34203   4.620   3.661   8.671  0.3999 -0.0171  0.6392
  254MOL0     C34204   4.499   3.672   8.607 -0.0104  0.1207 -0.0537
  254MOL0     N34205   3.710   3.585   8.468 -0.2013 -0.0157 -0.7634
  254MOL0     N34206   3.613   3.518   8.510 -0.3212 -0.0804  0.2968
  254MOL0     C34207   3.131   3.442   9.646  0.2879 -0.2906  0.8949
  254MOL0     C34208   3.014   3.421   9.727 -0.0474 -0.6277 -0.1472
  254MOL0     C34209   2.599   3.481   9.927  0.2744 -1.3941  0.4242
  254MOL0     C34210   2.617   3.378  10.016  0.2868 -0.1142  0.1833
  254MOL0     C34211   2.508   3.321  10.083 -0.5922  0.5321  0.2004
  254MOL0     C34212   2.377   3.360  10.056  0.2319 -0.1483 -0.4745
  254MOL0     O34213   2.261   3.304  10.109 -0.6324  0.3164  0.7444
  254MOL0     C34214   2.273   3.196  10.206  0.0695 -0.6210 -0.2508
  254MOL0     C34215   2.132   3.164  10.259  0.5077  0.3332  1.4443
  254MOL0     C34216   2.037   3.112  10.147 -0.1552 -0.5559  0.1187
  254MOL0     C34217   1.894   3.112  10.203  0.2973 -0.0161 -0.0400
  254MOL0     C34218   1.810   3.049  10.109 -0.2129  0.6261  1.1611
  254MOL0     C34219   1.740   2.994  10.028 -0.4691  1.0082 -0.4912
  254MOL0     C34220   2.356   3.471   9.970 -0.1420  0.8194  0.1841
  254MOL0     C34221   2.465   3.524   9.896  0.8243  0.9892 -0.0867
  254MOL0     C34222   2.421   3.602   9.775 -0.4260 -0.5802  0.2900
  254MOL0     H34223   2.947   3.722   9.832 -3.5147 -0.8064 -1.4466
  254MOL0     H34224   3.154   3.768   9.682  1.1278  0.7220  2.8452
  254MOL0     H34225   3.396   3.416   9.556  0.2604  0.9850  0.3756
  254MOL0     H34226   3.276   3.419   9.425  2.6549 -0.9569 -2.6150
  254MOL0     H34227   3.521   3.592   9.417  1.0632 -1.7362  0.6018
  254MOL0     H34228   3.385   3.597   9.310  1.5105 -1.3237 -2.2902
  254MOL0     H34229   3.407   3.332   9.292 -0.2724 -0.6357 -1.8082
  254MOL0     H34230   3.569   3.372   9.340 -1.7768 -0.5144  2.0242
  254MOL0     H34231   3.610   3.528   9.148 -1.4211  1.1438 -1.0146
  254MOL0     H34232   3.579   3.363   9.098  3.4127  1.4387  0.4944
  254MOL0     H34233   3.322   3.459   9.099 -0.5376 -1.0486 -2.3180
  254MOL0     H34234   3.404   3.609   9.064 -2.8685  0.7451  3.9352
  254MOL0     H34235   3.403   3.334   8.923 -0.6617  0.3844  2.7044
  254MOL0     H34236   3.319   3.473   8.868  0.2379 -2.4162 -2.5479
  254MOL0     H34237   3.616   3.490   8.917 -3.3228  0.3590  3.3136
  254MOL0     H34238   3.534   3.600   8.823  1.6078 -0.1563 -0.3859
  254MOL0     H34239   3.583   3.309   8.749  0.0374  0.6478 -0.9345
  254MOL0     H34240   3.457   3.387   8.664 -2.4849 -0.2995  0.8057
  254MOL0     H34241   3.818   3.531   8.771 -0.5401 -0.8669  0.3679
  254MOL0     H34242   3.900   3.768   8.649 -0.4972 -0.4422 -0.2242
  254MOL0     H34243   4.011   3.630   8.645 -4.0695 -1.8055  1.5180
  254MOL0     H34244   4.021   3.643   8.395 -0.1598  0.3282 -1.2874
  254MOL0     H34245   3.902   3.779   8.402 -1.3641  0.2808  0.6236
  254MOL0     H34246   4.069   3.897   8.561 -2.3948 -1.9696  1.3749
  254MOL0     H34247   4.132   3.884   8.394 -2.4885  1.0026 -0.1332
  254MOL0     H34248   4.241   3.655   8.455 -2.8915  0.5583 -1.9694
  254MOL0     H34249   4.234   3.733   8.625  2.5827  2.4831 -0.2649
  254MOL0     H34250   4.539   4.000   8.511  2.8331  1.0441  3.2724
  254MOL0     H34251   4.740   3.977   8.635 -1.0363 -0.2506  2.6132
  254MOL0     H34252   5.078   3.728   8.583  1.0429 -0.9856  0.9549
  254MOL0     H34253   5.314   3.771   8.572 -0.6790 -0.5454  0.0479
  254MOL0     H34254   5.479   3.913   8.512  1.0665 -1.1115 -0.6206
  254MOL0     H34255   5.574   4.039   8.580 -1.0593  0.2328 -0.0107
  254MOL0     H34256   5.673   3.839   8.728 -1.4327  0.8437 -0.7634
  254MOL0     H34257   5.625   3.750   8.578 -2.3914  0.5459  0.5598
  254MOL0     H34258   5.861   3.801   8.594  0.1732  0.7261  2.2599
  254MOL0     H34259   5.788   3.878   8.454  2.0626 -3.2472  0.3095
  254MOL0     H34260   5.805   4.032   8.714  1.6644  0.9411  0.3097
  254MOL0     H34261   5.835   4.094   8.553 -1.7546 -0.2964 -1.1780
  254MOL0     H34262   6.036   3.903   8.679 -0.2264 -0.4190 -2.0397
  254MOL0     H34263   6.025   4.070   8.729  0.2458  0.5159 -0.7300
  254MOL0     H34264   6.080   3.946   8.458  0.4898 -0.2736  0.4537
  254MOL0     H34265   6.034   4.109   8.465 -1.5729 -0.3589  0.9223
  254MOL0     H34266   6.271   4.007   8.639 -1.0188 -0.3463 -0.0205
  254MOL0     H34267   6.243   4.182   8.582  0.7565  1.0251 -1.5570
  254MOL0     H34268   6.287   4.075   8.347  3.3936 -1.0084 -2.5980
  254MOL0     H34269   6.402   4.141   8.464  0.8790 -1.5573  0.6648
  254MOL0     H34270   5.311   4.033   8.900  3.0807 -2.4392 -0.3520
  254MOL0     H34271   5.054   4.012   8.911  0.9249 -0.9368  1.5754
  254MOL0     H34272   4.641   3.565   8.716 -0.7406  0.6788  2.7906
  254MOL0     H34273   4.433   3.586   8.593  1.0715 -0.2953 -3.4283
  254MOL0     H34274   3.168   3.357   9.590  0.2941  0.9927 -1.1427
  254MOL0     H34275   2.989   3.316   9.727  0.6146 -0.8195 -2.0616
  254MOL0     H34276   2.717   3.336  10.024 -0.4954 -1.9576  0.8790
  254MOL0     H34277   2.535   3.238  10.147  1.9300 -0.7927 -2.2928
  254MOL0     H34278   2.334   3.228  10.291 -1.5627 -0.5359  0.9464
  254MOL0     H34279   2.317   3.108  10.158 -0.0966 -0.6611 -0.3313
  254MOL0     H34280   2.080   3.253  10.294 -1.2853 -0.1237  0.1031
  254MOL0     H34281   2.155   3.089  10.336  4.4772 -0.2371 -0.0343
  254MOL0     H34282   2.062   3.010  10.116 -0.5965 -1.1801  1.6812
  254MOL0     H34283   2.051   3.181  10.064 -0.3343 -1.8165 -0.9877
  254MOL0     H34284   1.885   3.052  10.294 -0.4849  3.4944  2.3877
  254MOL0     H34285   1.865   3.214  10.230 -0.7355 -1.0486  3.2157
  254MOL0     H34286   1.686   2.950   9.947 -0.8007  3.0978 -1.4816
  254MOL0     H34287   2.252   3.495   9.952 -0.7058  1.9545  3.9346
  254MOL0     H34288   2.459   3.545   9.689  0.6758 -3.2319  2.3607
  254MOL0     H34289   2.312   3.599   9.765 -0.3319 -0.9708 -0.7599
  254MOL0     H34290   2.457   3.705   9.777 -1.3592 -0.2541  2.4561
  255MOL0     O34291   9.524   8.033   3.102 -0.2289  0.0599  0.0268
  255MOL0     C34292   9.460   8.081   3.007 -0.2457  0.0318 -0.8898
  255MOL0     O34293   9.526   8.132   2.890  0.5112  0.6787 -1.0467
  255MOL0     C34294   9.669   8.134   2.885  0.1224 -0.4996 -0.0767
  255MOL0     C34295   9.735   8.033   2.811  0.5597  0.6924  0.3043
  255MOL0     C34296   9.865   8.033   2.790  0.2140  0.2555  0.0286
  255MOL0     C34297   9.944   8.139   2.828  0.9391 -0.3990 -1.2260
  255MOL0     O34298  10.081   8.112   2.804  0.4835 -0.6768 -0.1974
  255MOL0     C34299  10.175   8.169   2.892 -0.5501  0.5759 -0.7568
  255MOL0     C34300  10.310   8.158   2.831 -0.1311  0.3408  1.1541
  255MOL0     C34301  10.417   8.227   2.922  0.1867  0.4441 -0.9044
  255MOL0     C34302  10.400   8.374   2.924 -0.4299 -0.5686 -0.1179
  255MOL0     C34303  10.517   8.457   2.949 -0.7111 -0.0050  0.0938
  255MOL0     C34304  10.539   8.481   3.100  0.4773  0.2498 -0.4802
  255MOL0     C34305  10.683   8.519   3.112 -0.2883  0.0914  0.3018
  255MOL0     C34306  10.743   8.554   3.252  0.3484 -0.4334 -0.1176
  255MOL0     N34307  10.887   8.598   3.235 -0.7875 -0.0371 -0.5877
  255MOL0     C34308  11.001   8.520   3.248 -0.4277  0.1582  0.4447
  255MOL0     C34309  11.112   8.599   3.230  0.3278  0.5934 -0.1908
  255MOL0     C34310  11.252   8.535   3.238  1.1341 -0.6432  0.1787
  255MOL0     C34311  11.318   8.574   3.365  0.5608  0.5036  0.5394
  255MOL0     C34312  11.435   8.481   3.378  0.4484  0.1637 -0.7198
  255MOL0     C34313  11.528   8.529   3.484 -0.1656  0.3821 -0.4142
  255MOL0     O34314  11.611   8.633   3.439 -0.2723  0.3395  0.3611
  255MOL0     C34315  11.712   8.672   3.520 -0.4913 -0.3978 -0.4898
  255MOL0     C34316  11.790   8.766   3.463  0.3363 -0.6003 -0.2978
  255MOL0     C34317  11.893   8.823   3.523  0.8229 -0.7328 -0.3570
  255MOL0     C34318  11.930   8.779   3.654 -0.2719 -0.4663  0.2228
  255MOL0     C34319  12.043   8.852   3.723  0.6160  0.2026  0.3787
  255MOL0     O34320  12.102   8.958   3.644 -0.3208  0.9107 -0.5588
  255MOL0     C34321  12.224   9.001   3.704  0.9505  0.1500 -0.0952
  255MOL0     C34322  12.246   9.036   3.838 -0.0460  0.5143 -0.5569
  255MOL0     C34323  12.381   9.075   3.877 -0.3821 -0.6788 -0.0151
  255MOL0     C34324  12.494   9.080   3.789 -0.1469 -0.3145 -0.6449
  255MOL0     O34325  12.615   9.115   3.848  0.9060  0.4769 -0.3309
  255MOL0     C34326  12.711   9.171   3.755  1.0141 -0.2822 -0.8276
  255MOL0     C34327  12.836   9.229   3.808 -0.4865 -0.7155  0.7134
  255MOL0     C34328  12.948   9.269   3.702  1.1425 -1.0308  0.0836
  255MOL0     C34329  13.011   9.151   3.642  0.0790  0.9143  0.1917
  255MOL0     C34330  13.133   9.206   3.564 -0.2167  0.5358 -0.2502
  255MOL0     C34331  13.192   9.101   3.469  0.0304  0.7985  0.4679
  255MOL0     C34332  13.309   9.184   3.409  0.5312 -0.1172 -0.3846
  255MOL0     C34333  13.357   9.127   3.282 -0.3837 -0.6022  0.0818
  255MOL0    Cl34334  13.247   9.169   3.144 -0.0188 -0.4611 -0.0390
  255MOL0     C34335  12.464   9.045   3.654 -0.4158 -0.2170 -0.4100
  255MOL0     C34336  12.332   9.009   3.618 -0.3879 -0.3134  0.3165
  255MOL0     O34337  12.070   8.815   3.835  0.4100 -0.1462 -0.5276
  255MOL0     C34338  11.858   8.679   3.711  0.0488 -0.2413  0.4792
  255MOL0     C34339  11.748   8.626   3.643 -0.4771  0.6712 -0.3423
  255MOL0     N34340  11.074   8.729   3.224  0.1356  0.5103 -0.7099
  255MOL0     N34341  10.939   8.724   3.227  0.1826  0.6292 -0.0634
  255MOL0     C34342   9.880   8.251   2.899  0.0440  0.5371 -0.1684
  255MOL0     C34343   9.743   8.243   2.931 -0.3374  0.4106 -0.6672
  255MOL0     C34344   9.304   8.092   3.020 -0.2663  0.5498  0.3233
  255MOL0     C34345   9.246   8.204   2.949  0.4480 -0.1181  0.8690
  255MOL0     C34346   9.107   8.231   2.953 -0.1838  0.4315  1.2013
  255MOL0     C34347   9.029   8.162   3.045  0.0725  0.5843  1.2125
  255MOL0     O34348   8.896   8.201   3.060  0.3390 -0.5991  0.5160
  255MOL0     C34349   8.841   8.241   3.185 -0.2808  0.8924 -0.2741
  255MOL0     C34350   8.747   8.367   3.160  0.3842 -0.8703  0.2041
  255MOL0     C34351   8.788   8.474   3.065 -0.4690 -0.0337  0.3403
  255MOL0     C34352   8.685   8.583   3.057  0.1804  0.1454 -0.2197
  255MOL0     C34353   8.723   8.708   3.122 -0.0036  0.3683  0.6961
  255MOL0     C34354   8.764   8.807   3.182  0.2416 -0.0597  0.2408
  255MOL0     C34355   9.087   8.062   3.122  0.4252  0.4208 -0.6020
  255MOL0     C34356   9.215   8.015   3.103 -0.3305 -0.1170  0.4572
  255MOL0     C34357   9.266   7.900   3.183 -0.2846 -1.1228 -0.0409
  255MOL0     H34358   9.680   7.953   2.762 -0.7235  2.9161 -2.1466
  255MOL0     H34359   9.906   7.962   2.719  1.3971  1.9473 -1.0263
  255MOL0     H34360  10.146   8.274   2.905 -0.5114  0.4152  0.8719
  255MOL0     H34361  10.181   8.124   2.992  0.5075  2.3266  0.0268
  255MOL0     H34362  10.308   8.194   2.728 -0.8333 -1.1968  0.6053
  255MOL0     H34363  10.332   8.054   2.809 -1.6295 -0.4206  2.9486
  255MOL0     H34364  10.519   8.192   2.905  1.0655  0.6824  2.8928
  255MOL0     H34365  10.410   8.199   3.028  0.5159  2.3681 -0.3276
  255MOL0     H34366  10.353   8.406   2.831 -0.7357 -1.9244 -0.4583
  255MOL0     H34367  10.323   8.390   3.000  0.4158 -1.6373  1.0004
  255MOL0     H34368  10.603   8.412   2.899 -0.8891  1.8203 -1.9653
  255MOL0     H34369  10.499   8.555   2.905 -1.7863 -0.2382 -0.0274
  255MOL0     H34370  10.474   8.558   3.140 -1.1060 -0.3886 -1.7149
  255MOL0     H34371  10.529   8.392   3.164  0.0499 -0.2054 -1.1668
  255MOL0     H34372  10.701   8.607   3.050 -3.9333  1.4102  0.8468
  255MOL0     H34373  10.744   8.436   3.074  0.9734 -0.6693  3.6539
  255MOL0     H34374  10.686   8.640   3.288 -0.3579 -0.8056 -0.3391
  255MOL0     H34375  10.728   8.472   3.322 -0.7792  0.1960  0.4050
  255MOL0     H34376  11.009   8.413   3.265  1.1275 -0.4653 -3.2177
  255MOL0     H34377  11.249   8.426   3.224 -0.1391 -0.5038 -0.8337
  255MOL0     H34378  11.304   8.567   3.147  0.8919  1.3933  0.7279
  255MOL0     H34379  11.346   8.679   3.367 -0.9778  0.9307  0.9586
  255MOL0     H34380  11.246   8.544   3.442 -0.8453  0.3345 -0.7822
  255MOL0     H34381  11.501   8.485   3.291  2.3322  3.8499  0.6718
  255MOL0     H34382  11.402   8.381   3.409  0.2052  1.6244  4.7567
  255MOL0     H34383  11.592   8.444   3.513 -1.8782 -0.6066  0.6057
  255MOL0     H34384  11.475   8.577   3.567 -0.9672  0.6051 -1.0439
  255MOL0     H34385  11.776   8.795   3.359  0.4259  0.6448  0.0173
  255MOL0     H34386  11.942   8.896   3.458  1.5385 -1.8241 -1.0651
  255MOL0     H34387  12.168   9.037   3.913  0.2037 -0.6139 -0.2667
  255MOL0     H34388  12.410   9.096   3.979  1.1134  2.4799 -0.9570
  255MOL0     H34389  12.739   9.084   3.694  2.5674 -1.6216  1.6129
  255MOL0     H34390  12.652   9.250   3.708 -0.2141 -0.8913 -0.3525
  255MOL0     H34391  12.810   9.321   3.861  0.5241  0.5601 -0.8791
  255MOL0     H34392  12.885   9.162   3.880  2.6955  0.6235 -0.0050
  255MOL0     H34393  12.904   9.331   3.623  1.0790 -0.1014  0.8268
  255MOL0     H34394  13.024   9.328   3.755  2.3302 -1.1742 -1.3655
  255MOL0     H34395  12.938   9.097   3.582  1.1638  0.8034 -1.0761
  255MOL0     H34396  13.033   9.075   3.717 -1.1442  0.4646  0.1149
  255MOL0     H34397  13.208   9.240   3.636 -0.0734  0.5247 -0.3906
  255MOL0     H34398  13.100   9.285   3.496  1.1972  0.2136 -1.3715
  255MOL0     H34399  13.213   9.013   3.531  0.1197  1.9776  2.1881
  255MOL0     H34400  13.127   9.068   3.387 -0.0115 -0.4021  0.9708
  255MOL0     H34401  13.386   9.201   3.485  1.6060  0.3673 -1.5502
  255MOL0     H34402  13.280   9.285   3.378  0.8094  0.5645  1.4213
  255MOL0     H34403  13.456   9.173   3.270 -0.7415  0.1828  0.0898
  255MOL0     H34404  13.364   9.018   3.282  3.3338 -0.5190  0.1105
  255MOL0     H34405  12.538   9.051   3.575  0.1257 -0.0230  0.1067
  255MOL0     H34406  12.311   8.975   3.517 -0.5734 -3.1741  1.2305
  255MOL0     H34407  11.881   8.631   3.806 -1.3647  0.6454  1.2971
  255MOL0     H34408  11.692   8.542   3.683 -0.7057  0.5839 -0.8376
  255MOL0     H34409   9.932   8.344   2.921 -2.2227  1.5322  1.3722
  255MOL0     H34410   9.698   8.332   2.974 -2.1391 -0.0222 -1.5472
  255MOL0     H34411   9.313   8.268   2.891  0.1984  0.6423  1.4055
  255MOL0     H34412   9.055   8.297   2.884 -0.4001 -0.9575 -0.0236
  255MOL0     H34413   8.925   8.270   3.248  0.6896 -2.8237  0.3557
  255MOL0     H34414   8.787   8.162   3.237  0.2400 -0.3665 -1.5697
  255MOL0     H34415   8.720   8.408   3.258 -0.7534  0.6500 -0.6935
  255MOL0     H34416   8.656   8.325   3.118  1.0300 -1.7390 -0.3562
  255MOL0     H34417   8.807   8.436   2.964  1.6945  0.9808  0.3093
  255MOL0     H34418   8.886   8.513   3.095 -0.9507  0.5754  1.1534
  255MOL0     H34419   8.672   8.601   2.950  0.5335 -1.5713 -0.5866
  255MOL0     H34420   8.588   8.547   3.092  0.3534 -1.6703 -1.4281
  255MOL0     H34421   8.796   8.900   3.223 -1.6490  0.7581 -0.0325
  255MOL0     H34422   9.029   8.010   3.197  3.2300  0.6875  1.9039
  255MOL0     H34423   9.184   7.835   3.213 -1.1291  0.3621  1.0165
  255MOL0     H34424   9.333   7.839   3.122  1.1364  0.3940 -0.0958
  255MOL0     H34425   9.317   7.928   3.276  0.6226  0.9929 -1.0952
  256MOL0     O34426   5.670   3.759   9.298 -0.2705  0.5818 -0.0661
  256MOL0     C34427   5.596   3.812   9.213  0.7453 -0.3586 -0.3786
  256MOL0     O34428   5.629   3.904   9.123  0.6343 -0.2813 -0.0147
  256MOL0     C34429   5.762   3.930   9.108  0.2799 -0.5793 -0.0827
  256MOL0     C34430   5.787   4.062   9.063 -0.1850  0.0021 -0.5099
  256MOL0     C34431   5.914   4.109   9.026  0.2285 -0.0366  0.7895
  256MOL0     C34432   6.021   4.020   9.031 -0.7217  0.1974 -0.8716
  256MOL0     O34433   6.143   4.068   8.995 -0.5981  0.5552  0.3001
  256MOL0     C34434   6.263   3.986   9.026  0.2023 -0.5472  0.1281
  256MOL0     C34435   6.386   4.076   9.035 -0.1267 -0.0585  0.0866
  256MOL0     C34436   6.446   4.119   8.903 -0.4665 -0.4805  0.2161
  256MOL0     C34437   6.579   4.055   8.877  0.2968  0.9459 -0.6540
  256MOL0     C34438   6.622   4.100   8.739 -0.0584 -0.2658  0.4165
  256MOL0     C34439   6.666   4.245   8.729  0.1267 -0.0547 -0.1804
  256MOL0     C34440   6.706   4.292   8.587 -0.5185  0.4674  0.1421
  256MOL0     C34441   6.822   4.209   8.526  0.4722  0.3191 -0.4459
  256MOL0     N34442   6.944   4.211   8.614  0.4101  0.5087 -0.7219
  256MOL0     C34443   7.023   4.321   8.655 -0.5757  0.1554 -0.2511
  256MOL0     C34444   7.099   4.275   8.756  0.5107 -0.5446  0.5183
  256MOL0     C34445   7.202   4.348   8.839  0.1961 -0.3755  0.3827
  256MOL0     C34446   7.139   4.376   8.977  0.5918 -0.5792  0.7556
  256MOL0     C34447   7.224   4.452   9.067 -0.4413  0.6663 -0.4040
  256MOL0     C34448   7.355   4.396   9.094 -0.1926  0.2965  0.4058
  256MOL0     O34449   7.458   4.442   9.013 -0.6455 -0.4017  0.4783
  256MOL0     C34450   7.593   4.421   9.042 -0.1766 -0.1848  0.1268
  256MOL0     C34451   7.683   4.483   8.952 -1.0976 -0.0811  0.1744
  256MOL0     C34452   7.819   4.474   8.976 -0.9026  1.1871  0.2256
  256MOL0     C34453   7.872   4.416   9.091 -0.2969 -0.7972  0.0811
  256MOL0     C34454   8.019   4.403   9.111  0.4997  0.1366 -0.1062
  256MOL0     O34455   8.096   4.474   9.020  0.3414 -0.3278 -0.0713
  256MOL0     C34456   8.229   4.457   8.995 -0.0519  0.3564 -0.5383
  256MOL0     C34457   8.305   4.347   9.037 -1.0200  0.2001 -0.4605
  256MOL0     C34458   8.447   4.336   9.005  0.5657 -0.2935 -0.3254
  256MOL0     C34459   8.520   4.432   8.939  0.7146 -0.1027  0.4600
  256MOL0     O34460   8.651   4.415   8.892  0.4429 -0.0803 -0.3738
  256MOL0     C34461   8.733   4.319   8.956 -0.3077  0.7759  0.0738
  256MOL0     C34462   8.880   4.353   8.941  0.6922  0.9524  0.2318
  256MOL0     C34463   8.914   4.499   8.984  0.0749  0.5123  0.7914
  256MOL0     C34464   9.055   4.523   8.928  0.0427  0.2521 -0.0485
  256MOL0     C34465   9.099   4.659   8.980  0.0908 -0.3525  0.0011
  256MOL0     C34466   9.248   4.684   8.961 -0.2919 -0.0470 -0.0204
  256MOL0     C34467   9.305   4.829   8.980  0.2520 -0.0732 -0.0440
  256MOL0     C34468   9.258   4.898   9.111 -0.5584 -0.0903  0.5894
  256MOL0    Cl34469   9.309   4.801   9.256 -0.2916 -0.1639  0.0453
  256MOL0     C34470   8.444   4.544   8.897  0.4050  0.5257 -0.9175
  256MOL0     C34471   8.303   4.555   8.926  0.0278  0.2176 -0.7895
  256MOL0     O34472   8.054   4.312   9.180 -0.1179  0.0862 -0.2196
  256MOL0     C34473   7.780   4.358   9.182 -0.6210  0.4651 -0.2549
  256MOL0     C34474   7.645   4.353   9.153  0.4249  0.0945  0.3885
  256MOL0     N34475   7.073   4.140   8.765  0.3289  0.6473  0.3531
  256MOL0     N34476   6.984   4.099   8.681 -0.3680  0.0021 -0.1706
  256MOL0     C34477   5.999   3.888   9.065 -0.6049  0.0710 -0.6084
  256MOL0     C34478   5.869   3.838   9.101 -0.3688 -1.0538  0.4960
  256MOL0     C34479   5.460   3.761   9.212  0.0403  0.0837 -1.1748
  256MOL0     C34480   5.386   3.763   9.090 -0.0127  0.1000  0.3672
  256MOL0     C34481   5.249   3.724   9.081  0.7065  0.1245 -1.1208
  256MOL0     C34482   5.183   3.692   9.202  0.8620  0.0212 -0.2832
  256MOL0     O34483   5.053   3.662   9.216  0.1673  0.4423  0.2436
  256MOL0     C34484   4.960   3.681   9.108  0.0517 -0.3536  0.0211
  256MOL0     C34485   4.816   3.660   9.146  0.4557  0.5573  0.1846
  256MOL0     C34486   4.792   3.522   9.211  1.4461 -0.3349 -0.1042
  256MOL0     C34487   4.644   3.509   9.232 -0.3669  0.9581 -0.3089
  256MOL0     C34488   4.606   3.390   9.311 -0.8270 -0.0118 -0.5595
  256MOL0     C34489   4.562   3.303   9.384 -0.3900 -0.2270 -0.0693
  256MOL0     C34490   5.259   3.692   9.317  0.6024  0.4403 -0.5688
  256MOL0     C34491   5.394   3.717   9.329  0.0553  0.8606 -0.4389
  256MOL0     C34492   5.449   3.712   9.467  0.7405  0.5256 -0.3593
  256MOL0     H34493   5.704   4.132   9.057  0.2325  1.0571  3.4189
  256MOL0     H34494   5.934   4.212   9.000  0.1280 -0.6612 -2.1012
  256MOL0     H34495   6.255   3.933   9.121  1.4123  0.0384  0.5696
  256MOL0     H34496   6.266   3.906   8.950  0.8827  0.8971 -1.4417
  256MOL0     H34497   6.466   4.020   9.083  2.5465  1.6257 -2.1360
  256MOL0     H34498   6.369   4.165   9.097  1.7599 -0.6335  1.5259
  256MOL0     H34499   6.458   4.227   8.909 -2.0472 -0.2495 -0.2071
  256MOL0     H34500   6.381   4.108   8.815  1.1487  2.0769 -1.4187
  256MOL0     H34501   6.654   4.085   8.951 -0.5060 -0.7589  0.9506
  256MOL0     H34502   6.579   3.945   8.876  2.1521  0.9114 -1.6847
  256MOL0     H34503   6.719   4.053   8.722 -0.0867 -0.1657 -0.0374
  256MOL0     H34504   6.555   4.070   8.658  0.5602 -1.6753  0.4054
  256MOL0     H34505   6.577   4.306   8.745  1.1874  1.1231  1.5921
  256MOL0     H34506   6.744   4.266   8.802  3.5454  0.3186 -3.5855
  256MOL0     H34507   6.739   4.395   8.600 -1.8758  0.7734  1.4307
  256MOL0     H34508   6.625   4.290   8.515  1.2430  0.0237 -1.9339
  256MOL0     H34509   6.795   4.104   8.514  1.6281  0.0742 -1.0670
  256MOL0     H34510   6.837   4.253   8.427 -2.0819  1.2119 -0.4915
  256MOL0     H34511   7.011   4.424   8.624 -1.9347  0.3227  0.7517
  256MOL0     H34512   7.294   4.290   8.848  1.3227  0.8753 -2.0857
  256MOL0     H34513   7.231   4.444   8.795  0.1724 -0.4550  0.1895
  256MOL0     H34514   7.044   4.429   8.970  0.3488 -1.1173 -0.2159
  256MOL0     H34515   7.111   4.283   9.027  0.7571 -0.8990  0.2659
  256MOL0     H34516   7.184   4.458   9.168  1.8466 -0.3195  0.6206
  256MOL0     H34517   7.225   4.554   9.027 -2.3782  1.0430  0.4132
  256MOL0     H34518   7.346   4.287   9.087  0.1010  0.2029  1.3400
  256MOL0     H34519   7.382   4.425   9.196  0.4336 -0.7963  0.5689
  256MOL0     H34520   7.650   4.522   8.856 -0.5002 -1.0678 -0.4400
  256MOL0     H34521   7.888   4.518   8.904  0.5924 -0.5281  0.5347
  256MOL0     H34522   8.273   4.261   9.094  1.3882 -0.4899 -0.0507
  256MOL0     H34523   8.499   4.244   9.031 -0.9375 -0.6639  1.5472
  256MOL0     H34524   8.705   4.304   9.061 -0.6627 -0.8048 -0.2233
  256MOL0     H34525   8.711   4.229   8.898  0.2580  0.8706 -0.2906
  256MOL0     H34526   8.940   4.283   9.000  0.0365 -1.1803 -1.5404
  256MOL0     H34527   8.896   4.333   8.835  1.7646  0.4832  0.4686
  256MOL0     H34528   8.851   4.575   8.937  1.5177  1.9951  1.1894
  256MOL0     H34529   8.914   4.512   9.093 -0.6869  1.6290  0.6812
  256MOL0     H34530   9.052   4.517   8.819 -0.9947 -1.3799  0.0362
  256MOL0     H34531   9.124   4.448   8.970 -2.2121 -2.4138 -0.8087
  256MOL0     H34532   9.071   4.682   9.084 -1.4506 -0.6880 -0.3133
  256MOL0     H34533   9.052   4.732   8.913  1.8728  0.8412 -0.0258
  256MOL0     H34534   9.297   4.628   9.041 -1.4269  1.7943  2.0515
  256MOL0     H34535   9.274   4.656   8.858  0.1919 -4.0761  1.0267
  256MOL0     H34536   9.257   4.883   8.897 -0.5770 -1.4153 -0.4821
  256MOL0     H34537   9.413   4.839   8.973  0.1213  0.5386 -1.4391
  256MOL0     H34538   9.297   5.000   9.114  1.3306 -0.7868  1.1203
  256MOL0     H34539   9.149   4.905   9.112 -0.5134  0.6559  0.6436
  256MOL0     H34540   8.488   4.632   8.852 -0.4353  0.3233 -2.1572
  256MOL0     H34541   8.251   4.648   8.903 -0.7316 -0.7310 -3.2105
  256MOL0     H34542   7.821   4.307   9.268  0.5976  2.1806  0.2418
  256MOL0     H34543   7.577   4.292   9.212  0.2319 -0.5789 -0.4961
  256MOL0     H34544   6.085   3.823   9.073 -0.6801  0.1970  1.8942
  256MOL0     H34545   5.853   3.733   9.122 -3.1397 -0.9417 -0.6932
  256MOL0     H34546   5.435   3.801   9.000 -0.7538  0.5522  0.1426
  256MOL0     H34547   5.196   3.722   8.987 -1.7653  1.6553  0.1132
  256MOL0     H34548   4.994   3.609   9.033 -0.6126 -1.5033  0.7882
  256MOL0     H34549   4.970   3.784   9.073 -1.9401  0.2968  1.2475
  256MOL0     H34550   4.745   3.682   9.065 -0.8510 -3.7472 -0.0704
  256MOL0     H34551   4.792   3.735   9.222 -3.5670 -1.7570  1.4841
  256MOL0     H34552   4.844   3.530   9.307  0.6417 -1.2002  0.4182
  256MOL0     H34553   4.833   3.438   9.154 -0.5444 -0.7432 -1.0074
  256MOL0     H34554   4.595   3.595   9.279 -0.1731 -0.0757  1.9454
  256MOL0     H34555   4.597   3.518   9.134  0.0604 -1.7277 -0.8288
  256MOL0     H34556   4.504   3.234   9.443 -0.9543  1.3239  1.2831
  256MOL0     H34557   5.209   3.666   9.410  0.1894 -0.4787 -1.0288
  256MOL0     H34558   5.363   3.696   9.533  0.8494  0.9833 -0.1050
  256MOL0     H34559   5.519   3.627   9.462  0.4910  0.3876 -2.3787
  256MOL0     H34560   5.495   3.808   9.492  1.3230  0.4186 -0.9643
  257MOL0     O34561   0.185   7.147   4.886 -0.0944  0.3317 -0.0197
  257MOL0     C34562   0.173   7.210   4.787  0.7418 -0.3342  0.2357
  257MOL0     O34563   0.267   7.265   4.717  0.3130 -0.3869 -0.8016
  257MOL0     C34564   0.393   7.266   4.769  0.3396 -0.3190 -0.4798
  257MOL0     C34565   0.423   7.348   4.877 -0.2106  0.8925  0.1280
  257MOL0     C34566   0.551   7.343   4.933 -0.7491  0.0995 -0.8303
  257MOL0     C34567   0.649   7.265   4.871  0.0817  0.5746 -0.2553
  257MOL0     O34568   0.784   7.262   4.903  0.5420  0.4239  0.0487
  257MOL0     C34569   0.817   7.328   5.025 -0.0680  0.2500  1.4452
  257MOL0     C34570   0.967   7.311   5.063  0.6571  0.2756 -0.2741
  257MOL0     C34571   1.010   7.167   5.063  0.5756 -0.2889  0.1856
  257MOL0     C34572   1.147   7.147   5.119 -0.1119 -0.2800  0.2636
  257MOL0     C34573   1.162   7.005   5.167  0.0494  0.4891  0.1210
  257MOL0     C34574   1.313   6.974   5.196 -0.0553 -0.1285 -0.2756
  257MOL0     C34575   1.358   7.010   5.343  0.1029 -0.1429  0.9207
  257MOL0     C34576   1.503   6.954   5.377  0.0297 -0.0206 -0.0399
  257MOL0     N34577   1.560   7.016   5.500  0.3076  0.2854  0.3964
  257MOL0     C34578   1.677   6.970   5.546 -0.5466 -0.3551  0.3688
  257MOL0     C34579   1.703   7.045   5.649  0.3146 -0.7052  0.1564
  257MOL0     C34580   1.828   7.036   5.730  0.0202 -0.2482  0.9804
  257MOL0     C34581   1.947   7.077   5.643  0.0918  0.5830 -0.0813
  257MOL0     C34582   2.077   7.028   5.709  0.9373  0.5110 -0.1116
  257MOL0     C34583   2.194   7.072   5.627 -0.1195  0.0623 -0.0522
  257MOL0     O34584   2.309   7.053   5.712  0.0961  0.1537  0.5517
  257MOL0     C34585   2.427   7.081   5.655 -0.1304  0.4196  0.3356
  257MOL0     C34586   2.535   7.059   5.738  1.1143 -0.7085  0.4669
  257MOL0     C34587   2.663   7.095   5.698 -0.6007  0.4484  0.2785
  257MOL0     C34588   2.685   7.175   5.589  0.0337  0.4543  0.1412
  257MOL0     C34589   2.818   7.230   5.553  0.3143 -0.1751 -0.2793
  257MOL0     O34590   2.817   7.337   5.459 -0.1951 -0.0728  0.1910
  257MOL0     C34591   2.940   7.404   5.440  1.0559 -0.0677 -0.2987
  257MOL0     C34592   2.954   7.446   5.305 -0.5903  0.0337 -0.7352
  257MOL0     C34593   3.061   7.520   5.263 -0.1391 -0.2896  0.6197
  257MOL0     C34594   3.158   7.559   5.356  0.9694 -0.0894 -0.6313
  257MOL0     O34595   3.272   7.625   5.330 -0.1458  0.2124  0.2696
  257MOL0     C34596   3.286   7.691   5.202  1.0360 -0.7127  0.7591
  257MOL0     C34597   3.413   7.775   5.204 -0.2537 -1.1314  0.1468
  257MOL0     C34598   3.429   7.867   5.083  0.6161  0.1382 -0.3539
  257MOL0     C34599   3.331   7.992   5.088 -0.3893 -0.0370 -0.2569
  257MOL0     C34600   3.401   8.111   5.023 -0.0453 -0.1620 -0.1787
  257MOL0     C34601   3.405   8.099   4.865 -0.3328 -0.1592 -0.1084
  257MOL0     C34602   3.453   8.233   4.815  0.0456 -0.0448  0.5338
  257MOL0     C34603   3.415   8.245   4.668  0.3700 -0.2965  0.1888
  257MOL0    Cl34604   3.251   8.310   4.636 -0.2961 -0.0463  0.6393
  257MOL0     C34605   3.146   7.532   5.491 -0.1087  0.5076  0.3317
  257MOL0     C34606   3.038   7.461   5.531  1.4983 -0.4940  0.7451
  257MOL0     O34607   2.915   7.172   5.608  0.1792 -0.8241  0.4963
  257MOL0     C34608   2.581   7.200   5.497  0.1816  0.0614  0.0701
  257MOL0     C34609   2.453   7.143   5.528  0.1058  0.3656 -0.6962
  257MOL0     N34610   1.612   7.143   5.671 -0.3397 -0.4239 -0.1583
  257MOL0     N34611   1.535   7.121   5.578  0.7952  0.3517  0.3157
  257MOL0     C34612   0.619   7.203   4.751  0.1688  0.2197  0.3544
  257MOL0     C34613   0.492   7.200   4.695 -0.8322 -0.8506 -0.3053
  257MOL0     C34614   0.035   7.213   4.728  0.4890  0.1393 -0.3561
  257MOL0     C34615   0.026   7.206   4.588 -0.2586  0.3260 -0.3981
  257MOL0     C34616  -0.099   7.188   4.527  1.4188 -0.7784  0.0785
  257MOL0     C34617  -0.215   7.199   4.598  0.7245  0.2109  0.2220
  257MOL0     O34618  -0.347   7.177   4.550  0.1267 -0.0069  0.7741
  257MOL0     C34619  -0.381   7.115   4.420 -0.7312  0.2685  0.6354
  257MOL0     C34620  -0.364   7.201   4.292  0.1609  0.0015 -0.5101
  257MOL0     C34621  -0.370   7.344   4.318 -0.1168 -0.3322 -0.6860
  257MOL0     C34622  -0.390   7.430   4.193 -0.3335 -0.0564  0.6085
  257MOL0     C34623  -0.270   7.420   4.113  0.8172 -0.1475  0.4671
  257MOL0     C34624  -0.165   7.435   4.047  0.1243  0.3249 -0.5137
  257MOL0     C34625  -0.212   7.222   4.737 -0.8675  0.0599 -0.3073
  257MOL0     C34626  -0.084   7.227   4.804  0.0540 -0.2016 -0.0727
  257MOL0     C34627  -0.087   7.248   4.951 -0.4300 -0.0441  0.4930
  257MOL0     H34628   0.340   7.403   4.921  1.6210  3.1665  0.9199
  257MOL0     H34629   0.565   7.396   5.026  0.5093  0.0420 -0.9631
  257MOL0     H34630   0.788   7.433   5.022 -0.9696 -0.0230  0.1480
  257MOL0     H34631   0.762   7.282   5.109 -2.3957  1.0944  0.4711
  257MOL0     H34632   0.984   7.354   5.162 -1.8331  3.5131 -1.0800
  257MOL0     H34633   1.030   7.365   4.991 -0.6653  0.1982 -1.5163
  257MOL0     H34634   1.010   7.121   4.964 -0.2177  0.9817 -0.4428
  257MOL0     H34635   0.931   7.113   5.116 -0.9440 -0.1532 -1.8180
  257MOL0     H34636   1.222   7.183   5.049  0.4527  0.7841  1.3923
  257MOL0     H34637   1.149   7.214   5.205  1.9315 -0.7317  0.6164
  257MOL0     H34638   1.088   6.978   5.243 -1.2198  1.1566 -0.8408
  257MOL0     H34639   1.140   6.939   5.083  1.0215 -1.3705  1.2640
  257MOL0     H34640   1.334   6.867   5.192  1.3050  0.1622 -2.4170
  257MOL0     H34641   1.378   7.020   5.121  0.1505 -0.1784 -0.1294
  257MOL0     H34642   1.289   6.987   5.425 -1.5185  0.6167 -0.1854
  257MOL0     H34643   1.355   7.119   5.342 -0.3622 -0.0572 -2.7660
  257MOL0     H34644   1.502   6.845   5.373  0.6151 -0.0610 -4.7176
  257MOL0     H34645   1.575   6.979   5.299  0.7478  0.5639  0.7971
  257MOL0     H34646   1.740   6.893   5.502  3.1939  1.7876  1.4852
  257MOL0     H34647   1.833   7.112   5.809  4.1664  1.0453 -0.2675
  257MOL0     H34648   1.832   6.938   5.778 -3.9167 -0.6900  0.7549
  257MOL0     H34649   1.938   7.026   5.546  3.1109 -1.1183  0.4082
  257MOL0     H34650   1.948   7.185   5.628  2.5792  0.3851 -1.8900
  257MOL0     H34651   2.089   6.920   5.701  0.8809  0.6297 -4.4811
  257MOL0     H34652   2.081   7.064   5.812  1.3889 -1.5247  0.6294
  257MOL0     H34653   2.184   7.181   5.616 -1.3179  0.0142  0.3779
  257MOL0     H34654   2.190   7.024   5.529 -0.9099 -0.4809  0.2375
  257MOL0     H34655   2.535   6.995   5.826  0.5529 -0.4966  0.6255
  257MOL0     H34656   2.746   7.063   5.760 -0.2900  0.4103 -0.1516
  257MOL0     H34657   2.894   7.409   5.222 -2.2524  4.0719 -1.5812
  257MOL0     H34658   3.090   7.535   5.159 -1.5797  0.8951  0.3641
  257MOL0     H34659   3.279   7.623   5.116  0.5211  2.7108 -2.1792
  257MOL0     H34660   3.205   7.765   5.197  2.2992  0.6500 -2.4227
  257MOL0     H34661   3.417   7.832   5.297 -0.0441  0.2512 -0.6862
  257MOL0     H34662   3.494   7.702   5.212  0.7174 -0.4928 -2.7463
  257MOL0     H34663   3.532   7.903   5.083  0.4727  0.7895 -3.0527
  257MOL0     H34664   3.422   7.819   4.985 -1.8053  0.9844 -0.6864
  257MOL0     H34665   3.307   8.026   5.189 -1.1746  2.0300 -1.0850
  257MOL0     H34666   3.235   7.971   5.040 -2.1759  3.2834  1.5038
  257MOL0     H34667   3.502   8.110   5.066 -0.3516  2.1922  0.6961
  257MOL0     H34668   3.352   8.199   5.064  2.7087  0.4330  2.1535
  257MOL0     H34669   3.468   8.017   4.830  0.6473  0.4165  0.2683
  257MOL0     H34670   3.307   8.086   4.819 -0.6261  2.9315 -0.5802
  257MOL0     H34671   3.562   8.242   4.816 -0.0280  1.7155 -0.7682
  257MOL0     H34672   3.407   8.314   4.872  0.7838 -0.5308  1.8584
  257MOL0     H34673   3.484   8.308   4.610 -2.7175  2.8881 -0.3859
  257MOL0     H34674   3.418   8.143   4.629  0.6080 -0.3206  0.2643
  257MOL0     H34675   3.230   7.566   5.552  0.1202  0.6919 -0.0844
  257MOL0     H34676   3.021   7.452   5.637 -1.8034  2.9535  0.7540
  257MOL0     H34677   2.602   7.256   5.407 -0.9506  0.3819 -0.0080
  257MOL0     H34678   2.382   7.152   5.446  0.1064  1.9156 -0.5587
  257MOL0     H34679   0.706   7.155   4.706  0.0441  0.4880 -0.1792
  257MOL0     H34680   0.470   7.153   4.600  3.3604  1.0212 -2.4709
  257MOL0     H34681   0.105   7.205   4.513  0.3645 -1.9321  0.2263
  257MOL0     H34682  -0.109   7.176   4.419  0.4151 -3.1492  0.3757
  257MOL0     H34683  -0.488   7.096   4.425 -0.9517 -0.5927 -3.6137
  257MOL0     H34684  -0.329   7.019   4.417 -1.5192 -0.1590  0.3923
  257MOL0     H34685  -0.428   7.163   4.211 -0.4631 -2.1100  0.9052
  257MOL0     H34686  -0.261   7.190   4.256  0.8080  1.5223  0.7478
  257MOL0     H34687  -0.286   7.378   4.379 -2.1173  0.8729  1.5987
  257MOL0     H34688  -0.457   7.363   4.381 -0.2971 -2.4710 -0.2040
  257MOL0     H34689  -0.473   7.398   4.130 -0.6514  2.2976 -0.2744
  257MOL0     H34690  -0.425   7.528   4.226 -2.6525 -1.7213  3.5689
  257MOL0     H34691  -0.073   7.448   3.995  0.4218 -0.8139 -0.3131
  257MOL0     H34692  -0.309   7.240   4.783 -0.6524  0.7913 -0.1417
  257MOL0     H34693  -0.180   7.284   4.995 -0.0945  1.7272 -0.1829
  257MOL0     H34694  -0.070   7.151   4.999 -2.1965  0.3133  1.9154
  257MOL0     H34695  -0.002   7.311   4.979 -0.2899 -0.1302  0.2698
  258MOL0     O34696   6.714   8.910   6.723 -0.2639 -0.3409  0.7413
  258MOL0     C34697   6.648   8.855   6.806 -0.4902 -0.1114 -0.2583
  258MOL0     O34698   6.699   8.771   6.906 -0.4201  0.6102 -0.0625
  258MOL0     C34699   6.839   8.750   6.913  0.2289  0.6384 -0.5970
  258MOL0     C34700   6.928   8.732   6.806  0.1233  0.2465 -0.4205
  258MOL0     C34701   7.065   8.700   6.828 -0.2770  0.1820  0.1068
  258MOL0     C34702   7.115   8.683   6.953 -0.2161  0.4827  0.2578
  258MOL0     O34703   7.239   8.629   6.955 -0.5561 -0.1181  0.2659
  258MOL0     C34704   7.253   8.532   7.051 -1.8451  0.2444  0.1816
  258MOL0     C34705   7.350   8.583   7.160 -0.0194 -0.5954 -0.4776
  258MOL0     C34706   7.318   8.512   7.291 -0.7538  0.7662 -0.1250
  258MOL0     C34707   7.347   8.362   7.279  0.5389 -0.0321 -0.1240
  258MOL0     C34708   7.322   8.287   7.409  0.0667  0.2677  0.4089
  258MOL0     C34709   7.174   8.252   7.445  0.6409 -0.6002 -0.3318
  258MOL0     C34710   7.095   8.168   7.348 -0.6007  0.7917  0.2670
  258MOL0     C34711   7.171   8.045   7.305  0.8912 -0.4812 -0.3092
  258MOL0     N34712   7.075   7.942   7.280  0.4501  0.2350  0.8368
  258MOL0     C34713   6.988   7.939   7.168 -0.3218  0.5549  0.0726
  258MOL0     C34714   6.903   7.830   7.205 -0.3126  0.2761  0.0373
  258MOL0     C34715   6.770   7.794   7.152 -0.0956 -0.4875  0.0063
  258MOL0     C34716   6.644   7.873   7.200  0.1389  0.4969 -0.1176
  258MOL0     C34717   6.603   7.803   7.333 -0.6032 -0.0363 -0.3876
  258MOL0     C34718   6.484   7.876   7.384  0.3684  0.0253  0.1637
  258MOL0     O34719   6.373   7.848   7.296  0.3884 -0.3563 -0.2927
  258MOL0     C34720   6.280   7.950   7.298 -0.3120 -0.1685  0.0490
  258MOL0     C34721   6.209   7.991   7.413 -0.4699  0.3199 -0.2196
  258MOL0     C34722   6.131   8.101   7.412  0.1233  0.0826 -0.4814
  258MOL0     C34723   6.129   8.184   7.296 -0.6838  0.2381  0.1530
  258MOL0     C34724   6.053   8.313   7.291  0.4211 -0.4919  0.1470
  258MOL0     O34725   6.053   8.374   7.171 -0.1211 -0.0194 -0.0323
  258MOL0     C34726   5.960   8.474   7.147  0.0073 -0.5488  0.0053
  258MOL0     C34727   6.004   8.605   7.108 -0.0931 -0.6318  0.6759
  258MOL0     C34728   5.915   8.708   7.073 -0.5898  0.3447 -0.4396
  258MOL0     C34729   5.780   8.676   7.076 -0.0416 -0.6700 -1.1009
  258MOL0     O34730   5.669   8.751   7.038 -0.3815 -0.4020 -0.1208
  258MOL0     C34731   5.676   8.891   7.017 -0.7464  0.0332  0.1235
  258MOL0     C34732   5.540   8.947   7.015 -0.5251 -0.6011  0.1662
  258MOL0     C34733   5.528   9.075   6.929  0.5897  0.0856 -1.4684
  258MOL0     C34734   5.389   9.142   6.936  0.5969  0.2989 -0.1302
  258MOL0     C34735   5.388   9.297   6.959  0.1273 -0.0426 -0.1816
  258MOL0     C34736   5.245   9.367   6.949 -0.2850 -0.3427 -0.1547
  258MOL0     C34737   5.243   9.517   6.999 -0.5645 -0.4036  0.2705
  258MOL0     C34738   5.170   9.608   6.910  0.0143 -0.4341  1.0511
  258MOL0    Cl34739   5.235   9.774   6.942 -0.1890  0.5607  0.0321
  258MOL0     C34740   5.735   8.544   7.111 -0.3315 -0.5875 -0.4699
  258MOL0     C34741   5.819   8.442   7.151  0.2200  0.5627  0.2389
  258MOL0     O34742   5.988   8.354   7.388 -0.1099  0.4875 -0.0500
  258MOL0     C34743   6.196   8.138   7.183  0.1762 -0.2624  0.2569
  258MOL0     C34744   6.266   8.017   7.182 -0.3431 -0.1487 -0.0921
  258MOL0     N34745   6.959   7.773   7.318 -0.1151  0.1984 -0.4916
  258MOL0     N34746   7.047   7.841   7.375  0.3518 -0.0566  0.5644
  258MOL0     C34747   7.030   8.699   7.066  0.2001 -0.4584  0.1464
  258MOL0     C34748   6.896   8.740   7.042 -0.5563  0.8712 -0.4761
  258MOL0     C34749   6.500   8.866   6.813  0.6259 -0.2522  0.3635
  258MOL0     C34750   6.430   8.844   6.933  1.2296 -0.5962  0.8142
  258MOL0     C34751   6.298   8.868   6.947 -0.2175 -0.6781  1.0482
  258MOL0     C34752   6.219   8.908   6.835 -0.7582 -0.2358 -0.1349
  258MOL0     O34753   6.081   8.900   6.854 -1.0913 -0.2322 -0.2308
  258MOL0     C34754   5.993   8.882   6.738 -0.7675 -0.3097  0.0553
  258MOL0     C34755   5.937   9.019   6.712 -0.7299  0.0636  0.4272
  258MOL0     C34756   5.823   9.005   6.607  0.1324  0.0050 -0.8195
  258MOL0     C34757   5.778   9.147   6.566  0.0701  0.2022  0.6776
  258MOL0     C34758   5.652   9.144   6.490  1.0436 -0.2175 -0.1078
  258MOL0     C34759   5.557   9.125   6.416  0.7748 -0.1476 -0.2862
  258MOL0     C34760   6.281   8.934   6.713 -0.6371 -0.4366 -0.1954
  258MOL0     C34761   6.422   8.917   6.699  0.9304 -0.1078 -0.2249
  258MOL0     C34762   6.478   8.948   6.572 -0.0854  0.1097  0.4208
  258MOL0     H34763   6.881   8.735   6.708 -2.4203 -1.8922  0.6088
  258MOL0     H34764   7.122   8.693   6.736 -1.4552  1.4841 -0.7824
  258MOL0     H34765   7.159   8.489   7.084 -1.0471 -2.2189 -0.5150
  258MOL0     H34766   7.306   8.447   7.006  0.7906  0.7875  2.0207
  258MOL0     H34767   7.337   8.691   7.172 -1.0939 -0.5150 -2.0367
  258MOL0     H34768   7.450   8.551   7.128  0.8765  1.3379  0.2815
  258MOL0     H34769   7.214   8.523   7.323 -0.8028 -3.0464  1.5564
  258MOL0     H34770   7.383   8.560   7.365 -2.2662  3.1060 -0.2291
  258MOL0     H34771   7.277   8.320   7.206 -0.6436  2.4975 -0.5378
  258MOL0     H34772   7.450   8.361   7.242  1.1839  1.4335  1.4707
  258MOL0     H34773   7.382   8.196   7.403 -1.1242 -0.4853 -1.1535
  258MOL0     H34774   7.365   8.347   7.489 -1.7284  1.0114  0.8659
  258MOL0     H34775   7.173   8.195   7.538  2.4313  0.7764  0.5965
  258MOL0     H34776   7.114   8.341   7.464 -1.0641 -2.0391  1.5373
  258MOL0     H34777   7.063   8.225   7.260  0.5067 -0.8315 -1.2781
  258MOL0     H34778   7.004   8.145   7.404  0.5119  0.5183  2.0378
  258MOL0     H34779   7.237   8.066   7.221  1.6319  0.2887  0.4299
  258MOL0     H34780   7.226   8.004   7.391 -1.2782 -0.0236  1.3749
  258MOL0     H34781   6.963   8.015   7.094  2.2902 -0.4603 -1.9977
  258MOL0     H34782   6.774   7.808   7.044 -2.0622 -0.3653 -0.0916
  258MOL0     H34783   6.755   7.688   7.175  1.5540 -1.2574 -2.2025
  258MOL0     H34784   6.671   7.977   7.219  1.9093  0.1613 -0.6151
  258MOL0     H34785   6.567   7.862   7.123 -2.0535  1.6054  1.7770
  258MOL0     H34786   6.688   7.799   7.401 -0.9721 -0.4263  0.0624
  258MOL0     H34787   6.574   7.699   7.313  1.4467 -0.5115 -1.1466
  258MOL0     H34788   6.496   7.984   7.388 -1.4259  0.2227  1.3430
  258MOL0     H34789   6.459   7.844   7.486  0.9600 -0.1258  0.2650
  258MOL0     H34790   6.217   7.938   7.507 -1.2935  0.1131 -0.2584
  258MOL0     H34791   6.059   8.130   7.488 -1.5930  0.1643 -2.0904
  258MOL0     H34792   6.108   8.631   7.091 -0.3177 -0.3728 -0.3816
  258MOL0     H34793   5.936   8.814   7.063 -0.2144  0.6078  2.2209
  258MOL0     H34794   5.738   8.935   7.096 -2.4894  1.3894  0.8086
  258MOL0     H34795   5.725   8.923   6.925 -0.5302  1.8264  0.8158
  258MOL0     H34796   5.472   8.875   6.971 -0.3160 -0.6584 -0.0615
  258MOL0     H34797   5.509   8.986   7.113 -0.4154  2.5523 -0.9422
  258MOL0     H34798   5.602   9.137   6.980  0.9234 -0.3257 -1.4428
  258MOL0     H34799   5.548   9.061   6.823  0.4775  0.0978 -1.4906
  258MOL0     H34800   5.340   9.109   7.028 -1.5873  0.5941 -1.1446
  258MOL0     H34801   5.329   9.111   6.851  1.7325 -1.3910 -0.3662
  258MOL0     H34802   5.451   9.344   6.883  1.4133 -1.4908 -0.0615
  258MOL0     H34803   5.422   9.310   7.062 -1.0021 -3.9907  0.8838
  258MOL0     H34804   5.218   9.364   6.843  0.6797  0.1741 -0.4271
  258MOL0     H34805   5.176   9.310   7.012 -0.5194  0.8911  0.7425
  258MOL0     H34806   5.347   9.551   7.001 -0.1578 -1.6270  0.4448
  258MOL0     H34807   5.206   9.515   7.101  2.1011 -0.1292  1.3269
  258MOL0     H34808   5.186   9.590   6.803 -2.9389 -2.7912  0.8645
  258MOL0     H34809   5.062   9.596   6.916 -0.5195 -0.1786 -3.8842
  258MOL0     H34810   5.630   8.517   7.108  0.1826 -2.8525 -3.6221
  258MOL0     H34811   5.776   8.347   7.180  0.9388  0.7943  2.2061
  258MOL0     H34812   6.204   8.194   7.090  0.7519 -0.7560  0.0056
  258MOL0     H34813   6.310   7.995   7.085  2.1621  0.6782  0.7870
  258MOL0     H34814   7.060   8.683   7.169 -0.5452  1.8442  0.7741
  258MOL0     H34815   6.831   8.755   7.127 -0.0437  2.5860 -0.3424
  258MOL0     H34816   6.484   8.811   7.020  2.9862  1.7776  0.7482
  258MOL0     H34817   6.260   8.866   7.049 -0.4311  0.5361  1.0143
  258MOL0     H34818   5.910   8.814   6.761 -0.4740 -0.0886  1.9398
  258MOL0     H34819   6.048   8.842   6.652  2.0720  1.4416  0.9181
  258MOL0     H34820   6.018   9.087   6.680 -0.0795 -0.5390  0.7684
  258MOL0     H34821   5.894   9.060   6.804 -1.6007 -0.2287  0.1545
  258MOL0     H34822   5.748   8.932   6.639  1.1760 -1.5291 -1.7921
  258MOL0     H34823   5.858   8.950   6.519 -1.6370 -1.2637 -0.8005
  258MOL0     H34824   5.765   9.208   6.656 -2.1489  1.1030 -0.1941
  258MOL0     H34825   5.858   9.191   6.506  0.5631 -0.2860  0.9701
  258MOL0     H34826   5.462   9.110   6.370 -0.2264  2.1316  0.8401
  258MOL0     H34827   6.217   8.980   6.639  1.5216 -0.1461 -1.9975
  258MOL0     H34828   6.514   8.853   6.532 -1.3069 -0.3670  0.3989
  258MOL0     H34829   6.395   8.989   6.513 -1.3029 -0.4187  1.7229
  258MOL0     H34830   6.558   9.022   6.575  0.8924 -0.6695 -2.6986
  259MOL0     O34831   9.492   1.415   0.558 -0.9435  0.0049  0.6386
  259MOL0     C34832   9.411   1.497   0.589  0.2908  0.5346  0.0144
  259MOL0     O34833   9.427   1.587   0.690  0.3119 -0.9233  0.4175
  259MOL0     C34834   9.554   1.599   0.734 -0.4498 -0.2298  0.1062
  259MOL0     C34835   9.607   1.517   0.834 -1.1034  0.6143 -0.7335
  259MOL0     C34836   9.736   1.554   0.884  0.5440  0.0989  0.0091
  259MOL0     C34837   9.808   1.662   0.833 -0.0341  0.3144 -0.0080
  259MOL0     O34838   9.925   1.690   0.902  1.3272 -0.4691  0.2629
  259MOL0     C34839  10.027   1.767   0.842  0.6242  0.0276  0.4905
  259MOL0     C34840  10.149   1.797   0.924 -0.7977 -0.5231 -0.3430
  259MOL0     C34841  10.118   1.852   1.064  0.8213  0.3925  0.6118
  259MOL0     C34842  10.246   1.860   1.143 -0.6760  0.1382  0.2451
  259MOL0     C34843  10.219   1.903   1.287 -0.6226 -0.0921  0.5017
  259MOL0     C34844  10.342   1.875   1.375 -1.0478 -0.0648  0.9699
  259MOL0     C34845  10.298   1.870   1.529 -0.0501  0.6504 -0.0058
  259MOL0     C34846  10.212   1.977   1.581  0.8020 -0.3704  0.0897
  259MOL0     N34847  10.251   2.109   1.534 -0.2111  0.4373 -0.3816
  259MOL0     C34848  10.374   2.173   1.525  0.7314 -0.1718  0.0092
  259MOL0     C34849  10.339   2.301   1.504 -0.0589  0.3828 -0.2554
  259MOL0     C34850  10.433   2.413   1.468  0.9503  0.2831  0.4839
  259MOL0     C34851  10.537   2.451   1.581  0.2386 -0.4211  0.2768
  259MOL0     C34852  10.637   2.546   1.524 -0.6197  0.2693 -0.1053
  259MOL0     C34853  10.741   2.580   1.636 -0.6083  0.0361 -0.1862
  259MOL0     O34854  10.819   2.469   1.679 -1.1066 -0.0630  0.8253
  259MOL0     C34855  10.915   2.496   1.774  0.0572 -0.6501  0.9048
  259MOL0     C34856  11.001   2.600   1.783  0.0907 -0.0817  0.2655
  259MOL0     C34857  11.093   2.612   1.880 -0.5541  0.3694 -0.7374
  259MOL0     C34858  11.111   2.516   1.982 -0.4851  0.4800  0.2040
  259MOL0     C34859  11.201   2.529   2.095  0.5561  0.3811 -0.8872
  259MOL0     O34860  11.218   2.423   2.180  0.3015  0.0188  0.2231
  259MOL0     C34861  11.318   2.431   2.273  0.4799 -0.5070  0.3001
  259MOL0     C34862  11.344   2.541   2.345 -0.3274 -0.2690 -0.1408
  259MOL0     C34863  11.451   2.548   2.438  1.1086  0.4964 -0.0351
  259MOL0     C34864  11.540   2.439   2.454  0.1017  0.0393 -0.1430
  259MOL0     O34865  11.626   2.425   2.553  0.0642  0.4574 -0.5222
  259MOL0     C34866  11.722   2.533   2.581 -0.1109 -0.5657 -0.4084
  259MOL0     C34867  11.831   2.495   2.689 -0.5115  0.3387 -0.2744
  259MOL0     C34868  11.941   2.603   2.682 -0.0881 -0.2225 -0.5849
  259MOL0     C34869  12.052   2.547   2.776 -0.1406 -0.3155  0.1257
  259MOL0     C34870  12.138   2.661   2.821 -0.6605 -0.4572  0.4993
  259MOL0     C34871  12.263   2.613   2.891 -0.1858 -0.4571 -0.5867
  259MOL0     C34872  12.341   2.727   2.958  0.0434 -0.7734 -0.0171
  259MOL0     C34873  12.379   2.710   3.109  0.3177 -0.8322 -0.0382
  259MOL0    Cl34874  12.538   2.792   3.145  0.4134  0.2056 -0.2956
  259MOL0     C34875  11.510   2.325   2.379 -0.0919 -0.3704  0.5147
  259MOL0     C34876  11.395   2.323   2.291 -1.0104  0.0775  0.3011
  259MOL0     O34877  11.270   2.630   2.089 -0.3917 -0.2090  0.1788
  259MOL0     C34878  11.026   2.406   1.980 -1.2466 -0.0080  1.0336
  259MOL0     C34879  10.926   2.403   1.879 -0.1860 -1.0204  0.5167
  259MOL0     N34880  10.204   2.311   1.488 -0.0221  0.2229 -0.8570
  259MOL0     N34881  10.150   2.202   1.515  0.1613  0.6006 -0.5873
  259MOL0     C34882   9.759   1.730   0.727 -0.1757 -0.6018  1.0021
  259MOL0     C34883   9.630   1.704   0.677  0.0470 -0.3053 -0.3124
  259MOL0     C34884   9.273   1.504   0.519 -0.3642 -0.1708  0.3264
  259MOL0     C34885   9.172   1.588   0.565  0.2849 -0.6963 -0.4409
  259MOL0     C34886   9.044   1.584   0.510 -0.2183  0.3839  0.0234
  259MOL0     C34887   9.012   1.502   0.405 -0.0156  0.1198  0.1821
  259MOL0     O34888   8.888   1.484   0.338 -0.7282  0.0172 -0.6824
  259MOL0     C34889   8.794   1.593   0.335  0.4404 -0.3859  0.8087
  259MOL0     C34890   8.722   1.568   0.198 -0.3911  0.1749 -0.6650
  259MOL0     C34891   8.602   1.659   0.161  1.0049 -0.2696  0.0958
  259MOL0     C34892   8.482   1.629   0.254 -0.1995 -0.0747  0.5875
  259MOL0     C34893   8.355   1.671   0.193 -0.4633  0.1042 -0.3898
  259MOL0     C34894   8.254   1.701   0.130 -0.5061  0.8269  0.7801
  259MOL0     C34895   9.107   1.404   0.374  1.2809 -0.3870  0.8999
  259MOL0     C34896   9.240   1.409   0.419 -0.5651 -1.0851 -0.3748
  259MOL0     C34897   9.327   1.294   0.370  0.9538 -0.1891  0.2396
  259MOL0     H34898   9.558   1.431   0.879  1.7972  0.0693  1.7730
  259MOL0     H34899   9.791   1.496   0.958  2.3945  0.9114 -0.6424
  259MOL0     H34900  10.059   1.710   0.754 -2.1867  0.6454 -1.0338
  259MOL0     H34901   9.982   1.860   0.808 -0.3420 -0.7955 -0.5575
  259MOL0     H34902  10.215   1.862   0.866 -1.8968  0.2654 -0.7352
  259MOL0     H34903  10.215   1.710   0.934  1.2450  0.4286 -3.6644
  259MOL0     H34904  10.058   1.779   1.117  3.5286 -1.9442  0.7299
  259MOL0     H34905  10.051   1.938   1.061 -2.6264 -2.1051 -0.2382
  259MOL0     H34906  10.300   1.765   1.145  0.5046  0.7362 -1.1595
  259MOL0     H34907  10.317   1.929   1.096 -1.2887  0.6797  0.1045
  259MOL0     H34908  10.182   2.006   1.287  0.5238  0.3279  0.6743
  259MOL0     H34909  10.128   1.857   1.328  0.4099 -2.0340  0.7572
  259MOL0     H34910  10.380   1.779   1.341 -0.2228  0.7366 -0.4692
  259MOL0     H34911  10.425   1.945   1.360 -0.3941 -1.2622 -1.5120
  259MOL0     H34912  10.388   1.866   1.592  0.2092 -2.1773 -0.4445
  259MOL0     H34913  10.248   1.776   1.553 -0.4071  1.8471  4.7395
  259MOL0     H34914  10.115   1.952   1.536  2.1531 -1.0173 -2.7077
  259MOL0     H34915  10.214   1.982   1.690  0.7070  2.0417  0.0217
  259MOL0     H34916  10.471   2.126   1.528  0.7533 -0.1767 -0.6632
  259MOL0     H34917  10.484   2.384   1.376  0.1901  2.2583 -0.6218
  259MOL0     H34918  10.370   2.497   1.440  0.2141 -0.6417 -0.7363
  259MOL0     H34919  10.489   2.477   1.675  0.4855 -3.6855  1.4257
  259MOL0     H34920  10.590   2.358   1.605  0.2710 -0.5888 -0.4110
  259MOL0     H34921  10.589   2.643   1.508 -0.1749  0.6688  0.8687
  259MOL0     H34922  10.667   2.514   1.424  1.1067 -0.3850  0.5924
  259MOL0     H34923  10.693   2.627   1.723 -0.2130 -1.2529  0.7612
  259MOL0     H34924  10.808   2.657   1.597  1.6002 -2.8563 -2.6318
  259MOL0     H34925  10.999   2.671   1.701 -3.5920 -1.5044 -1.1013
  259MOL0     H34926  11.155   2.701   1.887  0.3553 -0.2477 -0.6073
  259MOL0     H34927  11.283   2.630   2.336  2.3093  1.4639 -2.6075
  259MOL0     H34928  11.455   2.632   2.506  3.7818  0.5223 -0.1080
  259MOL0     H34929  11.772   2.550   2.485  0.1280 -0.4433 -0.2618
  259MOL0     H34930  11.663   2.619   2.616  0.0145 -0.7689  0.3158
  259MOL0     H34931  11.789   2.507   2.789  1.6392 -1.1481  0.8709
  259MOL0     H34932  11.875   2.397   2.669  3.7400  2.4268 -2.6943
  259MOL0     H34933  11.990   2.608   2.585  2.3054 -2.5288  0.3834
  259MOL0     H34934  11.904   2.703   2.709  0.9059 -0.0886  0.3673
  259MOL0     H34935  12.119   2.475   2.728  1.2770  1.6275 -0.9075
  259MOL0     H34936  12.013   2.495   2.864 -1.5720  1.2455  0.4593
  259MOL0     H34937  12.072   2.714   2.890  0.4280  1.5233  0.1187
  259MOL0     H34938  12.160   2.730   2.739 -0.3438 -1.8717 -0.6416
  259MOL0     H34939  12.239   2.534   2.963  2.4157 -1.3888 -0.6344
  259MOL0     H34940  12.342   2.572   2.827  1.9647 -1.3757  2.4345
  259MOL0     H34941  12.293   2.825   2.950 -1.6040 -0.9349  4.9314
  259MOL0     H34942  12.436   2.727   2.903 -1.6741 -2.1073 -3.2689
  259MOL0     H34943  12.293   2.753   3.161 -0.7539 -1.2748 -1.3739
  259MOL0     H34944  12.385   2.603   3.135  0.9699 -1.2095 -1.6175
  259MOL0     H34945  11.570   2.235   2.378 -2.1320 -1.9396 -3.6365
  259MOL0     H34946  11.385   2.236   2.227 -0.9793  0.3606 -0.0928
  259MOL0     H34947  11.033   2.337   2.064 -1.8696 -1.1924  0.1440
  259MOL0     H34948  10.850   2.326   1.871 -1.0731 -0.1111  0.0305
  259MOL0     H34949   9.818   1.806   0.677  0.4061 -3.5196 -3.2350
  259MOL0     H34950   9.588   1.770   0.603  1.7013 -0.4186 -1.4103
  259MOL0     H34951   9.193   1.663   0.640 -0.8047  0.5102 -1.2968
  259MOL0     H34952   8.967   1.649   0.550 -2.8375 -2.1425 -0.6491
  259MOL0     H34953   8.844   1.691   0.332  2.8032 -1.4202  2.5701
  259MOL0     H34954   8.723   1.586   0.418 -0.0573 -1.4311  0.3090
  259MOL0     H34955   8.695   1.463   0.187  1.5101 -0.4259  0.1978
  259MOL0     H34956   8.784   1.591   0.111 -0.3745  0.2305 -0.6384
  259MOL0     H34957   8.567   1.639   0.060 -1.4270  3.0801  0.1174
  259MOL0     H34958   8.628   1.765   0.158 -1.6532  0.4037 -1.8488
  259MOL0     H34959   8.480   1.521   0.273  0.1683  0.0944  1.6856
  259MOL0     H34960   8.493   1.675   0.353 -0.8943 -0.6042  0.9258
  259MOL0     H34961   8.168   1.725   0.070  0.1179 -0.4997 -0.7133
  259MOL0     H34962   9.083   1.332   0.296  0.5086  1.3517 -0.5413
  259MOL0     H34963   9.320   1.209   0.439 -3.7863  0.9280  1.5038
  259MOL0     H34964   9.282   1.269   0.273 -3.6322  3.6102  1.0456
  259MOL0     H34965   9.433   1.320   0.359  0.9919  1.5057  3.4084
  260MOL0     O34966   8.508   5.606   4.371 -0.5083  0.0405 -0.5354
  260MOL0     C34967   8.444   5.706   4.347  0.9057  1.1789 -0.5456
  260MOL0     O34968   8.497   5.834   4.326 -0.1079 -0.2255  0.2589
  260MOL0     C34969   8.629   5.857   4.340  0.4981  0.0465  0.1111
  260MOL0     C34970   8.662   5.993   4.374  0.1261  0.6863 -0.0035
  260MOL0     C34971   8.787   6.032   4.401  0.6184 -0.5654  0.9403
  260MOL0     C34972   8.895   5.945   4.399  0.5264  0.1598 -0.7446
  260MOL0     O34973   9.028   5.979   4.424  0.5281 -0.4897  1.0405
  260MOL0     C34974   9.054   6.127   4.431 -0.0042 -0.0679 -0.0104
  260MOL0     C34975   9.207   6.162   4.456 -0.7805 -0.0192 -0.3773
  260MOL0     C34976   9.216   6.321   4.486  0.0866  0.3042  0.4285
  260MOL0     C34977   9.348   6.361   4.547 -1.1697  0.1321 -0.3358
  260MOL0     C34978   9.353   6.353   4.701 -0.1440  0.5841  0.7114
  260MOL0     C34979   9.490   6.359   4.758 -0.7987 -0.1109 -0.6077
  260MOL0     C34980   9.594   6.251   4.723 -0.2185 -0.9148  0.5636
  260MOL0     C34981   9.542   6.107   4.714 -0.1733 -0.7721  0.6463
  260MOL0     N34982   9.485   6.055   4.839 -1.0770 -0.2015 -0.2787
  260MOL0     C34983   9.571   6.032   4.944 -0.1781  0.6434  0.1225
  260MOL0     C34984   9.523   5.925   5.007  0.4699  0.6373 -0.0593
  260MOL0     C34985   9.596   5.834   5.112 -0.0742 -0.5750  0.2964
  260MOL0     C34986   9.596   5.911   5.246 -0.6881  0.1815  0.0254
  260MOL0     C34987   9.688   6.037   5.238  0.0742  0.7542 -0.8982
  260MOL0     C34988   9.729   6.105   5.369 -0.6302  0.3921 -0.5827
  260MOL0     O34989   9.800   6.226   5.341 -0.3985 -0.6949 -0.1993
  260MOL0     C34990   9.933   6.257   5.381  0.1616  0.4344 -0.4487
  260MOL0     C34991   9.989   6.375   5.337  0.3987  0.2647 -1.0785
  260MOL0     C34992  10.116   6.408   5.380 -0.6185  0.0715  0.1357
  260MOL0     C34993  10.191   6.339   5.475 -0.1859  0.7264 -0.3569
  260MOL0     C34994  10.303   6.409   5.535  0.0070  0.6868 -0.4162
  260MOL0     O34995  10.367   6.346   5.637  0.1887 -0.2731  0.5582
  260MOL0     C34996  10.487   6.399   5.684  0.5621 -0.2479  0.2655
  260MOL0     C34997  10.494   6.457   5.809  0.7202  0.5202 -0.0767
  260MOL0     C34998  10.612   6.528   5.852  0.2728  0.6500  0.3399
  260MOL0     C34999  10.721   6.530   5.760  0.2683  0.1232 -0.2439
  260MOL0     O35000  10.812   6.631   5.770  0.0059 -0.2623 -0.3291
  260MOL0     C35001  10.903   6.676   5.663  0.7237  0.3983  0.0132
  260MOL0     C35002  10.918   6.828   5.668  0.2043 -0.3848 -0.7818
  260MOL0     C35003  10.983   6.883   5.803  0.4643 -1.1755 -0.2090
  260MOL0     C35004  10.973   7.040   5.806 -0.2495 -0.3274  0.4150
  260MOL0     C35005  11.078   7.122   5.872  0.5213 -1.0966 -0.5172
  260MOL0     C35006  11.202   7.163   5.787 -0.2779  0.5337  1.1265
  260MOL0     C35007  11.286   7.042   5.754 -0.0626  0.2259  0.0427
  260MOL0     C35008  11.415   7.096   5.698 -0.5007  0.3058  0.1266
  260MOL0    Cl35009  11.545   6.976   5.664  0.1424 -0.2987 -0.3165
  260MOL0     C35010  10.713   6.452   5.646 -0.9612  0.0180 -0.3528
  260MOL0     C35011  10.602   6.379   5.608  0.0884 -0.4201  0.9620
  260MOL0     O35012  10.337   6.515   5.485 -0.0027 -0.2513 -0.0035
  260MOL0     C35013  10.130   6.217   5.519 -1.0949  0.3913  0.1199
  260MOL0     C35014  10.006   6.171   5.465 -0.8364  0.3846 -0.7361
  260MOL0     N35015   9.400   5.896   4.952  0.1808  0.1125  0.3615
  260MOL0     N35016   9.378   5.973   4.848 -0.7028 -0.0560 -0.6646
  260MOL0     C35017   8.870   5.814   4.348  0.7618  0.3913 -0.4251
  260MOL0     C35018   8.740   5.765   4.323 -0.4700 -0.1984 -0.3787
  260MOL0     C35019   8.298   5.693   4.319  0.6561 -0.7953 -1.0529
  260MOL0     C35020   8.237   5.781   4.230 -0.9208  0.6391  0.2142
  260MOL0     C35021   8.101   5.765   4.193  0.4808 -0.7687 -0.5902
  260MOL0     C35022   8.023   5.676   4.270 -0.1416 -0.3805 -0.2528
  260MOL0     O35023   7.890   5.655   4.243  0.0911 -0.2556 -0.6698
  260MOL0     C35024   7.813   5.753   4.171 -0.0071  0.1308  0.4972
  260MOL0     C35025   7.781   5.701   4.027 -0.0652 -0.0049  0.1050
  260MOL0     C35026   7.738   5.554   4.011  0.3132  0.3910  0.4987
  260MOL0     C35027   7.679   5.532   3.867  0.0165 -0.3136  1.3274
  260MOL0     C35028   7.540   5.574   3.857  0.6344 -0.2367 -0.2403
  260MOL0     C35029   7.425   5.606   3.845 -0.3104  0.0463  0.5259
  260MOL0     C35030   8.079   5.595   4.362  0.1782 -0.0424 -0.1467
  260MOL0     C35031   8.211   5.602   4.392  0.4533 -0.2934  0.1719
  260MOL0     C35032   8.269   5.513   4.501  0.2892 -0.5801 -0.0512
  260MOL0     H35033   8.585   6.070   4.375 -2.4828 -1.7307  1.0985
  260MOL0     H35034   8.792   6.136   4.434 -0.4558 -0.8831  2.1871
  260MOL0     H35035   9.029   6.180   4.339 -3.2213 -0.6557  0.4095
  260MOL0     H35036   8.988   6.169   4.508 -1.5814 -3.6914  0.7822
  260MOL0     H35037   9.271   6.135   4.371  0.8128  0.0525  0.7535
  260MOL0     H35038   9.242   6.105   4.542  1.3328 -0.3623 -1.3819
  260MOL0     H35039   9.136   6.346   4.556  0.0075  0.7749  0.1711
  260MOL0     H35040   9.203   6.384   4.398 -0.2488  0.3593  0.5185
  260MOL0     H35041   9.429   6.300   4.505 -3.5958 -2.4048 -1.6297
  260MOL0     H35042   9.363   6.468   4.530  0.2346  0.2034  1.1569
  260MOL0     H35043   9.290   6.428   4.750  0.4528  1.2663  0.4559
  260MOL0     H35044   9.312   6.256   4.731  1.4258 -0.6093 -0.7740
  260MOL0     H35045   9.527   6.459   4.731  1.2027 -0.6877 -0.1240
  260MOL0     H35046   9.478   6.354   4.867 -0.5913 -0.6173 -0.6062
  260MOL0     H35047   9.681   6.257   4.789  0.0236 -0.0403  0.1739
  260MOL0     H35048   9.639   6.279   4.628  1.0444 -0.5396  1.2449
  260MOL0     H35049   9.463   6.108   4.639 -0.4960 -0.5940  0.9861
  260MOL0     H35050   9.625   6.045   4.678 -0.5226 -1.0013  0.2308
  260MOL0     H35051   9.672   6.070   4.956 -0.0534  0.8408 -1.3986
  260MOL0     H35052   9.537   5.743   5.128 -0.7004 -0.2289 -0.0000
  260MOL0     H35053   9.699   5.823   5.079 -0.1386 -0.7565  0.1534
  260MOL0     H35054   9.495   5.945   5.270 -1.1726  2.8974 -4.6426
  260MOL0     H35055   9.638   5.846   5.323  0.5183  2.7591  1.6709
  260MOL0     H35056   9.636   6.114   5.180 -1.1181 -1.1376 -2.4993
  260MOL0     H35057   9.776   6.006   5.181  1.0211  0.6408  0.5765
  260MOL0     H35058   9.784   6.033   5.429 -0.6995  0.2029 -0.7428
  260MOL0     H35059   9.641   6.138   5.426 -2.1164 -2.6683 -0.8737
  260MOL0     H35060   9.931   6.437   5.269 -0.1158 -1.5129 -2.3368
  260MOL0     H35061  10.155   6.505   5.350  0.5945  0.6367  3.0921
  260MOL0     H35062  10.399   6.473   5.860  1.7101  0.0547  2.0151
  260MOL0     H35063  10.612   6.592   5.940  0.6230 -0.3131  1.0646
  260MOL0     H35064  10.996   6.620   5.673  0.7438  0.1482 -1.3847
  260MOL0     H35065  10.869   6.656   5.561 -0.2176 -1.2449  0.6097
  260MOL0     H35066  10.975   6.864   5.582  0.8865 -1.5580 -0.8335
  260MOL0     H35067  10.822   6.880   5.665 -0.0270 -0.7958 -0.6211
  260MOL0     H35068  10.938   6.826   5.884 -0.3873  1.0652  0.9986
  260MOL0     H35069  11.087   6.849   5.806  0.6054 -0.6805  1.0021
  260MOL0     H35070  10.880   7.068   5.857 -1.2637 -1.3004 -0.8127
  260MOL0     H35071  10.961   7.070   5.701  2.3959  1.2196  0.4839
  260MOL0     H35072  11.128   7.078   5.959  1.3152  2.1552  0.8255
  260MOL0     H35073  11.036   7.219   5.904 -0.5059 -2.4948  2.8478
  260MOL0     H35074  11.174   7.214   5.695  1.4427  0.4242  0.5160
  260MOL0     H35075  11.267   7.237   5.835 -0.1987  0.1383  1.6361
  260MOL0     H35076  11.239   6.966   5.690  0.0962 -0.6861  0.9770
  260MOL0     H35077  11.317   6.998   5.849  0.2411  0.3417 -0.0024
  260MOL0     H35078  11.408   7.154   5.606  0.7178 -1.0862 -0.8961
  260MOL0     H35079  11.464   7.162   5.771  2.7559  0.6603 -2.1480
  260MOL0     H35080  10.805   6.442   5.589  0.0334 -0.2258  1.2360
  260MOL0     H35081  10.588   6.321   5.518 -0.0574  2.5722 -1.0745
  260MOL0     H35082  10.184   6.159   5.594 -0.3810 -1.3890 -1.6673
  260MOL0     H35083   9.975   6.078   5.512  2.3022 -1.3748 -1.8542
  260MOL0     H35084   8.954   5.745   4.355  0.2087 -0.1599  1.1629
  260MOL0     H35085   8.722   5.660   4.302 -2.2069 -0.4541  2.0342
  260MOL0     H35086   8.311   5.843   4.182  0.3364 -2.2911 -1.9117
  260MOL0     H35087   8.064   5.818   4.106  0.6841  0.1800 -0.1158
  260MOL0     H35088   7.873   5.844   4.160  1.4210 -0.3728  3.2815
  260MOL0     H35089   7.719   5.775   4.221 -1.6340  0.1581 -2.3892
  260MOL0     H35090   7.881   5.715   3.987  0.9422 -0.3048  2.3828
  260MOL0     H35091   7.714   5.776   3.983 -2.2811 -1.0710  1.5041
  260MOL0     H35092   7.672   5.543   4.097 -0.3628 -3.4571 -0.3638
  260MOL0     H35093   7.825   5.489   4.014 -1.3437 -2.1161 -1.5066
  260MOL0     H35094   7.729   5.607   3.804 -2.0880  1.3686  1.5577
  260MOL0     H35095   7.696   5.436   3.818  0.1635 -0.2569  1.2635
  260MOL0     H35096   7.321   5.625   3.827 -0.0154 -0.5221 -2.2581
  260MOL0     H35097   8.013   5.524   4.410 -2.4444  0.9911 -1.9791
  260MOL0     H35098   8.190   5.451   4.545  1.3077 -2.9402 -1.3726
  260MOL0     H35099   8.337   5.445   4.450 -1.7585 -1.0981 -2.2812
  260MOL0     H35100   8.302   5.579   4.581  1.0929  1.2566 -1.8020
  261MOL0     O35101   4.893   8.857   6.943 -0.0802  0.2867 -0.3167
  261MOL0     C35102   4.964   8.959   6.930  0.3938  0.5807  0.5145
  261MOL0     O35103   5.091   8.955   6.884 -0.4440  0.4211  0.4217
  261MOL0     C35104   5.161   8.832   6.888  0.8616  0.5484 -0.4496
  261MOL0     C35105   5.239   8.775   6.992 -0.4478  0.5167 -0.2084
  261MOL0     C35106   5.301   8.646   6.974  0.4161 -0.2117 -0.5743
  261MOL0     C35107   5.292   8.577   6.852 -0.4325  0.4708  0.4586
  261MOL0     O35108   5.335   8.448   6.843 -0.4800 -0.1257 -0.0504
  261MOL0     C35109   5.465   8.426   6.900  0.3972 -0.4487  0.4708
  261MOL0     C35110   5.503   8.286   6.856  0.8022 -0.0613  0.0413
  261MOL0     C35111   5.627   8.240   6.938  0.4177  0.2291 -0.1733
  261MOL0     C35112   5.665   8.102   6.890 -0.5190 -0.0682 -0.5264
  261MOL0     C35113   5.790   8.049   6.947 -0.4282  0.7826 -0.0984
  261MOL0     C35114   5.775   8.004   7.089 -0.2580  0.6555 -0.4587
  261MOL0     C35115   5.897   7.903   7.124  0.6797 -0.0568  0.5749
  261MOL0     C35116   5.854   7.765   7.084  0.8181  0.1052  0.1772
  261MOL0     N35117   5.952   7.665   7.089  0.4413  0.8389  0.8236
  261MOL0     C35118   6.054   7.656   7.180  0.4364  0.7570  0.4869
  261MOL0     C35119   6.123   7.541   7.157 -0.1731 -0.3657  0.5132
  261MOL0     C35120   6.247   7.490   7.226  0.0334 -0.2949 -0.3480
  261MOL0     C35121   6.366   7.467   7.130  0.7946 -0.4117  0.9011
  261MOL0     C35122   6.422   7.335   7.149 -0.7480  0.0113  0.6808
  261MOL0     C35123   6.566   7.312   7.116  0.0191 -0.2192  0.5779
  261MOL0     O35124   6.639   7.406   7.199 -0.8421  0.1281 -0.1026
  261MOL0     C35125   6.777   7.389   7.201 -0.1515 -0.0085 -1.1153
  261MOL0     C35126   6.854   7.311   7.120 -0.4932 -0.5160  0.5694
  261MOL0     C35127   6.991   7.310   7.130  0.4801  0.4736 -0.0728
  261MOL0     C35128   7.057   7.364   7.242 -0.7569 -0.5304 -0.7094
  261MOL0     C35129   7.203   7.368   7.257  0.1233 -0.1965 -0.4199
  261MOL0     O35130   7.264   7.291   7.167 -0.4280  0.1842  0.7683
  261MOL0     C35131   7.404   7.262   7.174 -0.1736 -0.5984  1.6681
  261MOL0     C35132   7.487   7.268   7.285 -0.1157 -0.7748 -0.2371
  261MOL0     C35133   7.622   7.244   7.269 -0.4381 -1.0345  0.0556
  261MOL0     C35134   7.683   7.220   7.142  0.6385  0.3024 -0.0777
  261MOL0     O35135   7.817   7.213   7.146  0.3041 -0.3568  1.0221
  261MOL0     C35136   7.885   7.118   7.064 -0.2218  0.0383 -0.3225
  261MOL0     C35137   8.039   7.150   7.055  0.4119  0.0663  0.0263
  261MOL0     C35138   8.073   7.280   6.974  0.1929 -0.3898 -0.6295
  261MOL0     C35139   8.198   7.256   6.889 -0.0625  0.4312  0.8685
  261MOL0     C35140   8.185   7.142   6.778  0.0450 -0.2649 -0.5146
  261MOL0     C35141   8.313   7.091   6.726 -0.9225  0.0913 -0.2987
  261MOL0     C35142   8.312   6.982   6.616 -0.1862  0.6259  0.7485
  261MOL0     C35143   8.280   7.038   6.475 -0.0342  0.5790 -0.0500
  261MOL0    Cl35144   8.301   6.920   6.334 -0.6083  0.0451  0.0346
  261MOL0     C35145   7.596   7.215   7.027 -0.4405 -0.3926 -0.1915
  261MOL0     C35146   7.453   7.230   7.052 -0.0813  0.4184 -0.0503
  261MOL0     O35147   7.257   7.445   7.332 -0.5451 -0.3810  0.3059
  261MOL0     C35148   6.975   7.431   7.341  0.3539 -0.3753 -0.1600
  261MOL0     C35149   6.836   7.453   7.311  0.2380  0.6582 -0.4081
  261MOL0     N35150   6.059   7.474   7.046 -0.1380 -0.2129 -0.5230
  261MOL0     N35151   5.962   7.550   7.012  0.6930 -1.0065 -1.1714
  261MOL0     C35152   5.218   8.635   6.749  0.3143  0.4328  0.1143
  261MOL0     C35153   5.155   8.760   6.774  0.0348  0.7839 -0.0022
  261MOL0     C35154   4.910   9.090   6.949 -0.2853 -0.0637 -0.1331
  261MOL0     C35155   4.829   9.123   7.058 -0.0991  0.2833 -0.0197
  261MOL0     C35156   4.764   9.245   7.070 -0.2436 -0.0036  0.4025
  261MOL0     C35157   4.795   9.343   6.975 -0.0572  0.2563  0.0113
  261MOL0     O35158   4.746   9.474   6.964  0.3763  0.7384  0.3040
  261MOL0     C35159   4.631   9.513   7.039 -0.3206  1.1024  0.5239
  261MOL0     C35160   4.504   9.474   6.958 -0.4846 -0.3036  0.2143
  261MOL0     C35161   4.517   9.509   6.807 -1.0649  1.4685  0.8738
  261MOL0     C35162   4.377   9.475   6.728  0.2802  0.1971  0.3816
  261MOL0     C35163   4.269   9.571   6.767  0.1401  0.5036 -0.3275
  261MOL0     C35164   4.187   9.647   6.800 -0.0902  1.0207  0.5737
  261MOL0     C35165   4.876   9.318   6.863  0.5984  0.7238  0.1612
  261MOL0     C35166   4.932   9.191   6.847 -0.0807  0.6246  0.5041
  261MOL0     C35167   5.021   9.168   6.727  0.0112  0.5632 -0.0438
  261MOL0     H35168   5.226   8.817   7.091  2.9297  2.2822 -0.3955
  261MOL0     H35169   5.359   8.599   7.052  3.1437 -0.7641 -2.7615
  261MOL0     H35170   5.538   8.506   6.898 -0.9642  0.8429  0.4640
  261MOL0     H35171   5.439   8.396   7.002  1.2015 -0.8730  0.5573
  261MOL0     H35172   5.518   8.297   6.749 -2.7754  1.3552 -0.4564
  261MOL0     H35173   5.423   8.212   6.865 -0.5012  0.6759 -3.8580
  261MOL0     H35174   5.608   8.227   7.045  1.0790  3.1047  0.3750
  261MOL0     H35175   5.708   8.313   6.934  1.2339 -0.6860 -0.7491
  261MOL0     H35176   5.590   8.024   6.905  0.8198 -1.5822 -1.3004
  261MOL0     H35177   5.667   8.106   6.780 -2.5910 -3.5882 -0.8561
  261MOL0     H35178   5.811   7.963   6.882 -0.7428 -0.5284  1.4478
  261MOL0     H35179   5.870   8.123   6.938 -0.5829  1.1968  1.5423
  261MOL0     H35180   5.785   8.089   7.157 -0.0493  1.3289 -1.3101
  261MOL0     H35181   5.678   7.955   7.101 -0.1848  0.2210 -1.5306
  261MOL0     H35182   5.926   7.898   7.230  0.9449 -0.1374  0.5004
  261MOL0     H35183   5.987   7.928   7.067 -0.5511  1.2837 -0.8916
  261MOL0     H35184   5.773   7.728   7.147  0.8005  0.8282  0.5984
  261MOL0     H35185   5.819   7.770   6.981  2.8289  1.6702 -0.5016
  261MOL0     H35186   6.084   7.722   7.261 -3.1546 -1.5563  4.0270
  261MOL0     H35187   6.275   7.563   7.302 -1.5244  3.4352 -3.0774
  261MOL0     H35188   6.219   7.391   7.263  3.2758 -1.9604 -1.9133
  261MOL0     H35189   6.335   7.471   7.026  4.4301 -0.6853 -0.3271
  261MOL0     H35190   6.444   7.542   7.148  2.3918 -0.5195 -4.0349
  261MOL0     H35191   6.377   7.256   7.087  1.8848 -0.5325 -0.7089
  261MOL0     H35192   6.406   7.308   7.253 -1.1571  2.4772  1.3122
  261MOL0     H35193   6.578   7.331   7.009  1.6879  1.2771  0.9827
  261MOL0     H35194   6.590   7.208   7.142  1.1176 -0.4769 -1.2930
  261MOL0     H35195   6.819   7.271   7.025  0.5099  2.0083 -0.9600
  261MOL0     H35196   7.052   7.269   7.051  0.4615 -1.0875  0.6916
  261MOL0     H35197   7.437   7.280   7.381  0.9625 -3.1884  0.6969
  261MOL0     H35198   7.678   7.276   7.357 -1.9687 -0.1809  0.7605
  261MOL0     H35199   7.863   7.021   7.109  0.2244  0.4773  0.8889
  261MOL0     H35200   7.853   7.118   6.960 -1.3294  0.3158  0.0058
  261MOL0     H35201   8.071   7.158   7.159 -1.3426 -2.3004  0.8517
  261MOL0     H35202   8.081   7.053   7.025  1.2962 -0.1938  1.9414
  261MOL0     H35203   7.989   7.307   6.909  0.3243  4.2360  0.8099
  261MOL0     H35204   8.095   7.362   7.043  1.6138  0.0483 -1.5546
  261MOL0     H35205   8.292   7.230   6.940  1.6178  0.0529 -2.2048
  261MOL0     H35206   8.212   7.352   6.839 -0.3093 -1.6296 -3.5899
  261MOL0     H35207   8.114   7.176   6.702 -2.7964 -2.9124  0.7229
  261MOL0     H35208   8.133   7.056   6.822 -4.3521  0.9876 -2.6405
  261MOL0     H35209   8.375   7.172   6.686  3.6311 -3.0237 -0.3435
  261MOL0     H35210   8.376   7.047   6.804 -1.5007 -2.1423 -1.0209
  261MOL0     H35211   8.240   6.906   6.649  1.2121 -0.8104  0.6112
  261MOL0     H35212   8.407   6.928   6.623 -1.5253 -1.9737  0.1228
  261MOL0     H35213   8.175   7.067   6.482  0.2818  1.4579  1.2013
  261MOL0     H35214   8.337   7.130   6.469  2.0776 -0.6744 -0.0824
  261MOL0     H35215   7.633   7.192   6.928  0.9272  0.1830  0.1710
  261MOL0     H35216   7.389   7.230   6.964  1.5251  0.5202 -1.2515
  261MOL0     H35217   7.016   7.486   7.424 -1.5708  4.1680 -1.8557
  261MOL0     H35218   6.772   7.520   7.366  1.6881  1.4183  0.3984
  261MOL0     H35219   5.220   8.587   6.652 -1.2063  2.2007 -0.8544
  261MOL0     H35220   5.086   8.785   6.694  0.7361  0.2916 -0.7819
  261MOL0     H35221   4.805   9.051   7.135  1.8812 -1.8426 -1.3010
  261MOL0     H35222   4.705   9.254   7.161 -0.2770  0.6339  0.3217
  261MOL0     H35223   4.635   9.622   7.047 -0.7276  1.3164 -1.6188
  261MOL0     H35224   4.629   9.471   7.140  0.7624 -2.7230 -0.8630
  261MOL0     H35225   4.415   9.520   7.000 -1.6388 -1.5730 -0.7681
  261MOL0     H35226   4.490   9.365   6.964 -2.5850 -0.0611  0.4114
  261MOL0     H35227   4.594   9.440   6.770 -3.9170 -0.7744 -1.3280
  261MOL0     H35228   4.543   9.613   6.785  0.3769  1.1224  0.8231
  261MOL0     H35229   4.393   9.485   6.621 -1.3674  1.7952  0.2331
  261MOL0     H35230   4.339   9.376   6.755 -0.3147  0.8200  1.9522
  261MOL0     H35231   4.102   9.701   6.838  0.7342  2.9951 -0.2381
  261MOL0     H35232   4.891   9.391   6.785  0.8486  0.1123 -0.3790
  261MOL0     H35233   5.001   9.241   6.648 -1.0456  0.8017  0.4191
  261MOL0     H35234   5.127   9.148   6.746 -0.4599 -1.1789  0.9890
  261MOL0     H35235   4.982   9.077   6.682  0.6637 -0.2659  1.0209
  262MOL0     O35236   6.603   5.438  10.683  0.5060  0.0873 -0.1879
  262MOL0     C35237   6.628   5.381  10.786  1.0245 -1.0185 -0.9228
  262MOL0     O35238   6.747   5.387  10.851 -0.4153 -0.2496  0.8103
  262MOL0     C35239   6.845   5.476  10.813 -0.7944 -0.7954  0.3370
  262MOL0     C35240   6.917   5.535  10.917  0.6398 -0.7828  0.2712
  262MOL0     C35241   7.028   5.618  10.895 -0.0223  0.7139 -0.3392
  262MOL0     C35242   7.086   5.618  10.761  0.6783 -0.7904  0.4119
  262MOL0     O35243   7.208   5.681  10.728  0.3430  0.1474 -0.6555
  262MOL0     C35244   7.294   5.727  10.841  0.5452 -0.3570 -0.6127
  262MOL0     C35245   7.422   5.800  10.797  0.1138 -0.7758 -0.2353
  262MOL0     C35246   7.544   5.771  10.890 -0.2395  0.1466 -0.0723
  262MOL0     C35247   7.644   5.882  10.857  0.2480 -0.3872 -0.6664
  262MOL0     C35248   7.759   5.879  10.967  0.6422 -0.8941  0.3043
  262MOL0     C35249   7.856   5.986  10.941 -0.4085  0.1579 -0.2623
  262MOL0     C35250   7.978   5.966  11.034 -0.4221 -1.0046 -0.1886
  262MOL0     C35251   8.060   6.107  11.025 -0.5554  0.1534 -0.2227
  262MOL0     N35252   8.189   6.107  11.090 -1.0739  0.1322 -0.0692
  262MOL0     C35253   8.221   6.051  11.207 -0.5165  0.4861  0.0857
  262MOL0     C35254   8.349   6.085  11.230 -0.2778  0.2517  0.1358
  262MOL0     C35255   8.435   6.029  11.348  0.4309  0.0273 -0.1055
  262MOL0     C35256   8.582   6.072  11.357 -0.1287  0.1072 -0.0291
  262MOL0     C35257   8.636   6.012  11.484 -0.8410 -0.8201 -0.3482
  262MOL0     C35258   8.770   6.068  11.519 -1.1808  0.1172  0.3869
  262MOL0     O35259   8.767   6.205  11.549 -0.5579  0.3472 -0.5602
  262MOL0     C35260   8.872   6.258  11.622 -0.1624 -0.9059 -0.7707
  262MOL0     C35261   8.840   6.349  11.720  0.0411 -0.2739 -0.0817
  262MOL0     C35262   8.935   6.431  11.789 -0.0118  0.6381  0.6751
  262MOL0     C35263   9.073   6.396  11.765  0.0381 -0.7017 -0.0300
  262MOL0     C35264   9.177   6.475  11.835  0.1138 -0.4283 -1.1727
  262MOL0     O35265   9.307   6.425  11.832 -0.4706 -0.0325  0.8635
  262MOL0     C35266   9.407   6.487  11.900 -0.0437 -0.7251  0.4385
  262MOL0     C35267   9.478   6.410  11.994  0.6224  0.0154  0.3110
  262MOL0     C35268   9.587   6.468  12.051  0.1083 -0.4669  0.3770
  262MOL0     C35269   9.621   6.604  12.037  0.2865  1.0342  0.0413
  262MOL0     O35270   9.729   6.668  12.105  0.0574  0.0066 -0.1146
  262MOL0     C35271   9.801   6.601  12.214  0.7015  0.7068  0.5817
  262MOL0     C35272   9.933   6.676  12.225 -0.1921 -0.4452 -0.0774
  262MOL0     C35273  10.032   6.625  12.336 -0.2685  0.3614 -1.0804
  262MOL0     C35274  10.047   6.471  12.350 -0.5957 -0.1532 -0.3136
  262MOL0     C35275  10.140   6.427  12.464  0.4157 -0.6606  0.5077
  262MOL0     C35276  10.283   6.472  12.449  0.5154  0.3402 -0.3528
  262MOL0     C35277  10.373   6.395  12.555 -0.2006  1.5755  0.6404
  262MOL0     C35278  10.508   6.475  12.581  0.7553 -0.3423 -0.0373
  262MOL0    Cl35279  10.608   6.445  12.438 -0.5273  0.1661 -0.0304
  262MOL0     C35280   9.557   6.678  11.938 -0.0721 -0.0161 -0.5518
  262MOL0     C35281   9.441   6.626  11.871 -0.2221  0.3372  0.3224
  262MOL0     O35282   9.131   6.571  11.906 -0.4965 -0.4762 -0.9994
  262MOL0     C35283   9.111   6.290  11.682  0.1604  0.9837 -0.5429
  262MOL0     C35284   9.010   6.228  11.617  1.4575  0.0539  0.6434
  262MOL0     N35285   8.382   6.179  11.138  0.3079  0.1950  0.2791
  262MOL0     N35286   8.287   6.191  11.050  0.5168  0.4601  0.4405
  262MOL0     C35287   7.013   5.563  10.659 -0.0376  0.2995 -0.4674
  262MOL0     C35288   6.893   5.496  10.689  0.0518  0.8789  0.6635
  262MOL0     C35289   6.511   5.311  10.851  0.4793  0.1374  0.0998
  262MOL0     C35290   6.395   5.300  10.779  0.4202 -0.1936  0.1872
  262MOL0     C35291   6.279   5.229  10.834  0.0008  0.4148 -0.5355
  262MOL0     C35292   6.269   5.205  10.963 -1.0314  0.0061 -0.4453
  262MOL0     O35293   6.164   5.146  11.017 -0.4252  0.2898 -0.1417
  262MOL0     C35294   6.127   5.165  11.150  0.1184 -0.1922 -0.4717
  262MOL0     C35295   5.978   5.136  11.163 -0.6294 -0.3855  0.6032
  262MOL0     C35296   5.907   5.153  11.297 -0.9581  0.5126 -0.1879
  262MOL0     C35297   5.914   5.301  11.345  1.1373  0.6518 -0.0497
  262MOL0     C35298   5.777   5.349  11.387  0.0487 -0.2419  0.3865
  262MOL0     C35299   5.673   5.402  11.408  1.2781 -0.0787 -0.6066
  262MOL0     C35300   6.383   5.215  11.035  0.2017  0.2019 -0.1555
  262MOL0     C35301   6.504   5.270  10.983 -0.0354  0.8090 -0.5719
  262MOL0     C35302   6.617   5.294  11.083  0.4333  0.2532  1.0150
  262MOL0     H35303   6.879   5.521  11.018 -1.0055  1.6034  0.0548
  262MOL0     H35304   7.073   5.661  10.983 -1.1869  0.2476  0.5048
  262MOL0     H35305   7.239   5.804  10.896  1.2456 -0.4822  0.2862
  262MOL0     H35306   7.319   5.643  10.907  2.7422  0.8465  0.1647
  262MOL0     H35307   7.395   5.906  10.797 -1.4122 -1.1401  0.0337
  262MOL0     H35308   7.446   5.774  10.694 -0.4128  1.0551 -0.8541
  262MOL0     H35309   7.592   5.676  10.863 -0.1695 -0.4059  1.8577
  262MOL0     H35310   7.514   5.768  10.995  1.2142  0.1738  0.3727
  262MOL0     H35311   7.673   5.872  10.752 -0.8924 -0.4659 -0.9833
  262MOL0     H35312   7.595   5.978  10.871  3.3423  1.3217 -0.5476
  262MOL0     H35313   7.720   5.897  11.068  1.2244 -0.6196  0.4818
  262MOL0     H35314   7.805   5.780  10.966  1.9356 -0.3189 -1.4231
  262MOL0     H35315   7.897   5.975  10.840 -3.2977  2.0315 -1.7839
  262MOL0     H35316   7.817   6.088  10.945  0.9148  0.7139 -0.9125
  262MOL0     H35317   8.042   5.882  11.003 -0.2342 -2.5420  3.7083
  262MOL0     H35318   7.952   5.930  11.134 -1.5774 -3.2036 -1.2068
  262MOL0     H35319   8.075   6.145  10.923 -1.2759 -0.9722 -0.7656
  262MOL0     H35320   7.996   6.182  11.073 -1.1610  0.0765 -0.8973
  262MOL0     H35321   8.170   5.978  11.269  2.1487 -2.3082 -0.7391
  262MOL0     H35322   8.385   6.029  11.445  3.1631 -1.3919  1.4299
  262MOL0     H35323   8.444   5.923  11.324 -1.3264  0.2441 -2.0070
  262MOL0     H35324   8.645   6.041  11.273 -0.1365  2.4097 -0.9254
  262MOL0     H35325   8.589   6.181  11.364  0.1532  0.0861  0.0649
  262MOL0     H35326   8.652   5.904  11.469  0.5793 -0.5964 -0.6418
  262MOL0     H35327   8.574   6.034  11.571  0.1081  3.1440 -0.4853
  262MOL0     H35328   8.841   6.063  11.436 -0.5642  0.4369  0.8891
  262MOL0     H35329   8.815   6.004  11.595 -1.0237 -1.8946 -1.3134
  262MOL0     H35330   8.734   6.368  11.737  0.1278  1.7555 -1.4178
  262MOL0     H35331   8.905   6.508  11.861  1.4260 -0.0496  2.0738
  262MOL0     H35332   9.448   6.309  12.018 -0.7068  0.4172  0.4404
  262MOL0     H35333   9.649   6.410  12.119 -0.0158 -2.2791 -1.0063
  262MOL0     H35334   9.735   6.606  12.301  1.8363  0.9337  1.4638
  262MOL0     H35335   9.836   6.500  12.192  4.2160  1.9263 -0.0820
  262MOL0     H35336   9.992   6.658  12.135  1.0991 -1.3966  0.9205
  262MOL0     H35337   9.913   6.783  12.238  2.1140  0.0406 -0.1199
  262MOL0     H35338  10.133   6.664  12.324 -0.0569  0.0374 -0.4201
  262MOL0     H35339   9.994   6.671  12.428 -0.2794  0.5401 -1.1717
  262MOL0     H35340  10.086   6.428  12.258 -2.9630 -0.9435 -1.0220
  262MOL0     H35341   9.947   6.434  12.378  0.3173 -0.7622  2.5030
  262MOL0     H35342  10.139   6.318  12.477 -0.3069 -0.3550  3.8262
  262MOL0     H35343  10.093   6.462  12.556  1.0467 -2.4754  1.5686
  262MOL0     H35344  10.322   6.453  12.348  0.8481  1.0609 -0.3688
  262MOL0     H35345  10.284   6.580  12.467 -0.0805 -0.0800  2.8114
  262MOL0     H35346  10.383   6.289  12.532 -0.5267  1.6518  0.1263
  262MOL0     H35347  10.315   6.405  12.648 -1.5735  3.0429 -0.3106
  262MOL0     H35348  10.487   6.582  12.592  1.2022 -0.1309 -1.1085
  262MOL0     H35349  10.559   6.440  12.671  0.0457 -0.0299  0.4931
  262MOL0     H35350   9.601   6.774  11.915  2.8567 -1.5262 -1.8378
  262MOL0     H35351   9.391   6.692  11.801 -1.7020 -0.0866  0.9439
  262MOL0     H35352   9.216   6.266  11.682  0.3325  1.6937 -0.7964
  262MOL0     H35353   9.041   6.149  11.549  1.8669  0.8248 -0.0960
  262MOL0     H35354   7.048   5.574  10.557  0.7819 -0.1939 -0.2525
  262MOL0     H35355   6.851   5.442  10.604 -0.1974 -0.6876  1.7368
  262MOL0     H35356   6.370   5.343  10.682 -2.3152 -0.4275  0.7139
  262MOL0     H35357   6.191   5.214  10.773 -0.0943 -2.6547  0.2278
  262MOL0     H35358   6.134   5.267  11.187 -0.2336 -1.5161  3.9028
  262MOL0     H35359   6.185   5.100  11.218 -1.8985 -1.2469  0.3249
  262MOL0     H35360   5.961   5.032  11.133  0.5703 -0.0154 -1.5083
  262MOL0     H35361   5.935   5.199  11.085  2.3771  3.7588  1.9073
  262MOL0     H35362   5.973   5.094  11.361  0.3248 -0.5092 -2.3543
  262MOL0     H35363   5.807   5.110  11.297 -0.3620 -1.0311  1.8281
  262MOL0     H35364   5.974   5.322  11.435  3.0584 -0.0266 -1.1017
  262MOL0     H35365   5.958   5.361  11.265  3.4824 -2.7150 -1.5400
  262MOL0     H35366   5.581   5.448  11.437  1.3444  0.2711 -0.9438
  262MOL0     H35367   6.385   5.199  11.143  1.7252  3.3020  0.3724
  262MOL0     H35368   6.583   5.288  11.187  0.9250 -0.8276  1.1246
  262MOL0     H35369   6.698   5.220  11.083 -0.8613 -1.3251 -1.8458
  262MOL0     H35370   6.658   5.395  11.071  1.4175 -0.3831 -1.8919
  263MOL0     O35371   0.671   8.130   0.810 -0.1167  0.1702 -0.2428
  263MOL0     C35372   0.643   8.216   0.730  0.1166 -0.0063 -0.4770
  263MOL0     O35373   0.713   8.338   0.704  0.0562  0.4972 -0.5169
  263MOL0     C35374   0.840   8.366   0.754  0.2010 -1.0271 -0.0570
  263MOL0     C35375   0.891   8.326   0.884  0.4638 -0.2827  0.2590
  263MOL0     C35376   1.005   8.379   0.938 -0.0693 -0.1615 -0.2943
  263MOL0     C35377   1.086   8.455   0.863  0.5088 -1.1694  0.5078
  263MOL0     O35378   1.205   8.514   0.909  0.0763 -0.0625 -1.3365
  263MOL0     C35379   1.249   8.495   1.052 -0.0000  0.0375  0.4616
  263MOL0     C35380   1.388   8.558   1.080  0.1078  0.1803 -0.1798
  263MOL0     C35381   1.432   8.543   1.222  0.1569 -0.1748  1.0562
  263MOL0     C35382   1.375   8.650   1.317 -0.1984  0.2187 -0.1907
  263MOL0     C35383   1.418   8.633   1.463  1.0992 -0.3333 -0.0304
  263MOL0     C35384   1.574   8.667   1.478 -0.5729 -0.3250 -0.2917
  263MOL0     C35385   1.611   8.638   1.623  0.1103  0.2743 -0.8982
  263MOL0     C35386   1.759   8.603   1.648 -0.4916  0.2633  0.7719
  263MOL0     N35387   1.819   8.510   1.549 -0.8109  0.1071 -0.1479
  263MOL0     C35388   1.907   8.550   1.453 -0.1439  0.3286  0.2011
  263MOL0     C35389   1.940   8.436   1.386  0.1444  0.4100  0.1444
  263MOL0     C35390   2.042   8.425   1.279 -0.3055 -0.0951  0.6730
  263MOL0     C35391   2.173   8.497   1.325 -0.3845  0.0937 -0.3724
  263MOL0     C35392   2.262   8.412   1.412  0.3996  0.8854 -0.0590
  263MOL0     C35393   2.399   8.463   1.444  0.2247  0.0006 -0.6626
  263MOL0     O35394   2.448   8.426   1.577 -0.4511  0.4020  0.9005
  263MOL0     C35395   2.579   8.464   1.602  0.4423  0.5717  0.5083
  263MOL0     C35396   2.657   8.543   1.517  0.1526 -0.1292 -0.4881
  263MOL0     C35397   2.789   8.582   1.549 -0.7571  0.5522  0.4836
  263MOL0     C35398   2.848   8.532   1.666 -0.8922  0.2428 -0.3400
  263MOL0     C35399   2.987   8.565   1.698  1.3073 -0.1319  0.2804
  263MOL0     O35400   3.039   8.538   1.822  0.0830 -0.7061  0.4379
  263MOL0     C35401   3.168   8.570   1.852  0.0381 -0.1557 -0.1577
  263MOL0     C35402   3.263   8.483   1.823  0.2224  0.0049 -0.2183
  263MOL0     C35403   3.392   8.523   1.838  0.0313  0.0759  0.6120
  263MOL0     C35404   3.424   8.644   1.902 -0.9348  0.4831 -0.1633
  263MOL0     O35405   3.552   8.686   1.928  0.0139  0.3941 -0.2050
  263MOL0     C35406   3.661   8.604   1.886 -0.8189 -0.0423 -0.0406
  263MOL0     C35407   3.778   8.642   1.979  0.1440 -0.1297 -0.9642
  263MOL0     C35408   3.902   8.553   1.947  0.4214 -0.1134 -1.0756
  263MOL0     C35409   4.019   8.628   1.886 -0.1792  0.3536  0.4477
  263MOL0     C35410   4.140   8.535   1.888 -0.7738 -0.8691 -0.4116
  263MOL0     C35411   4.263   8.625   1.848 -0.0717 -0.3013  0.0004
  263MOL0     C35412   4.389   8.545   1.866  0.4211  0.2614  0.5036
  263MOL0     C35413   4.506   8.635   1.810 -0.7019 -0.5329 -0.0815
  263MOL0    Cl35414   4.659   8.548   1.846  0.1374  0.1898  0.0927
  263MOL0     C35415   3.328   8.728   1.948 -0.1829 -0.7400  0.8520
  263MOL0     C35416   3.201   8.688   1.922  0.4834  0.5214  0.0048
  263MOL0     O35417   3.048   8.622   1.605 -0.6763 -0.2712 -0.1323
  263MOL0     C35418   2.768   8.458   1.756 -0.8608  0.5504 -0.0833
  263MOL0     C35419   2.639   8.421   1.720  0.5359 -0.3658 -0.3780
  263MOL0     N35420   1.860   8.338   1.445  0.2556  0.1872 -0.1666
  263MOL0     N35421   1.786   8.381   1.541 -1.1498 -0.2172 -0.0098
  263MOL0     C35422   1.037   8.502   0.738  0.5285 -0.2954 -0.0748
  263MOL0     C35423   0.916   8.460   0.688  0.0661 -0.7314  0.1287
  263MOL0     C35424   0.496   8.204   0.677  0.0011 -0.9127 -0.5157
  263MOL0     C35425   0.411   8.106   0.732 -0.2308 -0.1047  0.7185
  263MOL0     C35426   0.277   8.096   0.690  0.3305  0.4371  0.9387
  263MOL0     C35427   0.225   8.196   0.603 -0.5051  0.7384  0.3055
  263MOL0     O35428   0.099   8.208   0.554  0.3547 -0.2962 -0.6592
  263MOL0     C35429   0.027   8.083   0.558  0.1496 -0.3362  0.0244
  263MOL0     C35430  -0.095   8.084   0.466 -0.4752  0.7271  0.1798
  263MOL0     C35431  -0.188   8.203   0.491 -0.3361 -0.7708  0.6769
  263MOL0     C35432  -0.318   8.192   0.408 -0.2525  0.3008 -0.2328
  263MOL0     C35433  -0.407   8.296   0.466  0.9479  0.9896  0.6500
  263MOL0     C35434  -0.489   8.369   0.520 -0.2734  0.3566 -0.2702
  263MOL0     C35435   0.315   8.283   0.547 -0.0593  0.6654  0.4162
  263MOL0     C35436   0.446   8.285   0.575 -0.8385 -0.9110 -0.0820
  263MOL0     C35437   0.533   8.346   0.466 -0.1252 -0.3709  0.6108
  263MOL0     H35438   0.826   8.255   0.935 -0.0296 -0.4613 -0.6062
  263MOL0     H35439   1.031   8.348   1.039  0.2802 -1.0702 -0.6548
  263MOL0     H35440   1.177   8.538   1.122 -1.6607 -0.4371 -0.8888
  263MOL0     H35441   1.267   8.388   1.067  1.5491  0.0884 -0.7540
  263MOL0     H35442   1.392   8.662   1.046 -2.6440  0.5729  0.4231
  263MOL0     H35443   1.460   8.503   1.019  1.0746  1.9589 -0.7375
  263MOL0     H35444   1.541   8.554   1.217  0.1753 -0.8753 -1.1351
  263MOL0     H35445   1.420   8.441   1.257 -1.4988 -1.5280 -2.8924
  263MOL0     H35446   1.385   8.751   1.275 -1.3075  2.4530  4.3145
  263MOL0     H35447   1.272   8.620   1.337  0.0424  1.1492  3.1131
  263MOL0     H35448   1.353   8.706   1.512 -1.5228 -1.4398 -1.6741
  263MOL0     H35449   1.402   8.531   1.499  1.2721 -0.2819  0.1919
  263MOL0     H35450   1.633   8.605   1.410 -2.3679 -1.8151 -0.5668
  263MOL0     H35451   1.593   8.773   1.457 -1.4472  0.0498  0.7016
  263MOL0     H35452   1.552   8.548   1.643 -1.7476  1.6655  0.1816
  263MOL0     H35453   1.581   8.711   1.699  1.7365 -1.0129  1.1138
  263MOL0     H35454   1.820   8.694   1.638  0.4615 -0.2678  1.5691
  263MOL0     H35455   1.777   8.554   1.744  0.4303 -1.0248 -0.0275
  263MOL0     H35456   1.955   8.647   1.442 -0.0761  0.2723 -0.0106
  263MOL0     H35457   2.067   8.324   1.245  0.2120  0.8039 -1.8333
  263MOL0     H35458   2.004   8.475   1.189 -0.6566 -0.4750  0.6073
  263MOL0     H35459   2.239   8.535   1.247  2.4233 -1.2864  1.1616
  263MOL0     H35460   2.152   8.587   1.383  0.6758  0.1564 -0.0658
  263MOL0     H35461   2.289   8.323   1.354 -0.8992  0.0335  0.5707
  263MOL0     H35462   2.205   8.392   1.504  0.0029  2.4339  0.0478
  263MOL0     H35463   2.405   8.572   1.437 -0.1799  0.2705  2.0701
  263MOL0     H35464   2.467   8.428   1.366 -1.1890 -1.7403 -1.1644
  263MOL0     H35465   2.622   8.585   1.423 -1.6152  0.6615  0.4731
  263MOL0     H35466   2.852   8.641   1.484 -0.8487  2.8836  2.3906
  263MOL0     H35467   3.235   8.384   1.787  0.8630 -0.6970  1.1503
  263MOL0     H35468   3.467   8.452   1.804 -0.2591  0.6304 -1.3217
  263MOL0     H35469   3.646   8.497   1.902  0.9734 -0.1746  1.0312
  263MOL0     H35470   3.684   8.623   1.781  2.3175 -3.1770 -0.1175
  263MOL0     H35471   3.801   8.748   1.968 -2.7848  0.6460 -0.4558
  263MOL0     H35472   3.753   8.631   2.085 -0.8737  0.7824 -1.0889
  263MOL0     H35473   3.937   8.517   2.045 -0.5830  1.9356  0.0925
  263MOL0     H35474   3.882   8.462   1.889 -0.8609 -0.0109 -0.8286
  263MOL0     H35475   4.034   8.713   1.953 -3.5898  1.2363  0.3115
  263MOL0     H35476   3.990   8.675   1.792 -1.5889  0.4551  0.8978
  263MOL0     H35477   4.139   8.455   1.814 -0.5752  0.0808 -1.4610
  263MOL0     H35478   4.155   8.499   1.990  2.7523  3.4681  0.8983
  263MOL0     H35479   4.263   8.677   1.752  4.6495  0.3154  0.0803
  263MOL0     H35480   4.260   8.712   1.915 -0.2864 -0.5140  0.2673
  263MOL0     H35481   4.391   8.452   1.809  1.3016  1.3910 -1.3832
  263MOL0     H35482   4.407   8.524   1.972  3.6609  1.5403  0.3261
  263MOL0     H35483   4.501   8.672   1.707 -0.2334  0.8685  0.3727
  263MOL0     H35484   4.516   8.729   1.866 -5.0116  0.8374 -1.1859
  263MOL0     H35485   3.367   8.805   2.014  3.2138  0.1496 -1.9244
  263MOL0     H35486   3.128   8.762   1.950  2.5948  2.4547  0.6902
  263MOL0     H35487   2.810   8.426   1.850  0.2126 -1.1105 -1.0791
  263MOL0     H35488   2.585   8.355   1.788  2.1836 -1.2784  0.0954
  263MOL0     H35489   1.104   8.566   0.681  0.8336  1.6337  2.3037
  263MOL0     H35490   0.874   8.481   0.590 -2.6333  0.6010  1.4898
  263MOL0     H35491   0.434   8.036   0.812  2.1256  1.5208  1.5845
  263MOL0     H35492   0.211   8.022   0.733  0.2440 -0.2404 -0.3046
  263MOL0     H35493  -0.010   8.067   0.660 -2.7062 -0.0425 -0.8969
  263MOL0     H35494   0.087   7.997   0.528  0.8989 -0.0672  0.7165
  263MOL0     H35495  -0.147   7.989   0.482  1.6872 -0.2280  2.0212
  263MOL0     H35496  -0.070   8.082   0.359 -1.2374 -1.2840 -0.0048
  263MOL0     H35497  -0.133   8.296   0.475  0.8213 -1.5812 -0.3281
  263MOL0     H35498  -0.224   8.197   0.594  0.5943 -0.4985  1.0325
  263MOL0     H35499  -0.292   8.219   0.306  1.0145  0.2342  0.0561
  263MOL0     H35500  -0.362   8.092   0.416  2.5329 -0.8621  2.4384
  263MOL0     H35501  -0.561   8.441   0.552  0.2143 -0.0372  1.8914
  263MOL0     H35502   0.283   8.318   0.449 -0.1272 -0.3418  0.0668
  263MOL0     H35503   0.484   8.337   0.369 -0.0004  1.5633  0.3320
  263MOL0     H35504   0.545   8.453   0.482 -2.0606 -0.1559  0.8282
  263MOL0     H35505   0.631   8.302   0.444  0.7801  2.6917 -2.2668
  264MOL0     O35506   5.224   4.314   6.547  0.1831 -0.3419  0.5387
  264MOL0     C35507   5.189   4.372   6.654 -0.3909  0.5284 -0.3802
  264MOL0     O35508   5.277   4.399   6.760 -0.7271 -0.0693 -0.2742
  264MOL0     C35509   5.404   4.349   6.747 -1.3704  0.1183 -0.4071
  264MOL0     C35510   5.431   4.214   6.727 -0.3969  0.4749  0.8450
  264MOL0     C35511   5.551   4.161   6.744 -0.7768  0.3196  0.5377
  264MOL0     C35512   5.662   4.243   6.758  0.0150  0.0738  0.4272
  264MOL0     O35513   5.785   4.182   6.765 -0.4618 -0.0357  0.3702
  264MOL0     C35514   5.877   4.224   6.868  0.3942 -0.0402 -0.2035
  264MOL0     C35515   6.008   4.149   6.839  0.3254  0.2146 -0.1061
  264MOL0     C35516   6.087   4.208   6.723  0.3686 -0.6747 -0.6683
  264MOL0     C35517   6.233   4.161   6.710 -0.4420 -0.0039 -0.3462
  264MOL0     C35518   6.236   4.016   6.655 -0.0926 -0.1464  1.3853
  264MOL0     C35519   6.358   3.988   6.579 -0.2000 -0.0433  0.6364
  264MOL0     C35520   6.485   3.987   6.656 -0.2685 -0.7359  0.2395
  264MOL0     C35521   6.601   3.922   6.581 -0.0181 -0.3605  0.3464
  264MOL0     N35522   6.728   3.949   6.645 -0.0271 -0.5122 -0.3379
  264MOL0     C35523   6.784   3.864   6.737  0.1817 -0.6374 -0.5039
  264MOL0     C35524   6.898   3.917   6.786 -0.5567 -0.3671  0.0780
  264MOL0     C35525   6.979   3.868   6.906  0.6264  0.3484 -0.7325
  264MOL0     C35526   6.903   3.780   7.008 -0.2147 -0.1253 -0.5887
  264MOL0     C35527   6.801   3.857   7.103 -0.1015 -0.2680  0.7631
  264MOL0     C35528   6.833   3.987   7.189 -0.0312  0.6151  0.3311
  264MOL0     O35529   6.854   4.104   7.117  0.7898 -0.0331  0.2515
  264MOL0     C35530   6.748   4.190   7.110 -0.3895  0.5986  0.2295
  264MOL0     C35531   6.687   4.245   7.222  0.5550 -0.6349 -0.1618
  264MOL0     C35532   6.591   4.347   7.204  0.0849  0.4356 -0.0954
  264MOL0     C35533   6.528   4.372   7.075 -0.3441  0.8160  0.3890
  264MOL0     C35534   6.402   4.455   7.059  0.0242  1.5099 -0.7785
  264MOL0     O35535   6.356   4.481   6.935  0.3160  0.1483 -0.2919
  264MOL0     C35536   6.245   4.561   6.923 -0.1891 -0.1262  0.2755
  264MOL0     C35537   6.115   4.508   6.947 -0.6802  0.0790 -0.2833
  264MOL0     C35538   6.003   4.590   6.948  0.1796  0.0799 -1.0070
  264MOL0     C35539   6.005   4.721   6.903  0.0863 -0.5160  0.6472
  264MOL0     O35540   5.897   4.808   6.876 -0.6940  0.7553 -0.5811
  264MOL0     C35541   5.759   4.747   6.891 -0.0759  0.0768 -0.2411
  264MOL0     C35542   5.673   4.873   6.904 -0.2577 -0.1806  0.5885
  264MOL0     C35543   5.529   4.828   6.891  0.4045  1.0069 -0.0766
  264MOL0     C35544   5.429   4.940   6.915  0.0113  0.1948  0.1003
  264MOL0     C35545   5.291   4.883   6.894  1.2349  0.4918 -0.9025
  264MOL0     C35546   5.245   4.819   7.026 -0.1702  0.2508  0.4629
  264MOL0     C35547   5.086   4.800   7.028 -0.1849  0.4627 -0.1422
  264MOL0     C35548   5.033   4.746   7.169  0.5107  0.0166  0.0393
  264MOL0    Cl35549   5.065   4.568   7.197 -0.1157  0.4600  0.4919
  264MOL0     C35550   6.127   4.763   6.862  0.5640 -0.1994 -0.4717
  264MOL0     C35551   6.254   4.692   6.878  0.2125  0.4978 -0.6320
  264MOL0     O35552   6.372   4.507   7.166  0.5738  0.4900  0.3386
  264MOL0     C35553   6.575   4.293   6.962 -0.4287 -0.0940  0.1761
  264MOL0     C35554   6.686   4.208   6.984 -0.9299 -0.4211 -0.3017
  264MOL0     N35555   6.911   4.034   6.709  0.3446 -0.1997 -0.5800
  264MOL0     N35556   6.810   4.056   6.620 -0.3256 -0.3439 -0.1646
  264MOL0     C35557   5.643   4.375   6.772  0.2932 -0.9588  0.2360
  264MOL0     C35558   5.512   4.431   6.777 -0.8920  0.3129  0.5041
  264MOL0     C35559   5.038   4.393   6.686  1.1038  0.7809  0.3240
  264MOL0     C35560   5.013   4.444   6.813 -0.2096  0.6254  0.4888
  264MOL0     C35561   4.891   4.461   6.871  0.2494  0.3289 -0.0016
  264MOL0     C35562   4.779   4.412   6.800  0.9452 -0.7877 -0.7979
  264MOL0     O35563   4.655   4.418   6.854  0.2012 -0.4164  0.1053
  264MOL0     C35564   4.558   4.490   6.782  0.6260 -0.2853  0.6083
  264MOL0     C35565   4.422   4.496   6.845  0.5422  0.1995 -0.0229
  264MOL0     C35566   4.418   4.583   6.968  0.4677 -0.2922  0.2216
  264MOL0     C35567   4.280   4.575   7.039 -0.9910  0.5583  0.2342
  264MOL0     C35568   4.297   4.464   7.123 -0.3351  0.7232 -0.3644
  264MOL0     C35569   4.293   4.358   7.182  0.3841  0.0315 -0.2302
  264MOL0     C35570   4.800   4.365   6.664 -0.1469  0.3505 -0.1904
  264MOL0     C35571   4.929   4.356   6.606 -0.1345  0.0887 -0.1200
  264MOL0     C35572   4.942   4.300   6.469 -0.5129 -0.1856 -0.2651
  264MOL0     H35573   5.347   4.149   6.704 -0.2719 -0.6453  3.3171
  264MOL0     H35574   5.563   4.053   6.735  3.6191  0.4613  2.3530
  264MOL0     H35575   5.900   4.331   6.876  3.3400 -0.3662 -2.5716
  264MOL0     H35576   5.848   4.196   6.970  0.8812 -1.6139 -0.4662
  264MOL0     H35577   5.982   4.049   6.805  0.0735  0.4634 -0.6578
  264MOL0     H35578   6.057   4.141   6.936 -0.8803 -2.3993  0.3840
  264MOL0     H35579   6.090   4.317   6.730 -2.9648 -0.3891 -1.8244
  264MOL0     H35580   6.018   4.193   6.639  0.2988  0.6937 -0.8810
  264MOL0     H35581   6.276   4.231   6.639  0.5250 -1.3339 -1.1203
  264MOL0     H35582   6.278   4.167   6.810  1.6891 -0.4589 -1.2103
  264MOL0     H35583   6.232   3.951   6.743  1.1985  0.0605  1.6260
  264MOL0     H35584   6.151   3.996   6.589 -0.3505  0.6398  1.4734
  264MOL0     H35585   6.332   3.886   6.548 -2.0274  0.8612 -1.0516
  264MOL0     H35586   6.375   4.045   6.487 -1.2093 -1.4714 -0.4846
  264MOL0     H35587   6.463   3.926   6.745  2.0432 -1.0031  0.6863
  264MOL0     H35588   6.514   4.086   6.692  0.5297 -0.3699 -1.3455
  264MOL0     H35589   6.577   3.816   6.580 -1.8955 -0.0010 -2.1404
  264MOL0     H35590   6.605   3.947   6.475 -1.4773 -1.5610 -0.0261
  264MOL0     H35591   6.743   3.768   6.770 -1.8075  0.0459 -0.8521
  264MOL0     H35592   7.069   3.828   6.858 -0.0315 -0.3241 -1.4354
  264MOL0     H35593   7.019   3.945   6.974 -0.8436 -0.8554  1.6594
  264MOL0     H35594   6.859   3.695   6.956 -0.9497 -0.3499  0.3988
  264MOL0     H35595   6.988   3.741   7.064 -1.4091  0.6322  1.8849
  264MOL0     H35596   6.765   3.783   7.175  0.6939 -2.3209 -0.8705
  264MOL0     H35597   6.712   3.881   7.044  0.0355 -2.0107 -0.2251
  264MOL0     H35598   6.931   3.967   7.235  0.0569  1.9423  0.7475
  264MOL0     H35599   6.764   4.001   7.273 -0.6488 -3.1548  0.6396
  264MOL0     H35600   6.723   4.203   7.315 -1.1956 -2.5125 -0.2700
  264MOL0     H35601   6.547   4.387   7.294 -1.9294 -2.1104  0.1879
  264MOL0     H35602   6.111   4.399   6.951  1.7821 -0.0849 -0.6436
  264MOL0     H35603   5.909   4.550   6.985  0.5677 -1.0777 -1.2345
  264MOL0     H35604   5.748   4.674   6.811  0.6857 -0.1063 -0.1912
  264MOL0     H35605   5.742   4.688   6.982  1.8342  0.5656  0.4930
  264MOL0     H35606   5.700   4.909   7.003  0.6526 -1.6080  0.8750
  264MOL0     H35607   5.698   4.947   6.827  3.0628 -0.3022  1.3991
  264MOL0     H35608   5.511   4.797   6.788  2.0787  2.2489 -0.8023
  264MOL0     H35609   5.518   4.743   6.959  0.0374  0.2956 -1.0090
  264MOL0     H35610   5.444   5.012   6.833 -0.2521  1.0764  0.8066
  264MOL0     H35611   5.439   4.999   7.006  0.9479  0.3756 -0.1045
  264MOL0     H35612   5.287   4.802   6.821 -0.9616 -1.5747  1.3018
  264MOL0     H35613   5.225   4.964   6.862  0.3129  1.0804  2.0919
  264MOL0     H35614   5.292   4.721   7.041 -0.5213  0.2306  1.5390
  264MOL0     H35615   5.272   4.881   7.112 -2.8182 -0.3954  1.8537
  264MOL0     H35616   5.061   4.730   6.948 -0.7847  0.3008  0.1813
  264MOL0     H35617   5.027   4.890   7.009 -2.0450  0.0196  2.8667
  264MOL0     H35618   5.073   4.812   7.246  2.3741 -0.4114 -0.5058
  264MOL0     H35619   4.924   4.755   7.168  0.5813  1.6087 -2.9908
  264MOL0     H35620   6.127   4.861   6.815 -0.3601  0.4927  0.9138
  264MOL0     H35621   6.347   4.734   6.842  1.4004  0.8034  2.4933
  264MOL0     H35622   6.514   4.291   6.872  2.3702  1.7367 -1.9290
  264MOL0     H35623   6.716   4.150   6.898 -2.0813  0.1011 -1.0802
  264MOL0     H35624   5.724   4.446   6.786 -0.2428 -0.8571  3.8321
  264MOL0     H35625   5.506   4.538   6.798  1.0052  0.1917  1.8560
  264MOL0     H35626   5.098   4.465   6.878 -0.4046 -1.7916  1.6108
  264MOL0     H35627   4.883   4.494   6.974  0.0043 -0.5098  0.2543
  264MOL0     H35628   4.546   4.434   6.689  0.2130  1.3258 -0.3419
  264MOL0     H35629   4.587   4.591   6.753 -3.0009  1.2244  1.6422
  264MOL0     H35630   4.378   4.400   6.872 -0.9214  0.8817  0.0698
  264MOL0     H35631   4.344   4.531   6.778  1.8470  0.2905 -1.5611
  264MOL0     H35632   4.432   4.687   6.938  1.7793 -0.7492 -0.8310
  264MOL0     H35633   4.502   4.562   7.035  1.8323 -1.8766 -1.8917
  264MOL0     H35634   4.264   4.661   7.105 -4.6015  0.9901 -0.9586
  264MOL0     H35635   4.197   4.560   6.970  0.3242  0.6209 -1.4145
  264MOL0     H35636   4.286   4.262   7.229 -1.1917 -0.2583 -0.9730
  264MOL0     H35637   4.709   4.337   6.611 -1.5862  1.2281  1.6699
  264MOL0     H35638   4.987   4.201   6.472 -2.2297 -1.0313 -0.8267
  264MOL0     H35639   4.847   4.277   6.420  0.7422 -0.4006 -2.7479
  264MOL0     H35640   5.004   4.360   6.403 -1.4296 -0.3859 -1.3473
  265MOL0     O35641   4.115   3.357   4.752  0.2325  0.8937  0.2803
  265MOL0     C35642   4.086   3.480   4.758 -0.3254  0.0177  0.3906
  265MOL0     O35643   4.184   3.581   4.755  0.2359 -0.2606 -0.7894
  265MOL0     C35644   4.316   3.557   4.791  0.3027 -0.1106  0.7288
  265MOL0     C35645   4.351   3.464   4.876 -0.2229 -0.3562 -0.7324
  265MOL0     C35646   4.485   3.444   4.913  0.2483  0.1092 -0.2033
  265MOL0     C35647   4.582   3.518   4.842  0.6415 -0.5438 -1.1725
  265MOL0     O35648   4.722   3.496   4.865 -0.4926 -0.0566 -0.0471
  265MOL0     C35649   4.763   3.421   4.980  1.0838  0.4994 -0.3345
  265MOL0     C35650   4.912   3.441   5.003 -0.3118 -0.8285 -0.3069
  265MOL0     C35651   4.997   3.384   4.890 -0.6871  0.2610  0.3866
  265MOL0     C35652   5.140   3.374   4.941  0.1942 -0.4231 -0.6173
  265MOL0     C35653   5.257   3.368   4.830  0.1888  0.3610  0.1561
  265MOL0     C35654   5.388   3.333   4.896 -0.7040 -0.5035 -0.8059
  265MOL0     C35655   5.499   3.331   4.791 -0.7485 -0.8256 -0.3534
  265MOL0     C35656   5.635   3.318   4.858  0.2770  0.0862 -1.1352
  265MOL0     N35657   5.755   3.343   4.773  0.2650  0.2221 -0.4497
  265MOL0     C35658   5.824   3.249   4.695 -0.3719  0.1284  0.7065
  265MOL0     C35659   5.931   3.321   4.653  0.4213 -0.7523  0.9326
  265MOL0     C35660   6.033   3.283   4.551 -0.3091  0.7797  0.1387
  265MOL0     C35661   6.082   3.140   4.563 -0.6484 -0.2753  0.2218
  265MOL0     C35662   6.205   3.137   4.475 -0.2879  0.3672 -0.6452
  265MOL0     C35663   6.277   2.996   4.495  0.5936 -0.3089 -1.3721
  265MOL0     O35664   6.389   2.986   4.414 -0.0693  0.5443  0.4907
  265MOL0     C35665   6.515   3.034   4.458  0.0063  0.7045 -0.1421
  265MOL0     C35666   6.542   3.069   4.588  0.2941  0.3637  0.5458
  265MOL0     C35667   6.668   3.123   4.627 -0.1460 -0.5131  0.0023
  265MOL0     C35668   6.768   3.120   4.524 -0.2567  0.0384  0.3615
  265MOL0     C35669   6.896   3.191   4.545 -0.0132 -0.2886 -0.6289
  265MOL0     O35670   6.983   3.188   4.438 -0.3702 -0.1840 -0.2078
  265MOL0     C35671   7.102   3.250   4.463  0.8718  0.3040  0.0492
  265MOL0     C35672   7.136   3.371   4.407  0.2807  0.7031  0.5117
  265MOL0     C35673   7.257   3.431   4.435  0.0806 -0.7188  0.1432
  265MOL0     C35674   7.338   3.370   4.536 -0.2447  0.7202 -0.5783
  265MOL0     O35675   7.451   3.421   4.583  0.6631  0.9979 -0.0469
  265MOL0     C35676   7.486   3.549   4.534  0.3435 -0.8537 -0.2591
  265MOL0     C35677   7.629   3.591   4.584  0.5673 -0.0287 -0.5241
  265MOL0     C35678   7.624   3.608   4.730 -0.2356 -0.4497 -0.6778
  265MOL0     C35679   7.553   3.737   4.767 -0.1961  0.3083  0.3633
  265MOL0     C35680   7.588   3.786   4.907  0.1696 -0.5219  0.3566
  265MOL0     C35681   7.714   3.872   4.897 -0.4406 -0.2463 -0.4385
  265MOL0     C35682   7.748   3.943   5.037 -0.0096  0.1067  0.3123
  265MOL0     C35683   7.883   4.014   5.048  0.1865 -0.9905  0.3079
  265MOL0    Cl35684   7.889   4.140   4.918  0.3128 -0.1292 -0.2290
  265MOL0     C35685   7.309   3.244   4.588 -0.1469  0.3092  0.0206
  265MOL0     C35686   7.194   3.180   4.548  0.2010  1.1661  0.1366
  265MOL0     O35687   6.920   3.233   4.659  0.3500  0.4677 -0.3014
  265MOL0     C35688   6.740   3.074   4.388 -0.8754  0.2159 -0.4445
  265MOL0     C35689   6.612   3.032   4.362 -0.5576  0.5137  0.9015
  265MOL0     N35690   5.919   3.446   4.709  0.3110  0.0402  0.3477
  265MOL0     N35691   5.824   3.461   4.788  0.2909  0.9509  0.3360
  265MOL0     C35692   4.545   3.608   4.739 -0.2050 -0.3750 -0.1430
  265MOL0     C35693   4.412   3.632   4.724 -0.6302 -0.4848 -0.0183
  265MOL0     C35694   3.944   3.525   4.743 -0.4198  0.2872  0.3007
  265MOL0     C35695   3.899   3.643   4.792  0.5688  0.4855  0.4243
  265MOL0     C35696   3.764   3.691   4.779 -0.7112  0.4877  0.9283
  265MOL0     C35697   3.669   3.612   4.702  0.1237 -0.8158 -0.4171
  265MOL0     O35698   3.549   3.662   4.661 -0.1982 -0.0494  0.2949
  265MOL0     C35699   3.437   3.610   4.740 -0.1683 -0.3740 -0.7559
  265MOL0     C35700   3.451   3.647   4.893 -0.5201  0.5243  1.5509
  265MOL0     C35701   3.447   3.802   4.894 -0.2870  0.1925  0.5408
  265MOL0     C35702   3.450   3.857   5.038 -0.0378 -0.0376 -0.1718
  265MOL0     C35703   3.583   3.845   5.102  0.3573  0.9948  0.0934
  265MOL0     C35704   3.695   3.841   5.149 -1.0998 -0.8176  0.3055
  265MOL0     C35705   3.713   3.494   4.652 -0.3164 -0.3990  0.0939
  265MOL0     C35706   3.844   3.444   4.673  0.7977  0.2252 -0.4712
  265MOL0     C35707   3.884   3.307   4.623 -0.0383 -0.1823 -0.4970
  265MOL0     H35708   4.279   3.420   4.944 -2.5893  1.9555 -1.5854
  265MOL0     H35709   4.507   3.366   4.985 -0.5223  0.2329  0.1896
  265MOL0     H35710   4.717   3.467   5.067  1.0579  1.5239 -0.8680
  265MOL0     H35711   4.733   3.317   4.966  1.6199  0.2249  0.4714
  265MOL0     H35712   4.935   3.395   5.100  0.2416  3.9835  2.1940
  265MOL0     H35713   4.925   3.549   5.015 -1.4306 -0.8820  1.9066
  265MOL0     H35714   4.995   3.447   4.800 -0.3660 -1.9671 -1.2794
  265MOL0     H35715   4.959   3.290   4.849  0.2040 -0.7721  1.8427
  265MOL0     H35716   5.154   3.468   4.994  0.7952  1.2406 -3.4826
  265MOL0     H35717   5.142   3.291   5.012 -0.5667 -0.6863 -0.8887
  265MOL0     H35718   5.228   3.288   4.762 -1.4486 -0.0819  1.3145
  265MOL0     H35719   5.252   3.469   4.787  0.2870  0.9658  1.4934
  265MOL0     H35720   5.426   3.412   4.961  1.5489 -0.4039 -2.1364
  265MOL0     H35721   5.380   3.236   4.946 -1.4479 -0.2301 -0.3895
  265MOL0     H35722   5.495   3.426   4.737 -0.7913 -1.4261 -1.4337
  265MOL0     H35723   5.470   3.253   4.720 -2.7341 -0.2363 -0.2431
  265MOL0     H35724   5.641   3.376   4.950  0.8703 -1.9373  0.1678
  265MOL0     H35725   5.644   3.217   4.900 -1.2544  0.4613  0.1801
  265MOL0     H35726   5.800   3.148   4.663  0.6799 -0.4108  1.5306
  265MOL0     H35727   5.988   3.300   4.453  3.1599  1.0932 -1.5179
  265MOL0     H35728   6.116   3.354   4.551  2.9563 -2.7538 -0.9675
  265MOL0     H35729   6.094   3.109   4.668 -0.5696  0.8331  0.5597
  265MOL0     H35730   6.004   3.074   4.524  1.0668 -1.4904 -1.2924
  265MOL0     H35731   6.273   3.221   4.493 -1.1262  0.8227  0.5277
  265MOL0     H35732   6.178   3.138   4.369  3.5404  1.6463 -1.7833
  265MOL0     H35733   6.210   2.913   4.468 -0.5652  0.6282 -1.4588
  265MOL0     H35734   6.290   2.979   4.602  2.0431  0.5312 -1.3977
  265MOL0     H35735   6.465   3.084   4.664 -0.2726  2.3291 -0.3545
  265MOL0     H35736   6.687   3.163   4.726  1.1332  1.7428 -1.0596
  265MOL0     H35737   7.071   3.425   4.339  1.8011 -0.0668 -1.6705
  265MOL0     H35738   7.281   3.525   4.386  3.7286 -1.0717  0.9308
  265MOL0     H35739   7.490   3.550   4.425  1.6646 -0.1578 -0.2315
  265MOL0     H35740   7.418   3.632   4.557  4.3078  2.9024 -0.7346
  265MOL0     H35741   7.688   3.503   4.557 -0.7252 -0.6945 -1.2231
  265MOL0     H35742   7.670   3.678   4.532 -0.6430 -0.1086 -1.6410
  265MOL0     H35743   7.586   3.522   4.785 -0.0327  0.5159  1.0203
  265MOL0     H35744   7.730   3.597   4.756 -0.4616 -2.6674 -0.4916
  265MOL0     H35745   7.444   3.730   4.751 -0.1251  1.0206 -0.4827
  265MOL0     H35746   7.575   3.819   4.699 -3.1847  0.6172 -0.4064
  265MOL0     H35747   7.597   3.705   4.979  3.0738 -0.5558  0.0595
  265MOL0     H35748   7.509   3.853   4.943  1.1136  1.6588 -1.4189
  265MOL0     H35749   7.799   3.808   4.873 -0.0496  0.4779 -1.0250
  265MOL0     H35750   7.696   3.946   4.817 -3.9277 -0.9063 -0.4503
  265MOL0     H35751   7.743   3.864   5.113  0.7911 -0.0240  0.2422
  265MOL0     H35752   7.672   4.019   5.054 -1.1883 -1.3728  2.0846
  265MOL0     H35753   7.895   4.068   5.142 -0.7491 -0.1601 -0.0329
  265MOL0     H35754   7.964   3.940   5.045 -1.1528 -2.4828 -0.2106
  265MOL0     H35755   7.375   3.182   4.647  0.4964  0.4089 -0.5744
  265MOL0     H35756   7.168   3.085   4.594 -1.2785  0.7667 -1.4157
  265MOL0     H35757   6.813   3.092   4.310  0.3366 -0.8135  0.4085
  265MOL0     H35758   6.587   3.004   4.260  0.9965  1.1961  0.3100
  265MOL0     H35759   4.617   3.657   4.675  0.3639 -0.7401  0.2126
  265MOL0     H35760   4.382   3.708   4.652  0.0577  1.1552  1.3458
  265MOL0     H35761   3.974   3.708   4.835  3.0762 -1.8844 -0.0710
  265MOL0     H35762   3.745   3.795   4.803 -2.1595  0.9998 -1.9308
  265MOL0     H35763   3.433   3.504   4.714 -0.3260 -0.3821 -0.6992
  265MOL0     H35764   3.342   3.652   4.705 -0.1593  0.9195  0.6404
  265MOL0     H35765   3.543   3.599   4.928  0.7137 -1.4022 -3.4654
  265MOL0     H35766   3.375   3.611   4.963  0.9301  1.9810  4.0052
  265MOL0     H35767   3.352   3.838   4.854 -1.1273 -3.0608 -0.6321
  265MOL0     H35768   3.531   3.843   4.836  0.4260 -0.5871  0.9958
  265MOL0     H35769   3.421   3.962   5.041  1.6305  0.4379  0.1308
  265MOL0     H35770   3.378   3.805   5.103 -0.7024  0.0700 -0.8117
  265MOL0     H35771   3.797   3.852   5.179 -1.1686 -0.7478  0.5195
  265MOL0     H35772   3.659   3.428   4.585 -1.1998  0.5513 -0.1490
  265MOL0     H35773   3.969   3.320   4.556 -0.4986 -0.0577 -1.0679
  265MOL0     H35774   3.903   3.235   4.704  0.3631  1.8867  1.3521
  265MOL0     H35775   3.809   3.260   4.558  1.7330 -2.1107 -1.2792
  266MOL0     O35776   1.676   8.856   7.062 -0.1661  0.7108 -0.2744
  266MOL0     C35777   1.602   8.772   7.119 -0.2159 -0.2450  0.2753
  266MOL0     O35778   1.651   8.656   7.178  0.4746  0.4593 -0.2371
  266MOL0     C35779   1.787   8.632   7.164 -0.5282 -0.5302  0.5554
  266MOL0     C35780   1.848   8.568   7.055  0.4031 -0.3371  0.3302
  266MOL0     C35781   1.986   8.571   7.049 -0.7737 -0.1023 -0.4824
  266MOL0     C35782   2.067   8.616   7.154 -0.5658 -0.4576  0.3312
  266MOL0     O35783   2.202   8.586   7.141 -0.0812 -0.3527 -0.4103
  266MOL0     C35784   2.300   8.683   7.196  0.3454 -0.6108  0.1911
  266MOL0     C35785   2.411   8.712   7.102  0.2573  1.1095 -0.5688
  266MOL0     C35786   2.526   8.786   7.171  0.3020  0.3938 -0.0158
  266MOL0     C35787   2.505   8.933   7.190  0.2413 -0.1364  0.0916
  266MOL0     C35788   2.631   9.001   7.251 -0.1899 -0.1732 -0.7592
  266MOL0     C35789   2.602   9.148   7.251  0.7206  0.0917 -0.1814
  266MOL0     C35790   2.725   9.238   7.297 -0.6048 -0.2051  0.7175
  266MOL0     C35791   2.711   9.389   7.271  0.4001  0.9787 -0.7714
  266MOL0     N35792   2.821   9.475   7.315 -0.7569  0.0824 -0.3769
  266MOL0     C35793   2.948   9.462   7.276  0.0438  1.1108  0.8752
  266MOL0     C35794   3.020   9.551   7.350 -0.1665  0.6911  0.4132
  266MOL0     C35795   3.160   9.587   7.346  0.1288  0.1159 -0.0546
  266MOL0     C35796   3.217   9.573   7.207  0.0732 -0.2875 -0.6775
  266MOL0     C35797   3.327   9.678   7.190 -0.3189 -0.2601 -0.0695
  266MOL0     C35798   3.447   9.660   7.286  0.2494 -0.2346 -0.1261
  266MOL0     O35799   3.568   9.730   7.240 -0.4363 -0.5079  0.0274
  266MOL0     C35800   3.677   9.648   7.241  0.2394  0.3404 -0.4389
  266MOL0     C35801   3.709   9.560   7.347 -0.3350  0.0317  0.7873
  266MOL0     C35802   3.826   9.488   7.345  0.1388  0.3248 -0.6467
  266MOL0     C35803   3.907   9.492   7.223  0.2707 -0.1799  0.0946
  266MOL0     C35804   4.020   9.396   7.215  0.0950  0.2397 -0.5609
  266MOL0     O35805   4.130   9.424   7.141  0.5031  0.3772 -0.3610
  266MOL0     C35806   4.220   9.319   7.117  0.1211  0.0541  0.7405
  266MOL0     C35807   4.220   9.248   6.997 -0.2813 -0.6398  0.3571
  266MOL0     C35808   4.310   9.143   6.969  0.2011 -0.0077  0.1767
  266MOL0     C35809   4.397   9.100   7.069 -0.4534 -0.9789 -0.5507
  266MOL0     O35810   4.499   9.014   7.065 -0.8927  0.0293  0.6677
  266MOL0     C35811   4.499   8.908   6.965  0.0763 -0.4376 -0.1595
  266MOL0     C35812   4.429   8.785   7.020  0.8102 -0.2837  0.5303
  266MOL0     C35813   4.451   8.770   7.167 -0.4929  0.7534 -0.1804
  266MOL0     C35814   4.596   8.753   7.203  0.7547  0.1193 -0.4988
  266MOL0     C35815   4.642   8.852   7.317  0.4385  0.5023  0.7480
  266MOL0     C35816   4.784   8.811   7.347 -0.1959 -0.1222  0.3969
  266MOL0     C35817   4.862   8.918   7.434 -0.5843  0.8965  0.4961
  266MOL0     C35818   4.984   8.858   7.510 -0.3256 -0.7320 -0.1999
  266MOL0    Cl35819   5.104   8.795   7.408 -0.0287  0.6675  0.1594
  266MOL0     C35820   4.407   9.180   7.187  0.7766 -0.8946  0.3852
  266MOL0     C35821   4.320   9.292   7.209 -0.3127 -0.5748  0.1678
  266MOL0     O35822   4.001   9.286   7.273  0.4702 -0.3509  0.3701
  266MOL0     C35823   3.877   9.590   7.129 -1.0521  0.4672  0.5002
  266MOL0     C35824   3.764   9.667   7.138  0.0338 -0.4609  0.2930
  266MOL0     N35825   2.935   9.600   7.442  0.7223  0.3266  0.1417
  266MOL0     N35826   2.816   9.556   7.421  0.7024  0.0946  0.7198
  266MOL0     C35827   2.011   8.673   7.258  0.5486 -0.5933 -0.1843
  266MOL0     C35828   1.872   8.680   7.272  0.6257 -0.3699  0.1977
  266MOL0     C35829   1.461   8.783   7.076 -0.5479  0.1296  0.1710
  266MOL0     C35830   1.441   8.768   6.940  0.0419 -0.6349  0.1647
  266MOL0     C35831   1.313   8.796   6.875  0.1594  0.0429  0.2229
  266MOL0     C35832   1.210   8.836   6.950  0.1075  0.2880 -0.7567
  266MOL0     O35833   1.098   8.870   6.874 -0.2834  0.0905 -0.5597
  266MOL0     C35834   0.971   8.894   6.936  0.0839 -0.3940 -0.2198
  266MOL0     C35835   0.895   8.762   6.968 -0.5897 -0.2190 -0.2800
  266MOL0     C35836   0.872   8.683   6.840  0.2968  0.2377 -0.7925
  266MOL0     C35837   0.785   8.560   6.867 -0.3856 -0.2739  0.1047
  266MOL0     C35838   0.834   8.466   6.975 -0.0782  0.6335 -0.2397
  266MOL0     C35839   0.864   8.370   7.040  0.3854 -0.8378 -0.7534
  266MOL0     C35840   1.229   8.855   7.090 -0.7408  0.3178 -0.2489
  266MOL0     C35841   1.354   8.823   7.146  0.1697  0.0674 -0.0393
  266MOL0     C35842   1.376   8.847   7.301 -0.2656 -0.1297 -0.3807
  266MOL0     H35843   1.788   8.541   6.969  2.1811  0.0013 -1.0593
  266MOL0     H35844   2.037   8.530   6.963  0.7608  1.5833 -0.4438
  266MOL0     H35845   2.254   8.780   7.218  0.7129 -1.1589  3.9302
  266MOL0     H35846   2.342   8.645   7.289 -2.6899 -0.5672  1.7243
  266MOL0     H35847   2.387   8.754   7.004 -0.8890 -1.0196 -1.2716
  266MOL0     H35848   2.447   8.612   7.074 -0.3098  0.6441  0.3338
  266MOL0     H35849   2.615   8.772   7.110  0.2395  0.2648 -0.0772
  266MOL0     H35850   2.544   8.735   7.267  0.9048  0.8928  0.1401
  266MOL0     H35851   2.479   8.975   7.093  3.7663  1.0599 -0.4956
  266MOL0     H35852   2.427   8.941   7.267  0.9405 -1.7636  1.0245
  266MOL0     H35853   2.646   8.960   7.351 -1.3058  1.2973  0.0535
  266MOL0     H35854   2.718   8.976   7.190 -0.1089 -0.4601 -0.5268
  266MOL0     H35855   2.557   9.184   7.159 -1.0262  0.8076  0.9061
  266MOL0     H35856   2.526   9.154   7.329  1.8232 -3.2601  1.3661
  266MOL0     H35857   2.819   9.204   7.253  0.5552  1.0926  2.0780
  266MOL0     H35858   2.738   9.229   7.405  0.5397  1.7576  0.7973
  266MOL0     H35859   2.676   9.412   7.170 -0.7167  1.1385 -0.3663
  266MOL0     H35860   2.624   9.425   7.326 -0.9210 -1.2965 -1.2022
  266MOL0     H35861   2.979   9.404   7.190 -1.4212 -1.7726  2.1297
  266MOL0     H35862   3.174   9.691   7.378  0.7398 -0.7378  2.6876
  266MOL0     H35863   3.210   9.524   7.419 -2.0090 -0.1135  1.2948
  266MOL0     H35864   3.257   9.471   7.201 -0.6949 -0.7121  0.7591
  266MOL0     H35865   3.143   9.586   7.127  1.4509  3.5067 -1.5273
  266MOL0     H35866   3.284   9.776   7.212  1.7325  0.3529  1.5275
  266MOL0     H35867   3.359   9.690   7.086 -1.8472 -0.6859 -0.6165
  266MOL0     H35868   3.461   9.552   7.288  0.4678 -0.2315 -1.2994
  266MOL0     H35869   3.420   9.684   7.390 -0.6687 -6.0985  1.3707
  266MOL0     H35870   3.646   9.537   7.433 -0.3270 -1.6993  0.3703
  266MOL0     H35871   3.847   9.414   7.422 -1.8249 -0.1938 -0.5513
  266MOL0     H35872   4.161   9.286   6.914  0.0503  1.9628  1.2019
  266MOL0     H35873   4.311   9.089   6.874  0.1077  0.0510  0.1424
  266MOL0     H35874   4.446   8.950   6.879 -3.6411 -0.5609  1.9092
  266MOL0     H35875   4.598   8.869   6.938 -0.7175  0.3795 -5.1962
  266MOL0     H35876   4.321   8.799   7.006  1.2051  0.1728 -2.6812
  266MOL0     H35877   4.466   8.697   6.965  1.7570  0.5374 -0.1719
  266MOL0     H35878   4.411   8.849   7.231  0.0284 -0.1334  1.2871
  266MOL0     H35879   4.394   8.684   7.202  0.0042  0.0608 -1.0082
  266MOL0     H35880   4.663   8.758   7.116 -0.1246 -3.4670 -1.5835
  266MOL0     H35881   4.617   8.654   7.245 -0.0408 -2.3049 -5.0928
  266MOL0     H35882   4.573   8.841   7.401 -0.5182 -0.8633 -0.1735
  266MOL0     H35883   4.639   8.958   7.286 -0.6300  0.7602  1.6893
  266MOL0     H35884   4.774   8.720   7.406 -0.2045  0.1504  0.8210
  266MOL0     H35885   4.835   8.783   7.255 -0.7474  1.1084 -0.3134
  266MOL0     H35886   4.794   8.972   7.500  0.0438  3.9192 -1.1133
  266MOL0     H35887   4.899   8.995   7.365 -0.4645  1.2811  0.9819
  266MOL0     H35888   5.023   8.942   7.567 -0.5450 -1.0268  0.3948
  266MOL0     H35889   4.945   8.781   7.578 -0.5550  1.2020  1.9708
  266MOL0     H35890   4.485   9.154   7.258  3.9894  2.4426 -1.5494
  266MOL0     H35891   4.337   9.349   7.300  2.7099 -0.9942 -0.0221
  266MOL0     H35892   3.957   9.602   7.056 -2.6190  1.4913 -1.1515
  266MOL0     H35893   3.747   9.739   7.059  0.5245  0.9984  1.4799
  266MOL0     H35894   2.071   8.727   7.331 -0.9482  1.2448 -0.2541
  266MOL0     H35895   1.809   8.733   7.343 -2.1736  1.5957 -3.4159
  266MOL0     H35896   1.531   8.738   6.887  0.8455  0.8946  0.6159
  266MOL0     H35897   1.307   8.771   6.770  2.5097  1.0052 -0.2225
  266MOL0     H35898   0.905   8.953   6.872  0.9387  1.5419  0.5878
  266MOL0     H35899   0.982   8.968   7.015 -1.2449 -0.1190 -0.2717
  266MOL0     H35900   0.805   8.790   7.024  1.3972 -0.1685  3.2083
  266MOL0     H35901   0.949   8.706   7.046 -0.7095  3.7177  2.9568
  266MOL0     H35902   0.963   8.641   6.797  0.3190  1.9047 -2.4783
  266MOL0     H35903   0.831   8.747   6.762  0.7274  0.9187 -0.4661
  266MOL0     H35904   0.685   8.593   6.896 -0.4188 -0.1810 -0.1136
  266MOL0     H35905   0.770   8.508   6.772  0.0566 -2.6779  1.2878
  266MOL0     H35906   0.886   8.285   7.100  2.5166  0.8080  0.9637
  266MOL0     H35907   1.150   8.898   7.151  0.6939  1.1611  1.1105
  266MOL0     H35908   1.459   8.787   7.338  1.0292  1.5220 -0.4923
  266MOL0     H35909   1.401   8.954   7.301 -0.4686 -0.0811 -0.4183
  266MOL0     H35910   1.285   8.834   7.360 -0.4818 -0.4333 -0.7757
  267MOL0     O35911   3.789   6.797  10.490  0.3749 -0.4953  0.4112
  267MOL0     C35912   3.736   6.880  10.562  0.8423 -0.1036  1.0015
  267MOL0     O35913   3.797   6.994  10.609 -0.7808  0.0706  0.4909
  267MOL0     C35914   3.922   7.012  10.548  1.2248 -0.5445 -0.7335
  267MOL0     C35915   4.038   6.970  10.619  0.0079  0.0253 -0.2074
  267MOL0     C35916   4.169   6.976  10.557 -0.6586  0.8121  0.1854
  267MOL0     C35917   4.181   7.028  10.423  0.1845 -0.1569 -0.6050
  267MOL0     O35918   4.299   7.038  10.354  0.3384 -0.2679 -0.3042
  267MOL0     C35919   4.403   6.949  10.398 -0.0660  0.2084  0.3105
  267MOL0     C35920   4.524   6.950  10.303  0.0214  0.1950 -0.2174
  267MOL0     C35921   4.650   6.881  10.373  0.2286 -0.1526  0.2134
  267MOL0     C35922   4.772   6.908  10.286 -0.5215  0.1694  0.0851
  267MOL0     C35923   4.904   6.867  10.338 -0.1036 -1.2935  0.3031
  267MOL0     C35924   4.964   6.972  10.434 -0.2905  0.3660 -0.3566
  267MOL0     C35925   5.110   6.939  10.489 -0.5349 -0.5912  0.4548
  267MOL0     C35926   5.201   6.914  10.370  0.8698  0.4264  0.0162
  267MOL0     N35927   5.341   6.927  10.411 -0.0644  0.2782  0.1531
  267MOL0     C35928   5.407   7.042  10.391  1.1104 -0.2021 -1.1878
  267MOL0     C35929   5.513   7.037  10.471 -0.3612  0.1983 -0.0842
  267MOL0     C35930   5.620   7.149  10.494 -0.0133 -0.1722  0.4066
  267MOL0     C35931   5.764   7.120  10.460  0.3645  0.4511 -0.1812
  267MOL0     C35932   5.860   7.212  10.529 -0.0926  0.7504  0.3547
  267MOL0     C35933   6.003   7.173  10.497 -0.0295  0.3888  0.9722
  267MOL0     O35934   6.078   7.272  10.562  0.6125  0.2899 -0.5521
  267MOL0     C35935   6.216   7.254  10.550 -0.0942  1.0459 -0.2042
  267MOL0     C35936   6.279   7.134  10.587 -0.9806  0.3161 -0.0862
  267MOL0     C35937   6.420   7.126  10.579 -0.1108 -1.3270 -0.4868
  267MOL0     C35938   6.498   7.237  10.550  0.2634  0.5758 -0.2752
  267MOL0     C35939   6.642   7.228  10.540 -1.0045 -0.4159 -0.8159
  267MOL0     O35940   6.719   7.343  10.563  0.2562  0.3453 -0.7842
  267MOL0     C35941   6.855   7.326  10.558 -0.2961 -0.2420 -0.4311
  267MOL0     C35942   6.929   7.304  10.442  0.2004  0.8514 -0.5445
  267MOL0     C35943   7.070   7.297  10.434  0.2299  0.4406 -0.2460
  267MOL0     C35944   7.144   7.311  10.558 -0.0788  0.1419  0.0813
  267MOL0     O35945   7.281   7.317  10.572  0.0481  0.3595  0.7362
  267MOL0     C35946   7.358   7.369  10.465 -1.0487 -0.7678  1.4163
  267MOL0     C35947   7.414   7.248  10.388 -0.0207  0.3187  0.0311
  267MOL0     C35948   7.549   7.189  10.433 -0.6742 -0.3566  1.1328
  267MOL0     C35949   7.663   7.291  10.417 -0.6063 -0.7065 -0.2557
  267MOL0     C35950   7.800   7.222  10.435 -0.1869  0.3320  0.8632
  267MOL0     C35951   7.916   7.323  10.441  0.0394 -0.6007  0.8175
  267MOL0     C35952   7.928   7.412  10.313  0.6763  0.0822 -0.2509
  267MOL0     C35953   8.039   7.511  10.329 -0.4478 -0.1392 -0.7328
  267MOL0    Cl35954   8.093   7.593  10.186 -0.2015  0.4242  0.3245
  267MOL0     C35955   7.070   7.342  10.672 -0.2305 -0.2222 -0.3314
  267MOL0     C35956   6.932   7.354  10.676  0.6557  0.1581 -0.2407
  267MOL0     O35957   6.690   7.113  10.509  0.7646  0.4403  0.5833
  267MOL0     C35958   6.437   7.358  10.523  0.5121 -0.7949 -0.3172
  267MOL0     C35959   6.293   7.363  10.526  0.8009 -0.6735  0.4625
  267MOL0     N35960   5.507   6.915  10.539  0.1016  0.4712 -0.2723
  267MOL0     N35961   5.403   6.848  10.501 -0.5062  0.4073 -0.3348
  267MOL0     C35962   4.067   7.073  10.363  0.0663  0.0572  0.0014
  267MOL0     C35963   3.938   7.066  10.420  0.5427 -0.2992 -0.4467
  267MOL0     C35964   3.593   6.849  10.598  0.8214 -0.5975 -0.1231
  267MOL0     C35965   3.543   6.715  10.572  0.2851  0.4910 -0.5142
  267MOL0     C35966   3.424   6.686  10.645  0.5963 -0.2496  1.3014
  267MOL0     C35967   3.344   6.782  10.707  0.4927  0.1966  0.1964
  267MOL0     O35968   3.226   6.756  10.772  0.8595 -0.2155  0.1554
  267MOL0     C35969   3.157   6.633  10.733  0.5436 -0.2129 -0.3617
  267MOL0     C35970   3.011   6.646  10.794  0.4904  0.4152  0.2513
  267MOL0     C35971   2.932   6.761  10.728 -0.3189  0.4313  0.1011
  267MOL0     C35972   2.809   6.800  10.814  0.0212 -0.4169 -0.7937
  267MOL0     C35973   2.701   6.705  10.845  0.7180  1.0848 -0.0866
  267MOL0     C35974   2.629   6.614  10.889 -0.1648 -0.8047  0.2096
  267MOL0     C35975   3.383   6.913  10.691 -0.0628 -0.0419 -0.8122
  267MOL0     C35976   3.508   6.950  10.644  0.1802 -0.5745  0.1526
  267MOL0     C35977   3.530   7.099  10.631 -0.0873  0.4097  0.2597
  267MOL0     H35978   4.014   6.928  10.716  0.0776  2.8841  1.1650
  267MOL0     H35979   4.257   6.941  10.609 -0.9826 -0.4190 -0.0564
  267MOL0     H35980   4.435   6.979  10.498  1.8913  0.3779 -0.3233
  267MOL0     H35981   4.366   6.846  10.401 -1.4887  0.6581 -0.7231
  267MOL0     H35982   4.547   7.052  10.273  1.6734  0.9752  3.2376
  267MOL0     H35983   4.499   6.889  10.215  0.9814 -1.1635  0.4295
  267MOL0     H35984   4.637   6.773  10.364 -1.4849  0.1153 -1.1838
  267MOL0     H35985   4.656   6.918  10.475  0.4493  2.9733 -0.8189
  267MOL0     H35986   4.758   6.850  10.195 -0.6918  1.3324 -0.6574
  267MOL0     H35987   4.776   7.016  10.271 -2.4316  0.2618 -0.0209
  267MOL0     H35988   4.891   6.771  10.390 -0.9246 -1.6041 -0.4403
  267MOL0     H35989   4.975   6.867  10.255 -1.2703  2.5821 -0.8854
  267MOL0     H35990   4.989   7.068  10.387  0.6422  0.6546  0.6569
  267MOL0     H35991   4.899   6.984  10.521 -1.8763  4.7397 -1.8933
  267MOL0     H35992   5.114   6.860  10.565 -0.8744 -2.6780 -1.5753
  267MOL0     H35993   5.141   7.034  10.533 -0.9023 -0.3353  0.1652
  267MOL0     H35994   5.178   6.816  10.328 -0.5785  1.2783 -1.2731
  267MOL0     H35995   5.178   6.986  10.291  0.7037  1.1500  0.7060
  267MOL0     H35996   5.392   7.135  10.337  3.4719  0.1037 -1.4208
  267MOL0     H35997   5.595   7.237  10.433  1.2970 -1.3655 -1.9826
  267MOL0     H35998   5.607   7.167  10.601 -1.6091  2.1688 -0.0965
  267MOL0     H35999   5.783   7.016  10.485  0.7671  0.8186  1.1582
  267MOL0     H36000   5.790   7.121  10.354  3.2398  2.2074  0.4283
  267MOL0     H36001   5.844   7.199  10.637 -1.6088 -3.2984 -0.1501
  267MOL0     H36002   5.841   7.312  10.490  1.6801  0.8476 -0.3074
  267MOL0     H36003   6.025   7.163  10.391  2.8896 -1.2554  1.6125
  267MOL0     H36004   6.023   7.073  10.536  0.4604  0.7327  1.6288
  267MOL0     H36005   6.209   7.056  10.616 -1.3757  1.5124  2.4217
  267MOL0     H36006   6.463   7.032  10.610  1.4833 -0.7549 -0.8764
  267MOL0     H36007   6.865   7.302  10.354 -0.0407  3.0260 -0.4870
  267MOL0     H36008   7.125   7.273  10.343 -0.8813 -3.6668 -0.0139
  267MOL0     H36009   7.308   7.439  10.398 -0.5792 -0.9264  0.8910
  267MOL0     H36010   7.440   7.430  10.503 -0.1910 -1.0593  0.1111
  267MOL0     H36011   7.345   7.166  10.411 -2.4126  2.1272 -0.2661
  267MOL0     H36012   7.407   7.262  10.280 -0.6681 -1.5679 -0.2026
  267MOL0     H36013   7.539   7.160  10.538  0.1096  0.6613  1.5158
  267MOL0     H36014   7.566   7.102  10.369 -0.2727 -0.6297  1.5979
  267MOL0     H36015   7.648   7.363  10.498 -0.0860 -0.4567 -0.3752
  267MOL0     H36016   7.666   7.345  10.321 -0.3841  2.6277  1.4644
  267MOL0     H36017   7.811   7.146  10.357 -1.2755 -1.9665  2.8260
  267MOL0     H36018   7.789   7.165  10.528  0.2510  0.9443  1.2986
  267MOL0     H36019   7.900   7.399  10.518 -3.1564 -0.2433 -0.0403
  267MOL0     H36020   8.004   7.259  10.457 -2.0060 -3.6476  0.7849
  267MOL0     H36021   7.837   7.472  10.302  0.9612  0.8159  1.1787
  267MOL0     H36022   7.946   7.350  10.224  1.0238 -2.0734  1.2305
  267MOL0     H36023   8.011   7.583  10.406  2.4507  1.8831 -1.4220
  267MOL0     H36024   8.126   7.463  10.375 -0.1445  0.7218 -0.3940
  267MOL0     H36025   7.125   7.362  10.763 -1.0183  0.5731 -0.0200
  267MOL0     H36026   6.893   7.377  10.775  2.1245  2.7909 -0.1773
  267MOL0     H36027   6.485   7.454  10.511 -0.5780 -0.0789  0.8045
  267MOL0     H36028   6.246   7.461  10.518  1.1755 -0.3302  2.0657
  267MOL0     H36029   4.071   7.115  10.263  0.5860 -0.4803 -0.2100
  267MOL0     H36030   3.847   7.098  10.369  0.6031  1.1038  0.2871
  267MOL0     H36031   3.605   6.636  10.530 -0.3017 -1.1858  1.5900
  267MOL0     H36032   3.413   6.578  10.648 -1.8007 -0.0490  1.3221
  267MOL0     H36033   3.210   6.544  10.767 -0.5588 -0.7617 -0.0470
  267MOL0     H36034   3.150   6.632  10.624  0.9910 -3.4074 -0.4628
  267MOL0     H36035   3.018   6.653  10.903  2.5941  4.1675  0.0617
  267MOL0     H36036   2.959   6.552  10.775 -0.1775  0.3650  2.1098
  267MOL0     H36037   2.896   6.734  10.628 -0.2311 -2.1086  0.6800
  267MOL0     H36038   3.003   6.844  10.720  2.2765 -1.7685 -1.5583
  267MOL0     H36039   2.839   6.836  10.912 -0.6692  0.4408 -0.8774
  267MOL0     H36040   2.759   6.887  10.769  1.4151  0.7516 -0.1517
  267MOL0     H36041   2.571   6.533  10.929 -1.1677 -0.0586  0.2880
  267MOL0     H36042   3.313   6.986  10.730 -0.4798 -0.5412 -0.6138
  267MOL0     H36043   3.586   7.137  10.545 -0.8621  0.4401 -0.2427
  267MOL0     H36044   3.438   7.158  10.624  1.9549  3.7954 -0.0779
  267MOL0     H36045   3.587   7.128  10.720 -0.4376  0.9654  0.3082
  268MOL0     O36046   1.659   5.612   9.767 -0.1986 -0.7804 -0.6347
  268MOL0     C36047   1.706   5.653   9.874 -0.4475 -0.0558  0.1609
  268MOL0     O36048   1.645   5.641   9.993 -0.3161 -0.1607  0.1325
  268MOL0     C36049   1.514   5.602  10.008  0.0088 -0.2276 -0.3096
  268MOL0     C36050   1.406   5.622   9.912  0.3813 -0.4496  0.6933
  268MOL0     C36051   1.274   5.576   9.949  0.2458 -0.0324  0.7863
  268MOL0     C36052   1.252   5.509  10.067 -0.3873  0.1786 -0.6558
  268MOL0     O36053   1.126   5.456  10.097  0.2997 -0.4215  0.5454
  268MOL0     C36054   1.099   5.403  10.226  0.1604  0.3493  0.3287
  268MOL0     C36055   0.955   5.361  10.228  0.0273 -0.2370  1.3668
  268MOL0     C36056   0.852   5.469  10.199 -0.5308 -0.1290  0.0075
  268MOL0     C36057   0.838   5.563  10.320  0.6459 -0.6561  0.3698
  268MOL0     C36058   0.721   5.662  10.316 -0.2674 -0.0760 -0.0187
  268MOL0     C36059   0.685   5.747  10.436  0.7940  0.6877  0.0269
  268MOL0     C36060   0.804   5.836  10.475  0.5434 -0.2183 -0.1247
  268MOL0     C36061   0.795   5.969  10.398  0.7421  0.4034 -1.2737
  268MOL0     N36062   0.924   6.041  10.408 -0.6150  0.7303  0.4684
  268MOL0     C36063   1.052   6.006  10.364  0.2563  0.0998 -0.1899
  268MOL0     C36064   1.132   6.102  10.401  0.6387 -0.5829  1.1754
  268MOL0     C36065   1.277   6.112  10.361 -0.0504 -0.0722  0.3480
  268MOL0     C36066   1.376   6.072  10.481  0.0548  0.1302  0.1088
  268MOL0     C36067   1.381   6.193  10.578  0.4207  0.0898 -0.7844
  268MOL0     C36068   1.416   6.318  10.521 -0.1425 -0.6050  0.3822
  268MOL0     O36069   1.526   6.292  10.431  0.0316  0.1774  0.2790
  268MOL0     C36070   1.657   6.279  10.475  1.1945 -0.1686  1.3627
  268MOL0     C36071   1.752   6.233  10.379  0.9479  0.0014  0.1609
  268MOL0     C36072   1.887   6.204  10.404 -0.3845 -0.1617 -0.5346
  268MOL0     C36073   1.932   6.204  10.543  0.9883 -0.0987  0.5342
  268MOL0     C36074   2.070   6.184  10.591  0.2221  0.7176 -0.1020
  268MOL0     O36075   2.108   6.234  10.717 -0.8545 -0.2032 -0.2540
  268MOL0     C36076   2.238   6.233  10.761 -0.3242  0.8948  0.2519
  268MOL0     C36077   2.344   6.260  10.674 -0.0358 -0.1314  0.2391
  268MOL0     C36078   2.477   6.244  10.714  0.9122  0.7562  0.3166
  268MOL0     C36079   2.507   6.209  10.849 -0.4364 -0.6319  1.0166
  268MOL0     O36080   2.630   6.193  10.902  0.8234  0.1855  0.2891
  268MOL0     C36081   2.739   6.229  10.820  0.2756 -0.0838 -0.1344
  268MOL0     C36082   2.862   6.228  10.914 -0.2802  1.1010 -0.0256
  268MOL0     C36083   2.993   6.236  10.832 -0.1923  0.3006 -0.4112
  268MOL0     C36084   3.121   6.290  10.904 -0.0545  0.2197 -0.5690
  268MOL0     C36085   3.174   6.192  11.013  1.4328 -0.1987 -0.4084
  268MOL0     C36086   3.241   6.064  10.958  0.3763  0.2298 -0.3408
  268MOL0     C36087   3.360   6.092  10.856  0.6657 -0.2542 -0.4321
  268MOL0     C36088   3.409   5.959  10.800  0.2564 -0.3614 -0.1809
  268MOL0    Cl36089   3.529   5.993  10.674 -0.4430 -0.0681  0.0574
  268MOL0     C36090   2.400   6.199  10.945  0.5297  0.3548 -0.0419
  268MOL0     C36091   2.269   6.215  10.900 -0.0479  0.6367 -0.2344
  268MOL0     O36092   2.139   6.111  10.516 -0.0269  0.0983  0.2505
  268MOL0     C36093   1.836   6.252  10.636  0.5207 -0.2744 -0.0614
  268MOL0     C36094   1.702   6.290  10.609 -0.2458 -0.0059  0.4079
  268MOL0     N36095   1.057   6.196  10.460 -0.1810 -0.1348 -0.1361
  268MOL0     N36096   0.936   6.153  10.476 -0.0958  0.1545  0.4582
  268MOL0     C36097   1.363   5.491  10.163 -0.3050  1.1968  0.0797
  268MOL0     C36098   1.484   5.545  10.132 -0.2701  0.3180  0.0752
  268MOL0     C36099   1.849   5.690   9.866 -0.7321  0.5251 -0.4044
  268MOL0     C36100   1.915   5.731   9.984 -0.3002 -0.4118 -0.2524
  268MOL0     C36101   2.052   5.764   9.973  1.1029  0.2218  0.4918
  268MOL0     C36102   2.119   5.771   9.856 -0.8319 -0.2729 -0.3820
  268MOL0     O36103   2.251   5.813   9.870 -0.1095 -0.6655 -0.9110
  268MOL0     C36104   2.314   5.850   9.754  0.1771 -0.2495 -0.4810
  268MOL0     C36105   2.406   5.966   9.800  1.0940 -0.3439 -0.2654
  268MOL0     C36106   2.533   5.911   9.852 -0.0881 -0.2483  0.1141
  268MOL0     C36107   2.630   6.024   9.905  0.6989 -0.1239  0.1674
  268MOL0     C36108   2.726   5.982  10.006 -0.6863  0.2098 -0.3137
  268MOL0     C36109   2.805   5.922  10.079 -0.7215  0.5184 -0.1859
  268MOL0     C36110   2.064   5.720   9.740 -0.4266 -0.2391  0.1350
  268MOL0     C36111   1.924   5.685   9.742 -0.9520 -0.0248 -0.9566
  268MOL0     C36112   1.883   5.623   9.609 -0.0405 -0.2911  0.7788
  268MOL0     H36113   1.432   5.672   9.819  1.1730 -0.0674  1.1120
  268MOL0     H36114   1.190   5.594   9.883  2.5271  1.7514 -1.8744
  268MOL0     H36115   1.161   5.314  10.240 -2.9681 -1.9828  0.3784
  268MOL0     H36116   1.118   5.477  10.304  1.2671 -1.9580  2.3820
  268MOL0     H36117   0.935   5.310  10.323 -0.0943 -1.8027  0.5382
  268MOL0     H36118   0.949   5.278  10.157  2.5235 -0.5348  1.4246
  268MOL0     H36119   0.758   5.415  10.182 -0.1180 -0.7843 -0.2680
  268MOL0     H36120   0.871   5.530  10.110 -1.3065  0.0907 -0.0154
  268MOL0     H36121   0.825   5.499  10.407 -0.8306 -1.8591 -0.6886
  268MOL0     H36122   0.932   5.618  10.332 -0.0025  0.4757  0.3648
  268MOL0     H36123   0.744   5.723  10.228 -0.2318  0.7502  0.5639
  268MOL0     H36124   0.629   5.608  10.292 -0.1605 -0.3753  0.2432
  268MOL0     H36125   0.595   5.806  10.415 -0.5698 -1.1368  0.5673
  268MOL0     H36126   0.660   5.679  10.518  1.1880 -1.4520 -1.5514
  268MOL0     H36127   0.904   5.791  10.468  1.6182  1.8490  1.0152
  268MOL0     H36128   0.789   5.855  10.581 -1.3201  2.8301 -0.8155
  268MOL0     H36129   0.783   5.956  10.291  2.4785  0.5690 -1.5140
  268MOL0     H36130   0.718   6.036  10.439 -0.2344 -1.8280  0.8011
  268MOL0     H36131   1.081   5.923  10.299 -1.4363 -0.7537  0.0677
  268MOL0     H36132   1.297   6.039  10.282 -0.1942 -0.7649  0.9441
  268MOL0     H36133   1.300   6.211  10.320  0.9762 -1.1166 -1.7659
  268MOL0     H36134   1.343   5.978  10.527  0.8132 -1.3204 -2.1598
  268MOL0     H36135   1.469   6.043  10.432  0.2514  1.4415 -0.3408
  268MOL0     H36136   1.457   6.173  10.654  1.8326  1.0023 -1.9015
  268MOL0     H36137   1.285   6.208  10.628  1.3566  2.5110  0.4022
  268MOL0     H36138   1.448   6.382  10.605 -0.4863 -0.9506  0.7817
  268MOL0     H36139   1.332   6.369  10.474 -0.1270  2.9949  3.6785
  268MOL0     H36140   1.709   6.223  10.280 -2.8648 -0.3157  1.6589
  268MOL0     H36141   1.964   6.180  10.332  1.2897  2.5055  0.2020
  268MOL0     H36142   2.317   6.276  10.571  0.3326  2.9578  0.5410
  268MOL0     H36143   2.555   6.268  10.643  0.9685  0.7067  0.3614
  268MOL0     H36144   2.748   6.152  10.743  2.4080 -2.3263  2.1897
  268MOL0     H36145   2.729   6.325  10.768 -1.0020 -0.9895 -1.6236
  268MOL0     H36146   2.862   6.319  10.975 -1.1072  2.5324 -2.0558
  268MOL0     H36147   2.869   6.135  10.972  4.5133  0.7093 -0.8049
  268MOL0     H36148   3.013   6.143  10.779  0.9297 -0.2483  0.9175
  268MOL0     H36149   2.975   6.304  10.748  0.6851  0.7793 -0.2232
  268MOL0     H36150   3.090   6.376  10.964 -1.2202 -1.0615  0.7415
  268MOL0     H36151   3.198   6.313  10.830  0.7113 -2.0080 -0.5656
  268MOL0     H36152   3.090   6.165  11.079  1.2678  1.4820  0.1410
  268MOL0     H36153   3.245   6.250  11.072  2.7352 -0.0937 -2.0100
  268MOL0     H36154   3.272   5.999  11.041  0.1996  0.6206  0.0311
  268MOL0     H36155   3.167   5.998  10.911  3.3670 -4.4509  0.8384
  268MOL0     H36156   3.447   6.136  10.904  1.0681 -0.4265 -0.9848
  268MOL0     H36157   3.324   6.163  10.782 -2.6819  1.2886  2.3921
  268MOL0     H36158   3.462   5.909  10.882 -2.9526 -3.0768  0.4564
  268MOL0     H36159   3.330   5.886  10.779  1.0658 -2.3836  3.0480
  268MOL0     H36160   2.433   6.195  11.049 -2.3666 -2.2030  0.9209
  268MOL0     H36161   2.188   6.217  10.973  0.3005  0.1354  0.1732
  268MOL0     H36162   1.884   6.265  10.732  1.4128 -0.9579 -0.3992
  268MOL0     H36163   1.641   6.324  10.693 -0.1088  4.3207 -0.9787
  268MOL0     H36164   1.347   5.434  10.253 -4.5321  1.3093 -0.3853
  268MOL0     H36165   1.567   5.539  10.202 -0.5744 -0.4249  0.3907
  268MOL0     H36166   1.865   5.727  10.081  0.6192 -1.3245  0.2094
  268MOL0     H36167   2.117   5.773  10.059  0.2810 -3.8470  1.7387
  268MOL0     H36168   2.242   5.899   9.687  0.9180  2.6152  0.6661
  268MOL0     H36169   2.373   5.770   9.709 -1.1135 -1.2851 -0.3693
  268MOL0     H36170   2.358   6.032   9.872  2.5017 -2.6494  3.0152
  268MOL0     H36171   2.432   6.029   9.714  2.3387 -1.3070 -0.6260
  268MOL0     H36172   2.580   5.856   9.770  0.8312 -0.4671  0.7789
  268MOL0     H36173   2.505   5.842   9.933 -0.9405 -0.6131 -0.4758
  268MOL0     H36174   2.691   6.052   9.818  0.4625 -1.5446 -0.4848
  268MOL0     H36175   2.573   6.105   9.950  2.0571  0.2792  1.2404
  268MOL0     H36176   2.869   5.855  10.132 -4.5844 -1.4773  2.4269
  268MOL0     H36177   2.128   5.727   9.653 -0.4357  1.4039  0.2301
  268MOL0     H36178   1.964   5.636   9.536 -0.3448  1.7917  0.7452
  268MOL0     H36179   1.865   5.515   9.608  3.6014 -1.1297 -3.1654
  268MOL0     H36180   1.803   5.675   9.557  1.7243 -0.2833 -2.1699
  269MOL0     O36181   5.613  10.368   5.742 -0.2441 -0.1424  0.0571
  269MOL0     C36182   5.574  10.311   5.843 -0.8246 -0.7358  0.3687
  269MOL0     O36183   5.659  10.232   5.927  0.5817 -1.1743 -0.2568
  269MOL0     C36184   5.788  10.226   5.885  0.3329  0.1766 -0.0331
  269MOL0     C36185   5.874  10.338   5.859  0.6952 -0.6001  0.1544
  269MOL0     C36186   5.997  10.317   5.808  0.0172 -0.3465 -0.7317
  269MOL0     C36187   6.054  10.193   5.791  0.5576 -0.2116 -0.3592
  269MOL0     O36188   6.172  10.160   5.744  0.5690  0.1606  0.9130
  269MOL0     C36189   6.267  10.264   5.735 -0.8936  0.2324 -0.5385
  269MOL0     C36190   6.407  10.199   5.726 -0.7012  0.7347 -0.6505
  269MOL0     C36191   6.446  10.179   5.582 -0.6708  0.0437 -0.1126
  269MOL0     C36192   6.598  10.151   5.577  0.6097 -0.4817  0.1341
  269MOL0     C36193   6.646  10.029   5.663 -0.0536  0.3601  0.8322
  269MOL0     C36194   6.770   9.971   5.611  0.3152 -0.0206 -0.4696
  269MOL0     C36195   6.832   9.863   5.689 -0.0125  0.6452 -0.1053
  269MOL0     C36196   6.932   9.780   5.606  0.4705  0.0032 -0.0122
  269MOL0     N36197   7.008   9.689   5.687  0.0634 -0.1658  0.3001
  269MOL0     C36198   7.102   9.720   5.790 -0.2743  0.0988  0.7593
  269MOL0     C36199   7.148   9.599   5.826 -0.8926  0.1485 -0.5537
  269MOL0     C36200   7.247   9.575   5.933 -0.6688 -0.4931 -0.2250
  269MOL0     C36201   7.354   9.480   5.888 -0.1690  0.6758  0.5051
  269MOL0     C36202   7.471   9.467   5.987 -0.1674 -0.1304 -0.4519
  269MOL0     C36203   7.593   9.407   5.928 -0.3554 -0.1551 -0.4042
  269MOL0     O36204   7.657   9.513   5.854 -0.0203  0.0772 -0.0515
  269MOL0     C36205   7.767   9.482   5.768  0.0146 -0.0317  0.2924
  269MOL0     C36206   7.817   9.351   5.757  0.3600  0.3745  0.5327
  269MOL0     C36207   7.928   9.325   5.685 -0.2687  0.8286 -0.1821
  269MOL0     C36208   8.003   9.429   5.627 -0.0960  0.4300  0.7339
  269MOL0     C36209   8.123   9.403   5.556  0.2844  0.5072  0.6792
  269MOL0     O36210   8.145   9.269   5.533 -0.1441 -1.2783  0.6920
  269MOL0     C36211   8.267   9.222   5.505 -0.5341  0.2785 -0.6953
  269MOL0     C36212   8.275   9.107   5.421  0.2904  0.0888  0.4521
  269MOL0     C36213   8.395   9.065   5.387 -0.0913  0.5607 -0.0956
  269MOL0     C36214   8.517   9.122   5.432 -0.6911  0.4098 -0.6609
  269MOL0     O36215   8.638   9.091   5.396 -0.4758 -0.0638 -0.0405
  269MOL0     C36216   8.674   8.967   5.336 -0.7322  0.1594 -0.9799
  269MOL0     C36217   8.830   8.954   5.330 -0.5903 -0.2267  0.3085
  269MOL0     C36218   8.909   8.926   5.457 -0.9166 -0.4822  0.2579
  269MOL0     C36219   9.066   8.892   5.429  0.4686 -0.1225 -0.5043
  269MOL0     C36220   9.148   9.009   5.378 -0.0822  0.1099 -0.6116
  269MOL0     C36221   9.301   8.975   5.364  0.0657 -0.4363  0.4265
  269MOL0     C36222   9.380   9.112   5.336 -0.6707  1.1948  0.1120
  269MOL0     C36223   9.526   9.075   5.305 -0.6759  0.9543 -0.3166
  269MOL0    Cl36224   9.619   9.017   5.445  0.4670  0.1564  0.0388
  269MOL0     C36225   8.510   9.227   5.524 -0.6161  1.0133 -0.4836
  269MOL0     C36226   8.391   9.279   5.561  0.0784  0.7393  0.2293
  269MOL0     O36227   8.201   9.495   5.532  0.9789  0.1811 -0.1722
  269MOL0     C36228   7.945   9.559   5.626 -0.1564 -0.1628 -0.5985
  269MOL0     C36229   7.832   9.587   5.704 -0.4431 -0.3942  0.0277
  269MOL0     N36230   7.091   9.503   5.751  0.2776  0.1653 -0.4695
  269MOL0     N36231   6.994   9.556   5.686 -0.1547 -0.2772  0.6457
  269MOL0     C36232   5.976  10.085   5.818  0.5041 -0.1065 -0.0293
  269MOL0     C36233   5.844  10.103   5.869 -0.2668  1.6432 -0.0289
  269MOL0     C36234   5.432  10.321   5.879  0.4815 -0.1601  0.0268
  269MOL0     C36235   5.405  10.319   6.015 -0.6515 -0.1928  0.0485
  269MOL0     C36236   5.270  10.316   6.056  0.3628  0.0638 -0.2977
  269MOL0     C36237   5.162  10.324   5.973  0.6671 -0.2096  0.2564
  269MOL0     O36238   5.027  10.332   6.005 -0.1030 -0.1024  0.2112
  269MOL0     C36239   4.990  10.297   6.135 -0.1962  0.4266 -1.3693
  269MOL0     C36240   4.845  10.282   6.155  0.8741 -0.0718  0.3786
  269MOL0     C36241   4.810  10.285   6.304  0.0154  0.0028  0.4949
  269MOL0     C36242   4.660  10.247   6.318 -0.7433  0.0411 -0.0934
  269MOL0     C36243   4.617  10.243   6.457  0.8507  0.2666 -0.6399
  269MOL0     C36244   4.584  10.240   6.573  0.5845 -0.7327  0.0258
  269MOL0     C36245   5.196  10.334   5.842  0.5260 -0.5727 -0.1396
  269MOL0     C36246   5.324  10.327   5.786  0.1135 -0.6147  0.2622
  269MOL0     C36247   5.343  10.321   5.636 -0.4567 -0.1028 -0.4690
  269MOL0     H36248   5.845  10.442   5.873  1.8661  0.0382 -1.6742
  269MOL0     H36249   6.048  10.411   5.788 -0.6846 -0.1053 -1.4479
  269MOL0     H36250   6.254  10.339   5.656 -0.7561  0.3721 -0.4300
  269MOL0     H36251   6.267  10.317   5.831 -1.6948 -2.7325  1.2116
  269MOL0     H36252   6.396  10.104   5.777  0.3018  1.5851  1.2462
  269MOL0     H36253   6.474  10.263   5.785  1.7658 -1.4495 -0.8712
  269MOL0     H36254   6.440  10.270   5.522  1.8664  0.8648  0.7164
  269MOL0     H36255   6.392  10.099   5.532 -1.0481  1.2664 -1.7471
  269MOL0     H36256   6.626  10.136   5.473 -0.4901 -0.6797 -0.1481
  269MOL0     H36257   6.654  10.237   5.615  1.6381 -0.8529 -0.5071
  269MOL0     H36258   6.670  10.062   5.765  3.0865  0.4688  0.1664
  269MOL0     H36259   6.575   9.947   5.668 -2.7497  2.5146 -0.0962
  269MOL0     H36260   6.745   9.930   5.513  2.5675 -1.6136 -0.4811
  269MOL0     H36261   6.840  10.052   5.587  1.0118 -0.4487  0.0520
  269MOL0     H36262   6.749   9.794   5.709 -1.6625  1.9874 -1.9814
  269MOL0     H36263   6.871   9.890   5.788 -1.1970  2.2396 -0.0339
  269MOL0     H36264   6.871   9.727   5.532 -1.6155  0.1917  1.4835
  269MOL0     H36265   6.995   9.849   5.549 -0.2522  1.9872  1.4690
  269MOL0     H36266   7.128   9.813   5.839  0.0303  0.0661  0.6661
  269MOL0     H36267   7.297   9.667   5.964  1.2353 -1.1720 -1.1329
  269MOL0     H36268   7.198   9.534   6.022 -1.0728 -0.0591 -0.2466
  269MOL0     H36269   7.300   9.386   5.872 -1.1312  0.7385  2.9434
  269MOL0     H36270   7.400   9.504   5.792 -1.2706  0.1727 -0.1655
  269MOL0     H36271   7.430   9.401   6.064 -1.7812 -0.0053 -1.1680
  269MOL0     H36272   7.502   9.560   6.034  0.7425  0.0076 -1.2990
  269MOL0     H36273   7.563   9.322   5.867  0.3308 -0.1931 -0.6951
  269MOL0     H36274   7.663   9.381   6.008  2.2399 -0.5937 -2.6551
  269MOL0     H36275   7.771   9.274   5.817 -0.9446  0.3703 -0.4399
  269MOL0     H36276   7.966   9.223   5.693  0.1646  1.0496  0.6035
  269MOL0     H36277   8.185   9.059   5.386  0.4536  1.3015 -1.8507
  269MOL0     H36278   8.393   8.975   5.327 -0.4262  0.8800 -0.5645
  269MOL0     H36279   8.646   8.888   5.407 -0.2752 -0.5138 -1.5314
  269MOL0     H36280   8.640   8.945   5.234 -1.9636  0.1310 -0.5830
  269MOL0     H36281   8.864   8.882   5.254 -1.3351 -0.9710  0.6629
  269MOL0     H36282   8.865   9.050   5.292  2.4940 -0.3644  2.4077
  269MOL0     H36283   8.907   9.014   5.521  1.1397 -1.4122  1.7083
  269MOL0     H36284   8.861   8.848   5.517 -2.8692 -2.6971 -3.7277
  269MOL0     H36285   9.061   8.817   5.350  3.7445  0.6062 -1.5268
  269MOL0     H36286   9.113   8.855   5.521 -1.9142 -0.1127  0.8098
  269MOL0     H36287   9.129   9.096   5.442  0.1040  1.5957 -2.5087
  269MOL0     H36288   9.112   9.043   5.281  0.2124  2.3862  0.0215
  269MOL0     H36289   9.318   8.921   5.457 -2.8860 -1.7109  0.3215
  269MOL0     H36290   9.308   8.915   5.273 -2.2423  0.0301 -0.1270
  269MOL0     H36291   9.375   9.173   5.427 -1.9877 -1.3280  1.8582
  269MOL0     H36292   9.325   9.169   5.260 -0.7989  0.0515 -0.6716
  269MOL0     H36293   9.537   9.020   5.211 -0.8938 -0.9104  0.6927
  269MOL0     H36294   9.577   9.171   5.296  1.1413  0.3773  2.4236
  269MOL0     H36295   8.603   9.266   5.563 -0.9198  2.3411 -1.0394
  269MOL0     H36296   8.384   9.371   5.618  1.0239  1.8809 -1.4523
  269MOL0     H36297   7.978   9.646   5.569  0.7316 -1.9642 -2.9995
  269MOL0     H36298   7.795   9.688   5.720 -3.1139 -1.3914  0.5870
  269MOL0     H36299   6.030   9.995   5.791 -0.0717 -0.1206 -1.1701
  269MOL0     H36300   5.786  10.015   5.896  0.4659  1.6015  1.5439
  269MOL0     H36301   5.489  10.323   6.084  1.6822  3.7239 -2.6216
  269MOL0     H36302   5.239  10.322   6.160  0.8568  2.0604 -0.2330
  269MOL0     H36303   5.027  10.378   6.199 -0.9530 -0.7757  0.6684
  269MOL0     H36304   5.041  10.203   6.157  1.3374  0.8159 -2.9770
  269MOL0     H36305   4.813  10.190   6.105 -0.2704 -0.2190  1.3291
  269MOL0     H36306   4.788  10.360   6.104  1.0909 -0.6525 -0.7802
  269MOL0     H36307   4.825  10.387   6.342 -0.6487  0.5994 -0.7978
  269MOL0     H36308   4.878  10.224   6.365  1.0322  1.5236  0.9373
  269MOL0     H36309   4.600  10.317   6.259  1.3341 -0.1828 -2.6654
  269MOL0     H36310   4.642  10.146   6.279  1.4066 -1.2676  2.0350
  269MOL0     H36311   4.565  10.229   6.678 -1.3364  4.5964  0.4949
  269MOL0     H36312   5.111  10.331   5.774 -0.9572 -0.1684  1.6317
  269MOL0     H36313   5.402  10.235   5.601  1.3152  1.1362 -0.6088
  269MOL0     H36314   5.245  10.298   5.592 -0.6844 -0.8426  0.4018
  269MOL0     H36315   5.385  10.408   5.585 -1.4999  0.0073 -1.1796
  270MOL0     O36316   9.386   7.919   6.797  0.2231  0.5144 -0.4833
  270MOL0     C36317   9.384   7.948   6.682  0.4578 -0.8798  0.3167
  270MOL0     O36318   9.485   7.967   6.592  0.8315  0.2366 -1.3925
  270MOL0     C36319   9.617   7.933   6.610 -0.1335  0.3487 -0.0094
  270MOL0     C36320   9.700   7.962   6.501  0.0577  0.3354  0.0961
  270MOL0     C36321   9.839   7.943   6.502 -0.6595 -0.2800  0.5947
  270MOL0     C36322   9.905   7.900   6.617 -0.8357 -0.5949  0.0005
  270MOL0     O36323  10.040   7.877   6.604 -0.2621  0.5978  0.4788
  270MOL0     C36324  10.124   7.993   6.597 -0.3329 -0.9629 -0.9912
  270MOL0     C36325  10.270   7.957   6.632 -0.7671 -0.0488 -0.1608
  270MOL0     C36326  10.360   8.078   6.608  0.4139 -0.1123  0.0794
  270MOL0     C36327  10.367   8.153   6.736 -0.7345  0.0582 -0.4768
  270MOL0     C36328  10.448   8.285   6.737  0.1806  0.6058 -0.2371
  270MOL0     C36329  10.589   8.263   6.698 -0.4376  0.8008  0.1306
  270MOL0     C36330  10.658   8.392   6.676 -0.7632 -0.0938  0.5825
  270MOL0     C36331  10.794   8.365   6.634  1.2839  0.5053  0.1754
  270MOL0     N36332  10.866   8.492   6.623 -0.8352  0.1666 -0.1709
  270MOL0     C36333  10.859   8.601   6.535  0.0631  0.2282  0.6206
  270MOL0     C36334  10.943   8.693   6.579 -0.3668  0.2455 -1.3474
  270MOL0     C36335  10.986   8.815   6.499  0.0481  0.5043  0.1419
  270MOL0     C36336  11.074   8.784   6.373 -0.0961 -0.7189  0.0675
  270MOL0     C36337  11.174   8.679   6.380 -0.1099  0.0612 -0.4522
  270MOL0     C36338  11.278   8.684   6.256  0.8271 -0.1590 -0.6922
  270MOL0     O36339  11.360   8.797   6.270 -0.2311 -0.3606  0.2635
  270MOL0     C36340  11.471   8.814   6.192  0.1003  0.2781  0.4459
  270MOL0     C36341  11.503   8.944   6.144  0.5157  0.4426 -0.1314
  270MOL0     C36342  11.624   8.977   6.077 -0.1836  0.6627 -0.3333
  270MOL0     C36343  11.717   8.871   6.049  0.6043 -0.1539 -0.0940
  270MOL0     C36344  11.848   8.904   5.981 -0.0621  0.6431 -0.3475
  270MOL0     O36345  11.880   9.033   5.948 -0.3451 -0.9012 -0.3484
  270MOL0     C36346  12.012   9.052   5.932 -0.0676  0.4904 -0.7483
  270MOL0     C36347  12.065   9.052   5.800  0.1949  0.3155 -0.1913
  270MOL0     C36348  12.208   9.063   5.780 -0.0570 -0.5739 -0.0800
  270MOL0     C36349  12.293   9.082   5.885 -0.2546  0.8708  0.1354
  270MOL0     O36350  12.421   9.100   5.858  0.5245 -0.5368  0.3982
  270MOL0     C36351  12.513   9.046   5.950  0.2078 -0.6945 -0.3656
  270MOL0     C36352  12.650   9.051   5.868  0.3695 -0.6994  0.6121
  270MOL0     C36353  12.764   9.001   5.957 -0.6625  0.8019  0.2092
  270MOL0     C36354  12.871   9.113   5.973  0.0001  0.0367  0.2326
  270MOL0     C36355  12.941   9.166   5.847  0.3811 -0.0413  0.1778
  270MOL0     C36356  13.087   9.216   5.869 -0.1351  0.2104  0.4461
  270MOL0     C36357  13.163   9.249   5.741  0.0411  0.2635  0.7510
  270MOL0     C36358  13.287   9.329   5.780  0.1990 -0.0496 -0.2033
  270MOL0    Cl36359  13.425   9.283   5.670  0.1706  0.3226  0.4234
  270MOL0     C36360  12.242   9.084   6.015  0.1880 -1.0886  0.1890
  270MOL0     C36361  12.105   9.072   6.036  0.8632  0.4163  0.2688
  270MOL0     O36362  11.924   8.809   5.978 -0.1877 -0.4558 -0.2748
  270MOL0     C36363  11.682   8.740   6.086 -0.6144  0.9556  0.5586
  270MOL0     C36364  11.566   8.712   6.162  0.3597 -0.1273 -0.7742
  270MOL0     N36365  11.002   8.643   6.698 -0.1336  0.3637 -0.0947
  270MOL0     N36366  10.950   8.529   6.715 -0.4869  0.9194 -0.5667
  270MOL0     C36367   9.831   7.873   6.732  1.0477  0.1339  0.2523
  270MOL0     C36368   9.688   7.882   6.729  1.0433  0.4238  0.1048
  270MOL0     C36369   9.251   7.976   6.620 -0.0971 -0.5563  0.4598
  270MOL0     C36370   9.234   8.093   6.548  0.2138 -0.7110 -0.0670
  270MOL0     C36371   9.109   8.111   6.492  0.2886 -0.8404 -0.0389
  270MOL0     C36372   8.997   8.034   6.517  0.4667 -0.1569  0.6283
  270MOL0     O36373   8.886   8.074   6.443 -0.3068  0.5177  0.3668
  270MOL0     C36374   8.767   7.991   6.420  0.0802  0.6145 -0.6935
  270MOL0     C36375   8.664   8.073   6.335  0.4272 -0.3735  1.0787
  270MOL0     C36376   8.528   7.996   6.350  0.1175 -0.7785 -0.0030
  270MOL0     C36377   8.429   8.043   6.249  0.1568 -0.3831 -0.4185
  270MOL0     C36378   8.363   8.155   6.304 -0.3118 -0.4910 -0.2720
  270MOL0     C36379   8.309   8.253   6.354  0.4360  0.7150  0.6654
  270MOL0     C36380   9.009   7.916   6.587  0.4136  0.2737 -0.1745
  270MOL0     C36381   9.135   7.889   6.647 -0.0557  0.3130 -0.0331
  270MOL0     C36382   9.146   7.762   6.736 -0.2758 -0.1991 -0.0423
  270MOL0     H36383   9.659   7.998   6.408 -0.2793  1.9910  0.8509
  270MOL0     H36384   9.889   7.958   6.407 -0.7333 -1.6885  0.3141
  270MOL0     H36385  10.117   8.041   6.500  0.7460 -0.4571 -0.8384
  270MOL0     H36386  10.096   8.075   6.663 -0.1498 -0.8080 -1.1074
  270MOL0     H36387  10.298   7.869   6.572  1.0810  0.4699 -0.0912
  270MOL0     H36388  10.269   7.926   6.737 -2.8471  0.3499 -0.0154
  270MOL0     H36389  10.325   8.134   6.521 -2.3569  2.1794  2.4748
  270MOL0     H36390  10.460   8.039   6.584  0.7960  1.7169 -1.4949
  270MOL0     H36391  10.267   8.175   6.775 -0.4472  0.0289  0.3053
  270MOL0     H36392  10.412   8.094   6.817  0.5112  0.8927 -0.5265
  270MOL0     H36393  10.394   8.358   6.677 -1.9115 -0.8355 -0.2482
  270MOL0     H36394  10.440   8.317   6.842  0.3028 -1.1331  0.3362
  270MOL0     H36395  10.645   8.207   6.774  0.1119 -0.9595 -1.5103
  270MOL0     H36396  10.583   8.208   6.604  0.4816 -1.1646  1.1427
  270MOL0     H36397  10.658   8.451   6.768  0.2470  0.0328  0.5055
  270MOL0     H36398  10.600   8.441   6.597  1.7539  1.6109 -0.3102
  270MOL0     H36399  10.840   8.305   6.713  0.7295  0.3601  0.3917
  270MOL0     H36400  10.789   8.320   6.534 -2.2176  0.0672  0.4122
  270MOL0     H36401  10.788   8.605   6.453 -0.2443 -1.9755  0.7110
  270MOL0     H36402  10.894   8.865   6.466  0.5815  1.2154 -0.2900
  270MOL0     H36403  11.041   8.882   6.566  0.5302 -1.0256  1.3215
  270MOL0     H36404  11.007   8.763   6.289 -2.0980 -1.0314  1.6412
  270MOL0     H36405  11.114   8.879   6.337 -0.3442 -0.5412  0.2636
  270MOL0     H36406  11.126   8.581   6.374  0.5361 -0.2780 -0.1851
  270MOL0     H36407  11.227   8.696   6.474 -1.0215  0.2543  0.0429
  270MOL0     H36408  11.213   8.684   6.168 -1.7456  0.9155  1.0568
  270MOL0     H36409  11.336   8.592   6.266  2.2444  0.4461 -2.7564
  270MOL0     H36410  11.444   9.031   6.171  3.1180  1.9748  0.9679
  270MOL0     H36411  11.628   9.083   6.056  0.2370  0.6796 -0.1875
  270MOL0     H36412  12.003   9.032   5.713 -0.2049  0.5328  0.0430
  270MOL0     H36413  12.243   9.055   5.677  0.4111  0.8785 -0.0615
  270MOL0     H36414  12.516   9.105   6.042 -1.1418 -0.5832 -0.3699
  270MOL0     H36415  12.489   8.942   5.972 -2.7295 -0.4075 -1.7628
  270MOL0     H36416  12.643   8.981   5.784  0.3679 -0.4595  0.4127
  270MOL0     H36417  12.676   9.145   5.819 -0.5388  1.5221  4.1004
  270MOL0     H36418  12.738   8.988   6.063 -1.3608  4.0084  0.5440
  270MOL0     H36419  12.811   8.916   5.908  0.9813  0.0373  2.9204
  270MOL0     H36420  12.947   9.059   6.030 -1.1382  0.6705  2.4570
  270MOL0     H36421  12.824   9.194   6.028  0.1966 -1.0036  1.9966
  270MOL0     H36422  12.892   9.246   5.791  1.7657  0.0420 -0.9960
  270MOL0     H36423  12.946   9.091   5.767  1.5424  0.2033 -0.0054
  270MOL0     H36424  13.079   9.309   5.927 -1.2852  0.5792 -0.2597
  270MOL0     H36425  13.142   9.140   5.924 -1.4372 -1.9117 -1.0544
  270MOL0     H36426  13.093   9.312   5.683  1.2158  0.5623 -0.3965
  270MOL0     H36427  13.191   9.166   5.676  1.5376  1.9530 -0.9086
  270MOL0     H36428  13.273   9.437   5.768 -1.4561 -0.0257  1.4069
  270MOL0     H36429  13.313   9.302   5.883 -0.8460  4.2124  1.3676
  270MOL0     H36430  12.303   9.102   6.103 -1.9216  0.9045  1.3473
  270MOL0     H36431  12.059   9.060   6.133 -2.6796  1.0845 -1.1808
  270MOL0     H36432  11.744   8.652   6.080 -0.9296  0.7830 -4.3923
  270MOL0     H36433  11.548   8.617   6.211 -1.5280 -0.3160 -1.7268
  270MOL0     H36434   9.883   7.846   6.823 -2.3340  3.1701  3.3989
  270MOL0     H36435   9.633   7.857   6.819  1.1082  1.0913  0.3320
  270MOL0     H36436   9.316   8.162   6.532 -1.4109  1.4829  0.5137
  270MOL0     H36437   9.092   8.197   6.429 -1.7289 -0.8527  0.4355
  270MOL0     H36438   8.722   7.976   6.519 -0.4503 -0.9112 -1.1261
  270MOL0     H36439   8.795   7.896   6.373  1.8481  1.8891 -2.3221
  270MOL0     H36440   8.699   8.073   6.232  3.7595  0.0161  2.1060
  270MOL0     H36441   8.661   8.179   6.362  0.1831 -0.8151  2.9563
  270MOL0     H36442   8.495   7.996   6.454 -0.3572 -1.2055 -0.1484
  270MOL0     H36443   8.559   7.893   6.327  1.8524 -0.4206  0.5378
  270MOL0     H36444   8.469   8.067   6.150 -0.7482 -2.2062 -1.2788
  270MOL0     H36445   8.355   7.963   6.235  0.9946 -0.9910 -1.5625
  270MOL0     H36446   8.281   8.341   6.408  0.7151  0.3862  1.3562
  270MOL0     H36447   8.922   7.853   6.595 -0.2651  1.1254 -0.6342
  270MOL0     H36448   9.226   7.696   6.701 -1.4439 -0.0875 -3.1994
  270MOL0     H36449   9.132   7.776   6.844 -0.7437 -2.5805  0.2576
  270MOL0     H36450   9.054   7.710   6.709 -1.4997  1.4095  0.8209
  271MOL0     O36451   3.821   7.050   7.914 -0.3898  0.1058  0.9689
  271MOL0     C36452   3.845   7.107   8.025  0.4841  0.3505 -0.0824
  271MOL0     O36453   3.968   7.153   8.071 -0.5304 -0.1671  0.1124
  271MOL0     C36454   4.075   7.146   7.976  0.1557 -0.1781 -0.4858
  271MOL0     C36455   4.075   7.236   7.870 -0.3729 -0.4419  0.6923
  271MOL0     C36456   4.179   7.237   7.776  0.0969 -0.0972 -0.7712
  271MOL0     C36457   4.288   7.146   7.786  0.0875 -0.2844  0.3634
  271MOL0     O36458   4.390   7.164   7.703  0.4871 -0.0983 -0.5344
  271MOL0     C36459   4.499   7.070   7.689  0.0777 -0.0098 -0.2097
  271MOL0     C36460   4.508   7.026   7.544  0.3187 -0.2009 -0.4230
  271MOL0     C36461   4.635   6.955   7.488 -0.2457  0.1148 -0.0820
  271MOL0     C36462   4.743   7.062   7.459 -0.2850 -0.2407  0.2585
  271MOL0     C36463   4.867   7.019   7.379  0.0066  0.4570  0.0126
  271MOL0     C36464   4.966   7.130   7.398  0.0391 -0.5831  0.0190
  271MOL0     C36465   5.108   7.102   7.342 -0.0935 -0.3771 -0.8506
  271MOL0     C36466   5.218   7.140   7.438 -0.7482 -0.1427  0.1261
  271MOL0     N36467   5.358   7.144   7.376  0.4198  0.5226  0.1048
  271MOL0     C36468   5.420   7.255   7.338 -0.3213 -0.2882 -0.1145
  271MOL0     C36469   5.542   7.210   7.294 -0.5754 -0.0773  0.2478
  271MOL0     C36470   5.647   7.304   7.236 -0.9107 -0.0520 -0.1614
  271MOL0     C36471   5.787   7.258   7.280 -0.8071  0.4749 -0.5172
  271MOL0     C36472   5.850   7.151   7.193  0.0663 -0.0922  0.3964
  271MOL0     C36473   5.997   7.127   7.218  0.0765 -0.4606  0.3408
  271MOL0     O36474   6.031   7.004   7.155  0.7383 -0.8889 -0.0066
  271MOL0     C36475   6.164   6.984   7.135 -0.1029 -0.4923  0.3447
  271MOL0     C36476   6.223   6.995   7.007  0.6142  0.7263  0.1032
  271MOL0     C36477   6.356   6.976   6.988  0.0279 -0.9055 -0.7588
  271MOL0     C36478   6.447   6.939   7.086 -0.4533  0.2877  0.0063
  271MOL0     C36479   6.593   6.914   7.062  0.8294  0.7674  0.2823
  271MOL0     O36480   6.664   6.846   7.163  0.0483 -0.2530  0.4974
  271MOL0     C36481   6.800   6.828   7.163 -0.2618  0.2238 -0.0434
  271MOL0     C36482   6.888   6.934   7.136 -0.1360  0.4924  0.2564
  271MOL0     C36483   7.026   6.916   7.137  0.5595 -0.1329 -0.2015
  271MOL0     C36484   7.073   6.791   7.167  0.0017  0.1549 -0.2295
  271MOL0     O36485   7.211   6.780   7.172 -0.3141  0.1831  0.2395
  271MOL0     C36486   7.270   6.662   7.232  1.1771 -0.4470 -0.4374
  271MOL0     C36487   7.423   6.698   7.254  0.8446  1.2354  1.1196
  271MOL0     C36488   7.520   6.716   7.132 -0.0885  0.5661  0.5914
  271MOL0     C36489   7.457   6.781   7.010  0.6815  0.5498  0.4912
  271MOL0     C36490   7.548   6.799   6.886  0.0550 -0.1774 -0.3914
  271MOL0     C36491   7.680   6.873   6.901  0.6257  0.3252  0.6998
  271MOL0     C36492   7.741   6.927   6.774 -0.4698 -0.8243 -0.6306
  271MOL0     C36493   7.750   6.827   6.664 -0.1742  0.3311 -0.7544
  271MOL0    Cl36494   7.884   6.883   6.563  0.2201  0.1823  0.2057
  271MOL0     C36495   6.987   6.684   7.183  0.5154  0.2381 -0.5466
  271MOL0     C36496   6.847   6.700   7.183  0.2261  0.4197  0.0019
  271MOL0     O36497   6.646   6.968   6.956 -0.6249  0.1831 -0.0452
  271MOL0     C36498   6.391   6.915   7.214 -0.3345 -0.1152 -0.3543
  271MOL0     C36499   6.250   6.942   7.235  0.6528  0.8727 -0.0058
  271MOL0     N36500   5.545   7.074   7.302 -0.7141 -0.3256 -0.4554
  271MOL0     N36501   5.429   7.033   7.353 -0.3160  0.3663  0.1694
  271MOL0     C36502   4.283   7.048   7.894 -0.1102 -0.3006 -0.0568
  271MOL0     C36503   4.178   7.055   7.987  0.1115 -0.6062 -0.2262
  271MOL0     C36504   3.742   7.091   8.138  0.0374  0.1149  0.1717
  271MOL0     C36505   3.621   7.030   8.104 -0.3552  0.1139  0.3651
  271MOL0     C36506   3.528   7.002   8.201 -0.6353  0.5341 -0.2972
  271MOL0     C36507   3.555   7.017   8.336 -0.7134  0.5012  0.3569
  271MOL0     O36508   3.458   6.979   8.427 -0.0665  0.7468 -0.2758
  271MOL0     C36509   3.477   7.008   8.567 -0.4619 -0.0211 -0.1772
  271MOL0     C36510   3.430   7.150   8.616  0.3462  0.3968 -0.1835
  271MOL0     C36511   3.275   7.170   8.625 -0.3875 -0.3507 -0.7159
  271MOL0     C36512   3.202   7.094   8.747 -0.4017  0.1791 -0.1444
  271MOL0     C36513   3.095   7.004   8.701 -0.0641 -0.8229  0.4325
  271MOL0     C36514   3.008   6.938   8.648 -0.9631  0.3047  1.1445
  271MOL0     C36515   3.679   7.064   8.374  0.3149  0.6833  0.4153
  271MOL0     C36516   3.778   7.100   8.277 -0.0607 -0.1918  0.1496
  271MOL0     C36517   3.913   7.128   8.334  0.5323 -0.1247  0.2827
  271MOL0     H36518   4.000   7.314   7.858 -0.4451 -0.0449  3.0962
  271MOL0     H36519   4.180   7.311   7.696 -0.9750  1.6047  0.7367
  271MOL0     H36520   4.591   7.119   7.722 -0.8368  1.1693  0.7386
  271MOL0     H36521   4.484   6.977   7.744  1.0985 -0.0460  0.0311
  271MOL0     H36522   4.487   7.114   7.484 -1.0396  0.7947  1.4002
  271MOL0     H36523   4.419   6.966   7.522 -0.2656  0.8478 -0.9872
  271MOL0     H36524   4.605   6.905   7.395  1.6721 -0.0446 -0.6588
  271MOL0     H36525   4.673   6.883   7.561  1.9299  0.8639 -0.3990
  271MOL0     H36526   4.700   7.152   7.416 -1.6251 -0.7385  0.5108
  271MOL0     H36527   4.779   7.088   7.559 -1.2625  1.3907  0.2170
  271MOL0     H36528   4.913   6.930   7.421 -1.2403 -0.5754 -0.7297
  271MOL0     H36529   4.842   6.996   7.275  3.0425 -1.6337 -0.3897
  271MOL0     H36530   4.927   7.223   7.357  1.7225  0.2803  0.2897
  271MOL0     H36531   4.971   7.161   7.503  1.1943  2.7232 -0.9049
  271MOL0     H36532   5.116   7.162   7.251  4.5181 -0.0339 -0.4645
  271MOL0     H36533   5.127   6.995   7.328 -2.1877 -0.9879  0.5287
  271MOL0     H36534   5.204   7.241   7.479 -0.3334  0.0102 -0.1017
  271MOL0     H36535   5.225   7.074   7.524  1.8287 -1.2933 -0.8706
  271MOL0     H36536   5.377   7.355   7.343 -0.7109 -0.2128 -3.2024
  271MOL0     H36537   5.627   7.289   7.130  2.1107 -0.7626 -0.7295
  271MOL0     H36538   5.624   7.408   7.263 -0.6428  0.7131 -2.6474
  271MOL0     H36539   5.853   7.345   7.283 -0.4287  0.1679  1.0791
  271MOL0     H36540   5.792   7.214   7.380  3.4355 -1.0261 -1.1756
  271MOL0     H36541   5.841   7.184   7.089  0.8456  0.1159  0.3905
  271MOL0     H36542   5.789   7.061   7.203 -2.9294  1.6142 -1.0439
  271MOL0     H36543   6.024   7.129   7.324  0.2865  1.2814  0.2823
  271MOL0     H36544   6.059   7.203   7.170 -0.3652 -2.1694 -3.2836
  271MOL0     H36545   6.154   7.021   6.928 -0.7892  0.0513  1.0657
  271MOL0     H36546   6.386   6.971   6.883  0.1540  0.2481 -0.7892
  271MOL0     H36547   6.846   7.030   7.107 -1.4906  0.2058  1.1863
  271MOL0     H36548   7.102   6.992   7.121  0.3116  0.6609  2.0346
  271MOL0     H36549   7.225   6.636   7.328  0.4203 -2.9736 -1.4037
  271MOL0     H36550   7.264   6.573   7.168  2.1819 -0.6310 -0.2919
  271MOL0     H36551   7.430   6.790   7.312 -1.4084  1.2178  1.5101
  271MOL0     H36552   7.455   6.622   7.326 -0.2254  1.7261  2.1416
  271MOL0     H36553   7.601   6.784   7.158 -0.2053  1.5988 -1.5399
  271MOL0     H36554   7.566   6.620   7.107  1.5374  1.2812  0.7521
  271MOL0     H36555   7.420   6.875   7.050 -0.0698 -0.0606  1.2657
  271MOL0     H36556   7.372   6.723   6.974 -0.2593  3.1831 -1.8740
  271MOL0     H36557   7.484   6.842   6.808  1.7065  1.4250 -0.9270
  271MOL0     H36558   7.575   6.699   6.851  0.3559 -0.1716 -0.1726
  271MOL0     H36559   7.652   6.952   6.972  1.9155  0.5612  0.9720
  271MOL0     H36560   7.749   6.801   6.945  0.5527 -0.8071 -0.9762
  271MOL0     H36561   7.839   6.963   6.807 -0.9731 -0.9628  1.1180
  271MOL0     H36562   7.689   7.018   6.744  0.6172  0.7980  2.0306
  271MOL0     H36563   7.774   6.725   6.694 -1.5580 -0.3936 -1.9556
  271MOL0     H36564   7.653   6.813   6.615 -0.0659 -0.1762 -0.8219
  271MOL0     H36565   7.027   6.584   7.200 -1.7615 -0.7715 -0.7070
  271MOL0     H36566   6.779   6.617   7.199 -0.1014  0.6822 -0.0116
  271MOL0     H36567   6.455   6.888   7.297 -2.2808 -3.8372  0.1467
  271MOL0     H36568   6.214   6.934   7.337 -1.1492 -1.8533 -0.7397
  271MOL0     H36569   4.356   6.969   7.911 -0.2038 -0.3537  0.0962
  271MOL0     H36570   4.175   6.991   8.075 -2.9421  1.3834  1.2809
  271MOL0     H36571   3.599   7.015   7.999  2.5679  0.1555 -0.3442
  271MOL0     H36572   3.438   6.952   8.165  1.0267 -0.6102 -3.2606
  271MOL0     H36573   3.576   6.985   8.607 -1.6217 -0.9282  2.3606
  271MOL0     H36574   3.413   6.938   8.622  0.7346  0.7728  2.3971
  271MOL0     H36575   3.473   7.231   8.556 -1.6259 -0.0924 -2.4029
  271MOL0     H36576   3.472   7.151   8.717 -0.1737 -2.7889  0.1702
  271MOL0     H36577   3.224   7.137   8.534 -2.3854 -0.9197  0.5270
  271MOL0     H36578   3.258   7.278   8.633  0.8159 -0.2070  0.0324
  271MOL0     H36579   3.275   7.044   8.811  0.6944  0.4443 -1.1497
  271MOL0     H36580   3.151   7.176   8.798 -0.8285 -0.6136  0.7384
  271MOL0     H36581   2.937   6.868   8.609  0.7137 -2.8618  3.3045
  271MOL0     H36582   3.695   7.092   8.478 -0.6715  3.3406 -0.0829
  271MOL0     H36583   3.952   7.219   8.288  1.4548 -1.0779 -0.9036
  271MOL0     H36584   3.919   7.153   8.440  1.1434  2.4910 -0.2873
  271MOL0     H36585   3.972   7.041   8.303 -1.8977 -1.8207  0.1358
  272MOL0     O36586  10.851   3.329   6.785 -0.4753 -0.3039  0.8215
  272MOL0     C36587  10.810   3.370   6.889 -0.4650 -0.2573 -0.2753
  272MOL0     O36588  10.886   3.443   6.973 -0.4441 -0.6769 -0.6319
  272MOL0     C36589  11.008   3.508   6.944  0.3046 -0.6011 -0.5683
  272MOL0     C36590  11.089   3.559   7.051  0.3973  0.1619  0.5651
  272MOL0     C36591  11.205   3.643   7.023  0.0153  0.2952 -0.0701
  272MOL0     C36592  11.248   3.650   6.889 -0.1211 -0.0152 -0.6336
  272MOL0     O36593  11.360   3.719   6.856 -0.9576 -0.6043  0.9595
  272MOL0     C36594  11.431   3.802   6.953 -0.3684 -0.5809  0.1892
  272MOL0     C36595  11.537   3.890   6.875 -0.3322 -0.7306 -0.1122
  272MOL0     C36596  11.663   3.936   6.961 -0.5326 -1.0321  0.8823
  272MOL0     C36597  11.624   3.998   7.101 -0.3358 -0.5476 -0.4455
  272MOL0     C36598  11.736   4.036   7.200 -0.3988  0.2609  0.9256
  272MOL0     C36599  11.847   3.933   7.216 -0.8690  0.4310  0.3328
  272MOL0     C36600  11.968   4.000   7.288 -0.9555  0.1888 -0.3545
  272MOL0     C36601  12.084   3.904   7.282 -0.1678 -0.8126  1.2526
  272MOL0     N36602  12.189   3.935   7.375  1.0469 -0.0611 -0.4362
  272MOL0     C36603  12.266   4.050   7.368 -0.3550  0.3647 -0.5667
  272MOL0     C36604  12.323   4.058   7.489  0.4073 -0.2006 -1.3944
  272MOL0     C36605  12.420   4.155   7.553  0.4778 -0.1044  0.0602
  272MOL0     C36606  12.500   4.236   7.449 -0.5558  0.4902 -0.9279
  272MOL0     C36607  12.568   4.356   7.512 -0.3589  0.4494 -0.0191
  272MOL0     C36608  12.631   4.443   7.400 -0.5735  0.4507  0.1819
  272MOL0     O36609  12.744   4.369   7.343 -0.2930  0.6358 -0.9338
  272MOL0     C36610  12.864   4.380   7.415 -0.1035 -0.0846  0.1208
  272MOL0     C36611  12.919   4.494   7.460  0.2327  0.2793 -0.5239
  272MOL0     C36612  13.044   4.489   7.523  0.2824  0.2611 -1.2259
  272MOL0     C36613  13.111   4.366   7.551 -0.2284  0.5227  0.2655
  272MOL0     C36614  13.239   4.357   7.630 -0.0991  0.6339 -0.2522
  272MOL0     O36615  13.312   4.246   7.617 -0.0354 -0.0549  0.2176
  272MOL0     C36616  13.411   4.214   7.699  0.3034  0.6270 -0.3477
  272MOL0     C36617  13.546   4.246   7.671 -0.6290  0.3801  0.2381
  272MOL0     C36618  13.647   4.190   7.753 -0.0300 -0.2371  0.2858
  272MOL0     C36619  13.620   4.117   7.868  0.4854  0.1477  0.2647
  272MOL0     O36620  13.725   4.048   7.933  0.3858 -0.3571  0.1843
  272MOL0     C36621  13.725   4.026   8.067  0.1855 -0.1279 -0.6441
  272MOL0     C36622  13.858   4.079   8.129  1.0862 -1.0618  0.2544
  272MOL0     C36623  13.981   3.990   8.104 -0.0109  0.5321  0.8672
  272MOL0     C36624  14.003   3.914   8.235 -0.2755  0.7997 -0.1683
  272MOL0     C36625  13.908   3.793   8.249  0.4800  0.0156  0.4124
  272MOL0     C36626  13.946   3.720   8.375 -0.1916 -0.6159 -0.6985
  272MOL0     C36627  14.068   3.627   8.349  0.4080 -0.4350  0.3875
  272MOL0     C36628  14.103   3.538   8.472  0.3875  0.0997  0.8319
  272MOL0    Cl36629  13.985   3.405   8.475  0.1570 -0.5093 -0.0422
  272MOL0     C36630  13.485   4.103   7.902  0.0412  0.7711 -0.2060
  272MOL0     C36631  13.386   4.145   7.815  0.1973 -1.2448 -0.0347
  272MOL0     O36632  13.275   4.454   7.691  0.3121  0.0653 -0.2266
  272MOL0     C36633  13.057   4.254   7.494 -1.3667 -0.5012  0.3067
  272MOL0     C36634  12.930   4.261   7.426 -0.5543  0.8727 -1.1274
  272MOL0     N36635  12.285   3.953   7.571  0.4618  0.1245  0.3166
  272MOL0     N36636  12.190   3.890   7.503 -0.0538  0.3465  0.3057
  272MOL0     C36637  11.172   3.597   6.790 -0.0626  0.4096  0.3612
  272MOL0     C36638  11.054   3.535   6.814  0.9094 -0.3253  0.6540
  272MOL0     C36639  10.682   3.322   6.941  0.4327  0.2534  0.4965
  272MOL0     C36640  10.655   3.333   7.084  0.0582 -0.2058 -0.4917
  272MOL0     C36641  10.530   3.301   7.144 -0.1735  0.3026  0.4850
  272MOL0     C36642  10.437   3.228   7.072  0.3525 -0.1180  1.4448
  272MOL0     O36643  10.322   3.164   7.113  0.0936  0.2340 -0.2797
  272MOL0     C36644  10.296   3.163   7.260  0.3837  0.1462  0.1851
  272MOL0     C36645  10.219   3.289   7.292 -0.2443  0.1465  1.1052
  272MOL0     C36646  10.107   3.330   7.191  0.5679  0.4052 -0.9529
  272MOL0     C36647  10.005   3.221   7.181 -0.6243  0.4669  0.9035
  272MOL0     C36648   9.957   3.173   7.312 -0.2339  0.2906 -0.3051
  272MOL0     C36649   9.895   3.121   7.401  0.8259  0.1084  0.2928
  272MOL0     C36650  10.460   3.223   6.935 -0.2850 -0.7771 -0.0670
  272MOL0     C36651  10.577   3.261   6.865  0.0158  0.1764 -0.9169
  272MOL0     C36652  10.577   3.246   6.716  0.7368 -0.0271 -0.3925
  272MOL0     H36653  11.043   3.549   7.149 -3.4070 -0.6285 -1.0956
  272MOL0     H36654  11.248   3.684   7.114  2.1919 -1.8417 -0.0204
  272MOL0     H36655  11.362   3.857   7.017 -2.9508  0.6725 -3.3253
  272MOL0     H36656  11.501   3.738   7.007  5.3705  3.8338 -1.0631
  272MOL0     H36657  11.485   3.981   6.844 -0.8804 -0.5860  1.1633
  272MOL0     H36658  11.569   3.830   6.790  3.7239  2.4263 -1.1074
  272MOL0     H36659  11.717   4.008   6.898 -0.8029 -0.7866  0.9327
  272MOL0     H36660  11.731   3.851   6.967 -2.1264 -2.4883 -0.7570
  272MOL0     H36661  11.562   4.087   7.096  0.0621 -0.1064  1.5003
  272MOL0     H36662  11.560   3.926   7.153 -0.7387 -0.6179 -1.0290
  272MOL0     H36663  11.773   4.136   7.175  0.3550  0.0279  1.0828
  272MOL0     H36664  11.682   4.050   7.294 -0.1495 -1.6595  1.3898
  272MOL0     H36665  11.816   3.844   7.271 -2.0669  0.9712  0.5572
  272MOL0     H36666  11.871   3.892   7.118  3.6825  1.0845  0.9617
  272MOL0     H36667  11.969   4.036   7.391 -1.6672  1.1843 -0.6807
  272MOL0     H36668  12.002   4.084   7.226 -0.8528 -0.2560 -0.9088
  272MOL0     H36669  12.060   3.800   7.304  2.3627 -1.7923 -0.2306
  272MOL0     H36670  12.131   3.910   7.183  2.9990 -2.5258  2.4928
  272MOL0     H36671  12.286   4.111   7.280  0.3964  0.4841 -0.3234
  272MOL0     H36672  12.375   4.212   7.634  1.2004 -0.7409  0.9296
  272MOL0     H36673  12.487   4.092   7.612  1.5463  0.9063 -0.0416
  272MOL0     H36674  12.565   4.171   7.390  0.9875 -0.1216  1.3349
  272MOL0     H36675  12.432   4.288   7.380  2.7393  3.6189 -2.1284
  272MOL0     H36676  12.637   4.326   7.590 -1.5145  1.0014  1.2611
  272MOL0     H36677  12.493   4.420   7.559 -1.5124 -1.5452  1.0091
  272MOL0     H36678  12.663   4.541   7.436  0.3355  0.3665 -0.3623
  272MOL0     H36679  12.558   4.456   7.319 -1.5046 -1.2404  0.6891
  272MOL0     H36680  12.883   4.595   7.444 -1.8054 -0.3250 -0.0605
  272MOL0     H36681  13.099   4.579   7.551  1.0458  0.1509 -2.3229
  272MOL0     H36682  13.571   4.305   7.583 -2.7908 -3.1465 -3.0481
  272MOL0     H36683  13.751   4.200   7.725  0.4896  2.0684  2.6075
  272MOL0     H36684  13.642   4.065   8.127  0.2989 -1.0804  0.1563
  272MOL0     H36685  13.729   3.917   8.080 -1.7279 -0.1786 -0.1845
  272MOL0     H36686  13.875   4.177   8.083 -2.3004  0.7606  2.4330
  272MOL0     H36687  13.844   4.111   8.233  3.0784  2.4736 -0.4026
  272MOL0     H36688  13.957   3.919   8.023 -0.6070 -1.0627  2.3756
  272MOL0     H36689  14.065   4.055   8.078 -1.5989  2.3010 -0.1257
  272MOL0     H36690  13.993   3.981   8.321 -0.0058 -1.2439  1.5289
  272MOL0     H36691  14.107   3.881   8.237 -0.0980  1.2429 -1.3611
  272MOL0     H36692  13.907   3.718   8.169 -1.8514 -2.2408  2.3925
  272MOL0     H36693  13.803   3.826   8.246  0.4589 -0.0531 -2.2458
  272MOL0     H36694  13.957   3.790   8.459  1.6951 -0.1804 -1.2509
  272MOL0     H36695  13.854   3.672   8.410 -0.9864  0.8706 -0.6755
  272MOL0     H36696  14.159   3.680   8.319 -0.2914  1.3979  1.3180
  272MOL0     H36697  14.041   3.561   8.266 -1.8376  1.8293 -0.8310
  272MOL0     H36698  14.202   3.493   8.461  1.1995  2.0655 -0.4781
  272MOL0     H36699  14.104   3.595   8.566 -0.6533  0.1177  0.8442
  272MOL0     H36700  13.467   4.041   7.990 -0.0018  0.6398 -0.3071
  272MOL0     H36701  13.283   4.128   7.845 -0.6273  1.2452 -1.1483
  272MOL0     H36702  13.111   4.160   7.500  0.3797  0.5051  1.1867
  272MOL0     H36703  12.883   4.170   7.389 -1.0211  0.2378  0.9355
  272MOL0     H36704  11.210   3.603   6.689  1.1217 -0.3070  0.7504
  272MOL0     H36705  11.004   3.502   6.723 -0.7836 -0.3133  1.5469
  272MOL0     H36706  10.728   3.382   7.148 -1.1433 -0.2493  0.9504
  272MOL0     H36707  10.530   3.310   7.252 -1.5115  1.9590  0.3892
  272MOL0     H36708  10.384   3.155   7.324  1.1329 -0.5748 -0.8885
  272MOL0     H36709  10.240   3.071   7.281  2.0969 -0.8144  0.7307
  272MOL0     H36710  10.286   3.374   7.312 -0.9417  0.4283  2.3544
  272MOL0     H36711  10.168   3.280   7.388 -0.8476  1.4050  0.9269
  272MOL0     H36712  10.156   3.353   7.096 -0.4854  4.4045 -0.7315
  272MOL0     H36713  10.061   3.424   7.226 -1.5913 -0.3667 -1.5681
  272MOL0     H36714   9.921   3.264   7.126  0.4871  0.1391 -1.1392
  272MOL0     H36715  10.030   3.146   7.105 -0.4433  1.0171  0.4193
  272MOL0     H36716   9.844   3.077   7.484  1.2553 -0.5523  0.2094
  272MOL0     H36717  10.384   3.182   6.869 -0.6874  0.0104 -0.0982
  272MOL0     H36718  10.563   3.345   6.672  3.3846  0.6721  0.1396
  272MOL0     H36719  10.673   3.209   6.679  0.6546 -0.9111  0.2565
  272MOL0     H36720  10.500   3.171   6.697  1.6680 -1.1601  0.1964
  273MOL0     O36721   2.798   6.783   0.796 -0.2294  0.5414 -0.2377
  273MOL0     C36722   2.692   6.825   0.756 -0.2765  0.1793  0.7935
  273MOL0     O36723   2.675   6.951   0.693 -0.3839  0.0100 -0.1321
  273MOL0     C36724   2.783   7.036   0.702 -0.2280  0.6644  0.2369
  273MOL0     C36725   2.828   7.110   0.593  0.5300 -0.8922  0.3986
  273MOL0     C36726   2.918   7.218   0.605 -0.1249  0.3983 -0.7997
  273MOL0     C36727   2.974   7.242   0.728 -0.5718  1.3261 -0.8884
  273MOL0     O36728   3.059   7.349   0.737 -0.1299  0.5490 -0.0480
  273MOL0     C36729   3.061   7.426   0.853 -0.6312 -0.7704 -0.3333
  273MOL0     C36730   3.163   7.393   0.971 -0.4766  0.3955 -0.5412
  273MOL0     C36731   3.305   7.356   0.916 -0.1158  0.0004  0.0202
  273MOL0     C36732   3.407   7.351   1.027  1.4922  0.2585  0.6355
  273MOL0     C36733   3.548   7.361   0.961 -0.6175  0.1162 -1.2289
  273MOL0     C36734   3.651   7.377   1.072  0.1124  0.1837 -0.4141
  273MOL0     C36735   3.791   7.332   1.022 -0.3617 -1.0549 -1.0900
  273MOL0     C36736   3.886   7.384   1.130  1.1667 -0.3345  0.6311
  273MOL0     N36737   4.023   7.353   1.099  0.2627  0.7709 -0.6686
  273MOL0     C36738   4.113   7.389   0.998  0.6634 -0.3237 -1.0687
  273MOL0     C36739   4.235   7.332   1.024  0.0253  0.2288 -0.5242
  273MOL0     C36740   4.362   7.357   0.954  0.8231 -0.0795  0.2516
  273MOL0     C36741   4.344   7.356   0.802  0.2940  0.4895 -0.6595
  273MOL0     C36742   4.330   7.494   0.753 -0.1195 -0.2518 -0.2220
  273MOL0     C36743   4.271   7.491   0.605  0.0183 -0.0743 -1.0168
  273MOL0     O36744   4.364   7.502   0.504  0.4643  0.4610 -0.0091
  273MOL0     C36745   4.434   7.619   0.484  0.8900 -0.3479  0.0348
  273MOL0     C36746   4.412   7.732   0.567  1.4334  0.4801 -0.2747
  273MOL0     C36747   4.499   7.838   0.562 -0.3944 -0.2695 -0.9165
  273MOL0     C36748   4.611   7.838   0.485 -0.9879  0.1952 -0.5168
  273MOL0     C36749   4.720   7.945   0.491  0.2932  0.5331  0.6797
  273MOL0     O36750   4.811   7.955   0.386 -0.1508  0.5055  1.0263
  273MOL0     C36751   4.911   8.043   0.404  0.6161  0.7362 -0.1475
  273MOL0     C36752   4.993   8.042   0.522  0.5921  0.0696 -0.6458
  273MOL0     C36753   5.088   8.140   0.540 -0.0363 -0.0210 -0.5979
  273MOL0     C36754   5.116   8.230   0.442  0.7008 -0.2770  0.0291
  273MOL0     O36755   5.219   8.319   0.457 -0.3136  1.0325  0.3947
  273MOL0     C36756   5.230   8.420   0.359 -0.5687  0.2369 -0.7528
  273MOL0     C36757   5.359   8.496   0.397  0.4356  0.2197  0.4847
  273MOL0     C36758   5.341   8.579   0.520 -0.1982 -0.3600  0.0359
  273MOL0     C36759   5.449   8.561   0.632 -0.3028  0.2008 -0.8914
  273MOL0     C36760   5.421   8.622   0.758 -0.1190  0.3855 -0.6602
  273MOL0     C36761   5.419   8.776   0.749  0.0249 -0.3400 -0.0613
  273MOL0     C36762   5.431   8.828   0.890  0.2211 -0.4177 -0.1482
  273MOL0     C36763   5.436   8.986   0.890 -0.2506 -0.8520  0.4194
  273MOL0    Cl36764   5.448   9.021   1.068  0.0872  0.7022  0.3637
  273MOL0     C36765   5.028   8.230   0.325  0.1619  0.3129 -0.3844
  273MOL0     C36766   4.923   8.139   0.302 -0.0520  0.3417 -0.4588
  273MOL0     O36767   4.725   8.002   0.600  0.1241  0.9512 -0.1901
  273MOL0     C36768   4.624   7.736   0.391 -0.0387 -0.2251 -0.2017
  273MOL0     C36769   4.536   7.629   0.391 -0.5527 -0.0701  0.4120
  273MOL0     N36770   4.220   7.264   1.139  0.5650 -0.1951 -0.1358
  273MOL0     N36771   4.099   7.267   1.180  0.1961 -0.0849 -0.4299
  273MOL0     C36772   2.940   7.158   0.832 -0.0349  0.7988 -0.2596
  273MOL0     C36773   2.839   7.063   0.819  0.3332  0.8433  0.3722
  273MOL0     C36774   2.571   6.755   0.780 -0.4290 -0.4437 -0.0413
  273MOL0     C36775   2.447   6.825   0.771 -0.3116 -0.0080 -0.6018
  273MOL0     C36776   2.328   6.759   0.789 -0.0885 -0.3422  0.2930
  273MOL0     C36777   2.325   6.628   0.811  0.0259  0.9241  0.4462
  273MOL0     O36778   2.211   6.560   0.827 -0.6008  0.2514  0.0749
  273MOL0     C36779   2.106   6.617   0.903 -0.0757  0.3826 -0.6611
  273MOL0     C36780   1.991   6.654   0.812  0.3748 -0.6407 -0.3399
  273MOL0     C36781   1.879   6.706   0.894  0.8574  0.3618 -0.5507
  273MOL0     C36782   1.752   6.736   0.798  0.0327  0.2192  0.3225
  273MOL0     C36783   1.772   6.817   0.670  0.0444  0.0869  0.7918
  273MOL0     C36784   1.756   6.863   0.559 -0.3375 -1.1346 -0.1503
  273MOL0     C36785   2.443   6.551   0.799  0.3464  0.1964 -0.0840
  273MOL0     C36786   2.566   6.612   0.789 -0.6261 -0.2089  0.3969
  273MOL0     C36787   2.686   6.517   0.786 -0.1771 -0.0952  1.3973
  273MOL0     H36788   2.779   7.079   0.500 -0.9616 -1.6361  1.3900
  273MOL0     H36789   2.932   7.278   0.515 -1.9711  1.5215 -0.3906
  273MOL0     H36790   3.091   7.530   0.837  0.0577 -0.8150  0.5418
  273MOL0     H36791   2.955   7.421   0.878 -0.5091 -2.0933 -0.0151
  273MOL0     H36792   3.139   7.304   1.030 -0.6559  0.6196 -0.2763
  273MOL0     H36793   3.180   7.477   1.039 -1.2331  0.5681 -0.5579
  273MOL0     H36794   3.324   7.429   0.838 -0.9055  0.4113  0.2009
  273MOL0     H36795   3.315   7.261   0.863  1.5157  1.9641 -3.5248
  273MOL0     H36796   3.395   7.433   1.098  0.6642  0.3079  0.4432
  273MOL0     H36797   3.391   7.256   1.079  0.9891 -0.3632 -0.6072
  273MOL0     H36798   3.566   7.271   0.901  1.3798  1.4300 -2.7225
  273MOL0     H36799   3.543   7.447   0.895  3.0412  1.2358 -0.2999
  273MOL0     H36800   3.643   7.480   1.107  0.3792  0.2974 -0.6904
  273MOL0     H36801   3.620   7.311   1.154 -2.5006 -0.4700 -1.7939
  273MOL0     H36802   3.811   7.391   0.932  1.0150  0.4319  0.1450
  273MOL0     H36803   3.794   7.225   0.997  0.7731 -0.8155 -2.0843
  273MOL0     H36804   3.879   7.494   1.127  0.8491 -0.3559  0.5577
  273MOL0     H36805   3.842   7.344   1.221  0.7740 -2.2230 -0.3517
  273MOL0     H36806   4.093   7.458   0.917  0.8203 -0.2216 -1.0215
  273MOL0     H36807   4.402   7.447   1.002  0.1966 -0.3090  1.2120
  273MOL0     H36808   4.425   7.270   0.974  2.8099  0.9502 -1.0744
  273MOL0     H36809   4.427   7.317   0.742 -0.4413  0.6050 -1.7880
  273MOL0     H36810   4.250   7.301   0.784  0.3578 -0.1410  0.7705
  273MOL0     H36811   4.426   7.546   0.761  0.0050 -0.6607  1.3601
  273MOL0     H36812   4.266   7.549   0.822  0.5966  2.3461 -1.5208
  273MOL0     H36813   4.194   7.570   0.601  0.0934  0.5303  3.7892
  273MOL0     H36814   4.219   7.398   0.580  0.5387 -0.1759 -1.7429
  273MOL0     H36815   4.332   7.744   0.639  2.2349 -0.1872  0.7468
  273MOL0     H36816   4.493   7.928   0.623  1.3363 -0.7263 -0.0110
  273MOL0     H36817   4.964   7.963   0.590 -2.4303  1.7346  0.1716
  273MOL0     H36818   5.142   8.155   0.633  1.3207  0.4773 -1.4363
  273MOL0     H36819   5.243   8.379   0.258  0.9510 -1.9784  0.2344
  273MOL0     H36820   5.143   8.485   0.358  0.1295  1.4747  2.9883
  273MOL0     H36821   5.441   8.424   0.404 -0.5801 -1.0446 -0.1662
  273MOL0     H36822   5.382   8.555   0.309  0.0096  1.6521  1.3006
  273MOL0     H36823   5.338   8.685   0.490  2.8062 -0.1663  0.0695
  273MOL0     H36824   5.247   8.564   0.573  0.4942 -0.0885  1.3912
  273MOL0     H36825   5.542   8.593   0.584 -0.0843  0.4134 -0.3303
  273MOL0     H36826   5.450   8.453   0.650 -2.1816 -0.2351 -3.0103
  273MOL0     H36827   5.491   8.589   0.835 -2.6168 -1.3537  1.0430
  273MOL0     H36828   5.326   8.588   0.802  1.1643 -0.2086  1.8391
  273MOL0     H36829   5.501   8.820   0.692  0.0233 -0.8022 -0.4241
  273MOL0     H36830   5.331   8.812   0.696 -0.5755 -1.6948 -0.0403
  273MOL0     H36831   5.525   8.799   0.937  2.6141  2.4345 -2.7259
  273MOL0     H36832   5.354   8.787   0.956 -1.6703  1.7332 -0.8652
  273MOL0     H36833   5.528   9.023   0.842 -0.2636 -2.3789 -0.8785
  273MOL0     H36834   5.348   9.033   0.845 -0.2756  0.5980  1.9162
  273MOL0     H36835   5.043   8.310   0.254 -0.5007  0.2269 -0.6301
  273MOL0     H36836   4.854   8.152   0.220 -0.1003  2.8147 -0.0987
  273MOL0     H36837   4.709   7.729   0.325  0.4190 -2.1193  0.5060
  273MOL0     H36838   4.555   7.547   0.322  0.5884  0.6363 -0.1427
  273MOL0     H36839   2.996   7.176   0.922 -0.9602  3.2116 -0.0856
  273MOL0     H36840   2.806   7.006   0.906  3.1134  0.9187  1.6012
  273MOL0     H36841   2.439   6.929   0.743 -0.0520  1.5162  4.1108
  273MOL0     H36842   2.240   6.821   0.775 -1.2933 -2.5429 -3.0910
  273MOL0     H36843   2.142   6.703   0.961 -2.2922 -0.2345  1.8431
  273MOL0     H36844   2.070   6.553   0.984  0.4900  1.0162  0.1141
  273MOL0     H36845   1.956   6.566   0.756  0.4567  0.2510 -1.8386
  273MOL0     H36846   2.022   6.729   0.739 -3.2319  0.4771 -0.8745
  273MOL0     H36847   1.905   6.800   0.942  2.0964 -2.3132  4.9056
  273MOL0     H36848   1.867   6.639   0.980 -0.4131 -0.1440 -1.0954
  273MOL0     H36849   1.712   6.639   0.767  1.0711  0.8656 -3.5630
  273MOL0     H36850   1.682   6.791   0.862 -0.8717  1.5238 -1.6605
  273MOL0     H36851   1.737   6.902   0.461  1.9953 -1.0101 -0.6188
  273MOL0     H36852   2.434   6.442   0.801 -2.0635  0.3461 -0.1733
  273MOL0     H36853   2.656   6.422   0.832  0.3057 -0.4416  1.0059
  273MOL0     H36854   2.727   6.501   0.685 -0.3881  1.0341  1.1206
  273MOL0     H36855   2.767   6.556   0.847 -1.3735  0.4867  2.6757
  274MOL0     O36856   5.018   7.181   2.718 -0.2224  0.1271  1.0645
  274MOL0     C36857   4.911   7.246   2.717 -0.0362  0.4065 -0.3919
  274MOL0     O36858   4.895   7.359   2.787  0.3697  0.6970  0.4338
  274MOL0     C36859   5.016   7.405   2.850  0.1759 -0.8995  0.2356
  274MOL0     C36860   5.125   7.455   2.772  0.0541  0.4804 -0.1253
  274MOL0     C36861   5.252   7.485   2.833 -0.6570  1.0979 -0.5954
  274MOL0     C36862   5.266   7.459   2.966  0.2550  0.1603  0.0642
  274MOL0     O36863   5.383   7.465   3.036 -0.2642 -0.5315 -0.1375
  274MOL0     C36864   5.465   7.582   3.005 -0.3773  0.2576 -0.5311
  274MOL0     C36865   5.584   7.588   3.097  0.5004  0.7904  0.0718
  274MOL0     C36866   5.670   7.710   3.084 -0.7399 -1.0315  0.9145
  274MOL0     C36867   5.805   7.711   3.164  0.2204 -0.0294 -0.1020
  274MOL0     C36868   5.912   7.796   3.115  0.0498 -1.1430  0.0037
  274MOL0     C36869   6.033   7.788   3.207  1.2798  0.1060 -0.3995
  274MOL0     C36870   6.170   7.810   3.116  0.6961 -0.4901 -1.0647
  274MOL0     C36871   6.167   7.954   3.061  0.9263 -0.1776 -0.1080
  274MOL0     N36872   6.288   7.966   2.981  0.4689  0.4965  0.1418
  274MOL0     C36873   6.423   7.997   3.017  0.0418  0.8576  0.4386
  274MOL0     C36874   6.496   7.990   2.898  0.7676  0.5324  0.3504
  274MOL0     C36875   6.636   8.005   2.870  0.6357 -0.0206  0.0566
  274MOL0     C36876   6.706   8.102   2.965  0.4643  0.2927  0.1650
  274MOL0     C36877   6.824   8.164   2.892 -0.8232 -0.0967 -0.5249
  274MOL0     C36878   6.934   8.063   2.855  0.3169  0.3705 -0.0454
  274MOL0     O36879   7.054   8.122   2.803  0.5265 -0.0163  0.4861
  274MOL0     C36880   7.166   8.045   2.783  0.3307 -0.1598 -0.2038
  274MOL0     C36881   7.183   7.913   2.808 -0.5943 -0.3740  0.3066
  274MOL0     C36882   7.300   7.855   2.777  0.6422  0.5192  0.3835
  274MOL0     C36883   7.412   7.927   2.725 -0.0702  0.0096  0.8466
  274MOL0     C36884   7.541   7.855   2.689 -0.2888 -0.4298 -0.6309
  274MOL0     O36885   7.530   7.718   2.669 -0.0136  0.3710 -0.8884
  274MOL0     C36886   7.648   7.655   2.639 -0.3036 -0.1356 -0.4155
  274MOL0     C36887   7.770   7.674   2.708  0.8312  0.2453  0.1384
  274MOL0     C36888   7.879   7.595   2.691  0.7569  0.1117 -0.5257
  274MOL0     C36889   7.879   7.495   2.590 -0.5410 -0.2827  0.7237
  274MOL0     O36890   8.001   7.435   2.572  0.8233  1.1817 -0.2576
  274MOL0     C36891   8.030   7.392   2.438 -0.5927  0.5316 -0.0631
  274MOL0     C36892   8.180   7.359   2.413  0.7479 -0.8001 -1.2055
  274MOL0     C36893   8.272   7.476   2.458  0.3161  0.7020  0.2961
  274MOL0     C36894   8.411   7.470   2.387  0.4534  0.1577 -0.0465
  274MOL0     C36895   8.529   7.442   2.479 -0.9718  0.7675 -0.3225
  274MOL0     C36896   8.521   7.324   2.579  0.4991 -0.6204  0.5219
  274MOL0     C36897   8.657   7.294   2.645 -0.1090 -0.0688 -0.8951
  274MOL0     C36898   8.693   7.346   2.789  0.2200  1.5407 -0.2157
  274MOL0    Cl36899   8.871   7.323   2.822 -0.0066  0.1104 -0.0806
  274MOL0     C36900   7.759   7.474   2.515 -0.4501 -0.2124  0.4934
  274MOL0     C36901   7.647   7.552   2.544 -1.0406  0.3289  0.3826
  274MOL0     O36902   7.638   7.926   2.661  0.0193 -0.0148  0.5235
  274MOL0     C36903   7.399   8.066   2.713  0.1347 -0.5617 -0.2203
  274MOL0     C36904   7.271   8.121   2.735  0.1554 -0.0687 -0.0119
  274MOL0     N36905   6.398   7.964   2.804  0.2123  0.5810 -0.8649
  274MOL0     N36906   6.281   7.941   2.849 -0.7494  0.2411  1.0505
  274MOL0     C36907   5.159   7.429   3.041  0.2482  0.4457  0.6427
  274MOL0     C36908   5.032   7.392   2.988 -0.1016 -0.1710 -0.2448
  274MOL0     C36909   4.789   7.177   2.659  0.9472  0.5558 -0.4011
  274MOL0     C36910   4.807   7.048   2.602 -0.1238  0.9031 -0.6184
  274MOL0     C36911   4.699   6.969   2.562  0.7767 -0.6701  0.1441
  274MOL0     C36912   4.569   7.030   2.558 -0.0892  0.2307  0.1312
  274MOL0     O36913   4.450   6.964   2.528  0.1038 -0.3134  0.6419
  274MOL0     C36914   4.464   6.837   2.448 -0.3843 -0.1308 -0.5365
  274MOL0     C36915   4.325   6.817   2.391 -0.3262  0.8377  0.9298
  274MOL0     C36916   4.304   6.926   2.281 -0.6197 -0.6790  0.1893
  274MOL0     C36917   4.166   6.891   2.210 -0.2521 -0.6943 -0.3056
  274MOL0     C36918   4.121   7.003   2.125 -0.7131 -0.5330 -0.0784
  274MOL0     C36919   4.069   7.093   2.057 -0.1188 -0.7349 -0.1059
  274MOL0     C36920   4.556   7.156   2.604 -0.3347  0.1704  0.6946
  274MOL0     C36921   4.654   7.228   2.667 -0.4719  0.4859  0.5228
  274MOL0     C36922   4.622   7.353   2.747 -0.1603 -0.4693  0.3474
  274MOL0     H36923   5.121   7.469   2.664  1.0925  0.7336 -0.1339
  274MOL0     H36924   5.341   7.505   2.773 -0.2522 -1.4096 -0.9284
  274MOL0     H36925   5.509   7.563   2.906  0.0025 -1.8471 -0.0175
  274MOL0     H36926   5.407   7.673   3.016  1.3372  1.1413  2.2785
  274MOL0     H36927   5.651   7.503   3.083 -0.6310 -0.0488 -0.3843
  274MOL0     H36928   5.551   7.591   3.201  1.0540 -0.8902  0.3263
  274MOL0     H36929   5.610   7.800   3.104 -0.2025 -0.5471  0.3865
  274MOL0     H36930   5.694   7.714   2.978 -3.0231  1.5234  0.3666
  274MOL0     H36931   5.793   7.730   3.271  2.3037 -0.3667  0.2372
  274MOL0     H36932   5.842   7.608   3.154  0.7139 -0.1283  2.1585
  274MOL0     H36933   5.945   7.765   3.015  1.6533  0.5358 -0.0360
  274MOL0     H36934   5.875   7.899   3.114 -0.4433 -1.2949  0.9113
  274MOL0     H36935   6.016   7.853   3.293 -1.2893 -0.4295 -0.4052
  274MOL0     H36936   6.031   7.684   3.240  0.1313 -0.1542 -1.2168
  274MOL0     H36937   6.166   7.748   3.025  2.2628 -2.1726 -0.0591
  274MOL0     H36938   6.265   7.782   3.163  1.1497  1.1542 -0.9599
  274MOL0     H36939   6.076   7.984   3.008  1.0023  1.4484  0.6426
  274MOL0     H36940   6.175   8.023   3.145 -2.7792  0.5142 -0.1393
  274MOL0     H36941   6.457   8.019   3.117  0.6113  2.7719 -0.1318
  274MOL0     H36942   6.682   7.905   2.867 -1.1055 -0.8866  0.9089
  274MOL0     H36943   6.645   8.054   2.773 -1.1155  0.4691  0.1073
  274MOL0     H36944   6.631   8.180   2.983  1.4223  1.0787  0.7913
  274MOL0     H36945   6.734   8.049   3.057 -1.9429 -3.4157 -0.9608
  274MOL0     H36946   6.872   8.233   2.962 -0.1803 -1.0096 -0.0348
  274MOL0     H36947   6.798   8.215   2.799  0.7293  1.6560 -0.0553
  274MOL0     H36948   6.890   7.996   2.780  1.9139 -0.5875 -0.1712
  274MOL0     H36949   6.957   8.006   2.945 -0.4786  1.5145  0.9101
  274MOL0     H36950   7.099   7.855   2.846 -1.5825  0.6750 -0.1957
  274MOL0     H36951   7.299   7.748   2.796 -4.1098  0.0211 -1.3617
  274MOL0     H36952   7.779   7.748   2.786 -0.6503  1.7806 -1.0782
  274MOL0     H36953   7.966   7.623   2.749  0.6727  0.3311 -0.5054
  274MOL0     H36954   7.971   7.305   2.408 -0.0356 -0.4170  1.4894
  274MOL0     H36955   8.006   7.475   2.371  2.0199  0.9138 -0.6521
  274MOL0     H36956   8.200   7.262   2.458 -0.9508 -0.6309  0.0169
  274MOL0     H36957   8.194   7.344   2.305  0.5310  1.1520 -1.5385
  274MOL0     H36958   8.214   7.556   2.413  0.4706 -1.2814 -3.8992
  274MOL0     H36959   8.283   7.491   2.566  0.6998 -1.9049  0.6940
  274MOL0     H36960   8.431   7.559   2.326  0.7041  0.0538 -0.1152
  274MOL0     H36961   8.406   7.386   2.317 -2.6837 -2.0464  2.4755
  274MOL0     H36962   8.544   7.533   2.538 -0.7320  0.2263  0.4700
  274MOL0     H36963   8.614   7.429   2.412 -2.0178  0.1895 -1.5652
  274MOL0     H36964   8.447   7.340   2.657  1.4468  0.2464  1.2696
  274MOL0     H36965   8.485   7.234   2.528  1.3143 -1.1220  0.7963
  274MOL0     H36966   8.731   7.341   2.580 -0.2689  1.2249 -0.1693
  274MOL0     H36967   8.673   7.186   2.642 -0.0382 -0.1360  0.7086
  274MOL0     H36968   8.666   7.450   2.811 -0.8284  1.1138  0.6445
  274MOL0     H36969   8.632   7.286   2.858 -1.1637  1.3352 -1.5589
  274MOL0     H36970   7.756   7.396   2.440 -0.9357  1.9737 -1.8671
  274MOL0     H36971   7.555   7.546   2.488 -0.1683  1.6822 -1.2872
  274MOL0     H36972   7.491   8.120   2.694 -0.7329  1.4303  0.9563
  274MOL0     H36973   7.260   8.227   2.716  1.3048 -0.1471 -1.2671
  274MOL0     H36974   5.170   7.414   3.148  1.5261  0.4823  0.5286
  274MOL0     H36975   4.961   7.351   3.058  2.2303 -3.7875  0.2746
  274MOL0     H36976   4.898   6.993   2.581 -2.5182 -2.4593 -3.1774
  274MOL0     H36977   4.712   6.870   2.517  1.1464 -0.3541 -0.4624
  274MOL0     H36978   4.481   6.760   2.523 -2.2098 -2.5557 -2.3999
  274MOL0     H36979   4.543   6.824   2.373 -0.1605  1.9971 -0.7452
  274MOL0     H36980   4.258   6.841   2.474  0.1952  0.3416  1.5018
  274MOL0     H36981   4.300   6.720   2.346  0.0777  1.5280 -0.8654
  274MOL0     H36982   4.397   6.927   2.224  0.2230 -0.0405  1.5258
  274MOL0     H36983   4.308   7.027   2.324  0.8001 -0.1386 -1.1347
  274MOL0     H36984   4.182   6.793   2.164  4.1060 -1.1591  1.6878
  274MOL0     H36985   4.095   6.885   2.293  0.0319  2.6101  0.3174
  274MOL0     H36986   4.016   7.165   1.998  1.9415  2.0736  1.2205
  274MOL0     H36987   4.458   7.200   2.589 -1.1084 -2.2275 -2.0995
  274MOL0     H36988   4.514   7.370   2.754 -0.2818 -1.6553  1.6985
  274MOL0     H36989   4.643   7.335   2.853  0.7376 -1.9733 -0.0430
  274MOL0     H36990   4.671   7.445   2.715 -0.1680 -0.9014 -1.0079
  275MOL0     O36991   5.705   3.861   2.401  0.1291  0.2035  0.0482
  275MOL0     C36992   5.707   3.923   2.504 -0.4532 -0.0994 -0.6307
  275MOL0     O36993   5.801   3.905   2.606  0.0004 -0.0625  0.0259
  275MOL0     C36994   5.919   3.836   2.579 -0.5760 -0.2874  0.9524
  275MOL0     C36995   5.973   3.768   2.687 -0.1182 -0.2661  0.4623
  275MOL0     C36996   6.089   3.701   2.682  0.2498 -0.1702 -0.3147
  275MOL0     C36997   6.167   3.700   2.566 -1.1832 -0.2608  0.3783
  275MOL0     O36998   6.299   3.645   2.562  0.1088 -0.9256  0.9710
  275MOL0     C36999   6.339   3.560   2.675 -0.0205  0.8110 -0.3709
  275MOL0     C37000   6.482   3.494   2.648 -0.2850  1.1608  0.0041
  275MOL0     C37001   6.601   3.597   2.616  0.6259 -0.2575  0.3362
  275MOL0     C37002   6.740   3.537   2.590 -0.2862 -0.2145  0.0844
  275MOL0     C37003   6.749   3.461   2.458 -0.1250  1.0861 -0.4336
  275MOL0     C37004   6.901   3.450   2.428  0.0555  0.3698  0.4850
  275MOL0     C37005   6.916   3.386   2.289  0.2904  0.5565 -0.4400
  275MOL0     C37006   7.061   3.411   2.241  0.4375 -0.6993  0.0874
  275MOL0     N37007   7.160   3.348   2.322  0.1468 -0.4782 -0.7908
  275MOL0     C37008   7.210   3.396   2.441  0.1056  0.7424  0.7442
  275MOL0     C37009   7.271   3.288   2.492 -0.2203 -0.5919 -0.1656
  275MOL0     C37010   7.323   3.284   2.629  0.5800  0.0624  0.2305
  275MOL0     C37011   7.476   3.276   2.653 -0.1720  0.0863  0.1056
  275MOL0     C37012   7.534   3.407   2.595  0.5505  0.1293 -0.7090
  275MOL0     C37013   7.683   3.425   2.644  0.4266  0.2246  0.3533
  275MOL0     O37014   7.698   3.464   2.784  0.2951  0.0694 -0.7791
  275MOL0     C37015   7.829   3.483   2.831  0.0268 -0.2904  0.4869
  275MOL0     C37016   7.845   3.516   2.959  0.1767 -1.0785 -1.0479
  275MOL0     C37017   7.971   3.551   3.004  0.4099  1.3719  0.1871
  275MOL0     C37018   8.083   3.548   2.925  0.4969  0.5298 -0.0801
  275MOL0     C37019   8.225   3.577   2.979 -0.2296 -0.8726  0.6519
  275MOL0     O37020   8.244   3.570   3.113 -0.4301  0.6847  0.8276
  275MOL0     C37021   8.344   3.649   3.163 -0.3896  0.9545 -0.5725
  275MOL0     C37022   8.455   3.591   3.228  0.0366  0.9323  0.3087
  275MOL0     C37023   8.534   3.672   3.302 -0.4188  0.4928 -0.9777
  275MOL0     C37024   8.521   3.811   3.301  0.0471 -0.1018  0.0658
  275MOL0     O37025   8.605   3.901   3.364 -0.7373 -1.0601 -0.3756
  275MOL0     C37026   8.721   3.857   3.442  0.3353  0.5900 -0.0004
  275MOL0     C37027   8.784   3.986   3.487  0.3239 -0.0664  0.1785
  275MOL0     C37028   8.919   3.953   3.557 -0.0428 -0.4331  0.3499
  275MOL0     C37029   9.029   3.910   3.466  0.1693  0.3554  0.6038
  275MOL0     C37030   9.166   3.906   3.545 -0.4392  0.3484  0.4624
  275MOL0     C37031   9.283   3.824   3.475 -0.1944  0.9509  0.0186
  275MOL0     C37032   9.390   3.784   3.585  0.9221 -0.0171 -0.0354
  275MOL0     C37033   9.504   3.703   3.522  0.0023  0.6546  0.0389
  275MOL0    Cl37034   9.577   3.799   3.386 -0.0710  0.5921 -0.7270
  275MOL0     C37035   8.416   3.871   3.229 -0.0010 -0.5539 -0.6212
  275MOL0     C37036   8.329   3.791   3.161  0.3967 -0.1017  0.0582
  275MOL0     O37037   8.298   3.635   2.896 -0.2157  0.3390  0.0131
  275MOL0     C37038   8.069   3.527   2.784  0.2489  0.6569 -0.0043
  275MOL0     C37039   7.946   3.487   2.742  0.6256 -0.4035  0.6200
  275MOL0     N37040   7.259   3.176   2.408  0.9392 -0.4090 -0.0921
  275MOL0     N37041   7.204   3.221   2.301 -0.3566  0.3991 -0.6998
  275MOL0     C37042   6.121   3.770   2.451 -1.0999 -0.7745  0.0886
  275MOL0     C37043   5.991   3.837   2.455 -0.5698 -0.0150 -0.4399
  275MOL0     C37044   5.604   4.023   2.539 -0.0384  0.5333 -1.1085
  275MOL0     C37045   5.469   3.972   2.543 -0.8049 -0.4969 -1.0453
  275MOL0     C37046   5.374   4.044   2.607  0.2668 -0.5260 -0.9090
  275MOL0     C37047   5.394   4.180   2.645  0.0149 -1.3752  0.3834
  275MOL0     O37048   5.312   4.259   2.723 -0.3100 -0.4997  0.9175
  275MOL0     C37049   5.188   4.206   2.778  0.5680  0.2884 -0.4485
  275MOL0     C37050   5.078   4.192   2.675  0.5589  0.3285 -0.0294
  275MOL0     C37051   5.012   4.330   2.659 -1.0912  0.5368 -0.1032
  275MOL0     C37052   4.907   4.320   2.543  0.1723  0.1025 -0.8634
  275MOL0     C37053   4.828   4.449   2.532 -0.7838 -0.1361  0.9593
  275MOL0     C37054   4.762   4.554   2.531  0.0156 -0.9211 -0.3888
  275MOL0     C37055   5.524   4.228   2.624 -0.3235 -0.0664  0.9542
  275MOL0     C37056   5.637   4.154   2.573  0.7630 -0.7901  0.5436
  275MOL0     C37057   5.776   4.206   2.572 -0.1347 -0.9350 -0.2163
  275MOL0     H37058   5.905   3.764   2.771 -1.1261  0.4377 -0.2918
  275MOL0     H37059   6.121   3.659   2.777 -0.6260 -2.0109 -0.7811
  275MOL0     H37060   6.348   3.622   2.765  1.2970  0.3624 -0.1564
  275MOL0     H37061   6.263   3.483   2.693 -1.2773  2.1870  0.3975
  275MOL0     H37062   6.475   3.423   2.565 -0.0278 -0.5753  1.4197
  275MOL0     H37063   6.510   3.426   2.728 -2.8880 -2.9352 -2.1767
  275MOL0     H37064   6.611   3.666   2.701 -1.2749  0.1533  0.2744
  275MOL0     H37065   6.576   3.655   2.526 -1.2018  0.7079  1.3871
  275MOL0     H37066   6.809   3.622   2.595 -0.0698 -0.4715  1.8468
  275MOL0     H37067   6.754   3.465   2.670 -1.0579  1.1491  1.4984
  275MOL0     H37068   6.689   3.370   2.466 -1.5740  2.0582  0.1812
  275MOL0     H37069   6.710   3.527   2.380  3.3829  3.8602 -0.0925
  275MOL0     H37070   6.940   3.552   2.425  1.5919 -0.2067 -0.2935
  275MOL0     H37071   6.958   3.397   2.504  2.2353 -0.5565 -1.6317
  275MOL0     H37072   6.841   3.418   2.215  0.0677 -1.4852 -1.1643
  275MOL0     H37073   6.903   3.278   2.297  1.6061  0.3946 -0.3923
  275MOL0     H37074   7.060   3.377   2.137 -1.8369 -0.8214  0.0963
  275MOL0     H37075   7.080   3.517   2.257 -0.3849 -0.8398  2.4421
  275MOL0     H37076   7.183   3.491   2.486  0.7440  1.5298 -0.4803
  275MOL0     H37077   7.287   3.369   2.689  2.4011  0.1140  1.3506
  275MOL0     H37078   7.281   3.197   2.681 -1.2447  1.6047  1.4899
  275MOL0     H37079   7.485   3.269   2.762 -1.5962  2.1530  0.4190
  275MOL0     H37080   7.523   3.191   2.602 -0.0791  0.1374  0.1062
  275MOL0     H37081   7.475   3.495   2.623 -4.4560 -2.5629 -1.5392
  275MOL0     H37082   7.536   3.410   2.486  3.1074 -1.3974 -0.7730
  275MOL0     H37083   7.729   3.494   2.573 -0.7328 -0.4172 -1.0687
  275MOL0     H37084   7.733   3.328   2.639 -1.6993 -0.9271  0.3176
  275MOL0     H37085   7.760   3.542   3.022  0.9872  0.8950 -0.6803
  275MOL0     H37086   7.993   3.574   3.107  0.7782  2.4196 -0.1097
  275MOL0     H37087   8.462   3.483   3.232 -0.3521  0.9451  2.6350
  275MOL0     H37088   8.621   3.628   3.350 -0.2573  1.5067 -0.3221
  275MOL0     H37089   8.699   3.790   3.526 -0.6337  0.2526 -0.5161
  275MOL0     H37090   8.792   3.799   3.382  0.7183 -0.3654  1.3171
  275MOL0     H37091   8.806   4.046   3.398  0.4718  1.8944  1.4712
  275MOL0     H37092   8.712   4.048   3.540  0.5192  0.6175 -0.3317
  275MOL0     H37093   8.967   4.036   3.608  0.1961 -0.1549 -0.3208
  275MOL0     H37094   8.914   3.874   3.633  1.7561 -0.8013  0.1350
  275MOL0     H37095   9.040   3.977   3.380  2.0383 -0.8988 -0.2046
  275MOL0     H37096   9.001   3.817   3.417 -0.0284  0.3655  0.6953
  275MOL0     H37097   9.152   3.850   3.638  0.7590  1.3203  1.2593
  275MOL0     H37098   9.196   4.010   3.564 -2.4659  1.4066 -1.6810
  275MOL0     H37099   9.255   3.733   3.421  2.0527  0.7045 -0.8300
  275MOL0     H37100   9.325   3.895   3.403 -3.6477  3.2261 -0.0021
  275MOL0     H37101   9.346   3.729   3.669  1.8849 -0.8454 -0.0429
  275MOL0     H37102   9.436   3.876   3.621  1.0555  0.9563 -2.5363
  275MOL0     H37103   9.580   3.682   3.598  0.7087 -0.4958 -0.9466
  275MOL0     H37104   9.462   3.610   3.482 -2.2865  1.6095  0.0636
  275MOL0     H37105   8.403   3.979   3.225 -1.4900 -0.7541 -2.1188
  275MOL0     H37106   8.243   3.835   3.112 -0.6374 -0.3303  1.5957
  275MOL0     H37107   8.155   3.529   2.717  0.5921  2.0665  0.4461
  275MOL0     H37108   7.938   3.446   2.642 -1.6007 -1.4165  1.1346
  275MOL0     H37109   6.192   3.787   2.371 -0.2288 -1.0233  0.7895
  275MOL0     H37110   5.952   3.892   2.371 -0.6350  0.6879  0.0502
  275MOL0     H37111   5.438   3.872   2.514 -0.9662 -0.9978  0.7358
  275MOL0     H37112   5.275   3.999   2.613 -0.5256  1.1467 -0.6682
  275MOL0     H37113   5.166   4.277   2.859  2.2240 -1.2755  1.5050
  275MOL0     H37114   5.215   4.112   2.828 -0.3679 -1.5834 -3.2841
  275MOL0     H37115   5.010   4.113   2.707 -1.5689 -0.0475 -4.6553
  275MOL0     H37116   5.107   4.162   2.574 -3.5644 -0.3366 -1.2038
  275MOL0     H37117   5.082   4.408   2.630  2.2413 -1.7974  1.0951
  275MOL0     H37118   4.959   4.347   2.754 -1.2610 -1.2955  0.1781
  275MOL0     H37119   4.966   4.299   2.453 -0.8193 -1.4784 -1.1865
  275MOL0     H37120   4.842   4.242   2.585  0.0454 -0.0719 -1.3726
  275MOL0     H37121   4.713   4.649   2.523 -0.3338 -0.8771  1.8487
  275MOL0     H37122   5.553   4.325   2.665  2.7936 -1.6330  2.7816
  275MOL0     H37123   5.773   4.305   2.525  1.2142 -0.6067  0.3410
  275MOL0     H37124   5.820   4.227   2.670 -1.3535  0.2432  0.1205
  275MOL0     H37125   5.853   4.150   2.519  2.3538  3.3026 -1.5681
  276MOL0     O37126   2.638   7.974   3.242  0.2918 -0.9770  0.4414
  276MOL0     C37127   2.655   7.862   3.195 -0.0796  0.1998 -0.1487
  276MOL0     O37128   2.780   7.797   3.168 -0.2463  0.7338 -0.3529
  276MOL0     C37129   2.897   7.867   3.176  0.1355  0.6221  0.4503
  276MOL0     C37130   2.990   7.858   3.068  1.2843 -0.1908 -0.3155
  276MOL0     C37131   3.109   7.939   3.082  0.7779  0.2836  0.2727
  276MOL0     C37132   3.147   8.009   3.194  0.1237  0.5851 -0.4814
  276MOL0     O37133   3.271   8.066   3.190 -0.3721 -0.5927 -0.0828
  276MOL0     C37134   3.317   8.131   3.306 -0.2417 -0.0959 -0.1639
  276MOL0     C37135   3.433   8.224   3.259  0.4441  0.9633  0.9108
  276MOL0     C37136   3.575   8.173   3.281  0.0040  0.3165 -0.0491
  276MOL0     C37137   3.664   8.273   3.212 -1.0538 -0.3059 -0.4088
  276MOL0     C37138   3.818   8.235   3.228 -0.0217  0.0790 -0.3533
  276MOL0     C37139   3.869   8.272   3.374  0.3286 -0.5252  0.2715
  276MOL0     C37140   4.023   8.260   3.369  0.0179 -0.3688  0.0769
  276MOL0     C37141   4.078   8.276   3.510  1.0156 -0.4486  0.6449
  276MOL0     N37142   4.211   8.337   3.496 -0.4180 -0.3982  0.1400
  276MOL0     C37143   4.332   8.278   3.512 -1.4270 -0.9677  0.8170
  276MOL0     C37144   4.426   8.367   3.475 -0.3382 -0.6551 -1.1361
  276MOL0     C37145   4.575   8.360   3.470 -0.3210 -0.3983 -0.2911
  276MOL0     C37146   4.617   8.235   3.552  0.4258 -0.5505  0.0644
  276MOL0     C37147   4.754   8.246   3.622 -0.6105  0.2443 -0.1787
  276MOL0     C37148   4.822   8.114   3.645 -0.5156 -0.8137 -0.3406
  276MOL0     O37149   4.920   8.123   3.750 -0.1393 -0.1661  0.4934
  276MOL0     C37150   5.045   8.176   3.728 -0.1509 -0.1943  0.5892
  276MOL0     C37151   5.131   8.187   3.839 -0.6376  1.1872  0.1235
  276MOL0     C37152   5.265   8.229   3.832 -0.1899  0.4831  0.4297
  276MOL0     C37153   5.317   8.250   3.706 -0.7580  0.8866 -0.1701
  276MOL0     C37154   5.462   8.289   3.699  0.2342  0.3634 -0.2105
  276MOL0     O37155   5.534   8.295   3.811  0.5110 -0.7103  0.3649
  276MOL0     C37156   5.667   8.339   3.808  1.0657 -0.0438  0.3121
  276MOL0     C37157   5.763   8.279   3.889 -0.1655  0.1306 -0.2295
  276MOL0     C37158   5.901   8.324   3.870 -0.0175 -0.2983 -0.3190
  276MOL0     C37159   5.938   8.440   3.794  0.4305  0.3379 -0.2123
  276MOL0     O37160   6.068   8.476   3.771 -0.0933 -0.0924 -0.3904
  276MOL0     C37161   6.179   8.433   3.851  0.0649  0.2847  0.0156
  276MOL0     C37162   6.307   8.486   3.785  0.2497  0.7564  0.4321
  276MOL0     C37163   6.437   8.446   3.862  0.2090  0.5813  0.0537
  276MOL0     C37164   6.471   8.311   3.854 -0.5572  0.6630  0.1941
  276MOL0     C37165   6.631   8.294   3.878  0.4274 -0.0785 -0.2188
  276MOL0     C37166   6.663   8.146   3.851 -1.2218 -0.2768  0.5150
  276MOL0     C37167   6.808   8.124   3.883 -0.9051 -0.2794  0.1622
  276MOL0     C37168   6.910   8.199   3.789 -0.0481  0.1961  0.0341
  276MOL0    Cl37169   6.891   8.158   3.607 -0.2517 -0.2614 -0.6549
  276MOL0     C37170   5.835   8.506   3.733  0.6674 -0.3141  0.0527
  276MOL0     C37171   5.709   8.454   3.741 -0.0106  0.0123 -0.3172
  276MOL0     O37172   5.503   8.315   3.586  0.4376 -0.3301 -0.0932
  276MOL0     C37173   5.242   8.244   3.589  0.2252  0.5872  0.1176
  276MOL0     C37174   5.103   8.208   3.600 -0.5516 -0.5052 -0.2514
  276MOL0     N37175   4.356   8.487   3.458 -0.1596 -0.0859 -0.1507
  276MOL0     N37176   4.230   8.470   3.461  0.6733  0.9495 -0.9856
  276MOL0     C37177   3.056   8.000   3.304 -0.0936  0.1707  0.0794
  276MOL0     C37178   2.935   7.940   3.295 -1.5251 -0.7213 -0.0764
  276MOL0     C37179   2.527   7.788   3.167 -0.6096 -0.9113 -0.1392
  276MOL0     C37180   2.439   7.764   3.271 -0.0502 -0.7532  0.0780
  276MOL0     C37181   2.325   7.688   3.261  0.7646  0.0934  0.4310
  276MOL0     C37182   2.297   7.624   3.139  0.6226 -0.0528 -0.0051
  276MOL0     O37183   2.191   7.537   3.150 -0.2664  0.1122 -0.0970
  276MOL0     C37184   2.144   7.462   3.035 -0.8999  0.0046 -0.3813
  276MOL0     C37185   2.148   7.313   3.060  0.5182  0.7991 -0.0420
  276MOL0     C37186   2.025   7.259   3.139 -0.9821 -0.0519  0.3064
  276MOL0     C37187   2.045   7.100   3.150  0.5870 -0.4855  0.1605
  276MOL0     C37188   2.035   7.021   3.028  0.8576  0.1123  0.2250
  276MOL0     C37189   2.033   6.951   2.928 -0.3981 -0.3727  0.4477
  276MOL0     C37190   2.372   7.660   3.024  0.6067 -0.7985  0.2012
  276MOL0     C37191   2.496   7.737   3.041  0.1363 -0.4516 -0.2376
  276MOL0     C37192   2.594   7.755   2.925  0.2450 -0.6601  0.1191
  276MOL0     H37193   2.979   7.791   2.983  2.2447  0.3460 -0.8824
  276MOL0     H37194   3.179   7.934   2.998  1.6688 -1.0053  1.0584
  276MOL0     H37195   3.249   8.210   3.341  2.6610  0.8867  4.0944
  276MOL0     H37196   3.351   8.069   3.389  2.4311  1.5503  0.1000
  276MOL0     H37197   3.420   8.314   3.321  0.7072  0.3126  1.9405
  276MOL0     H37198   3.411   8.257   3.157  0.9267  2.6408  1.3108
  276MOL0     H37199   3.594   8.078   3.231 -1.1233 -0.8945  1.7148
  276MOL0     H37200   3.591   8.154   3.387  0.6620 -1.9041 -0.4927
  276MOL0     H37201   3.626   8.281   3.110  0.0035  4.4247 -0.6332
  276MOL0     H37202   3.641   8.372   3.252 -2.8950 -1.5603  1.8556
  276MOL0     H37203   3.826   8.126   3.214 -0.2626  0.1245 -0.8783
  276MOL0     H37204   3.882   8.271   3.147  2.3512 -1.7559  0.5778
  276MOL0     H37205   3.861   8.379   3.397  0.8295 -0.4473  0.0967
  276MOL0     H37206   3.829   8.205   3.450 -1.4984  0.3771  0.1487
  276MOL0     H37207   4.056   8.338   3.300  0.2873 -0.7497 -0.2260
  276MOL0     H37208   4.062   8.169   3.324  3.9768  2.6036 -3.2422
  276MOL0     H37209   4.027   8.346   3.577  0.3374 -1.1600  0.8903
  276MOL0     H37210   4.076   8.176   3.554 -1.2713 -1.3169 -1.2715
  276MOL0     H37211   4.341   8.172   3.536 -1.2867 -1.6780 -2.0103
  276MOL0     H37212   4.609   8.350   3.367 -0.3093 -3.1269 -0.1036
  276MOL0     H37213   4.607   8.454   3.516 -0.6395  0.7131 -2.2289
  276MOL0     H37214   4.547   8.194   3.625 -1.7168  0.2244 -1.4548
  276MOL0     H37215   4.629   8.156   3.478  1.0213  1.7773 -2.5051
  276MOL0     H37216   4.725   8.283   3.720 -1.9344 -1.2099  0.0231
  276MOL0     H37217   4.822   8.318   3.575  2.7295 -0.3948  3.2331
  276MOL0     H37218   4.860   8.069   3.553  1.3802 -0.6030  0.2829
  276MOL0     H37219   4.741   8.048   3.679 -1.4430  0.6597  0.4041
  276MOL0     H37220   5.104   8.158   3.941  0.7281  0.6754  0.3566
  276MOL0     H37221   5.332   8.233   3.918  0.2051  3.5505  0.0944
  276MOL0     H37222   5.740   8.191   3.949 -2.9127  0.9779  0.0741
  276MOL0     H37223   5.982   8.267   3.915  2.0286  1.3068 -1.7494
  276MOL0     H37224   6.169   8.481   3.948 -0.1120  0.4859 -0.1016
  276MOL0     H37225   6.169   8.324   3.853  0.4417  0.2113 -1.1396
  276MOL0     H37226   6.310   8.428   3.693 -0.6318  0.1645  0.7648
  276MOL0     H37227   6.306   8.595   3.775  0.5622  0.8422  1.2333
  276MOL0     H37228   6.521   8.504   3.823  1.8284 -0.9029  1.1883
  276MOL0     H37229   6.425   8.477   3.967  0.0167 -2.4902  1.0337
  276MOL0     H37230   6.449   8.270   3.755  0.2975  1.4114 -0.3227
  276MOL0     H37231   6.406   8.253   3.920 -1.0194 -0.3364 -1.0848
  276MOL0     H37232   6.647   8.329   3.981 -1.4811 -1.8180  0.7557
  276MOL0     H37233   6.691   8.351   3.807  0.6347 -2.2412 -1.8743
  276MOL0     H37234   6.600   8.093   3.923  1.9184  0.4049  4.0258
  276MOL0     H37235   6.645   8.120   3.746  0.7065 -0.9217  0.3159
  276MOL0     H37236   6.830   8.017   3.884 -0.0223 -0.2160 -2.5723
  276MOL0     H37237   6.829   8.154   3.986 -1.5919  0.4826  0.0846
  276MOL0     H37238   6.901   8.306   3.810 -2.7430 -0.4555  2.9563
  276MOL0     H37239   7.011   8.180   3.826  0.0065  1.3281  0.5251
  276MOL0     H37240   5.843   8.600   3.679 -0.9409 -0.0939  0.1330
  276MOL0     H37241   5.630   8.502   3.684 -1.8636  0.8455  2.7206
  276MOL0     H37242   5.286   8.261   3.491  1.9202 -0.0513  0.7281
  276MOL0     H37243   5.048   8.189   3.508 -2.1931 -3.6233  1.2100
  276MOL0     H37244   3.087   8.045   3.398  2.4808 -1.0979 -0.0607
  276MOL0     H37245   2.862   7.928   3.375 -2.9835 -0.2812 -1.2899
  276MOL0     H37246   2.468   7.810   3.365  0.2007 -0.0150 -0.3470
  276MOL0     H37247   2.266   7.664   3.349  0.3185 -1.8851 -0.3618
  276MOL0     H37248   2.206   7.484   2.947 -0.7834 -1.3840 -0.6685
  276MOL0     H37249   2.044   7.485   2.999 -1.8894 -0.7091  1.7812
  276MOL0     H37250   2.235   7.284   3.119  0.4635  0.3169 -0.1903
  276MOL0     H37251   2.142   7.264   2.962  2.3087 -1.1864  0.7760
  276MOL0     H37252   1.927   7.272   3.092 -1.8671  0.5343  2.2250
  276MOL0     H37253   2.028   7.291   3.244  3.2909  0.5552  0.1454
  276MOL0     H37254   2.135   7.080   3.209  2.7227 -1.7545 -3.2479
  276MOL0     H37255   1.963   7.054   3.207  0.3615 -0.7460 -0.3592
  276MOL0     H37256   2.034   6.898   2.835 -1.1324 -1.6396  1.1287
  276MOL0     H37257   2.351   7.632   2.921  2.1415  4.4444 -1.8483
  276MOL0     H37258   2.646   7.852   2.922 -1.4277  0.3324  1.1400
  276MOL0     H37259   2.675   7.683   2.930  1.4788  0.7433  2.5552
  276MOL0     H37260   2.540   7.741   2.831  2.9461 -2.3211 -1.2825
  277MOL0     O37261   3.133   4.791   8.275  0.2118  0.4120 -0.5689
  277MOL0     C37262   3.060   4.724   8.205  0.1404 -0.3078 -0.1553
  277MOL0     O37263   3.111   4.661   8.087  0.2600 -0.5371 -0.2400
  277MOL0     C37264   3.245   4.669   8.068  0.1717 -0.2514  0.7075
  277MOL0     C37265   3.300   4.772   7.979 -0.1899 -0.3287  0.7054
  277MOL0     C37266   3.442   4.770   7.954 -0.2934  0.5590 -0.0922
  277MOL0     C37267   3.526   4.685   8.026  0.6517  0.6247 -0.3430
  277MOL0     O37268   3.660   4.702   8.014  0.1649 -0.2307 -0.1677
  277MOL0     C37269   3.740   4.604   8.074 -0.6006 -0.0796  0.4885
  277MOL0     C37270   3.890   4.640   8.043  0.2459  0.3184 -0.0810
  277MOL0     C37271   3.975   4.535   8.109  0.2508 -0.6551  0.3262
  277MOL0     C37272   4.123   4.580   8.096 -0.4469  1.1187  0.1689
  277MOL0     C37273   4.211   4.456   8.139 -0.4216 -0.8034  0.1911
  277MOL0     C37274   4.359   4.500   8.144 -0.3639  0.0721 -0.4410
  277MOL0     C37275   4.446   4.382   8.161 -1.5279 -0.5756 -0.2889
  277MOL0     C37276   4.592   4.432   8.160  0.5106 -0.3711 -0.1626
  277MOL0     N37277   4.679   4.322   8.115  0.4133  0.4319  0.0791
  277MOL0     C37278   4.670   4.193   8.175  0.1635 -0.0538  1.1655
  277MOL0     C37279   4.775   4.128   8.115  0.2190 -0.2235 -0.0095
  277MOL0     C37280   4.832   3.986   8.134  0.3337 -0.5531 -1.2216
  277MOL0     C37281   4.891   3.959   8.269  0.2314 -1.0821 -0.3792
  277MOL0     C37282   4.984   4.066   8.317  0.2454  0.1871  0.7227
  277MOL0     C37283   5.115   4.050   8.247 -0.5253 -0.3397  0.0845
  277MOL0     O37284   5.214   4.126   8.314 -0.2528  0.3118  0.2883
  277MOL0     C37285   5.345   4.106   8.275 -1.0540 -0.1293  0.5011
  277MOL0     C37286   5.398   4.022   8.175  0.6437 -0.1742 -1.0032
  277MOL0     C37287   5.538   4.020   8.148  0.0147 -0.3979 -0.3628
  277MOL0     C37288   5.630   4.095   8.217  0.4606 -0.2437 -0.3034
  277MOL0     C37289   5.780   4.089   8.187  0.6216 -0.4730  0.1889
  277MOL0     O37290   5.827   4.034   8.070  0.4572 -0.4234  0.0713
  277MOL0     C37291   5.961   4.009   8.064  0.3337  0.7085 -0.1219
  277MOL0     C37292   6.036   4.070   7.962  0.9129 -1.0393  0.2588
  277MOL0     C37293   6.169   4.043   7.948 -0.1576  0.0703  0.1650
  277MOL0     C37294   6.240   3.960   8.038 -0.6033 -0.2093  0.2017
  277MOL0     O37295   6.378   3.943   8.032 -0.3627 -0.1793  0.7179
  277MOL0     C37296   6.467   4.003   7.942 -0.2679 -0.0076  0.4860
  277MOL0     C37297   6.614   3.961   7.961  0.4579 -0.0804  0.1826
  277MOL0     C37298   6.640   3.827   7.889  0.2133 -0.6512 -0.2964
  277MOL0     C37299   6.776   3.769   7.939 -0.7706 -0.1438  0.6103
  277MOL0     C37300   6.792   3.638   7.867 -0.0733 -0.0454 -0.5027
  277MOL0     C37301   6.898   3.558   7.942 -0.2185  0.4331  0.0925
  277MOL0     C37302   6.893   3.407   7.889  0.3330 -0.7722  0.1493
  277MOL0     C37303   6.901   3.318   8.011  0.5611 -0.3898  0.0554
  277MOL0    Cl37304   6.980   3.179   7.975  0.1831  0.1192 -0.0083
  277MOL0     C37305   6.167   3.907   8.144  0.4100 -0.4093 -0.3026
  277MOL0     C37306   6.029   3.929   8.159 -0.5223 -0.7214 -0.1119
  277MOL0     O37307   5.850   4.141   8.270  0.0250  0.3884 -0.3550
  277MOL0     C37308   5.580   4.166   8.329  0.3110  0.5937  0.3435
  277MOL0     C37309   5.440   4.168   8.356  0.5796 -0.2112 -0.1720
  277MOL0     N37310   4.846   4.219   8.031 -0.2158 -0.0237 -0.5374
  277MOL0     N37311   4.790   4.333   8.031 -0.4197 -0.0892  0.0368
  277MOL0     C37312   3.463   4.593   8.115  0.1295 -0.4874  0.1016
  277MOL0     C37313   3.325   4.584   8.138 -0.6741 -0.1863  0.4233
  277MOL0     C37314   2.918   4.712   8.238 -0.0961  0.0595  0.3190
  277MOL0     C37315   2.834   4.670   8.131 -0.1079  0.4825  0.0771
  277MOL0     C37316   2.698   4.665   8.153  0.2239  0.0882 -0.7862
  277MOL0     C37317   2.641   4.703   8.278  0.1019 -0.2346 -0.2174
  277MOL0     O37318   2.500   4.690   8.271  0.0772 -0.8645  0.4549
  277MOL0     C37319   2.434   4.741   8.388 -0.1638 -0.1515 -0.3672
  277MOL0     C37320   2.288   4.759   8.366 -0.3623  0.1644 -0.8629
  277MOL0     C37321   2.218   4.633   8.371  0.4372  0.2251 -0.1004
  277MOL0     C37322   2.067   4.656   8.346  0.4832 -0.2682  0.0909
  277MOL0     C37323   2.003   4.728   8.455 -0.2786 -0.1739 -0.1719
  277MOL0     C37324   1.951   4.778   8.553 -0.5899 -0.8040 -0.2179
  277MOL0     C37325   2.728   4.727   8.387 -0.0987  0.0442 -0.1684
  277MOL0     C37326   2.861   4.737   8.361  0.7317  0.6614  0.1969
  277MOL0     C37327   2.943   4.777   8.485 -0.5114 -0.0668 -0.1060
  277MOL0     H37328   3.229   4.833   7.925 -0.1984  0.3352  1.4451
  277MOL0     H37329   3.490   4.841   7.886  5.1839 -0.5556  2.1120
  277MOL0     H37330   3.732   4.605   8.183  0.1816 -0.2704  0.5576
  277MOL0     H37331   3.724   4.510   8.021 -0.9921  0.6556 -0.7450
  277MOL0     H37332   3.911   4.740   8.083 -1.6874  1.7398 -2.3602
  277MOL0     H37333   3.907   4.662   7.937  0.1319  1.2727  0.0913
  277MOL0     H37334   3.950   4.441   8.061 -1.8872  0.4220 -0.8002
  277MOL0     H37335   3.967   4.522   8.218  2.7763  1.4918  0.8834
  277MOL0     H37336   4.149   4.612   7.994 -0.5243  0.7940  0.0438
  277MOL0     H37337   4.135   4.667   8.161 -0.4157  1.6999 -0.5959
  277MOL0     H37338   4.173   4.416   8.234 -1.5617 -2.0899 -0.7617
  277MOL0     H37339   4.201   4.379   8.062  1.6939 -1.0053  0.0560
  277MOL0     H37340   4.377   4.554   8.050  1.8604 -0.7165 -0.5249
  277MOL0     H37341   4.378   4.568   8.228 -1.9333  1.0076 -0.7953
  277MOL0     H37342   4.427   4.301   8.089  1.1622  0.6248 -2.5493
  277MOL0     H37343   4.427   4.342   8.261 -0.3494 -1.5583 -0.4323
  277MOL0     H37344   4.604   4.517   8.093 -1.2761 -0.2588 -0.3818
  277MOL0     H37345   4.612   4.471   8.261 -1.5021 -0.4336  0.3036
  277MOL0     H37346   4.594   4.161   8.245 -0.9585  1.0820  0.5020
  277MOL0     H37347   4.751   3.912   8.130 -0.3817  0.1071  0.2491
  277MOL0     H37348   4.909   3.961   8.060  0.7510 -0.0065 -0.9755
  277MOL0     H37349   4.803   3.947   8.334  0.9088  2.1050  1.3348
  277MOL0     H37350   4.946   3.865   8.257  1.1932 -0.5228 -0.4375
  277MOL0     H37351   4.992   4.050   8.425 -1.5187  0.9875  1.0094
  277MOL0     H37352   4.939   4.161   8.288  0.6759 -0.0682 -0.8668
  277MOL0     H37353   5.111   4.086   8.144  0.0606  1.6524  0.7261
  277MOL0     H37354   5.138   3.943   8.242 -1.6622 -0.6339  0.7494
  277MOL0     H37355   5.336   3.959   8.112  0.4100 -0.7042 -0.2597
  277MOL0     H37356   5.573   3.964   8.062 -0.7438 -1.6850  0.1381
  277MOL0     H37357   5.995   4.133   7.884  3.5670  1.7564  0.9364
  277MOL0     H37358   6.223   4.087   7.865 -2.5569 -0.0263 -1.5702
  277MOL0     H37359   6.432   3.987   7.840  0.9446 -2.8642  0.4073
  277MOL0     H37360   6.461   4.106   7.977  0.3068 -0.2414  1.3149
  277MOL0     H37361   6.691   4.034   7.934  0.7776  0.1804  1.7227
  277MOL0     H37362   6.631   3.935   8.065 -1.9371 -1.4015  0.3271
  277MOL0     H37363   6.564   3.760   7.928  1.5177 -0.8328  2.0787
  277MOL0     H37364   6.644   3.835   7.780  3.1288  0.3455 -0.2093
  277MOL0     H37365   6.786   3.764   8.048 -0.8721  1.7737  0.7490
  277MOL0     H37366   6.854   3.837   7.906 -0.2468 -0.8602  0.3614
  277MOL0     H37367   6.831   3.657   7.766  1.5632  1.6417  0.3744
  277MOL0     H37368   6.691   3.598   7.863 -0.3789  0.4986  1.2012
  277MOL0     H37369   6.994   3.608   7.927 -0.4677  1.4621  1.6442
  277MOL0     H37370   6.878   3.563   8.050 -1.6740 -0.5820 -0.0926
  277MOL0     H37371   6.977   3.393   7.821  0.5364  1.3534 -0.1280
  277MOL0     H37372   6.804   3.393   7.827 -0.3541  1.8856  0.3998
  277MOL0     H37373   6.959   3.375   8.084  0.1569  1.3133 -0.8960
  277MOL0     H37374   6.803   3.300   8.057  0.9458  0.2541  1.1823
  277MOL0     H37375   6.216   3.846   8.219  2.4088  1.4318 -0.0275
  277MOL0     H37376   5.976   3.862   8.225 -0.4418 -1.6277 -0.9366
  277MOL0     H37377   5.641   4.219   8.400 -2.2857 -0.1812  3.4161
  277MOL0     H37378   5.414   4.226   8.443  0.6858  0.1232 -0.3627
  277MOL0     H37379   3.526   4.517   8.161  1.5730  0.8675  0.4773
  277MOL0     H37380   3.272   4.528   8.214 -1.8529  1.2972  0.7427
  277MOL0     H37381   2.880   4.639   8.038 -0.5947 -1.5643  0.4661
  277MOL0     H37382   2.640   4.617   8.075  0.1778 -0.8106 -0.2106
  277MOL0     H37383   2.482   4.835   8.417  0.5523 -0.4715 -0.4967
  277MOL0     H37384   2.443   4.663   8.463 -0.6380 -0.7236 -0.8986
  277MOL0     H37385   2.268   4.802   8.267 -3.3193  2.4791  0.5698
  277MOL0     H37386   2.251   4.833   8.438  2.1166  2.1964 -1.5193
  277MOL0     H37387   2.224   4.579   8.466 -0.6432 -0.5285 -0.4486
  277MOL0     H37388   2.261   4.570   8.292 -0.8335  0.1331 -0.7414
  277MOL0     H37389   2.046   4.709   8.253 -2.4492 -0.6617  0.4349
  277MOL0     H37390   2.018   4.559   8.335 -1.4125  0.5164  1.0544
  277MOL0     H37391   1.890   4.817   8.632  0.7903  1.4927 -0.2050
  277MOL0     H37392   2.683   4.746   8.484 -0.2950 -1.6299  0.0980
  277MOL0     H37393   3.028   4.711   8.502  0.1051  0.3866 -1.3290
  277MOL0     H37394   2.990   4.875   8.481 -0.9451  0.0979 -1.7752
  277MOL0     H37395   2.875   4.779   8.571 -0.1247 -0.1919  0.2057
  278MOL0     O37396   8.748   2.225   0.147 -0.2108  0.5887  0.4307
  278MOL0     C37397   8.673   2.130   0.149 -0.1667 -0.0517  0.5946
  278MOL0     O37398   8.721   2.004   0.133 -0.0619 -0.0753 -0.1928
  278MOL0     C37399   8.852   1.988   0.152  0.4164 -0.0999 -0.3149
  278MOL0     C37400   8.893   2.006   0.285 -0.8309 -0.1209  1.5347
  278MOL0     C37401   9.023   1.964   0.313 -0.5347 -0.3044  0.4943
  278MOL0     C37402   9.103   1.908   0.213 -0.7794  0.5423 -0.5671
  278MOL0     O37403   9.235   1.876   0.244  0.2205  0.8054 -0.7588
  278MOL0     C37404   9.323   1.943   0.342  0.7020 -0.5668 -0.0948
  278MOL0     C37405   9.333   2.093   0.333  0.6529 -0.2144 -0.1316
  278MOL0     C37406   9.470   2.151   0.383  0.3178 -0.0507 -0.3123
  278MOL0     C37407   9.466   2.137   0.540  0.7811  0.9829  0.0884
  278MOL0     C37408   9.597   2.197   0.602  0.2834  0.3119  1.1214
  278MOL0     C37409   9.728   2.156   0.531 -0.1228  0.1318 -0.9194
  278MOL0     C37410   9.846   2.167   0.630 -0.3507  0.2997  0.6438
  278MOL0     C37411   9.979   2.155   0.561  0.2885 -0.1082  0.5743
  278MOL0     N37412  10.092   2.165   0.640  0.5314 -0.5769 -0.4494
  278MOL0     C37413  10.104   2.239   0.755 -0.1770 -0.3456  0.8657
  278MOL0     C37414  10.220   2.196   0.811 -0.2386  0.1906 -0.0849
  278MOL0     C37415  10.287   2.247   0.936  0.1582  0.5064 -0.6647
  278MOL0     C37416  10.424   2.184   0.973  0.0662 -0.4767  0.5581
  278MOL0     C37417  10.468   2.225   1.114 -0.0371  0.6581  0.1139
  278MOL0     C37418  10.598   2.168   1.175 -1.0536  0.1405 -0.4468
  278MOL0     O37419  10.708   2.175   1.086 -0.6179  0.0543 -0.3381
  278MOL0     C37420  10.824   2.116   1.131 -0.4445 -0.3375  0.5826
  278MOL0     C37421  10.900   2.038   1.038  0.0305  0.7682  0.4438
  278MOL0     C37422  11.023   1.989   1.073 -0.0420 -0.3814 -0.3951
  278MOL0     C37423  11.080   2.006   1.194  0.2602 -0.0656  0.2795
  278MOL0     C37424  11.216   1.965   1.241 -0.8583  0.5489 -0.7437
  278MOL0     O37425  11.269   2.016   1.363 -0.2375 -0.3724  0.7022
  278MOL0     C37426  11.396   2.002   1.408 -0.2808 -0.0590  0.6897
  278MOL0     C37427  11.427   2.094   1.503 -0.2707 -0.1653 -0.1923
  278MOL0     C37428  11.558   2.108   1.559  0.1222  0.3828 -0.4855
  278MOL0     C37429  11.654   2.012   1.522  0.2412  0.1134  1.0591
  278MOL0     O37430  11.781   2.017   1.562 -0.0442 -0.2650 -1.1688
  278MOL0     C37431  11.818   2.071   1.695  0.9618  0.1971  0.3258
  278MOL0     C37432  11.793   1.960   1.797 -0.4795  0.1080 -0.3659
  278MOL0     C37433  11.899   1.847   1.786 -0.1144 -0.3623 -0.0416
  278MOL0     C37434  12.041   1.903   1.830 -0.2982  0.6625  0.6624
  278MOL0     C37435  12.140   1.780   1.839  0.1464 -0.6650  0.0166
  278MOL0     C37436  12.257   1.834   1.923 -0.4134 -0.2262 -0.6057
  278MOL0     C37437  12.372   1.735   1.920  0.7654  0.1573  0.2711
  278MOL0     C37438  12.483   1.792   1.828 -0.9789  0.5721 -0.8314
  278MOL0    Cl37439  12.610   1.672   1.854  0.2394  0.2332 -0.3359
  278MOL0     C37440  11.611   1.908   1.428 -0.3178 -0.4793 -0.1905
  278MOL0     C37441  11.491   1.911   1.369 -0.0054 -0.0558 -0.0519
  278MOL0     O37442  11.269   1.889   1.163 -0.5527 -0.2076 -0.6364
  278MOL0     C37443  11.006   2.086   1.281 -0.0116  0.2358 -0.6195
  278MOL0     C37444  10.880   2.141   1.255  0.4557  0.1744 -1.3563
  278MOL0     N37445  10.285   2.105   0.729 -1.2981  0.1402  1.0434
  278MOL0     N37446  10.197   2.084   0.635  0.4055  0.2638  0.2938
  278MOL0     C37447   9.061   1.894   0.088  0.0475  0.1381  1.1698
  278MOL0     C37448   8.927   1.926   0.057  0.0906 -0.0497  0.1869
  278MOL0     C37449   8.525   2.141   0.154  0.6819  0.9326  0.0142
  278MOL0     C37450   8.443   2.036   0.103 -0.7301  0.4931 -0.0939
  278MOL0     C37451   8.307   2.043   0.117  0.0911  0.1491  0.7026
  278MOL0     C37452   8.247   2.147   0.173 -0.2446  0.1437 -0.9377
  278MOL0     O37453   8.111   2.163   0.169  0.2255  0.0751  0.3976
  278MOL0     C37454   8.038   2.171   0.297  0.8727 -0.2725  0.4593
  278MOL0     C37455   8.009   2.040   0.364 -0.1119 -0.2228 -0.4370
  278MOL0     C37456   7.932   1.941   0.274  0.2567 -0.3774  0.0305
  278MOL0     C37457   7.915   1.817   0.349  1.2068 -0.2347 -1.4391
  278MOL0     C37458   7.907   1.712   0.248 -0.5566  0.0870 -0.3850
  278MOL0     C37459   7.905   1.625   0.163  0.3684  0.1724 -0.3907
  278MOL0     C37460   8.318   2.248   0.232 -0.7021  0.1138 -0.6716
  278MOL0     C37461   8.463   2.245   0.223  0.2534  1.1743 -0.3795
  278MOL0     C37462   8.535   2.359   0.293  0.7576  0.1810  0.3944
  278MOL0     H37463   8.824   2.047   0.358 -0.6930 -0.6762  1.9878
  278MOL0     H37464   9.063   1.958   0.413  0.6259 -0.3088  0.0506
  278MOL0     H37465   9.282   1.925   0.442  0.5027 -0.2124 -0.1112
  278MOL0     H37466   9.421   1.896   0.339  1.9259  1.7065  1.1547
  278MOL0     H37467   9.245   2.141   0.377 -0.5895 -0.8445 -1.7924
  278MOL0     H37468   9.322   2.122   0.229  0.2268  1.8151  0.4462
  278MOL0     H37469   9.477   2.257   0.357  0.6548 -0.2092 -0.8694
  278MOL0     H37470   9.555   2.102   0.336  1.9430  1.4431  0.9129
  278MOL0     H37471   9.383   2.191   0.589  1.2319  0.7278  1.1545
  278MOL0     H37472   9.466   2.031   0.565 -2.4406  0.5540 -1.2347
  278MOL0     H37473   9.601   2.306   0.589  0.5475  0.3176  1.2419
  278MOL0     H37474   9.601   2.175   0.709  0.2247  2.5011  1.6284
  278MOL0     H37475   9.708   2.050   0.515  0.4766 -0.2076  0.4240
  278MOL0     H37476   9.751   2.204   0.436  0.1189 -2.8398 -2.4802
  278MOL0     H37477   9.838   2.083   0.699  1.8100 -0.3043  0.2347
  278MOL0     H37478   9.852   2.265   0.678  0.2782  0.5255  0.1173
  278MOL0     H37479   9.966   2.057   0.513 -2.9337 -0.4555  1.8800
  278MOL0     H37480   9.989   2.230   0.483 -0.0040  0.1323  0.7669
  278MOL0     H37481  10.047   2.325   0.788  0.7932  1.6710 -2.2753
  278MOL0     H37482  10.304   2.354   0.918 -2.1361  0.5176 -3.6211
  278MOL0     H37483  10.223   2.224   1.021  0.5621 -1.8402 -0.9418
  278MOL0     H37484  10.423   2.075   0.974  2.1163 -0.6089  3.8537
  278MOL0     H37485  10.502   2.220   0.906  1.2252 -2.1458  0.9507
  278MOL0     H37486  10.385   2.205   1.182  0.1107 -3.7134 -0.6649
  278MOL0     H37487  10.480   2.333   1.117 -0.0851  0.6541  2.3573
  278MOL0     H37488  10.594   2.067   1.218  5.1966  1.1581  3.8637
  278MOL0     H37489  10.612   2.238   1.258  0.2895  0.4635 -0.9122
  278MOL0     H37490  10.854   2.025   0.940 -1.1087  0.6303  0.9830
  278MOL0     H37491  11.072   1.927   0.999 -2.3000 -3.1831  0.2707
  278MOL0     H37492  11.343   2.153   1.538 -1.9653 -1.8857 -1.1580
  278MOL0     H37493  11.584   2.189   1.627  3.8304 -0.5130 -0.6349
  278MOL0     H37494  11.920   2.109   1.693  0.6058  1.3135  1.7239
  278MOL0     H37495  11.763   2.155   1.740  0.2201 -0.1056 -0.0038
  278MOL0     H37496  11.795   1.998   1.900 -0.4047  1.6900 -0.9157
  278MOL0     H37497  11.695   1.912   1.794 -0.1840 -0.4533 -2.0801
  278MOL0     H37498  11.861   1.764   1.845 -1.0879 -0.0067 -0.1342
  278MOL0     H37499  11.890   1.812   1.682 -0.9174 -1.2761  0.3226
  278MOL0     H37500  12.039   1.960   1.923 -0.7234 -0.1120  1.1371
  278MOL0     H37501  12.083   1.967   1.752  2.1822 -0.4662  0.9745
  278MOL0     H37502  12.186   1.752   1.744  0.3227 -2.2056  0.5337
  278MOL0     H37503  12.094   1.691   1.882  0.7222 -0.4356  1.1328
  278MOL0     H37504  12.294   1.929   1.884 -2.4777 -0.0644 -2.3871
  278MOL0     H37505  12.229   1.838   2.029 -1.7115  0.7692 -0.9532
  278MOL0     H37506  12.335   1.643   1.874  1.0184  0.8374 -1.3523
  278MOL0     H37507  12.418   1.710   2.016 -0.6065 -0.2407  0.8463
  278MOL0     H37508  12.443   1.783   1.726  0.1686  1.4077 -1.3678
  278MOL0     H37509  12.508   1.894   1.859 -2.9986  0.5844  0.9875
  278MOL0     H37510  11.687   1.834   1.402  1.0694  0.9875 -0.4648
  278MOL0     H37511  11.464   1.835   1.296  0.9913  1.7278 -2.4216
  278MOL0     H37512  11.043   2.112   1.380  0.0878  2.7424 -1.2554
  278MOL0     H37513  10.844   2.225   1.314  1.3359  0.5398 -1.3331
  278MOL0     H37514   9.130   1.855   0.015 -0.4022  0.1039  0.7540
  278MOL0     H37515   8.880   1.900  -0.037 -0.6268 -3.2019  1.3029
  278MOL0     H37516   8.494   1.951   0.061  0.1229  0.8400  0.2169
  278MOL0     H37517   8.249   1.960   0.077  1.1887 -1.6388  2.6390
  278MOL0     H37518   7.948   2.223   0.264 -0.2232 -0.7392  2.5532
  278MOL0     H37519   8.088   2.235   0.370  0.5501  0.2333  0.2427
  278MOL0     H37520   7.959   2.043   0.461  1.3391 -4.0449  0.6559
  278MOL0     H37521   8.109   2.002   0.389 -0.5148 -0.9357  0.1211
  278MOL0     H37522   7.994   1.925   0.185 -1.7912 -2.0914 -1.1813
  278MOL0     H37523   7.838   1.977   0.233  0.4162 -0.1109 -0.0991
  278MOL0     H37524   7.991   1.795   0.424  0.2529  4.8513  1.4902
  278MOL0     H37525   7.818   1.824   0.399  0.8958 -3.2824 -1.4069
  278MOL0     H37526   7.902   1.543   0.093 -0.2943  0.9610 -1.3065
  278MOL0     H37527   8.254   2.318   0.284 -0.6966 -1.4462  1.5877
  278MOL0     H37528   8.601   2.315   0.368  0.4072 -0.9111  0.0816
  278MOL0     H37529   8.598   2.420   0.228  2.6440 -0.8914  1.1282
  278MOL0     H37530   8.460   2.415   0.349 -0.3161 -0.6833 -0.1445
  279MOL0     O37531   5.136   6.332   0.511  0.3240 -0.3480 -0.1664
  279MOL0     C37532   5.095   6.373   0.407  0.4919 -0.6151 -0.2676
  279MOL0     O37533   4.959   6.390   0.373 -0.3794 -0.2642 -0.1231
  279MOL0     C37534   4.867   6.426   0.467 -0.4967 -0.4265  0.5751
  279MOL0     C37535   4.742   6.448   0.423  0.1415 -0.7257 -0.2201
  279MOL0     C37536   4.637   6.480   0.513 -0.1613 -0.4072  0.2611
  279MOL0     C37537   4.658   6.486   0.654 -0.5362  0.5874 -0.2605
  279MOL0     O37538   4.556   6.511   0.743  0.4307  0.1952  0.4412
  279MOL0     C37539   4.437   6.572   0.696  0.5405  0.0184  0.0318
  279MOL0     C37540   4.341   6.625   0.811 -0.5612  0.5057 -0.0941
  279MOL0     C37541   4.264   6.506   0.879  0.4308  0.5102 -0.5713
  279MOL0     C37542   4.163   6.565   0.979  0.0521 -0.2594  0.6539
  279MOL0     C37543   4.092   6.455   1.052 -0.1767  0.4310 -0.5955
  279MOL0     C37544   3.977   6.489   1.149 -0.2229 -0.4550  0.5515
  279MOL0     C37545   3.862   6.564   1.084 -0.9614  0.1541  0.0280
  279MOL0     C37546   3.773   6.477   0.980 -1.3870  0.0613 -0.4737
  279MOL0     N37547   3.717   6.569   0.883  0.1287  0.1359  0.3007
  279MOL0     C37548   3.619   6.667   0.903 -0.0629  0.2552 -0.1548
  279MOL0     C37549   3.594   6.722   0.781  0.1713  0.5056  0.0002
  279MOL0     C37550   3.502   6.836   0.748  0.6037  0.2350 -0.3044
  279MOL0     C37551   3.562   6.937   0.646  0.3203  0.0920 -0.2617
  279MOL0     C37552   3.679   7.026   0.704  0.1509  0.2854  0.9124
  279MOL0     C37553   3.808   6.950   0.740  0.5400  0.4497 -0.0149
  279MOL0     O37554   3.911   7.037   0.789 -0.0248 -0.9959 -0.3736
  279MOL0     C37555   4.043   7.017   0.767 -0.1385  0.1110  0.3238
  279MOL0     C37556   4.132   7.044   0.876 -0.5519  0.0475 -0.5465
  279MOL0     C37557   4.270   7.039   0.852 -0.9956 -0.0297 -0.7140
  279MOL0     C37558   4.325   7.020   0.725 -0.5702 -0.1320  0.1745
  279MOL0     C37559   4.467   7.007   0.705 -0.2895  0.2584 -0.1613
  279MOL0     O37560   4.503   6.920   0.614 -0.6858  0.8020  0.3317
  279MOL0     C37561   4.634   6.922   0.559  0.3986  0.2666  0.3420
  279MOL0     C37562   4.679   7.016   0.468  0.1623  0.9143 -0.2319
  279MOL0     C37563   4.813   7.043   0.431  0.8352  1.2987  0.6290
  279MOL0     C37564   4.910   6.949   0.472 -0.3588  0.5900 -0.2249
  279MOL0     O37565   5.042   6.972   0.434  0.2539  0.5295  0.8299
  279MOL0     C37566   5.137   6.865   0.466  0.1391 -0.7916 -0.4956
  279MOL0     C37567   5.274   6.920   0.427  0.4348 -0.1764  0.0734
  279MOL0     C37568   5.385   6.814   0.427 -1.0997  1.1279  0.2067
  279MOL0     C37569   5.515   6.874   0.385  0.3981 -0.0222  0.5220
  279MOL0     C37570   5.621   6.769   0.394  0.1749  0.3446  0.7783
  279MOL0     C37571   5.759   6.829   0.388  0.3281  0.0449  0.0785
  279MOL0     C37572   5.869   6.714   0.392  0.8117 -0.7506 -0.1104
  279MOL0     C37573   6.001   6.783   0.382 -0.6314 -0.2807  0.8577
  279MOL0    Cl37574   6.019   6.923   0.495  0.3392 -0.0116 -0.0881
  279MOL0     C37575   4.858   6.833   0.550 -0.7026 -0.7554  0.6532
  279MOL0     C37576   4.728   6.822   0.599  0.1016 -0.0535  0.3265
  279MOL0     O37577   4.546   7.069   0.780  0.6788 -0.0679  0.4507
  279MOL0     C37578   4.236   6.997   0.615 -0.6026  0.6385 -1.1560
  279MOL0     C37579   4.098   6.998   0.641 -0.8175 -0.3779  0.1077
  279MOL0     N37580   3.677   6.658   0.696  0.5892  0.7380  0.4594
  279MOL0     N37581   3.757   6.568   0.754 -0.0554  0.0039  0.1020
  279MOL0     C37582   4.785   6.456   0.696  0.2766  0.0988  0.4254
  279MOL0     C37583   4.890   6.434   0.604  0.6140 -0.2763 -0.7420
  279MOL0     C37584   5.191   6.386   0.296  0.1401 -0.0125 -0.2365
  279MOL0     C37585   5.149   6.353   0.172  0.6861 -0.5564 -0.1286
  279MOL0     C37586   5.224   6.356   0.051  0.1928  0.0112  0.3318
  279MOL0     C37587   5.356   6.350   0.069 -0.1256  0.3909  0.2484
  279MOL0     O37588   5.439   6.324  -0.039  0.5493  0.3964 -0.3073
  279MOL0     C37589   5.406   6.200  -0.098  0.4909  0.4366  0.2233
  279MOL0     C37590   5.534   6.141  -0.165 -0.4132  0.8486  0.1204
  279MOL0     C37591   5.524   6.002  -0.239 -0.0576  0.0857 -0.1680
  279MOL0     C37592   5.423   6.003  -0.356  0.1581  0.0211  0.2893
  279MOL0     C37593   5.474   6.106  -0.450  0.0507 -0.5200 -1.0841
  279MOL0     C37594   5.520   6.196  -0.517  0.6172 -0.2714 -0.0305
  279MOL0     C37595   5.417   6.384   0.188  0.0969  0.1091 -0.6875
  279MOL0     C37596   5.334   6.411   0.298 -0.4262 -0.1048 -0.3422
  279MOL0     C37597   5.405   6.448   0.430  0.8517 -0.3471 -0.1659
  279MOL0     H37598   4.730   6.446   0.315 -0.9344  1.1595 -0.1849
  279MOL0     H37599   4.539   6.490   0.469 -0.3260 -2.0153  0.2137
  279MOL0     H37600   4.453   6.658   0.631  0.1375  0.2988  0.2970
  279MOL0     H37601   4.385   6.499   0.633 -0.0227  0.4895 -0.0611
  279MOL0     H37602   4.262   6.689   0.771 -1.4438 -1.8188 -2.2769
  279MOL0     H37603   4.397   6.676   0.890 -1.4719 -0.7173  1.3947
  279MOL0     H37604   4.335   6.440   0.930 -1.6983 -2.6319 -1.3717
  279MOL0     H37605   4.204   6.448   0.808  1.1275  0.9389 -1.5324
  279MOL0     H37606   4.208   6.642   1.043  1.5268  0.1690 -0.8214
  279MOL0     H37607   4.089   6.618   0.919 -1.0908 -0.1536  2.0916
  279MOL0     H37608   4.054   6.379   0.983 -0.5659 -0.1061  0.1910
  279MOL0     H37609   4.167   6.397   1.106  0.8218 -0.3498 -2.7137
  279MOL0     H37610   3.938   6.395   1.188  2.4757 -1.3259  1.3446
  279MOL0     H37611   4.028   6.538   1.232  2.8636 -3.0348  0.3690
  279MOL0     H37612   3.910   6.649   1.034 -0.0244 -1.2822 -1.5914
  279MOL0     H37613   3.803   6.598   1.169 -0.8515 -2.3532  1.1986
  279MOL0     H37614   3.830   6.396   0.934 -1.9620 -0.3318 -0.5051
  279MOL0     H37615   3.695   6.430   1.041  0.3187 -0.3881  1.4313
  279MOL0     H37616   3.570   6.696   0.995  1.4297  0.1056  0.7127
  279MOL0     H37617   3.407   6.800   0.706  1.3630 -0.3740 -1.5758
  279MOL0     H37618   3.478   6.892   0.838 -1.2796 -1.8203  0.5565
  279MOL0     H37619   3.576   6.895   0.545  2.4123  1.3945 -0.5873
  279MOL0     H37620   3.483   7.010   0.625 -1.0292 -1.4434 -0.7384
  279MOL0     H37621   3.634   7.068   0.795 -0.2739 -0.0525  0.8627
  279MOL0     H37622   3.702   7.100   0.627 -0.0553 -0.8961 -0.3215
  279MOL0     H37623   3.845   6.887   0.658 -2.6852 -1.9717  0.2072
  279MOL0     H37624   3.790   6.882   0.823 -1.0927  0.2357 -0.5120
  279MOL0     H37625   4.084   7.060   0.972 -0.9853 -0.9992 -0.5749
  279MOL0     H37626   4.338   7.051   0.936 -3.1172  2.8494  0.7959
  279MOL0     H37627   4.603   7.083   0.429 -0.5865 -0.3935 -1.1073
  279MOL0     H37628   4.847   7.116   0.359  2.7924  0.5346  0.6995
  279MOL0     H37629   5.138   6.840   0.573 -0.4956  0.9265 -0.0542
  279MOL0     H37630   5.115   6.772   0.413  2.5561 -1.0132 -1.2407
  279MOL0     H37631   5.277   6.953   0.322  1.0140 -0.5088 -0.0183
  279MOL0     H37632   5.312   6.996   0.495  2.0651 -1.7881  1.0387
  279MOL0     H37633   5.399   6.768   0.525  2.2235  0.6660 -0.3871
  279MOL0     H37634   5.361   6.731   0.359  0.1931 -1.2547  2.4999
  279MOL0     H37635   5.547   6.956   0.451 -0.6024  1.6239 -0.9641
  279MOL0     H37636   5.512   6.917   0.285 -0.8467  0.6598  0.8263
  279MOL0     H37637   5.601   6.696   0.315 -1.4003 -0.9860  2.3164
  279MOL0     H37638   5.616   6.703   0.482 -0.6736 -1.1312 -0.3197
  279MOL0     H37639   5.770   6.885   0.294  1.7784 -0.9486 -0.3706
  279MOL0     H37640   5.766   6.889   0.479  2.3368 -0.2375  0.1722
  279MOL0     H37641   5.852   6.654   0.302 -1.3615 -1.0710  0.4543
  279MOL0     H37642   5.858   6.652   0.481  2.8890 -0.7237  0.1962
  279MOL0     H37643   6.066   6.699   0.408 -1.3261 -1.1249 -0.0744
  279MOL0     H37644   6.026   6.811   0.279  0.1287  0.1882  1.1574
  279MOL0     H37645   4.937   6.769   0.588 -0.6003 -1.2661 -0.3799
  279MOL0     H37646   4.706   6.748   0.674 -0.0789 -1.3489 -0.9649
  279MOL0     H37647   4.274   6.983   0.514 -2.2092 -3.9700 -1.3480
  279MOL0     H37648   4.028   7.005   0.559 -0.1408  3.7213 -0.3004
  279MOL0     H37649   4.797   6.449   0.804 -1.6982 -0.2009  0.6645
  279MOL0     H37650   4.981   6.402   0.654  0.9434  0.9362 -0.5313
  279MOL0     H37651   5.046   6.323   0.155  1.5220 -2.5930 -1.9981
  279MOL0     H37652   5.173   6.351  -0.044 -0.0898  3.8350  0.1467
  279MOL0     H37653   5.328   6.213  -0.173  0.0221  1.0487  0.8124
  279MOL0     H37654   5.373   6.136  -0.017  0.7797  0.9984  0.8005
  279MOL0     H37655   5.607   6.132  -0.084  2.6743  0.2648 -2.5209
  279MOL0     H37656   5.576   6.216  -0.234  4.0050 -0.4110  1.0783
  279MOL0     H37657   5.483   5.931  -0.167 -1.2556  1.1226  0.1949
  279MOL0     H37658   5.621   5.968  -0.277 -0.4473 -0.0247 -1.0994
  279MOL0     H37659   5.423   5.910  -0.413  2.8175 -0.2940  0.6343
  279MOL0     H37660   5.323   6.019  -0.316 -1.2278 -1.8620 -2.1606
  279MOL0     H37661   5.546   6.281  -0.577  0.9595 -1.1215 -1.1076
  279MOL0     H37662   5.525   6.393   0.194 -0.0509  1.1270  1.8785
  279MOL0     H37663   5.351   6.527   0.483 -0.8389  0.4816 -2.9694
  279MOL0     H37664   5.418   6.364   0.500 -2.1880  0.2504  1.3062
  279MOL0     H37665   5.510   6.472   0.411  2.2116 -1.3726  4.5516
  280MOL0     O37666   7.723   1.563  11.210 -0.9897  0.1630  0.8984
  280MOL0     C37667   7.672   1.568  11.093  0.8319  0.3706  0.8503
  280MOL0     O37668   7.731   1.544  10.977 -0.1372 -0.1488 -0.1360
  280MOL0     C37669   7.861   1.499  10.965 -0.2317  0.6929  0.2906
  280MOL0     C37670   7.886   1.374  10.898  0.1121  0.0525 -0.9991
  280MOL0     C37671   8.019   1.336  10.891  0.3888  0.0279  0.4994
  280MOL0     C37672   8.124   1.396  10.955  0.1920  0.5912  0.0600
  280MOL0     O37673   8.253   1.348  10.948 -0.4530 -0.4808  0.6085
  280MOL0     C37674   8.262   1.198  10.959 -0.5541 -0.1891  0.6534
  280MOL0     C37675   8.409   1.150  10.993 -0.6266 -0.3283  0.1942
  280MOL0     C37676   8.418   0.995  10.995 -0.5620  0.7951 -0.4507
  280MOL0     C37677   8.328   0.929  11.105 -0.3589 -0.4360 -0.0906
  280MOL0     C37678   8.342   0.772  11.099 -0.0164  0.8534  0.0514
  280MOL0     C37679   8.293   0.692  11.224  1.0401  0.1819  0.4861
  280MOL0     C37680   8.389   0.678  11.339 -0.5298 -1.1318 -0.4816
  280MOL0     C37681   8.341   0.571  11.445  1.0563 -0.3922 -0.0118
  280MOL0     N37682   8.435   0.582  11.562  0.6799  0.6027  0.9974
  280MOL0     C37683   8.563   0.551  11.552 -0.1302 -0.5553  0.3895
  280MOL0     C37684   8.614   0.631  11.650 -0.2742 -0.0206 -0.4017
  280MOL0     C37685   8.756   0.628  11.697 -0.1482  0.4371  0.0021
  280MOL0     C37686   8.865   0.637  11.575  0.2308  0.1699  0.0180
  280MOL0     C37687   8.855   0.759  11.487 -0.3607 -0.5949  1.4305
  280MOL0     C37688   8.976   0.855  11.499  0.4717 -0.0662  0.4277
  280MOL0     O37689   9.101   0.809  11.441  1.3426  0.2651  0.0195
  280MOL0     C37690   9.211   0.862  11.496 -0.3746  1.1082 -0.3536
  280MOL0     C37691   9.277   0.979  11.463  0.2421  0.9868  0.2839
  280MOL0     C37692   9.385   1.029  11.541  0.4210  0.9743  0.3232
  280MOL0     C37693   9.442   0.959  11.649  0.7756  0.3262  0.0257
  280MOL0     C37694   9.573   0.991  11.712 -1.1104 -0.6699  0.6494
  280MOL0     O37695   9.634   1.109  11.682 -0.9991 -0.3070  0.0886
  280MOL0     C37696   9.746   1.143  11.753 -0.4756  0.1158  0.9804
  280MOL0     C37697   9.733   1.210  11.871 -0.2409 -0.0988  0.0221
  280MOL0     C37698   9.852   1.274  11.926  1.0936  0.0692  0.9311
  280MOL0     C37699   9.981   1.253  11.869  0.2196  0.8290 -0.1867
  280MOL0     O37700  10.081   1.326  11.917  0.0180 -0.1392 -0.4826
  280MOL0     C37701  10.223   1.314  11.884 -0.2360  0.0449  0.5959
  280MOL0     C37702  10.288   1.431  11.954  0.1435 -0.6587  0.0216
  280MOL0     C37703  10.440   1.417  11.941  0.4195 -0.5943 -0.2301
  280MOL0     C37704  10.515   1.539  11.998 -1.0725  0.0737  0.0602
  280MOL0     C37705  10.671   1.511  11.995 -0.7129 -0.6649 -0.0404
  280MOL0     C37706  10.742   1.636  12.055  0.3079 -0.5610 -0.0465
  280MOL0     C37707  10.896   1.618  12.073 -1.0200 -0.5137 -0.4289
  280MOL0     C37708  10.965   1.747  12.088 -0.3685 -0.3828 -0.2769
  280MOL0    Cl37709  11.142   1.727  12.119  0.3450 -0.2007 -0.2839
  280MOL0     C37710   9.982   1.161  11.760 -0.3918  0.3036 -0.1177
  280MOL0     C37711   9.871   1.117  11.686 -0.1386  1.7823 -0.3760
  280MOL0     O37712   9.623   0.909  11.791  0.0852  0.0959  0.4344
  280MOL0     C37713   9.377   0.837  11.684 -0.4463  0.6113 -0.0484
  280MOL0     C37714   9.265   0.797  11.608 -0.1490 -0.5063 -0.3412
  280MOL0     N37715   8.524   0.717  11.695  0.2360 -0.8648  0.0354
  280MOL0     N37716   8.410   0.671  11.662  0.0842 -0.5152 -0.5603
  280MOL0     C37717   8.097   1.510  11.021 -0.1005 -0.1114 -0.3831
  280MOL0     C37718   7.971   1.562  11.026 -1.1405 -0.6876  0.3374
  280MOL0     C37719   7.525   1.580  11.100  0.2798  0.5557 -0.0794
  280MOL0     C37720   7.457   1.512  11.003 -0.0565 -0.3456  0.0751
  280MOL0     C37721   7.318   1.536  10.992  0.6079 -0.5751  0.1395
  280MOL0     C37722   7.251   1.628  11.080  0.0362  0.2375  0.2710
  280MOL0     O37723   7.112   1.621  11.060 -0.0773 -0.5192 -0.6548
  280MOL0     C37724   7.032   1.649  11.169 -0.0103  0.4612  0.4556
  280MOL0     C37725   6.992   1.793  11.161 -0.1740 -0.3010  0.8845
  280MOL0     C37726   6.890   1.831  11.272  1.0298  0.5870 -0.2995
  280MOL0     C37727   6.926   1.952  11.360 -0.3445 -0.3600  0.0619
  280MOL0     C37728   6.812   1.977  11.446 -0.3353 -0.1134  1.2388
  280MOL0     C37729   6.712   2.011  11.494  0.4304  0.1576 -0.1677
  280MOL0     C37730   7.320   1.692  11.182  0.7605  0.4864 -0.3682
  280MOL0     C37731   7.460   1.674  11.198  0.4449  0.0368  0.6970
  280MOL0     C37732   7.530   1.752  11.312  0.6289 -0.4150 -0.0663
  280MOL0     H37733   7.801   1.338  10.839 -0.7182  2.4543 -1.4007
  280MOL0     H37734   8.038   1.248  10.830  2.4901  1.9448 -1.8408
  280MOL0     H37735   8.181   1.165  11.024 -0.0520 -0.0799  1.3436
  280MOL0     H37736   8.246   1.154  10.860 -0.6804 -1.7339  1.3457
  280MOL0     H37737   8.450   1.190  11.087  2.7835 -3.8376  0.4381
  280MOL0     H37738   8.466   1.187  10.908 -2.7273  0.5008 -0.9336
  280MOL0     H37739   8.524   0.968  11.007 -0.7237  0.6731  0.8715
  280MOL0     H37740   8.391   0.957  10.896 -1.8507 -4.4317  1.5681
  280MOL0     H37741   8.370   0.965  11.200  1.3053 -0.5185 -0.7567
  280MOL0     H37742   8.227   0.967  11.088 -0.2844 -0.5402 -0.7741
  280MOL0     H37743   8.283   0.734  11.015 -1.8848 -3.0005  2.8192
  280MOL0     H37744   8.444   0.746  11.069 -1.1432 -1.7707 -1.8005
  280MOL0     H37745   8.193   0.715  11.261  0.6436 -1.1854  0.3376
  280MOL0     H37746   8.275   0.591  11.184 -0.2579 -0.2064  1.9582
  280MOL0     H37747   8.391   0.777  11.385 -2.6865 -0.9715 -0.6507
  280MOL0     H37748   8.486   0.649  11.297  0.2139 -0.4796  0.7057
  280MOL0     H37749   8.236   0.597  11.464  0.5283 -1.0845 -1.8413
  280MOL0     H37750   8.338   0.469  11.407 -1.2658 -0.2723 -0.3136
  280MOL0     H37751   8.611   0.474  11.492  2.8005 -1.2848  3.3722
  280MOL0     H37752   8.774   0.712  11.765 -0.2760  0.9449 -0.5815
  280MOL0     H37753   8.771   0.531  11.745  0.4589 -0.9909 -2.8362
  280MOL0     H37754   8.963   0.627  11.622  0.7447 -2.2465 -1.3991
  280MOL0     H37755   8.851   0.558  11.500  3.8993  1.7656 -2.6381
  280MOL0     H37756   8.757   0.803  11.504 -0.5692  0.2124 -1.2864
  280MOL0     H37757   8.847   0.719  11.385 -1.1779  1.4012  0.6643
  280MOL0     H37758   8.996   0.873  11.605 -1.7093  1.1590  0.6905
  280MOL0     H37759   8.938   0.948  11.454  0.1022  0.5669  1.9923
  280MOL0     H37760   9.231   1.041  11.386  0.0485  0.8020  0.2528
  280MOL0     H37761   9.441   1.116  11.506 -0.0890  0.7221 -1.1664
  280MOL0     H37762   9.631   1.229  11.904 -1.4572  0.0073 -3.4449
  280MOL0     H37763   9.830   1.351  11.999 -1.6319 -0.7104  1.0628
  280MOL0     H37764  10.267   1.221  11.921 -2.0016 -0.1072  2.5261
  280MOL0     H37765  10.228   1.324  11.775  1.1001  0.9968  0.7222
  280MOL0     H37766  10.264   1.516  11.889  0.3299 -2.5778 -2.7044
  280MOL0     H37767  10.250   1.444  12.056 -2.2806  1.3587 -1.0332
  280MOL0     H37768  10.474   1.333  12.002  2.6349 -0.2977 -0.9496
  280MOL0     H37769  10.464   1.403  11.835 -0.4294  0.2814 -0.5474
  280MOL0     H37770  10.468   1.572  12.091 -1.7217  0.8966 -0.5502
  280MOL0     H37771  10.504   1.621  11.927 -1.0426  0.5863  0.6367
  280MOL0     H37772  10.702   1.496  11.891 -1.2873  0.8556 -0.4554
  280MOL0     H37773  10.696   1.416  12.045 -2.6272 -0.3956  1.5634
  280MOL0     H37774  10.717   1.715  11.983 -1.5965 -2.4845 -1.6347
  280MOL0     H37775  10.702   1.664  12.153 -1.0340 -1.5137 -0.2868
  280MOL0     H37776  10.932   1.569  11.982 -2.1610 -3.0929  0.4102
  280MOL0     H37777  10.933   1.555  12.154  1.8701  0.2520 -1.0215
  280MOL0     H37778  10.954   1.815  12.004 -0.7069  0.0507  0.1141
  280MOL0     H37779  10.914   1.806  12.165 -0.0262  1.0495 -1.1086
  280MOL0     H37780  10.082   1.135  11.724 -0.5694  0.8177 -1.0229
  280MOL0     H37781   9.865   1.064  11.592  0.8295  1.7381 -0.4230
  280MOL0     H37782   9.402   0.773  11.768 -3.5359 -1.2437 -0.3709
  280MOL0     H37783   9.228   0.696  11.622 -0.8161 -0.5071 -1.8873
  280MOL0     H37784   8.182   1.553  11.074 -0.6275 -1.0253  1.2822
  280MOL0     H37785   7.953   1.647  11.092 -1.7426 -0.2414 -0.3841
  280MOL0     H37786   7.508   1.447  10.933  0.3839 -0.3920  0.4321
  280MOL0     H37787   7.260   1.480  10.920 -0.5362  0.5024  0.1860
  280MOL0     H37788   7.079   1.615  11.262 -1.3641  0.5569  1.2040
  280MOL0     H37789   6.942   1.587  11.163 -1.5228  2.7014 -2.8524
  280MOL0     H37790   6.952   1.815  11.061 -0.9823 -2.9278  0.5583
  280MOL0     H37791   7.074   1.866  11.159 -1.7691  1.5426 -0.6196
  280MOL0     H37792   6.872   1.750  11.343  0.5592 -1.2028 -2.3424
  280MOL0     H37793   6.790   1.854  11.234  1.2322  1.6164 -0.2449
  280MOL0     H37794   7.005   1.913  11.424 -2.9144 -2.7968  1.9964
  280MOL0     H37795   6.952   2.042  11.303 -2.6369  1.4686  1.6679
  280MOL0     H37796   6.634   2.050  11.555  0.3723 -1.6437  0.9783
  280MOL0     H37797   7.269   1.764  11.246  2.0738 -0.0918  1.4337
  280MOL0     H37798   7.572   1.686  11.389  0.9624  2.0710  2.0432
  280MOL0     H37799   7.614   1.808  11.269 -0.6284  1.4119 -0.2708
  280MOL0     H37800   7.456   1.817  11.360 -0.0698 -1.1577 -0.1290
  281MOL0     O37801   6.374   8.751  11.313  0.4314  0.6667  0.2586
  281MOL0     C37802   6.329   8.668  11.239  0.1860 -0.3001  0.8238
  281MOL0     O37803   6.404   8.575  11.182  0.0263  0.2464 -0.0451
  281MOL0     C37804   6.525   8.550  11.248  0.2032  0.6360  0.5789
  281MOL0     C37805   6.644   8.548  11.170  0.2972  0.2054 -0.7541
  281MOL0     C37806   6.766   8.517  11.235  0.5741  0.7941  0.2310
  281MOL0     C37807   6.769   8.462  11.363  0.1054 -0.3661  0.5646
  281MOL0     O37808   6.895   8.423  11.409  0.2076 -0.2227 -0.2245
  281MOL0     C37809   6.894   8.306  11.493  0.2671 -1.1220  0.9249
  281MOL0     C37810   7.027   8.253  11.478 -0.1996  0.8863  0.5670
  281MOL0     C37811   7.133   8.339  11.543 -0.4470 -0.5277  0.0547
  281MOL0     C37812   7.270   8.318  11.471  0.4619  0.3173 -0.2778
  281MOL0     C37813   7.368   8.432  11.515  0.3929  0.0851  0.6458
  281MOL0     C37814   7.452   8.396  11.638 -0.0209 -0.5335  0.0854
  281MOL0     C37815   7.585   8.476  11.633  0.4740 -0.0657  0.0502
  281MOL0     C37816   7.662   8.441  11.758 -0.5746 -0.7941  0.1259
  281MOL0     N37817   7.798   8.505  11.766 -0.7449 -0.3351  0.1112
  281MOL0     C37818   7.842   8.598  11.856 -0.0327  0.0751  0.1789
  281MOL0     C37819   7.973   8.622  11.830 -0.2666  0.3105 -0.5177
  281MOL0     C37820   8.065   8.716  11.902 -0.9775  0.1136  0.2450
  281MOL0     C37821   8.115   8.660  12.039 -0.4526 -0.0676 -0.2079
  281MOL0     C37822   8.243   8.734  12.093  0.2296  0.2389 -0.2135
  281MOL0     C37823   8.311   8.636  12.184 -0.1320 -0.1766 -0.2200
  281MOL0     O37824   8.381   8.709  12.285 -0.6669 -0.5012  0.1426
  281MOL0     C37825   8.492   8.659  12.353  0.1165 -0.9297  0.4687
  281MOL0     C37826   8.525   8.736  12.458 -0.1019 -0.2521  0.4114
  281MOL0     C37827   8.641   8.705  12.541  0.2239 -0.9989 -0.5732
  281MOL0     C37828   8.715   8.596  12.514  0.5520 -0.3992 -1.3111
  281MOL0     C37829   8.847   8.575  12.582  0.2983  1.5113  0.2887
  281MOL0     O37830   8.933   8.480  12.541 -0.0362  0.1692  0.5873
  281MOL0     C37831   9.055   8.462  12.586  0.1905  1.0516  0.0938
  281MOL0     C37832   9.087   8.444  12.726  0.2980 -0.2017  0.0457
  281MOL0     C37833   9.214   8.412  12.766 -0.1268  0.7359 -0.2727
  281MOL0     C37834   9.319   8.411  12.663  0.7380  0.5209  0.0115
  281MOL0     O37835   9.453   8.408  12.694 -0.3784 -0.2646  0.5747
  281MOL0     C37836   9.496   8.328  12.803  0.1847 -0.8256 -0.4818
  281MOL0     C37837   9.637   8.365  12.831 -0.2641  0.1820 -0.2953
  281MOL0     C37838   9.629   8.509  12.893  0.2029 -0.4764  1.1620
  281MOL0     C37839   9.774   8.569  12.894  0.5889  0.3359  0.6544
  281MOL0     C37840   9.853   8.525  13.006 -0.2641 -0.6160  0.4546
  281MOL0     C37841   9.977   8.611  13.022 -0.5884 -0.6320 -0.9246
  281MOL0     C37842  10.079   8.615  12.911  0.6843  0.3040 -0.0955
  281MOL0     C37843  10.209   8.679  12.939 -0.4594  0.7135 -0.3970
  281MOL0    Cl37844  10.284   8.595  13.075  0.1171 -0.1794  0.3092
  281MOL0     C37845   9.286   8.418  12.528  0.0527 -0.5672  0.4454
  281MOL0     C37846   9.154   8.438  12.490 -0.4850 -0.0602 -0.6882
  281MOL0     O37847   8.869   8.647  12.674 -0.5955 -1.0253  0.0648
  281MOL0     C37848   8.664   8.505  12.426  0.6961 -0.4315  0.3078
  281MOL0     C37849   8.557   8.536  12.342  0.2093 -0.1617  0.0441
  281MOL0     N37850   8.011   8.552  11.716  0.1248  0.4008 -0.2469
  281MOL0     N37851   7.905   8.487  11.676 -0.0940 -0.4127 -0.1711
  281MOL0     C37852   6.647   8.457  11.427 -0.6055  0.1155 -0.2361
  281MOL0     C37853   6.525   8.506  11.379  1.1440 -0.6602  0.2381
  281MOL0     C37854   6.185   8.670  11.206  0.6628 -0.5575 -0.1063
  281MOL0     C37855   6.126   8.552  11.156 -0.2718  0.0308  0.4916
  281MOL0     C37856   5.991   8.544  11.110 -0.7659 -0.0675  0.0341
  281MOL0     C37857   5.904   8.655  11.138 -0.3223  0.1335  0.5329
  281MOL0     O37858   5.773   8.668  11.083 -0.1441 -0.3733 -0.3540
  281MOL0     C37859   5.707   8.562  11.018  0.1410  0.6524 -0.5273
  281MOL0     C37860   5.560   8.589  10.977  0.0661 -0.2056  0.4541
  281MOL0     C37861   5.539   8.553  10.828  0.1885 -0.4936 -0.7328
  281MOL0     C37862   5.496   8.412  10.812  0.3733  0.7904 -0.0951
  281MOL0     C37863   5.459   8.377  10.672  0.5769  0.1360 -0.3820
  281MOL0     C37864   5.461   8.349  10.551  0.2576 -0.3103 -0.6785
  281MOL0     C37865   5.958   8.765  11.209  0.0227 -0.7672 -0.1339
  281MOL0     C37866   6.095   8.778  11.237  0.1246  0.1122 -0.2565
  281MOL0     C37867   6.136   8.913  11.297  0.2534 -0.7416 -0.6443
  281MOL0     H37868   6.638   8.584  11.068  1.8349 -0.5343 -1.1357
  281MOL0     H37869   6.856   8.528  11.175  0.7240 -0.1534  0.2810
  281MOL0     H37870   6.880   8.331  11.599  0.6781  3.4248  0.1032
  281MOL0     H37871   6.825   8.229  11.457 -1.1348 -0.4961  2.1635
  281MOL0     H37872   7.045   8.245  11.371  1.6117  0.7305  0.8494
  281MOL0     H37873   7.048   8.154  11.520  1.1826  0.3382 -1.2976
  281MOL0     H37874   7.142   8.315  11.650  3.5852 -1.1939 -0.2551
  281MOL0     H37875   7.110   8.445  11.553  1.8360 -0.0093  0.4261
  281MOL0     H37876   7.308   8.219  11.495 -0.4034  0.4397  1.8044
  281MOL0     H37877   7.252   8.331  11.364 -1.9216  1.6227  0.1951
  281MOL0     H37878   7.440   8.457  11.436 -0.2340  2.3920  0.7183
  281MOL0     H37879   7.311   8.526  11.518 -1.7427 -1.0654 -1.1587
  281MOL0     H37880   7.390   8.427  11.722 -1.8923 -2.3424 -0.5358
  281MOL0     H37881   7.472   8.289  11.647  3.4174 -0.2796 -2.2868
  281MOL0     H37882   7.574   8.585  11.632 -0.9332 -0.0997 -3.4091
  281MOL0     H37883   7.642   8.442  11.546 -1.9724 -2.0189 -0.9322
  281MOL0     H37884   7.610   8.468  11.850  0.1662 -1.9773  0.9089
  281MOL0     H37885   7.676   8.333  11.756 -1.9376 -0.9820 -0.1736
  281MOL0     H37886   7.792   8.639  11.943 -1.4413  0.0320 -0.5743
  281MOL0     H37887   8.150   8.748  11.841 -1.1130 -0.1466 -0.0827
  281MOL0     H37888   8.000   8.801  11.927 -1.2684 -0.8794  3.1695
  281MOL0     H37889   8.035   8.672  12.113 -0.0278  0.8596  0.1139
  281MOL0     H37890   8.147   8.556  12.025  1.5470  0.8224 -2.9846
  281MOL0     H37891   8.220   8.823  12.152  1.1648  0.7009 -0.5217
  281MOL0     H37892   8.318   8.760  12.017  1.8122  0.2091  1.2799
  281MOL0     H37893   8.383   8.579  12.125 -1.0106 -0.9211 -0.6138
  281MOL0     H37894   8.236   8.565  12.221 -0.0308 -0.4141 -0.4658
  281MOL0     H37895   8.465   8.821  12.488 -1.0767 -0.5529 -0.6067
  281MOL0     H37896   8.663   8.784  12.612  3.6719  0.8599 -3.3556
  281MOL0     H37897   9.008   8.463  12.799 -0.6791  0.4245 -1.1535
  281MOL0     H37898   9.239   8.394  12.870  1.5623 -3.1338 -1.1695
  281MOL0     H37899   9.439   8.353  12.893  0.1644  2.1682 -1.2300
  281MOL0     H37900   9.475   8.224  12.778 -1.5690 -0.2717 -1.4772
  281MOL0     H37901   9.679   8.291  12.900 -2.5943 -3.0185 -2.0246
  281MOL0     H37902   9.688   8.365  12.734 -1.1536 -0.9905 -0.7867
  281MOL0     H37903   9.559   8.567  12.832  2.0605  0.4407 -0.2096
  281MOL0     H37904   9.588   8.523  12.994 -0.5165  0.8370  0.7156
  281MOL0     H37905   9.760   8.678  12.904 -1.5806  0.0631  1.1612
  281MOL0     H37906   9.821   8.539  12.800  1.2396 -2.6739  1.8552
  281MOL0     H37907   9.879   8.421  12.985 -3.0488 -1.4541  0.7403
  281MOL0     H37908   9.810   8.531  13.107 -0.2459  1.1342  0.4000
  281MOL0     H37909   9.953   8.717  13.031  1.6347 -0.2259  1.1905
  281MOL0     H37910  10.022   8.583  13.118  0.0264 -0.7354 -1.2330
  281MOL0     H37911  10.030   8.656  12.822  1.2539  0.3528 -0.3930
  281MOL0     H37912  10.105   8.513  12.879  0.5137  0.1574  0.2248
  281MOL0     H37913  10.280   8.675  12.855  0.1072  1.2804  0.0469
  281MOL0     H37914  10.205   8.785  12.968 -1.4652  0.6837 -0.4055
  281MOL0     H37915   9.364   8.427  12.453  0.2403  0.7850  0.7754
  281MOL0     H37916   9.130   8.425  12.385  0.1920 -2.0507 -0.6298
  281MOL0     H37917   8.731   8.422  12.408  2.3044  0.4626  1.8500
  281MOL0     H37918   8.516   8.469  12.267 -3.6929  0.8513  1.0458
  281MOL0     H37919   6.644   8.422  11.530 -1.6187 -2.9209 -1.2003
  281MOL0     H37920   6.434   8.506  11.440  1.3164  2.7050  0.6826
  281MOL0     H37921   6.192   8.467  11.141 -0.5987  0.2156 -2.7402
  281MOL0     H37922   5.966   8.451  11.060 -1.8418  0.6118 -0.7367
  281MOL0     H37923   5.710   8.478  11.088 -1.0711  1.3021  0.3415
  281MOL0     H37924   5.751   8.519  10.928 -1.3486  3.7376 -2.9070
  281MOL0     H37925   5.526   8.693  10.981  0.4715 -0.0367 -0.2993
  281MOL0     H37926   5.488   8.539  11.043 -3.4608  0.4097 -2.6206
  281MOL0     H37927   5.630   8.578  10.772  2.0040 -1.6172  1.5641
  281MOL0     H37928   5.459   8.617  10.790 -0.8477 -1.0835  0.4177
  281MOL0     H37929   5.575   8.344  10.846  0.0955  1.7382  2.7656
  281MOL0     H37930   5.414   8.382  10.879  0.0181 -2.0783 -1.6460
  281MOL0     H37931   5.469   8.316  10.450 -2.2289  2.3488 -1.9004
  281MOL0     H37932   5.889   8.844  11.235 -1.7798 -1.7011 -1.7578
  281MOL0     H37933   6.140   8.910  11.406  1.0465  2.4122 -0.4725
  281MOL0     H37934   6.232   8.952  11.261 -0.0537  1.5232  0.7729
  281MOL0     H37935   6.062   8.992  11.280  0.5790 -0.6440 -1.6908
  282MOL0     O37936   6.339  11.287  10.170  0.0775 -0.7465  0.2087
  282MOL0     C37937   6.272  11.224  10.088 -0.4207  0.9302 -0.2170
  282MOL0     O37938   6.325  11.134   9.997 -0.2260 -0.2304 -0.1192
  282MOL0     C37939   6.454  11.131   9.999 -0.5629  0.1439  0.1748
  282MOL0     C37940   6.534  11.186   9.897 -0.9576 -0.4441  0.4818
  282MOL0     C37941   6.675  11.175   9.910 -0.5336  0.4403  0.3754
  282MOL0     C37942   6.739  11.094  10.009 -0.0205  0.3670  0.3278
  282MOL0     O37943   6.873  11.077  10.032 -0.2065 -0.0965 -0.3402
  282MOL0     C37944   6.950  11.115   9.916  0.2486 -0.6735 -0.6693
  282MOL0     C37945   7.092  11.060   9.933 -0.1795  1.0087 -0.9429
  282MOL0     C37946   7.186  11.101   9.824  0.6058  1.1185 -0.2528
  282MOL0     C37947   7.323  11.037   9.857  0.3304 -0.0769 -0.0013
  282MOL0     C37948   7.430  11.033   9.754  0.8652 -0.1012 -0.6340
  282MOL0     C37949   7.468  11.174   9.692 -0.3694  0.2087 -0.4886
  282MOL0     C37950   7.542  11.159   9.567  0.4552  0.3724 -0.6291
  282MOL0     C37951   7.687  11.110   9.584 -1.2961 -0.2228 -1.0531
  282MOL0     N37952   7.771  11.224   9.624  1.1923  0.9603  0.5963
  282MOL0     C37953   7.865  11.283   9.551  0.3900 -0.4464 -0.0044
  282MOL0     C37954   7.930  11.368   9.640 -0.3383 -0.8653 -0.0568
  282MOL0     C37955   8.023  11.478   9.597  0.3259 -0.4332  0.9442
  282MOL0     C37956   8.155  11.491   9.691  0.3659  0.4708  0.5827
  282MOL0     C37957   8.248  11.591   9.621 -0.4730 -0.5802 -0.8323
  282MOL0     C37958   8.395  11.593   9.666  0.1772 -0.3818  0.1492
  282MOL0     O37959   8.467  11.647   9.557 -0.4312 -0.0884  0.1591
  282MOL0     C37960   8.602  11.675   9.567  0.6010  0.1828 -0.7608
  282MOL0     C37961   8.682  11.642   9.685  0.0324 -0.3423 -1.1862
  282MOL0     C37962   8.817  11.648   9.683 -0.8670 -0.3576 -0.6250
  282MOL0     C37963   8.881  11.703   9.570 -0.4986 -0.2125  0.6193
  282MOL0     C37964   9.024  11.741   9.576  0.4698  0.0617 -0.5177
  282MOL0     O37965   9.069  11.754   9.706  0.2753  0.5187  0.2446
  282MOL0     C37966   9.202  11.783   9.719 -0.7119 -0.2407 -0.3323
  282MOL0     C37967   9.299  11.686   9.730 -0.6809  0.9192  0.6491
  282MOL0     C37968   9.439  11.720   9.739  0.0774  0.5347  0.3852
  282MOL0     C37969   9.489  11.853   9.737  0.3608  0.0728 -0.3729
  282MOL0     O37970   9.623  11.872   9.764  1.0898  0.3572 -0.1479
  282MOL0     C37971   9.676  12.005   9.772 -0.0795  0.0246  0.3894
  282MOL0     C37972   9.834  11.993   9.764  0.4625 -0.3097  0.5906
  282MOL0     C37973   9.896  11.919   9.880 -0.1263 -0.0578 -0.2205
  282MOL0     C37974  10.043  11.873   9.845  0.6429  0.4415  0.2862
  282MOL0     C37975  10.106  11.804   9.967 -0.1906  0.0980 -0.2979
  282MOL0     C37976  10.234  11.741   9.922 -0.4189 -0.6338 -0.5315
  282MOL0     C37977  10.313  11.689  10.038 -0.5174 -0.1442 -0.3452
  282MOL0     C37978  10.438  11.637   9.973  0.6396  0.0659  0.3041
  282MOL0    Cl37979  10.549  11.575  10.099 -0.0558 -0.2820 -0.2679
  282MOL0     C37980   9.389  11.946   9.748  0.4694  0.3910  0.7888
  282MOL0     C37981   9.250  11.917   9.730 -0.3120  0.3978  0.7275
  282MOL0     O37982   9.085  11.770   9.472 -0.1088 -0.6804  0.0338
  282MOL0     C37983   8.806  11.732   9.461 -0.0477  0.6231  1.2746
  282MOL0     C37984   8.668  11.716   9.455  0.5877  0.4092 -0.2720
  282MOL0     N37985   7.871  11.354   9.764  0.4170  0.2461 -0.3151
  282MOL0     N37986   7.774  11.269   9.757  0.1552  0.4760 -0.1688
  282MOL0     C37987   6.652  11.029  10.095 -0.2262  0.3117  0.5129
  282MOL0     C37988   6.508  11.042  10.087 -0.2449 -0.0577  0.0328
  282MOL0     C37989   6.128  11.229  10.090  0.4595  0.4921  0.0702
  282MOL0     C37990   6.063  11.122  10.021 -0.1296  0.0411 -0.0553
  282MOL0     C37991   5.925  11.113  10.015  0.3915 -0.2076 -0.1768
  282MOL0     C37992   5.847  11.206  10.077  0.3751 -0.7071 -0.6450
  282MOL0     O37993   5.709  11.207  10.069 -1.0648 -0.1664  0.3683
  282MOL0     C37994   5.639  11.103  10.002 -0.0943  0.7080  0.5888
  282MOL0     C37995   5.490  11.142  10.018  0.3192 -1.0035 -0.9773
  282MOL0     C37996   5.433  11.257   9.936 -0.5938  0.7291  0.2038
  282MOL0     C37997   5.403  11.213   9.796  0.3310  1.0144 -0.1531
  282MOL0     C37998   5.395  11.324   9.699 -0.0267  0.3788  0.6119
  282MOL0     C37999   5.385  11.426   9.626 -0.9466 -0.0347  0.3361
  282MOL0     C38000   5.906  11.310  10.143  0.6711 -0.3869  0.4244
  282MOL0     C38001   6.042  11.322  10.155  0.2318 -0.3271 -0.2094
  282MOL0     C38002   6.089  11.445  10.231 -0.4457  0.4614 -0.3045
  282MOL0     H38003   6.485  11.241   9.817  3.0862  0.7661 -1.4069
  282MOL0     H38004   6.717  11.241   9.836 -2.2929  0.8029 -0.3642
  282MOL0     H38005   6.902  11.077   9.826 -0.6877 -0.9520 -0.0725
  282MOL0     H38006   6.950  11.223   9.903  0.9319 -0.4597  0.8705
  282MOL0     H38007   7.097  10.952   9.944  3.5369  1.3091  2.9270
  282MOL0     H38008   7.115  11.090  10.036  0.2900 -0.5247 -0.5710
  282MOL0     H38009   7.204  11.208   9.828  3.9365  0.6483  0.4850
  282MOL0     H38010   7.152  11.074   9.723 -1.1022 -0.8987  0.7890
  282MOL0     H38011   7.348  11.087   9.951 -0.3960 -0.2933  0.3132
  282MOL0     H38012   7.301  10.934   9.885  2.4118 -0.2438  1.2864
  282MOL0     H38013   7.517  10.973   9.782  0.6205 -1.6505 -2.8774
  282MOL0     H38014   7.394  10.975   9.668 -0.3528  2.1803 -1.7437
  282MOL0     H38015   7.369  11.219   9.679 -1.8229 -2.1862  1.2991
  282MOL0     H38016   7.520  11.225   9.774  0.9853 -2.1651  0.2433
  282MOL0     H38017   7.543  11.253   9.512 -1.1259  0.3256 -0.7969
  282MOL0     H38018   7.483  11.088   9.508  0.8622  0.4338 -1.1075
  282MOL0     H38019   7.695  11.035   9.663  0.6926 -0.9165 -1.8742
  282MOL0     H38020   7.724  11.060   9.494  1.1556 -2.6870  1.1660
  282MOL0     H38021   7.877  11.279   9.443  0.7919  2.1508 -0.1225
  282MOL0     H38022   8.060  11.458   9.496 -0.2092 -0.9810  0.8543
  282MOL0     H38023   7.968  11.572   9.604  1.5912  0.3906  0.2884
  282MOL0     H38024   8.145  11.536   9.790 -0.6674 -0.6822  1.0341
  282MOL0     H38025   8.195  11.389   9.696 -0.6971  0.0436  0.7394
  282MOL0     H38026   8.211  11.692   9.639 -0.4663 -1.1737  3.5922
  282MOL0     H38027   8.256  11.576   9.513  2.8925  1.2961 -0.9903
  282MOL0     H38028   8.428  11.492   9.692  0.1328  0.1858  2.6045
  282MOL0     H38029   8.413  11.653   9.755 -0.2117 -1.7904  1.2186
  282MOL0     H38030   8.630  11.604   9.772 -0.1544  0.3712 -0.9766
  282MOL0     H38031   8.871  11.624   9.774  3.3268  2.7841 -1.9631
  282MOL0     H38032   9.272  11.581   9.732 -2.3277  1.3070  0.6119
  282MOL0     H38033   9.501  11.632   9.746 -0.6914 -0.0967 -0.4364
  282MOL0     H38034   9.646  12.077   9.694  1.0334  1.2643  1.0653
  282MOL0     H38035   9.647  12.052   9.867  3.6024 -0.2409  1.7932
  282MOL0     H38036   9.855  11.949   9.666 -0.3090 -1.3991  0.8904
  282MOL0     H38037   9.870  12.096   9.775  0.5137 -0.4588  2.1068
  282MOL0     H38038   9.897  11.986   9.966 -0.2476  2.3445 -1.9829
  282MOL0     H38039   9.837  11.834   9.916  1.3270  0.0305  2.5733
  282MOL0     H38040  10.098  11.966   9.830 -1.0127  1.3217 -0.5521
  282MOL0     H38041  10.043  11.809   9.756 -2.0777 -0.3966  0.7962
  282MOL0     H38042  10.043  11.725  10.008  2.1759 -2.3142 -1.0654
  282MOL0     H38043  10.125  11.883  10.041 -2.5769 -0.5320  1.0826
  282MOL0     H38044  10.220  11.668   9.842 -1.4832  0.0711 -1.0121
  282MOL0     H38045  10.304  11.817   9.887  1.1508 -1.9234 -0.3120
  282MOL0     H38046  10.256  11.606  10.083  2.4190 -3.1157 -1.6713
  282MOL0     H38047  10.337  11.750  10.126  0.0427 -2.4091  1.1790
  282MOL0     H38048  10.414  11.559   9.900  1.6482  0.8989 -0.9787
  282MOL0     H38049  10.501  11.710   9.920  3.1698 -3.8288 -2.6537
  282MOL0     H38050   9.415  12.049   9.768 -2.4565  1.8318 -1.8532
  282MOL0     H38051   9.186  12.003   9.743 -0.6419 -0.1487  3.1699
  282MOL0     H38052   8.851  11.766   9.368  0.0794 -2.0398  0.2903
  282MOL0     H38053   8.612  11.740   9.366 -0.7821 -2.4440 -0.2751
  282MOL0     H38054   6.699  10.964  10.168  1.5863 -0.2558 -1.0645
  282MOL0     H38055   6.437  10.999  10.157 -0.3441 -1.4697 -0.8757
  282MOL0     H38056   6.104  11.047   9.955 -0.4993 -0.1366 -0.0836
  282MOL0     H38057   5.883  11.024   9.968  1.8236 -2.4240  2.4791
  282MOL0     H38058   5.658  11.006  10.050  0.0153 -0.6289 -1.9508
  282MOL0     H38059   5.663  11.087   9.896 -2.7252  0.9686 -0.1179
  282MOL0     H38060   5.465  11.173  10.120  2.0947 -2.8690  0.1027
  282MOL0     H38061   5.427  11.055   9.996 -1.6580  0.3622 -1.0077
  282MOL0     H38062   5.507  11.337   9.926  1.1928 -0.8826 -0.0466
  282MOL0     H38063   5.340  11.293   9.982  0.1033 -2.3430  4.7772
  282MOL0     H38064   5.476  11.145   9.752  0.9610  0.4852  1.6547
  282MOL0     H38065   5.314  11.149   9.800  2.6080 -2.4359 -0.7572
  282MOL0     H38066   5.377  11.502   9.551  2.5692 -0.6800 -0.8807
  282MOL0     H38067   5.835  11.375  10.195  1.4119 -0.4782  1.5767
  282MOL0     H38068   6.007  11.493  10.284 -0.4570  0.7744 -0.6019
  282MOL0     H38069   6.169  11.421  10.302 -1.7235 -3.6664 -0.0238
  282MOL0     H38070   6.123  11.529  10.170 -0.8003  1.4316  0.7944
  283MOL0     O38071   2.844   4.155   1.105  0.0956 -0.3490 -0.8828
  283MOL0     C38072   2.739   4.223   1.135 -0.8128 -0.6024  0.2661
  283MOL0     O38073   2.746   4.353   1.176 -0.2625  0.3123 -0.3991
  283MOL0     C38074   2.872   4.406   1.156 -0.1904  0.7252 -0.8042
  283MOL0     C38075   2.982   4.368   1.235  0.6616 -0.0046 -0.4053
  283MOL0     C38076   3.110   4.415   1.212 -0.5213  0.0066 -0.2054
  283MOL0     C38077   3.133   4.500   1.102  0.3174  0.0704  0.7617
  283MOL0     O38078   3.260   4.532   1.078  0.3264 -0.0696  0.0969
  283MOL0     C38079   3.297   4.664   1.043 -0.5749 -0.1179 -0.2195
  283MOL0     C38080   3.285   4.752   1.170  0.0769 -0.2955 -0.4822
  283MOL0     C38081   3.345   4.887   1.163 -0.7125  0.3139 -0.2749
  283MOL0     C38082   3.329   4.974   1.288  0.4681 -0.3366  0.7261
  283MOL0     C38083   3.437   5.084   1.297 -0.5027  0.9464 -0.0976
  283MOL0     C38084   3.389   5.196   1.387  0.4662  1.0306  0.4624
  283MOL0     C38085   3.511   5.283   1.423 -0.3958  0.6185  0.3850
  283MOL0     C38086   3.487   5.370   1.548  1.0022 -0.4077  0.3826
  283MOL0     N38087   3.572   5.495   1.547  0.0038  0.0607  0.9062
  283MOL0     C38088   3.702   5.518   1.594  0.7355  0.7009  0.0221
  283MOL0     C38089   3.713   5.654   1.612 -0.5103 -0.4099  0.8641
  283MOL0     C38090   3.836   5.732   1.663  0.2358  0.0769 -0.6683
  283MOL0     C38091   3.811   5.752   1.811 -0.4026  0.0090 -0.0167
  283MOL0     C38092   3.900   5.851   1.886 -0.3703  0.0165 -0.2896
  283MOL0     C38093   4.045   5.814   1.894  0.1787  0.2859 -1.0487
  283MOL0     O38094   4.102   5.784   1.768  0.1514  0.5796 -0.3155
  283MOL0     C38095   4.239   5.747   1.769 -1.0091  0.1099  0.4874
  283MOL0     C38096   4.297   5.711   1.648 -0.1067  0.1212  0.3776
  283MOL0     C38097   4.428   5.680   1.639  0.2291 -0.1536 -0.0164
  283MOL0     C38098   4.522   5.684   1.751  1.1633  0.2034 -0.4711
  283MOL0     C38099   4.657   5.639   1.743 -0.9119 -0.2827  0.1082
  283MOL0     O38100   4.727   5.602   1.856  0.2986 -0.1611  0.3764
  283MOL0     C38101   4.861   5.618   1.846 -0.3765 -0.5377  0.6293
  283MOL0     C38102   4.924   5.717   1.926 -0.5379 -0.7101 -0.9790
  283MOL0     C38103   5.059   5.736   1.926 -0.8518 -0.7666 -0.3882
  283MOL0     C38104   5.141   5.668   1.842 -0.2586  0.6635  0.8649
  283MOL0     O38105   5.278   5.697   1.842 -0.3045 -0.5059  0.3558
  283MOL0     C38106   5.377   5.599   1.831  0.1948  0.3189  0.2790
  283MOL0     C38107   5.369   5.491   1.943  0.6297 -0.0882  1.1244
  283MOL0     C38108   5.498   5.454   2.021  0.3185  0.3771 -0.5156
  283MOL0     C38109   5.599   5.396   1.924  0.4034  1.1376  0.4659
  283MOL0     C38110   5.709   5.315   2.001  0.0151 -0.7182  0.0520
  283MOL0     C38111   5.775   5.395   2.111  0.1726  0.5304  0.0192
  283MOL0     C38112   5.895   5.316   2.166  0.7556  0.1962 -0.3997
  283MOL0     C38113   5.948   5.395   2.277 -0.4932  0.1908  0.2274
  283MOL0    Cl38114   6.051   5.520   2.200  0.1342  0.4574  0.0719
  283MOL0     C38115   5.078   5.570   1.765 -0.2964 -0.1240  0.1156
  283MOL0     C38116   4.941   5.543   1.769  0.6454 -0.8419 -0.8388
  283MOL0     O38117   4.706   5.640   1.630 -0.4568 -0.6637  0.0576
  283MOL0     C38118   4.463   5.717   1.873 -0.3101  0.2548  0.0379
  283MOL0     C38119   4.323   5.740   1.878 -0.1602 -0.1243  0.4059
  283MOL0     N38120   3.600   5.708   1.560 -0.5235  0.3815 -0.3178
  283MOL0     N38121   3.518   5.618   1.523 -0.7581  0.5711 -0.5262
  283MOL0     C38122   3.025   4.531   1.021  1.2543 -0.2451 -0.0296
  283MOL0     C38123   2.894   4.486   1.048 -0.2965 -0.2884 -0.3303
  283MOL0     C38124   2.602   4.157   1.140 -0.8800  0.7283 -0.9117
  283MOL0     C38125   2.606   4.014   1.148  0.6733  0.4112 -0.0060
  283MOL0     C38126   2.497   3.935   1.185 -0.4417 -0.6337  0.0062
  283MOL0     C38127   2.380   4.001   1.212  0.3615  0.8359 -0.3223
  283MOL0     O38128   2.262   3.944   1.251  0.4554  0.3049 -0.0705
  283MOL0     C38129   2.254   3.801   1.261  0.9393 -0.4112  0.3576
  283MOL0     C38130   2.109   3.753   1.305 -0.1904  0.8999  0.9296
  283MOL0     C38131   1.994   3.820   1.221  0.8050  0.0736 -0.8053
  283MOL0     C38132   2.016   3.815   1.072  0.0943  0.5731 -0.3855
  283MOL0     C38133   1.906   3.879   1.006 -0.7036  0.0794 -0.3203
  283MOL0     C38134   1.807   3.943   0.961 -0.0656  0.1074 -0.1265
  283MOL0     C38135   2.372   4.137   1.192  0.2375 -0.2812  0.6202
  283MOL0     C38136   2.481   4.223   1.164 -0.0146  0.1471 -0.6883
  283MOL0     C38137   2.459   4.369   1.180 -0.1690 -0.7517  0.3577
  283MOL0     H38138   2.957   4.295   1.312  2.3227 -2.5911 -2.1378
  283MOL0     H38139   3.198   4.379   1.265  1.1865  2.1710 -1.3991
  283MOL0     H38140   3.400   4.663   1.006 -0.6387 -0.0044 -0.4016
  283MOL0     H38141   3.237   4.704   0.960 -3.4689  0.8770  2.1682
  283MOL0     H38142   3.339   4.699   1.249 -0.0289  1.8248  1.1115
  283MOL0     H38143   3.183   4.768   1.204  1.1673  2.6132  1.8863
  283MOL0     H38144   3.294   4.931   1.077 -1.6692 -0.6204 -0.2075
  283MOL0     H38145   3.450   4.874   1.138 -0.9328 -3.2036  0.0898
  283MOL0     H38146   3.229   5.018   1.286  1.2518  1.4987 -0.2106
  283MOL0     H38147   3.341   4.912   1.378  0.3681 -0.9383  0.3277
  283MOL0     H38148   3.534   5.038   1.318  0.9225  2.1775 -3.3458
  283MOL0     H38149   3.458   5.117   1.195  0.4374  0.4979 -0.0616
  283MOL0     H38150   3.312   5.259   1.341 -0.6300 -0.0516  0.7435
  283MOL0     H38151   3.342   5.164   1.481  1.3783  2.2377  1.3569
  283MOL0     H38152   3.533   5.348   1.338  1.1540 -0.1748  0.1370
  283MOL0     H38153   3.587   5.208   1.447 -0.1568  0.1953 -1.5026
  283MOL0     H38154   3.380   5.394   1.554  0.4296 -1.8061 -2.3978
  283MOL0     H38155   3.513   5.306   1.632 -1.2356 -6.7585 -3.0874
  283MOL0     H38156   3.778   5.442   1.612  0.3061 -0.0485 -1.1948
  283MOL0     H38157   3.919   5.665   1.639 -0.3823 -0.8753 -0.1983
  283MOL0     H38158   3.851   5.827   1.610 -0.0727  0.5474  0.0758
  283MOL0     H38159   3.709   5.789   1.830  0.3608  0.7965  3.1620
  283MOL0     H38160   3.826   5.655   1.859 -0.0262 -0.7580 -1.6385
  283MOL0     H38161   3.851   5.862   1.983 -1.6878 -0.2823 -0.8818
  283MOL0     H38162   3.874   5.943   1.833 -1.2545 -1.6052 -2.9010
  283MOL0     H38163   4.057   5.726   1.958 -3.0000  0.3158 -0.2794
  283MOL0     H38164   4.090   5.907   1.930 -0.8897  0.4033  0.0095
  283MOL0     H38165   4.235   5.708   1.559  3.7697 -1.9565 -2.5546
  283MOL0     H38166   4.469   5.648   1.544 -0.2352  0.1407 -0.3196
  283MOL0     H38167   4.870   5.794   1.982 -1.5737  0.4372 -3.3969
  283MOL0     H38168   5.094   5.826   1.976  0.1152 -0.3713 -1.7159
  283MOL0     H38169   5.379   5.548   1.735  2.3742 -1.2816  1.0865
  283MOL0     H38170   5.477   5.643   1.839 -0.1551  0.9530  1.4326
  283MOL0     H38171   5.302   5.541   2.013 -0.9517  2.1458 -1.7343
  283MOL0     H38172   5.311   5.406   1.905 -0.9801  0.0732  3.0868
  283MOL0     H38173   5.540   5.546   2.062  0.9938  0.5071 -1.4693
  283MOL0     H38174   5.481   5.388   2.107  1.5487 -0.5562 -0.9651
  283MOL0     H38175   5.639   5.473   1.857  1.9015  0.3211  0.3699
  283MOL0     H38176   5.545   5.322   1.864  0.3943  1.0643  0.5649
  283MOL0     H38177   5.776   5.275   1.924 -0.2718  0.9195 -1.1155
  283MOL0     H38178   5.656   5.239   2.058  1.9796 -0.6577  2.0968
  283MOL0     H38179   5.817   5.483   2.061 -0.4270  0.8580  0.0876
  283MOL0     H38180   5.701   5.419   2.187  0.1430  0.2976  0.0621
  283MOL0     H38181   5.977   5.291   2.097  1.7920 -2.3991  1.5978
  283MOL0     H38182   5.853   5.221   2.199 -1.5585  1.3397  0.1614
  283MOL0     H38183   5.872   5.438   2.343 -0.5927 -1.4287  1.2327
  283MOL0     H38184   6.013   5.343   2.348  1.3927  3.5928  1.2339
  283MOL0     H38185   5.136   5.514   1.692  0.2894  0.0248  0.4590
  283MOL0     H38186   4.897   5.463   1.709  1.2327 -1.7426 -0.0909
  283MOL0     H38187   4.520   5.741   1.962 -0.5938 -2.8128  1.1951
  283MOL0     H38188   4.289   5.768   1.977 -1.5254  0.3676 -0.1808
  283MOL0     H38189   3.032   4.610   0.946 -1.6600  0.1484 -0.0111
  283MOL0     H38190   2.817   4.518   0.978  3.0824  0.1980 -4.1767
  283MOL0     H38191   2.690   3.953   1.115 -1.1925 -1.7019 -1.1786
  283MOL0     H38192   2.500   3.826   1.184 -0.0592 -0.6645  1.4522
  283MOL0     H38193   2.330   3.762   1.329  1.2279 -0.6779 -0.1092
  283MOL0     H38194   2.274   3.768   1.158 -0.1181  0.2839 -0.0910
  283MOL0     H38195   2.103   3.765   1.413 -0.8186  2.1385  0.7815
  283MOL0     H38196   2.095   3.647   1.284 -0.4385  0.6600  2.2375
  283MOL0     H38197   1.968   3.921   1.252  1.6048  0.2362 -0.6191
  283MOL0     H38198   1.904   3.761   1.242  0.2640  1.3411  0.5374
  283MOL0     H38199   2.110   3.864   1.045  0.2030  0.1557 -0.7707
  283MOL0     H38200   2.027   3.713   1.034  3.4413  1.0483 -0.9997
  283MOL0     H38201   1.726   3.995   0.913  0.2647 -1.6650 -2.8149
  283MOL0     H38202   2.273   4.176   1.209 -0.4264 -2.7427  3.2197
  283MOL0     H38203   2.507   4.418   1.095  0.1093 -0.9838  0.3783
  283MOL0     H38204   2.353   4.387   1.161 -0.8354 -2.0884  2.4313
  283MOL0     H38205   2.501   4.416   1.270 -0.6490 -2.9576  1.8010
  284MOL0     O38206   4.956   5.580   6.079  0.1654 -0.3359  0.3612
  284MOL0     C38207   4.905   5.466   6.096 -0.4495 -0.1024 -0.2231
  284MOL0     O38208   4.968   5.344   6.100 -0.0513 -0.9569  0.3468
  284MOL0     C38209   5.104   5.330   6.114 -0.6764 -0.3694  0.0535
  284MOL0     C38210   5.148   5.230   6.196  0.4509  0.6186  0.1690
  284MOL0     C38211   5.290   5.212   6.226  1.0136 -0.6223  0.2920
  284MOL0     C38212   5.377   5.304   6.168 -0.6797 -0.1581  0.0285
  284MOL0     O38213   5.515   5.276   6.182 -0.4946 -0.1395 -0.1574
  284MOL0     C38214   5.603   5.312   6.072  0.3660 -0.7508  0.7540
  284MOL0     C38215   5.731   5.236   6.108  0.8173 -0.5478 -0.7875
  284MOL0     C38216   5.836   5.259   5.996 -0.1463  0.6252 -0.9278
  284MOL0     C38217   5.965   5.189   6.039  0.1982 -0.9082 -0.8693
  284MOL0     C38218   6.032   5.118   5.927 -0.7165  0.1861  0.2844
  284MOL0     C38219   6.168   5.055   5.971 -0.7261  0.4766  0.1600
  284MOL0     C38220   6.279   5.162   5.992 -0.1846  0.2313  0.3887
  284MOL0     C38221   6.411   5.108   5.976  0.1450 -0.1955 -0.5555
  284MOL0     N38222   6.448   5.021   6.089  0.0711  0.1838  1.5220
  284MOL0     C38223   6.455   5.059   6.223  0.6262  0.3374  0.4026
  284MOL0     C38224   6.498   4.942   6.282  0.0796 -0.3370 -0.2691
  284MOL0     C38225   6.531   4.930   6.427 -0.5101  0.0048  0.0267
  284MOL0     C38226   6.442   5.000   6.527  0.5495 -0.1698 -0.1615
  284MOL0     C38227   6.480   4.965   6.672 -0.1242 -0.4040 -0.6004
  284MOL0     C38228   6.401   5.046   6.778 -0.4623  0.6971 -0.5026
  284MOL0     O38229   6.419   4.999   6.917 -0.2538 -0.5555 -0.2779
  284MOL0     C38230   6.551   5.005   6.968  0.5328 -0.2237 -0.6431
  284MOL0     C38231   6.570   4.926   7.084  0.2051 -0.5790 -0.0553
  284MOL0     C38232   6.697   4.916   7.140  0.2297  0.5611  0.3996
  284MOL0     C38233   6.800   4.987   7.095  0.3090  0.1323 -0.2711
  284MOL0     C38234   6.924   4.991   7.170 -0.5022  0.0234 -0.2281
  284MOL0     O38235   7.028   5.036   7.091  0.4405 -0.0862 -0.6178
  284MOL0     C38236   7.139   5.042   7.166 -0.2264  0.2962 -1.1326
  284MOL0     C38237   7.234   4.940   7.156  0.0781 -0.5187 -0.1456
  284MOL0     C38238   7.352   4.944   7.213  0.6236 -0.9523  0.7783
  284MOL0     C38239   7.402   5.057   7.277 -0.3176  0.7505 -0.4732
  284MOL0     O38240   7.532   5.045   7.333  0.4863  0.4026  0.2483
  284MOL0     C38241   7.566   5.142   7.427  0.8872 -0.7200 -0.1007
  284MOL0     C38242   7.712   5.136   7.460  0.4016  0.0532  0.1413
  284MOL0     C38243   7.768   5.245   7.555 -0.0994  0.4670 -1.0450
  284MOL0     C38244   7.784   5.178   7.690 -0.6824 -0.6160  0.4585
  284MOL0     C38245   7.823   5.277   7.797  0.4440  0.0021  0.4176
  284MOL0     C38246   7.837   5.215   7.938  0.1985  0.3300  0.6809
  284MOL0     C38247   7.945   5.117   7.956  0.1249  0.5767 -0.1327
  284MOL0     C38248   8.092   5.168   7.931 -0.0942  0.1504 -0.0746
  284MOL0    Cl38249   8.214   5.048   7.971 -0.0217  0.1669  0.8937
  284MOL0     C38250   7.314   5.173   7.283 -0.9847 -0.2201  0.7279
  284MOL0     C38251   7.183   5.162   7.226 -0.2450  0.0884 -0.2349
  284MOL0     O38252   6.932   4.951   7.287  0.3855  0.2103  0.1168
  284MOL0     C38253   6.786   5.064   6.980  0.5126 -0.8086  0.7918
  284MOL0     C38254   6.662   5.079   6.917 -0.3506 -0.5826 -0.5137
  284MOL0     N38255   6.506   4.840   6.188  0.3514  0.5436  0.3278
  284MOL0     N38256   6.474   4.886   6.076 -0.0776 -0.0376 -0.3085
  284MOL0     C38257   5.332   5.406   6.087 -0.1839 -0.8588 -0.1825
  284MOL0     C38258   5.194   5.423   6.062 -0.0975  1.0840  0.6170
  284MOL0     C38259   4.760   5.451   6.075 -0.2977 -1.0662  0.6325
  284MOL0     C38260   4.708   5.366   5.976  0.6699  0.4909 -0.6751
  284MOL0     C38261   4.566   5.362   5.951  0.0683  0.3026 -0.8321
  284MOL0     C38262   4.475   5.445   6.019 -0.3690 -0.3215  0.5449
  284MOL0     O38263   4.335   5.459   5.995  0.1870  0.4672 -0.0683
  284MOL0     C38264   4.275   5.371   5.906 -0.1492 -0.4898  0.3675
  284MOL0     C38265   4.133   5.416   5.903  0.6907 -0.4565 -0.4201
  284MOL0     C38266   4.059   5.396   6.036  0.8666  0.4041 -0.5747
  284MOL0     C38267   3.998   5.260   6.069 -0.4942 -0.4224  1.3509
  284MOL0     C38268   3.908   5.282   6.180  0.3046  0.0371 -0.5845
  284MOL0     C38269   3.853   5.286   6.290 -0.2644 -1.2782  0.2869
  284MOL0     C38270   4.531   5.539   6.104  1.0765  0.4742  0.3304
  284MOL0     C38271   4.671   5.549   6.128  0.4046  0.1919 -0.4669
  284MOL0     C38272   4.714   5.646   6.238  0.1499  1.0951 -0.3973
  284MOL0     H38273   5.074   5.160   6.233  0.8287  0.2505  0.2355
  284MOL0     H38274   5.315   5.131   6.295 -3.1780 -1.9442  0.5122
  284MOL0     H38275   5.558   5.277   5.978 -1.2772  1.8083  0.5040
  284MOL0     H38276   5.627   5.419   6.066  0.1431 -0.7682 -0.9071
  284MOL0     H38277   5.711   5.129   6.101  0.5227 -0.5384 -0.1732
  284MOL0     H38278   5.756   5.258   6.212  1.6359  1.3813 -1.3441
  284MOL0     H38279   5.857   5.360   5.959  1.2854  0.7795  0.2213
  284MOL0     H38280   5.790   5.204   5.913  1.6936 -1.3876 -0.6996
  284MOL0     H38281   6.033   5.261   6.086  0.6274 -1.6789 -0.2910
  284MOL0     H38282   5.948   5.109   6.112  0.4804 -1.7943 -1.7502
  284MOL0     H38283   5.976   5.031   5.893  0.1990 -1.2635  2.2709
  284MOL0     H38284   6.046   5.177   5.836 -1.6449  0.1801  0.1317
  284MOL0     H38285   6.156   5.011   6.070 -1.2095 -0.5001 -0.3260
  284MOL0     H38286   6.187   4.978   5.895 -0.1711  1.1961 -0.4515
  284MOL0     H38287   6.260   5.205   6.091 -4.8317  0.5512 -0.3970
  284MOL0     H38288   6.280   5.239   5.915  0.1654  0.0892  0.2489
  284MOL0     H38289   6.421   5.051   5.883  0.0677 -1.8670  0.4182
  284MOL0     H38290   6.480   5.193   5.969 -1.2774  1.2499  1.8646
  284MOL0     H38291   6.461   5.154   6.275 -0.8094 -0.0599  1.3585
  284MOL0     H38292   6.525   4.824   6.453 -2.4674  0.0236 -0.1871
  284MOL0     H38293   6.632   4.967   6.440 -0.2417 -0.2337 -1.2745
  284MOL0     H38294   6.454   5.106   6.505  1.6285  0.1092  1.5211
  284MOL0     H38295   6.339   4.973   6.503 -0.2527  2.3013  0.2474
  284MOL0     H38296   6.589   4.977   6.682 -0.1388  0.4798 -1.3432
  284MOL0     H38297   6.456   4.860   6.693 -0.0282 -0.1808  0.6653
  284MOL0     H38298   6.297   5.053   6.748 -0.1920  2.0580 -1.2057
  284MOL0     H38299   6.441   5.147   6.763 -0.7290  0.9356  0.3536
  284MOL0     H38300   6.487   4.869   7.122 -1.0784 -0.3729 -2.3873
  284MOL0     H38301   6.711   4.838   7.215 -1.6971 -2.5940 -2.2367
  284MOL0     H38302   7.195   4.859   7.095  0.7860 -1.2008  0.2847
  284MOL0     H38303   7.416   4.856   7.213  2.6535  0.3902 -1.7719
  284MOL0     H38304   7.558   5.244   7.388 -0.6722  0.4371  2.8881
  284MOL0     H38305   7.506   5.126   7.517 -0.5527 -3.4257 -1.4198
  284MOL0     H38306   7.741   5.038   7.498 -0.9212 -0.6553 -0.5850
  284MOL0     H38307   7.767   5.142   7.366 -0.1398  0.8784 -0.1386
  284MOL0     H38308   7.872   5.256   7.522  1.3199 -2.0249  2.0535
  284MOL0     H38309   7.720   5.343   7.561 -1.7135 -0.3009 -0.8949
  284MOL0     H38310   7.852   5.092   7.689 -2.9508 -2.4959  0.2896
  284MOL0     H38311   7.690   5.130   7.720  0.5550 -3.0348  0.7845
  284MOL0     H38312   7.752   5.361   7.798 -0.8388 -1.0382 -0.4378
  284MOL0     H38313   7.921   5.316   7.768  0.1903  0.1127 -0.3038
  284MOL0     H38314   7.853   5.291   8.015  0.0998  1.9748 -0.8492
  284MOL0     H38315   7.743   5.169   7.971 -0.5686  0.7095 -0.8736
  284MOL0     H38316   7.935   5.032   7.888 -0.1860 -0.3503  1.0346
  284MOL0     H38317   7.925   5.077   8.056 -1.4429  0.8614 -0.3058
  284MOL0     H38318   8.113   5.207   7.831  0.2097  0.6530  0.1770
  284MOL0     H38319   8.108   5.248   8.004  2.1371 -1.5390  1.4015
  284MOL0     H38320   7.342   5.266   7.332  1.2406 -1.1971  1.4499
  284MOL0     H38321   7.112   5.244   7.229  0.8323  1.0135  0.8235
  284MOL0     H38322   6.873   5.115   6.940  0.4656  0.6908  2.4548
  284MOL0     H38323   6.649   5.146   6.833  0.1965 -0.3966 -0.4543
  284MOL0     H38324   5.400   5.485   6.055 -4.0551  3.1334  0.6133
  284MOL0     H38325   5.163   5.505   5.998 -0.2467  0.6610  0.1348
  284MOL0     H38326   4.769   5.304   5.912  0.5319  0.2896 -0.6143
  284MOL0     H38327   4.534   5.291   5.876 -1.9040  1.8265 -1.5016
  284MOL0     H38328   4.298   5.266   5.924 -2.3854 -1.2279 -0.6741
  284MOL0     H38329   4.305   5.382   5.801  1.3273 -0.7409  0.7419
  284MOL0     H38330   4.081   5.348   5.835  1.9777 -0.4179 -1.4633
  284MOL0     H38331   4.124   5.517   5.862 -0.9265 -1.8581 -3.8909
  284MOL0     H38332   3.980   5.471   6.041  0.4628  0.1017 -2.0316
  284MOL0     H38333   4.133   5.409   6.115  3.2535 -3.2923 -1.9166
  284MOL0     H38334   3.940   5.216   5.986 -0.9669  2.8229 -0.1809
  284MOL0     H38335   4.068   5.182   6.098 -2.5748 -3.1661 -0.3694
  284MOL0     H38336   3.803   5.285   6.385 -1.7921  0.6080 -0.4397
  284MOL0     H38337   4.467   5.614   6.148  0.5676  0.3990 -0.2755
  284MOL0     H38338   4.768   5.584   6.311 -0.7642  0.1064 -0.5523
  284MOL0     H38339   4.775   5.727   6.196  2.9263  0.1482  1.4951
  284MOL0     H38340   4.633   5.689   6.297 -0.0879 -1.2528  1.1326
  285MOL0     O38341   5.332  10.457   8.612 -0.6232  0.2353  0.4660
  285MOL0     C38342   5.239  10.487   8.685  0.7899 -1.0683 -0.6791
  285MOL0     O38343   5.246  10.534   8.816 -0.8661  0.4674  0.4406
  285MOL0     C38344   5.358  10.498   8.886 -0.0426 -0.1227  0.5402
  285MOL0     C38345   5.406  10.368   8.896  0.9529 -0.2920 -0.2269
  285MOL0     C38346   5.541  10.341   8.929  0.3690 -0.6340 -0.0976
  285MOL0     C38347   5.630  10.440   8.968 -0.2630 -0.3006  0.6194
  285MOL0     O38348   5.762  10.419   9.009 -0.0976  1.2161  0.0238
  285MOL0     C38349   5.861  10.518   8.977 -0.6287 -0.0030  0.2030
  285MOL0     C38350   5.994  10.451   8.942  0.5059 -0.2744 -0.0918
  285MOL0     C38351   6.087  10.546   8.878  0.1846 -0.6599  0.3794
  285MOL0     C38352   6.208  10.472   8.814  0.1662  0.6230 -0.6212
  285MOL0     C38353   6.301  10.574   8.759  0.0049  0.0361  0.0082
  285MOL0     C38354   6.433  10.516   8.718 -1.1558 -0.2120  0.0593
  285MOL0     C38355   6.518  10.624   8.655 -0.4079 -0.6361 -0.1724
  285MOL0     C38356   6.648  10.573   8.632 -0.2854 -0.1461 -0.4692
  285MOL0     N38357   6.721  10.647   8.518  0.4006 -0.4832  0.2850
  285MOL0     C38358   6.769  10.776   8.507 -0.0011  0.2397  0.0617
  285MOL0     C38359   6.807  10.797   8.376  0.4464 -0.3354 -0.4005
  285MOL0     C38360   6.885  10.907   8.302  0.5923 -0.4395  0.2736
  285MOL0     C38361   7.013  10.969   8.365 -0.3233  0.6576 -1.1640
  285MOL0     C38362   7.102  10.855   8.414 -0.7998 -0.6259 -0.0046
  285MOL0     C38363   7.232  10.914   8.475  0.2802 -0.3832  0.2110
  285MOL0     O38364   7.329  10.906   8.371  0.4722  0.3486  1.0343
  285MOL0     C38365   7.457  10.934   8.408  0.5964 -0.1562 -0.4650
  285MOL0     C38366   7.502  10.951   8.538 -0.3831  0.1609 -0.3822
  285MOL0     C38367   7.637  10.978   8.562  0.2432  0.5108 -0.0370
  285MOL0     C38368   7.726  11.006   8.456 -0.6779  1.1858 -0.0253
  285MOL0     C38369   7.868  11.047   8.478 -0.3758  0.7020  0.7478
  285MOL0     O38370   7.941  11.063   8.355  0.3680  0.7719  0.3984
  285MOL0     C38371   8.061  11.125   8.369 -0.5824 -0.6215 -0.1160
  285MOL0     C38372   8.172  11.041   8.363  0.5042  0.0421 -1.1854
  285MOL0     C38373   8.301  11.093   8.366 -0.7882  0.3045  0.5393
  285MOL0     C38374   8.320  11.234   8.367  0.3623  0.3578  0.7480
  285MOL0     O38375   8.444  11.275   8.379 -0.2599  0.1688 -0.0131
  285MOL0     C38376   8.476  11.397   8.305  0.4742  0.0883 -0.4217
  285MOL0     C38377   8.633  11.401   8.284 -0.1718 -0.4820  0.7333
  285MOL0     C38378   8.671  11.534   8.220 -0.0643 -0.6762 -0.5326
  285MOL0     C38379   8.816  11.539   8.189  0.4370 -0.1875 -0.1334
  285MOL0     C38380   8.866  11.650   8.095 -0.2022  0.0927 -0.0420
  285MOL0     C38381   9.002  11.711   8.148  0.2238 -0.0564 -0.1768
  285MOL0     C38382   9.071  11.789   8.040 -0.8175 -0.1756 -0.5850
  285MOL0     C38383   9.162  11.892   8.112 -0.0822 -0.0944 -0.0284
  285MOL0    Cl38384   9.269  11.813   8.234  0.1230 -0.3256  0.0271
  285MOL0     C38385   8.210  11.319   8.374  0.6037 -0.3773  0.2935
  285MOL0     C38386   8.076  11.270   8.372  0.4477 -0.2706  0.7752
  285MOL0     O38387   7.907  11.070   8.587 -0.0412 -0.2648  0.7303
  285MOL0     C38388   7.681  10.994   8.324  0.0055  0.1970 -0.2178
  285MOL0     C38389   7.546  10.952   8.300 -0.0429 -0.2520 -0.9920
  285MOL0     N38390   6.772  10.682   8.311  0.2129  0.3769  0.4370
  285MOL0     N38391   6.721  10.595   8.390  0.2765  1.0457 -0.7743
  285MOL0     C38392   5.573  10.569   8.968  0.1910  0.4024  0.3610
  285MOL0     C38393   5.440  10.598   8.927 -0.6149 -0.2823  0.0562
  285MOL0     C38394   5.094  10.489   8.626  1.5291  0.1603 -0.1526
  285MOL0     C38395   4.991  10.581   8.659 -0.9806 -0.3667 -0.6629
  285MOL0     C38396   4.859  10.579   8.619  0.4838  0.4065 -0.6779
  285MOL0     C38397   4.816  10.466   8.543 -0.3104 -0.6305  0.3876
  285MOL0     O38398   4.694  10.436   8.506  0.4505  0.2894  0.3074
  285MOL0     C38399   4.588  10.509   8.566 -0.8418  0.1565 -0.1484
  285MOL0     C38400   4.457  10.445   8.572 -0.2118  0.1600 -0.3536
  285MOL0     C38401   4.374  10.433   8.444  0.0659  0.3008  0.4780
  285MOL0     C38402   4.251  10.342   8.455 -0.4715 -0.2498  0.3593
  285MOL0     C38403   4.127  10.415   8.482 -0.2777 -0.1373 -0.4082
  285MOL0     C38404   4.021  10.474   8.503  0.2675  0.3696  1.0862
  285MOL0     C38405   4.911  10.364   8.504  0.3783  0.3947 -0.2439
  285MOL0     C38406   5.048  10.380   8.542  0.1645 -0.6369  0.2199
  285MOL0     C38407   5.135  10.272   8.496 -0.6528 -0.1789 -0.6658
  285MOL0     H38408   5.342  10.295   8.847 -0.2350  1.8997 -2.1297
  285MOL0     H38409   5.577  10.239   8.935  0.8393 -0.5824 -1.6553
  285MOL0     H38410   5.822  10.580   8.896 -0.2364  0.7798  0.6042
  285MOL0     H38411   5.888  10.586   9.059  4.0438 -2.9129  1.4621
  285MOL0     H38412   5.979  10.366   8.874  0.6518 -0.2438 -0.1634
  285MOL0     H38413   6.041  10.418   9.035 -0.1633 -1.0382 -0.0114
  285MOL0     H38414   6.123  10.623   8.947  0.5691 -2.0922  1.8336
  285MOL0     H38415   6.035  10.599   8.798  2.2276  2.3283  0.8545
  285MOL0     H38416   6.254  10.414   8.894  0.3269  2.3329  0.5788
  285MOL0     H38417   6.181  10.395   8.740 -4.9332  0.3153  1.1806
  285MOL0     H38418   6.254  10.611   8.667 -0.1674 -0.4859 -0.1213
  285MOL0     H38419   6.316  10.657   8.828 -1.3381  0.1109  0.2347
  285MOL0     H38420   6.485  10.480   8.807  1.8011 -1.6738 -2.0676
  285MOL0     H38421   6.432  10.434   8.645  2.5153 -0.1949 -0.1779
  285MOL0     H38422   6.520  10.712   8.721  1.0047 -0.2662 -0.6692
  285MOL0     H38423   6.466  10.648   8.562 -1.0796  2.8636  0.9315
  285MOL0     H38424   6.713  10.582   8.719  0.8847 -0.1334 -1.3064
  285MOL0     H38425   6.642  10.467   8.607 -1.1428 -0.2071 -0.0186
  285MOL0     H38426   6.791  10.847   8.586  2.1365  0.0048 -0.2560
  285MOL0     H38427   6.909  10.870   8.202  0.7119  1.3517 -0.3943
  285MOL0     H38428   6.819  10.989   8.274 -0.2057 -1.5540 -1.3393
  285MOL0     H38429   7.065  11.036   8.296  2.2546  0.1288  0.1439
  285MOL0     H38430   6.998  11.028   8.456  2.1261 -2.0253  1.1833
  285MOL0     H38431   7.134  10.789   8.333  2.1685  1.5524 -0.7896
  285MOL0     H38432   7.049  10.799   8.492  0.5029 -1.1043  0.5492
  285MOL0     H38433   7.260  10.859   8.565 -0.3129 -0.0819  0.5863
  285MOL0     H38434   7.208  11.017   8.503 -0.5751 -1.2319  2.9877
  285MOL0     H38435   7.449  10.938   8.632  2.4795  1.1994  1.4790
  285MOL0     H38436   7.669  10.991   8.665  0.1278 -2.0319  0.3770
  285MOL0     H38437   8.150  10.935   8.356 -3.6796  0.6806 -0.1176
  285MOL0     H38438   8.391  11.035   8.385  0.6423  3.0080  2.6234
  285MOL0     H38439   8.413  11.398   8.215  0.2895 -0.9394 -0.3208
  285MOL0     H38440   8.445  11.478   8.371 -0.8860 -0.9309  0.2457
  285MOL0     H38441   8.694  11.388   8.373  2.8581  3.3241 -0.5151
  285MOL0     H38442   8.653  11.331   8.202 -4.6473 -0.4443 -0.6381
  285MOL0     H38443   8.618  11.543   8.125 -0.6988 -0.8695 -0.1979
  285MOL0     H38444   8.650  11.619   8.286  1.9427  0.2808 -1.0366
  285MOL0     H38445   8.840  11.440   8.149  2.3454  1.1924 -2.6663
  285MOL0     H38446   8.857  11.564   8.287  2.2384  1.3329 -1.2235
  285MOL0     H38447   8.796  11.734   8.099  0.8625  0.9723  1.2364
  285MOL0     H38448   8.870  11.616   7.992  0.6070 -0.3107  0.1102
  285MOL0     H38449   8.983  11.772   8.237  0.2205  0.7781 -0.7330
  285MOL0     H38450   9.069  11.628   8.173  0.3531  0.1452  0.1437
  285MOL0     H38451   8.992  11.844   7.987 -0.3338  0.3930 -0.7264
  285MOL0     H38452   9.130  11.732   7.968  2.1545  1.3145  0.5008
  285MOL0     H38453   9.228  11.935   8.036 -0.2825 -1.8355 -1.2722
  285MOL0     H38454   9.100  11.968   8.158  1.4619  1.6769 -0.7538
  285MOL0     H38455   8.221  11.426   8.392 -0.3117 -0.1153 -0.6093
  285MOL0     H38456   7.995  11.342   8.375  1.1227  0.4932  1.5785
  285MOL0     H38457   7.749  10.988   8.240 -0.4530  0.4006 -0.6098
  285MOL0     H38458   7.501  10.940   8.202 -1.0819 -0.5441 -0.4962
  285MOL0     H38459   5.623  10.657   9.007 -3.1805  2.4475  0.4651
  285MOL0     H38460   5.408  10.702   8.927 -1.2042 -0.4636  0.1375
  285MOL0     H38461   5.025  10.674   8.703 -1.9201  1.1653 -2.9949
  285MOL0     H38462   4.796  10.664   8.644  1.2939  0.7135  0.4291
  285MOL0     H38463   4.596  10.612   8.529  0.3620  0.4496  0.8507
  285MOL0     H38464   4.611  10.525   8.672 -0.9508  2.4041 -0.4088
  285MOL0     H38465   4.396  10.503   8.643  0.6802  0.7407 -0.0421
  285MOL0     H38466   4.472  10.349   8.621  1.4620  1.4340  1.8182
  285MOL0     H38467   4.426  10.395   8.356 -3.0471 -1.8303 -0.6423
  285MOL0     H38468   4.344  10.535   8.418  1.9180  0.5435 -0.9471
  285MOL0     H38469   4.235  10.283   8.365  1.0438 -1.6098  0.9254
  285MOL0     H38470   4.256  10.267   8.535 -0.6557  1.0725  1.6724
  285MOL0     H38471   3.927  10.525   8.514 -0.2986 -0.3035 -0.4575
  285MOL0     H38472   4.884  10.278   8.444 -2.6191  1.2361 -0.2426
  285MOL0     H38473   5.079  10.179   8.503 -0.5740 -0.2995 -1.5070
  285MOL0     H38474   5.166  10.291   8.392  1.6148  0.4039  0.0567
  285MOL0     H38475   5.226  10.263   8.557  1.2192  0.6237 -3.1432
  286MOL0     O38476   0.964   4.504   0.396 -0.2748 -0.5438 -0.2118
  286MOL0     C38477   0.871   4.445   0.454 -0.3603  0.0649 -0.9528
  286MOL0     O38478   0.882   4.321   0.516 -0.2407 -0.2723  0.2876
  286MOL0     C38479   1.004   4.273   0.541 -0.1074  0.3138  0.7506
  286MOL0     C38480   1.049   4.271   0.673  0.2910  0.3520  0.2539
  286MOL0     C38481   1.186   4.242   0.702  0.4463  0.0021  0.0859
  286MOL0     C38482   1.276   4.198   0.607 -0.2948  0.6040  0.2443
  286MOL0     O38483   1.393   4.154   0.651 -0.2543 -0.2413  0.9018
  286MOL0     C38484   1.435   4.029   0.589  0.4579  0.3207 -0.2127
  286MOL0     C38485   1.585   3.998   0.618 -1.3192 -0.4349  1.0696
  286MOL0     C38486   1.677   4.093   0.534  0.1447  0.3245  0.0267
  286MOL0     C38487   1.795   4.012   0.487  0.4306  0.1180 -0.1201
  286MOL0     C38488   1.901   4.100   0.426 -0.5714 -0.2104  0.6466
  286MOL0     C38489   2.015   3.996   0.394  0.8301  0.1272 -0.1288
  286MOL0     C38490   2.147   4.075   0.375 -0.3311  0.6294  0.2164
  286MOL0     C38491   2.244   3.997   0.283 -0.2184  0.3609 -0.0986
  286MOL0     N38492   2.385   4.037   0.282  0.3392  0.1145 -0.1035
  286MOL0     C38493   2.447   4.131   0.362  0.4956  0.1504 -0.2334
  286MOL0     C38494   2.574   4.137   0.318 -0.0369 -1.0660 -0.5926
  286MOL0     C38495   2.682   4.234   0.376  0.0659  0.1044  0.6177
  286MOL0     C38496   2.818   4.216   0.320  0.3300 -0.3279  0.3855
  286MOL0     C38497   2.883   4.090   0.383  0.2221 -0.2292 -0.3584
  286MOL0     C38498   3.016   4.060   0.316  0.2225 -0.3916 -0.4177
  286MOL0     O38499   3.054   3.933   0.366 -0.8902  0.5240 -0.2164
  286MOL0     C38500   3.174   3.874   0.319  0.7013  0.0257  0.4949
  286MOL0     C38501   3.274   3.937   0.257 -0.4662 -0.0911  0.1852
  286MOL0     C38502   3.385   3.863   0.204  0.5536 -1.1821 -0.6242
  286MOL0     C38503   3.407   3.727   0.230  0.1646  0.1822  0.1640
  286MOL0     C38504   3.536   3.671   0.194 -0.3899 -0.8655 -0.2101
  286MOL0     O38505   3.616   3.728   0.098 -0.3033  0.4900  0.0022
  286MOL0     C38506   3.751   3.703   0.093  0.0095 -0.3590 -0.1425
  286MOL0     C38507   3.804   3.590   0.047  0.5116  0.1002 -0.9283
  286MOL0     C38508   3.941   3.560   0.066  0.0020 -1.0573  0.3871
  286MOL0     C38509   4.031   3.660   0.115  0.5637 -0.4900  0.7913
  286MOL0     O38510   4.157   3.632   0.118  0.5426  0.4730  0.4902
  286MOL0     C38511   4.238   3.682   0.223 -0.3972 -0.0761  0.6122
  286MOL0     C38512   4.356   3.590   0.200 -0.1725  0.3267 -0.5011
  286MOL0     C38513   4.476   3.656   0.271 -0.4804  0.2912 -1.2922
  286MOL0     C38514   4.551   3.765   0.186 -0.6476 -0.5874 -0.4669
  286MOL0     C38515   4.646   3.705   0.080 -0.0887 -0.3986 -0.4879
  286MOL0     C38516   4.717   3.802  -0.013  0.3228  0.8080  0.4013
  286MOL0     C38517   4.804   3.704  -0.103  0.1676 -0.4087 -0.6806
  286MOL0     C38518   4.870   3.780  -0.219  0.1609  0.1972  0.5456
  286MOL0    Cl38519   4.735   3.858  -0.302  0.2478 -0.6540 -0.1595
  286MOL0     C38520   3.973   3.785   0.150 -0.1998  0.7740 -0.3159
  286MOL0     C38521   3.836   3.802   0.145 -0.0304 -0.1959  0.5793
  286MOL0     O38522   3.573   3.588   0.271  0.7027 -0.3502 -0.2705
  286MOL0     C38523   3.314   3.672   0.313  0.1382 -0.5228  0.5863
  286MOL0     C38524   3.194   3.736   0.347  0.4370  0.1140  0.1996
  286MOL0     N38525   2.583   4.070   0.199 -0.3124 -0.4877  0.2930
  286MOL0     N38526   2.477   3.998   0.187  0.3398 -0.1425 -0.0001
  286MOL0     C38527   1.236   4.203   0.476  0.2058  0.1651  0.8307
  286MOL0     C38528   1.099   4.236   0.442  0.5606  0.1114  0.3256
  286MOL0     C38529   0.741   4.517   0.445  0.2316 -0.3583  0.7581
  286MOL0     C38530   0.713   4.596   0.333  0.5894  0.4058 -0.0348
  286MOL0     C38531   0.592   4.669   0.320  0.4846 -0.5024  0.0857
  286MOL0     C38532   0.504   4.668   0.429  0.4471 -0.2241 -0.0318
  286MOL0     O38533   0.385   4.737   0.432  0.3797 -0.7225  0.4778
  286MOL0     C38534   0.346   4.817   0.314 -0.3964 -0.0579  0.0159
  286MOL0     C38535   0.198   4.871   0.328 -0.6528 -0.1569 -0.4834
  286MOL0     C38536   0.162   4.962   0.208 -0.6786  0.4643 -0.2927
  286MOL0     C38537   0.069   5.070   0.248  0.1575 -0.0905  0.3526
  286MOL0     C38538  -0.066   5.021   0.270  0.4571 -0.0025  0.0284
  286MOL0     C38539  -0.177   4.976   0.284 -0.4919 -0.1828 -0.6510
  286MOL0     C38540   0.535   4.599   0.541 -0.5593 -0.5340 -0.6207
  286MOL0     C38541   0.653   4.526   0.551  0.3617  0.7531  0.1582
  286MOL0     C38542   0.680   4.469   0.689  0.3142  0.2984 -0.4450
  286MOL0     H38543   0.979   4.279   0.756 -0.3604  1.4923 -0.3718
  286MOL0     H38544   1.216   4.240   0.807  0.1511 -1.0560  0.1603
  286MOL0     H38545   1.376   3.956   0.645  2.0372  0.8764  2.3206
  286MOL0     H38546   1.406   4.015   0.484 -0.4331  0.2851  0.0320
  286MOL0     H38547   1.602   3.891   0.604  2.1038  0.0987  0.2180
  286MOL0     H38548   1.608   4.017   0.724 -1.3553  0.8444  0.8710
  286MOL0     H38549   1.701   4.175   0.601  0.6036  1.4731 -1.5009
  286MOL0     H38550   1.620   4.134   0.450 -0.6745  2.0105  1.3369
  286MOL0     H38551   1.825   3.948   0.571 -0.4946  0.4981  0.5182
  286MOL0     H38552   1.755   3.947   0.409 -1.8301  1.5509 -0.2288
  286MOL0     H38553   1.870   4.158   0.338  2.5400 -2.2775 -2.0403
  286MOL0     H38554   1.937   4.183   0.487 -1.1990  0.4173  0.1819
  286MOL0     H38555   2.040   3.930   0.478 -1.8525 -1.2114 -0.2751
  286MOL0     H38556   2.003   3.937   0.303  0.1953 -0.9524  0.6319
  286MOL0     H38557   2.194   4.095   0.471  1.8985 -1.5453 -0.3469
  286MOL0     H38558   2.132   4.170   0.322  0.0647 -0.1348 -1.3330
  286MOL0     H38559   2.253   3.900   0.333  0.7070  0.8441  0.6866
  286MOL0     H38560   2.207   3.970   0.183  2.0045  0.5290 -1.0230
  286MOL0     H38561   2.401   4.178   0.448 -0.1496  1.2710 -1.1461
  286MOL0     H38562   2.651   4.339   0.365 -0.3151  0.0007  0.6811
  286MOL0     H38563   2.671   4.213   0.482 -2.2936  0.2012  0.4576
  286MOL0     H38564   2.817   4.208   0.211  1.4854 -0.6725  0.3821
  286MOL0     H38565   2.878   4.302   0.352  1.0543 -0.3865 -0.7556
  286MOL0     H38566   2.822   4.002   0.362  0.0721 -0.9835  2.7639
  286MOL0     H38567   2.884   4.099   0.492  1.4286  2.0886 -0.5083
  286MOL0     H38568   3.088   4.139   0.342 -0.9272 -0.0189  1.9252
  286MOL0     H38569   3.009   4.055   0.207 -1.8154  2.1795 -0.5066
  286MOL0     H38570   3.274   4.045   0.245 -1.4581  0.1322  1.8335
  286MOL0     H38571   3.454   3.920   0.142  0.9421  1.3423  1.9030
  286MOL0     H38572   3.731   3.522   0.005  0.7326  0.3968 -1.8159
  286MOL0     H38573   3.975   3.467   0.021 -0.1685 -1.1536  0.4536
  286MOL0     H38574   4.263   3.785   0.194 -3.9444  0.4276 -1.1899
  286MOL0     H38575   4.195   3.665   0.322  1.2271  2.5730  1.8656
  286MOL0     H38576   4.350   3.498   0.260  0.4454  2.1412  2.5739
  286MOL0     H38577   4.378   3.564   0.096  0.2532  0.2035 -0.3844
  286MOL0     H38578   4.429   3.710   0.354 -0.3534  2.4649 -2.5666
  286MOL0     H38579   4.547   3.590   0.321  0.7884  2.1519 -0.5221
  286MOL0     H38580   4.618   3.819   0.253  0.9755  0.0576 -2.5046
  286MOL0     H38581   4.480   3.835   0.142 -0.9158  1.8820  3.4912
  286MOL0     H38582   4.583   3.630   0.031 -0.9608 -0.3873  0.5600
  286MOL0     H38583   4.722   3.648   0.134  2.5447 -0.8144 -4.2583
  286MOL0     H38584   4.644   3.866  -0.063 -1.0242  0.8997  2.3444
  286MOL0     H38585   4.782   3.877   0.033  0.8062 -1.4513  3.7816
  286MOL0     H38586   4.731   3.635  -0.148 -1.9034 -1.4928  3.7491
  286MOL0     H38587   4.873   3.647  -0.040  0.4141  1.2722  0.6214
  286MOL0     H38588   4.925   3.859  -0.168 -1.2589  2.1464 -0.7853
  286MOL0     H38589   4.922   3.710  -0.285  1.0744  1.7373 -0.4222
  286MOL0     H38590   4.031   3.859   0.205  0.2153 -0.5360  1.0896
  286MOL0     H38591   3.789   3.898   0.163 -1.2663 -0.4366 -1.0232
  286MOL0     H38592   3.341   3.573   0.348  2.5193 -0.5461 -1.0750
  286MOL0     H38593   3.118   3.683   0.403 -1.5947 -0.1233 -2.5645
  286MOL0     H38594   1.309   4.178   0.400 -0.5093  1.3167 -0.2665
  286MOL0     H38595   1.065   4.230   0.339  4.0075 -1.4668 -0.8806
  286MOL0     H38596   0.777   4.595   0.245  0.5488 -2.2763 -0.1111
  286MOL0     H38597   0.559   4.730   0.237 -0.7687  2.6803  2.7187
  286MOL0     H38598   0.347   4.744   0.232  2.6538  0.1643 -0.2398
  286MOL0     H38599   0.417   4.897   0.293 -0.1125 -0.4168 -0.4157
  286MOL0     H38600   0.192   4.916   0.427  0.5657  0.1432 -0.5352
  286MOL0     H38601   0.136   4.781   0.325  0.6165 -1.0615 -0.0861
  286MOL0     H38602   0.128   4.889   0.135  2.1436 -0.8917 -0.3873
  286MOL0     H38603   0.252   5.009   0.166 -0.1889 -0.2707 -0.0852
  286MOL0     H38604   0.105   5.119   0.338  0.7357  1.6763 -0.7826
  286MOL0     H38605   0.068   5.147   0.171  2.6888 -1.2559 -0.9797
  286MOL0     H38606  -0.278   4.946   0.300 -1.3393  0.4360 -4.0610
  286MOL0     H38607   0.470   4.592   0.628  0.8680 -0.1454  0.5300
  286MOL0     H38608   0.784   4.440   0.705  0.9264  1.8286 -1.4477
  286MOL0     H38609   0.651   4.538   0.768  0.6821  0.6867 -0.6480
  286MOL0     H38610   0.620   4.378   0.699 -1.9026  1.5764 -1.4583
  287MOL0     O38611   7.107   0.851  10.685 -0.6104 -0.3134 -0.3983
  287MOL0     C38612   7.036   0.765  10.631 -0.0023  1.1768 -0.6665
  287MOL0     O38613   7.085   0.670  10.552 -0.5511 -0.1848 -0.4732
  287MOL0     C38614   7.217   0.655  10.543 -0.5687 -1.6563 -0.7348
  287MOL0     C38615   7.291   0.581  10.637  0.1826 -0.3860  0.1471
  287MOL0     C38616   7.430   0.572  10.614 -0.5349  0.5375  0.4041
  287MOL0     C38617   7.497   0.628  10.500  0.4033 -0.6143  0.9422
  287MOL0     O38618   7.635   0.623  10.474  0.3569  0.4822  0.0674
  287MOL0     C38619   7.663   0.533  10.371  0.5510 -0.1031  0.2158
  287MOL0     C38620   7.766   0.418  10.420 -0.0283  0.1175 -0.4166
  287MOL0     C38621   7.904   0.485  10.432  0.0253  0.5631 -0.3825
  287MOL0     C38622   8.006   0.372  10.473 -0.3826 -0.3052 -0.1963
  287MOL0     C38623   8.155   0.432  10.489  0.7880 -0.7163 -0.1533
  287MOL0     C38624   8.248   0.318  10.535 -0.1375 -0.7651  0.2209
  287MOL0     C38625   8.393   0.353  10.511  0.5753 -0.1451 -0.4543
  287MOL0     C38626   8.479   0.235  10.557  0.0609 -0.2596  0.2680
  287MOL0     N38627   8.619   0.282  10.568  0.7999 -0.2529 -0.5686
  287MOL0     C38628   8.683   0.315  10.692 -0.6115  0.2725  0.0180
  287MOL0     C38629   8.808   0.358  10.656 -0.6316  0.4250 -0.3126
  287MOL0     C38630   8.915   0.403  10.760 -0.1498  0.0496 -0.2002
  287MOL0     C38631   9.036   0.313  10.748  0.2337  0.2452 -0.1921
  287MOL0     C38632   9.166   0.364  10.815 -0.2631  0.8317  0.4151
  287MOL0     C38633   9.233   0.486  10.742 -0.6512 -0.4598  0.5706
  287MOL0     O38634   9.315   0.549  10.841 -0.5115  0.1706 -0.7067
  287MOL0     C38635   9.432   0.607  10.806 -0.1650  0.0570 -0.4348
  287MOL0     C38636   9.498   0.671  10.911  0.5694 -0.4588  0.3031
  287MOL0     C38637   9.613   0.737  10.899 -0.5834  0.4549 -0.0127
  287MOL0     C38638   9.684   0.741  10.775  0.2200 -0.4530  0.3118
  287MOL0     C38639   9.811   0.817  10.769 -0.9125  0.2544  0.4474
  287MOL0     O38640   9.832   0.901  10.873 -0.3606  0.1355  0.5051
  287MOL0     C38641   9.961   0.950  10.902  0.2144  0.2871  0.0345
  287MOL0     C38642   9.961   1.071  10.968 -0.9072  0.0050  0.1220
  287MOL0     C38643  10.082   1.131  11.011 -0.3144 -1.1550 -0.7743
  287MOL0     C38644  10.203   1.071  10.977  0.0303  0.1927 -0.2064
  287MOL0     O38645  10.319   1.134  11.008 -0.2313 -0.5813 -0.2888
  287MOL0     C38646  10.364   1.191  10.883 -0.1195 -0.4002  0.1274
  287MOL0     C38647  10.481   1.288  10.911  0.9963 -0.7904 -0.4878
  287MOL0     C38648  10.449   1.406  11.009 -0.0334  0.2561  0.9034
  287MOL0     C38649  10.556   1.514  11.009 -0.2664  0.0806 -0.5767
  287MOL0     C38650  10.665   1.468  11.096 -0.4881 -0.1104 -0.6648
  287MOL0     C38651  10.753   1.589  11.124 -0.6348 -0.2097  0.5452
  287MOL0     C38652  10.840   1.568  11.241  0.0954  0.3800  0.1448
  287MOL0     C38653  10.955   1.676  11.261  0.3232 -0.5430 -0.0898
  287MOL0    Cl38654  11.064   1.677  11.117 -0.1246  0.4181 -0.3413
  287MOL0     C38655  10.203   0.957  10.889 -0.4492 -0.7721  0.4890
  287MOL0     C38656  10.082   0.900  10.861 -0.2613 -0.0019  0.5707
  287MOL0     O38657   9.884   0.803  10.672 -0.1574  0.0458  1.3139
  287MOL0     C38658   9.621   0.671  10.661 -0.2676 -0.6813  0.2406
  287MOL0     C38659   9.492   0.612  10.680 -0.4821  0.2399 -0.5705
  287MOL0     N38660   8.822   0.354  10.514  0.3320  0.1648 -0.7154
  287MOL0     N38661   8.713   0.296  10.470  0.1532 -0.7598  0.6564
  287MOL0     C38662   7.416   0.690  10.409  0.3573 -0.1052 -0.9085
  287MOL0     C38663   7.280   0.712  10.428  1.0691 -0.0089 -0.3671
  287MOL0     C38664   6.886   0.770  10.658  0.5585  0.2121 -0.2469
  287MOL0     C38665   6.843   0.888  10.727 -0.3951 -0.5922 -0.0678
  287MOL0     C38666   6.705   0.910  10.758 -0.5830 -1.2273  0.4999
  287MOL0     C38667   6.612   0.823  10.703 -1.2429 -0.5415 -0.0613
  287MOL0     O38668   6.480   0.847  10.726  0.2018  0.3500 -1.0508
  287MOL0     C38669   6.450   0.796  10.858  0.3645 -0.6950 -0.3849
  287MOL0     C38670   6.316   0.854  10.912  0.0954 -0.2036 -0.1996
  287MOL0     C38671   6.201   0.801  10.830  0.5422  0.6640 -0.3036
  287MOL0     C38672   6.148   0.673  10.898 -0.6882  0.4626 -0.0795
  287MOL0     C38673   6.022   0.631  10.836  0.6007 -0.2248 -0.1534
  287MOL0     C38674   5.917   0.593  10.787 -1.2391  0.3700 -0.5746
  287MOL0     C38675   6.648   0.717  10.624 -0.3853  0.8502 -0.0891
  287MOL0     C38676   6.784   0.686  10.607 -1.0634 -0.1107  0.1013
  287MOL0     C38677   6.812   0.553  10.542 -0.1533  0.1682  0.3500
  287MOL0     H38678   7.229   0.545  10.719  1.1997 -2.7393 -0.0488
  287MOL0     H38679   7.494   0.527  10.689 -0.8941  0.0422  0.4204
  287MOL0     H38680   7.570   0.485  10.338  0.1089  0.9857 -0.1613
  287MOL0     H38681   7.704   0.582  10.283  3.0225 -1.8742  0.2671
  287MOL0     H38682   7.767   0.345  10.338  1.5042  0.5590 -0.8105
  287MOL0     H38683   7.736   0.370  10.514  1.8881  0.1072  0.2299
  287MOL0     H38684   7.916   0.569  10.502 -0.4377  2.0248 -2.0015
  287MOL0     H38685   7.945   0.524  10.339  0.2319 -0.4224 -0.7152
  287MOL0     H38686   7.969   0.326  10.565  0.3157  1.2667  0.9165
  287MOL0     H38687   8.010   0.305  10.387  0.1043  1.5267 -1.6786
  287MOL0     H38688   8.182   0.451  10.384 -1.3266 -1.1049 -0.8182
  287MOL0     H38689   8.161   0.519  10.555  1.3441  0.5412 -1.7874
  287MOL0     H38690   8.230   0.289  10.639  2.7983  0.0607  1.0590
  287MOL0     H38691   8.226   0.232  10.471 -2.7006  0.2032 -0.3082
  287MOL0     H38692   8.415   0.442  10.571  0.1645 -0.9008  0.8442
  287MOL0     H38693   8.418   0.369  10.406 -1.6839  1.4168 -0.8345
  287MOL0     H38694   8.440   0.209  10.656 -2.1286  0.9270 -0.2069
  287MOL0     H38695   8.468   0.144  10.498  3.8105 -1.0131  0.4874
  287MOL0     H38696   8.643   0.315  10.793 -0.8133  1.8610 -0.0287
  287MOL0     H38697   8.937   0.509  10.743 -3.2149  1.1726  2.0534
  287MOL0     H38698   8.868   0.395  10.859 -0.7728  2.1790 -0.2754
  287MOL0     H38699   9.008   0.217  10.793 -1.1026  0.7943  0.2058
  287MOL0     H38700   9.050   0.290  10.642  0.7993 -1.2056  0.1797
  287MOL0     H38701   9.242   0.287  10.826  1.3918  2.2511 -0.5402
  287MOL0     H38702   9.135   0.381  10.919  0.5094 -0.3585  0.8530
  287MOL0     H38703   9.162   0.568  10.724  1.0982  0.4511 -3.1568
  287MOL0     H38704   9.279   0.451  10.649 -1.1793  1.9670 -0.7088
  287MOL0     H38705   9.444   0.670  11.005 -2.1131 -2.1752 -1.1296
  287MOL0     H38706   9.650   0.779  10.991 -0.7487  0.4770  0.0443
  287MOL0     H38707   9.869   1.123  10.992 -0.4657  2.2023 -2.4454
  287MOL0     H38708  10.084   1.227  11.062 -2.0068 -1.2627 -0.4540
  287MOL0     H38709  10.399   1.120  10.809 -1.4879  1.2234 -2.2138
  287MOL0     H38710  10.273   1.237  10.843 -0.1272 -1.1886 -0.7874
  287MOL0     H38711  10.566   1.231  10.950  1.5491  1.7297  2.4400
  287MOL0     H38712  10.506   1.317  10.808 -3.9899 -2.2067 -2.3725
  287MOL0     H38713  10.350   1.445  10.984 -0.1044  0.3497  1.3222
  287MOL0     H38714  10.434   1.366  11.110  1.1961  0.8146  1.3245
  287MOL0     H38715  10.514   1.612  11.032 -0.2227  0.2058 -1.0174
  287MOL0     H38716  10.594   1.534  10.909  0.8396  1.6877  0.1146
  287MOL0     H38717  10.732   1.392  11.055 -1.0394 -1.5249  0.8925
  287MOL0     H38718  10.622   1.434  11.191  1.7166  2.3140  1.3353
  287MOL0     H38719  10.820   1.603  11.039 -0.4509  0.4428  0.7936
  287MOL0     H38720  10.697   1.682  11.142  0.5604  1.0221 -1.6543
  287MOL0     H38721  10.897   1.476  11.231 -0.0560  0.2333  0.6080
  287MOL0     H38722  10.783   1.564  11.334  2.0791  1.4741  1.5007
  287MOL0     H38723  10.906   1.773  11.276  2.8203  0.8440 -0.4558
  287MOL0     H38724  11.017   1.656  11.349  1.0056  0.0447 -0.4242
  287MOL0     H38725  10.289   0.899  10.858 -0.3261  0.1231 -0.9632
  287MOL0     H38726  10.086   0.804  10.809  1.2223 -1.0857  2.5322
  287MOL0     H38727   9.662   0.683  10.561  2.3273 -1.0510  1.1619
  287MOL0     H38728   9.450   0.553  10.600  2.8316  0.5398 -2.7217
  287MOL0     H38729   7.469   0.721  10.320 -0.4664 -1.1406 -1.7897
  287MOL0     H38730   7.217   0.765  10.357  0.0063  0.3199  0.7935
  287MOL0     H38731   6.913   0.962  10.762 -0.5342 -0.1788 -0.6565
  287MOL0     H38732   6.672   0.994  10.818  0.2883 -1.0865  0.8056
  287MOL0     H38733   6.530   0.818  10.929  2.9109  0.6389 -3.4089
  287MOL0     H38734   6.442   0.688  10.849  0.3988 -0.6385 -1.1694
  287MOL0     H38735   6.319   0.963  10.905  2.7676 -0.2163 -0.4671
  287MOL0     H38736   6.303   0.825  11.017 -1.5489 -3.3994 -1.1466
  287MOL0     H38737   6.242   0.788  10.730  2.8131 -0.7859  0.7217
  287MOL0     H38738   6.121   0.876  10.830 -0.4247 -0.3391 -0.9377
  287MOL0     H38739   6.222   0.592  10.899 -1.7060 -0.5308 -1.5547
  287MOL0     H38740   6.128   0.680  11.005 -3.0896  2.7939 -0.5839
  287MOL0     H38741   5.837   0.534  10.748 -0.0554 -2.2847  0.6895
  287MOL0     H38742   6.579   0.644  10.585  2.0850 -1.9777  0.4568
  287MOL0     H38743   6.739   0.485  10.587 -0.3861  1.5134  2.1032
  287MOL0     H38744   6.811   0.557  10.432 -0.5584 -2.7091  0.1709
  287MOL0     H38745   6.903   0.512  10.585  0.0090  0.3530  0.1859
  288MOL0     O38746   2.230   0.487   4.146 -0.8041  0.5576  1.1020
  288MOL0     C38747   2.142   0.430   4.214 -0.3296  0.1699  0.5893
  288MOL0     O38748   2.131   0.439   4.341  0.5794  0.3590  0.3820
  288MOL0     C38749   2.208   0.528   4.410  0.2942 -0.3667 -0.3303
  288MOL0     C38750   2.346   0.551   4.393  0.4523  0.0036 -0.4073
  288MOL0     C38751   2.418   0.639   4.472 -0.5573  0.2434  0.4589
  288MOL0     C38752   2.355   0.704   4.577 -0.5319  0.3615 -0.3063
  288MOL0     O38753   2.442   0.783   4.653  0.1825 -0.2512 -0.0103
  288MOL0     C38754   2.385   0.856   4.754  0.2632 -0.9702 -0.0055
  288MOL0     C38755   2.488   0.929   4.836  0.2305 -0.5839 -0.3686
  288MOL0     C38756   2.547   1.061   4.773 -0.1308  0.1832  0.6829
  288MOL0     C38757   2.617   1.133   4.888 -0.6637 -0.8303  0.6066
  288MOL0     C38758   2.715   1.237   4.841 -0.7651  0.4392  0.5472
  288MOL0     C38759   2.656   1.364   4.781  0.2795  0.1932 -0.4287
  288MOL0     C38760   2.764   1.441   4.709  0.2670 -0.0764 -0.5168
  288MOL0     C38761   2.784   1.379   4.569  0.3173 -0.5841  0.0453
  288MOL0     N38762   2.914   1.417   4.512  0.1186  0.7696  0.1189
  288MOL0     C38763   2.936   1.525   4.429  0.0100  0.4169 -1.0385
  288MOL0     C38764   3.068   1.509   4.389  0.1189  0.6158 -0.1840
  288MOL0     C38765   3.126   1.594   4.285  0.3950  0.1003  0.0461
  288MOL0     C38766   3.270   1.543   4.271 -0.1411 -0.1051  1.2320
  288MOL0     C38767   3.355   1.623   4.175  0.6832 -0.2183  0.0946
  288MOL0     C38768   3.459   1.548   4.095 -0.0783  0.5488  0.9738
  288MOL0     O38769   3.560   1.637   4.043  0.0698 -0.2167 -0.4525
  288MOL0     C38770   3.670   1.575   3.973  0.0242 -0.2143 -0.2372
  288MOL0     C38771   3.698   1.437   3.954 -0.2564 -0.1092 -0.1872
  288MOL0     C38772   3.823   1.390   3.896  0.3218 -0.0256  0.5982
  288MOL0     C38773   3.903   1.488   3.838  0.3380  0.6833 -0.4339
  288MOL0     C38774   4.022   1.445   3.772  0.0606 -0.7206 -0.5434
  288MOL0     O38775   4.025   1.310   3.733 -0.1413 -0.0648 -0.3004
  288MOL0     C38776   4.139   1.266   3.665 -0.6672 -0.1370  0.1775
  288MOL0     C38777   4.139   1.233   3.525  0.1923 -1.1325  0.3714
  288MOL0     C38778   4.260   1.201   3.458 -0.4379  0.6940  0.6259
  288MOL0     C38779   4.377   1.194   3.528 -0.3343 -0.2618 -0.2485
  288MOL0     O38780   4.497   1.133   3.485  0.1027  0.4312 -0.2132
  288MOL0     C38781   4.539   1.165   3.354 -0.4329  0.6107  0.3399
  288MOL0     C38782   4.679   1.108   3.326 -0.4927  0.0073 -0.2052
  288MOL0     C38783   4.777   1.171   3.416 -0.5687 -0.3028  0.1477
  288MOL0     C38784   4.911   1.194   3.349  0.5246  0.4085  0.5870
  288MOL0     C38785   4.989   1.068   3.330  0.3648 -0.6615  1.0673
  288MOL0     C38786   5.142   1.089   3.316  0.8040 -0.1845  0.5970
  288MOL0     C38787   5.171   1.124   3.176  0.2817 -0.3072  0.3208
  288MOL0     C38788   5.321   1.154   3.145 -0.7911  0.1406  0.4822
  288MOL0    Cl38789   5.420   1.003   3.164  0.3057 -0.1489  0.2483
  288MOL0     C38790   4.372   1.219   3.665 -0.2849 -0.2169 -1.0835
  288MOL0     C38791   4.258   1.257   3.734 -0.0882 -0.1560  0.3209
  288MOL0     O38792   4.112   1.531   3.749  0.6238 -0.4736 -0.1130
  288MOL0     C38793   3.866   1.625   3.846  0.0712 -0.5646 -0.0992
  288MOL0     C38794   3.763   1.664   3.921  0.1133 -0.3895 -0.6658
  288MOL0     N38795   3.117   1.392   4.456 -0.3475 -0.4527 -0.1590
  288MOL0     N38796   3.031   1.350   4.536  0.1827  0.1279  0.2809
  288MOL0     C38797   2.214   0.678   4.603 -0.0389  0.9309 -0.7730
  288MOL0     C38798   2.147   0.591   4.512 -0.3308 -0.4456  0.4470
  288MOL0     C38799   2.034   0.347   4.142  0.1957 -0.6651 -0.0906
  288MOL0     C38800   1.901   0.358   4.198 -0.5356  0.6617 -0.7766
  288MOL0     C38801   1.788   0.310   4.128  0.5430  1.0170  0.4129
  288MOL0     C38802   1.809   0.240   4.007  0.4587  0.1300 -0.4955
  288MOL0     O38803   1.694   0.216   3.935  0.1129  0.5498  0.5528
  288MOL0     C38804   1.695   0.114   3.841 -1.2610  0.1202 -0.0769
  288MOL0     C38805   1.548   0.064   3.846 -0.4090  0.7660 -0.0854
  288MOL0     C38806   1.439   0.162   3.811 -0.0526  0.4637 -0.5237
  288MOL0     C38807   1.455   0.226   3.671  0.2943 -1.1091 -0.1101
  288MOL0     C38808   1.468   0.122   3.566  0.2324  0.3937  0.0688
  288MOL0     C38809   1.466   0.042   3.474 -0.4465  0.2189  0.0696
  288MOL0     C38810   1.938   0.229   3.956  0.6691  0.7474  0.7259
  288MOL0     C38811   2.048   0.275   4.022 -0.4932 -0.0013 -0.3146
  288MOL0     C38812   2.183   0.262   3.952 -0.3953  0.0209 -0.0940
  288MOL0     H38813   2.396   0.495   4.315  0.2600 -1.3572  0.4111
  288MOL0     H38814   2.523   0.651   4.447  0.1748  0.5389  3.2473
  288MOL0     H38815   2.322   0.932   4.705  2.9972  1.2246 -0.3641
  288MOL0     H38816   2.326   0.786   4.813  0.9936 -2.6148 -1.1469
  288MOL0     H38817   2.567   0.855   4.852 -0.2188 -0.9284  0.3538
  288MOL0     H38818   2.454   0.949   4.938  0.5847  2.0627 -0.6828
  288MOL0     H38819   2.460   1.114   4.733 -0.6090 -1.1608 -0.1273
  288MOL0     H38820   2.616   1.030   4.694 -0.4663 -1.9985  1.1794
  288MOL0     H38821   2.549   1.185   4.956 -0.1253 -1.0453  1.3105
  288MOL0     H38822   2.670   1.058   4.946 -1.0383 -0.1869  1.8076
  288MOL0     H38823   2.789   1.275   4.913  0.2496 -0.6897  0.1372
  288MOL0     H38824   2.777   1.183   4.770  0.1386  0.2238  1.4625
  288MOL0     H38825   2.582   1.327   4.709  0.6928 -2.6011  0.4776
  288MOL0     H38826   2.603   1.425   4.855  0.3282  0.1593 -0.3662
  288MOL0     H38827   2.862   1.437   4.758  0.7284 -0.6420 -1.4676
  288MOL0     H38828   2.740   1.547   4.702  1.6060  0.1190 -3.9285
  288MOL0     H38829   2.777   1.271   4.583 -0.3917 -0.4895  0.5260
  288MOL0     H38830   2.705   1.397   4.496  0.1811 -1.8910 -0.1542
  288MOL0     H38831   2.869   1.603   4.395 -0.1046  0.9037  0.2649
  288MOL0     H38832   3.079   1.582   4.187 -0.8260  1.5133  0.4222
  288MOL0     H38833   3.133   1.700   4.311  1.6552  1.1328 -3.7455
  288MOL0     H38834   3.321   1.527   4.366  0.8330  0.7691  0.8786
  288MOL0     H38835   3.258   1.448   4.219 -0.3141  2.1318 -3.3752
  288MOL0     H38836   3.409   1.686   4.247 -1.3682  0.6566  0.9474
  288MOL0     H38837   3.288   1.687   4.118  1.1957 -0.1051 -0.3936
  288MOL0     H38838   3.411   1.486   4.019  1.1799 -0.4667  0.9628
  288MOL0     H38839   3.508   1.478   4.163  0.2226 -3.3074 -2.7640
  288MOL0     H38840   3.625   1.364   3.984 -2.7921  2.5996  0.7192
  288MOL0     H38841   3.848   1.285   3.885  0.9319  0.1139  0.6361
  288MOL0     H38842   4.046   1.249   3.471 -0.3249  1.2938  1.7889
  288MOL0     H38843   4.254   1.162   3.357  0.9768 -0.1047  0.8310
  288MOL0     H38844   4.466   1.124   3.284  0.0194 -1.3103  0.9292
  288MOL0     H38845   4.532   1.274   3.346  0.3525  0.7588  1.4130
  288MOL0     H38846   4.675   1.001   3.350  0.4145  0.0291  0.0562
  288MOL0     H38847   4.699   1.113   3.219 -0.0517 -0.1238 -0.1316
  288MOL0     H38848   4.738   1.269   3.445  1.3005  0.0431  1.7586
  288MOL0     H38849   4.787   1.117   3.511  1.1861 -0.7254 -0.2353
  288MOL0     H38850   4.968   1.260   3.415 -0.3793 -0.1135  1.9420
  288MOL0     H38851   4.906   1.241   3.251 -0.7525  1.2630  1.0366
  288MOL0     H38852   4.950   1.019   3.241  0.0754 -0.6170  1.1700
  288MOL0     H38853   4.984   0.999   3.416  1.7216 -1.6979  0.3655
  288MOL0     H38854   5.191   1.165   3.377  0.4289 -0.4507  1.2419
  288MOL0     H38855   5.186   0.990   3.330  1.3897  0.2380  1.8103
  288MOL0     H38856   5.107   1.208   3.145 -0.7528 -1.2838 -0.2699
  288MOL0     H38857   5.137   1.039   3.116 -1.0139  0.2257  0.2549
  288MOL0     H38858   5.326   1.195   3.044 -3.6054  0.3456  0.3320
  288MOL0     H38859   5.365   1.220   3.221 -2.2480  0.9326  0.6949
  288MOL0     H38860   4.469   1.192   3.706 -0.9200 -3.8472 -1.6240
  288MOL0     H38861   4.252   1.280   3.840  0.0013  0.2896  0.2280
  288MOL0     H38862   3.928   1.703   3.803  2.0882 -2.6983 -1.3345
  288MOL0     H38863   3.746   1.771   3.927 -0.4291 -0.2341 -3.5378
  288MOL0     H38864   2.160   0.722   4.686 -2.0866  0.0098 -1.5420
  288MOL0     H38865   2.052   0.549   4.543  0.8678 -3.1662  0.7428
  288MOL0     H38866   1.895   0.419   4.287  1.6376 -0.4096  0.1810
  288MOL0     H38867   1.684   0.329   4.152 -1.3042 -3.7914 -2.3077
  288MOL0     H38868   1.761   0.030   3.862  0.4961  1.4719  0.0242
  288MOL0     H38869   1.726   0.145   3.741  0.8303 -2.3352 -0.2750
  288MOL0     H38870   1.532   0.017   3.943  3.2394  0.7863  0.6634
  288MOL0     H38871   1.545  -0.019   3.775  2.0403  1.0204 -0.5779
  288MOL0     H38872   1.426   0.247   3.879 -1.0372  0.5509 -0.8059
  288MOL0     H38873   1.352   0.096   3.810  0.0972 -0.2517  4.4921
  288MOL0     H38874   1.362   0.282   3.657 -0.4196 -1.6850  1.9301
  288MOL0     H38875   1.542   0.292   3.669  2.2875 -3.1462  4.3276
  288MOL0     H38876   1.471  -0.010   3.381  0.0275  1.8797 -0.8720
  288MOL0     H38877   1.955   0.173   3.865 -0.4659  0.6893  0.5281
  288MOL0     H38878   2.207   0.366   3.929 -1.7256  0.3916  0.1208
  288MOL0     H38879   2.261   0.226   4.021  1.2954  0.2942 -1.7732
  288MOL0     H38880   2.178   0.189   3.870 -0.8200  1.2594 -1.2006
  289MOL0     O38881   1.945   8.299   4.290 -0.0968  0.0035 -0.4098
  289MOL0     C38882   1.929   8.181   4.251 -0.9080 -0.5534 -0.1545
  289MOL0     O38883   2.019   8.126   4.157  0.7477 -0.2522  0.3944
  289MOL0     C38884   2.119   8.203   4.101  0.1293 -0.6078  0.1468
  289MOL0     C38885   2.139   8.202   3.962 -0.0781 -0.0958  0.6737
  289MOL0     C38886   2.241   8.274   3.900 -0.1450 -0.9716 -0.3030
  289MOL0     C38887   2.334   8.350   3.981  0.8089 -1.1534 -0.1293
  289MOL0     O38888   2.434   8.440   3.927  1.1306  0.1620 -0.2775
  289MOL0     C38889   2.548   8.470   4.003  0.4539  0.1898  0.8333
  289MOL0     C38890   2.669   8.396   3.942  0.0738  0.2961  0.3501
  289MOL0     C38891   2.802   8.441   3.988 -0.0911  0.5306 -0.9486
  289MOL0     C38892   2.888   8.536   3.896  0.2260  0.0088 -0.0235
  289MOL0     C38893   3.012   8.570   3.967 -0.4797  0.3841  0.4101
  289MOL0     C38894   3.102   8.673   3.898 -0.4394 -0.3985 -1.0765
  289MOL0     C38895   3.214   8.721   3.984 -0.0019 -0.0271  0.1836
  289MOL0     C38896   3.343   8.709   3.908  0.8290 -0.1114  0.7908
  289MOL0     N38897   3.448   8.764   3.978 -0.9072  0.2608 -0.0304
  289MOL0     C38898   3.468   8.894   4.024  0.3469  0.1864 -0.8840
  289MOL0     C38899   3.584   8.897   4.089  1.0756 -0.0373  0.1873
  289MOL0     C38900   3.639   9.021   4.144  0.9858  0.1706 -0.2170
  289MOL0     C38901   3.679   9.122   4.037 -0.2472  0.5846  0.5463
  289MOL0     C38902   3.799   9.072   3.946 -0.2121  0.0221 -0.5666
  289MOL0     C38903   3.934   9.045   4.024  0.0159  0.1848 -0.4718
  289MOL0     O38904   4.026   8.991   3.932  0.3632 -0.0675  0.1780
  289MOL0     C38905   4.156   9.007   3.961 -0.2772  0.4014 -0.1199
  289MOL0     C38906   4.227   8.978   3.848 -0.0191  0.6781  0.3131
  289MOL0     C38907   4.366   8.967   3.860 -0.8215  0.0311  0.6043
  289MOL0     C38908   4.435   8.979   3.978 -0.1758 -0.3855  0.5136
  289MOL0     C38909   4.581   8.981   3.990 -0.4610 -1.1639  0.0767
  289MOL0     O38910   4.643   8.998   4.113 -0.2129 -0.3614  0.1021
  289MOL0     C38911   4.777   9.004   4.128 -1.0063  0.0318 -0.3992
  289MOL0     C38912   4.828   9.094   4.221  0.0229  0.2864 -0.7462
  289MOL0     C38913   4.963   9.096   4.245 -0.5778 -0.8282  0.2193
  289MOL0     C38914   5.057   9.009   4.179  0.3075  0.0806 -0.1263
  289MOL0     O38915   5.195   9.008   4.203 -0.5688 -0.0507 -0.1527
  289MOL0     C38916   5.247   9.128   4.274  0.0439  0.3217  0.7938
  289MOL0     C38917   5.400   9.122   4.293  0.3465 -0.2912 -0.4750
  289MOL0     C38918   5.477   9.070   4.182 -0.2961 -0.6841 -0.1192
  289MOL0     C38919   5.620   9.087   4.201 -0.1242  0.5103 -0.4181
  289MOL0     C38920   5.705   9.124   4.074  0.4658  0.2539  0.3197
  289MOL0     C38921   5.858   9.126   4.118 -0.6145 -0.1194  0.1092
  289MOL0     C38922   5.957   9.176   4.020  0.5250 -0.2730  0.9751
  289MOL0     C38923   6.104   9.180   4.075  1.2190  0.3459 -0.2636
  289MOL0    Cl38924   6.215   9.251   3.958 -0.0022 -0.1240  0.0709
  289MOL0     C38925   4.997   8.912   4.086 -0.2628  0.0138  0.4375
  289MOL0     C38926   4.860   8.904   4.066  0.5967 -0.1179 -0.4715
  289MOL0     O38927   4.627   8.939   3.887 -0.8246  0.3047  0.0576
  289MOL0     C38928   4.356   9.010   4.095  0.0662 -0.0135  0.2476
  289MOL0     C38929   4.212   9.033   4.085 -0.1990  0.3749  0.8097
  289MOL0     N38930   3.638   8.769   4.087  0.0058  0.6898 -0.1804
  289MOL0     N38931   3.556   8.692   4.022  0.3743 -0.0104 -0.5196
  289MOL0     C38932   2.305   8.364   4.118  0.2101  0.5462 -1.2027
  289MOL0     C38933   2.207   8.280   4.178 -0.1098  0.0295 -0.0095
  289MOL0     C38934   1.827   8.095   4.300  0.4810  0.2610  0.0094
  289MOL0     C38935   1.854   7.955   4.291 -0.5269 -0.5610  0.0687
  289MOL0     C38936   1.767   7.854   4.338  0.9049 -0.1807  0.2839
  289MOL0     C38937   1.645   7.887   4.395  0.0882 -0.2432 -0.7716
  289MOL0     O38938   1.568   7.788   4.454 -0.2377  0.3984  0.3503
  289MOL0     C38939   1.516   7.816   4.579  0.5620  0.4831 -0.2788
  289MOL0     C38940   1.620   7.814   4.690 -0.3970  0.8350 -0.2657
  289MOL0     C38941   1.550   7.817   4.823  0.3536 -0.2263  0.6697
  289MOL0     C38942   1.634   7.790   4.938 -0.0113  0.3230 -0.5382
  289MOL0     C38943   1.756   7.876   4.937 -1.2744  0.2935  0.3478
  289MOL0     C38944   1.847   7.958   4.942  0.3055  0.9993 -0.8008
  289MOL0     C38945   1.620   8.022   4.409 -0.1722  0.4945 -0.2984
  289MOL0     C38946   1.698   8.130   4.363 -1.0695 -0.0978 -0.0540
  289MOL0     C38947   1.641   8.268   4.335 -0.2573 -0.9402  0.3519
  289MOL0     H38948   2.070   8.152   3.895  0.4708 -0.3681  0.3104
  289MOL0     H38949   2.259   8.261   3.794  1.7424 -1.4005  0.0418
  289MOL0     H38950   2.574   8.576   4.000 -1.2617  0.6843  1.6856
  289MOL0     H38951   2.544   8.447   4.110  3.0264  1.5457  1.2886
  289MOL0     H38952   2.668   8.402   3.833 -2.6124 -0.3781  0.2703
  289MOL0     H38953   2.653   8.292   3.972  0.6089 -0.1548 -0.8683
  289MOL0     H38954   2.852   8.356   4.035  0.1475  0.8310 -0.6530
  289MOL0     H38955   2.782   8.503   4.076  0.6012  3.1945 -2.5328
  289MOL0     H38956   2.919   8.471   3.814  1.2616 -0.6273  0.8379
  289MOL0     H38957   2.830   8.619   3.856  1.7307  1.2639  0.3127
  289MOL0     H38958   2.983   8.601   4.068  0.3945  1.8961  0.2290
  289MOL0     H38959   3.071   8.478   3.974  2.8303  2.3592  1.1942
  289MOL0     H38960   3.142   8.626   3.807 -0.9152 -2.7454 -0.1567
  289MOL0     H38961   3.036   8.756   3.871 -2.3349 -1.4404  0.1084
  289MOL0     H38962   3.212   8.667   4.079 -3.9571 -0.8825 -0.2272
  289MOL0     H38963   3.192   8.826   4.005 -2.9566 -0.7268  1.0720
  289MOL0     H38964   3.370   8.604   3.897 -0.0785 -0.3588  0.7695
  289MOL0     H38965   3.337   8.752   3.808 -0.1179 -1.7649  0.0934
  289MOL0     H38966   3.410   8.982   3.997  2.7852  1.2847 -2.9481
  289MOL0     H38967   3.573   9.058   4.223  1.9935  0.7701  0.3669
  289MOL0     H38968   3.735   8.997   4.191  1.7987  4.1512  0.4785
  289MOL0     H38969   3.590   9.139   3.977  0.8334  0.3589 -1.1944
  289MOL0     H38970   3.702   9.220   4.080 -1.9715  1.4572 -0.4035
  289MOL0     H38971   3.824   9.158   3.882 -0.8879  1.8323  1.4796
  289MOL0     H38972   3.768   8.984   3.890 -1.2471 -0.3093  0.4892
  289MOL0     H38973   3.926   8.973   4.105  3.9569 -0.3849 -0.3719
  289MOL0     H38974   3.969   9.140   4.065  1.3838  0.9872 -3.1921
  289MOL0     H38975   4.168   8.977   3.757  0.1379  2.3644  0.1529
  289MOL0     H38976   4.413   8.962   3.762 -3.4836  0.2013 -0.7766
  289MOL0     H38977   4.754   9.157   4.269 -0.1864 -0.4708 -0.0477
  289MOL0     H38978   4.995   9.173   4.314 -2.3944  0.4934 -0.3477
  289MOL0     H38979   5.211   9.221   4.230  0.8072 -0.8512 -2.6593
  289MOL0     H38980   5.205   9.110   4.374  1.5318  1.4946  1.6747
  289MOL0     H38981   5.425   9.225   4.320  1.1543 -0.5095 -0.3718
  289MOL0     H38982   5.422   9.064   4.383  0.7320 -0.1779 -0.4944
  289MOL0     H38983   5.456   8.963   4.171  0.7711 -0.8360 -0.8680
  289MOL0     H38984   5.456   9.126   4.091 -2.3247 -0.4057  0.4689
  289MOL0     H38985   5.664   8.995   4.242  1.5517  0.8909 -1.2859
  289MOL0     H38986   5.641   9.162   4.277 -1.5425 -0.9861  1.5819
  289MOL0     H38987   5.672   9.221   4.037 -1.7244 -0.8506 -0.8368
  289MOL0     H38988   5.682   9.054   3.993  0.0157  0.9268 -0.1418
  289MOL0     H38989   5.876   9.184   4.209  2.3710 -0.7662  0.0145
  289MOL0     H38990   5.885   9.021   4.131  0.9518 -0.0710 -2.1414
  289MOL0     H38991   5.936   9.278   3.984  2.0658 -0.8227 -1.7643
  289MOL0     H38992   5.957   9.110   3.933  1.6867  1.8499 -0.7526
  289MOL0     H38993   6.103   9.239   4.166 -0.8690  0.0707 -0.0720
  289MOL0     H38994   6.125   9.075   4.099 -5.1849 -0.8581  2.0530
  289MOL0     H38995   5.073   8.842   4.052  1.0493  2.1073 -1.1254
  289MOL0     H38996   4.826   8.834   3.990 -2.2171 -2.0392  2.2802
  289MOL0     H38997   4.415   9.014   4.186  0.6221 -3.2450  0.1550
  289MOL0     H38998   4.152   9.067   4.169 -0.3369 -1.5687  1.5291
  289MOL0     H38999   2.354   8.443   4.174 -0.1155 -1.7448  2.6406
  289MOL0     H39000   2.174   8.280   4.281 -3.0305  1.5055 -0.8266
  289MOL0     H39001   1.949   7.936   4.242 -0.8228  1.0335 -1.2294
  289MOL0     H39002   1.795   7.750   4.327  0.6642 -0.4077  1.5986
  289MOL0     H39003   1.456   7.725   4.588  0.7181  0.5537  2.4340
  289MOL0     H39004   1.437   7.892   4.580 -0.9954 -1.0843 -0.8984
  289MOL0     H39005   1.687   7.898   4.674  0.9144 -0.4889 -2.2366
  289MOL0     H39006   1.684   7.725   4.683 -1.2961  0.2225 -1.1732
  289MOL0     H39007   1.466   7.748   4.829  2.1165 -2.3850  3.8015
  289MOL0     H39008   1.509   7.918   4.834  1.6261  0.5827 -1.3724
  289MOL0     H39009   1.584   7.808   5.033  0.9859  0.6451 -0.0609
  289MOL0     H39010   1.658   7.683   4.928  1.1913  0.5176  0.0701
  289MOL0     H39011   1.916   8.040   4.948  2.6966 -0.8518 -1.3833
  289MOL0     H39012   1.520   8.047   4.444  0.3794  4.3816 -1.0405
  289MOL0     H39013   1.532   8.269   4.323 -0.0612  1.7937 -2.3814
  289MOL0     H39014   1.681   8.340   4.408  0.4700 -1.1712  0.1859
  289MOL0     H39015   1.683   8.297   4.239 -1.0123  1.6977  0.7355
  290MOL0     O39016   9.121   3.474   8.376  0.0011 -0.0682  0.3363
  290MOL0     C39017   9.040   3.554   8.423 -0.0997 -0.4170 -0.1861
  290MOL0     O39018   9.070   3.642   8.522  0.1260 -0.9676 -0.2733
  290MOL0     C39019   9.164   3.613   8.616 -0.8130 -0.4636 -0.1447
  290MOL0     C39020   9.132   3.533   8.725 -0.4963 -0.2477 -0.8688
  290MOL0     C39021   9.230   3.512   8.826  0.7428  0.0369 -0.7711
  290MOL0     C39022   9.355   3.562   8.822  0.1074 -0.3873 -0.3297
  290MOL0     O39023   9.449   3.515   8.917  0.1337  0.2363  1.0135
  290MOL0     C39024   9.575   3.577   8.931  0.0996 -0.2074 -0.3907
  290MOL0     C39025   9.644   3.538   9.056 -0.0927  0.5964  0.1110
  290MOL0     C39026   9.778   3.612   9.055  0.3718 -0.0895  0.6102
  290MOL0     C39027   9.835   3.607   9.195  0.9581  0.2052  0.8317
  290MOL0     C39028   9.963   3.677   9.226  0.0644  0.0042 -0.2264
  290MOL0     C39029   9.982   3.678   9.378 -0.4438 -0.3711 -1.5087
  290MOL0     C39030  10.114   3.746   9.429 -0.8556  0.3627  0.2073
  290MOL0     C39031  10.120   3.761   9.578 -0.9753 -0.5376 -0.5599
  290MOL0     N39032  10.240   3.840   9.619  0.3985  0.3167  0.0361
  290MOL0     C39033  10.365   3.784   9.615  0.5477 -0.1293  0.8380
  290MOL0     C39034  10.433   3.867   9.688  0.1342 -0.3897  0.1989
  290MOL0     C39035  10.573   3.838   9.740  0.1696 -0.0343  0.3964
  290MOL0     C39036  10.675   3.885   9.639  0.7075  0.7085 -0.3292
  290MOL0     C39037  10.748   4.008   9.696  0.4202 -0.8286  0.8002
  290MOL0     C39038  10.842   4.056   9.578  0.0181  0.7753  0.2965
  290MOL0     O39039  10.948   3.967   9.576  0.3496  0.2628  0.4689
  290MOL0     C39040  11.069   4.000   9.521  0.2192  0.2570 -0.1564
  290MOL0     C39041  11.090   4.104   9.432 -0.3846  0.7206 -0.5156
  290MOL0     C39042  11.218   4.123   9.382 -0.2900  0.3063  0.9748
  290MOL0     C39043  11.329   4.044   9.420 -0.0113 -0.0676 -0.0267
  290MOL0     C39044  11.462   4.071   9.361  0.0748 -0.0268 -0.0552
  290MOL0     O39045  11.568   4.016   9.430  0.8371 -0.1915 -0.2538
  290MOL0     C39046  11.695   4.015   9.379  0.5397 -0.0765  1.4994
  290MOL0     C39047  11.734   3.924   9.280  0.0603 -0.3133 -0.3984
  290MOL0     C39048  11.854   3.935   9.219 -0.0231  0.0182 -0.3182
  290MOL0     C39049  11.948   4.024   9.263 -0.2740  0.2771  0.4312
  290MOL0     O39050  12.056   4.017   9.185  0.7077 -0.6547  0.6734
  290MOL0     C39051  12.182   4.069   9.237 -0.1120 -0.3902  0.8834
  290MOL0     C39052  12.278   4.057   9.125 -0.2767 -0.0663 -0.0024
  290MOL0     C39053  12.421   4.075   9.182  0.8871  0.7225 -0.5808
  290MOL0     C39054  12.518   4.092   9.070 -0.3858 -0.0616 -0.0417
  290MOL0     C39055  12.655   4.030   9.108  0.3997  0.2944 -0.6052
  290MOL0     C39056  12.752   4.064   9.001 -0.9419  0.4226 -0.2000
  290MOL0     C39057  12.889   4.007   9.049 -0.9803  0.0873  0.1627
  290MOL0     C39058  12.998   3.994   8.941  0.4714  0.8756 -1.1153
  290MOL0    Cl39059  12.936   3.920   8.793 -0.3311 -0.6803 -0.1689
  290MOL0     C39060  11.922   4.118   9.358  0.0556  0.3900 -0.5187
  290MOL0     C39061  11.785   4.112   9.419 -0.1728 -0.1534 -0.7229
  290MOL0     O39062  11.473   4.138   9.257  0.3507 -0.5180  0.2602
  290MOL0     C39063  11.313   3.954   9.524 -0.4282  0.0825  0.1888
  290MOL0     C39064  11.183   3.931   9.579 -0.1910  0.3360  0.9524
  290MOL0     N39065  10.357   3.978   9.715  0.4698 -0.6566  0.2611
  290MOL0     N39066  10.237   3.961   9.675  0.7734  0.5350 -0.5703
  290MOL0     C39067   9.392   3.629   8.704 -0.9530 -0.0539 -0.2684
  290MOL0     C39068   9.297   3.661   8.601  0.0442 -0.7936  0.0800
  290MOL0     C39069   8.918   3.567   8.343  0.0328 -0.3377 -0.3637
  290MOL0     C39070   8.847   3.687   8.342  0.1759 -0.5566  0.6620
  290MOL0     C39071   8.755   3.719   8.248 -0.2204 -0.3449  0.2589
  290MOL0     C39072   8.725   3.629   8.143  0.0059 -0.6479 -0.1637
  290MOL0     O39073   8.641   3.641   8.037  0.4062 -0.3325 -0.1033
  290MOL0     C39074   8.617   3.776   7.997  0.6660 -0.3091 -0.6663
  290MOL0     C39075   8.519   3.776   7.881  0.2232  0.5506  1.2069
  290MOL0     C39076   8.491   3.917   7.815 -0.1253  0.2143  0.0569
  290MOL0     C39077   8.616   3.969   7.742  0.0390  0.9512  0.9795
  290MOL0     C39078   8.639   3.874   7.625 -0.4926  0.6882 -0.1857
  290MOL0     C39079   8.642   3.817   7.521 -0.7436 -0.2346  1.0985
  290MOL0     C39080   8.779   3.512   8.161  0.3291  0.1913  0.9307
  290MOL0     C39081   8.872   3.471   8.254  0.4654 -0.0374 -0.2077
  290MOL0     C39082   8.920   3.327   8.236 -0.1531  0.0620  0.5616
  290MOL0     H39083   9.037   3.479   8.726 -0.8758  0.1599 -3.9777
  290MOL0     H39084   9.202   3.442   8.904  3.7611 -1.4866 -0.9232
  290MOL0     H39085   9.633   3.559   8.840 -0.2567  1.1980 -0.9284
  290MOL0     H39086   9.567   3.686   8.939  1.0734 -0.2224  1.0156
  290MOL0     H39087   9.655   3.430   9.049 -2.3057  0.4682 -3.6177
  290MOL0     H39088   9.584   3.561   9.145  1.2247 -0.7141  1.4081
  290MOL0     H39089   9.762   3.715   9.020  0.7895 -1.1245 -3.1212
  290MOL0     H39090   9.835   3.566   8.974 -0.9243  0.8678 -0.9100
  290MOL0     H39091   9.756   3.650   9.258 -0.0558  0.2535 -0.4278
  290MOL0     H39092   9.846   3.501   9.220  0.9469  0.0219  0.0868
  290MOL0     H39093  10.043   3.620   9.177 -0.2826  0.4776 -1.3938
  290MOL0     H39094   9.966   3.777   9.180 -0.6741  1.0834  1.9567
  290MOL0     H39095   9.895   3.735   9.411 -1.6585 -1.1765 -3.1842
  290MOL0     H39096   9.980   3.575   9.414  4.4073 -0.1768  0.0638
  290MOL0     H39097  10.114   3.847   9.387 -1.1610  0.4082  0.3172
  290MOL0     H39098  10.200   3.691   9.389 -2.5186 -1.9945 -0.3307
  290MOL0     H39099  10.041   3.828   9.615  1.1504  0.4947  2.5629
  290MOL0     H39100  10.121   3.662   9.625  0.8698 -0.4391 -0.3470
  290MOL0     H39101  10.397   3.682   9.595  3.2238 -0.0760  4.0299
  290MOL0     H39102  10.585   3.902   9.828  0.8133  0.3356  0.0465
  290MOL0     H39103  10.577   3.734   9.772  1.9124  0.2280  1.1638
  290MOL0     H39104  10.748   3.805   9.630 -0.1090 -0.0783 -0.0993
  290MOL0     H39105  10.620   3.918   9.551 -0.1651  2.5235  0.8238
  290MOL0     H39106  10.804   3.967   9.781  0.2427  0.1136  1.3932
  290MOL0     H39107  10.671   4.077   9.733 -2.1772 -3.2025  0.1825
  290MOL0     H39108  10.885   4.156   9.593  3.1269 -0.1000 -1.8446
  290MOL0     H39109  10.791   4.053   9.482  0.1659 -0.8903  0.2350
  290MOL0     H39110  11.005   4.162   9.397 -0.4297 -0.4960 -2.6403
  290MOL0     H39111  11.251   4.204   9.317 -0.0179  0.3036  1.1076
  290MOL0     H39112  11.671   3.842   9.248  2.4933 -2.1848 -0.6826
  290MOL0     H39113  11.874   3.871   9.134  2.0868 -0.0515  0.1770
  290MOL0     H39114  12.175   4.173   9.267 -0.7254 -0.1137 -0.1455
  290MOL0     H39115  12.209   4.009   9.325  0.1462  0.5534  1.4596
  290MOL0     H39116  12.272   3.961   9.072  2.2202 -1.5403  2.1361
  290MOL0     H39117  12.256   4.142   9.060  0.5906 -0.2453 -0.5512
  290MOL0     H39118  12.425   4.161   9.250  0.9686 -1.4672  2.4305
  290MOL0     H39119  12.447   3.988   9.242 -1.4470  1.1039  1.1529
  290MOL0     H39120  12.521   4.195   9.035  0.7426 -0.8776 -2.6583
  290MOL0     H39121  12.483   4.035   8.983  0.6934  0.2657 -0.7058
  290MOL0     H39122  12.635   3.925   9.130 -0.3102  0.3266 -1.0534
  290MOL0     H39123  12.696   4.079   9.197 -0.5856  0.8151 -0.4228
  290MOL0     H39124  12.724   4.019   8.905  0.4561 -0.8867 -0.0303
  290MOL0     H39125  12.751   4.173   9.001 -0.6614  0.4555  1.8258
  290MOL0     H39126  12.860   3.906   9.076 -0.5979 -0.2527 -0.6531
  290MOL0     H39127  12.924   4.063   9.136  1.6380  0.3939 -0.9827
  290MOL0     H39128  13.062   4.078   8.913  0.8331  0.6599 -0.9424
  290MOL0     H39129  13.073   3.930   8.988  1.2251  2.4007 -0.1612
  290MOL0     H39130  11.997   4.194   9.378 -0.4527  1.6773 -3.1438
  290MOL0     H39131  11.751   4.189   9.486  1.3943 -0.7406  0.8317
  290MOL0     H39132  11.394   3.889   9.555 -0.8582 -0.8049 -0.5015
  290MOL0     H39133  11.159   3.875   9.669  2.6066 -3.0925 -0.1955
  290MOL0     H39134   9.496   3.659   8.695 -0.7099 -0.4763  1.0512
  290MOL0     H39135   9.326   3.718   8.513 -0.0873  2.2277  1.8579
  290MOL0     H39136   8.872   3.764   8.414 -3.6264 -0.7411  2.3771
  290MOL0     H39137   8.714   3.820   8.257 -0.7788 -0.5138 -0.2884
  290MOL0     H39138   8.708   3.828   7.964  0.6477  1.8871  2.3351
  290MOL0     H39139   8.573   3.829   8.082  0.1657 -2.0067  0.1569
  290MOL0     H39140   8.428   3.734   7.924 -0.7146 -0.9776 -1.9388
  290MOL0     H39141   8.548   3.705   7.803  3.4261  0.3279  2.4213
  290MOL0     H39142   8.454   3.978   7.898  0.0313 -0.9209  0.9928
  290MOL0     H39143   8.402   3.924   7.752  0.1658  0.4262 -0.3410
  290MOL0     H39144   8.606   4.071   7.705  1.2618  0.6115 -0.4004
  290MOL0     H39145   8.693   3.972   7.820 -0.8960  3.5900  1.9034
  290MOL0     H39146   8.646   3.748   7.438  0.5804 -1.5352  2.1949
  290MOL0     H39147   8.756   3.440   8.084  0.9277  0.1364  0.8010
  290MOL0     H39148   8.969   3.291   8.327 -1.6849 -0.5340  1.1992
  290MOL0     H39149   8.831   3.268   8.213 -0.1139  0.7008 -1.3529
  290MOL0     H39150   8.990   3.329   8.152 -0.1657  3.9592  0.4501
  291MOL0     O39151   6.752   7.034   6.603  0.8413  0.1353 -0.3191
  291MOL0     C39152   6.702   7.120   6.677  0.2280 -0.4989  0.3644
  291MOL0     O39153   6.783   7.196   6.759  0.6141  0.5408 -0.7595
  291MOL0     C39154   6.915   7.169   6.763 -0.1402  0.3560 -0.2677
  291MOL0     C39155   7.002   7.267   6.715  0.6024  0.2037  0.0960
  291MOL0     C39156   7.136   7.253   6.722 -0.3636  0.1637 -0.9644
  291MOL0     C39157   7.195   7.137   6.782 -0.4700  0.3142 -0.5388
  291MOL0     O39158   7.330   7.113   6.781  0.0942 -0.1173 -0.0168
  291MOL0     C39159   7.414   7.173   6.681  0.3933  0.2053 -0.3715
  291MOL0     C39160   7.404   7.108   6.537 -0.5374 -0.3457 -0.8108
  291MOL0     C39161   7.466   7.186   6.428  0.1388 -0.1486 -0.3986
  291MOL0     C39162   7.479   7.100   6.305  0.5795  0.8019 -0.2775
  291MOL0     C39163   7.544   7.183   6.185  0.4258 -0.4835 -0.6388
  291MOL0     C39164   7.556   7.107   6.057 -0.1384  0.9855  0.4045
  291MOL0     C39165   7.652   7.169   5.955  0.0335  0.7346  0.6919
  291MOL0     C39166   7.636   7.105   5.814  0.5405 -0.1776  0.0369
  291MOL0     N39167   7.727   7.150   5.712  0.9504 -0.0767  0.1408
  291MOL0     C39168   7.717   7.255   5.618  0.0138 -0.3816 -0.1616
  291MOL0     C39169   7.839   7.238   5.553 -1.3699  0.5322 -0.2813
  291MOL0     C39170   7.891   7.314   5.442  0.1810  0.5714 -0.6395
  291MOL0     C39171   7.779   7.338   5.343  0.4525 -0.4442  0.5204
  291MOL0     C39172   7.823   7.349   5.202 -0.1906  0.1974  0.1618
  291MOL0     C39173   7.863   7.496   5.174 -0.7434  0.3804  0.0326
  291MOL0     O39174   7.889   7.523   5.028 -0.0666 -0.1687 -0.0674
  291MOL0     C39175   7.997   7.468   4.964 -0.3448  0.1956 -0.0957
  291MOL0     C39176   8.107   7.405   5.032 -0.4050  0.1956 -0.1494
  291MOL0     C39177   8.225   7.363   4.966 -0.3266 -0.3452 -0.0545
  291MOL0     C39178   8.252   7.400   4.843  1.0050 -0.2314  0.8317
  291MOL0     C39179   8.378   7.371   4.773 -0.0116 -0.1361 -0.2865
  291MOL0     O39180   8.383   7.413   4.645 -0.6321 -0.0416 -0.3660
  291MOL0     C39181   8.495   7.386   4.573  0.2708 -0.7299  0.5988
  291MOL0     C39182   8.630   7.390   4.614 -0.0983  0.1709 -0.0112
  291MOL0     C39183   8.733   7.377   4.525  0.4963  0.4726 -0.6629
  291MOL0     C39184   8.712   7.364   4.385 -0.3630 -0.2204  0.7151
  291MOL0     O39185   8.820   7.371   4.297 -0.2167  0.1803 -0.3615
  291MOL0     C39186   8.958   7.345   4.332 -0.5506  0.1649 -0.4856
  291MOL0     C39187   9.048   7.471   4.330  0.3273 -0.3567 -0.6102
  291MOL0     C39188   9.194   7.453   4.373  0.6962 -0.4021  0.2665
  291MOL0     C39189   9.258   7.592   4.405  0.9040 -0.1427  0.9249
  291MOL0     C39190   9.415   7.572   4.418  0.3290  0.2159 -0.4083
  291MOL0     C39191   9.473   7.710   4.428 -0.2618  0.2614 -0.5915
  291MOL0     C39192   9.630   7.704   4.404  0.6567 -0.3442  0.5503
  291MOL0     C39193   9.700   7.839   4.437  0.6548 -0.0586  0.0088
  291MOL0    Cl39194   9.618   7.967   4.338 -0.3233 -0.1592  0.5551
  291MOL0     C39195   8.575   7.351   4.353  0.0926 -1.1022  0.2803
  291MOL0     C39196   8.465   7.361   4.444  0.3618  0.3135  0.4399
  291MOL0     O39197   8.474   7.337   4.842 -1.1991 -0.1915  0.0988
  291MOL0     C39198   8.145   7.456   4.769  0.7823  1.4091  0.2843
  291MOL0     C39199   8.014   7.488   4.827 -0.6369  0.1717 -0.4158
  291MOL0     N39200   7.916   7.140   5.609  0.3114  0.6574  0.4236
  291MOL0     N39201   7.846   7.088   5.700  0.4126 -0.0891 -0.0601
  291MOL0     C39202   7.108   7.038   6.836 -0.5228 -0.2371 -0.9348
  291MOL0     C39203   6.968   7.046   6.824  0.0848 -0.1810  1.0005
  291MOL0     C39204   6.551   7.145   6.672 -0.0337 -0.7893 -1.0035
  291MOL0     C39205   6.501   7.266   6.724 -0.0689  0.4189 -0.7629
  291MOL0     C39206   6.368   7.301   6.709  0.3305  0.6509 -0.4344
  291MOL0     C39207   6.278   7.216   6.647  0.3732 -0.1199  0.2823
  291MOL0     O39208   6.145   7.251   6.634  0.3337  0.3816  0.4874
  291MOL0     C39209   6.077   7.336   6.735 -0.4970  0.9263  0.3483
  291MOL0     C39210   5.928   7.309   6.721 -0.1691  0.5074 -1.1241
  291MOL0     C39211   5.869   7.345   6.583 -0.3115 -0.4617 -1.0631
  291MOL0     C39212   5.739   7.269   6.562 -0.6579  0.5847  1.0345
  291MOL0     C39213   5.643   7.311   6.663  0.2107 -0.5849 -0.2936
  291MOL0     C39214   5.556   7.327   6.748  0.6639 -0.9481  0.3274
  291MOL0     C39215   6.328   7.091   6.590 -0.3987 -0.2436  0.2084
  291MOL0     C39216   6.458   7.058   6.608 -0.0671  0.3202  0.5619
  291MOL0     C39217   6.492   6.917   6.580 -0.0139 -0.2515 -0.6252
  291MOL0     H39218   6.960   7.353   6.664  0.4037 -0.3850 -0.7544
  291MOL0     H39219   7.199   7.329   6.677  2.3424 -0.0381  2.0656
  291MOL0     H39220   7.390   7.277   6.656  0.5489  0.0245 -1.3082
  291MOL0     H39221   7.517   7.164   6.719  0.2575 -2.0665 -0.4128
  291MOL0     H39222   7.303   7.072   6.511 -0.1624 -0.3699 -2.3483
  291MOL0     H39223   7.465   7.019   6.556  0.5999  0.5504 -0.1856
  291MOL0     H39224   7.558   7.237   6.458  0.5376  0.3954 -2.3693
  291MOL0     H39225   7.408   7.272   6.393  1.1855  0.3509 -0.9534
  291MOL0     H39226   7.548   7.016   6.320  2.6912  2.0957 -2.2396
  291MOL0     H39227   7.382   7.071   6.264  0.9433  3.4418 -3.3615
  291MOL0     H39228   7.488   7.277   6.177  0.9688 -0.1348 -0.3906
  291MOL0     H39229   7.643   7.210   6.222 -1.0608  1.7853  2.1061
  291MOL0     H39230   7.610   7.015   6.083 -3.3117 -1.3718 -0.6333
  291MOL0     H39231   7.464   7.077   6.006  1.1262 -0.3668 -1.1885
  291MOL0     H39232   7.759   7.158   5.974  0.7740 -4.2977 -4.0446
  291MOL0     H39233   7.622   7.274   5.961 -2.8536  0.0544 -0.1615
  291MOL0     H39234   7.640   6.996   5.820  0.4250 -0.3643 -2.4209
  291MOL0     H39235   7.535   7.134   5.785  0.9216  0.6532 -0.5035
  291MOL0     H39236   7.641   7.329   5.596 -0.0338 -0.6490 -0.9187
  291MOL0     H39237   7.929   7.409   5.479  1.2959  1.0263 -2.7783
  291MOL0     H39238   7.974   7.260   5.393  1.6267  0.9718  1.2665
  291MOL0     H39239   7.698   7.265   5.347  0.4950 -0.4478  3.5807
  291MOL0     H39240   7.722   7.424   5.380 -0.8340 -1.5931  1.3007
  291MOL0     H39241   7.741   7.316   5.137  0.1485 -1.9130  0.7002
  291MOL0     H39242   7.905   7.278   5.184 -2.3072 -2.3718 -0.0788
  291MOL0     H39243   7.951   7.526   5.232 -2.0718  3.1755  0.8003
  291MOL0     H39244   7.788   7.571   5.201  0.9472  2.2778 -0.2813
  291MOL0     H39245   8.102   7.396   5.140 -0.3609 -2.0025 -0.2796
  291MOL0     H39246   8.304   7.318   5.026  0.9065 -0.7903 -1.9198
  291MOL0     H39247   8.650   7.402   4.720  1.1976  1.2158 -0.3506
  291MOL0     H39248   8.827   7.385   4.578 -0.8792 -0.1415  2.0481
  291MOL0     H39249   8.974   7.314   4.436  1.1923  0.1596 -0.7259
  291MOL0     H39250   9.002   7.277   4.258  0.4583  1.6479 -1.3031
  291MOL0     H39251   9.032   7.518   4.233 -2.0983  0.5538  0.1597
  291MOL0     H39252   9.020   7.538   4.412  2.4128 -0.2803  0.0953
  291MOL0     H39253   9.194   7.373   4.448 -2.4316 -1.5095 -0.7645
  291MOL0     H39254   9.254   7.418   4.288 -0.2264  0.0811 -0.6052
  291MOL0     H39255   9.214   7.623   4.500 -2.6095 -1.6819 -0.0460
  291MOL0     H39256   9.243   7.674   4.334  2.7553  1.3442  2.1410
  291MOL0     H39257   9.455   7.522   4.329 -1.0080 -0.0563 -0.8812
  291MOL0     H39258   9.430   7.507   4.505 -1.9243  0.5044  0.2446
  291MOL0     H39259   9.430   7.779   4.355 -1.0995 -0.9393 -1.2574
  291MOL0     H39260   9.451   7.755   4.525  3.1721  1.4289 -0.2210
  291MOL0     H39261   9.656   7.666   4.305 -0.6791 -1.9115  0.7606
  291MOL0     H39262   9.678   7.643   4.481 -1.0492 -0.1628  1.8147
  291MOL0     H39263   9.688   7.872   4.541  0.2194  1.3531 -0.4666
  291MOL0     H39264   9.808   7.831   4.420  0.3619 -0.8409 -1.7070
  291MOL0     H39265   8.544   7.349   4.249 -0.5655  3.6306  0.1361
  291MOL0     H39266   8.365   7.346   4.404  0.6726  3.2843 -1.8357
  291MOL0     H39267   8.172   7.476   4.665 -1.3695  1.3866 -0.3154
  291MOL0     H39268   7.940   7.530   4.760  0.8894  1.0883 -1.5957
  291MOL0     H39269   7.161   6.962   6.892  0.7099  1.7253  0.7436
  291MOL0     H39270   6.911   6.964   6.867 -0.0894 -0.0957  0.9358
  291MOL0     H39271   6.575   7.330   6.773  1.0823 -0.8352 -0.8070
  291MOL0     H39272   6.348   7.397   6.754  0.3375 -0.4935  2.1950
  291MOL0     H39273   6.098   7.437   6.698 -0.9530  1.8478  2.4673
  291MOL0     H39274   6.120   7.320   6.834 -0.6346  1.1074  0.4394
  291MOL0     H39275   5.866   7.360   6.795 -1.1969 -0.8721 -0.9986
  291MOL0     H39276   5.905   7.207   6.753 -0.4083  1.5899  2.6119
  291MOL0     H39277   5.935   7.308   6.504  1.8717 -1.5080  1.1247
  291MOL0     H39278   5.850   7.452   6.577  1.4526 -0.0835 -0.3391
  291MOL0     H39279   5.702   7.271   6.459 -1.5401 -1.4303  1.2665
  291MOL0     H39280   5.744   7.161   6.581 -1.1800  0.4833  0.6372
  291MOL0     H39281   5.477   7.361   6.812 -1.5937 -1.8627 -1.8445
  291MOL0     H39282   6.257   7.019   6.552 -0.6663 -1.3299  2.6038
  291MOL0     H39283   6.401   6.857   6.565 -0.2986 -0.2740  0.9361
  291MOL0     H39284   6.558   6.911   6.494 -1.9099 -1.7313 -2.0706
  291MOL0     H39285   6.541   6.871   6.667  0.4505 -0.1437 -0.8280
  292MOL0     O39286   7.018   1.110   7.914 -0.6136  0.3411  0.5729
  292MOL0     C39287   6.954   1.153   7.814 -0.8297 -0.5492  0.1985
  292MOL0     O39288   7.010   1.172   7.696 -0.2829  0.4593 -0.2882
  292MOL0     C39289   7.143   1.144   7.676 -0.5980  0.0232 -0.3490
  292MOL0     C39290   7.219   1.244   7.603  1.1002 -0.8171 -0.2601
  292MOL0     C39291   7.354   1.218   7.571  0.2143 -0.0867  0.5874
  292MOL0     C39292   7.406   1.088   7.596  0.0672 -0.6679 -0.5342
  292MOL0     O39293   7.532   1.050   7.568  0.1845 -0.4063 -0.0125
  292MOL0     C39294   7.564   1.041   7.433 -0.1094  0.2163  0.1843
  292MOL0     C39295   7.714   1.014   7.415  0.7776  0.5824 -0.2108
  292MOL0     C39296   7.791   1.137   7.471 -0.5599 -0.3939 -0.8113
  292MOL0     C39297   7.936   1.111   7.450  0.3647 -0.0935  0.2825
  292MOL0     C39298   8.015   1.230   7.418 -0.1943  0.0059  0.2760
  292MOL0     C39299   8.162   1.192   7.423 -0.4084  0.7136 -0.6502
  292MOL0     C39300   8.215   1.137   7.293  0.1893  0.5849  0.2483
  292MOL0     C39301   8.185   1.222   7.166  0.4000  0.7377 -0.6853
  292MOL0     N39302   8.302   1.227   7.079  0.0828  0.0146 -0.3145
  292MOL0     C39303   8.352   1.138   6.985  0.3770 -0.5429  0.1621
  292MOL0     C39304   8.461   1.195   6.932  0.8167  0.3009  0.6731
  292MOL0     C39305   8.546   1.123   6.826  0.9196  0.1669 -0.3375
  292MOL0     C39306   8.534   1.190   6.684 -0.7531 -0.5292  0.1322
  292MOL0     C39307   8.612   1.100   6.583  0.0083 -0.2248 -0.5832
  292MOL0     C39308   8.629   1.169   6.444 -0.4515  0.6037 -1.1055
  292MOL0     O39309   8.495   1.179   6.392 -0.2091  0.1991 -0.0359
  292MOL0     C39310   8.484   1.227   6.265  0.1468  0.0018  0.1397
  292MOL0     C39311   8.359   1.207   6.209 -0.3656 -0.2042 -0.0635
  292MOL0     C39312   8.339   1.266   6.079  0.2302  0.6180 -1.0315
  292MOL0     C39313   8.450   1.326   6.010  0.9942 -0.4017 -0.4668
  292MOL0     C39314   8.421   1.394   5.882 -0.2489 -0.2404 -0.5491
  292MOL0     O39315   8.307   1.357   5.804 -0.6782  0.0777 -0.2362
  292MOL0     C39316   8.288   1.414   5.684  0.3680 -0.0260  0.4438
  292MOL0     C39317   8.155   1.448   5.660  0.2966  0.2254  0.2935
  292MOL0     C39318   8.123   1.527   5.550 -0.7061  0.4568  0.2255
  292MOL0     C39319   8.218   1.552   5.446 -0.7306 -0.2767 -0.0298
  292MOL0     O39320   8.192   1.613   5.329  0.2766 -0.5865  0.1944
  292MOL0     C39321   8.080   1.693   5.309  0.6969  0.0287 -0.4187
  292MOL0     C39322   8.101   1.827   5.382 -0.1015  0.0444 -0.2502
  292MOL0     C39323   8.036   1.935   5.299  0.2670  0.4684 -0.2722
  292MOL0     C39324   7.877   1.924   5.288 -0.4550  0.0906  0.0878
  292MOL0     C39325   7.830   2.033   5.190  0.9471 -1.1968 -0.3391
  292MOL0     C39326   7.673   2.042   5.176  0.0123  1.2598 -0.4662
  292MOL0     C39327   7.618   1.928   5.082 -0.5300 -0.2447 -0.8776
  292MOL0     C39328   7.487   1.973   5.020 -0.5472  0.0155 -0.5794
  292MOL0    Cl39329   7.367   2.012   5.143  0.1794  0.0646 -0.1566
  292MOL0     C39330   8.345   1.505   5.462 -0.8590  0.9699  0.0210
  292MOL0     C39331   8.381   1.439   5.584  0.2927  0.9148  1.2525
  292MOL0     O39332   8.500   1.480   5.855  0.1172 -1.0402  0.0266
  292MOL0     C39333   8.569   1.330   6.065  0.2006 -0.3971 -0.0493
  292MOL0     C39334   8.586   1.279   6.191 -0.1557 -0.2260 -0.2143
  292MOL0     N39335   8.484   1.315   6.991 -0.2329  0.3750 -0.2159
  292MOL0     N39336   8.392   1.330   7.084  0.3008  0.4455  0.4334
  292MOL0     C39337   7.317   0.993   7.653  0.3307  0.0881 -0.1720
  292MOL0     C39338   7.189   1.010   7.691 -0.0323 -0.0906  0.4236
  292MOL0     C39339   6.807   1.173   7.833  0.5522  0.7934 -0.0395
  292MOL0     C39340   6.738   1.247   7.731 -0.8948 -0.7670 -0.4412
  292MOL0     C39341   6.595   1.256   7.735 -0.5612 -0.6502 -0.2556
  292MOL0     C39342   6.533   1.213   7.845  0.9256 -0.0701  0.4627
  292MOL0     O39343   6.395   1.225   7.867  0.1733  0.5587  0.2746
  292MOL0     C39344   6.300   1.286   7.781  0.0565 -0.5730 -0.0066
  292MOL0     C39345   6.165   1.234   7.813 -0.2741 -1.0614 -0.6999
  292MOL0     C39346   6.066   1.299   7.714  0.0963  0.3236 -1.2751
  292MOL0     C39347   5.927   1.253   7.736  0.0465 -0.2969 -0.5530
  292MOL0     C39348   5.837   1.309   7.637 -0.2725 -0.9159 -0.0801
  292MOL0     C39349   5.775   1.357   7.539 -0.0236  0.5523  0.1639
  292MOL0     C39350   6.596   1.135   7.941  0.1358  0.4697 -0.2612
  292MOL0     C39351   6.735   1.118   7.945 -0.1914  0.3622 -0.3216
  292MOL0     C39352   6.793   1.033   8.052 -0.1544 -0.1740 -0.3302
  292MOL0     H39353   7.162   1.334   7.585 -1.4681 -2.3708 -0.3886
  292MOL0     H39354   7.400   1.301   7.519  0.1669  0.2435  1.0676
  292MOL0     H39355   7.504   0.954   7.406  0.6818 -0.5364  0.8320
  292MOL0     H39356   7.534   1.135   7.385  0.8856  2.0195  2.8642
  292MOL0     H39357   7.735   1.009   7.308  0.1415  2.0922 -0.4247
  292MOL0     H39358   7.738   0.918   7.462 -1.5860  0.8179  1.6973
  292MOL0     H39359   7.773   1.140   7.579  1.3570  2.2822 -0.4624
  292MOL0     H39360   7.747   1.228   7.429 -0.9962 -0.6025 -0.8116
  292MOL0     H39361   7.969   1.056   7.539  1.1702  1.1506  0.7821
  292MOL0     H39362   7.950   1.042   7.366 -1.8073  1.1582 -1.1923
  292MOL0     H39363   7.981   1.272   7.323 -0.1629  1.6043  0.9395
  292MOL0     H39364   7.996   1.316   7.483  0.5965  0.0535  0.4512
  292MOL0     H39365   8.215   1.286   7.445  0.3773  0.0044  0.6103
  292MOL0     H39366   8.181   1.127   7.509 -1.1559  0.2342 -0.8425
  292MOL0     H39367   8.186   1.033   7.279  3.8496 -0.4805 -0.5287
  292MOL0     H39368   8.323   1.121   7.300  0.2932 -0.9853 -3.0216
  292MOL0     H39369   8.099   1.176   7.117  2.1493  0.1835 -3.5136
  292MOL0     H39370   8.158   1.321   7.201 -0.2001  0.1585  0.5398
  292MOL0     H39371   8.318   1.038   6.959  2.9750 -1.5840  0.3919
  292MOL0     H39372   8.650   1.131   6.857  0.3819  2.8707  1.0213
  292MOL0     H39373   8.503   1.022   6.825  1.2662 -0.0567  2.0257
  292MOL0     H39374   8.432   1.208   6.649 -0.0531  1.2822 -1.1354
  292MOL0     H39375   8.585   1.286   6.687 -1.1695 -0.2212 -1.5679
  292MOL0     H39376   8.564   1.002   6.579 -0.9145  0.0183  2.4231
  292MOL0     H39377   8.709   1.084   6.632  0.2441  2.6917  0.0884
  292MOL0     H39378   8.706   1.116   6.388  0.6861 -1.0856  1.7866
  292MOL0     H39379   8.669   1.269   6.463 -2.9641  1.5255 -0.1928
  292MOL0     H39380   8.280   1.178   6.278 -1.4179  0.8783 -0.7820
  292MOL0     H39381   8.241   1.259   6.032  0.0539 -2.2363 -0.3931
  292MOL0     H39382   8.075   1.428   5.731  0.1777 -0.6610 -0.0652
  292MOL0     H39383   8.024   1.569   5.539  0.0519  2.4497  0.6420
  292MOL0     H39384   8.069   1.712   5.202  1.0768  1.3363 -0.2429
  292MOL0     H39385   7.982   1.652   5.335  0.2359  2.7292  2.7503
  292MOL0     H39386   8.058   1.816   5.482 -2.0415  2.1581 -0.7719
  292MOL0     H39387   8.206   1.853   5.398 -0.4878  0.8896  1.1240
  292MOL0     H39388   8.049   2.035   5.343  0.2564  1.2640 -2.0067
  292MOL0     H39389   8.076   1.953   5.199 -0.4157  1.4025 -0.3897
  292MOL0     H39390   7.824   1.927   5.384  2.5609 -1.4701  1.9311
  292MOL0     H39391   7.843   1.833   5.237  1.7572  0.3248 -1.9618
  292MOL0     H39392   7.873   2.003   5.094  0.6129 -2.9169  0.0154
  292MOL0     H39393   7.863   2.136   5.211 -1.1792 -0.2902 -1.1637
  292MOL0     H39394   7.634   2.040   5.279  0.7035 -1.5744 -0.1917
  292MOL0     H39395   7.642   2.140   5.139  0.8258  3.0712  3.1366
  292MOL0     H39396   7.613   1.834   5.138  0.3578  0.5354  0.5642
  292MOL0     H39397   7.689   1.917   4.999  0.0980  0.6973 -0.4816
  292MOL0     H39398   7.505   2.053   4.948  3.3735 -0.9441 -0.9000
  292MOL0     H39399   7.453   1.886   4.962  0.5881  0.1866 -1.5204
  292MOL0     H39400   8.416   1.507   5.380 -0.7766 -2.7100 -0.1723
  292MOL0     H39401   8.479   1.396   5.599 -0.6115 -1.7762  0.2341
  292MOL0     H39402   8.653   1.361   6.003 -1.9747 -0.0304 -3.0200
  292MOL0     H39403   8.679   1.294   6.245 -0.0784 -3.3957  0.7843
  292MOL0     H39404   7.355   0.892   7.666 -1.2721 -0.4328  0.7777
  292MOL0     H39405   7.140   0.934   7.751  2.1116  0.4865  3.1117
  292MOL0     H39406   6.792   1.294   7.649  0.3146 -1.6157 -0.1570
  292MOL0     H39407   6.533   1.296   7.655  1.2058  0.8185 -0.9466
  292MOL0     H39408   6.322   1.267   7.675 -2.3712  0.7178 -0.8345
  292MOL0     H39409   6.299   1.396   7.781 -0.4757 -0.5534  1.8718
  292MOL0     H39410   6.138   1.255   7.917 -1.8790 -1.5497 -0.9951
  292MOL0     H39411   6.160   1.129   7.782 -0.1947 -0.6123 -2.3638
  292MOL0     H39412   6.091   1.270   7.611  0.4992 -3.0317 -0.3745
  292MOL0     H39413   6.065   1.407   7.731  1.3991 -0.0186  1.6422
  292MOL0     H39414   5.929   1.143   7.742  1.1512 -0.1986  2.2102
  292MOL0     H39415   5.893   1.281   7.836 -0.7134 -0.1085 -0.8568
  292MOL0     H39416   5.752   1.410   7.449  0.7815 -1.9724 -1.6292
  292MOL0     H39417   6.537   1.091   8.020 -1.3820 -3.9182 -3.4121
  292MOL0     H39418   6.831   0.940   8.009 -1.9265 -0.8327 -0.5512
  292MOL0     H39419   6.856   1.100   8.111 -2.8506  2.5189 -0.2652
  292MOL0     H39420   6.715   1.001   8.121  0.3159  0.7350  0.6391
  293MOL0     O39421   3.099   7.664   6.623  0.8495  0.2663 -0.4311
  293MOL0     C39422   3.057   7.637   6.737  0.6020  0.0694  0.5434
  293MOL0     O39423   3.071   7.721   6.842 -0.0422 -0.1607 -0.3714
  293MOL0     C39424   3.161   7.824   6.852 -0.2696  1.0850  1.2342
  293MOL0     C39425   3.300   7.799   6.837  0.4322 -0.1019  0.0164
  293MOL0     C39426   3.390   7.905   6.836 -0.6642 -0.3337 -0.1547
  293MOL0     C39427   3.341   8.035   6.861 -0.2929  0.6520  0.2293
  293MOL0     O39428   3.442   8.121   6.877 -0.0605  0.1551 -0.0964
  293MOL0     C39429   3.418   8.258   6.900 -0.0466  0.2411 -0.3285
  293MOL0     C39430   3.536   8.336   6.847  0.2195  0.2968 -0.4250
  293MOL0     C39431   3.541   8.478   6.891  1.2130 -0.3660 -0.1287
  293MOL0     C39432   3.620   8.563   6.790  0.0513  0.1338 -0.2122
  293MOL0     C39433   3.658   8.705   6.837 -0.2850  0.6069  0.0176
  293MOL0     C39434   3.738   8.779   6.731  0.1299 -0.2879  0.1438
  293MOL0     C39435   3.793   8.914   6.786 -0.1222 -0.4933 -0.4767
  293MOL0     C39436   3.924   8.908   6.865  0.4355  0.3959 -0.0673
  293MOL0     N39437   4.039   8.926   6.774  0.0924  0.4327  0.7761
  293MOL0     C39438   4.121   8.820   6.743 -0.1145 -0.1378 -0.8267
  293MOL0     C39439   4.222   8.869   6.686 -0.6524 -0.4874 -0.1721
  293MOL0     C39440   4.336   8.779   6.630  0.3471 -0.0809  0.3141
  293MOL0     C39441   4.298   8.704   6.501  0.2180  0.4496  0.4590
  293MOL0     C39442   4.197   8.592   6.529  0.3012  0.2220 -0.5212
  293MOL0     C39443   4.165   8.516   6.398 -0.6914 -0.0385 -0.6247
  293MOL0     O39444   4.287   8.440   6.355 -0.1771 -0.2644  0.2617
  293MOL0     C39445   4.283   8.297   6.360  0.0634 -0.3196 -0.6819
  293MOL0     C39446   4.340   8.230   6.252 -1.5105  0.4195 -0.3264
  293MOL0     C39447   4.334   8.091   6.250 -0.0226  0.1516  0.0244
  293MOL0     C39448   4.294   8.015   6.357 -0.1853  0.2384  0.1455
  293MOL0     C39449   4.302   7.871   6.365 -1.1452 -0.3026 -0.6903
  293MOL0     O39450   4.335   7.807   6.247  0.2436  0.4480  0.4988
  293MOL0     C39451   4.367   7.675   6.252 -0.7610  0.5811 -0.2863
  293MOL0     C39452   4.461   7.613   6.345 -0.2058 -0.1909 -0.2495
  293MOL0     C39453   4.496   7.477   6.333  0.6462  0.5778  0.4215
  293MOL0     C39454   4.437   7.404   6.230 -0.9231  0.1656  0.1839
  293MOL0     O39455   4.477   7.279   6.217 -0.0955  0.1485 -0.0256
  293MOL0     C39456   4.521   7.219   6.091 -0.1884 -0.8571  0.4572
  293MOL0     C39457   4.407   7.120   6.044 -0.5104  0.4921  0.0743
  293MOL0     C39458   4.394   6.988   6.121 -0.3863  0.4749 -0.0723
  293MOL0     C39459   4.263   6.916   6.090 -0.5167 -0.2217 -0.1620
  293MOL0     C39460   4.240   6.787   6.184  0.0660  0.4265  0.8092
  293MOL0     C39461   4.132   6.692   6.131 -0.3684 -0.5988 -0.3425
  293MOL0     C39462   3.998   6.758   6.095  1.0171 -0.1039 -0.6977
  293MOL0     C39463   3.901   6.771   6.210  0.5451  0.5140 -0.1039
  293MOL0    Cl39464   3.809   6.611   6.214  0.0418  0.4200  0.1492
  293MOL0     C39465   4.342   7.467   6.147 -0.9225 -0.1718 -0.1033
  293MOL0     C39466   4.313   7.599   6.155 -0.0403 -0.6333 -0.2777
  293MOL0     O39467   4.291   7.812   6.472  0.3841  0.3584 -0.9053
  293MOL0     C39468   4.244   8.085   6.464  0.4764  0.1967  0.1254
  293MOL0     C39469   4.240   8.221   6.476  0.9151 -0.1117  0.6340
  293MOL0     N39470   4.205   9.006   6.668  0.8448 -0.4542  0.0884
  293MOL0     N39471   4.096   9.044   6.727 -0.6626 -0.4351 -0.3752
  293MOL0     C39472   3.204   8.061   6.873  0.0961 -0.0960 -0.9592
  293MOL0     C39473   3.115   7.951   6.856  0.0059 -0.0660 -0.4009
  293MOL0     C39474   2.973   7.509   6.749 -0.2563  0.4991 -0.1264
  293MOL0     C39475   2.985   7.414   6.643 -0.6723 -0.7797  0.3106
  293MOL0     C39476   2.932   7.287   6.652  0.0464 -0.6808  0.0624
  293MOL0     C39477   2.865   7.248   6.770 -0.0420  0.5495 -0.7257
  293MOL0     O39478   2.818   7.123   6.776 -0.1396  0.3828  0.1929
  293MOL0     C39479   2.729   7.082   6.877 -0.1050 -0.1172 -0.2640
  293MOL0     C39480   2.672   6.940   6.856 -0.8350  0.9475  0.1763
  293MOL0     C39481   2.591   6.918   6.722 -0.1499  0.1103  0.2958
  293MOL0     C39482   2.546   6.761   6.707 -0.7809 -1.4952 -0.4474
  293MOL0     C39483   2.531   6.724   6.565 -1.1217 -0.7266 -0.1061
  293MOL0     C39484   2.501   6.692   6.454  0.1323 -0.4489 -0.1617
  293MOL0     C39485   2.856   7.340   6.874 -0.1109 -0.0122  0.4612
  293MOL0     C39486   2.897   7.472   6.867  0.5239 -0.5189  0.0500
  293MOL0     C39487   2.867   7.566   6.992 -0.4506  0.6779  0.2738
  293MOL0     H39488   3.330   7.702   6.797  1.5507 -0.2690  1.1885
  293MOL0     H39489   3.494   7.878   6.822  0.0523  1.7497  0.8035
  293MOL0     H39490   3.334   8.296   6.840 -0.7644 -0.8573 -0.0393
  293MOL0     H39491   3.399   8.266   7.007  2.2048 -0.4082  0.1781
  293MOL0     H39492   3.553   8.324   6.740 -2.3942 -2.0046 -0.7128
  293MOL0     H39493   3.622   8.286   6.893 -1.0667 -0.3711  1.4002
  293MOL0     H39494   3.577   8.488   6.994 -1.9195  1.4863  0.9304
  293MOL0     H39495   3.436   8.508   6.900  1.2835  0.5006 -1.9865
  293MOL0     H39496   3.714   8.510   6.776 -0.6328 -1.1986 -0.0127
  293MOL0     H39497   3.565   8.571   6.696  1.0280 -1.2275 -0.9274
  293MOL0     H39498   3.566   8.757   6.865 -2.2027 -2.7052  0.3644
  293MOL0     H39499   3.723   8.702   6.925 -1.4773  0.4938  0.9074
  293MOL0     H39500   3.821   8.713   6.702  1.1220  1.3671 -0.9930
  293MOL0     H39501   3.669   8.790   6.648 -1.1327 -2.0997  0.8895
  293MOL0     H39502   3.720   8.966   6.848  0.4830 -0.7433  0.4726
  293MOL0     H39503   3.811   8.980   6.700 -2.6396  0.9225  0.0005
  293MOL0     H39504   3.933   8.981   6.945 -0.5168 -3.6534  4.1509
  293MOL0     H39505   3.939   8.814   6.918 -3.3913  0.7214  1.8949
  293MOL0     H39506   4.114   8.719   6.782  1.4425  0.8988  2.5265
  293MOL0     H39507   4.414   8.841   6.586 -1.2451 -0.4507 -3.3769
  293MOL0     H39508   4.373   8.708   6.705 -0.1653 -1.2593 -0.5136
  293MOL0     H39509   4.259   8.760   6.416 -3.4419 -3.8768 -1.1639
  293MOL0     H39510   4.388   8.657   6.460  0.1327 -1.3743  2.1797
  293MOL0     H39511   4.104   8.639   6.562 -0.7973 -0.5705 -2.3610
  293MOL0     H39512   4.239   8.537   6.613  1.3643  3.2498  1.0900
  293MOL0     H39513   4.146   8.589   6.320 -1.6256  1.1061  0.6300
  293MOL0     H39514   4.083   8.443   6.405 -2.3217  1.8107  0.3623
  293MOL0     H39515   4.395   8.281   6.173  1.9959  2.1124  2.8924
  293MOL0     H39516   4.376   8.035   6.166  0.4352  2.6351 -1.5021
  293MOL0     H39517   4.511   7.684   6.409  0.3868  0.5028 -1.4488
  293MOL0     H39518   4.573   7.425   6.389  1.8747  2.5240  0.6363
  293MOL0     H39519   4.537   7.303   6.023 -3.4293 -0.3811  0.1562
  293MOL0     H39520   4.615   7.165   6.105  0.4687  0.3031  0.7318
  293MOL0     H39521   4.318   7.182   6.059  1.1106  2.5391  2.2327
  293MOL0     H39522   4.420   7.094   5.939  0.9851  1.8941 -0.1406
  293MOL0     H39523   4.476   6.921   6.092  0.2707  1.0598  0.3700
  293MOL0     H39524   4.392   6.995   6.230  2.7420  3.9947  0.0064
  293MOL0     H39525   4.249   6.886   5.986  2.3473 -0.8119 -0.4605
  293MOL0     H39526   4.186   6.986   6.124  1.3278  0.7446  2.3898
  293MOL0     H39527   4.208   6.813   6.286 -1.6194 -2.1945  1.0414
  293MOL0     H39528   4.334   6.732   6.189  0.1730  0.2308 -1.8973
  293MOL0     H39529   4.172   6.635   6.046  1.5390 -1.1859  0.8710
  293MOL0     H39530   4.102   6.610   6.197 -1.4684  0.4114  0.4428
  293MOL0     H39531   3.947   6.691   6.025 -0.4514  1.4554 -1.1741
  293MOL0     H39532   4.013   6.846   6.033 -1.1412 -0.5992 -2.0319
  293MOL0     H39533   3.941   6.791   6.310 -1.9171 -0.4291  1.1574
  293MOL0     H39534   3.832   6.853   6.187  0.8655  1.3017  1.5587
  293MOL0     H39535   4.291   7.407   6.072 -2.3241  2.4080 -1.3381
  293MOL0     H39536   4.236   7.645   6.094 -0.2773  1.8990  1.7658
  293MOL0     H39537   4.203   8.025   6.544  1.2468  0.0263  0.3969
  293MOL0     H39538   4.195   8.272   6.560 -1.2706  1.6460 -1.4405
  293MOL0     H39539   3.170   8.163   6.886 -1.6476 -0.6436 -0.8726
  293MOL0     H39540   3.008   7.972   6.852 -0.5350 -1.4828  2.8083
  293MOL0     H39541   3.031   7.432   6.547  0.8354  0.8453  1.2996
  293MOL0     H39542   2.930   7.224   6.564  1.3412 -3.4787  1.8510
  293MOL0     H39543   2.647   7.153   6.893 -1.2128 -1.6671  1.1889
  293MOL0     H39544   2.794   7.081   6.965  1.0128 -2.7852 -1.0384
  293MOL0     H39545   2.604   6.918   6.939 -0.3092 -0.3092  0.3032
  293MOL0     H39546   2.758   6.873   6.868 -0.7143  1.3014  1.3272
  293MOL0     H39547   2.652   6.945   6.635 -0.8642 -1.3399 -0.7078
  293MOL0     H39548   2.500   6.978   6.721 -1.3903 -1.5920 -2.8682
  293MOL0     H39549   2.622   6.690   6.741  1.0370 -1.1550 -3.4309
  293MOL0     H39550   2.449   6.742   6.754 -0.7603  2.5619  1.6165
  293MOL0     H39551   2.462   6.667   6.358 -2.3687  3.1851 -0.2803
  293MOL0     H39552   2.790   7.306   6.953  0.0290 -0.6720  0.2955
  293MOL0     H39553   2.962   7.597   7.038 -0.7626 -0.8722  2.0689
  293MOL0     H39554   2.828   7.659   6.950 -1.3828  0.3624  0.4298
  293MOL0     H39555   2.808   7.529   7.075  4.1987 -0.4896  3.4709
  294MOL0     O39556   4.554   3.686   7.951  0.3414  0.1277  0.0654
  294MOL0     C39557   4.516   3.788   7.902 -0.2285 -0.0998  0.7764
  294MOL0     O39558   4.574   3.853   7.790 -0.7629  0.7076  0.0449
  294MOL0     C39559   4.672   3.781   7.718  0.4013 -0.0476  0.3337
  294MOL0     C39560   4.647   3.686   7.622 -0.0542  1.2735  0.1453
  294MOL0     C39561   4.750   3.617   7.551 -0.1839 -0.6809  0.2847
  294MOL0     C39562   4.881   3.625   7.589 -0.2919 -0.5516 -0.0143
  294MOL0     O39563   4.962   3.547   7.510 -0.8097  0.3291  0.7147
  294MOL0     C39564   5.086   3.500   7.556 -0.1025  0.5126 -0.5868
  294MOL0     C39565   5.138   3.421   7.444  0.5402 -0.3694  0.2135
  294MOL0     C39566   5.285   3.376   7.475 -0.1575  0.3440 -0.4931
  294MOL0     C39567   5.339   3.282   7.366 -1.0182 -0.3909  0.0935
  294MOL0     C39568   5.482   3.231   7.396  0.2058  0.1937 -0.8112
  294MOL0     C39569   5.559   3.186   7.268 -0.3777  0.1651 -0.5045
  294MOL0     C39570   5.504   3.057   7.207  0.5204 -0.5083  0.2736
  294MOL0     C39571   5.554   3.029   7.062 -0.0199 -0.4187  1.9789
  294MOL0     N39572   5.695   3.013   7.041 -1.0311  0.7109 -0.2030
  294MOL0     C39573   5.753   2.913   6.963  0.1448  0.4612  0.3645
  294MOL0     C39574   5.882   2.947   6.970  0.7689  0.7184  0.0842
  294MOL0     C39575   5.992   2.854   6.928 -0.3055  0.1925 -1.4839
  294MOL0     C39576   6.012   2.809   6.788  0.4180  0.1381 -0.0376
  294MOL0     C39577   5.908   2.730   6.714 -0.2065  0.1774 -0.0231
  294MOL0     C39578   5.929   2.725   6.561  0.8005 -0.3314  0.9941
  294MOL0     O39579   5.871   2.607   6.501 -0.6685  0.1989 -0.0744
  294MOL0     C39580   5.924   2.489   6.546 -0.3936 -0.1647  0.6530
  294MOL0     C39581   5.853   2.396   6.636 -0.3868 -1.1664  0.4143
  294MOL0     C39582   5.908   2.278   6.672 -0.8809  0.0867 -0.5247
  294MOL0     C39583   6.027   2.238   6.612 -0.5774  1.2469 -0.6859
  294MOL0     C39584   6.078   2.107   6.651  0.0794  0.3029 -0.2288
  294MOL0     O39585   6.002   2.035   6.735  0.0730 -0.5749 -0.3227
  294MOL0     C39586   6.062   1.918   6.773  0.2920 -0.3979 -0.6695
  294MOL0     C39587   6.007   1.794   6.731  0.6926  0.3423  0.2851
  294MOL0     C39588   6.071   1.674   6.753 -0.3878 -0.1390 -1.0106
  294MOL0     C39589   6.189   1.672   6.835 -0.3669 -0.0168 -0.0149
  294MOL0     O39590   6.258   1.558   6.851 -0.4230  0.2416  0.2023
  294MOL0     C39591   6.235   1.448   6.760  0.0198  0.3883  0.0038
  294MOL0     C39592   6.336   1.331   6.770 -0.7203 -0.1859 -0.5223
  294MOL0     C39593   6.478   1.376   6.737 -0.3925  0.6113  0.3447
  294MOL0     C39594   6.565   1.253   6.737  0.9999  0.3068  0.3062
  294MOL0     C39595   6.720   1.282   6.738 -0.5860  0.1968 -0.1469
  294MOL0     C39596   6.772   1.317   6.601 -0.2870  0.0640  0.1951
  294MOL0     C39597   6.921   1.309   6.608 -0.5045 -0.2740 -1.5696
  294MOL0     C39598   6.980   1.352   6.480 -0.0516  0.1080 -0.4229
  294MOL0    Cl39599   6.941   1.526   6.433  0.0960  0.1470 -0.1078
  294MOL0     C39600   6.230   1.791   6.892 -0.2934 -0.2175  0.4205
  294MOL0     C39601   6.166   1.914   6.866  0.1802 -0.3830  0.7689
  294MOL0     O39602   6.181   2.070   6.594  0.2960  0.7462 -0.1866
  294MOL0     C39603   6.100   2.324   6.519 -0.9671 -0.3233 -0.4811
  294MOL0     C39604   6.043   2.444   6.490  0.4425 -0.1955 -0.3720
  294MOL0     N39605   5.897   3.054   7.057 -0.1487 -0.6654  0.3477
  294MOL0     N39606   5.785   3.102   7.095  0.3996 -0.3897  0.2112
  294MOL0     C39607   4.912   3.709   7.694  0.1448  0.1752  0.2062
  294MOL0     C39608   4.809   3.791   7.745  0.1816  0.1769 -0.9287
  294MOL0     C39609   4.399   3.849   7.978  0.5122  1.0392  1.0246
  294MOL0     C39610   4.328   3.782   8.079 -0.7787  0.0297  0.5106
  294MOL0     C39611   4.219   3.830   8.147  0.1572 -0.2684 -0.0437
  294MOL0     C39612   4.173   3.960   8.124  0.7845  0.7904 -0.0754
  294MOL0     O39613   4.073   4.010   8.205 -0.0204  0.3220  0.4676
  294MOL0     C39614   4.004   4.136   8.162  0.3365  0.4829 -0.7716
  294MOL0     C39615   3.862   4.136   8.210  0.0282 -0.0588  0.0119
  294MOL0     C39616   3.776   4.034   8.150  0.0911  0.7567 -0.3053
  294MOL0     C39617   3.632   4.039   8.210  0.2210  0.4428 -0.4946
  294MOL0     C39618   3.555   4.156   8.165  1.1402  0.1395 -0.3437
  294MOL0     C39619   3.491   4.237   8.097 -0.3401  0.0716 -0.1572
  294MOL0     C39620   4.229   4.031   8.015 -0.2296  0.1478 -1.1033
  294MOL0     C39621   4.342   3.983   7.943  0.0895 -0.6860 -0.8471
  294MOL0     C39622   4.401   4.082   7.852 -0.2883  0.5274 -0.2669
  294MOL0     H39623   4.544   3.668   7.591 -0.2343  0.7466  1.0296
  294MOL0     H39624   4.729   3.540   7.478  0.1275 -1.9974  1.5400
  294MOL0     H39625   5.154   3.579   7.587 -1.0960  0.5713  1.6054
  294MOL0     H39626   5.067   3.426   7.635  0.1564  2.2565  1.1787
  294MOL0     H39627   5.146   3.489   7.359 -0.8056 -0.5212 -0.0469
  294MOL0     H39628   5.072   3.336   7.425 -1.1826  0.3899  2.3974
  294MOL0     H39629   5.291   3.322   7.570  1.2673 -0.6640 -1.1172
  294MOL0     H39630   5.347   3.465   7.487 -0.3936  0.2339  2.4740
  294MOL0     H39631   5.283   3.188   7.374  0.2437 -1.1210  0.6620
  294MOL0     H39632   5.334   3.324   7.265  1.5937 -0.5624 -0.1714
  294MOL0     H39633   5.534   3.312   7.449 -0.2671  0.6740 -1.0698
  294MOL0     H39634   5.469   3.147   7.465  3.1536 -1.6857 -2.3124
  294MOL0     H39635   5.554   3.270   7.198 -0.9793  0.4448 -0.1378
  294MOL0     H39636   5.661   3.162   7.300  0.5418 -0.3693 -3.5165
  294MOL0     H39637   5.396   3.069   7.198  0.8425  2.8316 -0.4773
  294MOL0     H39638   5.526   2.975   7.275 -1.5948 -0.8891  0.5756
  294MOL0     H39639   5.509   2.939   7.019  0.8303  0.7769 -1.7828
  294MOL0     H39640   5.525   3.105   6.989 -0.9136 -2.8277 -0.3477
  294MOL0     H39641   5.709   2.824   6.919  1.0595 -0.8312  1.9516
  294MOL0     H39642   6.081   2.902   6.969 -2.2056  1.0257  2.0365
  294MOL0     H39643   5.980   2.767   6.993  4.6123  1.6106  1.8507
  294MOL0     H39644   6.025   2.899   6.727 -4.2427  1.6493  0.8374
  294MOL0     H39645   6.104   2.750   6.792 -0.3937 -1.3272 -1.5276
  294MOL0     H39646   5.811   2.765   6.749  0.5431 -0.2915  2.7665
  294MOL0     H39647   5.912   2.629   6.757  0.8045 -1.4390 -3.5384
  294MOL0     H39648   6.035   2.734   6.539  0.3572  0.1703 -1.1578
  294MOL0     H39649   5.899   2.815   6.507  1.3182 -2.0267 -2.3803
  294MOL0     H39650   5.753   2.424   6.669 -1.0762 -1.4431 -1.3044
  294MOL0     H39651   5.854   2.228   6.753  1.6688  0.8623  1.7932
  294MOL0     H39652   5.922   1.792   6.664  0.0852  1.0297  1.0222
  294MOL0     H39653   6.034   1.591   6.695 -1.0654  0.9292 -2.1625
  294MOL0     H39654   6.137   1.398   6.764  1.3226 -2.6376 -2.0481
  294MOL0     H39655   6.237   1.485   6.657 -1.5921 -1.1825 -0.6564
  294MOL0     H39656   6.315   1.284   6.866 -1.0005 -1.9127 -1.3885
  294MOL0     H39657   6.315   1.253   6.697  0.4205 -0.0842 -0.9948
  294MOL0     H39658   6.471   1.430   6.642 -0.4851 -0.9964 -0.6020
  294MOL0     H39659   6.509   1.445   6.815 -0.2178  1.4582 -0.4575
  294MOL0     H39660   6.529   1.195   6.651 -1.2783  1.3345  0.4847
  294MOL0     H39661   6.536   1.200   6.829 -1.6811  1.1485  0.0455
  294MOL0     H39662   6.769   1.191   6.772  1.9646  2.3081  2.3106
  294MOL0     H39663   6.750   1.353   6.815 -1.5541  0.5155 -0.0539
  294MOL0     H39664   6.722   1.253   6.527 -2.2088  2.3877 -0.6233
  294MOL0     H39665   6.748   1.420   6.574 -0.6777 -0.0987 -0.0773
  294MOL0     H39666   6.963   1.216   6.646  0.5630  1.3055  1.4118
  294MOL0     H39667   6.953   1.381   6.684 -0.5724  1.8069 -3.4021
  294MOL0     H39668   7.088   1.337   6.487  0.4052  2.3502 -1.9446
  294MOL0     H39669   6.945   1.290   6.397  0.6112  0.3803 -0.9201
  294MOL0     H39670   6.323   1.780   6.946  0.8596  1.9349 -0.9977
  294MOL0     H39671   6.215   2.002   6.908  1.9684 -0.8123 -0.3059
  294MOL0     H39672   6.203   2.315   6.485 -0.2809 -0.9341  1.5963
  294MOL0     H39673   6.097   2.508   6.421  0.8735 -1.0616 -0.8560
  294MOL0     H39674   5.016   3.712   7.725  0.0641  1.4095  0.4243
  294MOL0     H39675   4.841   3.866   7.816 -0.3333  1.0444 -1.5926
  294MOL0     H39676   4.362   3.682   8.105 -3.5912 -1.5443 -1.4843
  294MOL0     H39677   4.179   3.773   8.230  1.0965 -0.3178  0.3851
  294MOL0     H39678   4.008   4.165   8.057  0.0761 -2.4428 -1.6674
  294MOL0     H39679   4.065   4.211   8.214  0.8053  0.0957 -0.7638
  294MOL0     H39680   3.831   4.239   8.193 -0.2151 -0.5550 -3.1650
  294MOL0     H39681   3.875   4.125   8.318  1.9069 -1.2845 -0.3000
  294MOL0     H39682   3.814   3.938   8.188 -3.5939 -0.4336  0.7827
  294MOL0     H39683   3.774   4.038   8.041  0.1570  2.3462 -0.2773
  294MOL0     H39684   3.581   3.947   8.182  0.2105  0.1121  0.5745
  294MOL0     H39685   3.630   4.039   8.319 -1.4146 -0.2582 -0.5020
  294MOL0     H39686   3.433   4.296   8.029 -1.1552 -0.5800 -0.0501
  294MOL0     H39687   4.196   4.129   7.984 -3.5204 -0.4346  0.1697
  294MOL0     H39688   4.333   4.166   7.835 -1.6091 -0.5439 -0.3846
  294MOL0     H39689   4.500   4.110   7.890  0.4424 -0.2454 -1.5558
  294MOL0     H39690   4.415   4.038   7.753 -0.8331 -0.8621  0.2465
  295MOL0     O39691   0.363   3.329   7.479  0.3986 -0.0171  0.3165
  295MOL0     C39692   0.291   3.436   7.458 -0.5035 -0.3147 -0.9479
  295MOL0     O39693   0.333   3.537   7.379  0.3638 -0.7794  0.2606
  295MOL0     C39694   0.451   3.529   7.316  0.5095  0.1540  0.5386
  295MOL0     C39695   0.569   3.518   7.387  1.1501 -0.1811  0.8750
  295MOL0     C39696   0.693   3.524   7.316 -0.1007  0.1534 -0.2947
  295MOL0     C39697   0.696   3.541   7.176 -0.3138  0.9244  0.0727
  295MOL0     O39698   0.809   3.549   7.100  0.3037  0.1070 -0.2536
  295MOL0     C39699   0.923   3.593   7.167  0.5911  0.1493 -0.1470
  295MOL0     C39700   1.033   3.629   7.073  0.4433  0.0818 -0.3139
  295MOL0     C39701   1.169   3.639   7.138 -0.2050 -0.3621  0.4820
  295MOL0     C39702   1.169   3.760   7.240  0.4586  1.2116  0.7392
  295MOL0     C39703   1.301   3.748   7.323 -0.8946  0.9640  0.7894
  295MOL0     C39704   1.313   3.864   7.415 -0.8540  0.0102 -0.3183
  295MOL0     C39705   1.457   3.883   7.462 -0.3445 -0.1410  0.4065
  295MOL0     C39706   1.512   3.778   7.563  1.5218  0.7323  0.1500
  295MOL0     N39707   1.643   3.835   7.611  0.2365  0.7527  0.1291
  295MOL0     C39708   1.765   3.806   7.551  0.2346  0.9621 -0.8219
  295MOL0     C39709   1.860   3.868   7.627  0.6339  0.5265 -0.4092
  295MOL0     C39710   1.999   3.869   7.591  0.5673  0.4604 -0.3245
  295MOL0     C39711   2.068   3.760   7.679 -0.2753  1.0157 -0.6705
  295MOL0     C39712   2.212   3.745   7.625  0.1964  0.9006  0.2201
  295MOL0     C39713   2.316   3.680   7.712 -0.2431  0.4550 -0.0707
  295MOL0     O39714   2.426   3.623   7.634 -0.3822 -0.7285 -0.2819
  295MOL0     C39715   2.515   3.716   7.591  0.4108 -0.2330 -0.4688
  295MOL0     C39716   2.569   3.820   7.673  0.6322 -0.4906  0.1119
  295MOL0     C39717   2.670   3.906   7.625  0.3396 -0.3567 -0.3992
  295MOL0     C39718   2.710   3.889   7.489  0.4904 -0.1020 -0.4544
  295MOL0     C39719   2.828   3.978   7.439 -0.3660 -0.4411 -0.4484
  295MOL0     O39720   2.873   3.959   7.307 -0.4281  0.1515 -0.6625
  295MOL0     C39721   2.979   4.033   7.255 -0.1960 -0.4373 -0.4057
  295MOL0     C39722   2.993   4.169   7.295 -1.1517  0.2265 -1.1510
  295MOL0     C39723   3.116   4.241   7.262  0.9322 -1.1101 -0.3662
  295MOL0     C39724   3.219   4.190   7.184  0.1944  0.3603 -0.5644
  295MOL0     O39725   3.342   4.253   7.154  0.2751  0.1843 -0.4712
  295MOL0     C39726   3.337   4.399   7.134  0.7807 -0.2015 -0.1698
  295MOL0     C39727   3.475   4.452   7.083  0.5903  0.1641  0.5143
  295MOL0     C39728   3.583   4.435   7.187 -0.0053 -0.0023  0.4005
  295MOL0     C39729   3.708   4.490   7.118  0.7887  0.3866 -0.3445
  295MOL0     C39730   3.779   4.408   7.009  0.4021  0.0980 -0.4511
  295MOL0     C39731   3.932   4.447   7.006  0.2062 -0.3261  1.0162
  295MOL0     C39732   3.987   4.396   6.864 -0.4113 -0.6876  0.2756
  295MOL0     C39733   3.960   4.493   6.754 -0.4802  0.3740  0.1734
  295MOL0    Cl39734   4.064   4.443   6.615 -0.0347 -0.3019  0.0255
  295MOL0     C39735   3.193   4.054   7.136  0.6348  0.6259  0.1837
  295MOL0     C39736   3.078   3.988   7.175  0.2035  0.5275  0.7390
  295MOL0     O39737   2.880   4.056   7.524 -0.0201  0.3701  0.0880
  295MOL0     C39738   2.654   3.791   7.407 -0.0975  0.7422  0.5555
  295MOL0     C39739   2.571   3.700   7.466 -0.1073 -0.2731  0.5703
  295MOL0     N39740   1.802   3.931   7.741  0.5567 -0.1557  0.0492
  295MOL0     N39741   1.674   3.910   7.731 -0.0421 -0.0851  0.6115
  295MOL0     C39742   0.571   3.549   7.111 -1.0025 -0.3134  0.4175
  295MOL0     C39743   0.447   3.531   7.174  0.4897  0.0685 -0.4536
  295MOL0     C39744   0.164   3.446   7.525  0.8082 -0.8373 -0.3526
  295MOL0     C39745   0.134   3.375   7.647 -0.1900  0.2351 -0.2254
  295MOL0     C39746   0.015   3.379   7.717 -0.4855 -0.3219  0.3345
  295MOL0     C39747  -0.088   3.454   7.654 -0.3298 -0.3484 -0.1890
  295MOL0     O39748  -0.211   3.453   7.697 -0.4705 -0.2983  0.3698
  295MOL0     C39749  -0.245   3.357   7.799  0.3148  0.1024  1.2445
  295MOL0     C39750  -0.395   3.372   7.801 -0.1377 -0.3552 -0.3558
  295MOL0     C39751  -0.467   3.257   7.869  0.5015  0.6222 -0.2814
  295MOL0     C39752  -0.616   3.264   7.831 -0.7233 -0.2638 -0.7766
  295MOL0     C39753  -0.681   3.336   7.944  0.5468 -0.7382 -0.3164
  295MOL0     C39754  -0.746   3.393   8.032 -0.4602  0.9679 -0.1877
  295MOL0     C39755  -0.063   3.537   7.546  0.5047 -0.0799 -0.6582
  295MOL0     C39756   0.058   3.536   7.478 -0.9622 -0.8302 -1.0487
  295MOL0     C39757   0.077   3.656   7.377 -0.3434 -0.2639  0.0120
  295MOL0     H39758   0.568   3.516   7.496  0.9146  1.0380  0.9119
  295MOL0     H39759   0.784   3.506   7.373 -0.7239 -3.1292 -0.1815
  295MOL0     H39760   0.907   3.681   7.229 -0.4648  0.8724 -1.4039
  295MOL0     H39761   0.955   3.507   7.227 -1.6300 -1.0725 -0.6163
  295MOL0     H39762   1.013   3.728   7.031 -2.2220 -0.0408  0.4964
  295MOL0     H39763   1.029   3.552   6.995  0.2475 -0.9091  0.6366
  295MOL0     H39764   1.237   3.643   7.053 -0.9953 -2.2104 -0.2940
  295MOL0     H39765   1.198   3.544   7.184  0.2581 -1.6724 -2.2974
  295MOL0     H39766   1.160   3.855   7.187 -1.0142  0.7370  0.0685
  295MOL0     H39767   1.090   3.756   7.317 -0.8110  0.5926 -0.5401
  295MOL0     H39768   1.313   3.655   7.379  1.6604  1.7658  1.7191
  295MOL0     H39769   1.383   3.744   7.251 -0.5258 -2.5544  1.2067
  295MOL0     H39770   1.284   3.952   7.356  1.2396 -0.5482 -2.3741
  295MOL0     H39771   1.234   3.853   7.489 -0.7489  0.3983 -0.1464
  295MOL0     H39772   1.458   3.978   7.516 -0.2858  1.3856 -2.1426
  295MOL0     H39773   1.520   3.874   7.374 -4.0834 -1.4919 -2.4324
  295MOL0     H39774   1.448   3.770   7.651 -1.0350  4.5600 -1.1238
  295MOL0     H39775   1.529   3.675   7.530 -2.4089  0.3904 -1.2973
  295MOL0     H39776   1.783   3.736   7.471 -1.2471  0.0463 -0.3789
  295MOL0     H39777   2.003   3.836   7.486 -0.3430 -0.4604 -0.0822
  295MOL0     H39778   2.043   3.968   7.610  2.8049 -0.1381 -1.9082
  295MOL0     H39779   2.071   3.792   7.783 -3.9985  0.9785 -0.3992
  295MOL0     H39780   2.013   3.666   7.670 -1.2411  1.5081 -0.1162
  295MOL0     H39781   2.249   3.845   7.600 -0.6742  1.5304  1.3606
  295MOL0     H39782   2.197   3.683   7.536 -1.0712 -1.3802  1.9115
  295MOL0     H39783   2.276   3.596   7.769  0.9482  1.3093  2.1263
  295MOL0     H39784   2.352   3.741   7.795  1.2128  1.9983 -1.7553
  295MOL0     H39785   2.532   3.849   7.771  2.2877 -0.6281  0.8075
  295MOL0     H39786   2.715   3.986   7.683  0.5985 -0.3595 -0.5935
  295MOL0     H39787   2.923   4.228   7.353 -1.3454 -0.0498 -1.1021
  295MOL0     H39788   3.120   4.342   7.303  1.8170 -1.7703  1.2658
  295MOL0     H39789   3.254   4.423   7.067 -1.0912  0.9582  2.3813
  295MOL0     H39790   3.316   4.453   7.227  0.9374 -0.4532  0.0135
  295MOL0     H39791   3.502   4.401   6.990  0.1251 -2.2456  1.6237
  295MOL0     H39792   3.460   4.558   7.058 -0.2138  0.2068  1.1276
  295MOL0     H39793   3.564   4.482   7.284  3.0328 -1.6297  1.9201
  295MOL0     H39794   3.601   4.329   7.210  1.1487  0.4533  1.7079
  295MOL0     H39795   3.781   4.502   7.198  2.3737  2.2355 -1.9475
  295MOL0     H39796   3.682   4.593   7.093 -2.4957  0.1922  1.7260
  295MOL0     H39797   3.731   4.431   6.913  0.5033  0.3165 -0.4477
  295MOL0     H39798   3.761   4.302   7.032 -1.5642  0.8897  2.1667
  295MOL0     H39799   3.952   4.551   7.036  2.4631 -1.2302  3.0342
  295MOL0     H39800   3.982   4.389   7.084  3.0155  1.2885  0.5763
  295MOL0     H39801   3.958   4.296   6.831 -0.2398 -0.1291 -1.6791
  295MOL0     H39802   4.095   4.400   6.882 -0.3295  2.0976 -0.3525
  295MOL0     H39803   3.853   4.495   6.735 -0.7142  0.4308  1.4020
  295MOL0     H39804   3.995   4.595   6.776  1.3031  0.2138 -1.6244
  295MOL0     H39805   3.273   3.994   7.093 -1.1054 -3.0626  1.6807
  295MOL0     H39806   3.084   3.887   7.137  1.0442  0.4930  0.9435
  295MOL0     H39807   2.667   3.774   7.301 -3.6637 -2.2433  0.3890
  295MOL0     H39808   2.537   3.621   7.402  0.3106 -0.8737  1.0761
  295MOL0     H39809   0.591   3.564   7.005  1.2222  2.4901  1.0898
  295MOL0     H39810   0.351   3.540   7.123 -1.6686  2.4139  3.5698
  295MOL0     H39811   0.214   3.310   7.682 -0.9915 -0.5315  0.2018
  295MOL0     H39812   0.013   3.325   7.812  0.7444  3.3488  2.6427
  295MOL0     H39813  -0.198   3.366   7.897 -1.2615  0.6264  1.9866
  295MOL0     H39814  -0.221   3.257   7.761  0.2107  0.5582 -0.0643
  295MOL0     H39815  -0.435   3.393   7.702  0.1944  2.2264 -0.0043
  295MOL0     H39816  -0.420   3.464   7.854 -1.6289 -0.8072 -0.2287
  295MOL0     H39817  -0.442   3.253   7.975  0.3100  0.9572 -0.2216
  295MOL0     H39818  -0.431   3.162   7.831  1.1427  1.4487 -1.8124
  295MOL0     H39819  -0.626   3.335   7.749 -0.7349  0.5696 -0.0694
  295MOL0     H39820  -0.658   3.164   7.814 -1.3989  0.1943 -1.8899
  295MOL0     H39821  -0.795   3.431   8.119  0.9380 -0.5371  1.3366
  295MOL0     H39822  -0.149   3.593   7.510  0.0506  0.8611  1.7174
  295MOL0     H39823  -0.010   3.721   7.364 -1.2383 -1.4242  0.0116
  295MOL0     H39824   0.158   3.721   7.410  1.2159 -1.6692 -0.8955
  295MOL0     H39825   0.097   3.627   7.273  0.3146  1.9176 -0.5287
  296MOL0     O39826   5.437   9.246  10.868  0.2508  0.4420 -0.3749
  296MOL0     C39827   5.444   9.153  10.949 -0.4739  0.4046  0.4956
  296MOL0     O39828   5.562   9.092  10.979  0.0299 -0.1658  0.4737
  296MOL0     C39829   5.686   9.114  10.922 -0.2544  0.4093 -0.2645
  296MOL0     C39830   5.718   9.205  10.815 -0.5398 -0.2718 -0.1759
  296MOL0     C39831   5.847   9.224  10.776  0.3599  0.2320 -0.3947
  296MOL0     C39832   5.955   9.155  10.834  0.3155  0.1544  0.7895
  296MOL0     O39833   6.082   9.187  10.796 -0.1341 -0.2103 -0.0558
  296MOL0     C39834   6.189   9.093  10.819  1.1229 -0.7498 -0.0280
  296MOL0     C39835   6.315   9.118  10.730 -0.6158  0.3970 -0.5866
  296MOL0     C39836   6.432   9.023  10.767  1.5213 -0.3294  0.1075
  296MOL0     C39837   6.482   9.063  10.912 -0.7451 -0.0012  0.8856
  296MOL0     C39838   6.587   8.965  10.943  0.5280 -0.0874  0.0305
  296MOL0     C39839   6.633   8.952  11.093  0.6579  0.5874  0.0353
  296MOL0     C39840   6.777   8.907  11.110  0.2696  0.0069 -0.0532
  296MOL0     C39841   6.839   8.922  11.253  0.2213  0.8512  0.1766
  296MOL0     N39842   6.985   8.925  11.257 -0.6908 -0.0432 -0.4387
  296MOL0     C39843   7.088   8.830  11.263 -0.0275  0.9560 -0.3793
  296MOL0     C39844   7.198   8.901  11.245 -0.1263  0.6058 -0.1047
  296MOL0     C39845   7.336   8.859  11.270 -0.1100  0.7390  0.2030
  296MOL0     C39846   7.436   8.929  11.187  0.0037 -0.7617 -0.1675
  296MOL0     C39847   7.487   9.062  11.236 -0.7799  0.0841 -0.3785
  296MOL0     C39848   7.568   9.141  11.137  0.8365 -0.3660  0.4451
  296MOL0     O39849   7.683   9.073  11.086  0.7302  0.6123  0.0045
  296MOL0     C39850   7.806   9.122  11.117 -0.2337 -0.3455 -0.1914
  296MOL0     C39851   7.882   9.177  11.009  0.3236  0.7825 -0.2674
  296MOL0     C39852   8.009   9.223  11.027  0.2173 -0.3810  0.2484
  296MOL0     C39853   8.073   9.204  11.151 -0.4700 -0.5263  0.0258
  296MOL0     C39854   8.210   9.252  11.174  0.4638  0.2076  0.0016
  296MOL0     O39855   8.259   9.268  11.295 -0.2824 -0.4841 -0.6061
  296MOL0     C39856   8.378   9.319  11.327  0.0420 -0.3225 -0.8994
  296MOL0     C39857   8.397   9.372  11.453 -0.3149  0.2038  0.3050
  296MOL0     C39858   8.517   9.435  11.497  0.2302  0.2404  0.4052
  296MOL0     C39859   8.628   9.435  11.407  1.6126  0.1376 -0.5343
  296MOL0     O39860   8.757   9.473  11.437 -0.2452 -0.4267 -0.5225
  296MOL0     C39861   8.794   9.456  11.571  0.7917  0.3979 -0.6838
  296MOL0     C39862   8.935   9.492  11.590  0.5988  0.2886 -0.5080
  296MOL0     C39863   9.027   9.403  11.504 -0.8600 -0.4189  0.0273
  296MOL0     C39864   9.118   9.322  11.596 -1.0320  0.7085 -0.4115
  296MOL0     C39865   9.229   9.259  11.524 -0.2549  0.7714 -0.2696
  296MOL0     C39866   9.329   9.193  11.621 -0.7813  0.3927 -0.1178
  296MOL0     C39867   9.434   9.110  11.558  0.1970 -0.5776  0.5298
  296MOL0     C39868   9.536   9.176  11.459 -0.0489  0.4459  0.5447
  296MOL0    Cl39869   9.648   9.273  11.546  0.4119 -0.0348 -0.1397
  296MOL0     C39870   8.622   9.368  11.286  0.3371  0.0946 -0.6680
  296MOL0     C39871   8.494   9.321  11.243  0.1477 -0.5477  0.1218
  296MOL0     O39872   8.266   9.288  11.074 -0.5989  0.0266 -0.1199
  296MOL0     C39873   7.998   9.147  11.262  0.3238 -0.0376 -0.1443
  296MOL0     C39874   7.865   9.111  11.240 -0.5108 -0.1446  1.4333
  296MOL0     N39875   7.162   9.034  11.213 -0.4011  0.5235 -0.3967
  296MOL0     N39876   7.038   9.050  11.226 -0.6136 -0.3757  1.0883
  296MOL0     C39877   5.923   9.054  10.928 -0.1736 -0.1637 -0.1799
  296MOL0     C39878   5.790   9.026  10.972  0.2126 -0.0807 -0.8733
  296MOL0     C39879   5.319   9.110  11.019 -0.0447  0.6894 -0.2828
  296MOL0     C39880   5.322   9.006  11.111  0.5872  0.4208  0.1444
  296MOL0     C39881   5.212   8.959  11.183  0.6816 -0.1288 -0.0481
  296MOL0     C39882   5.087   9.020  11.152 -0.4434  0.3067  0.4710
  296MOL0     O39883   4.971   9.003  11.217  0.5665  0.5572  0.2359
  296MOL0     C39884   4.969   8.958  11.348 -0.0175  0.1684  0.0541
  296MOL0     C39885   4.841   9.009  11.430  0.0359 -0.1876  0.6361
  296MOL0     C39886   4.836   8.939  11.565  0.7514  0.9720 -0.7184
  296MOL0     C39887   4.881   9.034  11.685 -0.0430  0.7870  0.1220
  296MOL0     C39888   4.952   8.952  11.784 -0.2687 -0.2065 -0.2221
  296MOL0     C39889   5.010   8.885  11.859  0.0432  1.0438 -0.2174
  296MOL0     C39890   5.075   9.126  11.062  0.0486  0.4080 -0.3255
  296MOL0     C39891   5.187   9.174  11.000 -0.4566 -0.9652 -0.0998
  296MOL0     C39892   5.177   9.308  10.926  0.5480 -0.2437  0.1732
  296MOL0     H39893   5.643   9.259  10.758  0.4990  1.2642 -0.1315
  296MOL0     H39894   5.860   9.300  10.699  0.6956  1.0214  0.4223
  296MOL0     H39895   6.223   9.115  10.920  0.5065 -2.4256  0.5758
  296MOL0     H39896   6.150   8.991  10.810  0.3460 -0.5465  0.9148
  296MOL0     H39897   6.353   9.220  10.739  0.2471  0.4345 -3.4857
  296MOL0     H39898   6.273   9.100  10.630 -5.4323 -0.2500  1.2535
  296MOL0     H39899   6.512   9.029  10.693  2.1927  0.7620  0.8848
  296MOL0     H39900   6.388   8.924  10.784  0.4955  0.1287  0.2426
  296MOL0     H39901   6.528   9.162  10.918  1.4655 -0.8962 -0.3239
  296MOL0     H39902   6.408   9.061  10.993  0.2881 -0.7606  1.8447
  296MOL0     H39903   6.541   8.873  10.908  0.0940  0.8221 -1.9542
  296MOL0     H39904   6.669   8.998  10.878  1.6194  1.7680  2.1815
  296MOL0     H39905   6.627   9.054  11.134  0.1251  2.4566 -4.1793
  296MOL0     H39906   6.565   8.881  11.141 -0.1337  0.4956 -1.2022
  296MOL0     H39907   6.828   8.968  11.035 -0.5104 -1.5867 -1.9704
  296MOL0     H39908   6.773   8.803  11.076 -2.4995 -0.3898  1.2312
  296MOL0     H39909   6.792   9.007  11.305 -0.5631  0.8014 -0.4282
  296MOL0     H39910   6.801   8.841  11.315 -2.0191 -0.7466 -3.0165
  296MOL0     H39911   7.083   8.726  11.292  0.5200  0.1482 -2.9295
  296MOL0     H39912   7.353   8.864  11.378 -1.9869 -0.7158  0.6117
  296MOL0     H39913   7.336   8.754  11.240  0.8302  0.3841  1.3826
  296MOL0     H39914   7.529   8.871  11.194  1.1677  0.9370 -0.7381
  296MOL0     H39915   7.400   8.932  11.084 -0.3441 -0.0235 -0.0292
  296MOL0     H39916   7.550   9.056  11.325  3.0436  0.2563 -2.8362
  296MOL0     H39917   7.395   9.115  11.266 -2.1526 -2.3897  0.0336
  296MOL0     H39918   7.588   9.242  11.174 -0.4949  0.7074 -1.5964
  296MOL0     H39919   7.501   9.155  11.052 -0.6599 -0.7310  1.5394
  296MOL0     H39920   7.828   9.199  10.917  0.8675  1.3378 -0.4643
  296MOL0     H39921   8.065   9.282  10.956  1.8605 -1.7471  0.3391
  296MOL0     H39922   8.313   9.377  11.522  0.1895  0.0947  0.9435
  296MOL0     H39923   8.512   9.477  11.596 -1.0952  4.9305 -1.3744
  296MOL0     H39924   8.732   9.527  11.626  1.7100  0.0168  0.9119
  296MOL0     H39925   8.778   9.353  11.604 -0.0294  0.8915  0.5067
  296MOL0     H39926   8.943   9.600  11.576  0.9820  0.1753 -1.1967
  296MOL0     H39927   8.951   9.472  11.697  2.0195 -0.9201 -0.9158
  296MOL0     H39928   8.984   9.329  11.436  0.5834 -0.6762 -0.6487
  296MOL0     H39929   9.082   9.473  11.441  1.0740  0.7764  2.8605
  296MOL0     H39930   9.042   9.251  11.630 -0.8311  1.0214  0.7366
  296MOL0     H39931   9.154   9.382  11.680 -2.4336  1.7995 -0.5452
  296MOL0     H39932   9.283   9.333  11.464  3.8248 -2.3853 -0.9739
  296MOL0     H39933   9.186   9.180  11.461 -0.1601  1.9026 -1.7951
  296MOL0     H39934   9.375   9.278  11.673 -1.1904  0.0805  0.7591
  296MOL0     H39935   9.275   9.134  11.695  0.9682  2.6413  3.2340
  296MOL0     H39936   9.381   9.033  11.500  2.6296 -1.2175 -1.0248
  296MOL0     H39937   9.500   9.060  11.630  0.8081 -0.1166  0.2947
  296MOL0     H39938   9.581   9.101  11.393 -2.9692  0.6116 -1.9006
  296MOL0     H39939   9.483   9.233  11.382 -1.4569 -2.3901 -0.7491
  296MOL0     H39940   8.714   9.344  11.234 -1.0459 -0.8127 -2.8496
  296MOL0     H39941   8.486   9.271  11.147  0.5141  0.7882 -0.6347
  296MOL0     H39942   8.046   9.133  11.358 -1.2623  0.7467  0.8033
  296MOL0     H39943   7.820   9.063  11.326 -1.6582 -0.5693  0.6292
  296MOL0     H39944   5.999   8.989  10.970 -1.3257 -0.6059  1.3148
  296MOL0     H39945   5.760   8.946  11.040  0.1226 -0.9773 -1.9356
  296MOL0     H39946   5.413   8.950  11.129 -0.5233 -0.9195  2.0110
  296MOL0     H39947   5.215   8.876  11.253  0.0531  0.3798  0.6047
  296MOL0     H39948   5.052   9.002  11.403  0.8162 -0.2247 -0.8543
  296MOL0     H39949   4.993   8.852  11.347  1.0288  0.3942  0.3693
  296MOL0     H39950   4.751   8.992  11.370  0.6674  0.2253 -0.4679
  296MOL0     H39951   4.853   9.118  11.439 -1.6416  0.0979 -0.2245
  296MOL0     H39952   4.900   8.851  11.566  1.9107  1.7846  0.7045
  296MOL0     H39953   4.733   8.903  11.578  1.3710 -0.8798 -0.6376
  296MOL0     H39954   4.949   9.109  11.643 -2.6215  1.1166 -3.9895
  296MOL0     H39955   4.790   9.080  11.726 -0.1048  4.1913 -3.2991
  296MOL0     H39956   5.064   8.819  11.925 -0.7303  0.3864 -0.2286
  296MOL0     H39957   4.977   9.171  11.047 -0.2603 -0.7481 -2.0392
  296MOL0     H39958   5.182   9.298  10.818  1.1418  1.5982 -0.0073
  296MOL0     H39959   5.078   9.349  10.947  0.3148 -0.8142  0.2110
  296MOL0     H39960   5.244   9.388  10.961  0.1843  1.5094 -2.7827
  297MOL0     O39961   3.241   8.506  11.089 -0.1940 -0.5142  0.4041
  297MOL0     C39962   3.317   8.423  11.127  0.1728  0.0196 -0.3950
  297MOL0     O39963   3.274   8.299  11.176 -0.1472 -0.7724  0.6502
  297MOL0     C39964   3.147   8.261  11.209 -0.0314  0.5375 -0.7116
  297MOL0     C39965   3.030   8.342  11.215  0.2972 -0.4942  1.0275
  297MOL0     C39966   2.918   8.295  11.284  0.0689 -0.8035  0.2131
  297MOL0     C39967   2.905   8.170  11.339 -0.0148 -0.4302 -0.6587
  297MOL0     O39968   2.792   8.127  11.402 -0.1151 -0.0099  0.1729
  297MOL0     C39969   2.662   8.128  11.334 -0.5560 -0.0585 -0.2711
  297MOL0     C39970   2.577   8.022  11.397 -0.2378  0.4091 -0.4076
  297MOL0     C39971   2.630   7.876  11.384 -0.5900 -0.1220 -0.1145
  297MOL0     C39972   2.635   7.806  11.245  0.0365 -0.4958  0.1970
  297MOL0     C39973   2.489   7.784  11.189  0.4334 -0.2283  0.6158
  297MOL0     C39974   2.511   7.674  11.085 -0.0774 -0.2277 -0.5046
  297MOL0     C39975   2.388   7.665  10.991  0.0418 -0.3794 -0.8452
  297MOL0     C39976   2.398   7.543  10.898 -0.3237 -0.3881 -1.4328
  297MOL0     N39977   2.481   7.572  10.775  0.6726 -0.4390 -0.2122
  297MOL0     C39978   2.443   7.648  10.666 -0.7522 -0.0630  0.2466
  297MOL0     C39979   2.549   7.641  10.575  0.3114 -1.1871 -0.4145
  297MOL0     C39980   2.562   7.716  10.449  0.6325  1.1509  0.6546
  297MOL0     C39981   2.585   7.632  10.324  0.5457  0.7411  0.8014
  297MOL0     C39982   2.551   7.702  10.190  0.5859  0.0207  0.3498
  297MOL0     C39983   2.407   7.747  10.154  0.7505 -0.0772 -0.3072
  297MOL0     O39984   2.317   7.637  10.192  0.2389  0.1142 -0.1195
  297MOL0     C39985   2.182   7.651  10.208  0.2136  0.2205 -0.0835
  297MOL0     C39986   2.118   7.549  10.282 -0.2790 -0.0992  0.3047
  297MOL0     C39987   1.981   7.558  10.292 -0.7270 -0.6585 -0.0179
  297MOL0     C39988   1.903   7.664  10.244 -0.4726 -0.6961 -1.1601
  297MOL0     C39989   1.761   7.670  10.278  0.2164 -1.0292  0.1963
  297MOL0     O39990   1.701   7.577  10.355 -0.4752  0.3721  0.2584
  297MOL0     C39991   1.571   7.600  10.392 -0.0622 -0.2560 -0.2809
  297MOL0     C39992   1.466   7.616  10.297 -1.1040 -0.6793  0.0209
  297MOL0     C39993   1.337   7.632  10.346  0.5419 -0.0464 -0.1923
  297MOL0     C39994   1.316   7.632  10.478  0.5151  0.1079 -0.3749
  297MOL0     O39995   1.191   7.661  10.538 -0.3698  0.6267 -0.0862
  297MOL0     C39996   1.077   7.678  10.452 -0.1577 -0.1966  0.2437
  297MOL0     C39997   0.959   7.701  10.539 -0.6809 -0.8207  0.2474
  297MOL0     C39998   0.824   7.718  10.471 -0.8175  0.2953  0.0263
  297MOL0     C39999   0.728   7.785  10.574  0.0910 -0.8814  0.7358
  297MOL0     C40000   0.605   7.845  10.507  0.3305 -0.4520 -0.4365
  297MOL0     C40001   0.515   7.914  10.612 -1.0032  0.6556  0.1298
  297MOL0     C40002   0.388   7.948  10.537  0.1907  0.3346  0.2733
  297MOL0     C40003   0.320   8.030  10.648 -0.2849 -0.9729 -0.1506
  297MOL0    Cl40004   0.149   8.063  10.622 -0.0116 -0.5654  0.1519
  297MOL0     C40005   1.423   7.623  10.572  0.5274  0.0748  0.2170
  297MOL0     C40006   1.548   7.599  10.528  0.0385 -0.2653  0.1218
  297MOL0     O40007   1.698   7.764  10.221 -0.4148  0.0001 -0.2982
  297MOL0     C40008   1.968   7.771  10.182  0.4693 -0.6857  0.3180
  297MOL0     C40009   2.104   7.757  10.158  0.4502  0.0777  0.2096
  297MOL0     N40010   2.643   7.551  10.626  0.9102  0.3849 -0.5594
  297MOL0     N40011   2.605   7.518  10.751  0.0164  0.4342  0.6748
  297MOL0     C40012   3.017   8.093  11.334 -0.4271  0.4943  1.5567
  297MOL0     C40013   3.139   8.129  11.265 -0.2071 -1.0293  0.4560
  297MOL0     C40014   3.464   8.447  11.124 -0.2377 -0.3092 -0.7322
  297MOL0     C40015   3.537   8.407  11.241 -0.0831  0.6432  0.3395
  297MOL0     C40016   3.675   8.432  11.239  0.2310 -0.1554 -0.0168
  297MOL0     C40017   3.742   8.489  11.136 -0.3455 -0.3997  0.3104
  297MOL0     O40018   3.880   8.507  11.149  0.1863  0.3257 -0.4916
  297MOL0     C40019   3.945   8.583  11.051  0.3023  0.3975 -0.3024
  297MOL0     C40020   4.099   8.572  11.063  0.2085 -0.2378  0.1502
  297MOL0     C40021   4.139   8.423  11.040 -1.0787  0.2482  0.2329
  297MOL0     C40022   4.286   8.409  11.072 -0.0953 -0.1943 -0.4690
  297MOL0     C40023   4.385   8.486  10.988 -0.0300 -0.0089 -0.4339
  297MOL0     C40024   4.465   8.546  10.920  0.4099 -0.5380  0.1722
  297MOL0     C40025   3.669   8.529  11.025  0.6770 -0.3468  0.2660
  297MOL0     C40026   3.532   8.503  11.012 -0.5437 -0.0304  0.4891
  297MOL0     C40027   3.469   8.532  10.880 -0.3416  0.7497 -0.5198
  297MOL0     H40028   3.029   8.443  11.174 -0.6783  0.1676  2.6168
  297MOL0     H40029   2.829   8.358  11.290 -0.0118 -0.7125 -1.5710
  297MOL0     H40030   2.605   8.221  11.347 -0.0123  0.7599 -3.0714
  297MOL0     H40031   2.673   8.104  11.228 -0.4659  0.6348 -0.4283
  297MOL0     H40032   2.472   8.024  11.366 -0.7363 -2.3209  0.7357
  297MOL0     H40033   2.573   8.042  11.504 -2.3538 -0.8136 -0.1811
  297MOL0     H40034   2.572   7.810  11.449 -0.1027  0.4306  0.8982
  297MOL0     H40035   2.730   7.876  11.429 -0.5817  0.1633 -0.1335
  297MOL0     H40036   2.694   7.868  11.177 -0.1492  0.0840  0.5614
  297MOL0     H40037   2.686   7.714  11.276 -1.6072 -1.0641  1.3513
  297MOL0     H40038   2.416   7.751  11.264 -2.1925  1.8142 -0.8811
  297MOL0     H40039   2.445   7.874  11.144 -1.2301 -1.2639  0.0624
  297MOL0     H40040   2.603   7.697  11.032  0.4216 -0.3701  0.2863
  297MOL0     H40041   2.523   7.579  11.138 -2.0036  0.8199  2.0502
  297MOL0     H40042   2.382   7.753  10.926 -0.0225  0.1126 -0.1790
  297MOL0     H40043   2.297   7.654  11.051 -0.8309  0.9091 -1.8733
  297MOL0     H40044   2.439   7.462  10.959 -2.7546 -0.0512  0.8443
  297MOL0     H40045   2.299   7.510  10.866 -0.9857  0.9211 -0.8364
  297MOL0     H40046   2.349   7.703  10.661 -2.1731 -1.9513  3.0774
  297MOL0     H40047   2.470   7.773  10.432 -0.9393 -0.7790  2.0371
  297MOL0     H40048   2.638   7.793  10.461  2.0024  0.2134 -1.4086
  297MOL0     H40049   2.684   7.587  10.318  0.8182  1.1404  2.1744
  297MOL0     H40050   2.508   7.553  10.327 -0.5258  1.7772  1.8113
  297MOL0     H40051   2.582   7.638  10.107  0.1370  0.4977 -0.1983
  297MOL0     H40052   2.615   7.791  10.200 -0.0331  0.5099  0.0603
  297MOL0     H40053   2.395   7.754  10.046  0.1893 -5.1928 -0.8364
  297MOL0     H40054   2.377   7.837  10.209  0.2711 -0.9233  0.8654
  297MOL0     H40055   2.178   7.477  10.336 -3.0812 -2.0747  1.0333
  297MOL0     H40056   1.930   7.479  10.346 -1.6291 -0.7853 -1.0349
  297MOL0     H40057   1.480   7.610  10.190 -0.0435 -2.6579  0.2114
  297MOL0     H40058   1.251   7.629  10.280  0.8638  0.5710 -0.6521
  297MOL0     H40059   1.099   7.761  10.385  0.7572 -1.0147 -0.5086
  297MOL0     H40060   1.061   7.592  10.386  2.4975  0.9590 -2.0803
  297MOL0     H40061   0.948   7.626  10.617  0.3788  0.5544  1.7878
  297MOL0     H40062   0.989   7.794  10.588  0.8288  0.2288 -2.4238
  297MOL0     H40063   0.845   7.779  10.383 -1.0991 -0.5262 -0.6165
  297MOL0     H40064   0.788   7.618  10.448  1.3850 -0.3600 -0.8620
  297MOL0     H40065   0.786   7.858  10.632 -0.8542  0.5290 -0.0249
  297MOL0     H40066   0.692   7.707  10.643  1.2066 -2.2124 -0.1399
  297MOL0     H40067   0.548   7.765  10.460 -1.8663 -0.9489  2.7144
  297MOL0     H40068   0.642   7.925  10.442  1.2840 -1.1334 -0.7527
  297MOL0     H40069   0.498   7.841  10.692  2.6199 -0.2024  0.2944
  297MOL0     H40070   0.557   8.002  10.663 -0.2745  1.1994 -1.3563
  297MOL0     H40071   0.328   7.861  10.509  0.3230  0.2277  0.3207
  297MOL0     H40072   0.408   8.013  10.452 -0.2719  0.6033  0.3612
  297MOL0     H40073   0.316   7.974  10.741 -3.1938  0.8350  0.9554
  297MOL0     H40074   0.372   8.124  10.669 -0.6027 -1.2492  2.1319
  297MOL0     H40075   1.398   7.625  10.678 -0.5342 -0.9311  0.0137
  297MOL0     H40076   1.628   7.583  10.600  0.1213  0.0652  0.1056
  297MOL0     H40077   1.910   7.854  10.146  1.1454  0.3460  1.5118
  297MOL0     H40078   2.152   7.833  10.097  3.4758 -0.3956  1.7983
  297MOL0     H40079   3.008   7.995  11.380  1.6146  0.6070  2.3220
  297MOL0     H40080   3.226   8.065  11.260  1.0065  0.6339 -1.3205
  297MOL0     H40081   3.493   8.349  11.321  0.6217  1.4158  1.3137
  297MOL0     H40082   3.733   8.383  11.317 -0.1912 -0.0989  0.3325
  297MOL0     H40083   3.910   8.686  11.057  1.8487  1.1175 -2.2850
  297MOL0     H40084   3.922   8.534  10.956 -1.2894 -3.1589  1.7341
  297MOL0     H40085   4.147   8.606  11.155  0.3380 -0.4294  0.1531
  297MOL0     H40086   4.139   8.636  10.984  0.2621 -1.8569 -1.1909
  297MOL0     H40087   4.105   8.381  10.945 -3.2685 -1.5098  1.7066
  297MOL0     H40088   4.099   8.357  11.117  0.4196  1.2745  1.9821
  297MOL0     H40089   4.302   8.428  11.179 -3.4978 -1.8203  0.4506
  297MOL0     H40090   4.325   8.307  11.064  1.3087  0.2759  0.0602
  297MOL0     H40091   4.534   8.602  10.860 -1.9231 -0.7527 -2.9298
  297MOL0     H40092   3.717   8.587  10.947 -1.4748  2.7790  1.1179
  297MOL0     H40093   3.520   8.464  10.811  0.2414 -0.0238  0.6436
  297MOL0     H40094   3.364   8.503  10.874 -0.0940 -0.1327 -0.7581
  297MOL0     H40095   3.495   8.636  10.856 -0.1579  0.3908 -1.9734
  298MOL0     O40096  10.553   1.127   4.534  0.1464 -0.1475  0.4410
  298MOL0     C40097  10.523   1.214   4.448 -0.3098 -0.0062  0.5116
  298MOL0     O40098  10.543   1.346   4.458  0.2967 -0.0449 -0.3015
  298MOL0     C40099  10.600   1.393   4.575 -0.8881 -0.4115 -0.2455
  298MOL0     C40100  10.522   1.437   4.679 -0.6975 -0.3052  0.6859
  298MOL0     C40101  10.579   1.488   4.798  0.7093 -0.8429 -0.2599
  298MOL0     C40102  10.711   1.515   4.804 -0.3513  0.2570  0.3435
  298MOL0     O40103  10.750   1.571   4.921  0.5625 -0.3952  0.5346
  298MOL0     C40104  10.863   1.655   4.925 -0.1856 -0.1552 -0.3337
  298MOL0     C40105  10.983   1.570   4.974 -0.0195 -0.4056 -0.0454
  298MOL0     C40106  11.111   1.654   4.976 -0.8793  0.3481 -0.2104
  298MOL0     C40107  11.208   1.602   5.086  0.1726  0.3546 -0.6514
  298MOL0     C40108  11.344   1.670   5.087 -0.5824  1.2045 -0.0336
  298MOL0     C40109  11.349   1.822   5.103  0.5426  0.2599  0.4626
  298MOL0     C40110  11.492   1.879   5.070 -0.7758 -0.1171  0.8995
  298MOL0     C40111  11.494   2.016   5.017  0.2323 -0.0341  0.4506
  298MOL0     N40112  11.632   2.040   4.979 -0.4641  0.2500  0.2641
  298MOL0     C40113  11.723   2.120   5.037  0.2042 -0.2104 -0.8145
  298MOL0     C40114  11.831   2.106   4.960  0.0003 -0.7738  0.2267
  298MOL0     C40115  11.965   2.170   4.984  0.1959  0.1070 -0.2059
  298MOL0     C40116  11.968   2.316   5.016 -0.5735  0.2891 -0.4510
  298MOL0     C40117  12.041   2.401   4.917  0.3274 -0.6894  0.3994
  298MOL0     C40118  12.182   2.375   4.902 -0.0338 -0.5396 -0.7081
  298MOL0     O40119  12.250   2.416   5.019 -0.4455  0.1456 -0.7204
  298MOL0     C40120  12.379   2.454   5.020  0.1419  1.3764 -0.7018
  298MOL0     C40121  12.467   2.429   4.916 -0.9399 -0.0637 -0.1582
  298MOL0     C40122  12.600   2.487   4.917  0.3115  0.3340 -0.6608
  298MOL0     C40123  12.629   2.583   5.014 -0.1902 -0.0229  0.0476
  298MOL0     C40124  12.754   2.655   5.011  0.6220  0.0142  0.1939
  298MOL0     O40125  12.852   2.610   4.913 -0.1644 -0.8505 -0.3800
  298MOL0     C40126  12.969   2.685   4.901  0.0451  0.1346  0.3288
  298MOL0     C40127  13.093   2.622   4.909  0.3392  0.7584 -0.6326
  298MOL0     C40128  13.216   2.685   4.900  0.7830 -0.6511  0.0160
  298MOL0     C40129  13.213   2.823   4.882  0.3485 -0.3028 -0.0538
  298MOL0     O40130  13.342   2.873   4.867 -0.1218 -0.1210 -0.0427
  298MOL0     C40131  13.355   2.997   4.794 -0.4748  0.3259  0.1575
  298MOL0     C40132  13.498   3.003   4.760  0.0300 -0.1305  0.7063
  298MOL0     C40133  13.541   2.896   4.660 -0.4899  0.2745 -0.0637
  298MOL0     C40134  13.669   2.941   4.601 -0.1599  0.7799 -0.2306
  298MOL0     C40135  13.719   2.845   4.485 -0.0054 -0.1539  0.7311
  298MOL0     C40136  13.761   2.708   4.547 -0.7901  0.9510 -1.0904
  298MOL0     C40137  13.848   2.608   4.469 -0.1856 -1.1554 -0.6647
  298MOL0     C40138  13.991   2.652   4.465 -0.6222  0.1762 -0.2992
  298MOL0    Cl40139  14.077   2.592   4.607  0.2132  0.4239 -0.4037
  298MOL0     C40140  13.090   2.892   4.855 -0.1086  0.0818 -0.4130
  298MOL0     C40141  12.974   2.820   4.861 -1.2600 -0.6549 -0.0515
  298MOL0     O40142  12.775   2.738   5.095  0.4805 -0.5277  0.4879
  298MOL0     C40143  12.543   2.595   5.128 -0.4498  0.4963  0.9424
  298MOL0     C40144  12.420   2.535   5.124  0.0469  0.1731 -0.4336
  298MOL0     N40145  11.816   2.017   4.860  0.1951 -0.3055 -0.0448
  298MOL0     N40146  11.696   1.976   4.872  0.4359  0.1740  0.4150
  298MOL0     C40147  10.792   1.479   4.699 -0.0924 -0.1628  0.2412
  298MOL0     C40148  10.741   1.417   4.584  0.0478  0.3369 -1.3214
  298MOL0     C40149  10.491   1.163   4.316  0.3032  0.4276  0.3078
  298MOL0     C40150  10.410   1.052   4.303  0.1267 -0.0062 -0.0529
  298MOL0     C40151  10.354   1.013   4.175 -0.5977 -0.1907 -0.5946
  298MOL0     C40152  10.389   1.070   4.057 -0.1312  0.4162 -0.2314
  298MOL0     O40153  10.338   1.042   3.933 -0.3948  0.0812  0.4075
  298MOL0     C40154  10.398   0.920   3.885  0.5873 -0.4459  0.0242
  298MOL0     C40155  10.298   0.807   3.912  0.2970  0.1955 -1.1581
  298MOL0     C40156  10.315   0.686   3.828  0.5414 -0.6526 -0.2803
  298MOL0     C40157  10.397   0.581   3.899  0.3488  0.1240 -0.4690
  298MOL0     C40158  10.541   0.617   3.904  0.3299  0.1957  0.1285
  298MOL0     C40159  10.666   0.636   3.916 -0.6940 -0.3984 -0.4375
  298MOL0     C40160  10.486   1.171   4.070 -1.3063  0.2690 -0.2239
  298MOL0     C40161  10.534   1.219   4.190 -0.2102 -0.1725 -0.0663
  298MOL0     C40162  10.629   1.333   4.176 -0.3221  0.1080  0.2090
  298MOL0     H40163  10.415   1.427   4.690 -0.7665  0.8079  1.2570
  298MOL0     H40164  10.515   1.500   4.885 -1.3111 -2.4900 -1.4436
  298MOL0     H40165  10.890   1.699   4.829  2.5504 -1.2079 -0.1302
  298MOL0     H40166  10.846   1.730   5.003  0.2016  0.0020 -0.3971
  298MOL0     H40167  11.000   1.485   4.907 -2.6905  1.2643 -3.1103
  298MOL0     H40168  10.942   1.532   5.068 -2.3507 -0.4760 -1.0260
  298MOL0     H40169  11.097   1.761   4.996 -0.7066  0.7006 -1.8068
  298MOL0     H40170  11.166   1.645   4.882  0.2055 -0.7244  0.4933
  298MOL0     H40171  11.158   1.606   5.183  1.2141  0.5845 -0.1131
  298MOL0     H40172  11.225   1.494   5.072 -0.2348  0.3026 -0.7578
  298MOL0     H40173  11.406   1.615   5.160  1.4064  0.7160 -1.9641
  298MOL0     H40174  11.376   1.640   4.987 -2.1962 -1.1127  0.0615
  298MOL0     H40175  11.283   1.864   5.026  2.5352  0.2165 -1.3579
  298MOL0     H40176  11.325   1.851   5.206  1.7599  2.2484  0.2199
  298MOL0     H40177  11.541   1.806   5.005 -0.2762  1.7324 -0.8745
  298MOL0     H40178  11.552   1.874   5.162  0.6729 -2.7683 -0.0655
  298MOL0     H40179  11.425   2.030   4.934 -2.0119 -1.1819  1.9968
  298MOL0     H40180  11.464   2.086   5.096 -2.2772  0.4033 -0.7867
  298MOL0     H40181  11.708   2.178   5.128  0.5369 -0.4500 -0.6079
  298MOL0     H40182  12.002   2.115   5.072 -0.9957  1.2108  1.0317
  298MOL0     H40183  12.037   2.150   4.904  0.7913  1.9868 -0.1874
  298MOL0     H40184  11.864   2.349   5.009 -0.5936  0.1568 -0.7835
  298MOL0     H40185  12.015   2.333   5.113  0.3947 -0.9039 -0.6796
  298MOL0     H40186  12.036   2.504   4.954  2.0704  0.2051 -1.6494
  298MOL0     H40187  11.995   2.405   4.818  0.8198  0.6476  0.2031
  298MOL0     H40188  12.214   2.437   4.817  1.5716  0.7928  0.8040
  298MOL0     H40189  12.203   2.271   4.875  1.0990 -0.5469  0.1520
  298MOL0     H40190  12.429   2.372   4.831 -1.3551 -0.0029 -0.0153
  298MOL0     H40191  12.663   2.451   4.836  1.7976 -1.2992  1.1176
  298MOL0     H40192  13.093   2.515   4.926  1.1781  0.5872 -1.5962
  298MOL0     H40193  13.312   2.635   4.899  2.1114  1.7048 -2.0917
  298MOL0     H40194  13.300   3.017   4.702 -0.5557 -0.9546 -0.0951
  298MOL0     H40195  13.333   3.080   4.862  1.7278  0.3233  0.9441
  298MOL0     H40196  13.514   3.102   4.715  0.5025 -1.0780 -1.2939
  298MOL0     H40197  13.556   2.997   4.852  3.6713 -1.1233 -1.4548
  298MOL0     H40198  13.543   2.805   4.721 -0.6211  0.3042 -0.0147
  298MOL0     H40199  13.480   2.877   4.572  1.0370  2.3466 -1.6950
  298MOL0     H40200  13.747   2.946   4.677  0.2313 -0.4474 -0.5330
  298MOL0     H40201  13.656   3.040   4.556 -0.8269  1.2037  0.8449
  298MOL0     H40202  13.819   2.878   4.455 -0.1545 -0.6699 -0.3772
  298MOL0     H40203  13.665   2.824   4.393  0.9465 -1.2326  0.3958
  298MOL0     H40204  13.807   2.723   4.646  0.0760 -1.7553 -0.9991
  298MOL0     H40205  13.668   2.652   4.561  0.0709  0.1148  2.2913
  298MOL0     H40206  13.800   2.602   4.371 -0.6432 -1.5619 -0.4182
  298MOL0     H40207  13.839   2.512   4.521  2.2197 -2.8790 -3.1403
  298MOL0     H40208  14.031   2.600   4.378 -0.4836 -0.3335  0.0611
  298MOL0     H40209  13.997   2.761   4.471 -2.6962  0.2608  1.9630
  298MOL0     H40210  13.097   2.999   4.841 -0.3990  0.0611 -0.7203
  298MOL0     H40211  12.875   2.853   4.831 -0.7642 -1.4634 -2.9433
  298MOL0     H40212  12.569   2.664   5.208  1.7184  0.4614  0.3450
  298MOL0     H40213  12.355   2.558   5.208  1.0828  1.5669  0.0145
  298MOL0     H40214  10.898   1.502   4.700  0.6445 -3.0352  2.3533
  298MOL0     H40215  10.800   1.402   4.495  0.3961  0.0154 -1.0395
  298MOL0     H40216  10.396   1.005   4.400 -1.0452  1.0399  0.3006
  298MOL0     H40217  10.266   0.949   4.171 -2.2700  2.0129 -0.4819
  298MOL0     H40218  10.496   0.890   3.922  0.2875 -2.7446 -0.9039
  298MOL0     H40219  10.416   0.933   3.778  0.9823 -0.1593  0.1245
  298MOL0     H40220  10.198   0.846   3.892 -0.8582 -1.8036  0.2655
  298MOL0     H40221  10.293   0.783   4.019 -2.2899  3.1617 -0.4682
  298MOL0     H40222  10.369   0.715   3.737  0.9903  0.4791  0.3157
  298MOL0     H40223  10.214   0.653   3.805  0.3305  0.5513 -1.1689
  298MOL0     H40224  10.368   0.579   4.004  0.6543  0.7039 -0.3665
  298MOL0     H40225  10.383   0.483   3.852 -2.3402  0.4357 -0.4457
  298MOL0     H40226  10.773   0.648   3.919 -0.5532 -1.6590  1.3701
  298MOL0     H40227  10.521   1.214   3.977 -0.7076 -0.8316 -0.5341
  298MOL0     H40228  10.652   1.387   4.268  0.8838 -0.7996  0.4707
  298MOL0     H40229  10.722   1.283   4.144 -1.4924 -3.4359  1.7712
  298MOL0     H40230  10.594   1.398   4.096  3.5275  1.0222 -0.9428
  299MOL0     O40231   9.404   5.768   1.072  0.0278  0.3741 -0.4028
  299MOL0     C40232   9.456   5.726   0.966 -0.6847 -0.0705 -0.1717
  299MOL0     O40233   9.592   5.708   0.946 -0.0653  0.0820  0.6052
  299MOL0     C40234   9.693   5.698   1.043 -0.2611  0.0978 -0.2830
  299MOL0     C40235   9.693   5.755   1.170  0.4131 -0.2412 -0.3457
  299MOL0     C40236   9.788   5.722   1.267  0.1373 -0.9514  0.1831
  299MOL0     C40237   9.898   5.651   1.228 -0.1055 -0.3221 -0.0880
  299MOL0     O40238  10.009   5.628   1.308  0.6694  0.5778  0.5650
  299MOL0     C40239  10.008   5.663   1.442  0.5728 -0.4549 -0.0033
  299MOL0     C40240  10.134   5.625   1.519  0.2110  0.4084  0.2487
  299MOL0     C40241  10.263   5.688   1.465 -0.3239  0.1826 -0.1858
  299MOL0     C40242  10.375   5.667   1.566 -0.1131 -0.0749  0.2678
  299MOL0     C40243  10.491   5.758   1.527 -1.3070 -0.4056  0.0861
  299MOL0     C40244  10.617   5.735   1.622 -0.2751  0.0162 -0.6143
  299MOL0     C40245  10.684   5.597   1.590 -0.5122 -0.1854 -0.2724
  299MOL0     C40246  10.821   5.595   1.670  0.5889 -0.1513  0.1970
  299MOL0     N40247  10.912   5.489   1.625  0.1942  0.6240  0.2084
  299MOL0     C40248  11.045   5.504   1.591  0.1110 -0.2596 -0.2993
  299MOL0     C40249  11.083   5.381   1.537  1.3206 -0.1297  0.1810
  299MOL0     C40250  11.207   5.337   1.480  0.1585 -0.0879  0.0168
  299MOL0     C40251  11.329   5.432   1.486 -0.0554  0.5060 -0.2691
  299MOL0     C40252  11.455   5.357   1.440 -0.0756  0.1033 -0.1464
  299MOL0     C40253  11.584   5.426   1.481  0.1196  0.1128  0.8519
  299MOL0     O40254  11.698   5.343   1.452  0.4076  0.0391  0.4740
  299MOL0     C40255  11.815   5.407   1.413  0.2913  0.2162 -1.2572
  299MOL0     C40256  11.904   5.335   1.337  1.0643  0.1084  0.3995
  299MOL0     C40257  12.023   5.395   1.283 -0.1948 -0.1623 -0.4043
  299MOL0     C40258  12.066   5.518   1.335  0.4527 -1.0266 -0.4900
  299MOL0     C40259  12.186   5.578   1.292  0.7534 -0.2315 -0.0661
  299MOL0     O40260  12.261   5.655   1.374  0.3078 -0.3259 -0.3854
  299MOL0     C40261  12.362   5.724   1.307 -0.0698  1.1494 -0.3368
  299MOL0     C40262  12.370   5.862   1.305  0.5178 -0.2232 -0.7771
  299MOL0     C40263  12.463   5.929   1.225 -0.1895  0.5081  0.0749
  299MOL0     C40264  12.560   5.861   1.159 -0.1777 -1.0107  0.8399
  299MOL0     O40265  12.651   5.946   1.086 -0.0660  0.3750  0.0054
  299MOL0     C40266  12.728   5.883   0.984  0.2093  0.4960 -0.2112
  299MOL0     C40267  12.829   5.981   0.950 -0.5023 -0.5235  0.0606
  299MOL0     C40268  12.943   5.975   1.055 -0.1101 -0.5142 -0.3398
  299MOL0     C40269  13.027   6.099   1.060  0.3483  1.1553  0.2304
  299MOL0     C40270  13.105   6.119   0.923 -0.9641  0.1232  0.5486
  299MOL0     C40271  13.227   6.221   0.937  0.4305  0.3444 -0.6335
  299MOL0     C40272  13.251   6.275   0.803 -0.4574  0.3957  0.2117
  299MOL0     C40273  13.335   6.171   0.721  0.5684 -0.2214 -0.0527
  299MOL0    Cl40274  13.319   6.221   0.548  0.2257 -0.2670 -0.0635
  299MOL0     C40275  12.555   5.725   1.158  0.2433  0.2352 -0.9437
  299MOL0     C40276  12.460   5.658   1.233 -0.4120  1.1569  0.9786
  299MOL0     O40277  12.212   5.550   1.174  0.5034 -0.1846 -0.3281
  299MOL0     C40278  11.986   5.582   1.429  0.4342 -0.3388 -0.1720
  299MOL0     C40279  11.860   5.529   1.462  0.5113  0.3523 -0.7202
  299MOL0     N40280  10.978   5.299   1.559  0.7009 -0.0377 -0.0649
  299MOL0     N40281  10.877   5.358   1.607  0.7845  0.0616 -1.0771
  299MOL0     C40282   9.900   5.586   1.109 -0.2626 -0.1709 -0.1914
  299MOL0     C40283   9.799   5.609   1.016  0.8523  0.6506  0.0012
  299MOL0     C40284   9.365   5.712   0.852 -0.6114 -0.5916  0.0519
  299MOL0     C40285   9.413   5.732   0.731 -0.2040  0.2131 -0.0926
  299MOL0     C40286   9.327   5.730   0.620  0.2195  0.5536 -0.0064
  299MOL0     C40287   9.193   5.714   0.621 -1.1986  0.1689 -1.3660
  299MOL0     O40288   9.131   5.732   0.506 -0.0354  1.0133 -0.3845
  299MOL0     C40289   8.995   5.691   0.499  0.4354 -0.3530  0.6021
  299MOL0     C40290   8.950   5.726   0.354  0.6818 -0.4844  0.1558
  299MOL0     C40291   8.809   5.674   0.315  0.3196  0.1041 -0.8105
  299MOL0     C40292   8.704   5.714   0.420  0.5489  0.0318 -0.1095
  299MOL0     C40293   8.578   5.697   0.351 -0.1468 -0.7549 -0.0275
  299MOL0     C40294   8.475   5.681   0.291 -0.6664  0.4543 -0.0030
  299MOL0     C40295   9.147   5.672   0.749  0.1975 -0.2207  0.1046
  299MOL0     C40296   9.225   5.676   0.866  0.6215 -0.3445  0.4814
  299MOL0     C40297   9.159   5.633   0.997 -0.3815 -0.4779 -0.4328
  299MOL0     H40298   9.618   5.831   1.190 -0.2798 -0.7797 -0.8471
  299MOL0     H40299   9.802   5.791   1.350  0.6418  1.3683 -1.7044
  299MOL0     H40300  10.004   5.772   1.452 -0.5671 -0.6378  2.2153
  299MOL0     H40301   9.919   5.629   1.496  2.1851 -4.2071  0.6172
  299MOL0     H40302  10.156   5.518   1.507 -0.9629  0.1305  0.4661
  299MOL0     H40303  10.110   5.642   1.624  1.3767  3.6800  0.0788
  299MOL0     H40304  10.231   5.792   1.464 -1.5284 -0.1518  0.6722
  299MOL0     H40305  10.296   5.664   1.363  1.5158 -0.3260  0.4767
  299MOL0     H40306  10.327   5.686   1.662  0.5824  0.4883  0.5066
  299MOL0     H40307  10.405   5.562   1.556 -1.0735 -0.2890 -0.6714
  299MOL0     H40308  10.520   5.749   1.422  1.7964  0.0099  0.7970
  299MOL0     H40309  10.460   5.863   1.526  0.6039  0.3840 -4.3906
  299MOL0     H40310  10.682   5.819   1.596 -0.2779 -0.7567 -3.4175
  299MOL0     H40311  10.592   5.738   1.728  2.6213 -2.4887  0.2596
  299MOL0     H40312  10.711   5.600   1.484 -2.4946  2.1314 -0.8173
  299MOL0     H40313  10.618   5.512   1.608 -0.3408 -0.4457 -0.8735
  299MOL0     H40314  10.873   5.690   1.661  0.6015 -0.1959 -0.2580
  299MOL0     H40315  10.798   5.584   1.776 -0.4818 -0.0522 -0.0061
  299MOL0     H40316  11.108   5.592   1.586 -0.0038 -0.0730  1.0422
  299MOL0     H40317  11.226   5.244   1.534  1.8018  0.0675 -0.2459
  299MOL0     H40318  11.194   5.305   1.376 -0.8338 -3.0386  0.9573
  299MOL0     H40319  11.320   5.522   1.424  4.2700  3.2150  2.4855
  299MOL0     H40320  11.328   5.458   1.592  0.7635 -0.1751 -0.0847
  299MOL0     H40321  11.451   5.349   1.331 -0.7722 -0.5382 -0.0886
  299MOL0     H40322  11.456   5.251   1.469 -1.4752  0.1389  0.1436
  299MOL0     H40323  11.589   5.455   1.587  1.0180  1.0558  0.5718
  299MOL0     H40324  11.588   5.517   1.420  4.0138 -0.6329 -0.2960
  299MOL0     H40325  11.871   5.233   1.321  3.1792 -0.5326 -0.1977
  299MOL0     H40326  12.083   5.331   1.219  2.5953  0.0529  1.8136
  299MOL0     H40327  12.303   5.921   1.367 -1.0174 -0.1161 -2.4546
  299MOL0     H40328  12.459   6.037   1.216  1.1421  0.5788  0.1598
  299MOL0     H40329  12.783   5.796   1.020  2.1271  2.1375  1.0525
  299MOL0     H40330  12.667   5.855   0.897  0.0321 -2.0476  0.6460
  299MOL0     H40331  12.869   5.949   0.854 -2.7702 -5.1949  0.3784
  299MOL0     H40332  12.797   6.085   0.949 -2.0677 -0.8756  2.7451
  299MOL0     H40333  12.904   5.949   1.154  0.6772  2.9446  1.0592
  299MOL0     H40334  13.003   5.885   1.039 -0.2736 -0.9578  1.3917
  299MOL0     H40335  13.094   6.092   1.146  0.0189  2.4077  0.6054
  299MOL0     H40336  12.964   6.187   1.075  0.6610  1.2771  0.8701
  299MOL0     H40337  13.040   6.135   0.837  0.8624  1.0088 -0.7185
  299MOL0     H40338  13.146   6.021   0.898 -0.5308  0.2303  0.8142
  299MOL0     H40339  13.186   6.298   1.002  0.0874 -0.4318  0.0952
  299MOL0     H40340  13.318   6.178   0.980 -0.9416 -3.3412 -1.0180
  299MOL0     H40341  13.306   6.368   0.819 -0.9672  0.7407 -0.0091
  299MOL0     H40342  13.155   6.291   0.753 -0.9350  1.3441  1.3544
  299MOL0     H40343  13.437   6.166   0.759  1.1974  1.4390 -1.3948
  299MOL0     H40344  13.284   6.074   0.726  1.4870 -0.6581  1.7795
  299MOL0     H40345  12.631   5.658   1.119 -1.7593 -1.6409 -1.7918
  299MOL0     H40346  12.462   5.549   1.240 -0.9309  1.0294 -0.4659
  299MOL0     H40347  12.035   5.665   1.478  0.7721 -1.5393  1.6533
  299MOL0     H40348  11.793   5.599   1.512 -1.3497  0.1461 -2.7247
  299MOL0     H40349   9.986   5.523   1.089  0.8489  1.7621 -1.8915
  299MOL0     H40350   9.812   5.549   0.926 -1.1119 -0.5780  0.4798
  299MOL0     H40351   9.517   5.761   0.717 -0.0338  0.5922  1.7810
  299MOL0     H40352   9.368   5.759   0.524  0.5242 -0.5011 -0.2057
  299MOL0     H40353   8.927   5.740   0.569 -2.8636 -1.7665 -1.3554
  299MOL0     H40354   8.983   5.584   0.521  1.3666 -0.5935  0.0071
  299MOL0     H40355   9.022   5.686   0.282 -2.9917 -3.1219 -2.3862
  299MOL0     H40356   8.959   5.835   0.350  2.2200 -0.6238 -2.5007
  299MOL0     H40357   8.811   5.565   0.306 -0.1421 -0.1482  1.5106
  299MOL0     H40358   8.774   5.715   0.219  0.3071  2.6299  0.2156
  299MOL0     H40359   8.716   5.656   0.512  1.4735  1.3160  0.6079
  299MOL0     H40360   8.705   5.815   0.462  0.7408 -0.0998  0.2040
  299MOL0     H40361   8.375   5.670   0.254 -0.2324 -1.5315 -0.7115
  299MOL0     H40362   9.039   5.661   0.760  0.1020  1.6211  1.5280
  299MOL0     H40363   9.145   5.715   1.068 -3.6068 -2.6893  1.7661
  299MOL0     H40364   9.057   5.605   0.970 -0.1479 -1.2290 -0.5705
  299MOL0     H40365   9.204   5.549   1.051  1.9397  1.1301  0.3262
  300MOL0     O40366   0.345  11.239   8.661 -0.3987 -0.6678 -0.2192
  300MOL0     C40367   0.288  11.314   8.740  0.1779 -0.4870  0.1245
  300MOL0     O40368   0.347  11.375   8.847  0.3577 -0.1227 -0.4648
  300MOL0     C40369   0.482  11.358   8.866  0.0536 -0.3400  0.0636
  300MOL0     C40370   0.551  11.236   8.863  0.0343  0.7857 -0.1454
  300MOL0     C40371   0.680  11.220   8.910  1.0128  0.0578 -0.0291
  300MOL0     C40372   0.750  11.330   8.956  0.4048 -0.0567 -0.0451
  300MOL0     O40373   0.868  11.329   9.025  0.1740  0.1938  0.5829
  300MOL0     C40374   0.916  11.204   9.081 -0.3955 -0.2052 -0.5492
  300MOL0     C40375   0.995  11.125   8.977  0.1437  0.4816 -0.6779
  300MOL0     C40376   1.020  10.980   9.008 -0.5243  0.4004  0.0444
  300MOL0     C40377   1.139  10.975   9.112  0.0922 -0.9204 -0.4066
  300MOL0     C40378   1.171  10.832   9.159  0.5705 -0.3310  0.3705
  300MOL0     C40379   1.319  10.833   9.186 -0.2232  0.1281  0.2987
  300MOL0     C40380   1.368  10.685   9.230 -0.3477 -0.0854 -0.1386
  300MOL0     C40381   1.509  10.686   9.280  0.6817  0.1701 -0.4414
  300MOL0     N40382   1.569  10.551   9.271 -0.4122 -0.4325  0.1119
  300MOL0     C40383   1.645  10.502   9.159  0.6168 -0.0851 -0.1491
  300MOL0     C40384   1.663  10.369   9.191  0.1400 -0.4419  0.7051
  300MOL0     C40385   1.733  10.267   9.095  0.4473 -0.6733 -0.3721
  300MOL0     C40386   1.883  10.261   9.115 -0.0961  0.5793  0.1562
  300MOL0     C40387   1.948  10.390   9.102 -0.1266 -1.3092  0.0125
  300MOL0     C40388   2.092  10.382   9.109 -0.5015 -0.3338 -0.9364
  300MOL0     O40389   2.153  10.315   8.999  0.6397 -0.2527  0.3521
  300MOL0     C40390   2.274  10.254   9.007  0.8288  0.0154  0.0449
  300MOL0     C40391   2.382  10.304   9.079  0.0092 -0.4899 -0.7038
  300MOL0     C40392   2.505  10.233   9.081  0.3846  0.3121  0.5013
  300MOL0     C40393   2.517  10.122   8.991 -0.1429  0.7473  0.1042
  300MOL0     C40394   2.646  10.045   8.986 -0.3131  0.1723  0.1918
  300MOL0     O40395   2.670   9.961   8.879  0.7357 -0.4390  0.2404
  300MOL0     C40396   2.790   9.894   8.873  0.4090 -0.1981 -0.3470
  300MOL0     C40397   2.889   9.937   8.785 -0.0184  0.0309 -0.1840
  300MOL0     C40398   3.010   9.872   8.786 -0.7370 -0.2919 -0.2551
  300MOL0     C40399   3.034   9.758   8.866  0.4600 -0.9113  0.3928
  300MOL0     O40400   3.151   9.684   8.862  0.6097  0.3862  0.0778
  300MOL0     C40401   3.249   9.710   8.757  0.4509  0.0196  0.8848
  300MOL0     C40402   3.206   9.671   8.618 -1.0320  0.0818  0.2043
  300MOL0     C40403   3.297   9.737   8.513 -0.3823  0.4306 -0.2461
  300MOL0     C40404   3.286   9.674   8.375 -0.3843  0.1638 -0.0951
  300MOL0     C40405   3.362   9.539   8.367 -0.1283 -0.3330  0.1918
  300MOL0     C40406   3.526   9.558   8.361  1.2872  0.4359 -0.0502
  300MOL0     C40407   3.555   9.598   8.222 -0.0253 -0.8078 -0.2383
  300MOL0     C40408   3.704   9.610   8.206  0.0817  0.8417 -0.3099
  300MOL0    Cl40409   3.751   9.684   8.047 -0.4612 -0.1769  0.2026
  300MOL0     C40410   2.928   9.708   8.941 -0.0447  0.2547  0.0829
  300MOL0     C40411   2.807   9.783   8.946 -0.2107  0.1329 -0.5748
  300MOL0     O40412   2.730  10.073   9.069 -0.1074 -0.1500 -0.0713
  300MOL0     C40413   2.408  10.076   8.919 -1.4112  0.9035 -0.2389
  300MOL0     C40414   2.288  10.145   8.928  0.7451  0.7102  0.1962
  300MOL0     N40415   1.595  10.336   9.307 -0.1488 -0.2584 -0.1172
  300MOL0     N40416   1.535  10.445   9.347 -0.0121  0.3016 -0.1045
  300MOL0     C40417   0.690  11.459   8.952  0.2678  0.7481  0.4737
  300MOL0     C40418   0.560  11.470   8.911 -0.2547 -0.5050 -0.6177
  300MOL0     C40419   0.148  11.341   8.714  0.6726  0.2003  0.4451
  300MOL0     C40420   0.081  11.263   8.613 -0.6103 -0.6645  0.0117
  300MOL0     C40421  -0.045  11.294   8.574  0.9088  0.1826  1.0740
  300MOL0     C40422  -0.128  11.384   8.636 -0.0153  0.2611 -0.3935
  300MOL0     O40423  -0.260  11.401   8.584 -0.3133 -0.9877  0.2919
  300MOL0     C40424  -0.362  11.423   8.680  0.6450 -0.3306  0.1851
  300MOL0     C40425  -0.500  11.401   8.616 -0.5691  0.4637 -0.0749
  300MOL0     C40426  -0.538  11.502   8.516 -0.2548 -0.0252 -0.1725
  300MOL0     C40427  -0.670  11.467   8.451 -0.0097  0.0122  0.8000
  300MOL0     C40428  -0.788  11.482   8.538  0.4496  0.6184 -0.7174
  300MOL0     C40429  -0.886  11.505   8.611  0.3623  0.2944  0.5009
  300MOL0     C40430  -0.065  11.465   8.731  0.9662 -0.1474 -0.1685
  300MOL0     C40431   0.070  11.453   8.767 -0.0966 -0.1927 -0.0306
  300MOL0     C40432   0.127  11.562   8.859  0.3025  0.3743  0.4884
  300MOL0     H40433   0.502  11.141   8.841 -1.2477  0.4609  3.5036
  300MOL0     H40434   0.728  11.123   8.918  2.3260  0.8642  4.2733
  300MOL0     H40435   0.989  11.222   9.161 -0.5205 -2.2130  0.0880
  300MOL0     H40436   0.830  11.150   9.121 -0.6251  0.9984  0.6626
  300MOL0     H40437   1.088  11.172   8.943  0.9839  0.4145  1.3848
  300MOL0     H40438   0.923  11.123   8.894 -0.5239 -0.2107 -0.1010
  300MOL0     H40439   1.061  10.928   8.920 -1.5042  0.2238 -0.3250
  300MOL0     H40440   0.935  10.918   9.036  0.7337  0.3621  4.5631
  300MOL0     H40441   1.226  11.021   9.065 -1.4166  3.5729  0.6652
  300MOL0     H40442   1.119  11.036   9.201  0.1214  0.2321 -1.1668
  300MOL0     H40443   1.127  10.807   9.255 -0.1216  1.1442  0.4611
  300MOL0     H40444   1.141  10.755   9.087 -1.1522  1.5253 -1.0288
  300MOL0     H40445   1.369  10.855   9.091 -1.5848 -0.5187 -0.6131
  300MOL0     H40446   1.329  10.906   9.267 -0.7749  2.0420 -1.2880
  300MOL0     H40447   1.362  10.625   9.139  0.0033 -0.3286 -0.0029
  300MOL0     H40448   1.302  10.642   9.307  2.0917  1.3298  2.9732
  300MOL0     H40449   1.568  10.762   9.228 -0.1156  2.1939  1.4742
  300MOL0     H40450   1.506  10.723   9.383  1.4299 -0.9245 -0.0040
  300MOL0     H40451   1.686  10.563   9.080  2.0728 -2.1811 -1.1044
  300MOL0     H40452   1.684  10.170   9.110  1.4619 -1.2657 -0.7850
  300MOL0     H40453   1.713  10.298   8.992  0.4527 -3.0576 -1.1670
  300MOL0     H40454   1.907  10.232   9.218 -1.9920 -0.0210  0.4636
  300MOL0     H40455   1.916  10.186   9.042  0.7348 -0.8861  1.9779
  300MOL0     H40456   1.911  10.463   9.174 -2.1775  0.4487 -2.6134
  300MOL0     H40457   1.926  10.439   9.006  2.7482  0.2036  0.0141
  300MOL0     H40458   2.125  10.339   9.204  1.1829  0.3334 -1.1851
  300MOL0     H40459   2.124  10.487   9.110 -0.9486 -0.1904 -1.4019
  300MOL0     H40460   2.366  10.383   9.152  0.4734 -0.4755 -0.6211
  300MOL0     H40461   2.588  10.254   9.148  0.5266  2.0059 -0.1729
  300MOL0     H40462   2.887  10.012   8.707 -0.5425 -2.7923 -3.0683
  300MOL0     H40463   3.086   9.918   8.724 -2.4585  0.2758 -2.0421
  300MOL0     H40464   3.276   9.815   8.763  0.7386 -0.0476  0.7432
  300MOL0     H40465   3.338   9.651   8.782  1.5360  2.4783  3.3381
  300MOL0     H40466   3.220   9.563   8.620  0.9124  0.2665  4.0403
  300MOL0     H40467   3.100   9.694   8.604 -0.5406  3.6966  1.4396
  300MOL0     H40468   3.262   9.841   8.503 -1.8802  0.0240  0.4353
  300MOL0     H40469   3.405   9.742   8.530 -0.4260  1.7671 -0.2113
  300MOL0     H40470   3.327   9.743   8.301  0.9319 -1.7591 -1.2621
  300MOL0     H40471   3.181   9.661   8.346 -0.1364  3.3065 -3.0823
  300MOL0     H40472   3.321   9.486   8.281 -2.4876  0.7238  0.5588
  300MOL0     H40473   3.337   9.480   8.455 -0.0249 -0.4956  0.1105
  300MOL0     H40474   3.570   9.622   8.438  0.2441  2.1403 -0.8024
  300MOL0     H40475   3.565   9.457   8.375  0.1646  0.0347  0.3201
  300MOL0     H40476   3.524   9.701   8.201  1.9327 -0.3382 -1.0504
  300MOL0     H40477   3.507   9.528   8.153  1.5277 -1.7382 -0.4220
  300MOL0     H40478   3.745   9.668   8.289 -0.4751 -2.0291  2.1528
  300MOL0     H40479   3.750   9.510   8.209  2.2557  1.7589 -0.8837
  300MOL0     H40480   2.941   9.612   8.989  1.6753 -0.1704 -1.1276
  300MOL0     H40481   2.728   9.740   9.007  1.2563 -0.7008  0.8178
  300MOL0     H40482   2.425   9.993   8.851  3.4534  0.6004  1.0075
  300MOL0     H40483   2.199  10.114   8.874  1.0567 -0.9211  0.5682
  300MOL0     H40484   0.746  11.549   8.975  0.0967  1.3813 -1.4080
  300MOL0     H40485   0.511  11.566   8.915 -0.4560 -0.6077 -0.6008
  300MOL0     H40486   0.133  11.194   8.547 -2.7837 -0.9954 -1.4815
  300MOL0     H40487  -0.102  11.238   8.501 -1.0606  3.1664  0.1126
  300MOL0     H40488  -0.369  11.520   8.730 -0.7802 -0.1281 -0.3479
  300MOL0     H40489  -0.354  11.349   8.760  1.5462 -2.2165 -1.5376
  300MOL0     H40490  -0.574  11.392   8.696  0.4322 -0.8042  0.7316
  300MOL0     H40491  -0.508  11.307   8.561 -0.2751  0.5738 -0.3071
  300MOL0     H40492  -0.455  11.504   8.446  0.0956 -1.6286  0.1543
  300MOL0     H40493  -0.550  11.604   8.555 -1.3035 -0.9300  2.0322
  300MOL0     H40494  -0.680  11.531   8.363 -0.8764 -0.0504  0.8482
  300MOL0     H40495  -0.660  11.363   8.416 -0.2062  0.3982 -0.4504
  300MOL0     H40496  -0.971  11.533   8.671  1.2704  3.5880  0.4642
  300MOL0     H40497  -0.122  11.548   8.770  0.5774 -0.5329  0.0892
  300MOL0     H40498   0.118  11.524   8.960 -1.0233  1.3338  0.7572
  300MOL0     H40499   0.232  11.587   8.839 -0.2369  2.3908 -0.0907
  300MOL0     H40500   0.061  11.648   8.844 -3.4435 -2.0966  1.3997
  301MOL0     O40501   7.664   4.769   7.869 -0.1324 -0.1375 -0.3825
  301MOL0     C40502   7.603   4.860   7.926  0.2354 -0.4326  0.0458
  301MOL0     O40503   7.630   4.912   8.047  0.0511 -0.4595 -0.9245
  301MOL0     C40504   7.704   4.831   8.139  0.3597  0.2340 -0.4833
  301MOL0     C40505   7.635   4.759   8.240 -0.8822  0.2312 -0.0528
  301MOL0     C40506   7.699   4.678   8.331  0.2198 -0.5906 -0.3970
  301MOL0     C40507   7.835   4.668   8.329 -1.0429  0.0353 -0.6017
  301MOL0     O40508   7.910   4.596   8.417  0.0925  0.1428  0.0406
  301MOL0     C40509   7.835   4.486   8.480 -1.0195  0.5418  0.1868
  301MOL0     C40510   7.917   4.354   8.520 -0.8171 -0.6997 -0.0855
  301MOL0     C40511   8.005   4.374   8.639 -0.1354 -0.7451 -0.6828
  301MOL0     C40512   8.086   4.241   8.681 -0.6771  0.5097 -0.0400
  301MOL0     C40513   8.208   4.198   8.602  0.0323 -0.2152 -0.1233
  301MOL0     C40514   8.307   4.309   8.580 -0.0978  0.1608  0.2496
  301MOL0     C40515   8.439   4.249   8.527 -0.4016  0.0352  0.6054
  301MOL0     C40516   8.513   4.168   8.632 -0.0831  0.1328  0.1119
  301MOL0     N40517   8.642   4.139   8.572  0.0841  0.3074 -0.2096
  301MOL0     C40518   8.750   4.222   8.577  0.8535  0.0149 -0.5456
  301MOL0     C40519   8.851   4.158   8.508 -0.6698 -0.4762 -0.5184
  301MOL0     C40520   8.977   4.218   8.472  0.1047  0.2680  0.4507
  301MOL0     C40521   9.075   4.105   8.437 -0.0449  0.6221 -0.5132
  301MOL0     C40522   9.117   4.025   8.558 -0.5184 -0.5486 -0.8617
  301MOL0     C40523   9.170   4.100   8.677  0.2462 -0.9455  0.2435
  301MOL0     O40524   9.284   4.177   8.648  0.2987 -0.0387 -0.4685
  301MOL0     C40525   9.364   4.235   8.752  0.9380  0.3066 -0.1617
  301MOL0     C40526   9.331   4.231   8.887 -0.4466  1.1858 -0.1514
  301MOL0     C40527   9.399   4.294   8.988 -0.3624 -0.6526  0.6435
  301MOL0     C40528   9.511   4.366   8.946 -0.6531 -0.0038  0.6099
  301MOL0     C40529   9.581   4.450   9.047  0.2363 -0.9991 -0.5648
  301MOL0     O40530   9.668   4.539   8.988  0.0141  0.4546 -0.3662
  301MOL0     C40531   9.739   4.623   9.074  0.3591  0.5049 -0.1128
  301MOL0     C40532   9.683   4.743   9.125 -0.9537 -0.6983  0.8368
  301MOL0     C40533   9.748   4.821   9.222  0.1798  0.0751  0.6768
  301MOL0     C40534   9.882   4.793   9.250 -0.0195  0.7888  0.2590
  301MOL0     O40535   9.939   4.885   9.333 -0.3899  0.1691 -0.2030
  301MOL0     C40536  10.078   4.872   9.353  0.4788  0.5145  0.4139
  301MOL0     C40537  10.138   4.978   9.440 -0.0166  0.3159  0.8568
  301MOL0     C40538  10.289   4.962   9.477  0.2295  0.0729  1.0721
  301MOL0     C40539  10.321   4.966   9.629 -0.1778 -0.1418 -0.1603
  301MOL0     C40540  10.463   4.942   9.671 -0.0294  0.6369 -0.7544
  301MOL0     C40541  10.557   5.035   9.588 -0.5259 -0.0763 -0.1487
  301MOL0     C40542  10.701   5.053   9.641 -0.3145  0.4016 -0.3862
  301MOL0     C40543  10.765   4.918   9.683  0.3458 -0.2830 -0.2714
  301MOL0    Cl40544  10.942   4.926   9.704 -0.2772 -0.1651  0.3452
  301MOL0     C40545   9.943   4.679   9.198  0.0860  0.9111  0.4026
  301MOL0     C40546   9.867   4.589   9.119  0.2425 -0.6484  0.2910
  301MOL0     O40547   9.552   4.447   9.171 -0.5359 -0.4919  0.8738
  301MOL0     C40548   9.554   4.367   8.812 -0.3766 -0.3519 -0.7987
  301MOL0     C40549   9.482   4.303   8.719 -0.0540  0.0922  0.7777
  301MOL0     N40550   8.804   4.033   8.476  0.4852 -0.0769 -0.2813
  301MOL0     N40551   8.684   4.027   8.511  0.2806 -0.1646  0.3773
  301MOL0     C40552   7.909   4.746   8.242 -0.3742 -0.7304 -0.3541
  301MOL0     C40553   7.850   4.819   8.143  0.1486  0.0234 -0.2535
  301MOL0     C40554   7.476   4.911   7.860 -0.6487 -0.3305 -0.4603
  301MOL0     C40555   7.373   4.966   7.938  0.1363  0.9195  0.0741
  301MOL0     C40556   7.262   5.028   7.884 -0.2096  0.3913  1.4004
  301MOL0     C40557   7.235   5.011   7.748 -0.2085 -0.3130  0.1327
  301MOL0     O40558   7.115   5.053   7.694  0.0737  0.1511 -0.4926
  301MOL0     C40559   7.099   5.073   7.554 -0.1023  0.4023  0.1441
  301MOL0     C40560   6.969   5.161   7.529 -0.5679  0.0386  0.2261
  301MOL0     C40561   6.847   5.092   7.597  0.2334  0.0067 -0.0369
  301MOL0     C40562   6.715   5.109   7.524  0.2405  0.0807 -0.2768
  301MOL0     C40563   6.607   5.073   7.614  0.6342 -0.9701 -0.5466
  301MOL0     C40564   6.520   5.042   7.692  0.9752 -0.3697  0.0420
  301MOL0     C40565   7.327   4.936   7.676 -0.7169 -0.1376  0.6509
  301MOL0     C40566   7.455   4.899   7.725 -0.5036  0.7888  0.4904
  301MOL0     C40567   7.552   4.851   7.625 -0.3152 -0.3563  0.2898
  301MOL0     H40568   7.526   4.755   8.232 -0.7210 -1.1275 -2.3280
  301MOL0     H40569   7.641   4.614   8.395 -3.5472  2.4214 -0.4276
  301MOL0     H40570   7.788   4.529   8.569  0.5182  0.7371  0.9253
  301MOL0     H40571   7.764   4.440   8.410  0.3963  0.3310 -1.1484
  301MOL0     H40572   7.968   4.316   8.430 -2.9124 -1.5916 -0.9720
  301MOL0     H40573   7.842   4.284   8.558 -0.3224 -2.5257 -2.1887
  301MOL0     H40574   7.940   4.406   8.721  0.2840 -0.3818 -0.4886
  301MOL0     H40575   8.079   4.450   8.615  1.2624 -1.1915  1.8324
  301MOL0     H40576   8.115   4.252   8.786 -2.4823  0.0950  0.5454
  301MOL0     H40577   8.014   4.159   8.676  0.4488 -0.4669 -1.1521
  301MOL0     H40578   8.248   4.113   8.659  1.4924  0.5815  0.0894
  301MOL0     H40579   8.175   4.157   8.506 -0.5816 -0.0763  0.0240
  301MOL0     H40580   8.273   4.387   8.512  1.6009  0.7312  0.0093
  301MOL0     H40581   8.320   4.364   8.674 -0.6364  2.1847 -0.8131
  301MOL0     H40582   8.500   4.330   8.487  1.4522 -2.0944 -1.1026
  301MOL0     H40583   8.414   4.187   8.440  2.4778  0.8015 -0.8710
  301MOL0     H40584   8.530   4.214   8.730  1.4412  0.4001 -0.2542
  301MOL0     H40585   8.462   4.072   8.648 -1.9921  1.1472  0.3603
  301MOL0     H40586   8.754   4.321   8.622 -0.7669 -0.5529  0.9230
  301MOL0     H40587   8.977   4.280   8.382  0.3515  2.8963  2.1451
  301MOL0     H40588   9.024   4.286   8.544  0.5462  0.4871 -0.0472
  301MOL0     H40589   9.035   4.035   8.363 -3.0601  0.9892  0.6087
  301MOL0     H40590   9.163   4.156   8.398  1.3429 -2.0311 -1.1144
  301MOL0     H40591   9.190   3.948   8.530 -0.1889 -0.9427  0.9598
  301MOL0     H40592   9.030   3.968   8.591 -0.4224 -0.1151  0.1819
  301MOL0     H40593   9.188   4.026   8.755  1.7628 -1.1461 -0.2683
  301MOL0     H40594   9.091   4.167   8.713  0.9683 -0.4301  0.9009
  301MOL0     H40595   9.242   4.171   8.904  0.3153 -1.1535 -3.5257
  301MOL0     H40596   9.359   4.299   9.088 -4.5724  0.0422 -0.8564
  301MOL0     H40597   9.581   4.760   9.091 -0.8646  0.2135  1.0046
  301MOL0     H40598   9.697   4.894   9.285 -2.5915 -1.2731  0.1510
  301MOL0     H40599  10.094   4.774   9.399  0.9276 -0.3768 -1.5540
  301MOL0     H40600  10.128   4.861   9.257  0.2794  0.3752  0.3245
  301MOL0     H40601  10.124   5.080   9.403  1.0967 -0.3322 -1.5385
  301MOL0     H40602  10.077   4.979   9.531 -0.1409 -0.5137  0.7915
  301MOL0     H40603  10.330   4.873   9.428 -0.3970  1.4256 -2.1715
  301MOL0     H40604  10.337   5.046   9.426 -2.8180  0.4197 -1.5466
  301MOL0     H40605  10.254   4.895   9.678  0.8937 -0.3555  1.0466
  301MOL0     H40606  10.298   5.065   9.669 -1.2440  0.3033 -1.7689
  301MOL0     H40607  10.488   4.837   9.652  3.2730  1.4695 -1.5654
  301MOL0     H40608  10.479   4.959   9.778  1.7728 -0.4249 -0.8216
  301MOL0     H40609  10.565   4.992   9.487  0.3677 -0.3872  0.0452
  301MOL0     H40610  10.511   5.134   9.583  1.7206  1.1351  1.6720
  301MOL0     H40611  10.702   5.115   9.731  3.2657 -1.5787  1.1538
  301MOL0     H40612  10.761   5.091   9.558  0.0969 -1.2609 -0.8867
  301MOL0     H40613  10.734   4.889   9.784  2.6372 -0.0473  0.5781
  301MOL0     H40614  10.736   4.840   9.612 -3.1420  2.3675 -2.0306
  301MOL0     H40615  10.049   4.662   9.214  0.0156  0.3537  0.2891
  301MOL0     H40616   9.911   4.493   9.092  1.3073 -0.6289  1.8209
  301MOL0     H40617   9.644   4.421   8.782  1.3340 -1.0038  2.6978
  301MOL0     H40618   9.501   4.323   8.614 -0.8357 -0.3091  0.5470
  301MOL0     H40619   8.016   4.727   8.245 -0.3156 -0.7653 -1.7781
  301MOL0     H40620   7.908   4.870   8.066 -0.7171  0.9198 -0.3386
  301MOL0     H40621   7.388   4.973   8.045  0.9869 -1.0457  0.1251
  301MOL0     H40622   7.177   5.064   7.941 -0.2782  2.3746  0.1364
  301MOL0     H40623   7.097   4.974   7.506  0.7376  0.8516 -0.8680
  301MOL0     H40624   7.178   5.136   7.511  0.6328 -0.1641  0.6345
  301MOL0     H40625   6.955   5.163   7.421 -1.5866 -0.4838  0.3404
  301MOL0     H40626   6.969   5.265   7.563 -1.4625 -0.3019  1.3435
  301MOL0     H40627   6.842   5.143   7.694 -1.8046  0.2876 -0.2453
  301MOL0     H40628   6.873   4.986   7.598 -0.6317 -0.2245 -0.7555
  301MOL0     H40629   6.699   5.213   7.492 -0.6913  0.6852  1.9828
  301MOL0     H40630   6.710   5.050   7.432  0.2074  0.0626 -0.2639
  301MOL0     H40631   6.429   5.023   7.746 -1.9145  0.6007 -3.9740
  301MOL0     H40632   7.299   4.920   7.573 -1.7419  1.8918  0.5526
  301MOL0     H40633   7.568   4.744   7.646  2.1987  0.4212  3.0052
  301MOL0     H40634   7.515   4.869   7.524 -1.9188  0.2739  0.9456
  301MOL0     H40635   7.644   4.909   7.636  1.8663 -3.7859  1.8501
  302MOL0     O40636   9.683   6.892  10.684 -0.8292 -0.3736 -0.7326
  302MOL0     C40637   9.650   6.802  10.771 -0.0136 -0.8324  0.5711
  302MOL0     O40638   9.739   6.719  10.833 -0.2395 -0.1274 -0.2523
  302MOL0     C40639   9.864   6.767  10.873 -0.5699 -0.2694 -0.2433
  302MOL0     C40640   9.973   6.686  10.881  0.3120  0.8007  0.3897
  302MOL0     C40641  10.090   6.735  10.935  0.4997 -0.5717 -0.4277
  302MOL0     C40642  10.105   6.866  10.977  0.3273 -0.4826  0.5306
  302MOL0     O40643  10.232   6.904  11.006  0.4227  0.2864 -0.1479
  302MOL0     C40644  10.271   7.039  10.984 -0.4043 -0.4419  0.2111
  302MOL0     C40645  10.427   7.032  11.002  0.4006 -0.3213 -0.4728
  302MOL0     C40646  10.448   7.054  11.153 -0.2507 -0.5789  0.4425
  302MOL0     C40647  10.590   7.101  11.193  0.7751 -0.0429  0.2883
  302MOL0     C40648  10.591   7.095  11.352  1.4025 -0.2584  0.2711
  302MOL0     C40649  10.571   6.948  11.409 -0.0860 -0.0848  0.6002
  302MOL0     C40650  10.602   6.926  11.557 -0.6660  0.0678 -0.0025
  302MOL0     C40651  10.501   6.988  11.649  0.8137 -0.4947 -0.8209
  302MOL0     N40652  10.540   6.985  11.789 -0.0693 -0.0692  0.1979
  302MOL0     C40653  10.655   7.047  11.833  1.0748 -1.3475 -0.7183
  302MOL0     C40654  10.666   7.014  11.968  0.6179 -0.1157  0.6303
  302MOL0     C40655  10.768   7.061  12.068  0.5419 -0.3100  0.4222
  302MOL0     C40656  10.902   7.109  12.008 -0.0065  0.2025 -0.2602
  302MOL0     C40657  11.000   7.144  12.121 -0.1570  0.3908 -0.1108
  302MOL0     C40658  11.129   7.207  12.069  0.3643  0.1102 -0.3119
  302MOL0     O40659  11.200   7.262  12.178  0.0938  0.1126  0.4315
  302MOL0     C40660  11.338   7.243  12.180 -0.5264 -0.6873 -0.4842
  302MOL0     C40661  11.411   7.347  12.230  0.0056 -0.1699  0.5158
  302MOL0     C40662  11.553   7.334  12.247 -0.0796  0.4716 -0.1419
  302MOL0     C40663  11.616   7.213  12.207 -0.6279  0.0275 -0.2598
  302MOL0     C40664  11.759   7.188  12.234  0.1251 -0.2488  0.7415
  302MOL0     O40665  11.830   7.299  12.288  0.0532 -0.1018  0.3084
  302MOL0     C40666  11.966   7.299  12.290 -0.0101 -0.0371 -0.1420
  302MOL0     C40667  12.034   7.256  12.177 -0.2666 -0.2992 -0.5505
  302MOL0     C40668  12.171   7.260  12.169  0.6033  0.1077  0.8696
  302MOL0     C40669  12.250   7.318  12.269 -0.2491  0.1042 -0.3158
  302MOL0     O40670  12.386   7.328  12.272 -0.5840 -0.0283 -1.1390
  302MOL0     C40671  12.451   7.211  12.226 -0.1287  0.8351  0.3038
  302MOL0     C40672  12.464   7.099  12.328  0.0136 -1.3114 -0.7108
  302MOL0     C40673  12.560   7.130  12.445  0.5381  0.3322 -0.2821
  302MOL0     C40674  12.596   7.007  12.525  0.1271 -0.9993 -0.6338
  302MOL0     C40675  12.675   6.913  12.441 -0.5289  0.9208 -0.3686
  302MOL0     C40676  12.768   6.819  12.513 -0.6668 -0.3977 -0.8004
  302MOL0     C40677  12.874   6.878  12.615 -0.6328 -0.4100  0.9572
  302MOL0     C40678  12.967   6.979  12.558 -0.2666  0.0875  0.0970
  302MOL0    Cl40679  13.016   6.928  12.397 -0.0816 -0.0831 -0.4813
  302MOL0     C40680  12.181   7.367  12.390  0.3950  0.3086  0.9510
  302MOL0     C40681  12.038   7.362  12.390  0.7732  0.2112 -0.2540
  302MOL0     O40682  11.807   7.070  12.222 -0.4676  0.1764 -0.8835
  302MOL0     C40683  11.535   7.104  12.162  0.3512  0.6079  0.4517
  302MOL0     C40684  11.398   7.123  12.147 -0.0625  0.1224  0.5490
  302MOL0     N40685  10.570   6.922  11.990  0.0258  0.2790 -0.9184
  302MOL0     N40686  10.499   6.899  11.884  0.0566 -0.2981 -0.0225
  302MOL0     C40687   9.996   6.951  10.957 -0.8053 -0.1182 -0.6168
  302MOL0     C40688   9.879   6.900  10.912 -0.2085 -0.4381 -0.4412
  302MOL0     C40689   9.501   6.771  10.798 -0.2517 -0.6888 -0.1888
  302MOL0     C40690   9.401   6.857  10.734  0.7815  0.0408  1.0223
  302MOL0     C40691   9.264   6.835  10.750 -0.4751 -0.5490  0.1224
  302MOL0     C40692   9.212   6.727  10.814  0.4009 -0.4284  0.3681
  302MOL0     O40693   9.076   6.692  10.832  0.1641  0.4702  0.1968
  302MOL0     C40694   8.975   6.787  10.790 -0.2436 -0.2223 -0.0387
  302MOL0     C40695   8.831   6.740  10.830 -0.0356 -0.3839 -0.1542
  302MOL0     C40696   8.734   6.852  10.785  0.2083  0.0049  0.4709
  302MOL0     C40697   8.591   6.803  10.790  0.3952 -0.7190  1.0804
  302MOL0     C40698   8.488   6.897  10.744 -0.1708 -0.3236  0.5348
  302MOL0     C40699   8.399   6.972  10.708  0.3262  0.0994  0.4079
  302MOL0     C40700   9.307   6.632  10.853  0.2585 -0.0967 -0.1427
  302MOL0     C40701   9.444   6.658  10.862  0.2792  0.4651 -0.0644
  302MOL0     C40702   9.525   6.547  10.928  0.2949 -0.3221  0.1626
  302MOL0     H40703   9.959   6.580  10.860 -0.7696  0.7252  1.4250
  302MOL0     H40704  10.180   6.675  10.948  0.5294 -0.5222 -0.4050
  302MOL0     H40705  10.242   7.063  10.881 -2.3042 -0.7238  0.6315
  302MOL0     H40706  10.232   7.120  11.046  3.1089  2.3742 -0.9053
  302MOL0     H40707  10.473   7.113  10.945  0.6539 -1.7215 -2.3885
  302MOL0     H40708  10.477   6.944  10.960  3.1741  0.3098  1.2377
  302MOL0     H40709  10.418   6.956  11.192  0.7832 -1.7218 -1.4842
  302MOL0     H40710  10.385   7.139  11.181  0.9490  1.5003 -2.6009
  302MOL0     H40711  10.655   7.027  11.145 -1.3112 -1.3554 -0.6801
  302MOL0     H40712  10.616   7.198  11.151  0.2739  0.2494  0.6465
  302MOL0     H40713  10.676   7.141  11.402  0.2375  1.8026  0.4984
  302MOL0     H40714  10.499   7.150  11.376 -0.3130 -1.7559 -2.3730
  302MOL0     H40715  10.464   6.927  11.404 -0.1711  0.0888  1.6115
  302MOL0     H40716  10.621   6.876  11.344  1.3150  0.4319  1.0699
  302MOL0     H40717  10.702   6.968  11.572 -0.4855 -0.6216  0.8495
  302MOL0     H40718  10.623   6.819  11.571  1.0437  0.4271  0.4039
  302MOL0     H40719  10.489   7.092  11.619  1.7568 -0.4626 -1.1128
  302MOL0     H40720  10.404   6.939  11.639 -0.5358  0.7160  3.6899
  302MOL0     H40721  10.716   7.116  11.777  1.6036 -0.9644  0.3136
  302MOL0     H40722  10.710   7.137  12.120 -0.0152  0.5739 -1.3963
  302MOL0     H40723  10.784   6.973  12.131 -0.6968 -1.2399 -0.5211
  302MOL0     H40724  10.945   7.026  11.951 -2.5016 -2.3551  1.3730
  302MOL0     H40725  10.882   7.201  11.952 -1.7956 -0.2130 -0.3375
  302MOL0     H40726  11.028   7.053  12.175 -0.2082 -0.6594 -1.7814
  302MOL0     H40727  10.952   7.212  12.192 -0.3612  1.6850 -1.4499
  302MOL0     H40728  11.113   7.290  11.999  1.2501  0.7367  0.2097
  302MOL0     H40729  11.188   7.147  12.000  1.4729  2.2663 -1.3400
  302MOL0     H40730  11.353   7.436  12.252  2.4824  1.5699  0.3075
  302MOL0     H40731  11.613   7.413  12.289 -0.4790 -0.5214  2.5176
  302MOL0     H40732  11.980   7.213  12.093 -1.3648 -1.3095  0.6303
  302MOL0     H40733  12.218   7.206  12.087  1.0180  0.8638  0.6053
  302MOL0     H40734  12.420   7.162  12.133  0.3729 -0.7545  0.9485
  302MOL0     H40735  12.552   7.248  12.211  0.0260  0.9504  1.5383
  302MOL0     H40736  12.368   7.071  12.371 -0.5503  2.4462  0.8411
  302MOL0     H40737  12.512   7.017  12.272 -1.7090 -2.6251 -0.3448
  302MOL0     H40738  12.654   7.166  12.401  1.2958  0.0059  1.0380
  302MOL0     H40739  12.513   7.206  12.507 -1.8607  3.4621 -5.3013
  302MOL0     H40740  12.501   6.965  12.559  0.8759 -0.4591  2.3995
  302MOL0     H40741  12.643   7.051  12.613  0.4556 -2.6077  0.0266
  302MOL0     H40742  12.735   6.967  12.368  2.4259  1.2224  2.0665
  302MOL0     H40743  12.605   6.848  12.388  2.4820 -1.8616 -1.2704
  302MOL0     H40744  12.716   6.747  12.577 -0.2200  0.8979  1.1099
  302MOL0     H40745  12.820   6.764  12.435 -0.8164 -2.0381  0.2080
  302MOL0     H40746  12.938   6.796  12.650  0.0334 -0.6497 -0.6902
  302MOL0     H40747  12.831   6.923  12.705 -0.4742  0.7898  0.4507
  302MOL0     H40748  12.907   7.070  12.544  0.5459  0.6362  0.1643
  302MOL0     H40749  13.046   7.008  12.627  2.0405  0.5643 -2.5833
  302MOL0     H40750  12.253   7.417  12.454  0.2532  1.3556  0.3180
  302MOL0     H40751  11.975   7.395  12.472  0.8197 -2.4514  0.9618
  302MOL0     H40752  11.578   7.008  12.137 -0.2219  0.9047 -1.9303
  302MOL0     H40753  11.338   7.039  12.113 -0.1958  0.1241  0.7752
  302MOL0     H40754  10.006   7.058  10.973  1.7490 -0.6303  2.3297
  302MOL0     H40755   9.795   6.966  10.896  0.6442  0.4736 -1.2582
  302MOL0     H40756   9.435   6.935  10.666  1.2854 -1.1345 -0.1145
  302MOL0     H40757   9.190   6.898  10.703  0.0767  0.0967  0.1052
  302MOL0     H40758   8.993   6.791  10.682  1.6986 -0.8736  0.2222
  302MOL0     H40759   8.997   6.885  10.832 -1.3188  0.9801 -2.1183
  302MOL0     H40760   8.830   6.727  10.939  0.2763  0.4635 -0.0391
  302MOL0     H40761   8.803   6.647  10.779  0.4766 -1.7815  1.9635
  302MOL0     H40762   8.761   6.883  10.684 -0.8085  1.9852  0.7562
  302MOL0     H40763   8.745   6.938  10.852  0.3268  2.0784 -2.0791
  302MOL0     H40764   8.594   6.726  10.712  1.5805  1.5905 -1.2989
  302MOL0     H40765   8.578   6.765  10.892 -0.0422 -0.6017  1.0714
  302MOL0     H40766   8.323   7.039  10.673  1.6055  0.2606 -2.3092
  302MOL0     H40767   9.270   6.546  10.908  0.1169  0.3381  0.4568
  302MOL0     H40768   9.594   6.584  11.005  1.2806  1.3344 -1.4338
  302MOL0     H40769   9.465   6.476  10.986  3.2580 -2.4817  0.7754
  302MOL0     H40770   9.580   6.496  10.849 -1.0184 -0.3937 -0.7451
  303MOL0     O40771   8.036   5.076   0.995 -0.6075  0.0894  0.8113
  303MOL0     C40772   8.002   5.190   1.004 -0.0474 -1.0846 -0.9080
  303MOL0     O40773   8.085   5.298   0.997 -0.8591 -0.3480 -0.0388
  303MOL0     C40774   8.219   5.281   0.969 -0.0959  0.8743  0.5832
  303MOL0     C40775   8.261   5.225   0.850 -0.5791 -1.1562  0.3756
  303MOL0     C40776   8.393   5.206   0.822  1.1307 -1.3306  0.1702
  303MOL0     C40777   8.493   5.238   0.914  0.5886  0.5310 -1.3850
  303MOL0     O40778   8.626   5.228   0.887 -0.1333  0.3226 -0.0856
  303MOL0     C40779   8.727   5.289   0.959 -0.7105  0.1001 -0.3152
  303MOL0     C40780   8.865   5.262   0.880 -0.0926  0.5376 -0.1661
  303MOL0     C40781   8.909   5.113   0.890 -0.3946 -0.7431 -0.2227
  303MOL0     C40782   9.053   5.081   0.858 -0.3544  0.6445  0.0866
  303MOL0     C40783   9.094   5.104   0.712 -0.4546 -0.8321  0.3097
  303MOL0     C40784   9.172   5.224   0.678 -0.2133 -0.5280 -0.6434
  303MOL0     C40785   9.214   5.219   0.529  0.2468  0.2299  0.1511
  303MOL0     C40786   9.281   5.355   0.486  0.4374 -0.0116 -0.1840
  303MOL0     N40787   9.264   5.359   0.339 -0.2016  0.0035 -0.0415
  303MOL0     C40788   9.352   5.316   0.245 -0.4668 -0.2093 -0.5595
  303MOL0     C40789   9.281   5.330   0.132 -0.7016  0.2264 -0.4551
  303MOL0     C40790   9.353   5.283   0.002  0.7937  0.1373 -0.1099
  303MOL0     C40791   9.289   5.150  -0.046 -0.3970 -0.3978  0.3211
  303MOL0     C40792   9.364   5.082  -0.166  0.3321  0.1369 -0.3164
  303MOL0     C40793   9.511   5.075  -0.158 -0.7682  0.5715  0.1606
  303MOL0     O40794   9.563   5.053  -0.023  0.5340  0.1569  0.4987
  303MOL0     C40795   9.690   5.017  -0.007 -0.2266  0.4360 -0.3757
  303MOL0     C40796   9.741   4.991   0.122 -0.5791 -0.3898 -0.2539
  303MOL0     C40797   9.879   4.969   0.144 -0.4317  0.8960 -0.1221
  303MOL0     C40798   9.979   4.962   0.036 -0.1326  0.6973 -0.6343
  303MOL0     C40799  10.119   4.925   0.064  0.7152 -0.1108  0.4611
  303MOL0     O40800  10.148   4.849   0.169  0.2487  0.4401  0.2205
  303MOL0     C40801  10.278   4.828   0.210 -0.4063  0.6030 -0.3272
  303MOL0     C40802  10.288   4.719   0.292 -0.0751 -0.0376  0.5525
  303MOL0     C40803  10.415   4.687   0.342 -0.5473  0.2163 -0.4890
  303MOL0     C40804  10.531   4.761   0.327 -0.3069 -0.7878  0.2727
  303MOL0     O40805  10.657   4.726   0.372  0.7903 -0.1540  0.9779
  303MOL0     C40806  10.668   4.613   0.455  0.1377  0.9550 -0.1036
  303MOL0     C40807  10.826   4.587   0.490  0.1609 -1.5967  0.0507
  303MOL0     C40808  10.923   4.608   0.370  0.3156 -1.3821  0.0947
  303MOL0     C40809  11.069   4.613   0.420  0.0095  0.0435 -0.4427
  303MOL0     C40810  11.108   4.474   0.475  0.0316 -0.5658 -0.5671
  303MOL0     C40811  11.256   4.471   0.509  0.1792 -0.5356  0.7596
  303MOL0     C40812  11.307   4.327   0.518 -0.5272  0.0514 -0.6782
  303MOL0     C40813  11.457   4.326   0.555  0.5026  0.1703  0.5771
  303MOL0    Cl40814  11.465   4.366   0.730 -0.0966  0.2002 -0.1188
  303MOL0     C40815  10.515   4.868   0.235  0.0625 -0.3810 -0.7477
  303MOL0     C40816  10.392   4.897   0.174  0.2821  0.7942  0.3283
  303MOL0     O40817  10.193   4.978  -0.014  0.0717  0.1882  0.6149
  303MOL0     C40818   9.929   4.986  -0.092 -0.2477  0.4633  0.2665
  303MOL0     C40819   9.787   5.009  -0.109 -0.7555 -0.1276 -0.6228
  303MOL0     N40820   9.156   5.382   0.151 -0.3034 -0.2020 -0.9746
  303MOL0     N40821   9.150   5.408   0.281 -0.0899 -0.3783  0.3911
  303MOL0     C40822   8.448   5.284   1.040  0.1254  0.0247  1.1222
  303MOL0     C40823   8.314   5.311   1.065 -1.1651 -0.2939 -0.2387
  303MOL0     C40824   7.863   5.224   1.032 -0.6625  1.2899  0.2784
  303MOL0     C40825   7.838   5.327   1.123 -0.1403 -0.0722  0.8352
  303MOL0     C40826   7.708   5.358   1.176  0.3668  0.7694 -0.0711
  303MOL0     C40827   7.605   5.258   1.148 -0.2543 -0.6069 -0.6903
  303MOL0     O40828   7.492   5.268   1.216  0.6307 -0.6419 -0.8138
  303MOL0     C40829   7.393   5.164   1.209 -0.4735  0.2714 -0.9972
  303MOL0     C40830   7.277   5.201   1.303  0.2914  0.2755 -0.7089
  303MOL0     C40831   7.305   5.189   1.461  0.4984  0.0633  0.7647
  303MOL0     C40832   7.171   5.220   1.539 -0.3270 -0.4717  0.3382
  303MOL0     C40833   7.058   5.131   1.517  0.1836 -1.2010  0.7765
  303MOL0     C40834   6.974   5.059   1.474  0.1141 -0.5490 -0.6352
  303MOL0     C40835   7.626   5.162   1.051 -0.4736  0.4427  0.3916
  303MOL0     C40836   7.753   5.143   0.999 -0.5720 -0.3799 -0.4729
  303MOL0     C40837   7.769   5.010   0.924 -0.1855 -0.5655  0.2107
  303MOL0     H40838   8.191   5.187   0.775 -1.4011 -0.6598  0.8760
  303MOL0     H40839   8.414   5.177   0.720 -3.2519  0.2958 -1.4513
  303MOL0     H40840   8.707   5.396   0.954 -0.9113  0.0396 -0.8014
  303MOL0     H40841   8.726   5.254   1.063  0.0923  1.4022  0.1616
  303MOL0     H40842   8.947   5.328   0.909 -1.6405  3.4298 -1.8951
  303MOL0     H40843   8.832   5.276   0.776 -1.1294 -2.1619 -0.2700
  303MOL0     H40844   8.850   5.055   0.818  0.3034 -2.5904  0.6358
  303MOL0     H40845   8.877   5.074   0.988 -0.8005 -2.0313 -0.8483
  303MOL0     H40846   9.117   5.133   0.931 -0.3192  1.3935 -0.4710
  303MOL0     H40847   9.060   4.976   0.887 -1.6306  0.0648 -1.6014
  303MOL0     H40848   9.159   5.022   0.681  0.9365  0.5668 -0.6490
  303MOL0     H40849   9.007   5.093   0.645 -0.3188  0.4884 -0.1237
  303MOL0     H40850   9.108   5.312   0.694 -2.0090 -1.6734 -1.1897
  303MOL0     H40851   9.258   5.227   0.745 -2.8103 -1.1435  3.0457
  303MOL0     H40852   9.127   5.194   0.469  1.2211 -0.4246 -1.0381
  303MOL0     H40853   9.293   5.146   0.508  0.2321  0.6103 -1.3325
  303MOL0     H40854   9.233   5.443   0.530  0.0950 -0.6589  0.7582
  303MOL0     H40855   9.386   5.344   0.514  0.2285  1.5759  1.4033
  303MOL0     H40856   9.454   5.289   0.269 -1.6811 -2.8050  2.3196
  303MOL0     H40857   9.340   5.352  -0.082  1.9422  0.7357  0.1866
  303MOL0     H40858   9.460   5.277   0.020  0.5788 -2.2829  0.7638
  303MOL0     H40859   9.284   5.082   0.040  2.3660 -0.9789  0.1271
  303MOL0     H40860   9.192   5.178  -0.088 -1.0397 -2.2231  0.4885
  303MOL0     H40861   9.329   5.135  -0.255 -0.3223  0.8533  0.3503
  303MOL0     H40862   9.323   4.981  -0.173 -0.1689  0.3901 -1.1564
  303MOL0     H40863   9.553   5.169  -0.195  3.7126 -0.8723  1.0379
  303MOL0     H40864   9.544   4.993  -0.222 -0.5201  1.8294 -1.3679
  303MOL0     H40865   9.675   4.983   0.208  0.8282 -0.6205  0.8290
  303MOL0     H40866   9.913   4.958   0.247 -1.4511  2.1978  0.3966
  303MOL0     H40867  10.198   4.663   0.316  0.8885 -2.6327 -1.3329
  303MOL0     H40868  10.427   4.591   0.390  2.8750 -0.7883 -2.9903
  303MOL0     H40869  10.620   4.639   0.550  2.2736  1.6162  0.8602
  303MOL0     H40870  10.634   4.514   0.424  2.2145 -1.3169  3.9789
  303MOL0     H40871  10.859   4.666   0.558  2.4838 -0.4919 -2.1871
  303MOL0     H40872  10.841   4.483   0.520  0.5270 -1.0375  1.9375
  303MOL0     H40873  10.920   4.527   0.296  0.5240 -1.2030 -0.1110
  303MOL0     H40874  10.895   4.700   0.318 -1.4010 -2.0123 -0.1553
  303MOL0     H40875  11.081   4.682   0.504 -1.0319 -1.6061  1.1606
  303MOL0     H40876  11.140   4.633   0.339  0.6145  2.2513  0.5690
  303MOL0     H40877  11.068   4.394   0.412 -2.8419 -0.5065  1.0022
  303MOL0     H40878  11.055   4.449   0.568  0.6623 -1.5059 -0.4409
  303MOL0     H40879  11.314   4.515   0.427  2.2526 -2.4324  1.0924
  303MOL0     H40880  11.274   4.520   0.605 -2.4303  3.0011 -0.3593
  303MOL0     H40881  11.284   4.281   0.422 -0.2856 -1.4124 -0.0616
  303MOL0     H40882  11.248   4.278   0.596  0.4875 -0.9319 -0.5194
  303MOL0     H40883  11.502   4.227   0.543 -1.6818 -0.7969 -0.1926
  303MOL0     H40884  11.515   4.399   0.498 -0.1487  0.3618  0.1474
  303MOL0     H40885  10.598   4.929   0.201  0.0308  0.4775  0.6333
  303MOL0     H40886  10.399   4.980   0.105  2.4910 -0.0686 -0.5568
  303MOL0     H40887  10.000   5.000  -0.173 -1.3526  1.6942 -0.5357
  303MOL0     H40888   9.767   5.058  -0.203 -0.4688 -0.7478 -1.0127
  303MOL0     H40889   8.521   5.310   1.116  0.8102 -0.2919  0.5883
  303MOL0     H40890   8.273   5.351   1.157  0.4205 -0.1605  0.4333
  303MOL0     H40891   7.912   5.399   1.158 -0.0995  1.1300 -1.5022
  303MOL0     H40892   7.686   5.439   1.245  2.5566 -0.3648  2.1292
  303MOL0     H40893   7.449   5.074   1.238 -2.6595 -1.2903 -1.2850
  303MOL0     H40894   7.357   5.152   1.106  0.4491 -0.4886 -1.2439
  303MOL0     H40895   7.205   5.121   1.288  0.6658 -0.5753  1.5856
  303MOL0     H40896   7.239   5.301   1.278 -1.4630 -0.2297 -0.2006
  303MOL0     H40897   7.379   5.267   1.483  1.7344 -0.3645 -1.5564
  303MOL0     H40898   7.350   5.097   1.498  0.4280  0.1153  0.9785
  303MOL0     H40899   7.207   5.211   1.642  0.9114 -0.1357 -0.0376
  303MOL0     H40900   7.131   5.321   1.530 -1.1068 -0.9566 -3.6111
  303MOL0     H40901   6.899   4.985   1.452 -1.8299  0.5011  1.9077
  303MOL0     H40902   7.548   5.091   1.026  1.3020 -1.2751 -0.5694
  303MOL0     H40903   7.825   5.028   0.832 -1.4331 -3.2046 -1.1682
  303MOL0     H40904   7.826   4.935   0.979  0.7958 -0.8901 -1.1982
  303MOL0     H40905   7.670   4.971   0.898 -0.4043  0.6917 -0.9408
  304MOL0     O40906  10.261   2.931  10.107  0.2111  0.0072  0.2599
  304MOL0     C40907  10.215   3.033  10.060  0.0864 -0.1154  0.2068
  304MOL0     O40908  10.287   3.149  10.037 -0.7076  0.0474 -0.2689
  304MOL0     C40909  10.421   3.144  10.066  0.6380 -0.1136 -0.3888
  304MOL0     C40910  10.458   3.143  10.205  0.7563 -0.6826 -0.1589
  304MOL0     C40911  10.596   3.144  10.245  1.0034 -0.1871  0.3685
  304MOL0     C40912  10.692   3.144  10.145  0.1072  0.2372 -0.6436
  304MOL0     O40913  10.822   3.159  10.183  0.3765  0.2083 -0.0823
  304MOL0     C40914  10.915   3.206  10.083 -0.0136 -0.1115  0.2024
  304MOL0     C40915  11.026   3.274  10.160 -0.3844 -0.4009  0.0794
  304MOL0     C40916  11.144   3.343  10.079  0.2855  0.2649 -0.2364
  304MOL0     C40917  11.258   3.392  10.162 -0.3023  0.1044 -1.2015
  304MOL0     C40918  11.382   3.426  10.091 -0.3699  0.1176  0.6699
  304MOL0     C40919  11.487   3.498  10.182  0.2508  0.1643 -0.3952
  304MOL0     C40920  11.627   3.514  10.120  0.4136 -0.5698  0.3374
  304MOL0     C40921  11.613   3.606  10.007  0.2986  0.1897 -0.1863
  304MOL0     N40922  11.732   3.679   9.965 -0.7546 -0.7294 -0.1222
  304MOL0     C40923  11.739   3.784   9.875  0.4197 -0.8066 -0.1587
  304MOL0     C40924  11.857   3.843   9.904  0.1567 -0.3878 -0.8428
  304MOL0     C40925  11.917   3.957   9.833  0.1196  0.1624  0.5692
  304MOL0     C40926  12.058   3.916   9.788 -0.8506 -0.2146 -0.8806
  304MOL0     C40927  12.124   4.039   9.714  0.5883  0.5364  0.8301
  304MOL0     C40928  12.265   4.002   9.666 -0.0566  0.3099  0.0429
  304MOL0     O40929  12.317   4.113   9.591 -0.7112  0.1399  0.3055
  304MOL0     C40930  12.447   4.108   9.539  0.3873 -0.6606  0.2101
  304MOL0     C40931  12.499   4.230   9.492 -0.8772 -0.6495 -0.4508
  304MOL0     C40932  12.630   4.233   9.447  0.0691  1.6257 -0.2909
  304MOL0     C40933  12.716   4.112   9.446  1.3092 -0.5983 -0.1133
  304MOL0     C40934  12.860   4.119   9.422  0.1722  0.4098  0.8163
  304MOL0     O40935  12.907   4.244   9.380 -0.5602 -0.0310  0.4628
  304MOL0     C40936  13.039   4.264   9.351  0.1917  0.9346  0.2504
  304MOL0     C40937  13.146   4.238   9.444  1.8295 -1.0384 -0.0365
  304MOL0     C40938  13.284   4.254   9.426  0.3967 -0.2361 -0.0357
  304MOL0     C40939  13.324   4.290   9.296 -0.1290  0.0816  0.6616
  304MOL0     O40940  13.462   4.308   9.282  0.0135  0.5132 -0.2232
  304MOL0     C40941  13.511   4.298   9.151 -0.3863  0.0667  0.5575
  304MOL0     C40942  13.666   4.312   9.161 -0.7221  0.7905  0.6537
  304MOL0     C40943  13.726   4.178   9.218  0.8369  0.3895  0.0212
  304MOL0     C40944  13.878   4.168   9.200  0.2827 -0.1003 -0.8435
  304MOL0     C40945  13.948   4.281   9.278  0.0725  0.0978  0.0769
  304MOL0     C40946  14.101   4.282   9.257 -0.1754  0.1169  1.0275
  304MOL0     C40947  14.149   4.159   9.336 -0.6289 -0.2616 -0.5414
  304MOL0     C40948  14.303   4.130   9.323  1.0658  0.8078  0.3878
  304MOL0    Cl40949  14.386   4.283   9.377  0.1403 -0.1122  0.3478
  304MOL0     C40950  13.231   4.323   9.197  0.5433 -0.0088 -0.7124
  304MOL0     C40951  13.090   4.315   9.232 -0.2047  0.3149  0.5967
  304MOL0     O40952  12.923   4.015   9.442 -0.3281  0.0893  0.0710
  304MOL0     C40953  12.652   3.994   9.483  0.7398  0.8221 -0.5075
  304MOL0     C40954  12.518   3.989   9.531 -0.0835 -0.5269 -0.1600
  304MOL0     N40955  11.924   3.783  10.011  0.6664 -0.4185  0.4879
  304MOL0     N40956  11.852   3.680  10.041 -0.1608  0.5148  0.0375
  304MOL0     C40957  10.647   3.146  10.006  0.3456 -0.5194 -0.5016
  304MOL0     C40958  10.514   3.151   9.967 -0.5955 -1.0319  0.5606
  304MOL0     C40959  10.069   3.038  10.009 -0.6150 -0.7464  0.7423
  304MOL0     C40960  10.037   3.145   9.924  0.1082 -0.0312 -0.0311
  304MOL0     C40961   9.913   3.164   9.867  0.2558 -0.6508  0.6548
  304MOL0     C40962   9.813   3.071   9.891  0.7238  0.1993 -0.5451
  304MOL0     O40963   9.688   3.073   9.834  0.0886  0.1582  0.3708
  304MOL0     C40964   9.648   3.199   9.779  0.7276 -0.3654  0.0544
  304MOL0     C40965   9.498   3.192   9.736  0.1336 -0.3374 -0.5559
  304MOL0     C40966   9.426   3.326   9.713 -0.1930 -0.6027  0.4626
  304MOL0     C40967   9.276   3.298   9.687 -0.2544 -0.9695  0.0876
  304MOL0     C40968   9.247   3.225   9.557 -0.6576  0.2415 -0.1436
  304MOL0     C40969   9.214   3.192   9.444 -0.2677  0.4027  0.3427
  304MOL0     C40970   9.846   2.957   9.973 -0.2207 -1.1933  0.2844
  304MOL0     C40971   9.973   2.941  10.027  0.1637  0.1437 -0.5281
  304MOL0     C40972  10.002   2.817  10.115  0.1727 -0.7406 -0.5097
  304MOL0     H40973  10.372   3.145  10.272 -1.1228  2.7169 -2.4068
  304MOL0     H40974  10.632   3.132  10.346 -0.0119  1.1062  0.9171
  304MOL0     H40975  10.961   3.121  10.032  1.2439  1.0990 -0.7654
  304MOL0     H40976  10.880   3.274  10.005 -1.1211  0.0414  0.8105
  304MOL0     H40977  11.068   3.193  10.221  1.2277 -0.9208 -1.6503
  304MOL0     H40978  10.988   3.354  10.224 -0.6228 -0.9763  0.6750
  304MOL0     H40979  11.106   3.425  10.018  0.2206 -1.0228 -1.9988
  304MOL0     H40980  11.189   3.276  10.006  1.4044  2.6349 -1.8338
  304MOL0     H40981  11.231   3.483  10.217 -3.6723  0.1483 -2.6728
  304MOL0     H40982  11.284   3.320  10.240 -1.8692 -0.4730 -1.1791
  304MOL0     H40983  11.426   3.336  10.045  0.9055  0.6672  0.7601
  304MOL0     H40984  11.354   3.486  10.004  2.5612 -3.0291 -2.8575
  304MOL0     H40985  11.440   3.595  10.203 -1.8792 -0.5596 -1.4765
  304MOL0     H40986  11.509   3.453  10.280  2.1377  3.8159  1.0414
  304MOL0     H40987  11.646   3.415  10.078  0.0234  0.3935 -2.2806
  304MOL0     H40988  11.707   3.542  10.189  1.2363  0.4343 -0.9966
  304MOL0     H40989  11.581   3.555   9.915  2.3006  2.0311 -2.0254
  304MOL0     H40990  11.542   3.683  10.039  2.0268  1.8728 -0.2365
  304MOL0     H40991  11.674   3.805   9.791  1.8975  0.2367 -1.0964
  304MOL0     H40992  11.856   3.987   9.747 -0.5090 -1.7452  0.3104
  304MOL0     H40993  11.922   4.040   9.904  0.3494  1.7964 -1.2658
  304MOL0     H40994  12.118   3.891   9.876 -1.2773  1.2294 -0.1474
  304MOL0     H40995  12.060   3.824   9.728  4.0106 -2.3112  1.8735
  304MOL0     H40996  12.121   4.133   9.769 -1.8956  1.8905 -1.3470
  304MOL0     H40997  12.064   4.064   9.625  3.4633 -2.2638 -2.1859
  304MOL0     H40998  12.257   3.911   9.607  0.5673  0.3255 -0.0746
  304MOL0     H40999  12.328   3.985   9.753  0.6508 -1.1590 -0.7205
  304MOL0     H41000  12.446   4.324   9.499  0.0398 -0.1314 -0.4370
  304MOL0     H41001  12.675   4.321   9.402 -0.0196  1.3657 -0.8992
  304MOL0     H41002  13.104   4.210   9.539 -1.1034  0.2542 -0.8522
  304MOL0     H41003  13.349   4.242   9.512 -0.0315  2.0157  0.6649
  304MOL0     H41004  13.485   4.210   9.092 -0.6508 -0.0199  0.8041
  304MOL0     H41005  13.468   4.380   9.092 -0.0035 -0.9573 -1.2402
  304MOL0     H41006  13.698   4.323   9.057 -2.2226 -0.0397  0.0709
  304MOL0     H41007  13.686   4.401   9.220  0.3258  1.7616 -1.0834
  304MOL0     H41008  13.700   4.180   9.324 -1.0360 -1.1731 -0.3570
  304MOL0     H41009  13.671   4.093   9.176 -1.6333  1.9521 -0.0826
  304MOL0     H41010  13.895   4.172   9.092 -4.5964 -1.2994 -1.9157
  304MOL0     H41011  13.905   4.069   9.239 -0.2346 -0.0936 -0.4513
  304MOL0     H41012  13.916   4.274   9.382 -1.4145 -2.3497 -0.4713
  304MOL0     H41013  13.908   4.373   9.235 -0.6094 -1.1890 -2.1978
  304MOL0     H41014  14.129   4.270   9.152  2.4125  2.4417  1.3342
  304MOL0     H41015  14.145   4.374   9.298  0.0598 -1.1650  3.9172
  304MOL0     H41016  14.109   4.062   9.308  0.4461 -1.6397  2.2955
  304MOL0     H41017  14.112   4.168   9.439 -2.2392  0.2774 -1.1365
  304MOL0     H41018  14.334   4.045   9.385 -4.5298 -1.3066  0.8609
  304MOL0     H41019  14.325   4.114   9.217 -1.9732  0.9078 -0.3357
  304MOL0     H41020  13.264   4.352   9.098  0.7938  0.0475 -0.6116
  304MOL0     H41021  13.018   4.346   9.157  0.1841  0.4197  0.2665
  304MOL0     H41022  12.698   3.895   9.486 -0.2027  0.3336 -1.5379
  304MOL0     H41023  12.473   3.890   9.544 -2.3659  0.5405  0.6460
  304MOL0     H41024  10.720   3.159   9.927 -0.5405  1.0240 -1.1027
  304MOL0     H41025  10.487   3.153   9.862 -1.5550 -1.4301  0.7815
  304MOL0     H41026  10.109   3.222   9.899 -0.0438 -0.1999 -1.0385
  304MOL0     H41027   9.897   3.249   9.802  1.5357  0.5669  1.8326
  304MOL0     H41028   9.702   3.215   9.685  2.2183 -3.8378  0.1851
  304MOL0     H41029   9.657   3.282   9.850 -1.8688  0.1616 -0.1440
  304MOL0     H41030   9.444   3.153   9.823  1.3086  0.7570  0.7097
  304MOL0     H41031   9.485   3.124   9.651 -1.1672 -1.2968  0.3774
  304MOL0     H41032   9.461   3.379   9.624  0.7362  0.4371  1.4192
  304MOL0     H41033   9.452   3.397   9.792 -1.5331  1.2725 -0.7123
  304MOL0     H41034   9.235   3.246   9.775 -2.5444  1.2342  0.4387
  304MOL0     H41035   9.232   3.398   9.684 -1.1409 -1.1712  2.9227
  304MOL0     H41036   9.177   3.153   9.352  0.1935 -0.2582  0.4308
  304MOL0     H41037   9.775   2.875   9.975 -1.4212 -0.2381 -0.8440
  304MOL0     H41038   9.909   2.774  10.154 -0.0321  0.7405  0.7021
  304MOL0     H41039  10.056   2.744  10.054 -1.9164 -1.4242 -1.6676
  304MOL0     H41040  10.061   2.834  10.205 -1.8330 -1.4312  1.0122
  305MOL0     O41041   2.710   2.844   2.051 -0.1500  0.2862  0.4343
  305MOL0     C41042   2.705   2.801   2.168  1.1007 -0.3031  0.5388
  305MOL0     O41043   2.590   2.745   2.223  0.3409 -0.4136  0.2644
  305MOL0     C41044   2.475   2.723   2.153 -0.1962  0.7418 -0.5822
  305MOL0     C41045   2.449   2.702   2.018 -0.5808  0.2171  0.2893
  305MOL0     C41046   2.328   2.667   1.961  0.8689 -0.2554 -0.3973
  305MOL0     C41047   2.214   2.652   2.054  0.7373 -0.4598  0.0823
  305MOL0     O41048   2.088   2.613   2.016 -0.0949 -0.0468  0.6297
  305MOL0     C41049   2.052   2.631   1.877  0.6574  0.4601  0.3308
  305MOL0     C41050   1.905   2.575   1.863  0.0800  0.5217 -0.5307
  305MOL0     C41051   1.868   2.513   1.725 -0.0155 -0.5027 -0.6604
  305MOL0     C41052   1.718   2.469   1.724  0.2166  0.1990  0.1133
  305MOL0     C41053   1.677   2.409   1.595  0.0276  0.0188  0.1486
  305MOL0     C41054   1.542   2.343   1.601 -0.2209  0.8139 -1.3957
  305MOL0     C41055   1.465   2.340   1.466 -0.1007  0.8249 -0.3802
  305MOL0     C41056   1.409   2.472   1.420 -0.2719  0.1225  0.4480
  305MOL0     N41057   1.300   2.463   1.321  0.5374 -0.4375  0.7529
  305MOL0     C41058   1.309   2.503   1.190 -0.0057  0.6006  0.2451
  305MOL0     C41059   1.190   2.473   1.141 -0.1951  0.2117  0.5849
  305MOL0     C41060   1.168   2.481   0.994 -0.0490 -0.2572  0.7107
  305MOL0     C41061   1.138   2.626   0.948 -0.1888  0.2930 -1.3644
  305MOL0     C41062   1.073   2.633   0.813  0.4370 -0.5686 -0.0249
  305MOL0     C41063   1.043   2.780   0.773  0.7788  0.2766 -0.8221
  305MOL0     O41064   1.145   2.878   0.809  0.2311 -0.7182  0.2967
  305MOL0     C41065   1.267   2.877   0.754 -0.4530 -0.2596 -0.2980
  305MOL0     C41066   1.367   2.942   0.834  0.5668 -0.7650 -0.2324
  305MOL0     C41067   1.488   2.977   0.786  0.1569 -0.1911  0.2339
  305MOL0     C41068   1.527   2.931   0.655 -0.4527 -0.1595 -0.1535
  305MOL0     C41069   1.662   2.965   0.607  0.7859  0.1223 -0.3146
  305MOL0     O41070   1.750   3.032   0.692 -0.2294  0.1267 -0.5347
  305MOL0     C41071   1.879   3.057   0.653  0.8358 -0.6170 -0.6969
  305MOL0     C41072   1.916   3.140   0.557 -0.9563  0.1665 -0.0047
  305MOL0     C41073   2.050   3.178   0.533 -0.6085  0.1006 -0.1814
  305MOL0     C41074   2.154   3.130   0.625 -0.6108 -1.1153  0.8998
  305MOL0     O41075   2.290   3.156   0.618 -0.2604  0.8172  0.2508
  305MOL0     C41076   2.339   3.228   0.504 -0.5744  0.5747 -0.7622
  305MOL0     C41077   2.490   3.228   0.476 -0.5376 -0.2248 -0.4524
  305MOL0     C41078   2.577   3.217   0.602 -0.3201 -0.3926  1.2248
  305MOL0     C41079   2.616   3.070   0.627 -1.0260 -0.0546  0.6827
  305MOL0     C41080   2.701   3.062   0.749  0.4191 -0.5645 -0.7374
  305MOL0     C41081   2.763   2.921   0.756 -0.2902 -0.5805  0.7963
  305MOL0     C41082   2.909   2.903   0.699  0.1185 -0.3187 -0.0896
  305MOL0     C41083   3.028   2.989   0.752  0.5302 -0.2680 -0.1554
  305MOL0    Cl41084   3.175   2.958   0.651 -0.7184 -0.1894  0.1149
  305MOL0     C41085   2.111   3.052   0.733 -0.3182 -0.2392  0.3104
  305MOL0     C41086   1.984   3.022   0.743  0.0998 -0.7168  0.0507
  305MOL0     O41087   1.690   2.935   0.491  0.4328  0.0208  0.2011
  305MOL0     C41088   1.434   2.865   0.573 -0.1533 -0.5947  0.0927
  305MOL0     C41089   1.304   2.842   0.620  0.1728 -0.2173  0.6543
  305MOL0     N41090   1.114   2.410   1.235 -0.1434 -0.0157 -0.0998
  305MOL0     N41091   1.185   2.388   1.338  0.2336 -0.7710 -0.9114
  305MOL0     C41092   2.230   2.681   2.190  0.6666  0.1718 -0.0727
  305MOL0     C41093   2.356   2.714   2.234  0.8370  0.0085  0.1178
  305MOL0     C41094   2.822   2.794   2.256  0.3059  0.7978 -0.5212
  305MOL0     C41095   2.814   2.697   2.361 -0.3909 -0.8514  0.2136
  305MOL0     C41096   2.924   2.664   2.440 -0.6034  0.1231  0.3271
  305MOL0     C41097   3.054   2.725   2.427  0.2586 -0.2229 -0.3822
  305MOL0     O41098   3.158   2.674   2.508 -0.1174 -0.4983  0.2813
  305MOL0     C41099   3.290   2.710   2.459 -0.4815  0.2977  0.0082
  305MOL0     C41100   3.385   2.618   2.532  0.0542 -0.1562 -0.2693
  305MOL0     C41101   3.531   2.628   2.485 -0.0002  0.6475  0.5579
  305MOL0     C41102   3.557   2.569   2.340 -0.3271  0.0297 -0.8872
  305MOL0     C41103   3.678   2.635   2.287 -0.1089  0.0034  1.0909
  305MOL0     C41104   3.763   2.697   2.219 -0.1912 -0.3787  0.4897
  305MOL0     C41105   3.061   2.821   2.319 -0.4684 -0.2603 -0.0398
  305MOL0     C41106   2.957   2.851   2.227  0.8374  0.9038  0.2571
  305MOL0     C41107   2.972   2.955   2.125 -0.8189  0.6158 -0.1529
  305MOL0     H41108   2.536   2.691   1.953  0.5584 -0.1106  1.8109
  305MOL0     H41109   2.325   2.650   1.854  1.9050  0.4190 -0.5560
  305MOL0     H41110   2.054   2.738   1.854  1.0217  0.7827  1.7538
  305MOL0     H41111   2.111   2.574   1.805 -0.0175 -0.2360  0.3237
  305MOL0     H41112   1.842   2.663   1.879  0.9188  0.6589  3.0094
  305MOL0     H41113   1.877   2.503   1.942 -1.5740  2.4392  0.7460
  305MOL0     H41114   1.933   2.425   1.716  1.3191  0.2329  1.2421
  305MOL0     H41115   1.883   2.590   1.649 -1.5633  0.3667 -0.1128
  305MOL0     H41116   1.719   2.397   1.806 -2.7198 -0.2897 -0.1588
  305MOL0     H41117   1.650   2.542   1.768  1.7249  0.2707  2.5111
  305MOL0     H41118   1.666   2.492   1.524 -1.3232 -0.5233 -0.3016
  305MOL0     H41119   1.753   2.340   1.559 -1.0732  0.0879 -2.5539
  305MOL0     H41120   1.566   2.245   1.644  1.8873  2.0619  0.4947
  305MOL0     H41121   1.474   2.400   1.666  0.4017  1.6133 -1.4215
  305MOL0     H41122   1.382   2.270   1.481  0.7085 -0.2754 -0.9220
  305MOL0     H41123   1.536   2.299   1.394  0.7008  0.6798  0.4882
  305MOL0     H41124   1.369   2.517   1.511 -6.2939 -0.8481 -1.2955
  305MOL0     H41125   1.489   2.533   1.378  0.1068  0.0774  1.0841
  305MOL0     H41126   1.392   2.553   1.141  1.0680 -0.1392  1.2500
  305MOL0     H41127   1.253   2.442   0.936 -0.6268  0.7376 -0.8896
  305MOL0     H41128   1.079   2.420   0.976 -1.6333  1.2957  2.7955
  305MOL0     H41129   1.093   2.680   1.031  1.0563 -3.6877  2.2939
  305MOL0     H41130   1.232   2.682   0.945 -1.6679  2.8791 -1.9887
  305MOL0     H41131   0.977   2.581   0.814 -0.0925  0.3365 -0.9722
  305MOL0     H41132   1.128   2.592   0.729  1.2606 -0.9727  0.6961
  305MOL0     H41133   0.960   2.816   0.834  2.6065  2.4843  0.5431
  305MOL0     H41134   1.016   2.789   0.667  0.3094 -0.1103 -0.7390
  305MOL0     H41135   1.330   2.957   0.935  3.0496 -2.7359  1.0620
  305MOL0     H41136   1.566   3.020   0.849 -1.4453 -1.3895  3.2844
  305MOL0     H41137   1.843   3.180   0.487 -3.1027 -0.9103  1.5255
  305MOL0     H41138   2.079   3.238   0.448 -1.9530  0.4471 -0.4136
  305MOL0     H41139   2.298   3.194   0.408  2.3253 -2.6233 -1.0749
  305MOL0     H41140   2.311   3.332   0.520 -0.5809  0.2639  1.6264
  305MOL0     H41141   2.517   3.139   0.418 -2.6511 -0.8246 -0.6098
  305MOL0     H41142   2.512   3.323   0.426 -2.1747 -0.8065 -2.4504
  305MOL0     H41143   2.669   3.277   0.603 -0.1507 -0.5449 -0.7592
  305MOL0     H41144   2.522   3.250   0.690 -0.6949 -1.0763  1.2501
  305MOL0     H41145   2.669   3.034   0.538 -1.7919 -2.8983  1.2733
  305MOL0     H41146   2.535   3.000   0.647 -1.5596  0.0752 -0.8616
  305MOL0     H41147   2.635   3.070   0.836 -0.7155 -1.3975 -1.4935
  305MOL0     H41148   2.782   3.135   0.760 -0.3284  0.1845 -0.0529
  305MOL0     H41149   2.769   2.879   0.857  0.0424 -1.1973  0.5263
  305MOL0     H41150   2.696   2.857   0.699  0.6987 -1.0623  0.1353
  305MOL0     H41151   2.900   2.923   0.592 -2.8650  1.4495  0.3752
  305MOL0     H41152   2.939   2.798   0.702  2.4341  0.3169  0.7894
  305MOL0     H41153   2.987   3.091   0.748 -1.4557 -0.9316  1.5145
  305MOL0     H41154   3.055   2.975   0.857  0.8218  0.5514 -0.1106
  305MOL0     H41155   2.194   3.022   0.796 -0.8082 -0.7927  0.6923
  305MOL0     H41156   1.951   2.961   0.827  1.2188 -3.9417 -1.6451
  305MOL0     H41157   1.463   2.839   0.472  3.5463 -2.3330  1.4410
  305MOL0     H41158   1.237   2.810   0.542  1.5012  0.1740 -0.6972
  305MOL0     H41159   2.138   2.681   2.248  0.1205 -0.9922 -0.9068
  305MOL0     H41160   2.360   2.731   2.341  1.8085 -1.5796  0.3732
  305MOL0     H41161   2.721   2.649   2.392 -0.2926  0.4090  2.6749
  305MOL0     H41162   2.908   2.586   2.514  0.5120  2.0376  2.7331
  305MOL0     H41163   3.318   2.815   2.472  2.6432 -0.4067 -0.1510
  305MOL0     H41164   3.300   2.684   2.354 -0.5265 -4.1490  0.8927
  305MOL0     H41165   3.339   2.518   2.527 -0.6427  0.0350  1.4424
  305MOL0     H41166   3.383   2.637   2.640  0.0889 -1.9987  0.1013
  305MOL0     H41167   3.589   2.573   2.560 -0.3341 -1.5801 -0.7301
  305MOL0     H41168   3.570   2.730   2.492  0.2954  0.6753 -1.0883
  305MOL0     H41169   3.564   2.460   2.345 -1.2210  0.0098  1.7016
  305MOL0     H41170   3.481   2.588   2.264 -0.8203  2.2446  0.0553
  305MOL0     H41171   3.833   2.747   2.156  2.8687  0.3737  4.1033
  305MOL0     H41172   3.151   2.880   2.306  0.9145 -2.3634 -0.5389
  305MOL0     H41173   3.067   2.950   2.071 -1.5824  2.4121 -1.7661
  305MOL0     H41174   2.890   2.966   2.054 -1.6375  1.6627  0.9129
  305MOL0     H41175   2.979   3.053   2.173 -1.2803  0.4151  0.3422
  306MOL0     O41176   3.153   5.100   3.239  0.1902  0.6637  0.0280
  306MOL0     C41177   3.101   5.015   3.307 -0.3526  0.0023  0.7166
  306MOL0     O41178   3.170   4.912   3.353  0.1190 -0.1416 -0.1377
  306MOL0     C41179   3.308   4.903   3.328  0.4713 -1.1890 -0.7765
  306MOL0     C41180   3.349   4.797   3.255  0.1631  0.3440 -0.3215
  306MOL0     C41181   3.478   4.792   3.214 -0.1646  0.1627  0.5269
  306MOL0     C41182   3.567   4.894   3.250  0.5282 -0.1455  0.2688
  306MOL0     O41183   3.685   4.887   3.190 -0.6536  0.6194 -0.2155
  306MOL0     C41184   3.805   4.933   3.266 -0.1034  0.3389  0.4050
  306MOL0     C41185   3.931   4.926   3.186 -0.4369  0.4528 -0.4475
  306MOL0     C41186   4.051   4.970   3.265 -0.0303  0.9558  0.2225
  306MOL0     C41187   4.067   5.123   3.275 -0.0449 -0.1263  0.8141
  306MOL0     C41188   4.196   5.182   3.333 -0.9877 -0.1333 -0.4606
  306MOL0     C41189   4.327   5.131   3.272  0.8071 -0.8151  0.2181
  306MOL0     C41190   4.444   5.200   3.343 -0.9874 -0.0456 -0.4573
  306MOL0     C41191   4.576   5.192   3.263 -0.4267 -0.3704  0.4815
  306MOL0     N41192   4.699   5.244   3.326 -0.1172  0.8991 -1.1090
  306MOL0     C41193   4.801   5.162   3.385  0.0645 -0.1260 -0.0151
  306MOL0     C41194   4.894   5.256   3.413  0.3889  0.3831  0.1756
  306MOL0     C41195   5.031   5.230   3.480  0.1401  0.8099  0.7528
  306MOL0     C41196   5.141   5.217   3.368 -0.0191  0.0783  0.8053
  306MOL0     C41197   5.272   5.197   3.438  0.2474  0.7992 -0.0289
  306MOL0     C41198   5.407   5.231   3.366  0.4686 -0.1972 -0.0417
  306MOL0     O41199   5.493   5.133   3.415 -0.0883 -0.1678  0.1940
  306MOL0     C41200   5.627   5.135   3.375  0.3963  0.2463  0.0458
  306MOL0     C41201   5.695   5.007   3.392  0.1887 -0.1975  0.0961
  306MOL0     C41202   5.834   4.998   3.361 -0.1845  0.1965  0.5339
  306MOL0     C41203   5.906   5.108   3.309  0.9645 -0.3101  0.8037
  306MOL0     C41204   6.052   5.090   3.282  0.2820 -0.2730  0.0199
  306MOL0     O41205   6.107   4.980   3.339 -0.3302 -0.7001 -0.4440
  306MOL0     C41206   6.221   4.930   3.275 -0.1275  0.7773 -0.1676
  306MOL0     C41207   6.227   4.791   3.252 -0.4123  0.4479 -0.1951
  306MOL0     C41208   6.350   4.735   3.209 -0.2595 -1.3294 -0.0498
  306MOL0     C41209   6.465   4.812   3.186 -0.4775 -0.0268 -0.3735
  306MOL0     O41210   6.575   4.748   3.128 -0.0547  0.9304 -0.1979
  306MOL0     C41211   6.703   4.813   3.134 -0.2087 -0.2884  0.4302
  306MOL0     C41212   6.808   4.716   3.064 -0.2970 -0.6623  0.1932
  306MOL0     C41213   6.942   4.784   3.090  0.7879 -0.3153  1.1910
  306MOL0     C41214   7.044   4.728   2.987  0.5207 -0.7256  0.0668
  306MOL0     C41215   7.196   4.761   3.013  0.0190  0.3767  0.1035
  306MOL0     C41216   7.283   4.713   2.894 -0.3025 -0.6866 -0.4480
  306MOL0     C41217   7.434   4.725   2.910 -1.2989 -0.3504 -0.7391
  306MOL0     C41218   7.501   4.674   2.785  0.4974  0.6013 -0.2239
  306MOL0    Cl41219   7.484   4.785   2.649 -0.0836  0.0174 -0.2632
  306MOL0     C41220   6.452   4.946   3.200  0.0395 -0.6837  0.8653
  306MOL0     C41221   6.339   5.003   3.247 -0.3189  0.5138 -0.6018
  306MOL0     O41222   6.106   5.164   3.202  0.0279 -1.3502 -0.5262
  306MOL0     C41223   5.835   5.225   3.287  0.2880  0.4576  0.1503
  306MOL0     C41224   5.697   5.241   3.320 -0.3483  0.0146  0.4888
  306MOL0     N41225   4.859   5.378   3.364 -0.2008 -0.4669  0.4004
  306MOL0     N41226   4.738   5.375   3.311  0.4537  0.6895 -0.2364
  306MOL0     C41227   3.529   4.992   3.345 -0.6000 -0.3253  0.4343
  306MOL0     C41228   3.401   4.995   3.391  0.3213  0.0258 -0.1131
  306MOL0     C41229   2.962   5.034   3.367 -0.1213 -0.0649 -0.1916
  306MOL0     C41230   2.912   4.946   3.467  0.0501 -0.0794  0.7824
  306MOL0     C41231   2.790   4.967   3.528  0.6706 -0.2936  0.0664
  306MOL0     C41232   2.708   5.072   3.492 -0.2096 -0.7641  0.5239
  306MOL0     O41233   2.600   5.091   3.572  0.6260 -0.8151 -0.6106
  306MOL0     C41234   2.477   5.145   3.508 -0.0246  0.0451  0.2407
  306MOL0     C41235   2.352   5.117   3.583  0.3136 -0.4071  0.9820
  306MOL0     C41236   2.322   4.970   3.598 -0.2259  0.3565  1.2547
  306MOL0     C41237   2.219   4.926   3.705 -0.3271  0.4202 -0.3548
  306MOL0     C41238   2.110   5.024   3.707  0.0872  0.7163  0.3787
  306MOL0     C41239   2.032   5.113   3.700  0.0745 -0.7630 -0.0067
  306MOL0     C41240   2.748   5.157   3.397  0.2768  0.5625 -0.0470
  306MOL0     C41241   2.872   5.148   3.335  0.1392 -0.5737 -0.4252
  306MOL0     C41242   2.908   5.245   3.232  0.4826 -0.1013  0.2485
  306MOL0     H41243   3.275   4.720   3.234  0.5582  0.1358 -0.9844
  306MOL0     H41244   3.502   4.705   3.153  0.0595  0.6764 -0.1223
  306MOL0     H41245   3.796   5.036   3.303 -1.2517  0.6853 -0.7530
  306MOL0     H41246   3.809   4.879   3.361 -1.0701  3.8690  2.6600
  306MOL0     H41247   3.926   4.999   3.105 -0.2416  0.4419 -0.4700
  306MOL0     H41248   3.941   4.827   3.143  2.0058  0.1731  0.6061
  306MOL0     H41249   4.142   4.931   3.218 -1.4430 -2.4321  0.0196
  306MOL0     H41250   4.058   4.932   3.367 -0.3276  0.0099 -0.0973
  306MOL0     H41251   4.047   5.159   3.174  0.3351 -1.7645  0.1131
  306MOL0     H41252   3.988   5.161   3.340  0.7256  0.8341  1.2041
  306MOL0     H41253   4.184   5.290   3.328  0.7760  0.0875 -0.7194
  306MOL0     H41254   4.206   5.150   3.438  1.4303 -0.6807 -0.7905
  306MOL0     H41255   4.328   5.021   3.275 -3.0075 -0.9463  2.4269
  306MOL0     H41256   4.320   5.161   3.168  0.5998 -0.8870  0.2124
  306MOL0     H41257   4.469   5.170   3.445  0.0191 -0.4597 -0.8174
  306MOL0     H41258   4.430   5.308   3.344  0.6384  0.1891 -0.2712
  306MOL0     H41259   4.595   5.087   3.240 -1.4824 -0.2339 -1.2356
  306MOL0     H41260   4.557   5.244   3.168  0.2201  0.3801  0.7493
  306MOL0     H41261   4.806   5.056   3.407  1.8954 -0.4333 -1.6230
  306MOL0     H41262   5.049   5.310   3.552  0.1727  1.4780  0.0206
  306MOL0     H41263   5.018   5.139   3.539  1.0692 -0.1646 -0.4862
  306MOL0     H41264   5.109   5.138   3.299  0.1408 -0.4871  1.3727
  306MOL0     H41265   5.137   5.314   3.317  0.0529 -0.8464 -1.0448
  306MOL0     H41266   5.269   5.089   3.456 -1.2251  0.3557 -2.4637
  306MOL0     H41267   5.262   5.242   3.537  0.2061  0.6677  0.0272
  306MOL0     H41268   5.438   5.332   3.395 -4.1975  2.4950 -2.9858
  306MOL0     H41269   5.396   5.231   3.257  0.5768  2.0371 -0.1050
  306MOL0     H41270   5.643   4.931   3.450 -1.8283 -1.2877 -2.8828
  306MOL0     H41271   5.880   4.903   3.382  0.9010  1.0104  2.0060
  306MOL0     H41272   6.135   4.733   3.264 -2.7004  3.4110 -2.0039
  306MOL0     H41273   6.361   4.628   3.197  2.1413 -1.3148  1.4100
  306MOL0     H41274   6.697   4.907   3.079 -1.5055  0.5306  1.8802
  306MOL0     H41275   6.728   4.838   3.238  0.6941  0.5561  0.0265
  306MOL0     H41276   6.813   4.619   3.114 -0.8433 -0.4692  0.6285
  306MOL0     H41277   6.770   4.696   2.964 -0.0888  1.4073 -0.3349
  306MOL0     H41278   6.936   4.892   3.073  0.5084 -0.2202  1.8868
  306MOL0     H41279   6.980   4.766   3.190  3.5406  2.9409  0.9003
  306MOL0     H41280   7.017   4.759   2.886  1.0562 -0.8760 -0.1223
  306MOL0     H41281   7.040   4.618   2.991 -0.3502 -0.7274 -0.5559
  306MOL0     H41282   7.228   4.723   3.110  0.9884 -3.4494 -1.5243
  306MOL0     H41283   7.217   4.868   3.017  1.4650  0.1309 -0.4874
  306MOL0     H41284   7.261   4.611   2.864  0.1792 -0.8008 -0.4293
  306MOL0     H41285   7.255   4.782   2.813  0.7404 -0.2199 -0.4349
  306MOL0     H41286   7.470   4.662   2.992  0.6307 -0.5073 -1.6447
  306MOL0     H41287   7.460   4.830   2.925 -1.4568  0.1452 -3.4540
  306MOL0     H41288   7.600   4.643   2.818 -1.3717 -2.2137  3.3401
  306MOL0     H41289   7.461   4.580   2.748  0.6441  0.0226  1.0500
  306MOL0     H41290   6.528   5.020   3.177 -1.4043  0.4325 -0.5906
  306MOL0     H41291   6.346   5.108   3.271  0.4714 -0.0060  1.7565
  306MOL0     H41292   5.899   5.307   3.254  1.3410 -0.5071 -0.2450
  306MOL0     H41293   5.651   5.338   3.300  0.1145  0.0250 -0.5806
  306MOL0     H41294   3.596   5.068   3.383 -0.1417 -0.7956  0.5821
  306MOL0     H41295   3.366   5.075   3.456  1.2377 -1.0058  1.7352
  306MOL0     H41296   2.962   4.857   3.505 -0.4875  0.1315  2.0421
  306MOL0     H41297   2.741   4.896   3.594 -0.2670  2.6579  2.7912
  306MOL0     H41298   2.455   5.099   3.411  0.3160 -0.1778  0.2693
  306MOL0     H41299   2.492   5.252   3.490  0.4368 -0.2142 -1.0717
  306MOL0     H41300   2.270   5.162   3.526  0.7308 -0.9675 -0.0745
  306MOL0     H41301   2.366   5.165   3.681  3.5010 -3.1276  2.0527
  306MOL0     H41302   2.412   4.917   3.632 -2.4637 -4.2959  0.7221
  306MOL0     H41303   2.286   4.931   3.502 -0.3853  2.2132  0.5160
  306MOL0     H41304   2.174   4.832   3.671  0.2415  0.5843 -1.6116
  306MOL0     H41305   2.268   4.912   3.801  1.5594  0.1054 -1.3096
  306MOL0     H41306   1.959   5.188   3.676  2.2366  0.6211 -2.9284
  306MOL0     H41307   2.686   5.237   3.358 -0.1717 -0.4862 -1.6257
  306MOL0     H41308   2.922   5.201   3.133  2.2442 -0.2392  0.5314
  306MOL0     H41309   2.841   5.329   3.213  3.1161  1.7438 -1.6154
  306MOL0     H41310   3.000   5.294   3.266 -0.0700  1.4112 -0.3425
  307MOL0     O41311   4.518   4.883   9.672 -0.7881  0.2810 -0.0139
  307MOL0     C41312   4.498   4.782   9.598 -0.4194  0.2680  0.7779
  307MOL0     O41313   4.595   4.702   9.554  0.6073  0.0427  0.1721
  307MOL0     C41314   4.727   4.735   9.585 -0.2803  0.0629 -0.0187
  307MOL0     C41315   4.801   4.822   9.504 -0.1606 -0.2235 -0.0514
  307MOL0     C41316   4.941   4.839   9.529  0.5934  0.1318 -0.2437
  307MOL0     C41317   5.001   4.778   9.648 -0.2992  0.9825  0.7595
  307MOL0     O41318   5.131   4.792   9.685  1.0400  0.2481  0.6745
  307MOL0     C41319   5.225   4.857   9.597  0.2991  0.5541 -0.2837
  307MOL0     C41320   5.360   4.880   9.662  0.4027 -0.2670  0.6923
  307MOL0     C41321   5.413   4.757   9.728  0.6183 -0.8137 -0.1425
  307MOL0     C41322   5.545   4.783   9.800 -0.1690  0.1838  0.0228
  307MOL0     C41323   5.620   4.667   9.873 -0.4674  0.2461 -0.4360
  307MOL0     C41324   5.695   4.583   9.770 -0.8066  0.3973 -0.0552
  307MOL0     C41325   5.844   4.609   9.777  1.1141 -0.1033  0.6910
  307MOL0     C41326   5.872   4.759   9.748 -0.1038 -1.0653 -0.7546
  307MOL0     N41327   6.017   4.784   9.734  1.0165 -0.7334  0.5124
  307MOL0     C41328   6.090   4.869   9.813 -0.5896 -0.5200  0.6429
  307MOL0     C41329   6.220   4.831   9.791 -0.5830  0.7015 -0.1343
  307MOL0     C41330   6.344   4.878   9.855 -0.6722 -1.0113 -0.1528
  307MOL0     C41331   6.312   4.999   9.946 -0.5783  1.2935  0.0903
  307MOL0     C41332   6.434   5.052  10.018  0.0653  0.0302  0.7821
  307MOL0     C41333   6.554   5.088   9.933 -0.2242  0.2283  0.2138
  307MOL0     O41334   6.637   4.964   9.907 -0.4291 -0.0656  0.0826
  307MOL0     C41335   6.775   4.972   9.894  0.7507 -0.1161  0.1425
  307MOL0     C41336   6.853   5.036   9.993 -0.0006  0.4546 -0.5109
  307MOL0     C41337   6.995   5.034   9.979  0.6880 -0.6158  0.0435
  307MOL0     C41338   7.055   4.954   9.882 -0.0871 -0.2949 -0.0966
  307MOL0     C41339   7.206   4.951   9.870 -0.0061 -0.4609 -0.2694
  307MOL0     O41340   7.270   4.870   9.793 -0.6517  0.2331  0.9369
  307MOL0     C41341   7.407   4.860   9.798  0.7977  0.1767  0.3592
  307MOL0     C41342   7.468   4.829   9.925 -0.9613  0.1153  0.1002
  307MOL0     C41343   7.610   4.848   9.926 -0.4211 -0.6982 -0.1974
  307MOL0     C41344   7.685   4.854   9.809  0.5750 -0.3209  0.7658
  307MOL0     O41345   7.826   4.867   9.823 -0.3304 -0.2665  0.0662
  307MOL0     C41346   7.901   4.821   9.716  0.1803 -0.4380  0.4399
  307MOL0     C41347   8.045   4.838   9.755 -0.0644 -0.1852  0.3776
  307MOL0     C41348   8.144   4.797   9.644  0.2135 -0.5410  0.2266
  307MOL0     C41349   8.283   4.841   9.677  0.4574 -0.1096  0.3925
  307MOL0     C41350   8.376   4.827   9.554 -0.8049 -1.0045 -0.3331
  307MOL0     C41351   8.382   4.695   9.481  0.0755  0.0518 -0.8927
  307MOL0     C41352   8.496   4.692   9.371  0.0522 -0.3891 -0.6916
  307MOL0     C41353   8.509   4.560   9.293  0.1669 -0.6049  0.6455
  307MOL0    Cl41354   8.627   4.466   9.367 -0.2915 -0.3871  0.2267
  307MOL0     C41355   7.609   4.861   9.688 -0.9692 -0.6702  0.0696
  307MOL0     C41356   7.475   4.872   9.681 -1.2758  0.4320 -0.2636
  307MOL0     O41357   7.267   5.035   9.938  0.0941  0.0834 -0.0449
  307MOL0     C41358   6.972   4.883   9.785  0.2084 -1.0182  0.3583
  307MOL0     C41359   6.832   4.896   9.792 -0.4774  0.8010  0.4830
  307MOL0     N41360   6.214   4.739   9.688  0.9495  0.4459  0.2038
  307MOL0     N41361   6.094   4.715   9.649  0.9441 -0.0917  0.1022
  307MOL0     C41362   4.926   4.685   9.723 -0.1236  0.2486 -0.6742
  307MOL0     C41363   4.793   4.667   9.689  0.0790  0.0801 -0.3379
  307MOL0     C41364   4.359   4.747   9.556 -0.0332 -0.1551  0.8179
  307MOL0     C41365   4.340   4.637   9.472 -0.1179  0.2127 -0.4235
  307MOL0     C41366   4.214   4.585   9.444  0.1122 -0.4982  0.7820
  307MOL0     C41367   4.102   4.650   9.493 -0.5305 -0.1574 -1.8000
  307MOL0     O41368   3.995   4.601   9.439 -0.0408  0.3021 -0.2000
  307MOL0     C41369   3.879   4.601   9.520  0.6624 -0.3588 -0.0991
  307MOL0     C41370   3.766   4.526   9.445  0.6395  0.2888  0.0082
  307MOL0     C41371   3.692   4.618   9.353 -0.0689  0.0968 -0.1813
  307MOL0     C41372   3.614   4.546   9.242 -0.1985 -0.0549 -0.4289
  307MOL0     C41373   3.501   4.470   9.276  0.0963  0.3466 -0.1740
  307MOL0     C41374   3.413   4.406   9.326  0.5169 -0.0183  0.7311
  307MOL0     C41375   4.110   4.761   9.575  0.3009 -0.3645  0.4384
  307MOL0     C41376   4.244   4.804   9.607  0.5678 -0.1749  0.4621
  307MOL0     C41377   4.249   4.917   9.702 -0.6034 -0.2309 -0.4025
  307MOL0     H41378   4.753   4.867   9.418  0.7628  3.0089  0.9795
  307MOL0     H41379   5.005   4.893   9.461 -1.3165  0.1720 -2.1222
  307MOL0     H41380   5.226   4.799   9.504 -1.1273 -0.1829  0.1426
  307MOL0     H41381   5.189   4.955   9.565 -0.7389  0.5039  0.6935
  307MOL0     H41382   5.344   4.967   9.726 -2.3728 -1.5753  1.9570
  307MOL0     H41383   5.440   4.906   9.593 -0.4568  0.4690 -0.0540
  307MOL0     H41384   5.404   4.685   9.646 -1.1284  0.7354 -1.4069
  307MOL0     H41385   5.342   4.717   9.801  1.5272  1.0573  1.8801
  307MOL0     H41386   5.612   4.820   9.722 -2.7913  1.3666 -1.7773
  307MOL0     H41387   5.532   4.860   9.876 -1.8230  0.1086 -0.1451
  307MOL0     H41388   5.683   4.696   9.958 -0.5165 -0.2597 -0.2185
  307MOL0     H41389   5.549   4.603   9.927 -1.0174  1.2672  0.0824
  307MOL0     H41390   5.684   4.477   9.797  0.6870  0.1800 -0.1988
  307MOL0     H41391   5.648   4.604   9.674 -2.0486 -1.0913  0.1967
  307MOL0     H41392   5.892   4.552   9.697 -0.0674  1.5958 -1.3168
  307MOL0     H41393   5.879   4.581   9.877 -1.2784 -0.7794  1.4148
  307MOL0     H41394   5.810   4.809   9.674 -1.3182  1.8175  1.9745
  307MOL0     H41395   5.837   4.816   9.835  1.3019 -1.4210  0.0891
  307MOL0     H41396   6.050   4.937   9.887 -1.1766  3.2995 -2.8453
  307MOL0     H41397   6.376   4.790   9.910 -2.2859 -0.9420  0.9492
  307MOL0     H41398   6.427   4.904   9.788 -0.4103 -1.1307  0.1234
  307MOL0     H41399   6.270   5.076   9.881 -2.1895  0.6753  0.3678
  307MOL0     H41400   6.240   4.976  10.024 -2.6456  3.3295 -1.0942
  307MOL0     H41401   6.463   4.987  10.101  0.6500  1.6770  1.9137
  307MOL0     H41402   6.397   5.146  10.059 -0.1356  2.4279 -4.1937
  307MOL0     H41403   6.615   5.159   9.990  0.9408 -1.9981  1.9224
  307MOL0     H41404   6.525   5.136   9.839 -1.6205 -1.0362 -0.0315
  307MOL0     H41405   6.809   5.089  10.076  0.4192  1.1545 -0.7335
  307MOL0     H41406   7.054   5.102  10.039  0.9166  0.2605 -1.1488
  307MOL0     H41407   7.404   4.788  10.002 -0.8369 -2.6460 -1.1443
  307MOL0     H41408   7.659   4.837  10.022 -0.3862 -2.0327 -0.3540
  307MOL0     H41409   7.886   4.717   9.687 -0.2247 -0.2123 -0.1880
  307MOL0     H41410   7.875   4.883   9.629 -0.4398 -1.7693 -0.3527
  307MOL0     H41411   8.068   4.939   9.789  2.6786 -0.3751 -0.6724
  307MOL0     H41412   8.042   4.765   9.836  0.1471  1.4165  1.8836
  307MOL0     H41413   8.145   4.689   9.629  1.8400 -0.3583 -1.2854
  307MOL0     H41414   8.110   4.852   9.556  1.2907  0.4826  0.4259
  307MOL0     H41415   8.316   4.778   9.760  2.5881 -1.1402 -1.1398
  307MOL0     H41416   8.287   4.947   9.704 -0.6527  0.3340 -1.0475
  307MOL0     H41417   8.474   4.845   9.598 -1.7890  1.8414  0.9456
  307MOL0     H41418   8.344   4.903   9.482 -3.6190 -1.9038 -0.1720
  307MOL0     H41419   8.404   4.611   9.547  0.4802  0.1212 -0.9405
  307MOL0     H41420   8.284   4.676   9.436  0.1019  2.4444 -2.1408
  307MOL0     H41421   8.587   4.721   9.424 -1.4872  1.8398  0.8966
  307MOL0     H41422   8.475   4.772   9.299  0.8447  0.6214  0.1653
  307MOL0     H41423   8.409   4.519   9.276  0.0063  0.7765 -2.4553
  307MOL0     H41424   8.538   4.590   9.192  0.5498  1.4316  1.3160
  307MOL0     H41425   7.668   4.868   9.598 -0.6490 -2.8034  0.0521
  307MOL0     H41426   7.415   4.902   9.596 -1.1088  2.7619  0.3825
  307MOL0     H41427   7.018   4.813   9.715  3.8226  3.4869 -2.2997
  307MOL0     H41428   6.777   4.837   9.719  1.5157  1.6442 -1.8717
  307MOL0     H41429   4.978   4.643   9.809  0.8091  2.7547  0.0750
  307MOL0     H41430   4.738   4.592   9.744 -0.9297  0.1571 -1.2036
  307MOL0     H41431   4.422   4.589   9.420  0.5734  0.7215  0.1744
  307MOL0     H41432   4.208   4.494   9.385  0.4047  0.1843 -0.3307
  307MOL0     H41433   3.850   4.702   9.548 -0.7736 -1.0613  1.1174
  307MOL0     H41434   3.899   4.548   9.614  0.0046 -0.9854 -0.3048
  307MOL0     H41435   3.702   4.492   9.527  2.5445  2.3186  2.5200
  307MOL0     H41436   3.813   4.451   9.381  1.3921 -2.4161  3.4369
  307MOL0     H41437   3.759   4.692   9.309  0.1491  0.6579  1.0516
  307MOL0     H41438   3.619   4.676   9.410  1.9260 -0.6053  3.4188
  307MOL0     H41439   3.583   4.608   9.158  1.0400 -0.5583 -1.2891
  307MOL0     H41440   3.696   4.485   9.201  1.1820 -0.4452  2.6385
  307MOL0     H41441   3.333   4.365   9.384 -1.9355  2.1299 -0.9375
  307MOL0     H41442   4.031   4.821   9.619  1.3281  1.4766 -0.1099
  307MOL0     H41443   4.272   5.005   9.643  2.6982  0.3191  1.4838
  307MOL0     H41444   4.150   4.937   9.746 -0.7578  0.0704 -0.8796
  307MOL0     H41445   4.322   4.911   9.783 -1.0945  0.1616  0.0851
  308MOL0     O41446   9.370   7.429   7.644  0.1413 -0.4361 -0.6588
  308MOL0     C41447   9.305   7.496   7.561 -0.5356  0.5335 -0.4535
  308MOL0     O41448   9.363   7.577   7.468 -0.1686  0.0439 -0.1295
  308MOL0     C41449   9.507   7.587   7.468  0.2012 -1.1763  0.2482
  308MOL0     C41450   9.563   7.712   7.478 -0.8342  0.3589  0.2106
  308MOL0     C41451   9.700   7.735   7.470  0.0711  0.6001 -0.3155
  308MOL0     C41452   9.794   7.624   7.461  1.4392 -0.6309  0.2277
  308MOL0     O41453   9.925   7.633   7.465  0.4024 -0.0121  0.8855
  308MOL0     C41454   9.983   7.759   7.494 -0.0028 -0.2047  1.0237
  308MOL0     C41455  10.139   7.750   7.483  0.3230 -0.8728  0.0369
  308MOL0     C41456  10.211   7.886   7.476 -0.0389 -0.1558  0.3646
  308MOL0     C41457  10.361   7.863   7.471  0.1510 -0.4718 -0.3155
  308MOL0     C41458  10.431   8.003   7.445  0.0879  0.0139 -0.1479
  308MOL0     C41459  10.572   7.987   7.385  0.8008  0.2157  0.2925
  308MOL0     C41460  10.662   8.107   7.404 -0.5147  0.4478  0.0159
  308MOL0     C41461  10.794   8.088   7.315 -0.0923 -0.1503  0.0127
  308MOL0     N41462  10.902   8.170   7.368 -1.0079 -0.3977  0.1847
  308MOL0     C41463  10.986   8.131   7.467 -0.1626  0.1693  0.5252
  308MOL0     C41464  11.064   8.238   7.493  0.1118  0.0366 -0.2235
  308MOL0     C41465  11.172   8.241   7.600  0.3329 -0.0519 -0.5124
  308MOL0     C41466  11.311   8.236   7.544 -0.5371 -0.2590 -0.5095
  308MOL0     C41467  11.404   8.226   7.654 -0.0323 -0.3777  0.2677
  308MOL0     C41468  11.546   8.199   7.592 -0.2823 -0.3150 -0.5883
  308MOL0     O41469  11.555   8.090   7.503  0.1027 -0.5356 -0.5578
  308MOL0     C41470  11.676   8.088   7.425  0.7629 -0.0366  0.2102
  308MOL0     C41471  11.783   8.174   7.439 -0.2650  0.4593 -0.8885
  308MOL0     C41472  11.899   8.157   7.367 -0.1650 -0.0659  0.2585
  308MOL0     C41473  11.913   8.048   7.280 -0.0073 -0.1544 -0.0491
  308MOL0     C41474  12.053   8.009   7.244 -0.1365 -0.1708  0.9285
  308MOL0     O41475  12.156   8.073   7.306 -0.2329  0.0581  0.2171
  308MOL0     C41476  12.288   8.059   7.279 -0.0767  0.0051  0.9434
  308MOL0     C41477  12.335   8.001   7.159 -0.7303  0.3843  0.0601
  308MOL0     C41478  12.469   7.963   7.139  0.3361  0.0718 -0.4572
  308MOL0     C41479  12.556   8.001   7.239  0.4353 -0.6730  1.2130
  308MOL0     O41480  12.688   7.980   7.250 -0.5855 -0.5611  0.0882
  308MOL0     C41481  12.757   7.954   7.131  0.0413  0.3355  0.6884
  308MOL0     C41482  12.907   7.979   7.167  0.0640  0.2708  0.3347
  308MOL0     C41483  12.947   7.882   7.283  0.2819 -0.0537  0.6832
  308MOL0     C41484  13.027   7.768   7.231  0.3251 -1.0944 -0.2643
  308MOL0     C41485  13.079   7.673   7.341  0.6319  0.2151  0.5946
  308MOL0     C41486  13.180   7.585   7.274 -0.1326 -0.5685 -0.3419
  308MOL0     C41487  13.249   7.508   7.391 -0.8804  0.8489  0.0457
  308MOL0     C41488  13.362   7.420   7.331 -0.8874  0.0741  0.9788
  308MOL0    Cl41489  13.433   7.321   7.460  0.2234 -0.4865 -0.2242
  308MOL0     C41490  12.514   8.069   7.355  0.8522  0.3105  0.3644
  308MOL0     C41491  12.383   8.104   7.366  0.0748 -0.6666 -0.6389
  308MOL0     O41492  12.061   7.932   7.148 -0.0098  0.0254  0.8858
  308MOL0     C41493  11.802   7.963   7.253 -1.2441  0.2961 -0.1169
  308MOL0     C41494  11.685   7.982   7.334  0.6338  0.9088  0.7399
  308MOL0     N41495  11.015   8.342   7.415  0.2985 -0.2925  0.1624
  308MOL0     N41496  10.927   8.299   7.337  0.2406  0.7611  0.7597
  308MOL0     C41497   9.742   7.492   7.458 -0.0084 -0.6160  0.5418
  308MOL0     C41498   9.597   7.482   7.457 -0.5270  0.4540 -0.2780
  308MOL0     C41499   9.150   7.492   7.561  0.1692 -0.3101  0.0057
  308MOL0     C41500   9.083   7.528   7.445 -0.2113  0.6010  0.8010
  308MOL0     C41501   8.946   7.529   7.437  0.2023  0.7028 -0.1099
  308MOL0     C41502   8.865   7.505   7.547 -1.1940  0.5769  0.9321
  308MOL0     O41503   8.732   7.531   7.552  0.4559  0.0166  1.3030
  308MOL0     C41504   8.648   7.486   7.440 -0.5918  0.1079  0.4788
  308MOL0     C41505   8.572   7.364   7.482 -0.0040  0.7624  0.3731
  308MOL0     C41506   8.498   7.305   7.361 -0.5872  0.5141 -0.1046
  308MOL0     C41507   8.548   7.170   7.330 -0.1648  0.6667  0.8737
  308MOL0     C41508   8.459   7.104   7.225 -0.3700 -0.1150  0.2569
  308MOL0     C41509   8.393   7.047   7.139  0.2152 -0.0643  0.1925
  308MOL0     C41510   8.928   7.473   7.665 -0.2516 -0.4342 -0.4596
  308MOL0     C41511   9.071   7.474   7.681 -0.9060 -0.3439  0.9633
  308MOL0     C41512   9.138   7.456   7.818 -1.3020  0.0014  0.5233
  308MOL0     H41513   9.500   7.800   7.482  0.4243  1.2559  0.6366
  308MOL0     H41514   9.725   7.840   7.474 -2.2048  1.1703  0.1715
  308MOL0     H41515   9.947   7.837   7.426  1.2723 -1.3274 -1.0591
  308MOL0     H41516   9.958   7.788   7.596 -1.5041 -1.3186  1.0175
  308MOL0     H41517  10.153   7.699   7.387  2.5478 -1.4817  0.6410
  308MOL0     H41518  10.170   7.688   7.568  0.9114  2.0938  2.1579
  308MOL0     H41519  10.193   7.962   7.553  1.5082  3.2019 -2.3138
  308MOL0     H41520  10.184   7.922   7.377  0.0950 -1.4150 -0.1444
  308MOL0     H41521  10.401   7.810   7.558  3.7296 -0.4993 -1.8253
  308MOL0     H41522  10.383   7.817   7.375  2.1439  5.0792 -2.9372
  308MOL0     H41523  10.375   8.074   7.383 -1.1905  1.1297  2.1726
  308MOL0     H41524  10.440   8.060   7.537 -1.0087  1.1146 -0.6927
  308MOL0     H41525  10.615   7.899   7.434  1.2960 -0.9820 -2.1558
  308MOL0     H41526  10.567   7.958   7.280 -0.5832 -2.0325  0.9294
  308MOL0     H41527  10.700   8.099   7.506 -0.0637 -0.8732 -0.2394
  308MOL0     H41528  10.608   8.199   7.379 -0.7634 -0.1548 -1.7682
  308MOL0     H41529  10.824   7.983   7.311 -0.8774 -0.3346 -1.8795
  308MOL0     H41530  10.764   8.112   7.213 -1.1037  1.8578  0.7242
  308MOL0     H41531  10.971   8.035   7.516 -0.3139 -0.0086  0.1320
  308MOL0     H41532  11.172   8.326   7.668  2.7992 -0.1739 -0.2680
  308MOL0     H41533  11.169   8.151   7.662  2.3482 -1.1817 -1.9662
  308MOL0     H41534  11.310   8.139   7.493  1.7412 -0.9431  0.6211
  308MOL0     H41535  11.330   8.318   7.475  0.1061  0.2785  0.2938
  308MOL0     H41536  11.384   8.138   7.716  0.4658 -0.6076  0.1038
  308MOL0     H41537  11.415   8.313   7.720  0.7518 -0.7452  0.6328
  308MOL0     H41538  11.625   8.185   7.666  1.2124  1.6700 -1.6905
  308MOL0     H41539  11.571   8.292   7.539  0.0504  1.5632  2.5564
  308MOL0     H41540  11.778   8.253   7.513 -2.4423 -0.1416 -0.3285
  308MOL0     H41541  11.978   8.231   7.369 -1.4015  1.5520 -2.9363
  308MOL0     H41542  12.270   7.960   7.083  0.4179 -1.8887  0.2044
  308MOL0     H41543  12.506   7.900   7.058 -0.5834 -0.8132 -0.2036
  308MOL0     H41544  12.743   7.854   7.088 -0.3306  0.5004  0.4246
  308MOL0     H41545  12.735   8.030   7.055  3.0263 -0.5748 -1.2863
  308MOL0     H41546  12.962   7.955   7.075 -0.9203 -0.8872  0.0238
  308MOL0     H41547  12.925   8.083   7.195  3.9734 -0.1422 -0.1335
  308MOL0     H41548  12.999   7.941   7.359 -1.5115 -0.6158  2.4299
  308MOL0     H41549  12.861   7.834   7.331 -0.8264 -0.7705 -1.8465
  308MOL0     H41550  13.111   7.806   7.173 -0.5582  0.0957 -0.7988
  308MOL0     H41551  12.963   7.705   7.168  0.0471 -1.1794  0.0924
  308MOL0     H41552  12.983   7.625   7.362  0.0727 -0.5950 -3.1813
  308MOL0     H41553  13.118   7.727   7.429  1.4587 -1.7423  1.4798
  308MOL0     H41554  13.128   7.514   7.208 -2.3041  1.6988 -1.2499
  308MOL0     H41555  13.251   7.643   7.214 -1.5288  1.4913 -0.1149
  308MOL0     H41556  13.174   7.436   7.426 -0.5885  0.3994 -0.2502
  308MOL0     H41557  13.290   7.586   7.456  0.5955  1.7225 -1.8385
  308MOL0     H41558  13.333   7.357   7.246  0.0306  0.7588  0.1359
  308MOL0     H41559  13.440   7.479   7.283 -2.6062 -0.1348 -2.3367
  308MOL0     H41560  12.579   8.102   7.435  2.2817 -2.7418  0.6130
  308MOL0     H41561  12.345   8.162   7.449  2.1599 -1.0149  0.6316
  308MOL0     H41562  11.807   7.872   7.194 -0.0385  0.7215 -0.7044
  308MOL0     H41563  11.603   7.916   7.308  1.3349 -0.4851  1.8525
  308MOL0     H41564   9.809   7.406   7.453  1.7065  0.5399  2.2686
  308MOL0     H41565   9.567   7.378   7.464 -0.1262  0.3905  0.7677
  308MOL0     H41566   9.140   7.547   7.355  0.4904  0.2740  1.1698
  308MOL0     H41567   8.894   7.556   7.346  1.2676  0.5351 -0.7801
  308MOL0     H41568   8.720   7.463   7.360 -1.0720  0.7676 -0.1602
  308MOL0     H41569   8.583   7.557   7.388 -0.3701 -0.3222 -0.4033
  308MOL0     H41570   8.489   7.406   7.541  2.3625  3.4933  2.0482
  308MOL0     H41571   8.630   7.290   7.537  0.4108  1.3626  0.7648
  308MOL0     H41572   8.500   7.360   7.266 -1.2996 -2.3089 -1.8644
  308MOL0     H41573   8.396   7.311   7.400 -0.0250  1.4153  1.2778
  308MOL0     H41574   8.649   7.173   7.289 -1.7671 -3.2563 -4.6461
  308MOL0     H41575   8.555   7.099   7.413  0.9400 -2.4913 -1.6658
  308MOL0     H41576   8.333   6.984   7.077  0.5236  1.3666 -1.6590
  308MOL0     H41577   8.865   7.448   7.750 -0.1340  2.3311  0.5274
  308MOL0     H41578   9.195   7.362   7.823 -1.1149 -0.4566 -4.8016
  308MOL0     H41579   9.210   7.538   7.824  0.5989 -1.4889 -0.5352
  308MOL0     H41580   9.065   7.449   7.899  0.4077 -0.8080  2.0658
  309MOL0     O41581   6.248   0.209  10.961 -0.3398 -0.2587  0.1340
  309MOL0     C41582   6.281   0.293  11.049 -0.1341  1.1155 -0.1748
  309MOL0     O41583   6.413   0.335  11.072  0.7884  0.5588 -0.4010
  309MOL0     C41584   6.511   0.304  10.977  0.2324  0.0215 -0.0297
  309MOL0     C41585   6.545   0.172  10.941  0.4109  0.2552 -0.3178
  309MOL0     C41586   6.650   0.145  10.847 -0.0456 -0.2736  1.3490
  309MOL0     C41587   6.731   0.253  10.803  0.1470  0.2620 -0.2255
  309MOL0     O41588   6.843   0.233  10.728 -0.0786 -0.0774 -0.6843
  309MOL0     C41589   6.915   0.112  10.724 -0.3008  0.2684 -0.1124
  309MOL0     C41590   7.047   0.150  10.653 -0.6727  0.2108 -0.7527
  309MOL0     C41591   7.037   0.169  10.499  0.7918  0.1459  0.8566
  309MOL0     C41592   7.168   0.233  10.435  0.4235  0.9158  0.1018
  309MOL0     C41593   7.230   0.126  10.344  0.1526 -0.6152 -0.1700
  309MOL0     C41594   7.362   0.178  10.285 -0.7974  0.4351  0.5662
  309MOL0     C41595   7.448   0.064  10.226  0.1044  0.2078  0.2920
  309MOL0     C41596   7.401  -0.018  10.100  0.0634  0.8147 -0.8422
  309MOL0     N41597   7.404   0.076   9.990  0.1547  0.4378  0.5730
  309MOL0     C41598   7.513   0.126   9.927 -0.0568  0.1125 -0.2406
  309MOL0     C41599   7.465   0.220   9.847 -0.0328 -0.5445 -0.0206
  309MOL0     C41600   7.556   0.291   9.753 -0.0961 -0.5608  0.5341
  309MOL0     C41601   7.514   0.276   9.605 -0.2617  0.4356  0.0675
  309MOL0     C41602   7.538   0.395   9.516 -0.1669 -0.5205 -0.4512
  309MOL0     C41603   7.692   0.423   9.512 -0.5895 -0.7267 -0.2094
  309MOL0     O41604   7.725   0.554   9.454  0.3470  0.7322  0.3978
  309MOL0     C41605   7.824   0.619   9.518  0.5818 -0.0872  0.2841
  309MOL0     C41606   7.950   0.554   9.519 -0.7060 -0.1858 -0.6695
  309MOL0     C41607   8.056   0.625   9.572 -0.2773  0.4928  0.4774
  309MOL0     C41608   8.032   0.751   9.628 -0.2119 -0.9040  0.4513
  309MOL0     C41609   8.154   0.826   9.669  0.0676  0.0335 -0.5619
  309MOL0     O41610   8.261   0.748   9.698  0.5860 -0.2658 -0.5857
  309MOL0     C41611   8.380   0.804   9.733 -1.2255  0.6411 -0.7788
  309MOL0     C41612   8.478   0.705   9.763  0.5241  0.4797 -0.1269
  309MOL0     C41613   8.616   0.727   9.777  0.6123 -0.6451  0.0546
  309MOL0     C41614   8.663   0.860   9.782 -0.0975 -0.3210 -0.8818
  309MOL0     O41615   8.795   0.893   9.786 -0.4479 -0.2918  0.1435
  309MOL0     C41616   8.865   0.825   9.891 -0.2739  0.4471  0.1147
  309MOL0     C41617   8.991   0.910   9.920  0.0097  0.3838 -0.2735
  309MOL0     C41618   9.080   0.833  10.019  0.5090  0.9938  0.0356
  309MOL0     C41619   9.222   0.906  10.004 -0.0658  0.4838  0.0107
  309MOL0     C41620   9.332   0.837  10.100  0.1146  0.3684 -0.4268
  309MOL0     C41621   9.470   0.896  10.099  0.4550  0.1584 -0.0020
  309MOL0     C41622   9.562   0.808  10.173 -0.7826 -0.7945  0.0353
  309MOL0     C41623   9.693   0.878  10.195  0.6542 -0.1578  0.0961
  309MOL0    Cl41624   9.773   0.822  10.340 -0.0821  0.1752  0.1355
  309MOL0     C41625   8.565   0.961   9.771  0.8880  1.0235 -0.5239
  309MOL0     C41626   8.428   0.937   9.753  0.1734 -0.4902  0.1237
  309MOL0     O41627   8.144   0.952   9.686 -0.4349 -0.7065 -0.7631
  309MOL0     C41628   7.904   0.808   9.644  0.1193 -0.1426  0.1840
  309MOL0     C41629   7.799   0.741   9.584  0.9421  0.4761 -0.3438
  309MOL0     N41630   7.333   0.209   9.842 -0.5137 -0.5785  0.4804
  309MOL0     N41631   7.294   0.118   9.932 -0.8895  0.7347  0.6713
  309MOL0     C41632   6.689   0.385  10.832 -0.6128 -0.3181 -0.9463
  309MOL0     C41633   6.583   0.408  10.920 -0.8020 -0.7699 -0.2003
  309MOL0     C41634   6.182   0.343  11.146  0.5072  0.1792 -0.3783
  309MOL0     C41635   6.218   0.451  11.225  0.0157  0.2153 -0.0446
  309MOL0     C41636   6.130   0.507  11.320 -0.0376  0.1681  0.5083
  309MOL0     C41637   6.008   0.442  11.342  0.3139 -0.1894 -0.0031
  309MOL0     O41638   5.917   0.472  11.439 -0.0925 -0.0398  0.0436
  309MOL0     C41639   5.949   0.555  11.550 -0.1080 -0.3563 -0.7500
  309MOL0     C41640   5.916   0.471  11.678 -0.0627 -0.4366  0.1556
  309MOL0     C41641   5.775   0.476  11.729  0.2624 -0.5930  0.1607
  309MOL0     C41642   5.673   0.406  11.645 -0.1723  0.0746 -0.7463
  309MOL0     C41643   5.539   0.417  11.708 -0.9236 -0.0345  0.2020
  309MOL0     C41644   5.428   0.432  11.754 -0.3200  0.5614  0.0083
  309MOL0     C41645   5.968   0.336  11.263  0.2556  0.1505 -0.6511
  309MOL0     C41646   6.061   0.284  11.167  0.4063 -0.2176  0.0854
  309MOL0     C41647   6.005   0.167  11.094 -0.0003  0.2818 -0.6935
  309MOL0     H41648   6.503   0.088  10.995  1.1527  1.1769  1.7762
  309MOL0     H41649   6.675   0.046  10.812 -0.9309  0.1594 -0.6411
  309MOL0     H41650   6.936   0.068  10.822  1.9723  1.0545 -0.1850
  309MOL0     H41651   6.869   0.044  10.652  2.8794 -1.9820 -0.2249
  309MOL0     H41652   7.118   0.071  10.679 -3.4356 -2.5809 -0.9563
  309MOL0     H41653   7.075   0.246  10.696 -0.8978  0.0908 -0.3290
  309MOL0     H41654   6.950   0.234  10.482  1.1095  0.3481 -0.0515
  309MOL0     H41655   7.014   0.083  10.437  3.7134  1.2611 -2.0749
  309MOL0     H41656   7.145   0.317  10.368  0.0934 -0.3216 -1.3833
  309MOL0     H41657   7.243   0.261  10.511  2.9844 -1.7789 -1.2386
  309MOL0     H41658   7.247   0.043  10.413 -0.0181 -1.8370 -1.5506
  309MOL0     H41659   7.162   0.094  10.264  0.2374  2.8930 -1.8409
  309MOL0     H41660   7.348   0.257  10.212  0.8399  1.4305  1.2841
  309MOL0     H41661   7.431   0.216  10.361  1.9835 -1.3895 -0.8889
  309MOL0     H41662   7.474  -0.010  10.302 -3.0689  0.3116  1.6032
  309MOL0     H41663   7.545   0.108  10.199  2.5786 -4.0738  1.2467
  309MOL0     H41664   7.467  -0.104  10.083  2.5776  2.6354 -0.8821
  309MOL0     H41665   7.308  -0.063  10.136  0.5388  1.0791  0.7834
  309MOL0     H41666   7.615   0.089   9.931 -0.2299 -0.2768  0.6252
  309MOL0     H41667   7.561   0.397   9.778 -1.8656 -0.0529 -1.0443
  309MOL0     H41668   7.659   0.254   9.757  0.5046  0.9789  0.2907
  309MOL0     H41669   7.552   0.185   9.558 -2.9489 -1.9675  2.2081
  309MOL0     H41670   7.407   0.255   9.609 -0.1537  0.0700  1.7197
  309MOL0     H41671   7.486   0.486   9.547  2.0365  1.1706 -1.4256
  309MOL0     H41672   7.504   0.367   9.415 -0.5064  0.2735 -0.5615
  309MOL0     H41673   7.742   0.339   9.463 -2.6708 -2.8580  1.1172
  309MOL0     H41674   7.731   0.418   9.614 -1.0066  0.4164  0.0161
  309MOL0     H41675   7.966   0.460   9.468  1.6070  1.4473 -3.2673
  309MOL0     H41676   8.155   0.581   9.575 -0.6047 -0.2663  0.2455
  309MOL0     H41677   8.451   0.602   9.743  0.5326  0.2419  0.9978
  309MOL0     H41678   8.689   0.648   9.791  1.4915  0.5627  3.1575
  309MOL0     H41679   8.804   0.814   9.982  1.0298  1.6479  1.1733
  309MOL0     H41680   8.880   0.720   9.866 -1.9099 -0.0256  0.9603
  309MOL0     H41681   9.038   0.929   9.823 -0.4105  0.5522 -0.4487
  309MOL0     H41682   8.957   1.005   9.962  0.2649 -0.1875  1.2916
  309MOL0     H41683   9.045   0.838  10.123 -0.1844 -1.3308 -0.0520
  309MOL0     H41684   9.101   0.730   9.990  2.5885  1.2594  0.3967
  309MOL0     H41685   9.227   1.013  10.025  0.3437  0.3467  0.6439
  309MOL0     H41686   9.253   0.895   9.900  0.1171 -1.9154  0.2593
  309MOL0     H41687   9.343   0.733  10.068  1.3420 -0.1182  1.4156
  309MOL0     H41688   9.286   0.835  10.199  1.5526 -0.8816  0.2470
  309MOL0     H41689   9.502   0.899   9.994 -0.5640 -0.6548 -0.3541
  309MOL0     H41690   9.474   0.996  10.143  0.4043  1.2889 -2.3716
  309MOL0     H41691   9.570   0.718  10.113  0.1044 -0.9204  0.3215
  309MOL0     H41692   9.524   0.793  10.275  0.5534  2.7071  1.2270
  309MOL0     H41693   9.756   0.849  10.111  4.7397  0.7143  2.5738
  309MOL0     H41694   9.696   0.987  10.201  2.4960 -0.2383  1.5485
  309MOL0     H41695   8.602   1.063   9.780  3.0641  0.1827  0.9884
  309MOL0     H41696   8.362   1.023   9.751 -0.0201 -0.6258  0.5592
  309MOL0     H41697   7.897   0.906   9.691 -0.2438 -0.0955  0.0318
  309MOL0     H41698   7.697   0.775   9.576 -0.1080 -2.6685 -2.7136
  309MOL0     H41699   6.759   0.458  10.793  2.0142 -3.1317 -1.9348
  309MOL0     H41700   6.551   0.507  10.950 -0.0505 -0.5627 -0.0719
  309MOL0     H41701   6.313   0.502  11.212  0.6698 -0.3262  2.2381
  309MOL0     H41702   6.154   0.597  11.375 -0.7719 -0.6122  2.1646
  309MOL0     H41703   5.894   0.649  11.548 -0.5712 -0.5418  1.6172
  309MOL0     H41704   6.058   0.563  11.559 -0.0669 -2.6070  2.1508
  309MOL0     H41705   5.973   0.513  11.762  1.0241  0.8094 -1.1584
  309MOL0     H41706   5.940   0.364  11.674  4.1426  0.0493  4.1646
  309MOL0     H41707   5.749   0.582  11.730  4.0899  0.5147  0.9202
  309MOL0     H41708   5.779   0.428  11.827 -0.5546 -1.7360 -0.3528
  309MOL0     H41709   5.663   0.447  11.545 -0.4657  0.7271 -0.4541
  309MOL0     H41710   5.703   0.302  11.629  1.4124  0.0335  1.7949
  309MOL0     H41711   5.329   0.433  11.796  0.7940 -0.7405  2.9325
  309MOL0     H41712   5.873   0.290  11.287 -0.1281  1.2213 -0.0530
  309MOL0     H41713   5.979   0.198  10.993  0.4657 -1.5966 -1.4251
  309MOL0     H41714   6.081   0.088  11.094  0.7109  0.9543 -0.2217
  309MOL0     H41715   5.912   0.130  11.139 -1.7590  4.2422 -0.6323
  310MOL0     O41716  10.579   9.748   3.168  0.5613  0.0047  0.0929
  310MOL0     C41717  10.515   9.646   3.178 -0.6195  0.2781  0.2864
  310MOL0     O41718  10.537   9.562   3.277  0.4558  0.4328  0.3855
  310MOL0     C41719  10.631   9.591   3.367 -0.3287  0.6058  0.1422
  310MOL0     C41720  10.605   9.644   3.494  0.4222  1.0412  0.6003
  310MOL0     C41721  10.704   9.672   3.578 -0.0331 -0.1231  0.3030
  310MOL0     C41722  10.839   9.648   3.544  0.1946  0.1440  0.4268
  310MOL0     O41723  10.942   9.656   3.632  0.1027 -0.1727 -0.1751
  310MOL0     C41724  10.905   9.693   3.764 -0.0235 -0.5663 -1.1383
  310MOL0     C41725  11.042   9.706   3.836  0.5962  0.3713 -0.6026
  310MOL0     C41726  11.003   9.756   3.975 -0.4606 -0.1537 -0.3122
  310MOL0     C41727  11.118   9.738   4.072 -0.1941  0.2139 -0.5631
  310MOL0     C41728  11.131   9.854   4.164 -0.6178  0.4095 -0.7838
  310MOL0     C41729  11.184   9.979   4.091 -0.4597 -0.1172 -0.2442
  310MOL0     C41730  11.313   9.959   4.007 -1.1373 -0.0855  0.1813
  310MOL0     C41731  11.406  10.083   4.003  0.7338 -0.6895 -0.0068
  310MOL0     N41732  11.484  10.093   4.126  0.9547 -0.7251 -0.2163
  310MOL0     C41733  11.580  10.008   4.182 -1.0049 -0.6363  0.3879
  310MOL0     C41734  11.632  10.067   4.294 -0.3579  0.3986  1.1839
  310MOL0     C41735  11.747  10.010   4.377 -0.2602 -0.4085 -0.7471
  310MOL0     C41736  11.878  10.091   4.366  0.5566 -0.6784 -0.3016
  310MOL0     C41737  11.860  10.225   4.429  0.4675  0.1540 -0.5915
  310MOL0     C41738  11.982  10.317   4.424  0.2277 -0.1045 -0.1429
  310MOL0     O41739  12.093  10.262   4.492  0.1699  0.1443  0.0474
  310MOL0     C41740  12.109  10.274   4.631 -0.3195 -0.5488  0.1878
  310MOL0     C41741  12.237  10.255   4.684  1.0767  0.4380  0.3183
  310MOL0     C41742  12.257  10.273   4.824 -0.4754 -0.8330  0.0994
  310MOL0     C41743  12.153  10.290   4.919  0.0982 -0.1609  0.2620
  310MOL0     C41744  12.182  10.293   5.062 -1.0523 -0.3742  0.2452
  310MOL0     O41745  12.076  10.289   5.150 -0.1943  0.0617 -0.1892
  310MOL0     C41746  12.094  10.297   5.286 -0.0676  0.1048  0.1143
  310MOL0     C41747  12.194  10.362   5.362  0.3192  0.3765 -0.4146
  310MOL0     C41748  12.202  10.349   5.505  0.2983 -0.1549  0.0616
  310MOL0     C41749  12.099  10.284   5.576 -0.5922  0.1397  0.5956
  310MOL0     O41750  12.102  10.255   5.706 -0.1136  0.4782  0.7151
  310MOL0     C41751  12.156  10.357   5.786 -0.2625 -0.8130 -0.1252
  310MOL0     C41752  12.122  10.332   5.934 -0.4112 -0.2752  0.1044
  310MOL0     C41753  11.974  10.351   5.965  0.7060  0.5606  0.2025
  310MOL0     C41754  11.947  10.330   6.122  0.1579  0.5491 -0.2528
  310MOL0     C41755  11.801  10.350   6.157  0.7306  0.2670  0.2275
  310MOL0     C41756  11.780  10.336   6.312  0.5310  1.1799  0.1705
  310MOL0     C41757  11.636  10.294   6.332  0.2850  0.0563  0.2907
  310MOL0     C41758  11.581  10.332   6.466  0.4398 -0.4730  0.7782
  310MOL0    Cl41759  11.580  10.507   6.507 -0.2916  0.2093 -0.0267
  310MOL0     C41760  11.998  10.222   5.500  0.3159  0.1290 -0.7348
  310MOL0     C41761  11.998  10.225   5.363  0.4445  0.2646 -0.1031
  310MOL0     O41762  12.299  10.302   5.091 -0.0210 -0.0519 -0.6126
  310MOL0     C41763  12.026  10.318   4.869 -0.1284 -0.3942  0.1657
  310MOL0     C41764  12.012  10.315   4.726  0.4228  0.6431  0.0523
  310MOL0     N41765  11.548  10.182   4.326 -0.5095 -0.0608 -1.0562
  310MOL0     N41766  11.466  10.182   4.232  0.4113 -0.4478  0.4618
  310MOL0     C41767  10.875   9.609   3.415 -0.0448  0.0160 -1.0628
  310MOL0     C41768  10.764   9.577   3.332 -0.7513  0.1220  0.5022
  310MOL0     C41769  10.425   9.613   3.055  0.0623  0.6201 -0.2211
  310MOL0     C41770  10.423   9.711   2.951 -0.3493 -0.1250 -0.3706
  310MOL0     C41771  10.331   9.697   2.846 -0.0295  0.1612 -0.8352
  310MOL0     C41772  10.256   9.579   2.843 -0.1908 -0.2647 -0.3219
  310MOL0     O41773  10.184   9.580   2.725  0.4430 -0.1413  0.4469
  310MOL0     C41774  10.117   9.457   2.686 -0.4023 -0.9442  0.9712
  310MOL0     C41775   9.984   9.456   2.750 -0.0366 -0.6490 -0.3579
  310MOL0     C41776   9.925   9.320   2.734  0.3075 -0.0559  0.3832
  310MOL0     C41777   9.808   9.313   2.825 -0.7496  0.1071  0.9915
  310MOL0     C41778   9.847   9.246   2.944 -0.0687  0.7140  0.6810
  310MOL0     C41779   9.884   9.191   3.053 -0.1261  0.0233  0.3496
  310MOL0     C41780  10.261   9.479   2.934  0.0676 -0.1790 -0.6976
  310MOL0     C41781  10.351   9.491   3.043 -0.2248 -0.3152  0.7955
  310MOL0     C41782  10.358   9.373   3.131 -1.0384 -0.4479  0.3123
  310MOL0     H41783  10.504   9.651   3.533  0.2407  1.3086  0.0973
  310MOL0     H41784  10.686   9.720   3.674 -0.4922 -0.4798  0.3985
  310MOL0     H41785  10.861   9.793   3.775  0.4820 -0.3732 -0.8434
  310MOL0     H41786  10.845   9.614   3.808 -1.7418  0.3048 -1.8046
  310MOL0     H41787  11.116   9.774   3.793  1.3216 -1.0739 -1.7233
  310MOL0     H41788  11.089   9.608   3.840  2.1027  1.0868  2.3167
  310MOL0     H41789  10.923   9.695   4.019  0.8801 -2.3143 -0.7433
  310MOL0     H41790  10.976   9.862   3.969  0.0132  0.1353  1.7061
  310MOL0     H41791  11.088   9.647   4.126 -3.0588  0.0324 -2.2329
  310MOL0     H41792  11.215   9.725   4.024  1.0645  1.1921  1.5686
  310MOL0     H41793  11.048   9.884   4.228 -0.8444  0.4207 -1.0811
  310MOL0     H41794  11.207   9.827   4.238 -0.2935 -1.1965 -1.6705
  310MOL0     H41795  11.110  10.022   4.023 -2.1273 -0.6961  1.1238
  310MOL0     H41796  11.218  10.050   4.167 -0.2337  1.5043 -1.7958
  310MOL0     H41797  11.289   9.926   3.906  2.8236 -1.4899 -0.4995
  310MOL0     H41798  11.384   9.882   4.039  0.5768  1.5837  0.6589
  310MOL0     H41799  11.481  10.080   3.923 -2.2401 -3.7142 -3.0352
  310MOL0     H41800  11.348  10.175   3.990  0.5429 -0.2253  3.3479
  310MOL0     H41801  11.620   9.915   4.142  0.8286  1.0909 -2.0419
  310MOL0     H41802  11.708  10.014   4.479 -2.5366 -1.0408 -1.5371
  310MOL0     H41803  11.770   9.908   4.343  0.4942 -0.5617  0.1867
  310MOL0     H41804  11.957  10.035   4.416  3.2567  1.4461 -1.9022
  310MOL0     H41805  11.906  10.100   4.261 -2.9493  0.1626 -1.2995
  310MOL0     H41806  11.837  10.210   4.535  0.8240 -1.0208 -0.6692
  310MOL0     H41807  11.774  10.275   4.383  1.5971  3.2241  0.4043
  310MOL0     H41808  11.958  10.417   4.462  2.8191  1.9629 -3.3014
  310MOL0     H41809  12.012  10.327   4.319  0.7111 -0.9031 -0.0897
  310MOL0     H41810  12.320  10.231   4.619 -0.5009 -0.9606 -1.3070
  310MOL0     H41811  12.354  10.262   4.872 -1.4783  1.0887  2.8704
  310MOL0     H41812  12.278  10.407   5.310  0.6237 -0.1096 -0.3458
  310MOL0     H41813  12.285  10.396   5.557  0.2777  0.1423 -0.1750
  310MOL0     H41814  12.265  10.345   5.780 -0.1692  0.4463 -1.6548
  310MOL0     H41815  12.126  10.461   5.767  0.6115 -0.3590  0.8384
  310MOL0     H41816  12.152  10.228   5.948 -4.3846 -1.7516 -0.9143
  310MOL0     H41817  12.177  10.402   5.998  2.0896  0.9942 -3.1507
  310MOL0     H41818  11.937  10.451   5.942 -2.6652 -0.4500  0.6863
  310MOL0     H41819  11.904  10.290   5.907 -0.7313  2.0425  0.3008
  310MOL0     H41820  12.006  10.392   6.190 -1.7143  3.6710 -1.2928
  310MOL0     H41821  11.976  10.224   6.130 -0.0412  0.5563  0.5758
  310MOL0     H41822  11.743  10.276   6.100  1.1287 -0.1113  0.3110
  310MOL0     H41823  11.766  10.448   6.123 -2.2866 -0.7221  0.1219
  310MOL0     H41824  11.844  10.259   6.356 -3.1822  0.4366  5.1871
  310MOL0     H41825  11.795  10.431   6.364 -0.1505  1.4703 -0.1474
  310MOL0     H41826  11.621  10.187   6.315  1.8859 -0.4458  1.7150
  310MOL0     H41827  11.578  10.347   6.256  1.8936 -0.2658 -1.2549
  310MOL0     H41828  11.490  10.281   6.496  0.2280 -0.0741  0.8156
  310MOL0     H41829  11.657  10.290   6.533 -0.4370 -0.8716  1.5264
  310MOL0     H41830  11.922  10.168   5.554  1.0950 -0.1673  0.0861
  310MOL0     H41831  11.925  10.177   5.300  0.2755  0.1314  0.1955
  310MOL0     H41832  11.943  10.349   4.932 -0.4562 -2.2519  0.7217
  310MOL0     H41833  11.918  10.355   4.690  1.5647  1.8161 -1.7768
  310MOL0     H41834  10.973   9.574   3.383 -0.4219 -4.1251  1.5239
  310MOL0     H41835  10.792   9.541   3.233  1.8343  0.3772  1.0710
  310MOL0     H41836  10.489   9.798   2.949 -1.6705  0.9895  1.3145
  310MOL0     H41837  10.314   9.770   2.767  1.7023  1.7458  0.1820
  310MOL0     H41838  10.178   9.373   2.721 -1.3899 -2.1912 -0.1833
  310MOL0     H41839  10.112   9.446   2.577 -0.1850  0.9088  0.7460
  310MOL0     H41840   9.930   9.536   2.699  1.8416  2.3939  2.0591
  310MOL0     H41841   9.980   9.490   2.854 -0.8583  2.7661 -1.3957
  310MOL0     H41842   9.996   9.238   2.747 -1.2808 -2.0626 -2.3406
  310MOL0     H41843   9.894   9.311   2.629  2.4771  0.5864 -0.3610
  310MOL0     H41844   9.779   9.412   2.863 -0.6545  1.1735 -1.5326
  310MOL0     H41845   9.728   9.257   2.776  0.6584 -1.0081 -0.1097
  310MOL0     H41846   9.926   9.146   3.140 -0.2131  0.5865  0.6887
  310MOL0     H41847  10.192   9.395   2.939  0.1648 -0.2505 -0.5588
  310MOL0     H41848  10.307   9.288   3.085 -0.8673  0.0312 -0.8143
  310MOL0     H41849  10.464   9.350   3.145 -0.8950 -0.1215 -0.1872
  310MOL0     H41850  10.313   9.392   3.228  0.9569  2.1781  0.8515
  311MOL0     O41851   6.239   3.033   7.239  0.8249  0.5476  0.5854
  311MOL0     C41852   6.275   3.148   7.260  0.1370  0.4265 -0.2387
  311MOL0     O41853   6.391   3.181   7.312  0.2075 -1.4156  0.4022
  311MOL0     C41854   6.497   3.108   7.263 -0.1826 -0.5536 -0.1622
  311MOL0     C41855   6.575   3.161   7.157 -0.4238 -0.0237  0.9798
  311MOL0     C41856   6.696   3.097   7.125 -0.7210  0.8474  0.2654
  311MOL0     C41857   6.742   2.977   7.195 -0.8250  0.9111  0.6089
  311MOL0     O41858   6.862   2.915   7.158 -0.3852 -0.2613  0.5639
  311MOL0     C41859   6.885   2.786   7.217  0.1409  0.2676 -0.1319
  311MOL0     C41860   7.007   2.727   7.152 -0.3725  0.0115 -0.3089
  311MOL0     C41861   7.131   2.803   7.202  0.0905 -0.3658 -0.0135
  311MOL0     C41862   7.250   2.737   7.143 -0.5303  0.1677  0.4350
  311MOL0     C41863   7.375   2.776   7.217  0.3854 -0.7691 -0.2986
  311MOL0     C41864   7.495   2.705   7.154 -0.4848  0.7898 -0.4810
  311MOL0     C41865   7.631   2.734   7.223 -0.4346 -0.1387 -0.0600
  311MOL0     C41866   7.646   2.692   7.371  0.3147  0.5809 -0.4097
  311MOL0     N41867   7.781   2.725   7.409 -0.1340 -0.9390  0.7762
  311MOL0     C41868   7.844   2.856   7.410 -0.9062 -0.0063 -0.8074
  311MOL0     C41869   7.976   2.843   7.450 -0.3874  0.1864 -0.1804
  311MOL0     C41870   8.090   2.949   7.469 -0.2805  0.7097 -0.5248
  311MOL0     C41871   8.119   2.968   7.623 -0.9459 -0.1770 -0.1121
  311MOL0     C41872   8.162   2.842   7.700 -0.2050  0.2361 -0.1966
  311MOL0     C41873   8.234   2.882   7.827  0.1448  0.1186  0.3284
  311MOL0     O41874   8.290   2.770   7.890 -0.0693  0.3990 -0.2682
  311MOL0     C41875   8.390   2.777   7.984  0.2071  0.1693  0.2162
  311MOL0     C41876   8.453   2.658   8.027  0.3391 -0.3547  0.7306
  311MOL0     C41877   8.553   2.663   8.121 -0.7355 -0.6168  1.4787
  311MOL0     C41878   8.602   2.789   8.167 -0.4811  0.2716 -0.9493
  311MOL0     C41879   8.718   2.792   8.262 -0.4495  0.2884 -0.4340
  311MOL0     O41880   8.755   2.918   8.308  0.3007 -0.3356 -0.8667
  311MOL0     C41881   8.854   2.930   8.398 -0.3122 -0.2400  0.1088
  311MOL0     C41882   8.965   3.007   8.370 -0.6164  0.6206  0.1060
  311MOL0     C41883   9.069   3.020   8.466  0.0770  0.3356 -0.2441
  311MOL0     C41884   9.060   2.959   8.595  0.3321 -0.7549 -0.5064
  311MOL0     O41885   9.151   2.976   8.694 -0.0439 -0.1732  0.1743
  311MOL0     C41886   9.290   2.958   8.653  0.2264  0.2998  0.0635
  311MOL0     C41887   9.368   2.926   8.785 -0.2473  0.1499 -0.1349
  311MOL0     C41888   9.407   3.041   8.875 -0.2798 -0.4560  0.5572
  311MOL0     C41889   9.452   3.007   9.014  0.1045  0.3375  0.2968
  311MOL0     C41890   9.500   3.133   9.087 -0.4327 -0.2940 -0.2295
  311MOL0     C41891   9.608   3.101   9.194 -0.4220  0.8182 -1.0587
  311MOL0     C41892   9.654   3.231   9.257  0.2570  0.2205  0.0543
  311MOL0     C41893   9.677   3.204   9.401 -0.2712  0.5299 -0.1141
  311MOL0    Cl41894   9.780   3.338   9.460  0.3681  0.2910  0.2818
  311MOL0     C41895   8.935   2.886   8.617 -0.0901 -0.0991  0.5148
  311MOL0     C41896   8.842   2.869   8.518 -0.0220 -0.2960 -1.0911
  311MOL0     O41897   8.773   2.684   8.292  0.6839 -0.1953 -0.6195
  311MOL0     C41898   8.528   2.908   8.128 -0.0854  0.2689 -0.6581
  311MOL0     C41899   8.422   2.906   8.039 -0.7726  0.1469  0.5349
  311MOL0     N41900   7.991   2.704   7.452  0.4040  0.0744  0.0707
  311MOL0     N41901   7.880   2.640   7.430  0.3741  0.1873 -0.0904
  311MOL0     C41902   6.663   2.936   7.301 -0.9720  0.2377  0.3513
  311MOL0     C41903   6.543   3.005   7.341 -0.5109 -0.0920  0.0383
  311MOL0     C41904   6.170   3.256   7.271  0.4167  0.8184  0.0226
  311MOL0     C41905   6.045   3.211   7.316  0.8637 -1.0251  0.3028
  311MOL0     C41906   5.938   3.298   7.346 -0.3065 -0.1836 -0.6028
  311MOL0     C41907   5.956   3.434   7.328  0.6749 -0.0323 -0.0744
  311MOL0     O41908   5.854   3.511   7.379 -0.9339  0.4621  0.5595
  311MOL0     C41909   5.889   3.632   7.453 -0.3505  0.5738  0.2193
  311MOL0     C41910   5.851   3.755   7.365  0.5944  0.2112  0.3045
  311MOL0     C41911   5.703   3.793   7.378  0.8375 -0.0167 -0.5377
  311MOL0     C41912   5.623   3.698   7.294  0.0749 -0.7550  0.4652
  311MOL0     C41913   5.480   3.721   7.307 -0.3217 -0.0347  0.3874
  311MOL0     C41914   5.363   3.736   7.317  0.3840  0.0540  0.2679
  311MOL0     C41915   6.082   3.485   7.277  0.4124  0.0060  1.0065
  311MOL0     C41916   6.186   3.394   7.248 -0.5352  0.0560 -0.7932
  311MOL0     C41917   6.312   3.437   7.191  0.1349  0.2465  0.4793
  311MOL0     H41918   6.548   3.257   7.115 -0.4309  0.3726  1.8660
  311MOL0     H41919   6.756   3.143   7.047 -0.5311 -0.8696 -0.6514
  311MOL0     H41920   6.897   2.786   7.326 -0.5640 -0.1025 -0.0518
  311MOL0     H41921   6.801   2.721   7.190  0.4755 -0.5750  0.7980
  311MOL0     H41922   6.991   2.744   7.045  1.1087  1.1449 -0.3886
  311MOL0     H41923   7.028   2.621   7.170  4.5070  0.6921 -0.4705
  311MOL0     H41924   7.128   2.805   7.311 -0.9514  1.6003 -0.0461
  311MOL0     H41925   7.125   2.907   7.169  0.0373 -0.0548  0.9361
  311MOL0     H41926   7.232   2.629   7.146 -1.2428  0.2971  2.1422
  311MOL0     H41927   7.255   2.772   7.040 -4.2933  1.3387  0.4827
  311MOL0     H41928   7.391   2.884   7.217 -2.3840 -0.2985 -0.9718
  311MOL0     H41929   7.372   2.735   7.318  0.2717  1.1726  0.5367
  311MOL0     H41930   7.473   2.598   7.153  1.1723  0.4250  0.4233
  311MOL0     H41931   7.488   2.729   7.047  0.9092  1.1295 -0.5155
  311MOL0     H41932   7.645   2.842   7.214 -0.3313 -0.1042  0.5029
  311MOL0     H41933   7.707   2.693   7.156 -1.1207  1.4828 -1.9103
  311MOL0     H41934   7.562   2.733   7.428 -1.4335 -3.3441  0.2190
  311MOL0     H41935   7.629   2.585   7.387 -2.6763  1.0720  0.3585
  311MOL0     H41936   7.814   2.958   7.386  1.6322  0.7136 -1.2254
  311MOL0     H41937   8.180   2.927   7.410 -2.5787 -2.3262 -3.2487
  311MOL0     H41938   8.047   3.038   7.422 -0.9774 -1.4816 -4.4834
  311MOL0     H41939   8.188   3.051   7.637 -0.8279 -0.6108  2.3982
  311MOL0     H41940   8.027   3.000   7.673 -1.7302  1.7835 -2.6120
  311MOL0     H41941   8.232   2.786   7.637  0.3544  3.1332 -2.3300
  311MOL0     H41942   8.073   2.782   7.725 -0.8728  1.5536  0.7056
  311MOL0     H41943   8.161   2.925   7.896  0.1444 -0.3701  0.6320
  311MOL0     H41944   8.310   2.958   7.805  0.2491  0.5436  2.0368
  311MOL0     H41945   8.428   2.560   7.986  1.4572 -0.1854 -0.4136
  311MOL0     H41946   8.598   2.574   8.163 -0.0950  0.1958  2.5939
  311MOL0     H41947   8.974   3.054   8.273 -1.0339  2.6871  1.0038
  311MOL0     H41948   9.156   3.080   8.438  2.9716 -3.1643  0.5780
  311MOL0     H41949   9.312   2.872   8.589  0.1715  1.1005 -1.0536
  311MOL0     H41950   9.322   3.047   8.598 -1.5862  0.5031 -0.7457
  311MOL0     H41951   9.310   2.854   8.844  0.2225  0.7614  1.0978
  311MOL0     H41952   9.458   2.869   8.757  0.7194  0.8414  1.4104
  311MOL0     H41953   9.488   3.105   8.839 -1.7133  3.7044  3.8805
  311MOL0     H41954   9.323   3.110   8.883 -0.0305  0.0864 -1.1035
  311MOL0     H41955   9.532   2.932   9.014  0.0578  0.2783  0.8989
  311MOL0     H41956   9.365   2.968   9.068  2.8185 -2.0787  3.4412
  311MOL0     H41957   9.421   3.195   9.130 -0.5556 -0.2089 -0.5739
  311MOL0     H41958   9.553   3.196   9.015  0.9615  1.9258  2.5859
  311MOL0     H41959   9.563   3.041   9.274 -0.0565  0.0028 -1.4421
  311MOL0     H41960   9.689   3.044   9.147 -0.0867  1.1308 -0.8697
  311MOL0     H41961   9.571   3.303   9.259  0.9846  1.1051 -0.8302
  311MOL0     H41962   9.735   3.277   9.200 -0.2839  1.1563  0.0249
  311MOL0     H41963   9.584   3.197   9.459  0.4660 -3.0744  0.9011
  311MOL0     H41964   9.725   3.106   9.411  1.6039  1.4352  0.1613
  311MOL0     H41965   8.919   2.851   8.719  2.7087 -1.1220  0.6930
  311MOL0     H41966   8.745   2.825   8.538 -0.8097  0.6674 -2.6128
  311MOL0     H41967   8.547   3.005   8.173  0.6833 -0.4124  0.5292
  311MOL0     H41968   8.381   3.005   8.020  0.4240  0.3506 -1.2830
  311MOL0     H41969   6.691   2.849   7.360 -0.2313  0.0257 -0.2921
  311MOL0     H41970   6.490   2.976   7.430 -0.1927  0.7581  0.5185
  311MOL0     H41971   6.018   3.106   7.324  0.1195 -0.6946  2.9049
  311MOL0     H41972   5.844   3.255   7.378 -2.4459  2.6426 -2.5596
  311MOL0     H41973   5.991   3.656   7.485  0.5538 -0.0538 -1.9594
  311MOL0     H41974   5.821   3.631   7.538  0.6005  1.0606  0.9982
  311MOL0     H41975   5.888   3.747   7.263  2.8063  0.5073  1.0423
  311MOL0     H41976   5.896   3.838   7.420  0.9273  0.5538 -0.4774
  311MOL0     H41977   5.688   3.894   7.340 -0.3393 -0.7937 -2.2611
  311MOL0     H41978   5.667   3.783   7.481 -0.0485  0.5324 -0.7776
  311MOL0     H41979   5.656   3.712   7.191 -1.3920 -2.0586 -0.2318
  311MOL0     H41980   5.643   3.595   7.326  0.0812 -0.7035  0.6273
  311MOL0     H41981   5.257   3.752   7.312  0.6281  1.5403 -2.7591
  311MOL0     H41982   6.079   3.587   7.240 -2.4221 -0.7487 -1.2166
  311MOL0     H41983   6.330   3.370   7.106 -0.8588 -0.8451  1.0956
  311MOL0     H41984   6.301   3.539   7.152 -5.1234 -0.3496 -0.3849
  311MOL0     H41985   6.394   3.429   7.262  0.8049 -2.3223 -0.4707
  312MOL0     O41986   2.042   5.448   4.088 -0.2036 -0.5490  0.6402
  312MOL0     C41987   1.992   5.407   3.988 -0.4640 -0.0139 -0.4287
  312MOL0     O41988   2.057   5.398   3.865  0.2291 -0.0795  0.0911
  312MOL0     C41989   2.187   5.433   3.853 -0.2154  0.4667  0.2512
  312MOL0     C41990   2.216   5.477   3.719  0.6497  0.9557 -0.9192
  312MOL0     C41991   2.344   5.526   3.691  0.8698 -0.4119  0.1116
  312MOL0     C41992   2.441   5.514   3.793  0.3220 -0.4877 -0.5646
  312MOL0     O41993   2.566   5.565   3.768  0.6359 -0.8325 -0.0173
  312MOL0     C41994   2.656   5.486   3.689 -0.0011 -0.1881 -0.0331
  312MOL0     C41995   2.800   5.543   3.665 -0.0967  0.9057 -0.2256
  312MOL0     C41996   2.877   5.459   3.562  0.5471  0.4110  0.7079
  312MOL0     C41997   3.026   5.468   3.581 -0.3147 -0.1783  0.0923
  312MOL0     C41998   3.122   5.402   3.474 -0.3094  0.1839 -0.3612
  312MOL0     C41999   3.269   5.406   3.502  0.0354 -0.0730  0.4233
  312MOL0     C42000   3.323   5.551   3.500  0.1590 -0.1264  0.4655
  312MOL0     C42001   3.464   5.545   3.554 -0.5559  0.3825  0.5063
  312MOL0     N42002   3.554   5.462   3.469 -0.0800  1.0147 -0.2285
  312MOL0     C42003   3.578   5.469   3.335  0.5635  0.0430 -0.2979
  312MOL0     C42004   3.672   5.375   3.318 -0.5977  0.5977 -0.6557
  312MOL0     C42005   3.740   5.334   3.200 -0.8179  0.1951 -0.3051
  312MOL0     C42006   3.853   5.441   3.164 -0.6051 -0.7465  0.9698
  312MOL0     C42007   3.878   5.463   3.007  0.3345  0.2664 -0.0372
  312MOL0     C42008   4.010   5.418   2.958 -0.4768  0.2067 -0.3341
  312MOL0     O42009   4.119   5.485   3.027 -0.0683  0.4088  0.6647
  312MOL0     C42010   4.257   5.459   2.998 -0.2815 -0.5765 -1.0590
  312MOL0     C42011   4.309   5.352   2.921 -0.0903  0.3020  0.1498
  312MOL0     C42012   4.435   5.325   2.899  0.0335 -0.1964  1.2171
  312MOL0     C42013   4.531   5.411   2.955  0.2539  0.2295  0.6768
  312MOL0     C42014   4.674   5.398   2.939 -0.2588  0.4336  0.3663
  312MOL0     O42015   4.765   5.490   2.985  0.1660 -0.2625 -0.0127
  312MOL0     C42016   4.896   5.462   2.964 -0.0518 -0.0031  0.1562
  312MOL0     C42017   4.974   5.542   2.881  0.8218  0.5818  0.6218
  312MOL0     C42018   5.103   5.511   2.851 -0.2722  0.0268  0.5888
  312MOL0     C42019   5.164   5.386   2.894  0.3237  0.8891  0.0264
  312MOL0     O42020   5.293   5.340   2.852  0.5384 -0.2757  0.0488
  312MOL0     C42021   5.364   5.421   2.761  0.1887  0.2572 -0.0585
  312MOL0     C42022   5.480   5.345   2.700 -0.4072 -0.0337  0.5820
  312MOL0     C42023   5.601   5.297   2.779  0.0154  0.7429 -0.4558
  312MOL0     C42024   5.658   5.407   2.866 -0.4096 -0.2820  0.0526
  312MOL0     C42025   5.798   5.373   2.925 -0.6671  0.0293  0.1324
  312MOL0     C42026   5.917   5.442   2.848 -0.1755 -0.1280 -0.0310
  312MOL0     C42027   6.057   5.427   2.907 -0.5454  0.1439 -0.0362
  312MOL0     C42028   6.120   5.292   2.891  0.7331  0.4471 -0.3933
  312MOL0    Cl42029   6.223   5.288   2.751 -0.4573 -0.3654  0.2628
  312MOL0     C42030   5.088   5.308   2.975  0.5283 -0.3695 -0.0756
  312MOL0     C42031   4.951   5.343   3.012 -1.0913 -0.2490  0.2713
  312MOL0     O42032   4.710   5.287   2.883  0.4987  0.2301 -0.2301
  312MOL0     C42033   4.488   5.525   3.027  0.7044  0.5925 -0.2416
  312MOL0     C42034   4.352   5.554   3.045 -0.4555 -0.8578 -0.0331
  312MOL0     N42035   3.710   5.318   3.439 -0.2273  0.9721  0.7924
  312MOL0     N42036   3.638   5.365   3.527 -0.4520 -0.2129  0.2631
  312MOL0     C42037   2.415   5.461   3.919  1.0919 -0.8570 -0.1297
  312MOL0     C42038   2.287   5.416   3.947 -0.8294  0.4973 -1.0103
  312MOL0     C42039   1.848   5.370   3.999  0.2079  0.0455  0.0428
  312MOL0     C42040   1.788   5.316   3.882 -0.2579 -0.0237  0.4107
  312MOL0     C42041   1.647   5.295   3.877  0.4753 -0.3877 -0.4044
  312MOL0     C42042   1.558   5.311   3.984  1.1517 -0.2408 -0.0661
  312MOL0     O42043   1.424   5.282   3.964 -0.2830  0.3221  0.7283
  312MOL0     C42044   1.349   5.242   4.078  0.6233  0.3285  1.3588
  312MOL0     C42045   1.283   5.365   4.130  0.0550  0.5717  0.2952
  312MOL0     C42046   1.245   5.351   4.277 -0.4341 -0.1786  1.5517
  312MOL0     C42047   1.155   5.227   4.297  0.4627 -0.0661 -0.2536
  312MOL0     C42048   1.031   5.234   4.222 -0.0304  0.1380 -0.6083
  312MOL0     C42049   0.934   5.245   4.150 -0.6869  0.5161 -0.0132
  312MOL0     C42050   1.618   5.355   4.100 -0.4325  0.3797  0.1476
  312MOL0     C42051   1.758   5.383   4.116  0.4870  0.3238  0.5757
  312MOL0     C42052   1.796   5.422   4.249 -0.0403 -0.7177 -0.1285
  312MOL0     H42053   2.143   5.482   3.639  1.2646  1.0896 -1.4817
  312MOL0     H42054   2.373   5.576   3.599 -0.1056  1.8042  0.9394
  312MOL0     H42055   2.663   5.387   3.733  0.6134 -1.5141 -2.8953
  312MOL0     H42056   2.612   5.470   3.591  4.5291  0.0710 -2.3781
  312MOL0     H42057   2.845   5.520   3.762 -2.5319  0.7538  0.9363
  312MOL0     H42058   2.807   5.652   3.650  3.7115  1.0043  1.1512
  312MOL0     H42059   2.854   5.494   3.461  0.3641 -1.0993  0.1931
  312MOL0     H42060   2.838   5.357   3.558  1.3650  0.1155 -0.9593
  312MOL0     H42061   3.045   5.575   3.599 -2.3267  0.4204 -1.0512
  312MOL0     H42062   3.050   5.416   3.674 -2.6377 -0.3101  0.6950
  312MOL0     H42063   3.111   5.296   3.448 -0.2328 -0.2364  1.2277
  312MOL0     H42064   3.098   5.453   3.380  1.9844 -1.5333 -2.0080
  312MOL0     H42065   3.290   5.363   3.600  0.5206  1.3270  0.9543
  312MOL0     H42066   3.321   5.343   3.429  0.3490 -0.6072  1.0896
  312MOL0     H42067   3.269   5.620   3.566  0.2531  1.4856 -1.0950
  312MOL0     H42068   3.314   5.594   3.400 -1.5785  0.5223  0.8602
  312MOL0     H42069   3.494   5.649   3.566 -2.1024  0.8676  0.4502
  312MOL0     H42070   3.459   5.508   3.657 -2.0667 -2.1983 -0.3919
  312MOL0     H42071   3.538   5.531   3.256 -1.0865 -0.6497 -0.0349
  312MOL0     H42072   3.782   5.233   3.204 -0.2327  0.4118 -0.8425
  312MOL0     H42073   3.657   5.330   3.128  0.0154 -1.1501 -1.2514
  312MOL0     H42074   3.826   5.543   3.193  0.4102  0.7987 -2.9177
  312MOL0     H42075   3.946   5.402   3.206 -0.8019  0.0699  2.2435
  312MOL0     H42076   3.867   5.566   2.972 -0.1250  0.8232  1.6565
  312MOL0     H42077   3.799   5.409   2.953  0.2728 -1.2028  1.4581
  312MOL0     H42078   4.018   5.443   2.852  0.9427  3.1182  0.3490
  312MOL0     H42079   4.021   5.309   2.965 -0.2056  0.1545 -1.3373
  312MOL0     H42080   4.243   5.285   2.866 -0.0101  0.0619  0.3438
  312MOL0     H42081   4.470   5.240   2.842  1.2682 -1.8760  4.2526
  312MOL0     H42082   4.928   5.631   2.838  0.3417 -0.3295 -0.8232
  312MOL0     H42083   5.162   5.583   2.795 -0.8426  1.1472  1.3782
  312MOL0     H42084   5.299   5.445   2.676  1.0224 -3.3832 -1.9335
  312MOL0     H42085   5.403   5.507   2.816  2.3343 -2.7573  3.5904
  312MOL0     H42086   5.436   5.252   2.662 -1.3483  0.9927 -0.9638
  312MOL0     H42087   5.511   5.402   2.611 -1.4107 -1.5658 -0.8148
  312MOL0     H42088   5.564   5.218   2.845  0.4560  0.5072 -0.4896
  312MOL0     H42089   5.681   5.252   2.720  2.2299  0.4466  2.5298
  312MOL0     H42090   5.601   5.419   2.959  0.0884 -0.0455  0.3323
  312MOL0     H42091   5.666   5.504   2.815 -0.6747 -1.2837 -1.9765
  312MOL0     H42092   5.805   5.263   2.923 -0.2630 -0.0373  2.2671
  312MOL0     H42093   5.800   5.395   3.032  1.0535  0.7170 -0.0106
  312MOL0     H42094   5.914   5.410   2.743  0.3011  1.8459 -0.6948
  312MOL0     H42095   5.890   5.548   2.852 -0.3678 -0.1687 -0.2285
  312MOL0     H42096   6.059   5.470   3.007  0.1986  0.0037  0.0193
  312MOL0     H42097   6.123   5.503   2.864 -0.5567  1.3375  1.9557
  312MOL0     H42098   6.179   5.253   2.974  0.9997 -1.9532 -1.6119
  312MOL0     H42099   6.045   5.217   2.863  2.2341 -1.4683  0.5054
  312MOL0     H42100   5.115   5.203   2.989  0.6450 -0.3181  0.0847
  312MOL0     H42101   4.895   5.274   3.075 -1.1082  1.9726  2.9036
  312MOL0     H42102   4.570   5.593   3.048  0.5229  1.6626 -2.7235
  312MOL0     H42103   4.303   5.641   3.088  1.9985 -0.6126  2.5506
  312MOL0     H42104   2.486   5.469   4.001  1.9517  1.4969 -1.0315
  312MOL0     H42105   2.266   5.375   4.046  0.0419  2.2010 -0.0765
  312MOL0     H42106   1.841   5.310   3.788  1.8711 -0.4840  1.5712
  312MOL0     H42107   1.593   5.284   3.783 -1.6863  2.2418  0.3789
  312MOL0     H42108   1.416   5.193   4.149 -0.8377 -1.3542  1.6736
  312MOL0     H42109   1.269   5.173   4.047  2.2419 -0.9464 -0.1658
  312MOL0     H42110   1.194   5.390   4.072  0.5536 -0.0665 -0.7716
  312MOL0     H42111   1.347   5.451   4.111  1.7159 -1.0551 -2.1340
  312MOL0     H42112   1.202   5.443   4.317  1.2564  0.9816  0.8177
  312MOL0     H42113   1.337   5.342   4.335  0.5514  0.4721  0.1428
  312MOL0     H42114   1.217   5.139   4.278 -1.4668 -1.5265 -0.1126
  312MOL0     H42115   1.121   5.218   4.400  0.9718 -2.6169 -0.2309
  312MOL0     H42116   0.839   5.249   4.100  0.1497 -0.5172 -1.7725
  312MOL0     H42117   1.555   5.376   4.186 -0.0300 -0.9438  0.7901
  312MOL0     H42118   1.759   5.348   4.320 -2.4033 -0.1036 -0.6525
  312MOL0     H42119   1.905   5.429   4.257 -0.0841 -0.1625  0.0329
  312MOL0     H42120   1.760   5.522   4.274 -1.0597 -1.2640  0.6424
  313MOL0     O42121   0.663   6.915   0.365  0.8119  0.3646  0.4492
  313MOL0     C42122   0.609   6.988   0.451  0.3084 -0.9114 -0.2883
  313MOL0     O42123   0.662   7.010   0.577 -0.5219 -0.0139 -0.1267
  313MOL0     C42124   0.792   6.961   0.607  1.1727 -0.1877 -0.7364
  313MOL0     C42125   0.904   6.965   0.530  0.0835 -0.0667  0.6754
  313MOL0     C42126   1.026   6.921   0.575  0.2726  0.2103 -0.2141
  313MOL0     C42127   1.036   6.871   0.702 -0.2675 -0.4730 -0.0935
  313MOL0     O42128   1.154   6.820   0.754  0.9815 -0.3144 -0.4435
  313MOL0     C42129   1.271   6.837   0.679 -1.9860 -0.2550 -0.1592
  313MOL0     C42130   1.296   6.712   0.592 -0.4564  0.0371  0.7189
  313MOL0     C42131   1.426   6.632   0.625 -0.0399 -0.8958  0.8593
  313MOL0     C42132   1.447   6.515   0.526 -0.8958  0.0864 -0.0091
  313MOL0     C42133   1.594   6.483   0.528  0.8300 -0.6841 -0.3275
  313MOL0     C42134   1.671   6.559   0.423  0.1928  0.3800  0.0049
  313MOL0     C42135   1.826   6.539   0.431  0.6669 -0.0083  0.2087
  313MOL0     C42136   1.911   6.634   0.335 -0.2571  0.2553  0.4511
  313MOL0     N42137   2.053   6.597   0.336 -0.4927 -0.3765  0.6144
  313MOL0     C42138   2.127   6.548   0.436  0.6319  0.5443  1.3756
  313MOL0     C42139   2.245   6.537   0.380 -0.6111 -0.1832 -0.1621
  313MOL0     C42140   2.363   6.470   0.448 -0.5147  0.3495  0.1616
  313MOL0     C42141   2.339   6.324   0.470  0.1856  0.1257 -0.1466
  313MOL0     C42142   2.310   6.231   0.352  0.3305  0.2027 -1.1115
  313MOL0     C42143   2.427   6.204   0.260 -0.2984  0.1284 -0.1472
  313MOL0     O42144   2.538   6.147   0.333 -0.7024 -0.8344 -0.5227
  313MOL0     C42145   2.656   6.183   0.277 -0.1165  0.0193  1.0412
  313MOL0     C42146   2.729   6.087   0.201 -1.1043 -0.7867  0.5747
  313MOL0     C42147   2.856   6.129   0.145 -0.0274 -0.6830  0.7194
  313MOL0     C42148   2.898   6.266   0.162 -1.0728  0.8350 -0.0077
  313MOL0     C42149   3.020   6.313   0.097  0.7961  0.9528  0.3111
  313MOL0     O42150   3.088   6.415   0.143 -0.1859 -0.5761 -0.3696
  313MOL0     C42151   3.217   6.452   0.100  0.7241 -0.5192  0.4912
  313MOL0     C42152   3.314   6.481   0.196  0.1277 -0.3001 -0.8507
  313MOL0     C42153   3.444   6.496   0.165  0.1971 -0.4850  0.2864
  313MOL0     C42154   3.485   6.486   0.031 -0.5484 -0.1295  0.0592
  313MOL0     O42155   3.616   6.510  -0.003  0.2998 -0.5914 -0.1327
  313MOL0     C42156   3.723   6.488   0.087 -0.6013 -0.2778  0.3260
  313MOL0     C42157   3.851   6.512  -0.000 -0.5228  1.3635  0.1274
  313MOL0     C42158   3.979   6.491   0.082  0.0824  0.1704  0.2291
  313MOL0     C42159   4.008   6.346   0.088  0.5939  0.4387 -0.1783
  313MOL0     C42160   4.105   6.302   0.201 -0.1729 -0.2854  1.9700
  313MOL0     C42161   4.251   6.338   0.169  0.8377  0.1189  0.4187
  313MOL0     C42162   4.313   6.235   0.073  0.1665 -0.3981  0.5293
  313MOL0     C42163   4.446   6.286   0.023 -0.5128  0.6527  0.6610
  313MOL0    Cl42164   4.571   6.336   0.151  0.7273  0.3666 -0.0254
  313MOL0     C42165   3.389   6.472  -0.074  0.4352  0.2664 -0.2825
  313MOL0     C42166   3.255   6.457  -0.038 -0.4779 -0.3038 -0.4140
  313MOL0     O42167   3.044   6.257  -0.010 -0.5259 -0.1511  0.3456
  313MOL0     C42168   2.830   6.353   0.249  0.1509 -0.8977  0.3001
  313MOL0     C42169   2.704   6.311   0.299 -0.8685 -0.4025 -0.2828
  313MOL0     N42170   2.245   6.587   0.246 -0.1243  0.9712  0.1045
  313MOL0     N42171   2.126   6.611   0.219  0.1072 -0.2043 -0.5129
  313MOL0     C42172   0.924   6.854   0.784  0.3956 -0.0641 -0.2633
  313MOL0     C42173   0.802   6.907   0.738  0.4554 -0.6186 -0.5830
  313MOL0     C42174   0.470   7.043   0.426 -0.8334 -0.2710 -0.0710
  313MOL0     C42175   0.409   7.121   0.529 -0.5120  0.9057  0.1437
  313MOL0     C42176   0.281   7.166   0.528 -1.2431  0.6352  0.1743
  313MOL0     C42177   0.208   7.142   0.414  0.3970 -0.7460  0.2491
  313MOL0     O42178   0.087   7.210   0.415  0.7394  0.0741  0.1011
  313MOL0     C42179   0.021   7.251   0.291 -0.1375 -0.2125  0.5445
  313MOL0     C42180  -0.059   7.139   0.213  0.1120 -0.8289  0.2586
  313MOL0     C42181  -0.199   7.194   0.172  0.2566 -0.8147  0.5441
  313MOL0     C42182  -0.274   7.070   0.119 -0.4471  0.1825 -0.5820
  313MOL0     C42183  -0.327   6.984   0.232  0.0842 -0.1076 -0.2413
  313MOL0     C42184  -0.376   6.910   0.316 -0.1012  0.7597  0.1168
  313MOL0     C42185   0.263   7.083   0.301  0.4224 -0.4742 -0.0467
  313MOL0     C42186   0.392   7.025   0.312 -0.0619  0.3760  0.6667
  313MOL0     C42187   0.444   6.959   0.183 -0.6904  0.0661 -0.1947
  313MOL0     H42188   0.897   6.998   0.427  1.0822  1.1278  0.9560
  313MOL0     H42189   1.102   6.923   0.497  1.0923  2.2811  0.5665
  313MOL0     H42190   1.282   6.934   0.629 -0.2169  0.9926  2.3891
  313MOL0     H42191   1.353   6.845   0.750 -2.8705  1.9864  0.7100
  313MOL0     H42192   1.316   6.753   0.492 -2.1545  2.0944  1.1492
  313MOL0     H42193   1.208   6.649   0.581 -1.7240  2.0705 -2.2547
  313MOL0     H42194   1.421   6.602   0.730 -3.5200 -3.3987  0.1427
  313MOL0     H42195   1.506   6.704   0.604 -1.5929  0.1679 -1.8703
  313MOL0     H42196   1.382   6.429   0.546 -2.2533  0.9536 -0.6143
  313MOL0     H42197   1.427   6.547   0.424  0.7575  4.7215  0.8970
  313MOL0     H42198   1.632   6.480   0.631 -2.0970 -0.1343  0.8732
  313MOL0     H42199   1.610   6.381   0.490  1.8332  0.2288 -2.4889
  313MOL0     H42200   1.628   6.531   0.327 -3.7713  0.4338  1.5890
  313MOL0     H42201   1.653   6.667   0.425  1.0498  0.5550 -0.8837
  313MOL0     H42202   1.841   6.436   0.397 -2.0956 -0.0702 -1.0713
  313MOL0     H42203   1.865   6.548   0.533 -0.3705  1.0201  0.5297
  313MOL0     H42204   1.877   6.633   0.231 -0.7496  1.3405  0.5951
  313MOL0     H42205   1.910   6.730   0.387  2.2087  0.1181  0.8870
  313MOL0     H42206   2.091   6.521   0.535 -0.5552 -1.8785  0.3619
  313MOL0     H42207   2.453   6.479   0.386 -0.4559 -3.3476 -0.4986
  313MOL0     H42208   2.382   6.523   0.542 -2.6715  0.0947  0.7925
  313MOL0     H42209   2.428   6.287   0.522 -0.7954  0.8101  2.1615
  313MOL0     H42210   2.250   6.307   0.533 -0.5276  0.7088 -0.9796
  313MOL0     H42211   2.233   6.278   0.291 -0.1500  2.0174  0.7875
  313MOL0     H42212   2.278   6.133   0.390  0.3444  1.2239  1.7853
  313MOL0     H42213   2.458   6.291   0.201  3.9796 -1.7423 -1.0962
  313MOL0     H42214   2.389   6.127   0.193 -1.4848 -0.4136  1.1084
  313MOL0     H42215   2.685   5.989   0.184  0.8745 -1.2295 -2.9242
  313MOL0     H42216   2.917   6.058   0.089 -0.9409 -0.2004 -0.9616
  313MOL0     H42217   3.299   6.472   0.303 -1.7490  0.4271 -1.0178
  313MOL0     H42218   3.517   6.507   0.244  0.1161 -0.6237  0.3809
  313MOL0     H42219   3.730   6.562   0.167  3.2706  3.3593 -2.9070
  313MOL0     H42220   3.712   6.386   0.125 -2.4720  0.0473  0.7389
  313MOL0     H42221   3.843   6.441  -0.083 -0.5499  0.5894  0.7892
  313MOL0     H42222   3.859   6.618  -0.026 -0.5277  2.0490  2.7167
  313MOL0     H42223   4.063   6.541   0.033  0.6783 -0.1435  0.9027
  313MOL0     H42224   3.955   6.527   0.183 -0.6803  0.2074  0.0394
  313MOL0     H42225   4.038   6.304  -0.009 -1.1326 -0.7354 -0.2394
  313MOL0     H42226   3.911   6.298   0.097  0.4592  0.6187 -0.6301
  313MOL0     H42227   4.110   6.195   0.221  1.1813 -0.6449 -0.0618
  313MOL0     H42228   4.081   6.358   0.292  1.3030  0.2109  2.0820
  313MOL0     H42229   4.253   6.439   0.129 -2.7431  0.1770  0.0289
  313MOL0     H42230   4.305   6.348   0.264  1.2265  0.7805  0.1319
  313MOL0     H42231   4.251   6.229  -0.016 -1.2206 -2.1371  1.5512
  313MOL0     H42232   4.327   6.140   0.127 -0.0400 -0.3058  0.7486
  313MOL0     H42233   4.487   6.214  -0.047 -0.1779  0.6761  0.8295
  313MOL0     H42234   4.421   6.370  -0.043 -0.4317 -0.7612 -1.2510
  313MOL0     H42235   3.421   6.459  -0.177 -1.3885  1.4243 -1.0332
  313MOL0     H42236   3.174   6.438  -0.108 -1.6726  0.7931  0.6121
  313MOL0     H42237   2.861   6.453   0.277 -0.4258  0.2001 -2.6200
  313MOL0     H42238   2.654   6.385   0.360  1.9813  2.4426 -1.0960
  313MOL0     H42239   0.938   6.804   0.879  0.2474 -0.0339 -0.2255
  313MOL0     H42240   0.721   6.896   0.810  2.0224 -3.5782  0.9084
  313MOL0     H42241   0.458   7.131   0.626 -0.1713 -2.3801  0.4539
  313MOL0     H42242   0.242   7.209   0.620  1.0531 -1.5523  2.3177
  313MOL0     H42243   0.097   7.294   0.225  1.3450  0.5919  2.6407
  313MOL0     H42244  -0.050   7.329   0.322 -1.0144 -1.7800  2.7821
  313MOL0     H42245  -0.069   7.046   0.270 -0.8256 -1.1523 -0.4043
  313MOL0     H42246  -0.006   7.119   0.119 -0.9341  3.2181 -1.4110
  313MOL0     H42247  -0.208   7.270   0.093 -2.8216 -1.3496  0.2537
  313MOL0     H42248  -0.249   7.234   0.260 -0.2550  0.0278 -0.1085
  313MOL0     H42249  -0.366   7.093   0.065  0.4787  2.0329 -1.4658
  313MOL0     H42250  -0.217   7.008   0.050  0.0980 -4.0026  3.1422
  313MOL0     H42251  -0.423   6.847   0.388 -0.0864  1.5676  0.8515
  313MOL0     H42252   0.211   7.056   0.209 -1.5002  1.2230  0.4739
  313MOL0     H42253   0.532   7.013   0.148 -1.2943  0.7298 -0.7321
  313MOL0     H42254   0.472   6.854   0.194 -0.6250  0.3277  2.8517
  313MOL0     H42255   0.374   6.963   0.098  0.2997  1.0962 -0.9920
  314MOL0     O42256   9.701   0.063   6.744 -0.5877  0.2659  0.2007
  314MOL0     C42257   9.641   0.008   6.656 -0.6179 -0.7102  0.0247
  314MOL0     O42258   9.686  -0.064   6.558 -0.6551 -0.7033  0.3060
  314MOL0     C42259   9.815  -0.090   6.527  0.0888 -0.1293  0.2521
  314MOL0     C42260   9.936  -0.026   6.572 -0.2693 -0.2422 -0.3016
  314MOL0     C42261  10.066  -0.062   6.539 -0.3132 -0.5674  0.3231
  314MOL0     C42262  10.078  -0.176   6.461 -0.4119  0.0939 -1.4069
  314MOL0     O42263  10.197  -0.225   6.422 -0.3579 -0.2208 -0.5229
  314MOL0     C42264  10.325  -0.177   6.488 -0.4589 -0.0692 -0.8589
  314MOL0     C42265  10.441  -0.248   6.418 -0.2568  0.5273  0.9799
  314MOL0     C42266  10.574  -0.224   6.493 -0.7969  0.3324  0.1679
  314MOL0     C42267  10.694  -0.256   6.404  0.2102  0.7556 -0.6459
  314MOL0     C42268  10.807  -0.295   6.506 -0.0339 -0.7880  0.0009
  314MOL0     C42269  10.950  -0.295   6.440  1.6363  1.3543 -0.6020
  314MOL0     C42270  11.007  -0.155   6.409 -1.3280  0.1383  0.3170
  314MOL0     C42271  11.112  -0.156   6.297 -0.2813 -0.5682  0.1922
  314MOL0     N42272  11.213  -0.260   6.302 -0.4430 -0.4141 -0.5988
  314MOL0     C42273  11.208  -0.378   6.224  0.4767 -0.3662  0.2027
  314MOL0     C42274  11.306  -0.455   6.281  0.3894  0.1192 -0.4771
  314MOL0     C42275  11.340  -0.592   6.246 -0.2335  0.6182 -0.0173
  314MOL0     C42276  11.387  -0.597   6.106 -0.2971 -0.5920 -0.0953
  314MOL0     C42277  11.446  -0.732   6.062 -0.5235 -0.1718 -0.4740
  314MOL0     C42278  11.501  -0.721   5.919 -0.4563  0.6981 -0.1547
  314MOL0     O42279  11.573  -0.839   5.871 -0.2759  0.1146 -0.6356
  314MOL0     C42280  11.490  -0.942   5.841 -0.1473  0.2302  0.2200
  314MOL0     C42281  11.351  -0.934   5.812  0.6393  0.2976  0.0598
  314MOL0     C42282  11.277  -1.041   5.749 -0.3082  0.0841 -0.0614
  314MOL0     C42283  11.341  -1.165   5.744  0.4187 -0.3247 -0.1840
  314MOL0     C42284  11.263  -1.277   5.699  0.2355  0.0657  0.2793
  314MOL0     O42285  11.134  -1.259   5.666 -0.2025 -0.0174  0.0055
  314MOL0     C42286  11.075  -1.371   5.620  0.4608  0.1142 -0.9493
  314MOL0     C42287  10.980  -1.426   5.708  0.4904 -0.1265 -0.0587
  314MOL0     C42288  10.879  -1.510   5.664  0.0044  0.5157 -0.1769
  314MOL0     C42289  10.876  -1.551   5.530  0.5365  0.1879  0.1752
  314MOL0     O42290  10.773  -1.633   5.487  0.2011 -0.0293  0.0923
  314MOL0     C42291  10.700  -1.593   5.368 -0.4789 -0.3569  0.0257
  314MOL0     C42292  10.575  -1.675   5.360  0.4624  0.2207  0.0295
  314MOL0     C42293  10.514  -1.666   5.219 -0.4747  0.2147  0.1756
  314MOL0     C42294  10.546  -1.797   5.151  0.1295  0.1749  0.3627
  314MOL0     C42295  10.490  -1.788   5.006 -0.2847 -0.3723  0.0376
  314MOL0     C42296  10.344  -1.835   4.995  0.0119  0.4083  0.6971
  314MOL0     C42297  10.297  -1.829   4.848 -0.9040 -1.2673  0.0584
  314MOL0     C42298  10.147  -1.871   4.833 -0.0799 -1.2921 -0.5430
  314MOL0    Cl42299  10.113  -2.032   4.892  0.0106 -0.2295 -0.0384
  314MOL0     C42300  10.980  -1.505   5.444 -0.1648  0.4668  0.1683
  314MOL0     C42301  11.077  -1.414   5.488 -0.0921  0.1558  0.0763
  314MOL0     O42302  11.326  -1.391   5.697  0.1589 -0.0592  0.0246
  314MOL0     C42303  11.481  -1.173   5.775  0.0944  0.0869 -0.3325
  314MOL0     C42304  11.552  -1.065   5.821 -0.5260  0.2076 -0.6950
  314MOL0     N42305  11.345  -0.386   6.393 -0.9656 -0.3238 -0.2969
  314MOL0     N42306  11.302  -0.261   6.398  0.3446 -0.1895  0.3630
  314MOL0     C42307   9.965  -0.251   6.426 -0.0565  0.3688 -0.1960
  314MOL0     C42308   9.839  -0.210   6.458  0.2314 -0.7691  0.1776
  314MOL0     C42309   9.492   0.011   6.650  0.7436 -0.6920 -0.6427
  314MOL0     C42310   9.412  -0.099   6.600 -0.8042 -0.0792  0.1717
  314MOL0     C42311   9.272  -0.098   6.597 -0.1454 -0.3169  0.4193
  314MOL0     C42312   9.196   0.007   6.657  0.3356  0.2656 -0.4145
  314MOL0     O42313   9.063   0.009   6.685  0.4245  0.1496 -0.5455
  314MOL0     C42314   8.970  -0.063   6.604 -0.0361 -0.2190  0.1958
  314MOL0     C42315   8.829  -0.007   6.614 -0.2418 -0.5842 -0.6409
  314MOL0     C42316   8.779  -0.021   6.758 -0.2418  0.1324 -0.1641
  314MOL0     C42317   8.632   0.015   6.773 -0.2477  0.2084  0.0772
  314MOL0     C42318   8.546  -0.091   6.716  0.3814  0.3464 -0.6684
  314MOL0     C42319   8.483  -0.181   6.661  1.2086  0.3082 -0.1464
  314MOL0     C42320   9.273   0.113   6.706 -0.2307  0.1738  0.0160
  314MOL0     C42321   9.416   0.128   6.697 -0.3320 -0.0940  0.0770
  314MOL0     C42322   9.487   0.251   6.749 -0.0535  0.7085 -0.5290
  314MOL0     H42323   9.931   0.066   6.631  1.6990  0.1313 -0.6571
  314MOL0     H42324  10.149  -0.001   6.573  0.1865 -1.3252  0.4907
  314MOL0     H42325  10.338  -0.068   6.490  0.0183 -0.1397 -0.2696
  314MOL0     H42326  10.340  -0.216   6.588  4.4168  1.3876 -0.7860
  314MOL0     H42327  10.449  -0.213   6.315 -2.3497 -2.5013 -0.3585
  314MOL0     H42328  10.429  -0.357   6.408  0.2790  0.5463  0.0987
  314MOL0     H42329  10.568  -0.280   6.587  0.8616  0.1512  0.1939
  314MOL0     H42330  10.588  -0.121   6.525  1.7378 -0.3890  1.6981
  314MOL0     H42331  10.661  -0.345   6.349 -0.3267 -1.0546  2.3198
  314MOL0     H42332  10.720  -0.176   6.335 -0.5668  1.4306 -0.1759
  314MOL0     H42333  10.810  -0.225   6.589  0.8604  0.2819 -0.8950
  314MOL0     H42334  10.770  -0.390   6.545 -2.0777 -0.8755 -1.8796
  314MOL0     H42335  11.016  -0.346   6.511  2.0066  1.1392 -1.0984
  314MOL0     H42336  10.947  -0.357   6.350 -3.0348 -0.3429  0.4366
  314MOL0     H42337  11.054  -0.111   6.497 -0.0042 -1.6826  0.5778
  314MOL0     H42338  10.929  -0.086   6.375 -0.8172  0.6047  0.0687
  314MOL0     H42339  11.063  -0.168   6.200  1.9238 -0.6920 -0.9564
  314MOL0     H42340  11.172  -0.065   6.295  0.5186 -1.0481  1.3844
  314MOL0     H42341  11.137  -0.397   6.144 -1.3447 -1.2534  1.9400
  314MOL0     H42342  11.423  -0.636   6.303  1.2924 -0.1019 -2.6265
  314MOL0     H42343  11.253  -0.658   6.257 -0.6601  1.5134  2.6979
  314MOL0     H42344  11.307  -0.565   6.040 -1.9466 -2.8293  0.6948
  314MOL0     H42345  11.465  -0.522   6.090 -0.3132 -0.7938 -1.2090
  314MOL0     H42346  11.371  -0.812   6.060 -1.5518  0.3995  4.1325
  314MOL0     H42347  11.524  -0.766   6.130 -1.5448 -0.9054  0.3806
  314MOL0     H42348  11.568  -0.635   5.918  0.4540  0.0147 -1.7693
  314MOL0     H42349  11.430  -0.690   5.842 -1.5430  0.9022  0.9038
  314MOL0     H42350  11.286  -0.847   5.819 -3.0758 -2.2142 -0.4204
  314MOL0     H42351  11.172  -1.038   5.723 -1.0909 -0.3165  2.7665
  314MOL0     H42352  10.979  -1.385   5.809 -1.4926 -0.4544  0.0868
  314MOL0     H42353  10.794  -1.546   5.722 -2.2449  0.0489 -3.5118
  314MOL0     H42354  10.692  -1.485   5.375 -0.2449 -0.4059  1.3517
  314MOL0     H42355  10.769  -1.624   5.289 -0.1580 -0.2562  0.2617
  314MOL0     H42356  10.594  -1.777   5.394 -1.5524 -0.4991 -0.8653
  314MOL0     H42357  10.495  -1.641   5.426  0.0119 -1.0139  0.1379
  314MOL0     H42358  10.406  -1.655   5.217 -0.5780 -0.5295 -2.6721
  314MOL0     H42359  10.563  -1.582   5.169 -1.5610  2.3595  2.4641
  314MOL0     H42360  10.505  -1.883   5.205 -2.4854  2.1943  1.8709
  314MOL0     H42361  10.651  -1.826   5.152  1.1829  3.5837  0.3139
  314MOL0     H42362  10.548  -1.852   4.939  1.1241  0.4136  0.4630
  314MOL0     H42363  10.500  -1.684   4.973 -0.1493 -0.3112  0.2700
  314MOL0     H42364  10.336  -1.937   5.032 -2.6591 -1.5795 -4.4292
  314MOL0     H42365  10.273  -1.773   5.051  0.5150 -1.6210  3.8041
  314MOL0     H42366  10.367  -1.887   4.787 -0.5684  0.0568 -0.8724
  314MOL0     H42367  10.312  -1.726   4.813 -2.6624 -1.0019  0.0026
  314MOL0     H42368  10.084  -1.809   4.896  2.7378  0.2375  0.9529
  314MOL0     H42369  10.129  -1.864   4.725  0.3811  0.9326 -0.5254
  314MOL0     H42370  10.979  -1.532   5.339 -2.2223  0.8147  0.0571
  314MOL0     H42371  11.147  -1.374   5.415  0.6567 -0.7146  0.3000
  314MOL0     H42372  11.538  -1.265   5.765  0.3087  0.2754 -0.9485
  314MOL0     H42373  11.656  -1.072   5.850 -0.5583  2.3636  0.1744
  314MOL0     H42374   9.977  -0.337   6.361  0.1276 -0.0027  0.3290
  314MOL0     H42375   9.758  -0.279   6.438  0.7861 -1.5648  0.6438
  314MOL0     H42376   9.466  -0.188   6.570 -1.2547  0.4010 -2.2671
  314MOL0     H42377   9.213  -0.179   6.555 -1.4063  0.6714  0.2219
  314MOL0     H42378   8.965  -0.170   6.627 -2.3089 -0.2598 -0.2358
  314MOL0     H42379   9.004  -0.063   6.500  0.9527 -1.8248  0.4664
  314MOL0     H42380   8.763  -0.065   6.549 -1.0414  1.7761 -2.0624
  314MOL0     H42381   8.837   0.101   6.594  1.5716 -0.1576  1.9098
  314MOL0     H42382   8.846   0.041   6.818 -0.9769  1.0755 -0.2943
  314MOL0     H42383   8.798  -0.122   6.794  0.2828  0.9434  1.9624
  314MOL0     H42384   8.618   0.028   6.881 -0.5365  0.7021 -0.0181
  314MOL0     H42385   8.608   0.114   6.736  0.8768  0.7240  0.6671
  314MOL0     H42386   8.429  -0.258   6.609 -1.3679  0.2868  2.2942
  314MOL0     H42387   9.216   0.195   6.748 -3.4038 -1.5116 -0.6983
  314MOL0     H42388   9.492   0.232   6.857 -0.1756  0.6852 -0.5277
  314MOL0     H42389   9.589   0.265   6.710  0.8604 -3.3764 -0.0797
  314MOL0     H42390   9.419   0.337   6.747 -4.0450 -2.2169 -1.1384
  315MOL0     O42391   2.347   4.295   6.938 -0.0058 -0.1748 -0.6255
  315MOL0     C42392   2.257   4.356   6.883 -0.0134 -1.2059  0.4800
  315MOL0     O42393   2.248   4.492   6.862 -0.3976  0.3627  0.0546
  315MOL0     C42394   2.350   4.582   6.893 -0.9147  0.0607 -0.2001
  315MOL0     C42395   2.485   4.548   6.904 -0.7658  0.0189 -0.1355
  315MOL0     C42396   2.580   4.638   6.948  0.4354  0.8536 -0.2574
  315MOL0     C42397   2.545   4.770   6.978 -0.2450  0.7017 -0.2990
  315MOL0     O42398   2.645   4.848   7.008  0.0929 -0.6549 -0.2171
  315MOL0     C42399   2.662   4.969   6.937 -0.3497  0.0552 -0.2431
  315MOL0     C42400   2.797   4.980   6.868  0.0893  0.6991 -0.1219
  315MOL0     C42401   2.837   4.863   6.772  0.0766  0.4892  0.0366
  315MOL0     C42402   2.975   4.876   6.708  0.6258 -0.3561 -0.0037
  315MOL0     C42403   3.088   4.855   6.806 -0.5159  0.1516 -0.1190
  315MOL0     C42404   3.221   4.888   6.738 -0.3441  0.0582 -0.0730
  315MOL0     C42405   3.340   4.868   6.833 -0.2228 -0.2377  0.0609
  315MOL0     C42406   3.463   4.881   6.752  0.2453  0.4530  0.5880
  315MOL0     N42407   3.590   4.871   6.825 -0.3892  0.0031  0.5915
  315MOL0     C42408   3.616   4.937   6.937  1.0149 -1.0480 -0.1261
  315MOL0     C42409   3.737   4.893   6.980  0.3393  0.6959 -0.6390
  315MOL0     C42410   3.827   4.948   7.092 -0.5006 -0.2683  0.2445
  315MOL0     C42411   3.901   5.068   7.034  0.0603  0.4655  0.8149
  315MOL0     C42412   4.019   5.116   7.132 -0.1813 -0.0689 -0.0361
  315MOL0     C42413   4.154   5.034   7.120 -0.6123  0.6839 -0.1480
  315MOL0     O42414   4.213   5.040   6.989  0.4510  0.0745 -0.9076
  315MOL0     C42415   4.333   4.989   6.945  0.5414  0.8688 -0.2021
  315MOL0     C42416   4.439   4.958   7.027 -1.5185 -0.1227  0.8286
  315MOL0     C42417   4.557   4.919   6.975 -0.0069  0.0521  0.4141
  315MOL0     C42418   4.582   4.887   6.838 -0.0698  0.3852 -0.0000
  315MOL0     C42419   4.709   4.829   6.794  0.4928  1.0394 -0.7465
  315MOL0     O42420   4.729   4.833   6.659  0.3345 -0.3381  0.0429
  315MOL0     C42421   4.851   4.822   6.600  0.3729  0.0855 -0.2282
  315MOL0     C42422   4.867   4.755   6.477 -0.3806  0.6794 -0.0632
  315MOL0     C42423   4.993   4.741   6.422  0.6786 -0.3108  1.3492
  315MOL0     C42424   5.104   4.791   6.480 -0.3374 -0.1986 -0.3153
  315MOL0     O42425   5.228   4.790   6.422  0.6048 -0.7849 -0.1592
  315MOL0     C42426   5.327   4.701   6.479 -0.0721  0.2978 -1.0060
  315MOL0     C42427   5.466   4.762   6.462  0.2429 -0.2960 -0.1052
  315MOL0     C42428   5.476   4.914   6.487  0.1410  0.4614 -0.1618
  315MOL0     C42429   5.623   4.946   6.511  0.0354  0.0070 -0.1122
  315MOL0     C42430   5.645   5.103   6.472  0.5820 -0.0370  0.4578
  315MOL0     C42431   5.554   5.202   6.552 -0.1463  0.2073  0.5371
  315MOL0     C42432   5.601   5.341   6.544 -0.5116  0.0526 -1.1195
  315MOL0     C42433   5.723   5.369   6.636  0.5949  0.0103 -0.3419
  315MOL0    Cl42434   5.664   5.402   6.804 -0.2147 -0.2411  0.0468
  315MOL0     C42435   5.091   4.873   6.599 -1.1818 -0.1979  0.3032
  315MOL0     C42436   4.966   4.889   6.652 -0.3718  0.3073 -0.5875
  315MOL0     O42437   4.797   4.811   6.880 -0.2811  0.5294 -0.3350
  315MOL0     C42438   4.478   4.916   6.753  0.9393 -0.1867  0.0418
  315MOL0     C42439   4.358   4.963   6.809  1.5137  0.3976 -0.9551
  315MOL0     N42440   3.778   4.801   6.897  0.1904 -0.1716  0.1881
  315MOL0     N42441   3.697   4.794   6.795 -0.6580  0.3295 -0.0339
  315MOL0     C42442   2.407   4.804   6.957 -0.3808 -0.6947 -0.1081
  315MOL0     C42443   2.313   4.713   6.915  0.6521  0.5837 -0.4007
  315MOL0     C42444   2.153   4.268   6.819 -0.5018  0.2134 -0.1306
  315MOL0     C42445   2.081   4.314   6.705 -0.0031  0.2786 -0.7371
  315MOL0     C42446   1.992   4.228   6.642  0.5017 -0.8218 -0.6576
  315MOL0     C42447   1.964   4.104   6.701  0.1152  0.1568  0.0257
  315MOL0     O42448   1.873   4.010   6.659  0.3116 -0.4752 -0.5644
  315MOL0     C42449   1.786   4.052   6.557  0.4280  0.1027 -0.0750
  315MOL0     C42450   1.663   4.131   6.607  0.2325  0.0309  0.4101
  315MOL0     C42451   1.558   4.041   6.662  0.8789 -0.3602  0.5964
  315MOL0     C42452   1.478   3.993   6.542  0.4136 -0.3991 -0.4872
  315MOL0     C42453   1.392   3.882   6.580 -0.5754  0.8842 -0.4466
  315MOL0     C42454   1.313   3.790   6.601 -0.5451 -0.2078  0.5704
  315MOL0     C42455   2.032   4.061   6.810  1.1421 -0.4144 -0.3054
  315MOL0     C42456   2.126   4.139   6.874  0.1571  0.1315 -0.2358
  315MOL0     C42457   2.170   4.075   7.005  0.4173 -0.5285 -0.2839
  315MOL0     H42458   2.532   4.450   6.890 -0.3828  0.1372  0.2983
  315MOL0     H42459   2.678   4.599   6.971 -0.9834 -1.8607  1.9121
  315MOL0     H42460   2.578   4.987   6.870 -0.9297 -3.9939 -0.8850
  315MOL0     H42461   2.662   5.054   7.005  3.3799 -0.8157  1.0846
  315MOL0     H42462   2.874   5.001   6.943  2.4214  1.8138 -2.6428
  315MOL0     H42463   2.793   5.064   6.798 -0.1163  2.2746  1.6974
  315MOL0     H42464   2.757   4.848   6.699 -1.1164 -1.5626  1.6534
  315MOL0     H42465   2.838   4.772   6.833  2.4012 -1.7441 -3.0527
  315MOL0     H42466   2.981   4.804   6.625 -0.7961  1.6673 -1.9585
  315MOL0     H42467   2.983   4.973   6.658 -1.4625  0.1855  0.6266
  315MOL0     H42468   3.069   4.919   6.893 -2.1544  0.6659 -0.8134
  315MOL0     H42469   3.091   4.750   6.835  1.5834  0.5948  1.5667
  315MOL0     H42470   3.232   4.833   6.645  2.9511 -1.3280  0.9878
  315MOL0     H42471   3.223   4.993   6.707 -1.5415  0.0016 -0.3715
  315MOL0     H42472   3.342   4.769   6.882  0.0521  1.1272  3.0603
  315MOL0     H42473   3.336   4.941   6.915  2.8191 -0.7970  0.8259
  315MOL0     H42474   3.467   4.801   6.678  0.5895 -0.3036  1.4158
  315MOL0     H42475   3.468   4.977   6.699 -0.8511 -1.0404 -2.4358
  315MOL0     H42476   3.558   5.019   6.978  1.7249 -0.0612 -1.0366
  315MOL0     H42477   3.756   4.959   7.175  0.5316  4.6137  0.7513
  315MOL0     H42478   3.908   4.880   7.122  2.3686  1.4233 -2.9642
  315MOL0     H42479   3.935   5.050   6.932  3.2628  1.9787  1.4823
  315MOL0     H42480   3.831   5.151   7.020 -1.8638 -1.1509  0.4561
  315MOL0     H42481   3.968   5.113   7.229 -1.5059 -0.2038 -0.7028
  315MOL0     H42482   4.041   5.218   7.100 -0.4516 -0.7058 -2.3950
  315MOL0     H42483   4.132   4.933   7.155 -0.1658  0.4178 -0.6333
  315MOL0     H42484   4.219   5.085   7.192  0.4034 -2.8714  1.6712
  315MOL0     H42485   4.424   4.982   7.132 -0.3282  4.9265  0.0898
  315MOL0     H42486   4.630   4.908   7.054  0.8105  0.6873 -0.2214
  315MOL0     H42487   4.789   4.699   6.425  1.7209 -1.1154 -1.4727
  315MOL0     H42488   5.005   4.691   6.326  0.6757 -0.3137  1.3505
  315MOL0     H42489   5.311   4.688   6.586  1.5145  0.8578 -0.6751
  315MOL0     H42490   5.317   4.601   6.435  0.0802 -1.1570  2.0127
  315MOL0     H42491   5.517   4.713   6.545  0.5401 -0.7126 -0.5314
  315MOL0     H42492   5.506   4.727   6.366  1.2191 -0.3463  0.3104
  315MOL0     H42493   5.432   4.964   6.400 -1.6439 -1.2212 -0.2846
  315MOL0     H42494   5.427   4.952   6.576  0.1825  2.1490 -0.8090
  315MOL0     H42495   5.693   4.912   6.434  0.2866  1.5491 -0.6064
  315MOL0     H42496   5.645   4.921   6.615  0.2800 -2.4130 -0.6991
  315MOL0     H42497   5.614   5.126   6.370  1.1758 -1.8920 -0.1798
  315MOL0     H42498   5.750   5.125   6.490  0.9243  0.2006 -1.6002
  315MOL0     H42499   5.452   5.194   6.514 -1.3655 -3.0516  3.9561
  315MOL0     H42500   5.544   5.169   6.656  2.1098  2.4898  1.5956
  315MOL0     H42501   5.524   5.412   6.576  0.2392  0.9440 -1.2633
  315MOL0     H42502   5.632   5.362   6.441  0.9077 -2.0059 -1.1651
  315MOL0     H42503   5.800   5.291   6.645  0.4427  0.1076  3.5406
  315MOL0     H42504   5.778   5.455   6.595  0.5991 -0.0859 -0.5398
  315MOL0     H42505   5.185   4.918   6.630 -1.3918  0.7325 -0.3777
  315MOL0     H42506   4.963   4.964   6.730  3.0222 -0.4778  0.4795
  315MOL0     H42507   4.496   4.906   6.646  1.1756  1.8552 -0.1604
  315MOL0     H42508   4.281   4.994   6.738  0.9553 -0.7630 -0.8669
  315MOL0     H42509   2.382   4.906   6.985 -1.4212 -1.9161  4.0906
  315MOL0     H42510   2.206   4.724   6.909  0.5278 -0.9884 -1.9162
  315MOL0     H42511   2.106   4.411   6.663 -0.2172  0.6733  0.0363
  315MOL0     H42512   1.935   4.277   6.563 -0.1135  0.6102  0.6244
  315MOL0     H42513   1.753   3.960   6.508  0.8816 -0.2816  0.3219
  315MOL0     H42514   1.838   4.106   6.478  0.0259  0.1311 -0.3209
  315MOL0     H42515   1.633   4.178   6.514 -1.5697 -1.5068  0.1565
  315MOL0     H42516   1.690   4.213   6.674 -3.1520  2.8706 -1.3900
  315MOL0     H42517   1.485   4.092   6.726  0.0870 -0.0317 -0.5352
  315MOL0     H42518   1.607   3.958   6.714  1.9255  1.2036  2.2303
  315MOL0     H42519   1.417   4.076   6.506 -0.8388  0.7613  3.7058
  315MOL0     H42520   1.541   3.963   6.458  2.3069  2.6043 -0.2961
  315MOL0     H42521   1.247   3.706   6.606 -2.4859  1.0299 -1.9271
  315MOL0     H42522   2.008   3.960   6.841  2.1335 -0.3889  0.5984
  315MOL0     H42523   2.256   4.008   6.998  1.1498  0.3176  0.4501
  315MOL0     H42524   2.183   4.152   7.082  0.7133  0.5160 -1.3441
  315MOL0     H42525   2.090   4.011   7.044  1.4255 -0.5187  1.8884
  316MOL0     O42526   0.231   5.252   9.046 -0.1111  0.0897 -0.1212
  316MOL0     C42527   0.124   5.280   9.100  0.6170 -0.4244  0.8007
  316MOL0     O42528   0.106   5.362   9.213  0.3118  0.1143  0.2352
  316MOL0     C42529   0.209   5.444   9.240 -1.1622  0.3433  0.0425
  316MOL0     C42530   0.226   5.553   9.158 -0.0047 -0.4355 -0.3077
  316MOL0     C42531   0.340   5.637   9.172 -0.4472 -0.2978 -0.2254
  316MOL0     C42532   0.445   5.598   9.266  0.3331 -0.1082 -0.7958
  316MOL0     O42533   0.558   5.673   9.276 -0.1277 -0.8832 -0.7915
  316MOL0     C42534   0.669   5.618   9.351 -0.0300 -0.0125 -0.4616
  316MOL0     C42535   0.743   5.502   9.289  0.2123 -0.2210 -0.8247
  316MOL0     C42536   0.889   5.513   9.344  0.2025  0.9148 -0.9592
  316MOL0     C42537   0.958   5.384   9.300  0.1343 -0.3958  1.1822
  316MOL0     C42538   1.060   5.332   9.411 -0.9560 -0.5658 -0.3222
  316MOL0     C42539   1.204   5.354   9.376 -0.4048  0.1204  0.3294
  316MOL0     C42540   1.238   5.501   9.371  0.2234  0.0087  0.2644
  316MOL0     C42541   1.242   5.558   9.511 -0.2074  0.5561  0.2529
  316MOL0     N42542   1.304   5.686   9.520 -0.5862 -0.4594  0.9547
  316MOL0     C42543   1.444   5.706   9.502  0.2007  0.6788 -0.4037
  316MOL0     C42544   1.456   5.832   9.551 -0.1706  0.0387 -0.4805
  316MOL0     C42545   1.596   5.890   9.569 -0.0759 -0.1870 -0.2326
  316MOL0     C42546   1.666   5.915   9.435 -0.4142  0.6327 -0.1831
  316MOL0     C42547   1.807   5.968   9.465  0.6534 -0.3429 -0.0175
  316MOL0     C42548   1.877   6.001   9.328 -0.5421  0.1285 -0.3317
  316MOL0     O42549   1.951   5.880   9.285  0.4002 -0.1974 -0.6786
  316MOL0     C42550   2.082   5.858   9.294  0.6974  0.0470  0.5611
  316MOL0     C42551   2.151   5.793   9.190 -0.5899 -0.3227  0.3592
  316MOL0     C42552   2.294   5.783   9.193  0.3955 -0.1033 -0.1952
  316MOL0     C42553   2.364   5.848   9.299  0.1802  0.9566  0.8104
  316MOL0     C42554   2.516   5.841   9.309  0.6805 -0.2999  0.1674
  316MOL0     O42555   2.579   5.896   9.415 -0.4308  0.4307  0.5364
  316MOL0     C42556   2.708   5.875   9.445  0.1705 -0.7672 -0.6603
  316MOL0     C42557   2.795   5.802   9.385  0.3448 -0.2357  0.7044
  316MOL0     C42558   2.931   5.814   9.424  0.0037  0.6428  0.3718
  316MOL0     C42559   2.966   5.891   9.542 -0.1211 -0.4592 -0.6560
  316MOL0     O42560   3.095   5.904   9.588 -0.3796  0.5502  0.1168
  316MOL0     C42561   3.205   5.878   9.496  0.4387  0.2987 -0.1116
  316MOL0     C42562   3.341   5.891   9.565 -0.8913 -0.5639 -0.0196
  316MOL0     C42563   3.459   5.890   9.466  0.0353 -0.7768 -0.2364
  316MOL0     C42564   3.598   5.900   9.529  0.3185  0.1363  0.3667
  316MOL0     C42565   3.704   5.882   9.417 -0.0772 -0.5197 -0.0431
  316MOL0     C42566   3.707   5.980   9.295  0.8701  0.3131  0.4963
  316MOL0     C42567   3.731   6.125   9.332 -0.1877 -0.0606  0.5862
  316MOL0     C42568   3.723   6.206   9.195  0.2100 -0.1210 -0.0181
  316MOL0    Cl42569   3.763   6.389   9.218 -0.0891 -0.1364 -0.1413
  316MOL0     C42570   2.873   5.972   9.605  0.4472 -0.6144  0.0804
  316MOL0     C42571   2.745   5.958   9.552  0.2972 -0.3079 -0.4921
  316MOL0     O42572   2.562   5.768   9.222  0.5166  0.4765  0.0240
  316MOL0     C42573   2.289   5.913   9.401  0.0132  0.1808 -0.5773
  316MOL0     C42574   2.150   5.909   9.400 -0.0284 -0.1956  0.2643
  316MOL0     N42575   1.336   5.889   9.590  0.6834 -0.1253  0.4226
  316MOL0     N42576   1.239   5.802   9.567  0.1758 -0.2808  0.5099
  316MOL0     C42577   0.422   5.480   9.343 -0.3454  0.0376  0.6781
  316MOL0     C42578   0.300   5.404   9.333 -0.3346  0.1783  0.5929
  316MOL0     C42579  -0.002   5.223   9.036 -0.1284  0.3324 -0.2151
  316MOL0     C42580   0.017   5.118   8.944 -0.7473  0.4166  0.7349
  316MOL0     C42581  -0.083   5.066   8.862 -0.8643  0.3594 -0.6498
  316MOL0     C42582  -0.208   5.120   8.875 -0.5502 -0.4746 -0.1785
  316MOL0     O42583  -0.303   5.078   8.787 -0.7719  0.7350  0.3720
  316MOL0     C42584  -0.432   5.131   8.776 -0.0216 -0.3786 -0.8409
  316MOL0     C42585  -0.429   5.281   8.752 -0.3120 -0.0289 -0.6528
  316MOL0     C42586  -0.550   5.347   8.821  0.0593  0.2980 -0.6503
  316MOL0     C42587  -0.685   5.327   8.754  0.2816  0.4679 -0.0925
  316MOL0     C42588  -0.798   5.364   8.844 -0.3680  0.7911 -0.7525
  316MOL0     C42589  -0.897   5.389   8.903  0.2311  0.4587  0.6147
  316MOL0     C42590  -0.231   5.211   8.982  0.3773  0.4114  0.4648
  316MOL0     C42591  -0.131   5.262   9.064  0.4311 -0.4657  0.1980
  316MOL0     C42592  -0.169   5.367   9.167 -0.2107  0.2133  0.1986
  316MOL0     H42593   0.152   5.556   9.079 -0.1932 -2.9193 -0.3184
  316MOL0     H42594   0.364   5.715   9.101 -1.3372  0.4385  0.2635
  316MOL0     H42595   0.723   5.714   9.354 -0.2510  0.4109 -4.4533
  316MOL0     H42596   0.644   5.597   9.455 -1.1387  0.0479 -0.7093
  316MOL0     H42597   0.747   5.525   9.182 -0.8946 -0.2345 -0.8836
  316MOL0     H42598   0.692   5.409   9.314  0.0334  0.8352  3.6128
  316MOL0     H42599   0.879   5.511   9.453 -2.0022 -1.0077 -1.0884
  316MOL0     H42600   0.944   5.604   9.319  2.0770 -0.0359 -0.4861
  316MOL0     H42601   0.887   5.303   9.281 -0.0238  0.1503 -0.7186
  316MOL0     H42602   1.011   5.407   9.207 -0.5140 -0.9731  0.6588
  316MOL0     H42603   1.044   5.362   9.515 -0.8176 -3.5546  0.6641
  316MOL0     H42604   1.045   5.224   9.402  0.6109 -0.8044 -0.3735
  316MOL0     H42605   1.261   5.294   9.448  1.3801  0.2696 -0.9119
  316MOL0     H42606   1.226   5.312   9.278 -0.5778 -2.2720  1.2483
  316MOL0     H42607   1.168   5.543   9.298  2.8432  0.4401 -2.1555
  316MOL0     H42608   1.335   5.521   9.326  0.4787 -0.2948  0.6642
  316MOL0     H42609   1.141   5.569   9.552 -1.4254 -0.1356 -2.3288
  316MOL0     H42610   1.293   5.478   9.566 -0.5915 -0.0470 -0.2392
  316MOL0     H42611   1.521   5.632   9.483 -0.7924 -0.8720  1.1908
  316MOL0     H42612   1.576   5.990   9.609  1.8009 -0.6940  2.2004
  316MOL0     H42613   1.654   5.825   9.636 -0.9840 -1.4961 -0.6792
  316MOL0     H42614   1.679   5.823   9.378  2.5047 -0.6111  2.1828
  316MOL0     H42615   1.617   5.990   9.372 -0.0131  1.8969  0.9546
  316MOL0     H42616   1.861   5.884   9.509 -0.5011 -0.8911  0.3864
  316MOL0     H42617   1.793   6.054   9.531  0.5563 -0.1794 -0.2469
  316MOL0     H42618   1.954   6.077   9.342 -1.2587  1.2829 -2.3011
  316MOL0     H42619   1.820   6.036   9.242 -1.6452 -5.5836 -2.3841
  316MOL0     H42620   2.094   5.744   9.111  0.7740 -4.3119  1.5660
  316MOL0     H42621   2.355   5.737   9.117  2.3940  1.4210  0.3870
  316MOL0     H42622   2.762   5.732   9.310  1.4649  1.7294 -1.7776
  316MOL0     H42623   3.011   5.754   9.383 -0.3250 -0.2936  1.0535
  316MOL0     H42624   3.195   5.786   9.438  0.9181  0.2189 -0.0706
  316MOL0     H42625   3.191   5.961   9.427  0.1481  0.4483  0.1255
  316MOL0     H42626   3.345   5.985   9.621 -0.8767  0.4283 -1.5943
  316MOL0     H42627   3.349   5.818   9.645 -0.6051  2.6056  3.0840
  316MOL0     H42628   3.460   5.799   9.404  1.9218  0.5681 -2.3126
  316MOL0     H42629   3.450   5.973   9.395  0.5374  1.4577  2.1658
  316MOL0     H42630   3.616   5.811   9.591 -1.1406 -0.4974 -0.0786
  316MOL0     H42631   3.608   5.998   9.575  1.1285  0.6838 -0.9248
  316MOL0     H42632   3.691   5.781   9.376  0.4463  0.4052 -2.6693
  316MOL0     H42633   3.803   5.894   9.462  0.5239  2.2238 -1.8901
  316MOL0     H42634   3.796   5.946   9.241  0.4221 -1.0421  0.5769
  316MOL0     H42635   3.625   5.962   9.224  1.7066  0.2382 -0.4735
  316MOL0     H42636   3.833   6.143   9.368  0.4819  1.2253 -1.7521
  316MOL0     H42637   3.652   6.153   9.402 -1.1120 -2.4224  0.5700
  316MOL0     H42638   3.801   6.173   9.127  1.8173 -0.6845  1.9976
  316MOL0     H42639   3.635   6.191   9.132  2.4112  0.5938 -3.4965
  316MOL0     H42640   2.897   6.045   9.681 -1.5726  0.3327 -0.1315
  316MOL0     H42641   2.662   6.016   9.590 -0.0802 -0.7785 -0.5919
  316MOL0     H42642   2.338   5.963   9.484  3.3081 -1.8027 -1.1617
  316MOL0     H42643   2.094   5.961   9.477  1.2949 -0.6747  1.5896
  316MOL0     H42644   0.496   5.432   9.406  2.2873  2.0099 -0.6874
  316MOL0     H42645   0.289   5.312   9.389 -1.8815  0.3044  0.5192
  316MOL0     H42646   0.115   5.076   8.926 -0.2719  2.4741 -2.1123
  316MOL0     H42647  -0.059   4.985   8.795  0.8182  0.5533 -0.3233
  316MOL0     H42648  -0.486   5.105   8.867 -0.2733 -0.0826 -0.9052
  316MOL0     H42649  -0.490   5.090   8.693 -1.2808 -0.1387 -0.0886
  316MOL0     H42650  -0.450   5.301   8.646  0.8202  1.1605 -0.6796
  316MOL0     H42651  -0.333   5.331   8.765  0.0779  0.2255 -3.7344
  316MOL0     H42652  -0.530   5.453   8.837  0.6815  0.2369 -1.0140
  316MOL0     H42653  -0.557   5.325   8.928 -0.1001  3.5959  0.1133
  316MOL0     H42654  -0.685   5.398   8.670  2.3041  0.0598 -0.4892
  316MOL0     H42655  -0.702   5.225   8.718  0.8407 -0.4153  2.0509
  316MOL0     H42656  -0.982   5.414   8.962  0.0267  0.9591  0.1102
  316MOL0     H42657  -0.333   5.241   9.007 -0.3836 -2.4940  1.2507
  316MOL0     H42658  -0.128   5.466   9.146  1.0937 -0.1118  1.0982
  316MOL0     H42659  -0.279   5.370   9.164 -0.1985  1.4172  0.5018
  316MOL0     H42660  -0.129   5.341   9.266  0.8541 -0.5175 -0.4056
  317MOL0     O42661   9.643   3.879   6.891  0.0078  0.0166  0.1874
  317MOL0     C42662   9.582   3.966   6.955 -0.8395  0.2634 -0.2739
  317MOL0     O42663   9.641   4.079   7.021 -0.0405 -0.7106  0.5433
  317MOL0     C42664   9.770   4.103   7.006 -0.0150 -0.4411 -0.2039
  317MOL0     C42665   9.862   4.055   7.107 -0.6050  0.1679  0.5665
  317MOL0     C42666  10.001   4.081   7.084  0.8579  0.5628  0.0787
  317MOL0     C42667  10.048   4.142   6.964 -0.1339 -0.2453 -0.5095
  317MOL0     O42668  10.180   4.172   6.941 -0.3925  0.5371 -0.1011
  317MOL0     C42669  10.286   4.090   7.000 -0.7233 -1.0984 -0.2578
  317MOL0     C42670  10.412   4.157   6.928 -0.1351  0.8494 -0.7636
  317MOL0     C42671  10.538   4.094   6.976 -0.2589 -0.2412  0.3503
  317MOL0     C42672  10.664   4.151   6.920 -0.0322  0.4707  0.2020
  317MOL0     C42673  10.789   4.102   6.988 -0.0918  0.5498  0.0279
  317MOL0     C42674  10.909   4.176   6.936 -0.1868  0.1351  0.1287
  317MOL0     C42675  11.043   4.121   6.997 -0.3458 -0.2112  0.5697
  317MOL0     C42676  11.146   4.235   7.012  0.2922 -0.4590  0.5846
  317MOL0     N42677  11.179   4.303   6.889  0.1556 -0.1590  0.1232
  317MOL0     C42678  11.181   4.439   6.871  0.6503 -0.3599 -0.4134
  317MOL0     C42679  11.228   4.465   6.748  0.1334 -0.4361  0.0324
  317MOL0     C42680  11.258   4.600   6.689 -1.5363 -0.3981  0.4363
  317MOL0     C42681  11.398   4.658   6.727  0.0412 -0.7723 -0.0368
  317MOL0     C42682  11.414   4.795   6.670 -0.2589  0.5869 -0.5834
  317MOL0     C42683  11.539   4.875   6.717  0.0093 -0.2673  0.1599
  317MOL0     O42684  11.511   5.010   6.667  0.2509  0.7242 -0.4040
  317MOL0     C42685  11.618   5.102   6.685 -0.6355  0.4604  0.6398
  317MOL0     C42686  11.721   5.082   6.782 -0.3565 -0.0773 -0.1410
  317MOL0     C42687  11.828   5.177   6.791 -0.3059  0.7494 -0.3663
  317MOL0     C42688  11.826   5.296   6.729 -0.3076  0.0418 -0.0206
  317MOL0     C42689  11.933   5.386   6.736  0.0556  0.2020  0.0535
  317MOL0     O42690  11.909   5.507   6.679  0.5276 -0.2556 -0.1753
  317MOL0     C42691  12.017   5.593   6.660  0.2025 -0.0047 -0.3252
  317MOL0     C42692  12.070   5.600   6.529 -0.9161 -0.3950 -0.3011
  317MOL0     C42693  12.171   5.686   6.502  0.5480 -0.4954  0.1533
  317MOL0     C42694  12.231   5.762   6.602  0.1767 -0.7813 -0.6105
  317MOL0     O42695  12.324   5.858   6.561 -0.0621 -0.0343  0.3794
  317MOL0     C42696  12.424   5.916   6.651  0.5903  0.3817 -0.2004
  317MOL0     C42697  12.516   6.006   6.565 -0.1424  0.5520 -0.3760
  317MOL0     C42698  12.615   6.085   6.651 -0.3251  0.5282 -0.1152
  317MOL0     C42699  12.721   5.988   6.731  0.0262 -0.0627  0.2611
  317MOL0     C42700  12.836   6.060   6.802  0.1569 -0.8828 -0.3527
  317MOL0     C42701  12.942   5.983   6.865 -0.3315  0.4368 -0.9254
  317MOL0     C42702  13.025   6.061   6.970 -0.0486 -0.1447 -0.1369
  317MOL0     C42703  13.160   6.001   6.999  0.4233 -0.0781  0.1252
  317MOL0    Cl42704  13.259   6.054   6.864  0.5716 -0.4984 -0.3160
  317MOL0     C42705  12.183   5.751   6.734 -0.4863  0.6909 -0.2120
  317MOL0     C42706  12.071   5.675   6.761 -0.3570 -0.6994 -0.9294
  317MOL0     O42707  12.038   5.356   6.785 -0.3242  0.0628  0.3099
  317MOL0     C42708  11.731   5.314   6.629  0.9428  0.5487  1.4333
  317MOL0     C42709  11.623   5.221   6.616  0.5434 -0.1404 -0.3669
  317MOL0     N42710  11.250   4.343   6.691  0.0393  0.1020 -0.4988
  317MOL0     N42711  11.231   4.246   6.772  0.2963  0.1351 -0.2224
  317MOL0     C42712   9.956   4.196   6.879  0.5741  0.3338 -0.6563
  317MOL0     C42713   9.818   4.178   6.899 -0.4022 -0.0538  1.2371
  317MOL0     C42714   9.439   3.945   6.963  1.2798  0.5497  0.6228
  317MOL0     C42715   9.355   4.048   7.011 -0.3888  0.7303 -0.0050
  317MOL0     C42716   9.217   4.045   7.025  0.4575  0.4357  0.2587
  317MOL0     C42717   9.149   3.937   6.981  0.6532 -0.4084  0.2995
  317MOL0     O42718   9.011   3.949   6.995 -0.6118  0.0382  0.4380
  317MOL0     C42719   8.931   3.848   6.923 -0.0509 -0.6618 -0.4873
  317MOL0     C42720   8.786   3.891   6.958  0.3226  0.1134 -0.4434
  317MOL0     C42721   8.745   3.861   7.105 -0.2642  0.7683 -0.4677
  317MOL0     C42722   8.601   3.855   7.134  0.2047  0.0507  0.1380
  317MOL0     C42723   8.540   3.986   7.102 -0.2870 -0.0872  0.6290
  317MOL0     C42724   8.479   4.084   7.067  0.0290  0.0629  0.2572
  317MOL0     C42725   9.219   3.825   6.945  0.1277 -0.2653 -0.3182
  317MOL0     C42726   9.361   3.827   6.930  0.3994  0.7850  0.1823
  317MOL0     C42727   9.429   3.696   6.915 -0.3209  0.0425 -0.7634
  317MOL0     H42728   9.841   4.007   7.202  0.6168  0.0315  0.7861
  317MOL0     H42729  10.071   4.039   7.156 -0.9846 -0.8376  1.1452
  317MOL0     H42730  10.303   4.102   7.108  2.4390  0.1611 -0.8035
  317MOL0     H42731  10.263   3.987   6.970 -2.1026 -1.4085  1.6283
  317MOL0     H42732  10.408   4.262   6.960  2.0396  0.0981  2.5336
  317MOL0     H42733  10.396   4.134   6.823  1.3084 -2.9047 -0.3133
  317MOL0     H42734  10.533   3.987   6.955 -1.1069  0.0254 -0.8492
  317MOL0     H42735  10.542   4.102   7.085 -2.0366 -1.9632  0.6068
  317MOL0     H42736  10.676   4.134   6.813 -1.1837 -0.7937  0.2482
  317MOL0     H42737  10.663   4.258   6.942  1.7895  0.6412 -0.3723
  317MOL0     H42738  10.780   4.116   7.096 -0.9099  0.9909 -0.0928
  317MOL0     H42739  10.799   3.995   6.966  1.5432  1.2078 -3.0048
  317MOL0     H42740  10.916   4.163   6.828 -0.0241  2.9674 -0.2762
  317MOL0     H42741  10.906   4.285   6.940  3.1486  0.4009 -1.5333
  317MOL0     H42742  11.083   4.036   6.940 -0.8915  0.1410 -0.3631
  317MOL0     H42743  11.018   4.087   7.098  1.2036 -0.5634  0.8665
  317MOL0     H42744  11.110   4.301   7.092 -2.2424  0.5504 -1.2212
  317MOL0     H42745  11.241   4.189   7.037  1.0253  0.9542  0.5221
  317MOL0     H42746  11.148   4.499   6.955 -1.6513 -2.9985  0.7266
  317MOL0     H42747  11.237   4.606   6.582 -2.0943  1.9575  0.6284
  317MOL0     H42748  11.186   4.670   6.733 -3.2622 -1.7130 -0.1848
  317MOL0     H42749  11.410   4.664   6.836 -0.2152 -1.8647  0.0556
  317MOL0     H42750  11.468   4.590   6.678 -0.1962 -0.1770 -1.2322
  317MOL0     H42751  11.330   4.851   6.712  1.3994 -0.4414  5.0007
  317MOL0     H42752  11.387   4.786   6.565 -0.4439  1.0613 -0.5787
  317MOL0     H42753  11.634   4.852   6.667  0.5852  1.3656  0.4543
  317MOL0     H42754  11.559   4.868   6.824  1.4480 -0.5637 -0.1008
  317MOL0     H42755  11.727   4.993   6.843 -2.5099  0.5347  1.0900
  317MOL0     H42756  11.903   5.148   6.864  0.9106  1.1215 -1.4279
  317MOL0     H42757  12.021   5.553   6.444 -1.7418 -0.0835 -0.0119
  317MOL0     H42758  12.195   5.711   6.399  1.2992  0.5271  0.5643
  317MOL0     H42759  12.373   5.989   6.716  1.7083  0.5833  0.4776
  317MOL0     H42760  12.473   5.839   6.711  3.0853  1.6671 -0.4751
  317MOL0     H42761  12.569   5.945   6.491  0.3551  0.7915 -0.2235
  317MOL0     H42762  12.453   6.074   6.506 -2.6685 -0.9298  0.4393
  317MOL0     H42763  12.673   6.159   6.595 -0.5265  0.1726 -0.7958
  317MOL0     H42764  12.558   6.140   6.727  2.3998  1.8969  1.1213
  317MOL0     H42765  12.768   5.929   6.653  1.4713  1.0327  0.2472
  317MOL0     H42766  12.667   5.917   6.794 -0.2000 -0.6122 -0.5463
  317MOL0     H42767  12.790   6.121   6.881  1.9822  1.4413 -0.9594
  317MOL0     H42768  12.873   6.143   6.741 -0.5892  0.5669  1.0946
  317MOL0     H42769  12.903   5.893   6.913  0.8993  0.8659  1.0080
  317MOL0     H42770  13.019   5.950   6.795  1.9711  0.4279  1.4338
  317MOL0     H42771  12.957   6.067   7.056 -0.7845  1.5194 -0.8098
  317MOL0     H42772  13.038   6.164   6.938 -0.4805 -0.6869 -2.1727
  317MOL0     H42773  13.191   6.028   7.100  0.7293  1.1908 -0.2858
  317MOL0     H42774  13.155   5.892   6.995  1.2585 -0.0889 -1.1350
  317MOL0     H42775  12.221   5.820   6.810 -0.4309  0.8274 -0.3620
  317MOL0     H42776  12.028   5.689   6.860  1.5014  1.1314 -0.3033
  317MOL0     H42777  11.725   5.396   6.558  0.3424 -0.5637  0.1443
  317MOL0     H42778  11.552   5.244   6.536  1.5100  2.9830 -0.4797
  317MOL0     H42779   9.995   4.255   6.797  3.8548 -0.4369  0.2305
  317MOL0     H42780   9.749   4.225   6.830 -1.0678  0.7768  2.4387
  317MOL0     H42781   9.407   4.136   7.048  2.3073 -0.7634  0.0040
  317MOL0     H42782   9.170   4.142   7.040 -1.7771 -0.5661  0.0638
  317MOL0     H42783   8.961   3.750   6.961  0.6281 -0.0642  0.5622
  317MOL0     H42784   8.945   3.858   6.815  0.4701  1.7029 -0.2582
  317MOL0     H42785   8.717   3.838   6.892 -0.7001  1.2536 -0.3316
  317MOL0     H42786   8.768   3.997   6.939 -0.8349 -0.5945 -4.1846
  317MOL0     H42787   8.786   3.942   7.166 -2.0024  1.1521  0.2387
  317MOL0     H42788   8.793   3.768   7.135 -1.2318  1.0885  2.2952
  317MOL0     H42789   8.549   3.784   7.068  0.0508  1.5561 -1.4266
  317MOL0     H42790   8.582   3.834   7.240  1.6742  0.5113  0.5131
  317MOL0     H42791   8.431   4.179   7.051  0.4045  0.6792  2.4825
  317MOL0     H42792   9.181   3.724   6.942  0.1918 -0.2813 -0.5835
  317MOL0     H42793   9.434   3.672   6.809  1.0410 -2.4222 -0.2084
  317MOL0     H42794   9.527   3.694   6.963 -1.1935  2.4228  1.3990
  317MOL0     H42795   9.376   3.619   6.972  0.3693 -0.9110 -1.3974
  318MOL0     O42796   0.476  10.891   8.225 -0.0821  0.4721 -0.3897
  318MOL0     C42797   0.376  10.875   8.163 -1.0747 -0.2167  0.5251
  318MOL0     O42798   0.377  10.851   8.037  0.0271  0.0786 -0.5432
  318MOL0     C42799   0.499  10.870   7.967 -0.4657  0.7799 -0.4771
  318MOL0     C42800   0.578  10.755   7.952 -0.2895  0.0560 -0.5348
  318MOL0     C42801   0.704  10.768   7.893  0.0908 -0.0550 -0.4883
  318MOL0     C42802   0.750  10.887   7.834  0.4039 -0.8289 -0.0087
  318MOL0     O42803   0.870  10.879   7.779  0.3998  0.0338 -0.0071
  318MOL0     C42804   0.932  11.002   7.749 -0.4202  0.2018  0.0428
  318MOL0     C42805   1.090  10.978   7.716  0.0604 -0.5561 -0.2181
  318MOL0     C42806   1.111  10.886   7.589  0.3648  0.3144  0.0052
  318MOL0     C42807   1.101  10.743   7.618 -0.7770  0.1975  0.4510
  318MOL0     C42808   1.091  10.668   7.489  0.6602  0.1182 -0.0920
  318MOL0     C42809   0.945  10.673   7.435  0.0154  0.4330 -0.1914
  318MOL0     C42810   0.964  10.599   7.298 -0.6490  0.4910 -0.7280
  318MOL0     C42811   0.836  10.595   7.222  0.2783 -0.0507  0.1043
  318MOL0     N42812   0.874  10.554   7.089  1.0989 -0.3185 -0.0627
  318MOL0     C42813   0.901  10.633   6.973  0.4092 -0.7489 -0.0677
  318MOL0     C42814   0.966  10.549   6.889  0.0893 -0.3419 -0.0527
  318MOL0     C42815   1.035  10.568   6.759 -0.1661  0.0363  0.4106
  318MOL0     C42816   1.174  10.623   6.766 -0.5030 -0.0412 -0.7016
  318MOL0     C42817   1.256  10.602   6.633 -0.3623 -0.5214 -1.0232
  318MOL0     C42818   1.398  10.666   6.623  0.0579  0.3771 -0.3640
  318MOL0     O42819   1.454  10.631   6.493 -0.3642  0.0015 -0.0222
  318MOL0     C42820   1.593  10.665   6.468  0.5979  0.6292 -0.1641
  318MOL0     C42821   1.672  10.737   6.558  0.2469 -0.8380  0.2456
  318MOL0     C42822   1.809  10.744   6.548  0.1572 -0.5533 -0.3521
  318MOL0     C42823   1.874  10.688   6.432 -0.1412  0.2021 -0.9577
  318MOL0     C42824   2.018  10.698   6.398  0.1551  0.6373 -0.6632
  318MOL0     O42825   2.096  10.707   6.514  0.1834  0.3202 -0.1370
  318MOL0     C42826   2.230  10.689   6.497  0.2920  0.1418 -0.4764
  318MOL0     C42827   2.273  10.557   6.460  0.1368 -0.2452 -0.2342
  318MOL0     C42828   2.413  10.537   6.454 -0.2726 -0.4478 -0.5461
  318MOL0     C42829   2.509  10.646   6.470  0.4405 -0.3881 -0.9796
  318MOL0     O42830   2.646  10.622   6.466 -0.5468  0.4008  0.1508
  318MOL0     C42831   2.702  10.529   6.370  0.7894 -0.6765  0.0859
  318MOL0     C42832   2.846  10.563   6.375 -0.0953 -1.0780 -0.1426
  318MOL0     C42833   2.866  10.697   6.291 -0.5205 -0.2802  0.6407
  318MOL0     C42834   2.980  10.772   6.346  0.1091 -0.0643 -0.1463
  318MOL0     C42835   2.990  10.907   6.261 -0.0070  0.5692  0.1549
  318MOL0     C42836   3.023  10.893   6.108  0.0561  0.3361  1.0273
  318MOL0     C42837   3.040  11.031   6.037  0.1049 -0.0013 -0.3960
  318MOL0     C42838   3.155  11.113   6.085  0.1409  0.4429  0.3989
  318MOL0    Cl42839   3.190  11.235   5.964 -0.5245 -0.1941 -0.2393
  318MOL0     C42840   2.458  10.778   6.491  0.7453 -0.5134  0.0956
  318MOL0     C42841   2.322  10.799   6.508  0.1395  0.0508  0.4636
  318MOL0     O42842   2.058  10.677   6.277 -0.4297 -0.4349 -0.7260
  318MOL0     C42843   1.788  10.631   6.332  0.2152 -0.0541 -0.0089
  318MOL0     C42844   1.651  10.613   6.351 -0.2202  0.4865  0.1529
  318MOL0     N42845   0.970  10.423   6.945  0.1963  0.1227  0.0669
  318MOL0     N42846   0.912  10.432   7.061  0.0023 -0.4886 -0.0612
  318MOL0     C42847   0.656  10.997   7.840 -0.1897 -0.5811 -0.1878
  318MOL0     C42848   0.541  10.992   7.914  0.1489 -0.4103 -0.1815
  318MOL0     C42849   0.256  10.866   8.244 -0.0152  0.4706 -0.0505
  318MOL0     C42850   0.140  10.819   8.172 -0.0169 -0.1178 -1.0661
  318MOL0     C42851   0.019  10.808   8.232  0.3953 -0.0579 -0.0099
  318MOL0     C42852   0.004  10.833   8.366  0.1582  0.5424  0.1080
  318MOL0     O42853  -0.122  10.811   8.419 -0.0529 -0.0473  1.0565
  318MOL0     C42854  -0.168  10.901   8.509  0.4472 -0.5604  0.0863
  318MOL0     C42855  -0.320  10.932   8.494 -0.0434  0.1004  0.5995
  318MOL0     C42856  -0.339  11.037   8.386 -0.2729  0.1913 -0.4190
  318MOL0     C42857  -0.485  11.044   8.330  0.5402 -0.7891  0.5751
  318MOL0     C42858  -0.492  11.149   8.228  0.3707  0.6168  0.2242
  318MOL0     C42859  -0.507  11.216   8.127 -0.2373 -0.6137 -0.5462
  318MOL0     C42860   0.114  10.879   8.439 -0.5299  0.1389  0.2091
  318MOL0     C42861   0.240  10.897   8.381  0.4641 -0.3188 -0.5090
  318MOL0     C42862   0.352  10.960   8.456  0.3119 -0.0343 -0.6414
  318MOL0     H42863   0.546  10.660   7.993  1.3777 -0.1967  0.2632
  318MOL0     H42864   0.767  10.681   7.879  1.5117  1.1843 -2.2362
  318MOL0     H42865   0.885  11.040   7.658  1.9665 -0.7641 -1.6989
  318MOL0     H42866   0.919  11.075   7.829 -2.9122  1.2521 -1.2323
  318MOL0     H42867   1.145  10.932   7.799  1.6995  0.1984 -0.8261
  318MOL0     H42868   1.145  11.072   7.703  0.1829 -0.0645  3.1001
  318MOL0     H42869   1.207  10.911   7.543  1.5867  1.1408  2.7821
  318MOL0     H42870   1.027  10.912   7.524 -0.6968 -1.7935  0.4361
  318MOL0     H42871   1.198  10.708   7.656 -0.1014  0.8401 -0.6157
  318MOL0     H42872   1.013  10.720   7.679  0.1092  1.5005  2.3119
  318MOL0     H42873   1.161  10.707   7.414  2.4556 -3.0645 -0.2602
  318MOL0     H42874   1.123  10.565   7.503  0.5314  0.4305  3.2623
  318MOL0     H42875   0.876  10.609   7.492  0.9082 -1.6840 -1.3551
  318MOL0     H42876   0.900  10.772   7.430  0.7552  0.8713  1.3849
  318MOL0     H42877   0.999  10.496   7.315 -1.1825  0.4957  0.5346
  318MOL0     H42878   1.042  10.644   7.236  1.3097  0.2206  1.3678
  318MOL0     H42879   0.768  10.522   7.266 -0.1770  0.1933 -0.1795
  318MOL0     H42880   0.785  10.692   7.226 -2.5707 -1.4365 -0.1259
  318MOL0     H42881   0.864  10.733   6.953 -0.2808 -1.2293 -1.3815
  318MOL0     H42882   1.029  10.478   6.696 -0.9193  2.9942 -4.2179
  318MOL0     H42883   0.975  10.634   6.695 -0.8303 -1.1231 -0.2024
  318MOL0     H42884   1.172  10.732   6.777  3.2059 -0.0111  1.2732
  318MOL0     H42885   1.222  10.573   6.851  0.3787  2.8989  0.6598
  318MOL0     H42886   1.188  10.647   6.561 -0.2420  0.3365 -0.6091
  318MOL0     H42887   1.268  10.494   6.619  2.0009 -0.6693  1.3859
  318MOL0     H42888   1.460  10.614   6.697  1.1765  2.0906 -0.0451
  318MOL0     H42889   1.392  10.774   6.633 -2.1512  0.1620  1.5051
  318MOL0     H42890   1.628  10.805   6.630  0.4435 -0.1437 -0.2716
  318MOL0     H42891   1.870  10.801   6.618  1.8928  0.0809 -2.2675
  318MOL0     H42892   2.203  10.477   6.440  0.8066 -1.1702  0.9435
  318MOL0     H42893   2.450  10.436   6.439  0.3834 -0.1924 -0.6860
  318MOL0     H42894   2.689  10.423   6.396 -0.2492 -0.7538 -0.6884
  318MOL0     H42895   2.660  10.548   6.271  2.5362 -2.8281 -1.1635
  318MOL0     H42896   2.890  10.565   6.475 -1.1350  0.7602  0.3203
  318MOL0     H42897   2.900  10.483   6.323  2.4132 -0.5501  1.4924
  318MOL0     H42898   2.895  10.663   6.191  2.1582  1.3826  0.7614
  318MOL0     H42899   2.774  10.755   6.293 -0.5769 -0.3897  1.8445
  318MOL0     H42900   3.074  10.715   6.344 -0.2554 -0.6918  0.3418
  318MOL0     H42901   2.952  10.779   6.451 -2.0495 -0.5838 -0.6409
  318MOL0     H42902   3.066  10.969   6.309 -0.1057  0.3986  0.5342
  318MOL0     H42903   2.899  10.965   6.281  0.1808  0.5761  1.0294
  318MOL0     H42904   3.115  10.835   6.095  0.7557  1.1919  1.9851
  318MOL0     H42905   2.946  10.840   6.052  0.9278 -0.1407  0.2361
  318MOL0     H42906   2.954  11.097   6.052 -0.6392 -1.1980  0.9459
  318MOL0     H42907   3.051  11.015   5.930  0.4342  0.0404 -0.3706
  318MOL0     H42908   3.123  11.153   6.182 -3.5997 -2.2409  0.4986
  318MOL0     H42909   3.249  11.057   6.086  0.4016  0.8809  0.8435
  318MOL0     H42910   2.535  10.855   6.492 -0.6631  0.9585  1.4164
  318MOL0     H42911   2.277  10.894   6.533 -4.0177 -0.6858 -3.1539
  318MOL0     H42912   1.822  10.593   6.236 -0.6096 -3.1030  0.8031
  318MOL0     H42913   1.584  10.545   6.300 -2.4612 -0.5898  4.1172
  318MOL0     H42914   0.697  11.089   7.801 -0.8664 -0.8874 -1.6750
  318MOL0     H42915   0.484  11.083   7.933 -0.8785 -1.1994  0.6435
  318MOL0     H42916   0.150  10.794   8.067  5.8866 -1.6884 -0.4729
  318MOL0     H42917  -0.059  10.767   8.169  0.9999 -0.9189 -0.2145
  318MOL0     H42918  -0.118  10.998   8.511  1.8295 -1.2387 -0.3139
  318MOL0     H42919  -0.166  10.859   8.611  1.1853  0.7278  0.6226
  318MOL0     H42920  -0.366  10.965   8.587  1.0255  1.3110  0.7161
  318MOL0     H42921  -0.375  10.843   8.461 -0.2829 -0.2461  1.8799
  318MOL0     H42922  -0.272  11.024   8.300  0.5442  0.1726  0.2135
  318MOL0     H42923  -0.316  11.134   8.431  3.7084 -1.6051  1.8625
  318MOL0     H42924  -0.528  10.950   8.294  0.0529 -1.2360  2.2301
  318MOL0     H42925  -0.546  11.072   8.417 -0.4574  1.7811 -0.8637
  318MOL0     H42926  -0.524  11.283   8.046  0.5425  1.3838  0.8663
  318MOL0     H42927   0.121  10.894   8.546  0.9169 -2.1190  0.4996
  318MOL0     H42928   0.421  10.879   8.479 -2.6255 -1.8174  2.9427
  318MOL0     H42929   0.394  11.046   8.404 -0.7769  0.4574 -0.7459
  318MOL0     H42930   0.325  10.990   8.557  3.4840 -4.6404  1.9287
  319MOL0     O42931   5.320   6.878   8.497  1.0143  0.0140  0.1595
  319MOL0     C42932   5.271   6.878   8.386  0.0912 -0.1953 -0.3497
  319MOL0     O42933   5.332   6.923   8.274 -0.3738  0.7548 -1.0514
  319MOL0     C42934   5.470   6.944   8.267 -1.0165  0.2750 -0.4217
  319MOL0     C42935   5.576   6.879   8.343 -0.3952  1.3442  0.3060
  319MOL0     C42936   5.710   6.915   8.311 -0.9722 -0.2857  0.2724
  319MOL0     C42937   5.740   7.015   8.226 -0.5314  0.3310  0.5013
  319MOL0     O42938   5.866   7.060   8.196  0.1199  0.5216  0.1912
  319MOL0     C42939   5.962   7.050   8.307  0.1064 -0.1916  0.1439
  319MOL0     C42940   6.083   7.126   8.271  0.3101 -0.4393 -0.1952
  319MOL0     C42941   6.159   7.047   8.164 -0.3908 -0.3667 -0.1950
  319MOL0     C42942   6.259   6.951   8.228  0.7792 -0.1024  0.0845
  319MOL0     C42943   6.238   6.820   8.154 -0.3617 -0.0878 -0.5694
  319MOL0     C42944   6.348   6.727   8.204 -0.2117 -0.4158  0.8350
  319MOL0     C42945   6.410   6.647   8.097  0.3243  1.1603  0.1890
  319MOL0     C42946   6.522   6.557   8.158 -0.3543  0.2241  0.1449
  319MOL0     N42947   6.601   6.502   8.049 -0.1371  0.5846 -0.3317
  319MOL0     C42948   6.548   6.402   7.970 -0.4609  0.2193  1.1859
  319MOL0     C42949   6.640   6.376   7.870 -0.1319 -0.3583 -0.7082
  319MOL0     C42950   6.630   6.267   7.767  0.2883 -0.0652 -1.0710
  319MOL0     C42951   6.761   6.181   7.771  0.4200  0.8330 -1.2377
  319MOL0     C42952   6.769   6.059   7.676 -0.3392 -0.3570  0.7907
  319MOL0     C42953   6.915   6.059   7.621  0.8307  0.5466  0.0892
  319MOL0     O42954   7.005   6.006   7.720 -0.1804  0.3226  0.4494
  319MOL0     C42955   7.139   5.971   7.676 -0.0802 -1.0473 -0.7657
  319MOL0     C42956   7.196   5.991   7.550 -0.2016 -0.2795 -0.2843
  319MOL0     C42957   7.336   5.969   7.522 -0.4505 -0.6204 -0.7335
  319MOL0     C42958   7.414   5.915   7.626  0.1254  0.6247 -1.0767
  319MOL0     C42959   7.567   5.900   7.620  0.3131 -0.7434  0.3074
  319MOL0     O42960   7.635   5.850   7.723 -0.1023  0.6060 -0.1245
  319MOL0     C42961   7.771   5.851   7.708  1.1960  0.1380  0.0662
  319MOL0     C42962   7.837   5.734   7.667  0.5649  0.1962  0.1140
  319MOL0     C42963   7.972   5.738   7.656  0.6397  0.0641  0.0517
  319MOL0     C42964   8.047   5.858   7.694  0.9479 -0.2213 -0.5040
  319MOL0     O42965   8.185   5.861   7.712  1.0327  0.0822 -0.8206
  319MOL0     C42966   8.269   5.814   7.604  0.2334  0.4656  0.2149
  319MOL0     C42967   8.366   5.699   7.656  0.2136 -0.5171 -0.3830
  319MOL0     C42968   8.446   5.742   7.780  0.6785 -0.2823 -0.8955
  319MOL0     C42969   8.571   5.816   7.738  0.4907 -0.1484 -0.2510
  319MOL0     C42970   8.628   5.876   7.865  0.9051 -0.4135  0.1851
  319MOL0     C42971   8.724   5.976   7.829  0.3326 -0.9983 -0.0291
  319MOL0     C42972   8.779   6.052   7.952 -0.1356 -0.6606  0.2110
  319MOL0     C42973   8.907   6.142   7.925  0.0099 -0.1296 -0.0213
  319MOL0    Cl42974   9.043   6.026   7.934  0.1576  0.2047 -0.2671
  319MOL0     C42975   7.976   5.974   7.720  0.2792 -1.4273 -1.0191
  319MOL0     C42976   7.839   5.970   7.732  0.2541 -1.5040  0.0426
  319MOL0     O42977   7.618   5.945   7.517 -0.3507 -0.0661  0.6531
  319MOL0     C42978   7.352   5.882   7.749 -0.1178  1.2187  0.1516
  319MOL0     C42979   7.218   5.923   7.781 -0.0196 -0.5036 -0.2051
  319MOL0     N42980   6.745   6.463   7.888  0.0735  0.6560 -0.7364
  319MOL0     N42981   6.724   6.531   7.996  0.6192 -0.0334  0.0846
  319MOL0     C42982   5.637   7.074   8.159 -0.0342 -0.5430  0.4977
  319MOL0     C42983   5.513   7.043   8.177  1.0028 -0.2958  0.0774
  319MOL0     C42984   5.133   6.833   8.363  0.0680 -0.1250 -0.3583
  319MOL0     C42985   5.070   6.764   8.473 -0.0088  0.1145  0.1697
  319MOL0     C42986   4.940   6.722   8.468 -0.1623 -0.3605  0.2636
  319MOL0     C42987   4.862   6.749   8.356 -1.2777 -0.7777 -0.6877
  319MOL0     O42988   4.728   6.717   8.343 -0.5436 -0.4084 -0.0185
  319MOL0     C42989   4.647   6.713   8.463 -0.2952 -0.4399 -0.1389
  319MOL0     C42990   4.626   6.854   8.517 -0.3394 -0.1421 -0.4131
  319MOL0     C42991   4.554   6.832   8.656 -0.9929 -0.1429 -0.4110
  319MOL0     C42992   4.492   6.959   8.720  0.9486  0.4426  0.0306
  319MOL0     C42993   4.440   6.926   8.849 -0.3702  0.0075  0.0471
  319MOL0     C42994   4.409   6.911   8.958 -0.3129 -0.8876  0.1810
  319MOL0     C42995   4.926   6.808   8.245  1.3962 -0.4533  0.3491
  319MOL0     C42996   5.060   6.854   8.245  0.8131  1.1500  0.7059
  319MOL0     C42997   5.108   6.912   8.112  0.2833 -0.4090  0.5164
  319MOL0     H42998   5.554   6.798   8.412 -1.3481  0.2556 -1.2303
  319MOL0     H42999   5.789   6.856   8.357 -0.6035  0.7614  1.0045
  319MOL0     H43000   5.914   7.078   8.402 -0.3391  0.9571 -0.3919
  319MOL0     H43001   5.995   6.948   8.327 -4.8055 -1.9134  0.8105
  319MOL0     H43002   6.148   7.143   8.358 -0.4075 -1.2052  0.5062
  319MOL0     H43003   6.053   7.218   8.220 -0.9195 -0.3248  0.7037
  319MOL0     H43004   6.216   7.120   8.105 -3.7425  1.1136 -1.8995
  319MOL0     H43005   6.094   7.000   8.089 -1.3774  0.7166 -0.0488
  319MOL0     H43006   6.359   6.989   8.207  0.4550  0.4362 -0.5329
  319MOL0     H43007   6.260   6.941   8.337  1.4877 -0.6108  0.0388
  319MOL0     H43008   6.138   6.782   8.176 -1.6118  0.6329 -4.2751
  319MOL0     H43009   6.245   6.831   8.046  0.6172 -0.0136 -0.5072
  319MOL0     H43010   6.420   6.777   8.270 -2.1066 -0.1847  2.8442
  319MOL0     H43011   6.290   6.658   8.265 -1.6075  0.1102  0.1585
  319MOL0     H43012   6.452   6.721   8.028  1.6149  5.6206  5.0599
  319MOL0     H43013   6.329   6.589   8.052  1.3646  0.4483 -0.8367
  319MOL0     H43014   6.592   6.616   8.218 -0.6076  0.4482  0.2252
  319MOL0     H43015   6.479   6.488   8.231  1.2009 -2.0121 -0.9736
  319MOL0     H43016   6.462   6.337   7.983  1.9313 -2.9694  2.6009
  319MOL0     H43017   6.539   6.207   7.776  0.8041 -0.6193  0.7982
  319MOL0     H43018   6.617   6.319   7.671 -1.6241  0.2330 -0.6805
  319MOL0     H43019   6.849   6.246   7.766  1.8739 -0.8172  0.9561
  319MOL0     H43020   6.764   6.133   7.869  3.7960 -0.4309 -1.8410
  319MOL0     H43021   6.698   6.072   7.595 -1.0196 -0.3587  1.3747
  319MOL0     H43022   6.751   5.969   7.736  0.2249 -0.8014  0.3026
  319MOL0     H43023   6.952   6.153   7.579  3.5997 -0.1791  0.7061
  319MOL0     H43024   6.894   5.996   7.534 -1.2402 -0.3668  1.1674
  319MOL0     H43025   7.143   6.030   7.463  1.4252  0.4930 -0.9602
  319MOL0     H43026   7.379   5.996   7.426  0.1231  0.9393 -0.0754
  319MOL0     H43027   7.782   5.642   7.650  1.4392 -0.3735  0.2635
  319MOL0     H43028   8.030   5.650   7.629  1.4163  0.9325 -1.2571
  319MOL0     H43029   8.215   5.782   7.515 -0.5844 -3.1595  1.7929
  319MOL0     H43030   8.335   5.893   7.567  0.3986 -1.2548 -3.6586
  319MOL0     H43031   8.317   5.602   7.671 -1.2775  0.0453 -1.4294
  319MOL0     H43032   8.432   5.689   7.569  0.2254 -0.9374 -0.3301
  319MOL0     H43033   8.387   5.798   7.854  2.5063  0.1654  0.2855
  319MOL0     H43034   8.483   5.652   7.831 -2.6558  0.1801  2.9048
  319MOL0     H43035   8.546   5.903   7.676  0.7756 -0.6187 -1.0446
  319MOL0     H43036   8.645   5.757   7.683 -1.3617 -2.7341 -0.1349
  319MOL0     H43037   8.685   5.796   7.914  3.0790  0.1394 -1.2709
  319MOL0     H43038   8.552   5.917   7.932  0.1195 -0.8179 -0.4426
  319MOL0     H43039   8.814   5.934   7.785  0.7665  0.7581 -0.9214
  319MOL0     H43040   8.694   6.051   7.755  0.2139 -1.1882 -0.1722
  319MOL0     H43041   8.800   5.990   8.040  1.2002 -1.1471 -0.4329
  319MOL0     H43042   8.710   6.131   7.984 -2.2399 -1.0117 -3.0184
  319MOL0     H43043   8.903   6.187   7.825 -0.6035 -3.4945 -1.6397
  319MOL0     H43044   8.921   6.205   8.013 -1.8981 -0.6161  0.6733
  319MOL0     H43045   8.029   6.064   7.751 -0.7349 -1.3137  0.5113
  319MOL0     H43046   7.787   6.064   7.740  0.6501 -1.4002  1.8009
  319MOL0     H43047   7.404   5.828   7.828  0.6194  1.3607 -0.2309
  319MOL0     H43048   7.173   5.909   7.879 -0.2205 -0.8430 -0.3463
  319MOL0     H43049   5.652   7.157   8.091 -2.3417 -0.9378 -0.5481
  319MOL0     H43050   5.435   7.085   8.114 -0.4214  2.3630  3.2525
  319MOL0     H43051   5.113   6.738   8.569  1.2833  1.0690 -0.1275
  319MOL0     H43052   4.898   6.683   8.560 -0.6983  2.4060  1.2831
  319MOL0     H43053   4.693   6.652   8.541  0.1683  0.0039 -0.0617
  319MOL0     H43054   4.548   6.668   8.447  0.2445 -1.5840 -0.3373
  319MOL0     H43055   4.554   6.902   8.451 -0.6381  0.4893  0.3572
  319MOL0     H43056   4.718   6.909   8.539 -0.3215 -0.8331  1.4433
  319MOL0     H43057   4.617   6.776   8.726 -0.6455  0.7922  0.0543
  319MOL0     H43058   4.467   6.766   8.647 -3.2284  2.4710  0.5421
  319MOL0     H43059   4.576   7.027   8.732  2.5133 -1.3227 -0.4352
  319MOL0     H43060   4.418   7.000   8.651 -2.3307 -2.2515  1.6358
  319MOL0     H43061   4.388   6.909   9.063  1.6312 -0.1646  0.6387
  319MOL0     H43062   4.870   6.819   8.152 -2.3653 -0.5774  2.3724
  319MOL0     H43063   5.121   7.019   8.127 -2.4317 -0.1686  1.8173
  319MOL0     H43064   5.201   6.860   8.087  0.3644 -1.2553  2.3688
  319MOL0     H43065   5.040   6.901   8.028  1.0774  3.2182 -0.7606
  320MOL0     O43066  10.307   2.848   4.840  0.1728 -0.4595  0.0411
  320MOL0     C43067  10.259   2.958   4.839  0.8085 -0.1003  0.9218
  320MOL0     O43068  10.316   3.076   4.833 -0.5867 -0.6584  0.7858
  320MOL0     C43069  10.449   3.101   4.864 -0.2024 -0.1555 -0.0516
  320MOL0     C43070  10.476   3.226   4.907 -0.5646 -0.2884 -0.4837
  320MOL0     C43071  10.607   3.266   4.950  0.0421  0.4604 -0.1667
  320MOL0     C43072  10.714   3.181   4.930 -0.4142  0.0428  0.4039
  320MOL0     O43073  10.841   3.229   4.962  0.3972 -0.2205  0.4981
  320MOL0     C43074  10.947   3.153   4.896  0.4173 -0.4234  0.4542
  320MOL0     C43075  11.070   3.246   4.889 -0.3951  0.9159 -0.9146
  320MOL0     C43076  11.148   3.250   5.022 -0.8920  0.0716 -0.0507
  320MOL0     C43077  11.271   3.344   5.015 -1.1226  0.1337  0.2154
  320MOL0     C43078  11.325   3.386   5.157  0.2248 -0.0300 -0.4289
  320MOL0     C43079  11.356   3.261   5.246  0.7112 -0.0002 -0.6186
  320MOL0     C43080  11.443   3.310   5.370 -0.0152  0.8370 -0.4979
  320MOL0     C43081  11.584   3.365   5.324  0.0980 -0.0609  0.8200
  320MOL0     N43082  11.680   3.401   5.429  0.1929  0.3121 -0.5390
  320MOL0     C43083  11.744   3.527   5.442 -0.2328 -0.3322 -0.5649
  320MOL0     C43084  11.828   3.506   5.550  0.3413  0.0914 -0.2226
  320MOL0     C43085  11.923   3.602   5.616 -0.1369  0.0323 -0.2241
  320MOL0     C43086  12.005   3.539   5.735  0.1862 -0.5665 -0.0898
  320MOL0     C43087  12.063   3.639   5.830  0.6296 -0.7596  0.1882
  320MOL0     C43088  12.206   3.611   5.879 -0.2479 -0.8003 -0.3376
  320MOL0     O43089  12.239   3.703   5.979 -0.0312 -0.0766 -0.7855
  320MOL0     C43090  12.367   3.751   5.998 -0.5968  0.6158  0.0552
  320MOL0     C43091  12.388   3.815   6.113  0.2698 -0.5111 -0.5134
  320MOL0     C43092  12.511   3.859   6.157  0.1025  0.3045  0.4185
  320MOL0     C43093  12.624   3.843   6.072 -0.4078  0.1533  0.7705
  320MOL0     C43094  12.760   3.882   6.113  0.2001  0.5666  0.5835
  320MOL0     O43095  12.859   3.805   6.068 -0.4946 -0.2772  0.4407
  320MOL0     C43096  12.986   3.825   6.125 -0.2204 -1.0498 -0.2852
  320MOL0     C43097  13.084   3.857   6.032  0.1456  0.7629  0.4481
  320MOL0     C43098  13.215   3.876   6.083  0.3163  0.0458  0.0305
  320MOL0     C43099  13.237   3.861   6.228 -0.1069 -0.1611  0.3483
  320MOL0     O43100  13.366   3.887   6.267  0.0536  0.8736  0.0631
  320MOL0     C43101  13.396   3.947   6.398  0.3587 -0.2498 -0.0681
  320MOL0     C43102  13.541   3.928   6.424  0.9117 -0.3287  0.5620
  320MOL0     C43103  13.578   3.988   6.558  0.8865  0.2705 -0.0776
  320MOL0     C43104  13.731   4.006   6.577  0.3997 -0.1503  0.1606
  320MOL0     C43105  13.761   4.009   6.725  0.2798 -0.3365  0.5181
  320MOL0     C43106  13.909   3.995   6.747  0.3579  0.9299  0.4387
  320MOL0     C43107  13.928   3.984   6.898  0.2453  0.0488 -1.2866
  320MOL0     C43108  14.066   3.971   6.950 -0.0356 -0.1812 -0.2076
  320MOL0    Cl43109  14.171   4.113   6.931  0.1817 -0.0362  0.0197
  320MOL0     C43110  13.136   3.821   6.312 -0.7663  0.0749  0.0751
  320MOL0     C43111  13.005   3.804   6.262 -0.2159  0.0790 -0.9681
  320MOL0     O43112  12.770   3.966   6.194  0.0371 -0.3013 -0.2031
  320MOL0     C43113  12.598   3.788   5.944 -1.0422  0.2370 -0.2414
  320MOL0     C43114  12.476   3.726   5.910 -0.8128 -0.4588  1.0796
  320MOL0     N43115  11.821   3.368   5.589 -0.1854 -0.1788  0.2528
  320MOL0     N43116  11.736   3.310   5.506  0.2416  0.4908 -0.1057
  320MOL0     C43117  10.687   3.054   4.869 -0.3268 -0.7428  0.7242
  320MOL0     C43118  10.561   3.016   4.836 -0.5019 -0.6344  0.2069
  320MOL0     C43119  10.107   2.961   4.858  0.8093 -0.2379  0.0642
  320MOL0     C43120  10.040   3.082   4.839  0.0513 -0.3673  0.1116
  320MOL0     C43121   9.905   3.103   4.856  0.8570  0.3257 -0.3926
  320MOL0     C43122   9.825   2.998   4.879  0.7751 -0.2046  0.1710
  320MOL0     O43123   9.697   3.040   4.882 -0.4296  0.5549  0.5776
  320MOL0     C43124   9.599   2.946   4.932 -0.0198  0.2646  0.6532
  320MOL0     C43125   9.453   2.990   4.892  0.1847  1.0643 -0.6601
  320MOL0     C43126   9.408   3.114   4.969  0.1477 -0.1958  0.5838
  320MOL0     C43127   9.379   3.086   5.109  0.2603 -0.0949 -0.1252
  320MOL0     C43128   9.311   3.201   5.162  0.0595 -0.1548 -0.2787
  320MOL0     C43129   9.248   3.295   5.209 -0.4586  0.1258 -0.9280
  320MOL0     C43130   9.880   2.873   4.892 -0.5206 -0.2265 -0.4198
  320MOL0     C43131  10.017   2.854   4.893  0.7309  0.6297 -0.4365
  320MOL0     C43132  10.069   2.716   4.927 -0.0978  0.6981  0.2391
  320MOL0     H43133  10.397   3.298   4.929 -0.2621 -0.7688  2.7658
  320MOL0     H43134  10.624   3.359   5.003  2.0339 -0.5429  1.1033
  320MOL0     H43135  10.963   3.066   4.960 -0.4406  0.0809  1.3858
  320MOL0     H43136  10.919   3.128   4.793 -2.5095  2.0450  0.5099
  320MOL0     H43137  11.051   3.345   4.847 -2.6556  1.8034  1.9329
  320MOL0     H43138  11.143   3.206   4.817 -1.8584  0.4722 -2.1906
  320MOL0     H43139  11.185   3.149   5.043 -2.6973 -0.2433  1.9230
  320MOL0     H43140  11.079   3.291   5.096 -0.6230 -1.6546  1.2204
  320MOL0     H43141  11.344   3.292   4.953 -3.2376  0.5052 -2.8435
  320MOL0     H43142  11.251   3.440   4.966 -0.0393  0.9332  1.2914
  320MOL0     H43143  11.413   3.447   5.136  0.8829 -1.0746 -0.8241
  320MOL0     H43144  11.257   3.456   5.205  1.3796  0.8199  0.0159
  320MOL0     H43145  11.271   3.204   5.284  1.1466 -0.7016 -0.6705
  320MOL0     H43146  11.428   3.187   5.209 -0.1298 -0.8089 -0.6704
  320MOL0     H43147  11.461   3.228   5.440 -1.0695  0.6982 -0.3701
  320MOL0     H43148  11.394   3.388   5.428  2.4257  3.2416 -1.4707
  320MOL0     H43149  11.623   3.295   5.249 -1.1208  2.7998 -2.7624
  320MOL0     H43150  11.564   3.461   5.276 -3.5554 -0.9374  0.3285
  320MOL0     H43151  11.736   3.611   5.374  2.1355  1.3747  1.0881
  320MOL0     H43152  11.983   3.631   5.529  0.2195  1.5596  0.5002
  320MOL0     H43153  11.875   3.688   5.664  0.8116  0.4555 -0.0111
  320MOL0     H43154  11.942   3.473   5.795 -2.1389  2.3789  0.9851
  320MOL0     H43155  12.088   3.478   5.699  0.6277  1.3926 -2.6744
  320MOL0     H43156  11.998   3.658   5.917  0.5691  0.0886 -0.0302
  320MOL0     H43157  12.072   3.735   5.778 -0.7305 -0.5048  0.3726
  320MOL0     H43158  12.263   3.634   5.789  0.6164 -2.5206 -0.2583
  320MOL0     H43159  12.225   3.506   5.904 -1.6284 -0.7414  1.1742
  320MOL0     H43160  12.302   3.815   6.180  1.7977 -2.7593  1.6574
  320MOL0     H43161  12.513   3.901   6.257 -2.4022  1.0149  0.2266
  320MOL0     H43162  13.061   3.871   5.927  1.7098  2.6905  0.3208
  320MOL0     H43163  13.299   3.901   6.019  3.1160  0.0885  3.4605
  320MOL0     H43164  13.368   4.053   6.392  0.6252 -0.0825  1.4201
  320MOL0     H43165  13.337   3.902   6.478  2.0386  1.8562  2.5459
  320MOL0     H43166  13.568   3.823   6.438 -0.8735 -0.8669  0.1645
  320MOL0     H43167  13.592   3.978   6.341 -2.9172  2.9745 -0.0772
  320MOL0     H43168  13.539   4.090   6.566  0.0438 -0.1114  0.9636
  320MOL0     H43169  13.528   3.930   6.636 -0.1270  0.6903 -0.3974
  320MOL0     H43170  13.758   4.106   6.542 -0.1790  0.9527  2.6741
  320MOL0     H43171  13.787   3.937   6.512  1.8483  0.0930  1.1029
  320MOL0     H43172  13.709   3.921   6.764 -0.0752 -1.7146 -2.7119
  320MOL0     H43173  13.718   4.102   6.762 -0.0607  1.4088 -3.6496
  320MOL0     H43174  13.954   3.905   6.703 -0.5554  0.7640 -0.1782
  320MOL0     H43175  13.967   4.080   6.709 -0.6027  0.6512 -1.7705
  320MOL0     H43176  13.862   3.911   6.945  0.4566  1.7260  1.8914
  320MOL0     H43177  13.892   4.077   6.943  2.1305 -0.2903  1.0944
  320MOL0     H43178  14.052   3.958   7.058 -0.3062  3.9386  0.3803
  320MOL0     H43179  14.098   3.878   6.902 -0.3534 -0.7447  0.6390
  320MOL0     H43180  13.158   3.800   6.416 -0.7405  0.1478  0.0838
  320MOL0     H43181  12.930   3.762   6.329  2.1583  0.4686  2.1694
  320MOL0     H43182  12.673   3.789   5.866  0.3674 -2.8677  0.8865
  320MOL0     H43183  12.465   3.689   5.809 -0.5990  0.1491  0.8237
  320MOL0     H43184  10.766   2.980   4.868  0.0065 -0.3971  1.0929
  320MOL0     H43185  10.548   2.919   4.789 -1.8404  0.1009 -1.0212
  320MOL0     H43186  10.100   3.163   4.798  0.1035 -0.8270 -0.7557
  320MOL0     H43187   9.859   3.199   4.834  0.8050  0.6453  0.9921
  320MOL0     H43188   9.612   2.936   5.041 -1.3942 -0.0304  0.8070
  320MOL0     H43189   9.617   2.845   4.895 -1.1156 -0.5585  2.2219
  320MOL0     H43190   9.382   2.914   4.925  0.8126  1.5075  1.9069
  320MOL0     H43191   9.446   3.005   4.784  2.0757  0.9980 -0.8219
  320MOL0     H43192   9.312   3.136   4.920 -0.2768  0.4719  1.6838
  320MOL0     H43193   9.474   3.201   4.963 -3.0645  2.5320  1.3813
  320MOL0     H43194   9.321   2.996   5.129  1.1853 -0.6340  0.1865
  320MOL0     H43195   9.470   3.071   5.168 -0.0429 -2.0380 -0.0943
  320MOL0     H43196   9.187   3.362   5.266  0.5293 -0.8377  1.3444
  320MOL0     H43197   9.811   2.791   4.910  0.4103 -0.5605  2.0031
  320MOL0     H43198   9.988   2.642   4.933  2.6031 -2.3803  2.3174
  320MOL0     H43199  10.136   2.677   4.850 -1.6900 -0.4889 -0.5931
  320MOL0     H43200  10.119   2.727   5.024 -1.3656 -0.1332  1.0078
  321MOL0     O43201  10.751   6.351   1.639 -0.3342 -0.4523  1.3159
  321MOL0     C43202  10.703   6.282   1.550  0.5231 -0.4109  0.7124
  321MOL0     O43203  10.785   6.240   1.449 -0.3859 -0.5742  0.0197
  321MOL0     C43204  10.912   6.238   1.456 -0.6505  0.5276  0.5263
  321MOL0     C43205  11.000   6.222   1.575  0.7576  0.4048 -0.2905
  321MOL0     C43206  11.137   6.221   1.557  0.0834  0.2670  0.3637
  321MOL0     C43207  11.193   6.233   1.431 -0.2784 -0.1013  0.3509
  321MOL0     O43208  11.331   6.239   1.415 -0.4836 -0.0696  0.3631
  321MOL0     C43209  11.381   6.334   1.322 -0.8183 -0.2074 -0.0646
  321MOL0     C43210  11.529   6.370   1.363 -0.2039  0.3763 -0.2296
  321MOL0     C43211  11.561   6.510   1.294 -0.3694 -0.2682  0.1638
  321MOL0     C43212  11.698   6.555   1.339 -0.1091  0.8221 -1.2973
  321MOL0     C43213  11.816   6.460   1.304  0.2762 -0.0423  0.1228
  321MOL0     C43214  11.946   6.524   1.269 -1.0571 -0.0191  1.3772
  321MOL0     C43215  11.961   6.567   1.124 -0.7984 -0.5202  0.3840
  321MOL0     C43216  12.065   6.683   1.101 -0.0064 -0.9939  0.1474
  321MOL0     N43217  12.199   6.628   1.090 -0.3989  0.2962 -0.3666
  321MOL0     C43218  12.256   6.565   0.980  0.3413 -0.2347  0.8154
  321MOL0     C43219  12.389   6.554   1.001 -0.3583  0.0536 -0.5565
  321MOL0     C43220  12.482   6.506   0.903  0.4834  0.4651  0.5797
  321MOL0     C43221  12.528   6.365   0.927  0.2192  0.5154  0.0272
  321MOL0     C43222  12.603   6.328   1.058  0.3944  0.5222  0.0426
  321MOL0     C43223  12.736   6.403   1.085  0.6858  0.3701  0.4413
  321MOL0     O43224  12.775   6.384   1.218 -0.0957 -0.3404  0.1890
  321MOL0     C43225  12.888   6.446   1.268 -0.3531  0.1957  0.0484
  321MOL0     C43226  12.895   6.452   1.406 -0.3601 -0.5201  1.1769
  321MOL0     C43227  12.993   6.533   1.466 -0.5826 -0.3932 -0.4847
  321MOL0     C43228  13.094   6.586   1.392  0.7025  0.1315  0.6278
  321MOL0     C43229  13.199   6.656   1.458 -0.2211 -0.0363  0.5342
  321MOL0     O43230  13.212   6.639   1.593  0.6056  0.2861  0.5612
  321MOL0     C43231  13.298   6.728   1.661 -0.0049  0.4313  0.1115
  321MOL0     C43232  13.275   6.867   1.667  0.0724  1.2898  0.4960
  321MOL0     C43233  13.353   6.949   1.748 -0.5604 -0.8646 -0.3786
  321MOL0     C43234  13.460   6.895   1.820 -0.1997  0.3174  0.2910
  321MOL0     O43235  13.540   6.977   1.893 -0.4903  0.0039 -0.3755
  321MOL0     C43236  13.552   7.113   1.864  0.4690 -0.6077  0.1131
  321MOL0     C43237  13.661   7.176   1.956 -0.0676  0.0298 -0.5685
  321MOL0     C43238  13.798   7.117   1.921 -0.4906 -0.2281 -0.5032
  321MOL0     C43239  13.906   7.135   2.029  0.1215  0.3438  1.0255
  321MOL0     C43240  14.041   7.080   1.977  0.1829 -0.3511  0.2808
  321MOL0     C43241  14.101   7.187   1.889 -0.0733  0.3999 -0.5209
  321MOL0     C43242  14.218   7.113   1.808 -0.3358 -0.7160  0.0357
  321MOL0     C43243  14.289   7.226   1.730 -1.3099 -0.7603 -0.4196
  321MOL0    Cl43244  14.359   7.168   1.567 -0.1199 -0.0999 -0.6732
  321MOL0     C43245  13.489   6.759   1.815  0.1338 -0.7898 -0.5424
  321MOL0     C43246  13.396   6.676   1.742  0.1957 -1.0942  0.3121
  321MOL0     O43247  13.273   6.727   1.390  0.2511  1.0234 -0.1132
  321MOL0     C43248  13.086   6.580   1.252 -0.7024  1.0376 -0.6978
  321MOL0     C43249  12.989   6.510   1.189  0.5567 -0.3030 -0.2630
  321MOL0     N43250  12.421   6.615   1.122  0.5191 -0.2315  0.0272
  321MOL0     N43251  12.310   6.661   1.168  0.0865  0.0724 -0.8903
  321MOL0     C43252  11.117   6.242   1.315  1.6229  0.4783  0.2166
  321MOL0     C43253  10.976   6.236   1.334 -0.1818 -0.2339  0.7801
  321MOL0     C43254  10.567   6.229   1.547  0.2270 -0.1208 -0.5773
  321MOL0     C43255  10.472   6.310   1.621 -0.0357  0.3821  1.1331
  321MOL0     C43256  10.332   6.294   1.609  0.8972  0.6459  0.6011
  321MOL0     C43257  10.281   6.182   1.548  0.6141 -0.0853  0.8889
  321MOL0     O43258  10.149   6.146   1.526 -0.5369  0.4493 -0.3251
  321MOL0     C43259  10.065   6.258   1.506  0.1025  0.4648 -0.6242
  321MOL0     C43260   9.920   6.212   1.493 -0.3700 -0.0495 -0.0247
  321MOL0     C43261   9.907   6.134   1.356  0.7538  0.2822 -0.0162
  321MOL0     C43262   9.758   6.095   1.328  0.2070 -0.6344  0.2254
  321MOL0     C43263   9.702   6.030   1.445  0.7991  0.0781 -0.2995
  321MOL0     C43264   9.660   5.971   1.538  0.9831 -0.0209  0.2729
  321MOL0     C43265  10.370   6.102   1.475 -0.3303 -0.0190 -0.0104
  321MOL0     C43266  10.507   6.132   1.461 -0.4672  0.0910 -0.0480
  321MOL0     C43267  10.587   6.044   1.366  0.4031  0.5039 -0.5575
  321MOL0     H43268  10.964   6.197   1.674 -0.4240  2.7561 -0.0535
  321MOL0     H43269  11.201   6.215   1.644 -0.3997 -1.7305  0.6315
  321MOL0     H43270  11.381   6.280   1.227  2.7337 -0.5696  0.0211
  321MOL0     H43271  11.327   6.428   1.306 -3.6173 -1.5596  0.6880
  321MOL0     H43272  11.602   6.294   1.335  1.4382  1.0446  1.9198
  321MOL0     H43273  11.533   6.381   1.472  3.3252  2.2952 -0.4110
  321MOL0     H43274  11.487   6.582   1.331 -0.2005 -0.7864  1.6033
  321MOL0     H43275  11.553   6.506   1.185 -1.3848  0.1613  0.2116
  321MOL0     H43276  11.718   6.655   1.300  2.6579 -0.2328 -2.8528
  321MOL0     H43277  11.695   6.557   1.448 -2.5181 -4.6530 -0.9058
  321MOL0     H43278  11.837   6.398   1.392  1.4072  1.0348  0.6426
  321MOL0     H43279  11.780   6.394   1.224  1.9601  1.6914 -2.1898
  321MOL0     H43280  11.938   6.617   1.326 -1.5281  1.1799 -0.5564
  321MOL0     H43281  12.031   6.462   1.300  0.4638  1.2305 -0.0552
  321MOL0     H43282  11.862   6.603   1.096  1.0032  3.2527 -2.0809
  321MOL0     H43283  11.990   6.483   1.060 -0.1615  0.8428 -1.1864
  321MOL0     H43284  12.050   6.737   1.007 -0.6241 -1.6955 -0.1600
  321MOL0     H43285  12.058   6.759   1.179  0.0524 -1.2377  0.3903
  321MOL0     H43286  12.205   6.535   0.889 -1.9266  2.0649  1.2250
  321MOL0     H43287  12.439   6.503   0.803  2.2313 -2.3952 -0.2047
  321MOL0     H43288  12.566   6.576   0.909  1.4731 -0.7444  1.6932
  321MOL0     H43289  12.434   6.311   0.912 -0.5342  1.2955  1.6473
  321MOL0     H43290  12.594   6.333   0.846  1.7870 -1.4818  1.9723
  321MOL0     H43291  12.609   6.219   1.058  1.0459  0.5513 -0.7283
  321MOL0     H43292  12.536   6.347   1.143  1.9486  1.6385  1.0787
  321MOL0     H43293  12.728   6.511   1.069  1.9578  0.1273 -2.4005
  321MOL0     H43294  12.816   6.369   1.019  0.6257  1.7208 -0.3570
  321MOL0     H43295  12.816   6.410   1.467 -1.9511  0.3509 -0.2216
  321MOL0     H43296  12.981   6.527   1.574  2.4080  2.1041  0.1377
  321MOL0     H43297  13.186   6.902   1.615 -2.6446 -1.8112  2.6046
  321MOL0     H43298  13.329   7.053   1.763  0.3885 -0.4761 -1.4143
  321MOL0     H43299  13.561   7.135   1.757  1.4342 -0.2868  0.2511
  321MOL0     H43300  13.461   7.166   1.896  0.7636 -0.3813  0.5748
  321MOL0     H43301  13.661   7.285   1.953  0.6251  0.0176 -1.1705
  321MOL0     H43302  13.629   7.155   2.059 -0.9609  0.1675 -0.8021
  321MOL0     H43303  13.791   7.010   1.898 -0.5155  0.1012 -2.2331
  321MOL0     H43304  13.837   7.145   1.822  0.6960 -2.0290 -0.6120
  321MOL0     H43305  13.875   7.081   2.119  1.3057  0.2924  1.4200
  321MOL0     H43306  13.907   7.242   2.050 -3.7109  0.6285  0.4576
  321MOL0     H43307  14.030   6.986   1.922  0.2299 -0.8192  1.0592
  321MOL0     H43308  14.111   7.071   2.061  0.7186  0.0640 -0.1050
  321MOL0     H43309  14.029   7.229   1.818  0.3272  3.8085  0.9060
  321MOL0     H43310  14.140   7.268   1.951  3.3638  1.0112 -3.1286
  321MOL0     H43311  14.179   7.035   1.743  0.0787 -1.4389  0.6412
  321MOL0     H43312  14.289   7.049   1.861 -2.2272 -3.5428 -0.6485
  321MOL0     H43313  14.218   7.307   1.711  0.3871  0.4805 -1.7231
  321MOL0     H43314  14.364   7.262   1.801 -0.6125  0.8785 -1.9277
  321MOL0     H43315  13.576   6.723   1.867  0.0465 -0.6701 -0.3117
  321MOL0     H43316  13.412   6.568   1.738  0.2698 -1.0479 -1.2838
  321MOL0     H43317  13.161   6.628   1.190  1.7283 -1.5885  0.0261
  321MOL0     H43318  12.983   6.503   1.081 -0.9666  0.8470 -0.2860
  321MOL0     H43319  11.160   6.239   1.215 -2.5459  0.5388 -1.7727
  321MOL0     H43320  10.920   6.234   1.241 -0.3866 -2.6234  0.9110
  321MOL0     H43321  10.497   6.391   1.689  1.5567 -0.6788  1.8923
  321MOL0     H43322  10.261   6.355   1.664 -1.3534  0.6898 -2.1257
  321MOL0     H43323  10.094   6.305   1.412 -0.9733 -0.8699 -1.6719
  321MOL0     H43324  10.072   6.333   1.585  2.5290  0.5925 -0.8806
  321MOL0     H43325   9.856   6.301   1.498  2.7126  2.4253 -0.6543
  321MOL0     H43326   9.895   6.143   1.573 -1.2994 -0.3747 -0.5757
  321MOL0     H43327   9.975   6.049   1.348  1.3056  0.6240  0.9261
  321MOL0     H43328   9.932   6.197   1.270  0.5438 -0.2789 -0.4954
  321MOL0     H43329   9.706   6.189   1.306  1.6741  0.5553  1.6063
  321MOL0     H43330   9.753   6.038   1.235  0.1936  0.9239 -0.7791
  321MOL0     H43331   9.630   5.922   1.628  0.1412  0.7040  0.3965
  321MOL0     H43332  10.335   6.018   1.416  0.4683  0.4973 -1.2773
  321MOL0     H43333  10.524   5.988   1.296  1.5884  0.6723 -1.8172
  321MOL0     H43334  10.655   6.102   1.303 -1.5887  0.7210 -2.6378
  321MOL0     H43335  10.648   5.974   1.424 -0.4340  0.3465  0.1466
  322MOL0     O43336   0.798   7.844   5.135  0.2623  0.3511  0.3466
  322MOL0     C43337   0.772   7.903   5.031  0.2222  0.1427 -0.7801
  322MOL0     O43338   0.864   7.979   4.956 -0.6576 -0.1571  0.3138
  322MOL0     C43339   0.979   8.019   5.031 -0.2230  0.4954  0.3988
  322MOL0     C43340   0.972   8.074   5.157  0.3869 -1.0627 -0.1778
  322MOL0     C43341   1.088   8.106   5.233 -0.0537 -0.1186  0.5621
  322MOL0     C43342   1.212   8.089   5.176 -0.4817  0.2236  0.7176
  322MOL0     O43343   1.331   8.125   5.237  0.4836  0.0863 -0.2210
  322MOL0     C43344   1.389   8.013   5.303  0.0466 -0.4242 -0.3564
  322MOL0     C43345   1.530   8.005   5.254  0.1337  0.7817  0.3146
  322MOL0     C43346   1.619   8.101   5.327 -0.3674 -0.0401 -0.5035
  322MOL0     C43347   1.772   8.099   5.282 -0.4139 -0.2954  0.1122
  322MOL0     C43348   1.853   8.181   5.379 -0.3763  0.2718  0.0567
  322MOL0     C43349   1.991   8.205   5.318  0.5625 -0.7851 -0.0568
  322MOL0     C43350   2.098   8.240   5.414 -0.7011  0.1215  0.4499
  322MOL0     C43351   2.227   8.238   5.332  0.3059 -0.3376  0.3567
  322MOL0     N43352   2.355   8.292   5.394  0.4016  0.0949  0.7402
  322MOL0     C43353   2.352   8.412   5.455 -0.5793 -1.0267  0.1071
  322MOL0     C43354   2.483   8.433   5.479 -0.2680  0.6281  0.2565
  322MOL0     C43355   2.546   8.559   5.536  0.2572 -0.0149 -0.0998
  322MOL0     C43356   2.629   8.633   5.429  0.4296  0.5962 -0.2804
  322MOL0     C43357   2.723   8.731   5.509  0.3377  0.0146 -0.4190
  322MOL0     C43358   2.815   8.827   5.419 -0.3003  0.0946  0.6710
  322MOL0     O43359   2.897   8.742   5.338  0.2833  0.7153  0.1624
  322MOL0     C43360   3.026   8.773   5.321  0.1453  0.4103 -0.5262
  322MOL0     C43361   3.079   8.906   5.323  0.0366  0.9232 -0.2527
  322MOL0     C43362   3.213   8.924   5.291  0.3262  0.3793  0.1597
  322MOL0     C43363   3.296   8.809   5.268 -0.2274  0.2921  0.1358
  322MOL0     C43364   3.440   8.826   5.227  0.0477  0.8726 -0.2253
  322MOL0     O43365   3.511   8.709   5.221  0.0452  0.2791 -0.4835
  322MOL0     C43366   3.651   8.699   5.203  0.2866  0.7865 -1.2279
  322MOL0     C43367   3.714   8.585   5.273  0.8533 -0.4623 -0.0352
  322MOL0     C43368   3.852   8.571   5.268  0.1040  0.0488  0.4986
  322MOL0     C43369   3.931   8.666   5.197  0.1063 -0.3264  1.3080
  322MOL0     O43370   4.069   8.641   5.186  0.1407 -0.2388 -0.1770
  322MOL0     C43371   4.156   8.705   5.090 -0.4614 -0.2958  0.0994
  322MOL0     C43372   4.126   8.684   4.937 -0.6921 -0.8212 -0.4120
  322MOL0     C43373   4.215   8.569   4.885 -0.4708 -0.1755 -0.4875
  322MOL0     C43374   4.351   8.605   4.845  1.0798  0.1759 -0.1483
  322MOL0     C43375   4.441   8.474   4.818  0.1906 -0.9222  0.1256
  322MOL0     C43376   4.569   8.512   4.742 -1.2121 -0.7563  0.0598
  322MOL0     C43377   4.659   8.382   4.718  0.6387  0.8200  0.2724
  322MOL0     C43378   4.780   8.400   4.630 -0.2421 -0.6331  0.3863
  322MOL0    Cl43379   4.712   8.445   4.467  0.0092 -0.0879 -0.0834
  322MOL0     C43380   3.870   8.777   5.135 -0.0075  0.0057 -0.2997
  322MOL0     C43381   3.730   8.792   5.135  0.4597  0.0447 -0.1953
  322MOL0     O43382   3.482   8.938   5.206 -0.1965 -0.3636 -0.7341
  322MOL0     C43383   3.240   8.678   5.272 -0.0183 -0.0645  0.7429
  322MOL0     C43384   3.102   8.665   5.294  0.3845  0.5852  0.3098
  322MOL0     N43385   2.553   8.319   5.431  0.4275 -1.0670 -0.5879
  322MOL0     N43386   2.478   8.235   5.374  0.8572 -0.7711  0.2809
  322MOL0     C43387   1.213   8.043   5.042  0.1218 -0.6332  0.5028
  322MOL0     C43388   1.102   8.003   4.972 -0.3972  0.3321  0.1440
  322MOL0     C43389   0.634   7.893   4.987  0.0204 -0.3645 -0.1485
  322MOL0     C43390   0.549   7.797   5.056  0.0475  0.3348  0.4740
  322MOL0     C43391   0.426   7.767   5.001 -0.0369 -0.2517  0.2423
  322MOL0     C43392   0.371   7.849   4.892  0.0235 -0.1240 -0.4943
  322MOL0     O43393   0.244   7.827   4.842 -0.2054 -0.1248  0.2766
  322MOL0     C43394   0.247   7.749   4.721  1.1973 -0.6884  0.6173
  322MOL0     C43395   0.105   7.691   4.693  0.4486 -0.2832 -0.1479
  322MOL0     C43396   0.122   7.565   4.605  0.5167  0.1513 -0.4927
  322MOL0     C43397   0.192   7.589   4.477 -0.2266 -0.8724  0.1318
  322MOL0     C43398   0.112   7.649   4.372 -0.3427 -0.0034  0.0936
  322MOL0     C43399   0.031   7.686   4.283 -0.6005 -0.2137 -0.0328
  322MOL0     C43400   0.443   7.955   4.842 -0.8133  0.4550 -0.3400
  322MOL0     C43401   0.575   7.981   4.878 -0.1992 -0.1570 -0.2339
  322MOL0     C43402   0.634   8.100   4.807 -0.4575 -0.7567  0.3672
  322MOL0     H43403   0.875   8.105   5.194  0.4738 -0.0508 -0.7552
  322MOL0     H43404   1.078   8.146   5.334  0.7063  0.9609  0.2244
  322MOL0     H43405   1.396   8.024   5.412  0.6416  0.6443 -0.4852
  322MOL0     H43406   1.332   7.922   5.284 -0.6711 -0.9800  3.6924
  322MOL0     H43407   1.527   8.015   5.145 -1.2507 -0.1522  0.2319
  322MOL0     H43408   1.564   7.903   5.277  0.8893  0.8036 -0.6396
  322MOL0     H43409   1.620   8.078   5.434  0.7803  2.0738 -0.0051
  322MOL0     H43410   1.577   8.202   5.322 -3.4274 -1.0833  1.5347
  322MOL0     H43411   1.827   8.005   5.283  0.4749  0.1913  1.8600
  322MOL0     H43412   1.777   8.149   5.185 -2.1087  0.9199  0.6110
  322MOL0     H43413   1.795   8.273   5.391  2.8434  2.4392  0.1968
  322MOL0     H43414   1.853   8.134   5.478 -1.5462 -0.9923 -0.5163
  322MOL0     H43415   2.017   8.121   5.253  0.2674 -0.7162 -0.2700
  322MOL0     H43416   1.973   8.293   5.254 -2.4650 -0.2215  1.3875
  322MOL0     H43417   2.095   8.163   5.492 -1.5820 -0.3596 -0.0501
  322MOL0     H43418   2.082   8.340   5.455  0.0344  0.5729 -0.3302
  322MOL0     H43419   2.243   8.133   5.304  0.3238  0.0430 -1.1556
  322MOL0     H43420   2.198   8.291   5.241 -1.3357  0.7081  1.4372
  322MOL0     H43421   2.271   8.478   5.482  1.2899 -0.0809  4.2259
  322MOL0     H43422   2.473   8.620   5.590  1.5541 -0.2672  2.0684
  322MOL0     H43423   2.606   8.532   5.623 -1.3699  1.6784  1.6283
  322MOL0     H43424   2.691   8.565   5.370 -0.8221  0.0379 -0.9787
  322MOL0     H43425   2.558   8.682   5.363  0.1741  1.1458  0.3902
  322MOL0     H43426   2.775   8.676   5.588  0.3531  2.0018  1.0531
  322MOL0     H43427   2.657   8.810   5.548  0.2247  1.1106 -2.6871
  322MOL0     H43428   2.879   8.888   5.483 -1.1535 -1.1771  2.8387
  322MOL0     H43429   2.747   8.875   5.348  2.2868 -0.7456 -2.6007
  322MOL0     H43430   3.020   8.993   5.350 -0.2071  0.6608  0.0619
  322MOL0     H43431   3.260   9.022   5.300  0.1506  0.6138 -1.3196
  322MOL0     H43432   3.654   8.503   5.311 -1.1196  1.3037  0.8897
  322MOL0     H43433   3.905   8.482   5.301 -1.2011 -1.2527 -0.7736
  322MOL0     H43434   4.157   8.810   5.121 -1.4610  0.1413 -1.2815
  322MOL0     H43435   4.258   8.676   5.119 -0.9749 -3.5369 -0.9332
  322MOL0     H43436   4.020   8.666   4.921 -2.0422 -0.4645  5.6811
  322MOL0     H43437   4.154   8.781   4.895  0.4623 -0.1236  1.8082
  322MOL0     H43438   4.213   8.503   4.972 -3.2126  2.2688  1.5111
  322MOL0     H43439   4.161   8.524   4.802 -0.5437  0.6892 -0.9255
  322MOL0     H43440   4.403   8.650   4.930 -0.3685 -0.0059  0.8776
  322MOL0     H43441   4.349   8.674   4.759  1.9789  0.4378  0.0291
  322MOL0     H43442   4.395   8.394   4.759  2.0511  0.9731 -4.2693
  322MOL0     H43443   4.473   8.432   4.914  0.4280  0.3021  0.5958
  322MOL0     H43444   4.529   8.553   4.649 -2.4749 -1.0557  0.4433
  322MOL0     H43445   4.632   8.583   4.797 -1.8358  0.8748 -1.2341
  322MOL0     H43446   4.601   8.306   4.664  1.5185 -0.2872  0.8446
  322MOL0     H43447   4.687   8.336   4.813  1.3800  1.3841  0.3350
  322MOL0     H43448   4.846   8.481   4.663 -0.3290 -0.1958 -0.4951
  322MOL0     H43449   4.829   8.303   4.624 -1.2713 -1.3481  2.4673
  322MOL0     H43450   3.929   8.853   5.086  2.7226  0.0107  2.6987
  322MOL0     H43451   3.677   8.866   5.076 -1.7424 -2.1270 -1.1223
  322MOL0     H43452   3.295   8.590   5.238 -1.7713 -1.7419  2.0233
  322MOL0     H43453   3.050   8.569   5.301 -1.8339  1.6003 -0.9324
  322MOL0     H43454   1.317   8.037   5.014  0.0388 -0.9079  0.2536
  322MOL0     H43455   1.122   7.956   4.876  1.7372  1.0713  0.1732
  322MOL0     H43456   0.585   7.744   5.144  1.1063 -0.7474 -0.5654
  322MOL0     H43457   0.357   7.701   5.051 -2.5892  0.1296 -2.4766
  322MOL0     H43458   0.315   7.667   4.746  0.0822 -1.9932 -0.4886
  322MOL0     H43459   0.276   7.824   4.647  0.0559 -0.1912  0.6413
  322MOL0     H43460   0.037   7.755   4.635  1.1885 -0.9006 -1.7574
  322MOL0     H43461   0.054   7.660   4.784  1.1358 -0.3626  0.2153
  322MOL0     H43462   0.021   7.523   4.599  1.4124 -2.1805 -0.4310
  322MOL0     H43463   0.187   7.498   4.663  1.5799  0.6492 -1.0967
  322MOL0     H43464   0.282   7.648   4.496 -1.6214  0.7660  2.1392
  322MOL0     H43465   0.233   7.501   4.427  0.7316 -0.7236  0.6279
  322MOL0     H43466  -0.024   7.713   4.195 -0.5226 -0.9252 -0.3095
  322MOL0     H43467   0.396   8.009   4.761 -2.2473  0.1881  0.2837
  322MOL0     H43468   0.562   8.177   4.778 -0.2781 -0.1693  1.4415
  322MOL0     H43469   0.703   8.146   4.877  0.5168 -1.3819 -0.1572
  322MOL0     H43470   0.690   8.070   4.718  2.5425 -0.8707  2.1924
  323MOL0     O43471   2.636   2.390   6.912  0.2960  0.0594 -0.7410
  323MOL0     C43472   2.702   2.291   6.937 -0.5083  0.1777  1.3570
  323MOL0     O43473   2.654   2.171   6.982 -0.0932 -0.9990  0.4706
  323MOL0     C43474   2.521   2.143   6.982  0.1318  0.0029  0.1016
  323MOL0     C43475   2.476   2.025   6.926 -0.2803  0.0491  0.1803
  323MOL0     C43476   2.340   1.987   6.924  0.0542 -0.1865  0.4854
  323MOL0     C43477   2.240   2.063   6.988 -0.0504  0.4594 -0.2547
  323MOL0     O43478   2.110   2.008   7.007 -0.6406  1.1139 -0.1684
  323MOL0     C43479   2.010   2.093   7.059 -0.6428  0.4181 -0.6321
  323MOL0     C43480   1.881   2.012   7.059  0.2781  0.1984  0.5326
  323MOL0     C43481   1.763   2.095   7.107  0.6276 -0.1804  0.1368
  323MOL0     C43482   1.772   2.123   7.254  0.1969  0.2664 -0.5653
  323MOL0     C43483   1.738   2.005   7.350 -0.8656 -0.0577  0.5985
  323MOL0     C43484   1.587   1.956   7.347  0.2122  0.6778  1.1291
  323MOL0     C43485   1.552   1.871   7.470  1.2451  0.3343  0.4495
  323MOL0     C43486   1.398   1.838   7.490  0.1600 -0.9097 -0.1157
  323MOL0     N43487   1.379   1.746   7.610 -0.0659  0.2664  0.4361
  323MOL0     C43488   1.455   1.635   7.626  0.0866 -0.2996  0.7257
  323MOL0     C43489   1.422   1.575   7.737 -0.2262 -0.0065  0.2557
  323MOL0     C43490   1.470   1.434   7.777  0.2269  0.0889  0.4943
  323MOL0     C43491   1.618   1.433   7.825 -0.2201 -0.5170  0.0185
  323MOL0     C43492   1.662   1.285   7.833 -0.4067  0.3490  0.1513
  323MOL0     C43493   1.813   1.273   7.848  0.0661  0.9049  0.7347
  323MOL0     O43494   1.848   1.322   7.976  0.4201  0.5275  0.8054
  323MOL0     C43495   1.967   1.279   8.022  0.0991  0.0175 -0.4369
  323MOL0     C43496   1.985   1.152   8.063 -0.5861  0.0699 -0.2404
  323MOL0     C43497   2.114   1.107   8.087  0.1220  0.1817 -0.3391
  323MOL0     C43498   2.224   1.195   8.091  0.7737 -0.2307  0.2719
  323MOL0     C43499   2.365   1.159   8.130  0.5704  1.1546  0.3786
  323MOL0     O43500   2.468   1.248   8.117  0.2578 -0.8787  0.0179
  323MOL0     C43501   2.530   1.261   7.999  0.6767 -0.0694 -0.1638
  323MOL0     C43502   2.531   1.148   7.905  0.6419  0.4961  0.4823
  323MOL0     C43503   2.571   1.171   7.770 -1.3404 -1.0893 -0.6250
  323MOL0     C43504   2.635   1.291   7.743  0.3977 -0.3871  0.2924
  323MOL0     O43505   2.709   1.306   7.628  0.5799  0.1451  0.0198
  323MOL0     C43506   2.817   1.400   7.619 -0.0337  0.8430 -0.0927
  323MOL0     C43507   2.896   1.392   7.483 -0.2933  0.4511  0.1139
  323MOL0     C43508   3.018   1.483   7.486  0.2995 -1.2556 -0.2264
  323MOL0     C43509   3.118   1.427   7.393  0.6557  0.1655 -1.3159
  323MOL0     C43510   3.256   1.502   7.389  0.6407 -0.3826  0.0446
  323MOL0     C43511   3.367   1.421   7.330  0.8334  1.4019 -0.0752
  323MOL0     C43512   3.493   1.475   7.401 -0.4402  0.0447 -0.3267
  323MOL0     C43513   3.622   1.410   7.346  0.2283  0.4488 -0.0157
  323MOL0    Cl43514   3.631   1.443   7.169  0.1119  0.1016  0.0348
  323MOL0     C43515   2.639   1.399   7.835 -0.0068 -0.4858 -0.1414
  323MOL0     C43516   2.590   1.379   7.965 -0.4044 -0.3273 -0.1838
  323MOL0     O43517   2.368   1.047   8.186 -0.0799 -0.1781  0.8921
  323MOL0     C43518   2.196   1.326   8.061 -0.1866 -0.1101 -0.2349
  323MOL0     C43519   2.070   1.367   8.019 -0.4074 -0.5720 -0.1882
  323MOL0     N43520   1.312   1.651   7.784 -0.5673 -0.0029 -0.3019
  323MOL0     N43521   1.286   1.751   7.707  0.3005 -0.4683  0.1415
  323MOL0     C43522   2.293   2.172   7.060  1.6941 -0.4781 -0.3213
  323MOL0     C43523   2.429   2.223   7.047  0.4018  0.0047 -0.0421
  323MOL0     C43524   2.854   2.309   6.920  0.7792 -0.0948  0.1651
  323MOL0     C43525   2.942   2.207   6.964 -0.0972 -0.6339  0.7119
  323MOL0     C43526   3.070   2.206   6.930 -0.9039 -0.5290 -0.4004
  323MOL0     C43527   3.131   2.301   6.847 -0.2145 -0.0484  0.3895
  323MOL0     O43528   3.262   2.282   6.802  0.1607 -0.6220  0.1808
  323MOL0     C43529   3.335   2.387   6.730 -0.0596 -0.3424 -0.5268
  323MOL0     C43530   3.485   2.389   6.717  0.1169 -0.1832 -0.7779
  323MOL0     C43531   3.537   2.262   6.644  0.5909 -0.2026  1.3244
  323MOL0     C43532   3.685   2.290   6.586 -0.4663  0.6225  0.3426
  323MOL0     C43533   3.746   2.179   6.523 -0.0757  0.3766  0.5281
  323MOL0     C43534   3.812   2.086   6.465  0.0754 -0.3936 -0.1666
  323MOL0     C43535   3.055   2.410   6.814 -0.3309  1.0309 -0.0354
  323MOL0     C43536   2.921   2.416   6.847 -0.1360 -0.9176  0.2728
  323MOL0     C43537   2.849   2.538   6.784  0.3994 -0.4703  0.0490
  323MOL0     H43538   2.551   1.958   6.884 -1.5453 -0.6887 -0.9693
  323MOL0     H43539   2.319   1.893   6.875  2.4338 -0.8082  0.5056
  323MOL0     H43540   2.021   2.131   7.161  0.5446 -3.1218  0.6810
  323MOL0     H43541   2.006   2.178   6.990 -0.4749 -0.4019 -1.6607
  323MOL0     H43542   1.884   1.921   7.119  3.3881  0.2440  0.6195
  323MOL0     H43543   1.855   1.969   6.962 -1.4311 -0.4617  1.2506
  323MOL0     H43544   1.673   2.042   7.075  0.1996  0.5661  0.0702
  323MOL0     H43545   1.765   2.190   7.052 -3.1694  0.3743  0.6919
  323MOL0     H43546   1.868   2.164   7.286  0.1081  0.9296 -1.1169
  323MOL0     H43547   1.702   2.203   7.280  1.1336  0.7135  0.6548
  323MOL0     H43548   1.805   1.921   7.330 -0.7612 -0.0360  0.8485
  323MOL0     H43549   1.768   2.041   7.449  1.8549  1.4441 -0.6616
  323MOL0     H43550   1.524   2.045   7.339  1.9464  1.7910 -0.7135
  323MOL0     H43551   1.562   1.885   7.268  0.8143  0.7459  0.8801
  323MOL0     H43552   1.572   1.914   7.568  1.0390 -0.4429  0.8450
  323MOL0     H43553   1.606   1.777   7.456  2.9669  1.5303 -1.5908
  323MOL0     H43554   1.351   1.934   7.513  4.0818  0.6524  2.5395
  323MOL0     H43555   1.358   1.806   7.394 -0.6259 -1.0022  0.2343
  323MOL0     H43556   1.527   1.589   7.558  0.5284 -2.4990  2.5473
  323MOL0     H43557   1.411   1.394   7.860  2.3590  0.3021  2.2020
  323MOL0     H43558   1.462   1.374   7.686 -1.2403  1.8184 -0.5971
  323MOL0     H43559   1.694   1.492   7.772 -2.0139  0.3982 -1.6657
  323MOL0     H43560   1.606   1.478   7.923  2.4648  2.7385 -0.9583
  323MOL0     H43561   1.644   1.222   7.744 -0.5685 -0.7724  0.9519
  323MOL0     H43562   1.611   1.232   7.914 -0.0315 -1.1109 -0.5175
  323MOL0     H43563   1.864   1.329   7.769  1.3288  0.2753  1.0708
  323MOL0     H43564   1.832   1.166   7.839  0.4197  1.0027  0.3128
  323MOL0     H43565   1.899   1.087   8.059 -0.7991  0.3410 -0.0848
  323MOL0     H43566   2.133   1.007   8.122  2.9775  0.6424 -0.3782
  323MOL0     H43567   2.501   1.048   7.937 -0.9924  1.0637  0.8314
  323MOL0     H43568   2.588   1.092   7.698 -0.5256 -2.1268  0.6338
  323MOL0     H43569   2.772   1.498   7.633 -0.9345  0.1185  2.7903
  323MOL0     H43570   2.892   1.389   7.698  1.4449  1.8497 -1.2931
  323MOL0     H43571   2.921   1.288   7.457  1.5841  0.5713  1.2260
  323MOL0     H43572   2.836   1.431   7.401  0.9202  2.5724  0.1630
  323MOL0     H43573   3.000   1.581   7.439  2.8531 -1.4463 -1.8080
  323MOL0     H43574   3.073   1.484   7.580  1.8476 -2.5776 -1.0788
  323MOL0     H43575   3.080   1.429   7.291 -0.1091 -0.8359 -1.0724
  323MOL0     H43576   3.133   1.322   7.421 -1.1275  0.3910  0.7122
  323MOL0     H43577   3.279   1.523   7.494 -2.9833  0.9453  0.7340
  323MOL0     H43578   3.241   1.600   7.343 -0.8643 -0.4697  0.2985
  323MOL0     H43579   3.353   1.318   7.363  0.2475  1.6557  0.5020
  323MOL0     H43580   3.381   1.420   7.222  3.0619 -0.2150  0.1580
  323MOL0     H43581   3.476   1.454   7.507 -2.1791 -0.2526 -0.6363
  323MOL0     H43582   3.481   1.581   7.378 -0.3461 -0.0710 -0.9289
  323MOL0     H43583   3.710   1.441   7.403 -0.4126 -0.3473  1.4535
  323MOL0     H43584   3.614   1.302   7.360  0.4065  0.3549 -0.5864
  323MOL0     H43585   2.674   1.498   7.807  1.3636 -1.1688 -0.9172
  323MOL0     H43586   2.578   1.469   8.024 -0.5712  0.8562 -1.9398
  323MOL0     H43587   2.272   1.403   8.065 -0.2435 -0.1055  1.4153
  323MOL0     H43588   2.046   1.470   7.994 -0.4063 -0.3349  0.7407
  323MOL0     H43589   2.220   2.225   7.120  0.2960 -3.2773  0.6241
  323MOL0     H43590   2.458   2.316   7.095 -0.9464  0.7623 -0.6436
  323MOL0     H43591   2.906   2.116   7.011 -3.9211 -0.9284 -2.2584
  323MOL0     H43592   3.141   2.129   6.956  1.2176  1.9548  1.6737
  323MOL0     H43593   3.313   2.484   6.776 -0.8653  0.2302 -2.0384
  323MOL0     H43594   3.292   2.407   6.631  1.2888  1.8120 -0.7458
  323MOL0     H43595   3.523   2.386   6.819 -0.7344  2.2805 -0.3134
  323MOL0     H43596   3.519   2.480   6.668 -0.6285  0.0082 -0.9624
  323MOL0     H43597   3.477   2.246   6.554 -0.0846  0.0820  1.7214
  323MOL0     H43598   3.521   2.173   6.705 -2.5797 -1.3199 -0.9003
  323MOL0     H43599   3.686   2.371   6.513  2.3313  0.1965 -0.1928
  323MOL0     H43600   3.745   2.320   6.672  3.0736 -1.4630 -1.1807
  323MOL0     H43601   3.877   2.009   6.430  0.4821 -0.0806 -0.1033
  323MOL0     H43602   3.088   2.485   6.743  1.7664  1.9421  1.7738
  323MOL0     H43603   2.924   2.610   6.751 -0.6483 -0.5602 -2.8081
  323MOL0     H43604   2.800   2.505   6.692  1.2862 -1.0275 -0.2442
  323MOL0     H43605   2.782   2.592   6.852  2.5192  3.2740 -0.5746
  324MOL0     O43606   8.180   4.759   4.248 -0.4587  0.1182  0.0950
  324MOL0     C43607   8.190   4.816   4.358  0.2780 -0.1144  0.8272
  324MOL0     O43608   8.081   4.826   4.446  0.3312 -0.6888 -0.0269
  324MOL0     C43609   7.952   4.815   4.404 -0.7616  0.5940  0.3550
  324MOL0     C43610   7.897   4.723   4.313 -0.1244  0.2773 -0.4002
  324MOL0     C43611   7.759   4.723   4.295  0.5867 -0.0524 -0.4930
  324MOL0     C43612   7.677   4.822   4.359  0.0873  0.0083  1.0966
  324MOL0     O43613   7.536   4.827   4.330 -1.5515 -0.4714  0.7400
  324MOL0     C43614   7.459   4.843   4.447 -0.3324  0.4338  0.8869
  324MOL0     C43615   7.364   4.968   4.434 -0.3377  0.1662  0.4320
  324MOL0     C43616   7.251   4.964   4.534  0.0262  0.1322  0.2965
  324MOL0     C43617   7.167   5.090   4.529  0.1045 -0.5418  0.4271
  324MOL0     C43618   7.035   5.074   4.610 -0.2126  0.1779  0.7636
  324MOL0     C43619   6.927   5.030   4.503  0.6478 -0.3901 -0.0842
  324MOL0     C43620   6.786   5.056   4.562  0.3057 -0.5342  0.5443
  324MOL0     C43621   6.673   4.999   4.472  0.6183  0.4439 -0.5480
  324MOL0     N43622   6.679   4.859   4.460 -0.4449  0.3306  0.2271
  324MOL0     C43623   6.732   4.781   4.358  0.7633  0.1397 -0.4637
  324MOL0     C43624   6.690   4.656   4.380 -0.3157  0.6969 -0.3232
  324MOL0     C43625   6.718   4.538   4.292 -0.5799  0.2491 -0.6729
  324MOL0     C43626   6.828   4.450   4.360 -0.4828 -0.3540 -0.0438
  324MOL0     C43627   6.882   4.336   4.276  0.8942 -0.5568  0.4387
  324MOL0     C43628   6.981   4.257   4.364  0.2776  0.6730  0.4651
  324MOL0     O43629   7.100   4.340   4.401 -0.9786  0.7500 -0.6403
  324MOL0     C43630   7.208   4.306   4.331  0.2822 -0.1265  0.1214
  324MOL0     C43631   7.208   4.231   4.215 -0.4287  0.9751 -0.3947
  324MOL0     C43632   7.333   4.200   4.157 -0.3265  0.4449  0.4290
  324MOL0     C43633   7.454   4.250   4.204 -0.2062  0.9624  0.7088
  324MOL0     C43634   7.576   4.217   4.136 -0.2584 -0.7949 -0.2249
  324MOL0     O43635   7.574   4.120   4.042  0.8068 -0.3183 -0.6056
  324MOL0     C43636   7.693   4.060   3.996  0.2585 -0.4762  0.6241
  324MOL0     C43637   7.701   4.021   3.863  0.1111 -0.0970  0.5930
  324MOL0     C43638   7.807   3.955   3.803 -0.5137  0.6456  0.7075
  324MOL0     C43639   7.923   3.923   3.881  0.7953 -0.5890 -0.2620
  324MOL0     O43640   8.024   3.863   3.809 -0.1442  0.2141  0.2667
  324MOL0     C43641   8.116   3.794   3.895  0.5575  0.3576  0.3468
  324MOL0     C43642   8.213   3.724   3.806 -0.1704 -0.4594 -0.7056
  324MOL0     C43643   8.317   3.665   3.899 -0.9182  0.4360  0.3761
  324MOL0     C43644   8.438   3.598   3.828 -0.2909 -0.0301 -0.0187
  324MOL0     C43645   8.538   3.699   3.771  0.0102  0.4870 -0.2902
  324MOL0     C43646   8.583   3.802   3.880 -0.2115 -0.0246  0.3854
  324MOL0     C43647   8.651   3.743   4.007 -0.1564  0.5858  0.0333
  324MOL0     C43648   8.711   3.839   4.102  0.3226  0.2643 -0.4409
  324MOL0    Cl43649   8.842   3.923   4.015 -0.0055  0.4420 -0.5081
  324MOL0     C43650   7.919   3.971   4.021  0.0138  0.3817 -0.7115
  324MOL0     C43651   7.810   4.040   4.070  0.3319  0.4427  0.8534
  324MOL0     O43652   7.673   4.289   4.159 -0.1487 -0.3586 -0.1959
  324MOL0     C43653   7.446   4.329   4.317  0.4415  0.2603 -0.2432
  324MOL0     C43654   7.324   4.358   4.379 -0.4683  0.7125 -0.9929
  324MOL0     N43655   6.618   4.656   4.494 -0.6635  0.3844  0.3705
  324MOL0     N43656   6.607   4.778   4.542  0.1025 -0.0695 -0.4730
  324MOL0     C43657   7.738   4.914   4.437 -0.1193  0.3506  0.0691
  324MOL0     C43658   7.877   4.906   4.466  0.1170 -0.3831 -0.3217
  324MOL0     C43659   8.320   4.860   4.403 -0.4386 -0.3666  0.2295
  324MOL0     C43660   8.435   4.822   4.335 -0.4444 -0.3070 -0.3187
  324MOL0     C43661   8.564   4.857   4.371 -0.0562  0.2567 -0.3473
  324MOL0     C43662   8.584   4.945   4.473 -0.8301 -0.4486 -0.5826
  324MOL0     O43663   8.713   4.972   4.502 -0.7538  0.0409  0.3381
  324MOL0     C43664   8.750   5.043   4.621  0.0749  0.0495  0.4879
  324MOL0     C43665   8.765   5.198   4.581 -0.6040  0.0162 -0.3966
  324MOL0     C43666   8.823   5.281   4.694  0.5575  0.1308 -0.4537
  324MOL0     C43667   8.866   5.421   4.652 -0.2885 -0.2107  0.2831
  324MOL0     C43668   8.749   5.519   4.661  0.3174 -0.2769 -0.2958
  324MOL0     C43669   8.647   5.590   4.673 -0.0253 -0.5636  0.6286
  324MOL0     C43670   8.475   5.001   4.536 -0.0856  0.1851 -0.3749
  324MOL0     C43671   8.342   4.966   4.504 -0.7413  0.5053 -0.0639
  324MOL0     C43672   8.230   5.040   4.562  0.7963 -0.2364 -0.1687
  324MOL0     H43673   7.961   4.661   4.251  2.2470  0.7854  1.3957
  324MOL0     H43674   7.709   4.662   4.220 -0.1014 -0.4480  0.2793
  324MOL0     H43675   7.401   4.751   4.446  1.0647 -0.6109  3.8496
  324MOL0     H43676   7.512   4.837   4.543  0.8318 -1.0841  0.1803
  324MOL0     H43677   7.325   4.978   4.332 -3.8599 -0.5093  1.5628
  324MOL0     H43678   7.417   5.062   4.449 -0.5173  0.8200 -2.5056
  324MOL0     H43679   7.304   4.963   4.630  1.7243  1.2735 -0.5917
  324MOL0     H43680   7.192   4.873   4.525 -1.4347  0.9154  1.3894
  324MOL0     H43681   7.226   5.176   4.561 -2.3311  0.8053  1.5931
  324MOL0     H43682   7.143   5.118   4.426  0.0519 -1.5501  0.1546
  324MOL0     H43683   7.062   5.007   4.692  1.3108 -1.8864 -1.2719
  324MOL0     H43684   7.004   5.169   4.655  1.1942  0.5963  0.9243
  324MOL0     H43685   6.941   5.092   4.414 -0.6496 -0.4587 -0.3661
  324MOL0     H43686   6.947   4.925   4.480  1.5981 -0.3409  0.4883
  324MOL0     H43687   6.751   5.160   4.560  0.9662 -0.3175  0.1551
  324MOL0     H43688   6.785   5.016   4.664  1.3021 -0.4093  0.6134
  324MOL0     H43689   6.582   5.034   4.521  0.5534  0.8298 -0.9381
  324MOL0     H43690   6.663   5.046   4.374  3.0674  0.3858 -0.8928
  324MOL0     H43691   6.773   4.817   4.265  2.8445 -3.1189 -0.9590
  324MOL0     H43692   6.623   4.484   4.278 -0.3490 -1.3496  2.6868
  324MOL0     H43693   6.742   4.566   4.190 -2.5058  0.4934 -1.1028
  324MOL0     H43694   6.904   4.522   4.391 -2.5261  1.5923  0.6832
  324MOL0     H43695   6.792   4.408   4.454 -0.3815 -0.8491 -0.2208
  324MOL0     H43696   6.918   4.383   4.183 -1.6952  0.5172 -0.1108
  324MOL0     H43697   6.804   4.266   4.247  0.1787 -1.9087  4.9093
  324MOL0     H43698   7.010   4.164   4.316  1.7582  0.2360  2.0936
  324MOL0     H43699   6.934   4.228   4.459  2.1406  2.4556  2.0500
  324MOL0     H43700   7.122   4.180   4.172 -0.4154 -1.4697  2.1668
  324MOL0     H43701   7.347   4.131   4.074 -1.6817 -1.0705  1.3888
  324MOL0     H43702   7.613   4.054   3.807 -0.9062  0.3242  2.3586
  324MOL0     H43703   7.805   3.927   3.698  2.0983  0.8254  0.5375
  324MOL0     H43704   8.174   3.864   3.955 -0.0435 -0.6060  2.1386
  324MOL0     H43705   8.056   3.730   3.960 -1.1222  1.6661  0.1414
  324MOL0     H43706   8.166   3.650   3.742 -1.7802  0.0701 -0.1806
  324MOL0     H43707   8.259   3.803   3.745  0.5110 -1.7000 -1.8564
  324MOL0     H43708   8.343   3.748   3.965  3.6478 -0.7996  0.4639
  324MOL0     H43709   8.277   3.589   3.967  2.7413 -2.0269  0.0585
  324MOL0     H43710   8.393   3.536   3.750 -1.6181  1.6546 -0.6402
  324MOL0     H43711   8.486   3.521   3.891 -2.3564  0.5634  2.4625
  324MOL0     H43712   8.496   3.740   3.679 -0.0271 -2.6917 -1.8274
  324MOL0     H43713   8.627   3.642   3.741  0.3990  0.1471  1.4311
  324MOL0     H43714   8.653   3.874   3.836  0.8063 -0.9402  0.4410
  324MOL0     H43715   8.499   3.865   3.910 -0.4190 -0.3051  0.3985
  324MOL0     H43716   8.717   3.660   3.981 -3.0205 -1.7214 -0.3464
  324MOL0     H43717   8.583   3.691   4.075 -0.7352 -1.5374 -2.0156
  324MOL0     H43718   8.646   3.914   4.149  1.0788 -1.1494  3.1682
  324MOL0     H43719   8.754   3.780   4.183  1.3646 -1.7928 -2.3945
  324MOL0     H43720   8.010   3.971   4.079  0.5604  1.0932 -1.5536
  324MOL0     H43721   7.822   4.063   4.176  2.0163  0.2742  0.7285
  324MOL0     H43722   7.537   4.368   4.361  1.5066 -1.4682 -0.8128
  324MOL0     H43723   7.325   4.415   4.471 -0.2526 -0.8490  0.0158
  324MOL0     H43724   7.675   4.988   4.487 -2.0248 -1.3010  0.2434
  324MOL0     H43725   7.928   4.987   4.517 -1.9496  0.6743  0.1441
  324MOL0     H43726   8.423   4.749   4.255  0.4421 -1.1772  0.3217
  324MOL0     H43727   8.653   4.818   4.323 -0.7001 -1.5651 -0.1457
  324MOL0     H43728   8.848   5.000   4.642  0.6667  1.5814  1.0047
  324MOL0     H43729   8.677   5.012   4.697  1.5537  0.7614  2.2521
  324MOL0     H43730   8.667   5.237   4.552 -1.7981 -2.2611  0.3492
  324MOL0     H43731   8.835   5.203   4.497  1.9960  1.6498  1.7031
  324MOL0     H43732   8.908   5.228   4.738 -1.8126 -0.6532  3.6200
  324MOL0     H43733   8.754   5.290   4.778 -0.5308 -4.6508 -0.5190
  324MOL0     H43734   8.949   5.453   4.715  0.2005 -4.5108  2.1775
  324MOL0     H43735   8.905   5.422   4.550 -2.0789  0.5891 -0.4381
  324MOL0     H43736   8.558   5.649   4.680 -0.1595 -0.7180  0.2473
  324MOL0     H43737   8.478   5.073   4.617  0.5675 -2.0096  1.7098
  324MOL0     H43738   8.159   5.072   4.485 -0.0022 -1.2726  0.1153
  324MOL0     H43739   8.169   4.981   4.631 -0.8664  0.2047 -1.2054
  324MOL0     H43740   8.263   5.129   4.617 -2.5204  0.5001  0.8634
  325MOL0     O43741   8.231   3.194   8.016  0.3205  0.1739  0.4661
  325MOL0     C43742   8.244   3.314   8.008 -0.1411 -0.8067  0.5074
  325MOL0     O43743   8.364   3.378   7.978 -0.1165  0.3229 -0.7279
  325MOL0     C43744   8.468   3.301   7.926 -0.3584 -0.9795  0.1716
  325MOL0     C43745   8.466   3.262   7.793  0.3810 -0.5532  0.0831
  325MOL0     C43746   8.568   3.188   7.734 -0.1243 -0.0699  0.5937
  325MOL0     C43747   8.685   3.156   7.806  0.2723  0.0910 -0.3756
  325MOL0     O43748   8.780   3.069   7.748  0.1376  0.1157 -0.0367
  325MOL0     C43749   8.862   3.141   7.652  0.6368  0.1281 -0.0802
  325MOL0     C43750   8.992   3.061   7.606  0.1883 -1.0285  0.4967
  325MOL0     C43751   9.116   3.117   7.680  0.1406  0.4393  0.5438
  325MOL0     C43752   9.232   3.034   7.621 -0.6797  0.4445 -0.5417
  325MOL0     C43753   9.360   3.084   7.674  0.2958  0.2053  1.1039
  325MOL0     C43754   9.384   3.075   7.824 -0.4185  0.1839 -0.0482
  325MOL0     C43755   9.517   3.144   7.859  0.2211 -0.1757  0.6640
  325MOL0     C43756   9.548   3.109   8.000  0.3500  0.1463 -0.2563
  325MOL0     N43757   9.650   3.188   8.063  0.4914  0.0397 -0.8749
  325MOL0     C43758   9.670   3.323   8.047  0.2476  0.2932 -0.1864
  325MOL0     C43759   9.781   3.357   8.130 -0.5170  0.1794  0.0537
  325MOL0     C43760   9.845   3.497   8.139  0.1765  0.1013 -0.1546
  325MOL0     C43761   9.998   3.485   8.102 -0.4669  0.2331 -0.0822
  325MOL0     C43762  10.089   3.543   8.207 -0.8892  0.1362 -0.6705
  325MOL0     C43763  10.080   3.697   8.220  0.1414 -0.8479 -0.0931
  325MOL0     O43764  10.168   3.726   8.327 -0.6143 -0.3264  0.1206
  325MOL0     C43765  10.305   3.709   8.318 -0.0974 -0.1294  0.5481
  325MOL0     C43766  10.368   3.703   8.194  0.4798  0.0365 -0.0853
  325MOL0     C43767  10.505   3.680   8.175 -0.5325  0.3657 -0.3350
  325MOL0     C43768  10.588   3.676   8.286  0.8864  0.3745 -1.1501
  325MOL0     C43769  10.726   3.655   8.271 -0.4381 -0.0185 -0.1627
  325MOL0     O43770  10.766   3.572   8.173  0.7377  0.0144  0.9177
  325MOL0     C43771  10.905   3.551   8.161  0.0523  0.0276 -0.4346
  325MOL0     C43772  10.960   3.440   8.227  0.8658 -0.1429  0.0898
  325MOL0     C43773  11.096   3.408   8.210 -0.1227  0.3399 -0.4324
  325MOL0     C43774  11.174   3.502   8.140  0.1805  0.9613 -0.8162
  325MOL0     O43775  11.313   3.484   8.124  0.4517  0.0790  0.7291
  325MOL0     C43776  11.373   3.498   8.254 -0.0535 -1.1642  0.2264
  325MOL0     C43777  11.525   3.490   8.251 -0.1853  0.6689  0.1226
  325MOL0     C43778  11.575   3.349   8.213  0.3600  0.2455  0.7131
  325MOL0     C43779  11.730   3.360   8.177 -0.4886  0.0353  0.1340
  325MOL0     C43780  11.803   3.225   8.157 -0.1629  0.1294  1.0334
  325MOL0     C43781  11.932   3.240   8.078 -0.0366  0.2304  0.7816
  325MOL0     C43782  12.034   3.332   8.149 -0.4477  0.9780 -0.0615
  325MOL0     C43783  12.083   3.275   8.281  0.2325 -1.0816  0.0912
  325MOL0    Cl43784  12.181   3.397   8.371 -0.1550  0.2348  0.0524
  325MOL0     C43785  11.116   3.611   8.073  0.1771 -0.2335 -0.1088
  325MOL0     C43786  10.976   3.629   8.077  0.3539 -0.8051 -0.3601
  325MOL0     O43787  10.808   3.699   8.355  0.3806 -0.3946 -0.0788
  325MOL0     C43788  10.528   3.693   8.417 -0.0539  0.0895  0.2244
  325MOL0     C43789  10.388   3.721   8.432 -0.4159  0.6463 -0.6710
  325MOL0     N43790   9.831   3.235   8.175 -0.0180 -0.5818  0.1486
  325MOL0     N43791   9.751   3.144   8.143 -0.3521 -0.3764  0.5740
  325MOL0     C43792   8.685   3.193   7.941 -0.3419  0.2039  0.1962
  325MOL0     C43793   8.580   3.262   7.997 -0.2618 -0.8593  0.5041
  325MOL0     C43794   8.120   3.405   8.018 -0.1231 -1.4897  0.1362
  325MOL0     C43795   8.145   3.540   8.041 -0.5982 -0.6883 -0.0970
  325MOL0     C43796   8.045   3.638   8.040 -0.7660  0.5324 -0.0894
  325MOL0     C43797   7.913   3.598   7.999  1.4125 -0.3177 -0.6920
  325MOL0     O43798   7.801   3.683   7.991  0.5426 -0.1839 -0.3794
  325MOL0     C43799   7.824   3.818   7.961  0.8485 -0.2571  0.5611
  325MOL0     C43800   7.875   3.826   7.816 -0.0807 -0.0542 -0.1733
  325MOL0     C43801   7.761   3.765   7.733  0.5555 -0.4185 -0.0378
  325MOL0     C43802   7.768   3.801   7.583  0.3289  0.6404 -0.2248
  325MOL0     C43803   7.642   3.748   7.523  0.1162 -0.7290 -0.2081
  325MOL0     C43804   7.535   3.713   7.481  0.1607  0.3176 -1.1311
  325MOL0     C43805   7.892   3.466   7.974 -0.3671 -0.7039  0.0105
  325MOL0     C43806   7.986   3.367   7.990 -0.7568  0.7265  0.3229
  325MOL0     C43807   7.950   3.222   7.980  0.1958 -0.0014 -0.1796
  325MOL0     H43808   8.379   3.280   7.730  1.4216 -0.0061 -1.2376
  325MOL0     H43809   8.548   3.158   7.631 -0.4296  2.5365 -0.1751
  325MOL0     H43810   8.798   3.156   7.565  1.9639  0.6897 -0.9861
  325MOL0     H43811   8.885   3.244   7.680  0.5554 -0.0444  0.6475
  325MOL0     H43812   8.998   3.088   7.500  2.7123  2.8051  1.3967
  325MOL0     H43813   8.980   2.954   7.625  0.9497 -1.8582 -2.9829
  325MOL0     H43814   9.109   3.109   7.789 -1.4865 -0.0846  0.4295
  325MOL0     H43815   9.124   3.223   7.655  3.6233 -0.0011 -0.7555
  325MOL0     H43816   9.213   2.928   7.638 -1.1952  0.5041 -0.7426
  325MOL0     H43817   9.234   3.028   7.511 -0.1114  0.9224 -0.5623
  325MOL0     H43818   9.439   3.025   7.627 -0.0800  0.8326 -0.3560
  325MOL0     H43819   9.361   3.190   7.647  0.9647 -0.7835 -3.5165
  325MOL0     H43820   9.311   3.127   7.886  3.1299  4.3557  1.1353
  325MOL0     H43821   9.392   2.969   7.848 -2.2366 -0.1817 -0.9221
  325MOL0     H43822   9.517   3.250   7.831  1.6128 -0.3440 -0.0655
  325MOL0     H43823   9.593   3.093   7.799 -0.5609 -2.8255  1.7606
  325MOL0     H43824   9.460   3.131   8.061  1.2396 -0.8215  1.4719
  325MOL0     H43825   9.579   3.004   8.002  1.4144  0.4055 -1.5913
  325MOL0     H43826   9.617   3.393   7.983  1.5228 -0.2559 -1.9039
  325MOL0     H43827   9.795   3.567   8.071 -3.2334 -0.1084  1.8816
  325MOL0     H43828   9.813   3.527   8.239  1.3973 -0.4680  0.4179
  325MOL0     H43829  10.028   3.380   8.093  2.1175  1.0220 -1.7349
  325MOL0     H43830  10.018   3.528   8.003  1.2353  1.8776  0.9166
  325MOL0     H43831  10.189   3.513   8.174 -0.6717  0.2697 -0.1384
  325MOL0     H43832  10.067   3.504   8.307 -1.8004  2.6023  0.1693
  325MOL0     H43833   9.979   3.734   8.239 -0.7363  0.6018 -5.8285
  325MOL0     H43834  10.102   3.746   8.125 -0.8958 -1.3462 -0.5937
  325MOL0     H43835  10.315   3.701   8.099  2.7008 -0.4387 -1.3823
  325MOL0     H43836  10.550   3.673   8.076 -1.3019  2.0866 -0.8510
  325MOL0     H43837  10.901   3.387   8.301  0.5447 -1.3375 -0.9783
  325MOL0     H43838  11.137   3.311   8.234 -0.1319  0.4076 -0.1458
  325MOL0     H43839  11.346   3.598   8.288  0.6045 -0.3861 -1.4463
  325MOL0     H43840  11.338   3.427   8.330 -0.9130 -1.2392 -0.2273
  325MOL0     H43841  11.561   3.550   8.167 -0.8881  0.9901  0.0487
  325MOL0     H43842  11.559   3.530   8.347  0.3185  3.0704 -0.9891
  325MOL0     H43843  11.565   3.276   8.294 -0.1286 -1.1007 -0.5390
  325MOL0     H43844  11.508   3.314   8.135 -2.4084  0.5560  2.8016
  325MOL0     H43845  11.784   3.418   8.253 -3.0500  0.3633  1.8158
  325MOL0     H43846  11.735   3.407   8.079 -1.6086  0.8903  0.4700
  325MOL0     H43847  11.730   3.155   8.115 -2.7577  1.4983  3.0327
  325MOL0     H43848  11.828   3.184   8.255 -0.6846 -1.5523  0.5024
  325MOL0     H43849  11.963   3.138   8.055 -3.0893 -0.2586 -1.7380
  325MOL0     H43850  11.908   3.285   7.982  1.7437  2.2942  1.2086
  325MOL0     H43851  11.992   3.431   8.169  0.3306  0.8605  2.6601
  325MOL0     H43852  12.126   3.332   8.089 -0.1722  0.3346  0.3510
  325MOL0     H43853  12.000   3.249   8.348 -0.2804 -0.2487 -0.1982
  325MOL0     H43854  12.146   3.189   8.257  0.2844 -1.0177 -0.0040
  325MOL0     H43855  11.181   3.673   8.012  1.5600 -2.1453 -0.6905
  325MOL0     H43856  10.938   3.714   8.022  2.1295 -1.0537 -2.1075
  325MOL0     H43857  10.597   3.691   8.501  0.5713 -0.6431 -0.3007
  325MOL0     H43858  10.351   3.734   8.534 -1.1745  0.2467 -0.8881
  325MOL0     H43859   8.774   3.172   7.999 -0.4965 -0.5955  0.1527
  325MOL0     H43860   8.584   3.281   8.104  0.7516  0.5908  0.2308
  325MOL0     H43861   8.242   3.570   8.078 -1.5358  0.2329  1.7566
  325MOL0     H43862   8.057   3.736   8.085  0.1976 -0.0608  0.9841
  325MOL0     H43863   7.904   3.868   8.018  1.2354  0.5560 -0.6312
  325MOL0     H43864   7.741   3.885   7.984  0.6451 -0.5356  0.6342
  325MOL0     H43865   7.968   3.770   7.799  0.1856  0.4427 -0.3698
  325MOL0     H43866   7.882   3.929   7.780 -2.1606 -0.1403 -1.0104
  325MOL0     H43867   7.668   3.809   7.770  0.3306 -0.9426  0.0411
  325MOL0     H43868   7.763   3.656   7.742  0.8130 -0.6710 -2.5307
  325MOL0     H43869   7.764   3.909   7.564 -3.1700  0.0746 -4.1346
  325MOL0     H43870   7.859   3.765   7.535  0.3957  1.3357 -0.6394
  325MOL0     H43871   7.436   3.680   7.458  0.1807 -1.7074  1.2172
  325MOL0     H43872   7.795   3.434   7.939  0.7402 -0.8364 -3.2082
  325MOL0     H43873   7.845   3.198   7.967  0.0088 -0.0436  1.3295
  325MOL0     H43874   8.000   3.184   7.890 -0.3034 -1.2296  0.0530
  325MOL0     H43875   7.989   3.171   8.068 -1.0122  1.2700  1.1480
  326MOL0     O43876   0.550   0.260   1.282 -0.0554 -0.3362  0.8484
  326MOL0     C43877   0.530   0.139   1.289  0.1485  0.7325  0.3286
  326MOL0     O43878   0.590   0.045   1.210  0.2291 -0.1414 -0.1839
  326MOL0     C43879   0.665   0.089   1.105 -0.3596 -0.5365  0.2025
  326MOL0     C43880   0.623   0.070   0.973 -0.1772 -0.0050  0.4316
  326MOL0     C43881   0.702   0.106   0.861 -0.2351  0.9607 -0.2824
  326MOL0     C43882   0.834   0.162   0.884 -0.3204 -0.3214  0.3626
  326MOL0     O43883   0.922   0.203   0.788 -0.3289 -0.0874 -0.1043
  326MOL0     C43884   0.911   0.152   0.659 -0.3993  0.1449 -0.3452
  326MOL0     C43885   1.038   0.198   0.586 -0.0436 -0.1124  0.3101
  326MOL0     C43886   1.166   0.140   0.655  0.1247 -0.2082  0.8435
  326MOL0     C43887   1.287   0.187   0.566 -0.6978 -0.2941  0.4742
  326MOL0     C43888   1.421   0.143   0.643  0.4933  0.4925  0.3185
  326MOL0     C43889   1.538   0.162   0.550 -0.1291  0.5190 -0.1799
  326MOL0     C43890   1.587   0.304   0.565 -0.5273  0.8585  0.3103
  326MOL0     C43891   1.723   0.321   0.511 -1.0606 -0.1472 -0.1945
  326MOL0     N43892   1.743   0.306   0.364  0.5084  0.4705  0.2650
  326MOL0     C43893   1.684   0.380   0.271 -0.2190 -0.1505 -0.1443
  326MOL0     C43894   1.720   0.323   0.152  0.0226 -0.4954  0.1866
  326MOL0     C43895   1.687   0.389   0.011  0.6411  0.4667 -0.5827
  326MOL0     C43896   1.814   0.454  -0.041  0.3374 -0.4592  0.9267
  326MOL0     C43897   1.797   0.506  -0.184  0.3047 -0.1124  0.4709
  326MOL0     C43898   1.916   0.601  -0.210 -0.3585 -0.0471  0.3987
  326MOL0     O43899   2.049   0.545  -0.187  0.2773  0.3424 -0.1216
  326MOL0     C43900   2.115   0.497  -0.299 -0.2513  0.2116 -0.3378
  326MOL0     C43901   2.127   0.361  -0.318  0.7843  0.1363  1.2419
  326MOL0     C43902   2.209   0.308  -0.418  0.1718  0.0301  0.8678
  326MOL0     C43903   2.273   0.391  -0.515 -0.5943  0.5431 -0.8413
  326MOL0     C43904   2.383   0.339  -0.606  0.5202 -0.8600 -0.5658
  326MOL0     O43905   2.450   0.437  -0.677  0.1847 -0.3444 -0.6685
  326MOL0     C43906   2.550   0.417  -0.765 -1.4857  0.7309  0.0129
  326MOL0     C43907   2.639   0.527  -0.786  0.4910 -0.0734 -0.5194
  326MOL0     C43908   2.745   0.517  -0.878  0.8127 -0.4552  0.2986
  326MOL0     C43909   2.762   0.390  -0.941 -1.3895  0.4712 -0.4083
  326MOL0     O43910   2.868   0.356  -1.022 -0.1704 -0.6538 -0.0264
  326MOL0     C43911   2.911   0.458  -1.096  0.7345 -0.1705  0.0410
  326MOL0     C43912   3.032   0.413  -1.170  0.3609  0.4421  0.2885
  326MOL0     C43913   3.003   0.281  -1.266 -0.2366 -0.8450 -0.7263
  326MOL0     C43914   3.104   0.279  -1.384 -0.4721 -0.4727  0.1340
  326MOL0     C43915   3.084   0.161  -1.486  0.9245 -0.3983 -0.2232
  326MOL0     C43916   3.207   0.163  -1.579  0.2143 -0.2870 -0.5430
  326MOL0     C43917   3.197   0.051  -1.682  0.2985 -0.5065  0.4619
  326MOL0     C43918   3.260   0.083  -1.812  0.3514 -1.1537  0.7652
  326MOL0    Cl43919   3.160   0.205  -1.891 -0.2224 -0.3952 -0.6739
  326MOL0     C43920   2.673   0.287  -0.924  0.2361  0.7087 -0.7278
  326MOL0     C43921   2.563   0.304  -0.837 -0.1922  0.3667 -0.9621
  326MOL0     O43922   2.407   0.219  -0.608 -0.0456 -0.1174 -0.1034
  326MOL0     C43923   2.253   0.529  -0.494 -0.3791 -0.1551  0.4147
  326MOL0     C43924   2.181   0.586  -0.389  0.2946  1.1731  0.3495
  326MOL0     N43925   1.799   0.215   0.181 -0.5360  1.1595  0.3323
  326MOL0     N43926   1.811   0.204   0.310  0.2678 -0.4844 -0.1467
  326MOL0     C43927   0.871   0.179   1.018  0.3634 -0.3726 -0.4491
  326MOL0     C43928   0.784   0.159   1.130 -0.9804 -0.0217  1.0401
  326MOL0     C43929   0.439   0.099   1.398 -0.0235 -0.5792 -0.6236
  326MOL0     C43930   0.416   0.184   1.508 -0.5250 -0.2107 -0.8198
  326MOL0     C43931   0.338   0.135   1.610  0.6265  0.0313 -0.8933
  326MOL0     C43932   0.276   0.008   1.604 -0.9468  0.6151 -0.5650
  326MOL0     O43933   0.202  -0.026   1.714  0.3257 -0.3402 -0.1151
  326MOL0     C43934   0.145  -0.158   1.704  0.1064  0.1806  0.1252
  326MOL0     C43935   0.040  -0.194   1.804  0.1217  1.0542 -0.6086
  326MOL0     C43936  -0.085  -0.119   1.788 -0.1669  0.0998  0.7691
  326MOL0     C43937  -0.173  -0.161   1.909  0.5387  0.7346 -0.2089
  326MOL0     C43938  -0.256  -0.275   1.896  0.3129  0.1553 -0.2524
  326MOL0     C43939  -0.319  -0.374   1.867  0.4062 -0.3776 -0.0939
  326MOL0     C43940   0.296  -0.067   1.488 -0.1380 -0.8512  0.1802
  326MOL0     C43941   0.378  -0.026   1.382  0.9531 -0.4076 -0.5191
  326MOL0     C43942   0.391  -0.125   1.269  1.0070 -0.1184 -0.1974
  326MOL0     H43943   0.525   0.024   0.964  0.0353 -0.6921  1.4237
  326MOL0     H43944   0.672   0.088   0.758 -0.1209 -3.5109  0.2423
  326MOL0     H43945   0.903   0.043   0.662 -0.7104  0.1944  1.3721
  326MOL0     H43946   0.822   0.199   0.616 -1.9251 -1.1576  1.2337
  326MOL0     H43947   1.045   0.307   0.578  1.0813 -0.2666 -1.2772
  326MOL0     H43948   1.040   0.162   0.483 -2.4681 -0.2381  0.2432
  326MOL0     H43949   1.150   0.032   0.648 -1.0261  0.0788 -2.2180
  326MOL0     H43950   1.168   0.160   0.763 -0.0195 -1.3008  1.0593
  326MOL0     H43951   1.273   0.136   0.470 -2.1171 -1.5650  1.3135
  326MOL0     H43952   1.287   0.295   0.544  3.2001 -0.0956  0.6925
  326MOL0     H43953   1.417   0.197   0.738  1.7782  2.1268 -0.5225
  326MOL0     H43954   1.421   0.037   0.670  2.5196  1.0543  2.8672
  326MOL0     H43955   1.618   0.093   0.575 -0.0164  1.4942  2.4937
  326MOL0     H43956   1.507   0.133   0.449 -1.9140 -0.0694  0.5018
  326MOL0     H43957   1.568   0.343   0.665  1.2647  0.8671  0.6833
  326MOL0     H43958   1.526   0.372   0.505  0.9504  3.0644  1.1591
  326MOL0     H43959   1.758   0.422   0.530  1.4195 -0.6243 -1.7697
  326MOL0     H43960   1.787   0.246   0.557 -1.0139 -1.4672 -2.2628
  326MOL0     H43961   1.621   0.468   0.273 -1.3031 -0.9057 -0.1257
  326MOL0     H43962   1.652   0.307  -0.052  0.5677 -0.5541  0.7235
  326MOL0     H43963   1.609   0.465   0.023  1.4608  1.1394  0.6704
  326MOL0     H43964   1.859   0.536   0.016 -1.6061  1.6330 -0.3805
  326MOL0     H43965   1.883   0.370  -0.041  0.9590  0.0264  2.1640
  326MOL0     H43966   1.700   0.556  -0.192  0.8347  0.9363  0.3260
  326MOL0     H43967   1.789   0.428  -0.260  0.4769 -0.8443  1.1963
  326MOL0     H43968   1.905   0.686  -0.142 -2.0835  1.3405 -1.4701
  326MOL0     H43969   1.909   0.643  -0.311 -0.7099 -2.1330 -0.4993
  326MOL0     H43970   2.075   0.287  -0.258 -1.5704 -0.9307 -1.8263
  326MOL0     H43971   2.216   0.200  -0.433 -1.5545 -0.6522  4.1470
  326MOL0     H43972   2.634   0.614  -0.720 -0.4997 -1.7841  1.7888
  326MOL0     H43973   2.813   0.599  -0.897  2.3334 -1.6698  0.2560
  326MOL0     H43974   2.837   0.494  -1.168 -0.6426 -2.7097  0.1015
  326MOL0     H43975   2.939   0.540  -1.030 -2.7162  1.0886  0.1421
  326MOL0     H43976   3.064   0.498  -1.231 -1.1540  0.9644  0.1580
  326MOL0     H43977   3.107   0.386  -1.096 -0.0657  2.4847  1.5337
  326MOL0     H43978   3.012   0.191  -1.205 -0.1447  0.0378  0.6041
  326MOL0     H43979   2.907   0.283  -1.319 -0.7314  4.0424 -0.1657
  326MOL0     H43980   3.208   0.257  -1.358  0.7596  1.9560 -2.2783
  326MOL0     H43981   3.102   0.378  -1.428 -0.4345 -1.0507 -1.2027
  326MOL0     H43982   2.993   0.172  -1.546  0.5642  4.0241  0.8132
  326MOL0     H43983   3.086   0.066  -1.432  3.5060 -0.1015  0.3196
  326MOL0     H43984   3.213   0.258  -1.632  0.8538  0.8392  1.4775
  326MOL0     H43985   3.301   0.164  -1.524  0.4451  1.5200 -0.9088
  326MOL0     H43986   3.091   0.031  -1.696  0.7292 -1.7964 -1.3278
  326MOL0     H43987   3.238  -0.039  -1.634 -4.1840 -1.7518  2.5359
  326MOL0     H43988   3.364   0.118  -1.810 -0.1643  1.3058 -3.2606
  326MOL0     H43989   3.256  -0.006  -1.876 -1.5291 -1.1465  0.8155
  326MOL0     H43990   2.680   0.188  -0.967 -0.4122  0.1761  0.3471
  326MOL0     H43991   2.496   0.218  -0.836  1.8601 -1.4628  2.8652
  326MOL0     H43992   2.307   0.592  -0.563 -0.0979 -0.2572  0.5392
  326MOL0     H43993   2.187   0.692  -0.370  0.0045  1.4366 -0.9011
  326MOL0     H43994   0.971   0.214   1.039  0.0113 -0.7956  2.2625
  326MOL0     H43995   0.808   0.178   1.234 -3.8083  1.8421  1.4653
  326MOL0     H43996   0.457   0.283   1.520 -2.7260  0.6669  0.0060
  326MOL0     H43997   0.331   0.204   1.693 -2.3867 -0.7809 -0.3179
  326MOL0     H43998   0.227  -0.228   1.691  0.3860  0.9865 -3.6342
  326MOL0     H43999   0.078  -0.161   1.618  1.1603  1.6070 -0.7927
  326MOL0     H44000   0.074  -0.183   1.908  0.2626 -0.2317 -0.5124
  326MOL0     H44001   0.015  -0.297   1.780  1.2975  0.8951 -1.2090
  326MOL0     H44002  -0.139  -0.156   1.701  0.3531 -1.0449  0.9130
  326MOL0     H44003  -0.061  -0.012   1.787  1.5636 -0.2521  0.6880
  326MOL0     H44004  -0.125  -0.154   2.007 -2.8613  1.3809  1.5452
  326MOL0     H44005  -0.240  -0.078   1.930 -0.6720 -0.2307 -0.1841
  326MOL0     H44006  -0.376  -0.456   1.828 -0.6922  0.2089  0.2072
  326MOL0     H44007   0.241  -0.160   1.475 -0.9885 -0.3362  0.0328
  326MOL0     H44008   0.381  -0.089   1.166  0.2597 -0.3756 -0.2186
  326MOL0     H44009   0.485  -0.180   1.281 -0.9210 -3.5817  0.0856
  326MOL0     H44010   0.313  -0.198   1.289 -2.2603  3.2041  0.3107
  327MOL0     O44011   6.417   7.345   0.306 -0.0091 -0.0694  0.1937
  327MOL0     C44012   6.413   7.366   0.427 -0.3213 -0.1246  0.1058
  327MOL0     O44013   6.528   7.386   0.507 -0.0418 -0.2176  0.5547
  327MOL0     C44014   6.646   7.408   0.445 -0.6728  0.2332  0.8320
  327MOL0     C44015   6.749   7.317   0.463 -0.1492 -0.6369 -0.4953
  327MOL0     C44016   6.866   7.335   0.389 -0.3010  0.3819 -0.0891
  327MOL0     C44017   6.884   7.447   0.305 -0.5823 -0.2165  0.1136
  327MOL0     O44018   7.012   7.468   0.256  0.4107 -0.2931 -0.5528
  327MOL0     C44019   7.066   7.594   0.290  0.0994  0.1569  0.0793
  327MOL0     C44020   7.180   7.634   0.199 -0.4083  0.0811  0.0291
  327MOL0     C44021   7.313   7.568   0.236  0.2157 -0.4222  0.4329
  327MOL0     C44022   7.429   7.634   0.163  0.5565  0.3129 -0.1550
  327MOL0     C44023   7.576   7.600   0.221 -0.0901  0.5440  0.1109
  327MOL0     C44024   7.607   7.671   0.355  0.3518  0.0455 -0.6789
  327MOL0     C44025   7.756   7.645   0.398  0.2310 -0.5114  0.7658
  327MOL0     C44026   7.781   7.720   0.524  0.5590  0.6651  0.2326
  327MOL0     N44027   7.805   7.858   0.487 -0.4721  0.3386 -0.2909
  327MOL0     C44028   7.928   7.916   0.472 -0.2459 -0.0851  0.2512
  327MOL0     C44029   7.914   8.047   0.488  0.9938 -0.0229 -0.3678
  327MOL0     C44030   8.012   8.152   0.476 -0.1050 -0.6443 -0.4428
  327MOL0     C44031   8.118   8.135   0.587 -0.1576 -0.4924 -0.2148
  327MOL0     C44032   8.223   8.249   0.590  0.2144 -0.7081  0.1940
  327MOL0     C44033   8.300   8.257   0.460  0.1952 -0.0930  0.3589
  327MOL0     O44034   8.378   8.384   0.461 -0.7633 -0.1961 -0.5766
  327MOL0     C44035   8.490   8.402   0.549  0.1294  0.3076  1.3022
  327MOL0     C44036   8.545   8.525   0.549 -0.2770 -0.1799 -0.7701
  327MOL0     C44037   8.649   8.573   0.647  1.2390 -0.5713  0.1884
  327MOL0     C44038   8.715   8.479   0.731  0.5190 -0.3652 -0.6987
  327MOL0     C44039   8.832   8.506   0.813  0.4025  0.3882  0.6191
  327MOL0     O44040   8.860   8.640   0.840 -0.1408  0.4397  0.0242
  327MOL0     C44041   8.986   8.659   0.894 -0.2814  0.1839 -0.6538
  327MOL0     C44042   8.995   8.719   1.026 -0.0728 -0.3948  0.1690
  327MOL0     C44043   9.120   8.762   1.082 -0.8305  0.0685 -0.4408
  327MOL0     C44044   9.236   8.722   1.018 -1.2505  0.3193 -0.1572
  327MOL0     O44045   9.363   8.730   1.070  0.2998  0.0300 -0.5831
  327MOL0     C44046   9.357   8.753   1.211 -0.2984 -0.3374  0.1727
  327MOL0     C44047   9.493   8.728   1.260  0.0125  0.2445  0.1497
  327MOL0     C44048   9.589   8.846   1.211  0.1306  0.3911 -0.1932
  327MOL0     C44049   9.735   8.815   1.253  0.1505 -0.2820 -0.6909
  327MOL0     C44050   9.822   8.939   1.243  0.2488  0.2715  0.5571
  327MOL0     C44051   9.810   8.999   1.098  0.1160  0.3169 -0.6247
  327MOL0     C44052   9.918   9.102   1.060 -1.6239 -0.9039 -0.1477
  327MOL0     C44053   9.920   9.149   0.913 -0.8424 -0.1810  0.5122
  327MOL0    Cl44054  10.054   9.269   0.909 -0.0464 -0.0988  0.1236
  327MOL0     C44055   9.229   8.660   0.894 -0.3056  0.1899  0.2391
  327MOL0     C44056   9.106   8.634   0.828 -0.6112  0.2685  0.4318
  327MOL0     O44057   8.898   8.411   0.856  0.0350 -0.4713 -0.2105
  327MOL0     C44058   8.658   8.350   0.721 -0.6426 -0.1105 -0.1950
  327MOL0     C44059   8.550   8.316   0.642  0.3389  0.3654  0.7083
  327MOL0     N44060   7.783   8.076   0.517 -0.0784  0.4082  1.1295
  327MOL0     N44061   7.719   7.963   0.516 -0.0741 -0.2299 -0.2367
  327MOL0     C44062   6.783   7.540   0.288 -0.0712 -0.2375  0.4846
  327MOL0     C44063   6.666   7.523   0.365  0.3511  0.7883 -0.2202
  327MOL0     C44064   6.286   7.377   0.496  0.3986  0.0530 -0.7568
  327MOL0     C44065   6.270   7.448   0.616 -0.2247 -0.0897  0.6124
  327MOL0     C44066   6.149   7.445   0.691  0.3288  0.0035  1.0013
  327MOL0     C44067   6.051   7.363   0.652 -0.6312  0.1053 -0.1056
  327MOL0     O44068   5.946   7.358   0.747  0.7471 -0.4568  0.8140
  327MOL0     C44069   5.852   7.254   0.721 -0.1585 -0.2110  0.1159
  327MOL0     C44070   5.738   7.321   0.638  0.6256 -0.2718 -0.5601
  327MOL0     C44071   5.673   7.453   0.702 -0.3547  0.5822  0.2856
  327MOL0     C44072   5.737   7.580   0.650 -0.0382  0.0961 -0.5628
  327MOL0     C44073   5.713   7.608   0.512  0.4247  0.6554 -0.7406
  327MOL0     C44074   5.677   7.636   0.396  0.7139  0.3400  0.1728
  327MOL0     C44075   6.057   7.299   0.528  0.4668  0.3155  0.2667
  327MOL0     C44076   6.174   7.295   0.457 -0.0803 -0.5583 -0.1675
  327MOL0     C44077   6.161   7.221   0.321 -1.2185 -0.6907  0.2069
  327MOL0     H44078   6.735   7.236   0.533  1.8561 -1.8592 -1.4040
  327MOL0     H44079   6.953   7.271   0.400  1.2178  2.3553  0.1191
  327MOL0     H44080   6.985   7.667   0.301  0.4830  0.5193  0.5520
  327MOL0     H44081   7.102   7.591   0.393  0.2955  2.7700  0.1573
  327MOL0     H44082   7.190   7.743   0.205 -0.9239  0.0796  1.0264
  327MOL0     H44083   7.157   7.607   0.096 -3.6169  0.5220  0.5319
  327MOL0     H44084   7.307   7.462   0.209 -0.2994  0.3555 -3.0141
  327MOL0     H44085   7.325   7.573   0.344  4.0384 -0.8228  0.1598
  327MOL0     H44086   7.432   7.616   0.055 -0.3887 -0.1167 -0.1152
  327MOL0     H44087   7.414   7.741   0.180 -1.6294 -0.3943  3.4269
  327MOL0     H44088   7.597   7.492   0.229  2.3553  1.0040  0.7401
  327MOL0     H44089   7.650   7.635   0.149 -1.5678  1.0725 -1.2015
  327MOL0     H44090   7.608   7.779   0.334  0.4997 -0.1693 -1.8363
  327MOL0     H44091   7.531   7.646   0.429  0.4909 -3.1632 -1.4874
  327MOL0     H44092   7.815   7.676   0.311 -2.3742  1.1038 -0.5397
  327MOL0     H44093   7.789   7.541   0.410  2.3317  0.2566  2.4212
  327MOL0     H44094   7.688   7.707   0.582  0.1304 -0.9657 -0.7390
  327MOL0     H44095   7.862   7.673   0.579  0.6440 -0.4184 -0.7744
  327MOL0     H44096   8.027   7.871   0.465 -0.1825  0.1945 -0.7527
  327MOL0     H44097   8.052   8.168   0.376  0.4888  1.6598  0.1016
  327MOL0     H44098   7.954   8.242   0.498  0.5539 -0.1156 -0.8521
  327MOL0     H44099   8.079   8.139   0.690  0.8242 -1.6963  0.2317
  327MOL0     H44100   8.164   8.037   0.571 -0.9333 -0.6325 -1.7325
  327MOL0     H44101   8.292   8.233   0.674 -0.2320  0.5892  0.8291
  327MOL0     H44102   8.172   8.340   0.621 -0.7623 -0.8183 -1.0002
  327MOL0     H44103   8.236   8.262   0.371  1.4687  1.6185 -0.5485
  327MOL0     H44104   8.372   8.176   0.443 -2.1152 -1.8128 -2.1272
  327MOL0     H44105   8.505   8.593   0.474 -0.1287  1.0236  0.2108
  327MOL0     H44106   8.685   8.673   0.626  0.7612 -0.6803 -1.2557
  327MOL0     H44107   8.902   8.753   1.072  1.4047  3.4242  0.6801
  327MOL0     H44108   9.127   8.835   1.163  4.0304  0.8412 -1.2390
  327MOL0     H44109   9.335   8.853   1.249 -1.4816  0.0282 -1.3696
  327MOL0     H44110   9.279   8.695   1.261 -1.4420  1.5365  0.6440
  327MOL0     H44111   9.492   8.737   1.369  2.2958  5.8186  0.0870
  327MOL0     H44112   9.517   8.631   1.216 -1.6072  1.1387 -3.0311
  327MOL0     H44113   9.572   8.863   1.105 -3.3900  0.4365  0.2397
  327MOL0     H44114   9.559   8.940   1.257  0.2554  2.3412 -3.8069
  327MOL0     H44115   9.778   8.733   1.195  0.2135 -1.6090  1.1120
  327MOL0     H44116   9.726   8.793   1.360 -2.7614  1.0311 -0.5787
  327MOL0     H44117   9.927   8.909   1.250 -0.5052 -2.2426  4.8658
  327MOL0     H44118   9.792   9.009   1.321 -0.7782 -0.8146  1.1732
  327MOL0     H44119   9.834   8.908   1.043 -0.6291 -1.7197  2.2113
  327MOL0     H44120   9.713   9.043   1.073 -1.2738 -1.4551  1.3456
  327MOL0     H44121  10.020   9.071   1.082 -0.5504  2.4006  0.1147
  327MOL0     H44122   9.901   9.188   1.126  0.1082 -1.2809  0.8348
  327MOL0     H44123   9.935   9.055   0.858  0.1466 -0.5706  1.4017
  327MOL0     H44124   9.830   9.198   0.874  0.4543  1.1358 -0.9562
  327MOL0     H44125   9.321   8.633   0.842 -0.4224 -1.3808  0.8080
  327MOL0     H44126   9.100   8.588   0.730  0.9268  0.9468 -0.0208
  327MOL0     H44127   8.704   8.268   0.776 -1.8636 -1.1173 -0.6323
  327MOL0     H44128   8.538   8.208   0.634  2.0619  0.0035  2.4372
  327MOL0     H44129   6.788   7.617   0.212  1.8823  1.9837  2.7068
  327MOL0     H44130   6.588   7.597   0.354  1.9969  2.7830  0.7157
  327MOL0     H44131   6.354   7.506   0.653  0.5486  1.2481 -2.8595
  327MOL0     H44132   6.128   7.500   0.782  1.5806 -0.1450  1.4022
  327MOL0     H44133   5.812   7.216   0.816 -3.2736  1.0548 -0.5669
  327MOL0     H44134   5.906   7.172   0.673  0.3773  0.9790 -1.3882
  327MOL0     H44135   5.663   7.246   0.610  1.5197 -1.2994 -0.2646
  327MOL0     H44136   5.764   7.339   0.534 -1.5156 -2.7950 -1.6528
  327MOL0     H44137   5.676   7.451   0.811  1.4439  1.9093  0.3107
  327MOL0     H44138   5.569   7.455   0.670 -0.7055  1.7228  1.4342
  327MOL0     H44139   5.693   7.663   0.706 -1.0544  0.5958 -2.0266
  327MOL0     H44140   5.844   7.566   0.667  0.0604  0.9268 -0.4370
  327MOL0     H44141   5.646   7.676   0.302  2.7180  1.2576 -0.1507
  327MOL0     H44142   5.979   7.238   0.483  0.9757 -0.8480  0.8906
  327MOL0     H44143   6.060   7.185   0.296 -0.6434 -0.5039 -2.7566
  327MOL0     H44144   6.191   7.287   0.239 -1.2675 -0.2754  0.5189
  327MOL0     H44145   6.229   7.135   0.316  1.1235  0.8173  3.0350
  328MOL0     O44146   4.940  10.606   1.147 -0.0089 -0.2330  0.0068
  328MOL0     C44147   4.873  10.546   1.066 -0.4968  0.7168  0.5327
  328MOL0     O44148   4.828  10.424   1.086  0.2229 -0.4290  0.5795
  328MOL0     C44149   4.866  10.362   1.206 -0.2728 -0.6242 -0.6860
  328MOL0     C44150   4.762  10.317   1.287 -0.4112 -0.0224  0.5394
  328MOL0     C44151   4.797  10.262   1.414  0.1853 -0.4182 -0.4324
  328MOL0     C44152   4.930  10.248   1.453  0.8189  0.9665 -0.1791
  328MOL0     O44153   4.950  10.193   1.574  1.0834  0.4726 -0.2451
  328MOL0     C44154   4.971  10.286   1.679  0.5467 -0.3308  0.2979
  328MOL0     C44155   5.056  10.230   1.788 -0.3960  0.2478 -0.5169
  328MOL0     C44156   5.176  10.143   1.745  0.7906  0.5227 -0.1161
  328MOL0     C44157   5.213  10.051   1.857 -0.0492 -0.0877  0.3254
  328MOL0     C44158   5.314   9.952   1.815 -0.0173 -0.0423 -0.1039
  328MOL0     C44159   5.329   9.836   1.921 -0.3365 -0.4292  0.7973
  328MOL0     C44160   5.427   9.725   1.860 -0.4940  0.2524  0.0540
  328MOL0     C44161   5.573   9.778   1.850 -0.4630  0.1256 -0.2601
  328MOL0     N44162   5.649   9.667   1.800  0.7370 -0.3029 -1.3984
  328MOL0     C44163   5.689   9.560   1.879  0.1825 -0.0891 -0.3382
  328MOL0     C44164   5.741   9.474   1.791  0.1156  0.5081  0.3092
  328MOL0     C44165   5.783   9.339   1.836  0.0557 -0.5645 -1.1918
  328MOL0     C44166   5.936   9.331   1.852  0.0478  0.0845  0.0895
  328MOL0     C44167   5.971   9.259   1.987  0.3753  0.2048 -0.0794
  328MOL0     C44168   6.120   9.230   2.007  0.9248  0.4315  0.4590
  328MOL0     O44169   6.133   9.146   2.117 -0.0087 -0.2770  0.0752
  328MOL0     C44170   6.259   9.097   2.155 -0.0021  0.0320 -0.0918
  328MOL0     C44171   6.369   9.128   2.080 -0.8513  0.8550  0.7215
  328MOL0     C44172   6.502   9.087   2.113  0.0634 -0.1941  0.0304
  328MOL0     C44173   6.524   9.020   2.239  0.2303 -0.9012  0.4288
  328MOL0     C44174   6.656   8.985   2.281  0.4735  1.1362 -0.2010
  328MOL0     O44175   6.758   9.004   2.196 -0.1295  0.2397 -0.5077
  328MOL0     C44176   6.889   8.968   2.226  0.1102  0.7178  0.1604
  328MOL0     C44177   6.972   8.989   2.123  0.3238  0.0044  0.2435
  328MOL0     C44178   7.108   8.984   2.139  0.2553  0.9049 -0.2719
  328MOL0     C44179   7.169   8.961   2.261  0.2571 -0.2814  0.4084
  328MOL0     O44180   7.305   8.956   2.248  0.2185  0.1522 -0.8633
  328MOL0     C44181   7.387   9.011   2.346 -0.7635 -0.5624 -0.6777
  328MOL0     C44182   7.510   9.071   2.278  0.8844 -0.1739 -0.2205
  328MOL0     C44183   7.597   9.139   2.382  0.1151  0.2781 -0.4276
  328MOL0     C44184   7.732   9.194   2.334 -0.6816  0.0230  0.3085
  328MOL0     C44185   7.818   9.256   2.433 -0.8666 -0.2394  0.4727
  328MOL0     C44186   7.931   9.344   2.371 -0.0089 -1.3051 -0.2455
  328MOL0     C44187   8.005   9.413   2.486  0.3087  0.4877 -0.7720
  328MOL0     C44188   8.091   9.321   2.570  0.1271 -0.7556 -0.1019
  328MOL0    Cl44189   8.220   9.246   2.476  0.1608 -0.1604 -0.0319
  328MOL0     C44190   7.092   8.933   2.372  0.2246  0.6894 -0.1079
  328MOL0     C44191   6.948   8.940   2.345 -0.0840 -0.0446 -0.2652
  328MOL0     O44192   6.657   8.934   2.394 -0.6819 -0.3279 -0.1053
  328MOL0     C44193   6.409   8.992   2.318 -0.4055 -0.3540 -0.3066
  328MOL0     C44194   6.278   9.031   2.275 -1.3498 -0.5357 -0.4668
  328MOL0     N44195   5.733   9.529   1.664 -0.1931  0.0230  0.0389
  328MOL0     N44196   5.670   9.642   1.664  0.4279  0.4859 -0.7364
  328MOL0     C44197   5.038  10.292   1.371  0.4271  0.0665  0.4210
  328MOL0     C44198   5.001  10.346   1.245 -1.0007 -0.8383  0.3394
  328MOL0     C44199   4.837  10.610   0.943  0.5630 -0.7071  0.2238
  328MOL0     C44200   4.925  10.710   0.897 -0.5044 -0.0895 -0.0035
  328MOL0     C44201   4.926  10.759   0.764 -0.5953 -0.1527  0.1303
  328MOL0     C44202   4.842  10.696   0.672  0.3246  0.5428 -0.1644
  328MOL0     O44203   4.854  10.738   0.541 -0.4790  0.3328 -0.3016
  328MOL0     C44204   4.756  10.711   0.440 -0.4731 -1.0094  0.2458
  328MOL0     C44205   4.756  10.831   0.341  0.3734 -0.0887  0.1264
  328MOL0     C44206   4.722  10.969   0.398 -0.2601 -0.0880  0.9690
  328MOL0     C44207   4.709  11.093   0.305 -0.1270 -0.1463 -0.6594
  328MOL0     C44208   4.819  11.088   0.212  0.6648  0.9531 -0.5492
  328MOL0     C44209   4.914  11.075   0.142  0.4381 -0.8449  0.0494
  328MOL0     C44210   4.748  10.605   0.719 -0.4017 -0.3129 -0.2224
  328MOL0     C44211   4.737  10.565   0.850  0.1917  0.2363  0.2823
  328MOL0     C44212   4.624  10.471   0.878  0.5078 -0.4369  0.1266
  328MOL0     H44213   4.659  10.318   1.253  0.4250  0.8961 -2.2083
  328MOL0     H44214   4.713  10.225   1.473 -1.8654  0.4195 -2.6557
  328MOL0     H44215   5.017  10.378   1.642  0.8790 -1.0027 -1.0117
  328MOL0     H44216   4.876  10.317   1.725  0.5511 -1.2286  0.9574
  328MOL0     H44217   4.988  10.171   1.851 -0.6592  1.7178  0.6392
  328MOL0     H44218   5.085  10.313   1.853 -0.6280 -1.1675  1.4931
  328MOL0     H44219   5.258  10.211   1.720  1.1953  0.5861  1.2873
  328MOL0     H44220   5.149  10.087   1.655 -3.1942  0.9323  0.6197
  328MOL0     H44221   5.252  10.114   1.937 -0.8992  0.1465  0.5637
  328MOL0     H44222   5.119  10.001   1.882 -0.6329  0.7491 -0.1349
  328MOL0     H44223   5.294   9.910   1.716 -0.8216  3.2796 -1.4823
  328MOL0     H44224   5.406  10.006   1.795 -0.5691  0.2379 -2.0508
  328MOL0     H44225   5.364   9.876   2.016 -1.9797  2.1427  0.4106
  328MOL0     H44226   5.232   9.794   1.949 -2.0691  2.5019 -0.3525
  328MOL0     H44227   5.388   9.693   1.763  3.4019 -0.2649 -1.5279
  328MOL0     H44228   5.423   9.644   1.933 -0.1303 -0.0087 -0.2109
  328MOL0     H44229   5.571   9.863   1.782 -2.6848  1.8164  1.7498
  328MOL0     H44230   5.612   9.813   1.946  1.8471  2.3731 -1.9225
  328MOL0     H44231   5.683   9.548   1.987  2.7734 -2.2198 -0.3279
  328MOL0     H44232   5.728   9.319   1.928 -1.8247  0.0848 -2.1115
  328MOL0     H44233   5.746   9.267   1.762 -0.1421  0.5424 -2.1944
  328MOL0     H44234   5.975   9.276   1.766  0.4266  1.9396 -0.9970
  328MOL0     H44235   5.984   9.430   1.848 -0.8751  0.5145 -3.4421
  328MOL0     H44236   5.922   9.162   1.994  1.3699 -0.1932  2.3712
  328MOL0     H44237   5.931   9.319   2.070 -1.5364 -2.0831  0.7716
  328MOL0     H44238   6.171   9.321   2.039 -0.3423  1.4481 -0.3047
  328MOL0     H44239   6.166   9.181   1.921  1.6963  0.2754  0.9596
  328MOL0     H44240   6.364   9.187   1.989 -0.6935  0.5112  0.4884
  328MOL0     H44241   6.583   9.122   2.050  1.3303  0.7241  2.0334
  328MOL0     H44242   6.933   9.019   2.026 -0.4475  3.0404  1.3792
  328MOL0     H44243   7.170   9.008   2.054 -0.9667 -2.0518 -2.1551
  328MOL0     H44244   7.332   9.083   2.407 -0.6169 -0.2806 -0.8730
  328MOL0     H44245   7.423   8.942   2.424  0.5464  1.4523  0.5996
  328MOL0     H44246   7.569   9.006   2.212  1.4096  1.5393 -1.5208
  328MOL0     H44247   7.470   9.149   2.212 -0.2469 -0.2586  0.3512
  328MOL0     H44248   7.546   9.221   2.434 -2.2130 -0.4450 -1.4411
  328MOL0     H44249   7.621   9.060   2.455 -2.1815  0.3303  0.4570
  328MOL0     H44250   7.714   9.262   2.250  2.2798 -2.1293 -2.3055
  328MOL0     H44251   7.786   9.105   2.299 -0.0617 -0.0798  1.4807
  328MOL0     H44252   7.849   9.171   2.495 -0.3144  0.2720  0.9122
  328MOL0     H44253   7.749   9.314   2.495  0.0221 -1.3677  2.5957
  328MOL0     H44254   8.007   9.289   2.316  0.8820  1.5376 -2.0588
  328MOL0     H44255   7.882   9.415   2.304  2.6991 -0.6250 -1.6106
  328MOL0     H44256   7.925   9.455   2.548 -1.6567 -3.4879 -0.2502
  328MOL0     H44257   8.071   9.494   2.457  0.6380  0.5332  0.0567
  328MOL0     H44258   8.131   9.380   2.653 -0.2533  0.2297 -0.6042
  328MOL0     H44259   8.025   9.243   2.608 -0.1663  0.5101  2.1648
  328MOL0     H44260   7.136   8.887   2.461  0.9462 -1.8071 -1.6613
  328MOL0     H44261   6.890   8.926   2.436  1.3804  1.2163  0.9266
  328MOL0     H44262   6.416   8.940   2.413 -2.3283  0.1937  0.1871
  328MOL0     H44263   6.198   9.010   2.345 -0.4885  2.2508  1.5476
  328MOL0     H44264   5.136  10.276   1.416  0.5875  2.0507  0.8784
  328MOL0     H44265   5.080  10.379   1.178 -0.0539 -0.2174  1.7087
  328MOL0     H44266   5.007  10.745   0.959  0.4399  0.1491 -1.3425
  328MOL0     H44267   4.989  10.834   0.718  2.3218 -0.5359  3.0995
  328MOL0     H44268   4.656  10.718   0.485 -0.5112  0.0780  0.0204
  328MOL0     H44269   4.773  10.611   0.398  2.0288 -0.7662  0.5359
  328MOL0     H44270   4.684  10.813   0.260 -1.8383  4.5337  0.7189
  328MOL0     H44271   4.860  10.841   0.309  0.6640  1.6616  1.4736
  328MOL0     H44272   4.796  10.996   0.474 -2.3751  1.4054  2.6486
  328MOL0     H44273   4.626  10.963   0.450  0.0941 -0.3452  1.5951
  328MOL0     H44274   4.614  11.093   0.251  0.3057  1.1875 -1.4793
  328MOL0     H44275   4.724  11.185   0.363  1.8562 -0.9485  0.1884
  328MOL0     H44276   4.994  11.091   0.072 -0.8769  1.5539 -1.0347
  328MOL0     H44277   4.686  10.560   0.642 -1.2572  0.1439  0.1832
  328MOL0     H44278   4.618  10.447   0.984 -0.8884 -2.5046 -0.3574
  328MOL0     H44279   4.532  10.521   0.846  0.7276  0.0009  0.1719
  328MOL0     H44280   4.643  10.383   0.816  0.6092  0.3779 -1.0293
  329MOL0     O44281   8.381   8.074   0.204  0.0219 -0.4346  0.1368
  329MOL0     C44282   8.334   8.110   0.096  1.2973 -0.2166  0.4048
  329MOL0     O44283   8.393   8.165  -0.014  0.1961  0.3645 -0.3571
  329MOL0     C44284   8.522   8.145  -0.037  0.0393 -0.6918 -0.9710
  329MOL0     C44285   8.609   8.255  -0.005 -0.1158  0.3405  0.0814
  329MOL0     C44286   8.748   8.236  -0.027 -0.2286  1.1374 -0.3000
  329MOL0     C44287   8.792   8.109  -0.071 -0.1313 -0.0648 -0.3402
  329MOL0     O44288   8.924   8.103  -0.099  0.1768  0.1176  0.4580
  329MOL0     C44289   9.001   7.978  -0.079  0.7016  0.3062 -0.3949
  329MOL0     C44290   9.151   8.019  -0.082 -0.0180  0.5880  0.9852
  329MOL0     C44291   9.195   8.042  -0.232  0.1578  0.0394 -0.4067
  329MOL0     C44292   9.350   8.040  -0.238 -0.1169 -0.1357  0.5355
  329MOL0     C44293   9.405   8.054  -0.382 -0.1746  0.3952  0.5202
  329MOL0     C44294   9.386   7.922  -0.467 -0.5325 -1.6807 -0.2023
  329MOL0     C44295   9.444   7.801  -0.400  0.2316 -0.1730 -0.7802
  329MOL0     C44296   9.598   7.828  -0.387 -0.0883  0.5807  0.2822
  329MOL0     N44297   9.671   7.698  -0.354 -0.1197 -0.1103 -0.0000
  329MOL0     C44298   9.725   7.656  -0.239 -0.3805  0.0656 -0.0253
  329MOL0     C44299   9.791   7.547  -0.282 -0.0927  0.0692 -1.3886
  329MOL0     C44300   9.874   7.473  -0.187 -0.2951  0.0685  0.6758
  329MOL0     C44301   9.987   7.389  -0.246 -1.0090  0.3011  0.0334
  329MOL0     C44302  10.079   7.475  -0.333  0.7136  0.6351 -0.9272
  329MOL0     C44303  10.208   7.407  -0.347  0.3297  0.7582 -0.3889
  329MOL0     O44304  10.280   7.414  -0.225 -0.3466 -0.0039 -0.7810
  329MOL0     C44305  10.412   7.457  -0.212 -0.1785  0.4285 -0.5940
  329MOL0     C44306  10.467   7.446  -0.083  0.3551 -0.1617  0.6325
  329MOL0     C44307  10.595   7.483  -0.051 -0.2250 -1.3649 -0.6345
  329MOL0     C44308  10.671   7.543  -0.152  0.2999  1.0280  0.2908
  329MOL0     C44309  10.807   7.595  -0.132 -0.7361 -0.2035  0.7821
  329MOL0     O44310  10.869   7.674  -0.224 -0.2103  0.0499 -0.2359
  329MOL0     C44311  10.997   7.711  -0.200  0.6880  0.5362 -1.0420
  329MOL0     C44312  11.097   7.606  -0.188 -0.0700  0.0642  0.9488
  329MOL0     C44313  11.233   7.634  -0.192  0.1638 -1.1909 -0.2108
  329MOL0     C44314  11.283   7.763  -0.200  1.2615 -0.3129  0.2276
  329MOL0     O44315  11.413   7.801  -0.185 -0.4245 -0.1438  0.6921
  329MOL0     C44316  11.506   7.692  -0.191  0.1251 -0.9658  0.3739
  329MOL0     C44317  11.649   7.747  -0.221  0.3674 -0.7254  1.1066
  329MOL0     C44318  11.756   7.678  -0.135  0.2618  0.0953 -0.0555
  329MOL0     C44319  11.891   7.732  -0.185  0.8122  1.0208  0.4319
  329MOL0     C44320  12.009   7.680  -0.106 -0.1544  0.0250 -0.0804
  329MOL0     C44321  12.022   7.740   0.035 -0.3130  0.2820  0.2898
  329MOL0     C44322  12.130   7.661   0.108 -0.0685  0.0455  1.1175
  329MOL0     C44323  12.158   7.714   0.254 -0.5702 -0.0698  0.2548
  329MOL0    Cl44324  12.265   7.595   0.323 -0.5734  0.2061 -0.3254
  329MOL0     C44325  11.184   7.867  -0.217  0.4826  0.3119 -0.6503
  329MOL0     C44326  11.046   7.842  -0.225 -0.1300 -0.4162  0.1166
  329MOL0     O44327  10.858   7.548  -0.028  0.0572 -0.1407  0.1491
  329MOL0     C44328  10.611   7.566  -0.279 -0.0982  0.0748 -0.4407
  329MOL0     C44329  10.483   7.520  -0.312 -0.9293 -1.0792  0.1537
  329MOL0     N44330   9.776   7.518  -0.414  0.4657  0.5772  1.0969
  329MOL0     N44331   9.700   7.612  -0.459 -0.5771 -0.5882 -0.5214
  329MOL0     C44332   8.699   7.997  -0.089 -0.4724 -1.3760 -0.3945
  329MOL0     C44333   8.566   8.022  -0.079 -0.8549 -0.4146  0.3228
  329MOL0     C44334   8.184   8.092   0.097 -0.5383 -0.5692  0.5085
  329MOL0     C44335   8.103   8.195   0.044  0.7212  0.1359  1.2273
  329MOL0     C44336   7.968   8.176   0.026 -0.0085 -0.4779  0.7027
  329MOL0     C44337   7.898   8.062   0.068 -0.0078  0.4531  0.3208
  329MOL0     O44338   7.761   8.060   0.049 -0.8139  0.0747  0.5003
  329MOL0     C44339   7.674   7.973   0.128  0.6253  0.3560  0.5324
  329MOL0     C44340   7.531   8.008   0.093  0.2217 -0.3768  0.4131
  329MOL0     C44341   7.496   8.000  -0.068 -0.6632 -0.1837 -0.3720
  329MOL0     C44342   7.342   8.001  -0.102 -0.4036 -0.3312 -0.1981
  329MOL0     C44343   7.295   7.868  -0.129  0.5296  1.1926 -0.2169
  329MOL0     C44344   7.251   7.755  -0.152  0.1247  0.2378 -0.2823
  329MOL0     C44345   7.973   7.964   0.130 -0.6367 -0.3029 -0.6812
  329MOL0     C44346   8.113   7.977   0.149 -0.1063  0.1570  1.4170
  329MOL0     C44347   8.184   7.858   0.218 -0.4668  0.1548  0.6137
  329MOL0     H44348   8.569   8.351   0.026  2.1745  1.8573 -1.3683
  329MOL0     H44349   8.807   8.324  -0.004 -1.1527  1.4962  0.8162
  329MOL0     H44350   8.983   7.943   0.023 -1.5127 -0.5047 -0.9994
  329MOL0     H44351   8.972   7.901  -0.150 -0.8156  0.1918  0.3074
  329MOL0     H44352   9.215   7.943  -0.034  1.3964  0.2406 -1.2876
  329MOL0     H44353   9.152   8.113  -0.027 -2.9883  1.3039 -0.0026
  329MOL0     H44354   9.156   8.140  -0.263 -0.3429 -0.2793 -0.8059
  329MOL0     H44355   9.153   7.963  -0.295 -0.7833  0.1809  0.0205
  329MOL0     H44356   9.379   8.128  -0.180  1.1701 -0.1536 -0.0366
  329MOL0     H44357   9.392   7.952  -0.189  1.5564  1.0998  1.4584
  329MOL0     H44358   9.352   8.141  -0.421 -0.6992 -1.1275 -2.3655
  329MOL0     H44359   9.511   8.078  -0.386  0.0377 -0.7021 -1.8227
  329MOL0     H44360   9.279   7.907  -0.484 -0.6288 -1.3299  0.0660
  329MOL0     H44361   9.414   7.925  -0.572  1.6079 -0.2486  0.3398
  329MOL0     H44362   9.440   7.711  -0.463 -0.1938  0.4347 -1.6306
  329MOL0     H44363   9.399   7.772  -0.305  0.6737 -0.8122 -0.7579
  329MOL0     H44364   9.638   7.876  -0.476  0.1799 -0.4916 -0.1814
  329MOL0     H44365   9.619   7.895  -0.303  0.6931 -0.3047  0.8147
  329MOL0     H44366   9.735   7.704  -0.142  0.4581 -0.1104 -0.0227
  329MOL0     H44367   9.900   7.551  -0.115 -0.4380  2.4203 -1.6726
  329MOL0     H44368   9.818   7.395  -0.134  0.7377 -0.0259  1.6619
  329MOL0     H44369  10.050   7.357  -0.163 -0.2828  3.5113  0.8653
  329MOL0     H44370   9.955   7.305  -0.309  0.1756 -0.0004 -0.1877
  329MOL0     H44371  10.101   7.576  -0.296  2.5386  0.3302 -1.0650
  329MOL0     H44372  10.029   7.483  -0.430 -3.2738 -0.0695  0.8816
  329MOL0     H44373  10.251   7.458  -0.433 -0.7277 -0.9861 -2.0570
  329MOL0     H44374  10.213   7.302  -0.379 -1.1575  1.1140 -1.9485
  329MOL0     H44375  10.405   7.395  -0.010  0.7907 -0.6212  0.6849
  329MOL0     H44376  10.627   7.482   0.053  0.4271  0.1337 -0.8090
  329MOL0     H44377  11.052   7.509  -0.171 -4.0966  1.4206 -0.7437
  329MOL0     H44378  11.304   7.553  -0.179  1.6337 -0.2212 -1.7849
  329MOL0     H44379  11.496   7.631  -0.100 -2.7655  0.4045  1.0999
  329MOL0     H44380  11.482   7.627  -0.276  1.7158  0.0031 -0.8624
  329MOL0     H44381  11.676   7.735  -0.326  1.1192 -0.6443  1.2797
  329MOL0     H44382  11.658   7.854  -0.197  0.0366 -0.6662  0.9753
  329MOL0     H44383  11.746   7.703  -0.028 -3.6715  0.9335 -0.4574
  329MOL0     H44384  11.748   7.570  -0.144  0.9802 -0.0480  0.9063
  329MOL0     H44385  11.889   7.841  -0.190  0.9373  1.0030 -0.0539
  329MOL0     H44386  11.895   7.688  -0.285 -4.6917 -1.9277  1.1003
  329MOL0     H44387  12.104   7.706  -0.154 -0.0974  0.7603  0.4176
  329MOL0     H44388  12.007   7.571  -0.102 -1.4580  0.0675  1.0424
  329MOL0     H44389  12.046   7.847   0.035 -0.3295  0.3471  2.6627
  329MOL0     H44390  11.923   7.729   0.081 -1.5543 -0.9471 -2.4205
  329MOL0     H44391  12.221   7.648   0.049 -0.3604 -0.4519  0.7716
  329MOL0     H44392  12.100   7.557   0.120 -0.2674 -0.1187 -0.6046
  329MOL0     H44393  12.205   7.812   0.243 -0.9001 -0.2253 -4.0798
  329MOL0     H44394  12.064   7.717   0.310 -0.4388 -1.6152  0.6151
  329MOL0     H44395  11.222   7.968  -0.220  2.7564 -0.3541  2.1032
  329MOL0     H44396  10.978   7.921  -0.257  0.8969  0.5780  0.3624
  329MOL0     H44397  10.664   7.620  -0.357  2.1749  3.1602  2.9293
  329MOL0     H44398  10.449   7.531  -0.414  1.8322  0.9433 -0.6658
  329MOL0     H44399   8.731   7.900  -0.127 -1.5604 -1.2030 -1.8730
  329MOL0     H44400   8.503   7.938  -0.106 -0.4037  0.0974 -2.6743
  329MOL0     H44401   8.138   8.293   0.013 -0.3005  0.3002  0.5769
  329MOL0     H44402   7.899   8.241  -0.026 -1.2299 -2.5608 -0.4384
  329MOL0     H44403   7.679   7.979   0.237  0.0348  0.9528  0.5282
  329MOL0     H44404   7.687   7.868   0.100 -1.9683  0.2379 -0.4419
  329MOL0     H44405   7.507   8.108   0.131  0.5940  0.6412 -1.8336
  329MOL0     H44406   7.473   7.938   0.154 -1.6144  2.1617  1.8104
  329MOL0     H44407   7.547   7.910  -0.103 -1.3818 -1.0181  0.6720
  329MOL0     H44408   7.540   8.085  -0.122 -1.0500  0.1972 -0.0914
  329MOL0     H44409   7.288   8.050  -0.021  1.5152  0.5647  0.6218
  329MOL0     H44410   7.337   8.052  -0.198  3.5226 -0.2356 -0.5295
  329MOL0     H44411   7.215   7.657  -0.176  2.0358 -0.3274 -1.0516
  329MOL0     H44412   7.927   7.874   0.169  1.3082 -0.4673  1.4416
  329MOL0     H44413   8.115   7.777   0.245 -0.3190 -0.4459 -0.7674
  329MOL0     H44414   8.260   7.813   0.154  1.8675  0.8448  2.7463
  329MOL0     H44415   8.230   7.905   0.306  0.0178  4.0319 -1.4802
  330MOL0     O44416   2.082   0.087   4.628  0.0706  0.5040  0.0580
  330MOL0     C44417   2.001   0.155   4.686 -0.8284  0.4429 -0.3595
  330MOL0     O44418   2.007   0.205   4.815  0.3753  0.2563  0.0460
  330MOL0     C44419   2.121   0.181   4.898 -1.1238  0.7344 -0.0936
  330MOL0     C44420   2.122   0.062   4.981  0.5309  0.3027  0.3006
  330MOL0     C44421   2.239   0.026   5.045 -0.1150 -0.3995  0.2199
  330MOL0     C44422   2.358   0.100   5.025 -0.4100 -0.2157  0.3530
  330MOL0     O44423   2.470   0.047   5.077  0.3983 -0.7509 -0.1313
  330MOL0     C44424   2.570   0.022   4.972  0.5542  0.1954 -0.2096
  330MOL0     C44425   2.700   0.078   5.018 -0.5484 -0.3013  0.3766
  330MOL0     C44426   2.804   0.044   4.909  0.2985 -0.3748  0.9387
  330MOL0     C44427   2.789   0.126   4.777 -0.3843  0.8251  0.5116
  330MOL0     C44428   2.893   0.109   4.670 -1.0444  0.3031  0.9926
  330MOL0     C44429   3.039   0.145   4.714 -0.4730 -0.4488  0.5341
  330MOL0     C44430   3.125   0.201   4.599  0.1169  0.2515  0.0739
  330MOL0     C44431   3.175   0.092   4.503  0.2325 -0.8834 -0.4130
  330MOL0     N44432   3.291   0.018   4.568  0.0159  0.1692  0.1754
  330MOL0     C44433   3.427   0.053   4.573 -0.0519 -0.4318 -0.4002
  330MOL0     C44434   3.496  -0.049   4.639  0.7057  0.5720 -0.5756
  330MOL0     C44435   3.638  -0.058   4.668  0.3204  0.3285  0.6654
  330MOL0     C44436   3.723   0.052   4.603 -0.0640  0.1436 -0.0942
  330MOL0     C44437   3.863   0.037   4.672 -0.5365 -0.3071  0.2200
  330MOL0     C44438   3.980   0.058   4.587  0.6220  0.0061 -0.3616
  330MOL0     O44439   3.990  -0.038   4.474  0.1194  0.4910 -0.6312
  330MOL0     C44440   4.114  -0.081   4.439  0.0330 -0.3277 -0.3984
  330MOL0     C44441   4.123  -0.195   4.371 -0.6117  0.2723  0.7583
  330MOL0     C44442   4.244  -0.236   4.314 -0.4196 -0.5212 -0.2832
  330MOL0     C44443   4.359  -0.160   4.339 -0.5862 -0.3511 -0.4774
  330MOL0     C44444   4.488  -0.188   4.270  0.3652 -0.6851  0.0363
  330MOL0     O44445   4.603  -0.125   4.317 -0.2511 -0.2572  0.1409
  330MOL0     C44446   4.721  -0.167   4.261  0.2907  0.2897  0.5418
  330MOL0     C44447   4.821  -0.208   4.352  0.0359 -0.9424  0.8104
  330MOL0     C44448   4.952  -0.237   4.308 -0.0295 -0.6048 -0.8815
  330MOL0     C44449   4.977  -0.244   4.172  0.1526 -0.1154  0.0326
  330MOL0     O44450   5.091  -0.306   4.115 -0.0242  0.1420  0.0542
  330MOL0     C44451   5.188  -0.374   4.203  0.9813 -0.2302 -0.7896
  330MOL0     C44452   5.308  -0.433   4.129 -0.2489  0.2109 -0.1878
  330MOL0     C44453   5.391  -0.326   4.054  0.0306  0.3758 -0.4970
  330MOL0     C44454   5.518  -0.398   3.991  0.4099 -0.2407  0.2753
  330MOL0     C44455   5.618  -0.292   3.928  0.1839  0.1259 -0.1655
  330MOL0     C44456   5.763  -0.331   3.935  0.5441  0.8585 -0.6190
  330MOL0     C44457   5.854  -0.253   3.830  0.5371 -0.5972 -0.6780
  330MOL0     C44458   6.006  -0.285   3.866 -0.0954  0.5446 -0.5764
  330MOL0    Cl44459   6.096  -0.184   3.754  0.1151  0.0904  0.1076
  330MOL0     C44460   4.885  -0.191   4.081  0.4031  0.1029  0.3084
  330MOL0     C44461   4.751  -0.157   4.123  0.4582  0.2853 -0.2022
  330MOL0     O44462   4.483  -0.259   4.168  0.6242 -0.2804  0.6997
  330MOL0     C44463   4.348  -0.046   4.422  0.3646 -0.3083  1.1614
  330MOL0     C44464   4.227  -0.000   4.466  0.0701 -0.2116 -0.6239
  330MOL0     N44465   3.398  -0.129   4.689  0.3354  0.5823  0.2578
  330MOL0     N44466   3.279  -0.087   4.658 -0.5666  0.5760  0.1672
  330MOL0     C44467   2.354   0.229   4.963 -0.9437  0.4440  0.1074
  330MOL0     C44468   2.233   0.265   4.903 -0.8825  0.2131 -0.3110
  330MOL0     C44469   1.874   0.172   4.616  0.1446  0.3361 -0.1106
  330MOL0     C44470   1.827   0.063   4.547  0.0561  0.1377  0.8819
  330MOL0     C44471   1.715   0.072   4.461  0.3351  0.3061 -0.4833
  330MOL0     C44472   1.652   0.201   4.448 -0.5865  0.1216  0.0316
  330MOL0     O44473   1.559   0.239   4.353  0.0776 -0.9167  0.7655
  330MOL0     C44474   1.485   0.128   4.295 -0.5802 -0.0256  0.1702
  330MOL0     C44475   1.348   0.179   4.250  0.4702 -0.0284 -0.2833
  330MOL0     C44476   1.269   0.069   4.176  0.1995  0.3656 -0.2354
  330MOL0     C44477   1.160   0.129   4.092  0.1609 -0.2465  1.3187
  330MOL0     C44478   1.071   0.204   4.176  0.0131 -0.3135  0.4488
  330MOL0     C44479   0.991   0.269   4.229  0.4183 -0.2613  0.5853
  330MOL0     C44480   1.694   0.304   4.524  0.0719 -0.9201  0.5817
  330MOL0     C44481   1.802   0.293   4.611  0.4376  0.8950  0.2478
  330MOL0     C44482   1.838   0.406   4.693  0.1572 -1.2765  0.2053
  330MOL0     H44483   2.039  -0.005   4.960 -0.6814  1.8692 -0.1262
  330MOL0     H44484   2.236  -0.070   5.094 -2.9230 -0.2401  0.5161
  330MOL0     H44485   2.580  -0.086   4.955  1.8909  0.5470 -1.8704
  330MOL0     H44486   2.540   0.066   4.876  0.0587  1.4698  0.5020
  330MOL0     H44487   2.726   0.046   5.119  0.8577 -0.7672 -0.1113
  330MOL0     H44488   2.680   0.185   5.027  2.3858  0.5974 -2.0341
  330MOL0     H44489   2.817  -0.063   4.886  1.9969 -0.1635  0.7958
  330MOL0     H44490   2.903   0.076   4.943 -0.8855  3.3726  1.2450
  330MOL0     H44491   2.691   0.109   4.731  0.2672  0.4029 -0.7995
  330MOL0     H44492   2.796   0.231   4.806 -1.8872  1.0374  0.1634
  330MOL0     H44493   2.895   0.002   4.647 -0.0551 -0.0734  2.6814
  330MOL0     H44494   2.865   0.172   4.585 -0.2146  0.7061  1.0034
  330MOL0     H44495   3.019   0.234   4.775  0.8285 -1.4097  2.4529
  330MOL0     H44496   3.099   0.079   4.777  0.6204  0.5301  0.5741
  330MOL0     H44497   3.216   0.244   4.641  1.3033 -0.6778 -1.4259
  330MOL0     H44498   3.066   0.276   4.546  1.9597  2.2168  0.6955
  330MOL0     H44499   3.104   0.015   4.471 -0.6564  0.0799 -0.7876
  330MOL0     H44500   3.208   0.141   4.411  0.1398  1.6878  0.8553
  330MOL0     H44501   3.475   0.144   4.538 -3.5155  1.1927 -1.3794
  330MOL0     H44502   3.645  -0.042   4.776 -0.7432  2.0219  0.5248
  330MOL0     H44503   3.671  -0.158   4.639  0.0085  0.3626  0.1641
  330MOL0     H44504   3.736   0.033   4.496  0.9450  0.1245  0.0222
  330MOL0     H44505   3.685   0.154   4.610  0.9218  0.4955  0.3048
  330MOL0     H44506   3.872  -0.056   4.729  1.8787 -1.9359 -2.5598
  330MOL0     H44507   3.860   0.115   4.748  1.3630  1.0354 -1.0068
  330MOL0     H44508   4.069   0.065   4.650 -1.6792  2.2170  2.9781
  330MOL0     H44509   3.976   0.155   4.537  0.8758 -0.5313 -1.4690
  330MOL0     H44510   4.049  -0.267   4.339  1.8641 -1.8167 -0.6809
  330MOL0     H44511   4.240  -0.329   4.259 -1.4760  0.5973 -2.1756
  330MOL0     H44512   4.795  -0.210   4.458 -0.7902 -2.8097  0.6140
  330MOL0     H44513   5.017  -0.265   4.390 -1.5948  1.5174  1.2190
  330MOL0     H44514   5.213  -0.292   4.271 -0.9088  0.4187 -0.7982
  330MOL0     H44515   5.132  -0.447   4.262  0.9458  0.5096  0.1233
  330MOL0     H44516   5.372  -0.482   4.203  1.8438  1.3340 -1.1657
  330MOL0     H44517   5.275  -0.509   4.058 -0.2719  0.0153  0.0281
  330MOL0     H44518   5.325  -0.269   3.988 -1.3576 -1.0866 -0.4458
  330MOL0     H44519   5.423  -0.248   4.123  1.1489  0.2032 -0.8041
  330MOL0     H44520   5.492  -0.482   3.925 -0.8872  0.2070  0.1768
  330MOL0     H44521   5.572  -0.444   4.074  1.4535 -1.1181 -0.8494
  330MOL0     H44522   5.600  -0.190   3.962 -0.2723  0.1703 -0.5276
  330MOL0     H44523   5.603  -0.286   3.820 -1.6188  0.0965  0.0426
  330MOL0     H44524   5.789  -0.313   4.040 -1.3281 -2.7295  0.6717
  330MOL0     H44525   5.774  -0.438   3.915  1.4186  0.4313  1.7774
  330MOL0     H44526   5.819  -0.150   3.821 -0.7198 -1.0890 -1.6190
  330MOL0     H44527   5.844  -0.295   3.730 -1.5381 -2.5123  0.2676
  330MOL0     H44528   6.026  -0.251   3.968  2.2639 -1.6403 -0.2029
  330MOL0     H44529   6.014  -0.394   3.857 -1.7747  0.0804  2.2260
  330MOL0     H44530   4.914  -0.175   3.978  1.4894 -0.3854  0.5240
  330MOL0     H44531   4.675  -0.111   4.060  0.1029  1.0056  0.7353
  330MOL0     H44532   4.434   0.018   4.441 -0.1794  1.3783 -1.5100
  330MOL0     H44533   4.223   0.091   4.524 -0.5552  0.8647 -2.2823
  330MOL0     H44534   2.438   0.296   4.975  1.6033 -2.4215 -0.6014
  330MOL0     H44535   2.238   0.364   4.858  1.2308  0.5253  0.5021
  330MOL0     H44536   1.893  -0.023   4.555 -0.0850 -0.1872 -1.0393
  330MOL0     H44537   1.686  -0.011   4.396 -1.5322  0.8237 -0.3911
  330MOL0     H44538   1.470   0.048   4.367 -2.8558  0.2983  0.1371
  330MOL0     H44539   1.541   0.086   4.211 -1.1637  1.0043 -0.7549
  330MOL0     H44540   1.360   0.272   4.194  0.1960 -0.1706 -0.5853
  330MOL0     H44541   1.297   0.195   4.345  0.6234 -4.4967  0.8007
  330MOL0     H44542   1.232   0.011   4.261  1.5242 -0.0675  0.0644
  330MOL0     H44543   1.339   0.002   4.125  1.0066  1.3012 -0.3991
  330MOL0     H44544   1.202   0.197   4.017 -0.3866  0.1750  1.3890
  330MOL0     H44545   1.096   0.059   4.036 -1.2672  1.2004  1.0606
  330MOL0     H44546   0.900   0.303   4.274 -1.9835 -3.0540 -1.7797
  330MOL0     H44547   1.630   0.391   4.518  0.8533 -0.4482 -2.1252
  330MOL0     H44548   1.786   0.495   4.656 -0.7672 -1.6406  0.6236
  330MOL0     H44549   1.832   0.408   4.802 -0.0992  0.2373  0.1849
  330MOL0     H44550   1.945   0.419   4.669 -0.0027  1.9853  0.8378
  331MOL0     O44551   7.822   6.367   8.724  0.3518 -0.2989 -0.3716
  331MOL0     C44552   7.765   6.258   8.719  0.2013  0.4833  0.3782
  331MOL0     O44553   7.823   6.135   8.683  0.1926 -0.0387  0.1439
  331MOL0     C44554   7.955   6.132   8.643 -1.0013 -0.6548 -0.5935
  331MOL0     C44555   7.982   6.127   8.508 -1.1153  0.6181  0.6145
  331MOL0     C44556   8.117   6.129   8.463 -0.3176 -0.3368 -0.2598
  331MOL0     C44557   8.223   6.156   8.553 -0.1423  0.5307  0.4356
  331MOL0     O44558   8.357   6.165   8.506  1.0290 -0.2037 -0.2454
  331MOL0     C44559   8.369   6.240   8.388  0.4324  0.2223 -0.4741
  331MOL0     C44560   8.499   6.309   8.385 -0.9838 -0.1767 -0.4865
  331MOL0     C44561   8.625   6.204   8.360  0.1767  0.2557 -0.2834
  331MOL0     C44562   8.764   6.273   8.373  0.4646  0.8232  0.5612
  331MOL0     C44563   8.875   6.165   8.337  0.8986 -0.0429  0.5215
  331MOL0     C44564   9.010   6.237   8.342 -0.7186 -0.1208  0.1273
  331MOL0     C44565   9.132   6.146   8.307  0.4227  0.4318 -0.4538
  331MOL0     C44566   9.274   6.187   8.350 -0.5538  0.1747  0.2696
  331MOL0     N44567   9.291   6.147   8.487  0.8117  0.6478 -0.2251
  331MOL0     C44568   9.320   6.021   8.540  0.1503 -0.6854 -0.4326
  331MOL0     C44569   9.309   6.033   8.669  0.1402  0.1805  0.1025
  331MOL0     C44570   9.326   5.932   8.770 -0.1722 -0.1525  0.7689
  331MOL0     C44571   9.464   5.951   8.825  0.1782  0.6692 -0.4224
  331MOL0     C44572   9.490   5.833   8.930 -0.1518 -0.0479 -0.0812
  331MOL0     C44573   9.646   5.799   8.935 -0.0479  0.1059  1.1813
  331MOL0     O44574   9.713   5.931   8.964  0.1481 -0.4781 -0.6997
  331MOL0     C44575   9.848   5.920   8.998 -0.5321  0.1019  0.4358
  331MOL0     C44576   9.915   5.801   9.016  0.0424 -0.0645 -0.1283
  331MOL0     C44577  10.041   5.799   9.068 -0.5518  0.6333 -0.6533
  331MOL0     C44578  10.118   5.913   9.100  0.1495  0.1309  0.4220
  331MOL0     C44579  10.257   5.898   9.147  0.1197  0.0468  0.8392
  331MOL0     O44580  10.340   6.007   9.119  0.5036  0.4187 -0.5301
  331MOL0     C44581  10.463   6.004   9.174  0.1109 -0.3069 -0.3645
  331MOL0     C44582  10.484   6.058   9.303 -0.1162 -0.7543  0.1319
  331MOL0     C44583  10.612   6.077   9.360  0.2470 -0.0536  0.2504
  331MOL0     C44584  10.719   6.018   9.296  0.4976  0.0169 -0.3945
  331MOL0     O44585  10.847   6.011   9.347  0.1208  0.6111 -0.6942
  331MOL0     C44586  10.906   6.087   9.453 -0.1205 -0.9422  0.0071
  331MOL0     C44587  11.053   6.072   9.439  0.1248 -0.1298 -0.2842
  331MOL0     C44588  11.138   6.140   9.552 -0.6770 -0.4513  0.6189
  331MOL0     C44589  11.293   6.142   9.519 -0.2060  0.4005  0.4005
  331MOL0     C44590  11.368   6.170   9.650 -0.1960 -0.0053  0.5126
  331MOL0     C44591  11.520   6.202   9.632 -0.1327 -2.1017 -1.2133
  331MOL0     C44592  11.597   6.198   9.763 -0.0208  0.1687 -0.7778
  331MOL0     C44593  11.699   6.307   9.756 -0.7026 -0.4566 -0.0109
  331MOL0    Cl44594  11.814   6.299   9.629  0.1491 -0.1359  0.0905
  331MOL0     C44595  10.711   5.965   9.169  1.2107  0.1496 -0.2534
  331MOL0     C44596  10.579   5.970   9.106  0.3610  0.0468  0.1617
  331MOL0     O44597  10.290   5.800   9.217  0.1757  0.0481  0.2024
  331MOL0     C44598  10.058   6.036   9.070 -0.2425  0.8543  0.4822
  331MOL0     C44599   9.919   6.043   9.031  0.3016 -0.2078 -0.4900
  331MOL0     N44600   9.286   6.168   8.696  0.0321 -0.6432  0.3019
  331MOL0     N44601   9.263   6.230   8.588 -0.3253 -0.0983 -0.2131
  331MOL0     C44602   8.196   6.165   8.690 -0.2251  0.3428 -1.5796
  331MOL0     C44603   8.064   6.150   8.735 -0.2397  0.9572  0.0944
  331MOL0     C44604   7.618   6.257   8.738  0.7226  0.0581 -0.4371
  331MOL0     C44605   7.551   6.149   8.692 -0.0192  0.4105  0.8077
  331MOL0     C44606   7.411   6.141   8.699  0.8019 -0.4527 -0.3066
  331MOL0     C44607   7.336   6.241   8.767 -0.2727  0.0659 -0.6150
  331MOL0     O44608   7.204   6.212   8.781  0.0088 -0.9739 -0.4162
  331MOL0     C44609   7.111   6.296   8.846  0.7085 -0.2311  0.3318
  331MOL0     C44610   6.971   6.230   8.829 -0.3219 -0.4589 -0.8924
  331MOL0     C44611   6.861   6.315   8.898 -0.2907  0.3490  0.0657
  331MOL0     C44612   6.734   6.231   8.947 -0.7575  0.2407  1.1030
  331MOL0     C44613   6.673   6.200   8.823  0.7549  0.4520 -0.8113
  331MOL0     C44614   6.629   6.179   8.713 -0.2775 -0.4364 -0.2714
  331MOL0     C44615   7.402   6.356   8.810 -0.3997  0.4387 -0.0747
  331MOL0     C44616   7.544   6.372   8.792 -1.4233  0.0828 -0.2631
  331MOL0     C44617   7.601   6.512   8.824 -0.2926  0.2396  0.0354
  331MOL0     H44618   7.910   6.121   8.427  0.8316 -1.6203 -1.1167
  331MOL0     H44619   8.137   6.105   8.359  1.5005 -0.3667  0.0687
  331MOL0     H44620   8.352   6.185   8.295 -0.0538  0.3614 -0.4725
  331MOL0     H44621   8.293   6.319   8.380 -2.0303 -1.9614  0.1938
  331MOL0     H44622   8.503   6.357   8.483  2.4070 -0.9553 -0.1104
  331MOL0     H44623   8.515   6.384   8.307  2.8863 -0.3953 -0.0627
  331MOL0     H44624   8.611   6.154   8.264  0.2099  1.1860 -0.7934
  331MOL0     H44625   8.625   6.128   8.438  0.6383 -0.0637 -0.5877
  331MOL0     H44626   8.757   6.351   8.297 -2.4146  1.3283  1.2058
  331MOL0     H44627   8.782   6.313   8.473 -0.3663 -1.2518  1.6085
  331MOL0     H44628   8.862   6.082   8.407 -3.5738  1.0809  1.3351
  331MOL0     H44629   8.855   6.124   8.238  1.9238 -0.5446  0.5048
  331MOL0     H44630   9.008   6.317   8.268  3.4864 -0.3765 -0.5006
  331MOL0     H44631   9.020   6.294   8.435 -0.3725  0.5631 -0.3237
  331MOL0     H44632   9.131   6.130   8.198  1.5558 -0.6932 -0.3166
  331MOL0     H44633   9.113   6.047   8.347 -0.1845  0.5087 -0.5464
  331MOL0     H44634   9.350   6.139   8.288 -0.4514  0.8562 -0.1454
  331MOL0     H44635   9.283   6.295   8.333  0.3118  0.0377 -0.2023
  331MOL0     H44636   9.334   5.929   8.483 -0.5855 -2.3633  1.9447
  331MOL0     H44637   9.258   5.954   8.852  1.5028  3.2382  1.4241
  331MOL0     H44638   9.303   5.834   8.726 -0.1858 -0.3698  1.2489
  331MOL0     H44639   9.531   5.938   8.739 -0.6925  1.7679 -1.2962
  331MOL0     H44640   9.490   6.046   8.873 -2.3381  0.7314  0.9750
  331MOL0     H44641   9.444   5.739   8.896 -0.7322 -0.3782  1.5403
  331MOL0     H44642   9.452   5.851   9.031  1.4436 -0.7167  0.6729
  331MOL0     H44643   9.679   5.757   8.839  1.7595  0.4368  1.6248
  331MOL0     H44644   9.670   5.724   9.011 -0.5514 -1.5699 -0.2491
  331MOL0     H44645   9.879   5.701   8.993 -1.9782  0.6379 -0.2341
  331MOL0     H44646  10.086   5.703   9.095 -1.7779  0.2205 -0.0000
  331MOL0     H44647  10.396   6.101   9.350  0.0871 -1.5225  1.2416
  331MOL0     H44648  10.621   6.120   9.459 -2.2431 -2.3698  1.6191
  331MOL0     H44649  10.871   6.190   9.468  1.1892 -0.6740  1.6592
  331MOL0     H44650  10.864   6.043   9.544 -2.0190  2.9862  1.2630
  331MOL0     H44651  11.087   5.968   9.450  0.0489 -0.2500 -1.0995
  331MOL0     H44652  11.083   6.113   9.342  2.0212  1.2159  0.8016
  331MOL0     H44653  11.115   6.245   9.574 -0.0402  0.2554 -1.7166
  331MOL0     H44654  11.123   6.084   9.644 -1.0851 -1.7102 -0.1887
  331MOL0     H44655  11.317   6.223   9.449  0.1488  0.1772  0.2598
  331MOL0     H44656  11.315   6.048   9.469  0.5560  1.2472 -0.9184
  331MOL0     H44657  11.366   6.082   9.716  4.5747 -1.5294 -0.9925
  331MOL0     H44658  11.321   6.254   9.702 -0.6146  0.3711 -0.4487
  331MOL0     H44659  11.563   6.134   9.558  0.7392 -3.0436  0.1186
  331MOL0     H44660  11.520   6.306   9.595  2.0182 -1.6285 -0.0496
  331MOL0     H44661  11.642   6.100   9.782 -1.4770 -0.3401  0.1647
  331MOL0     H44662  11.524   6.210   9.844  0.5015 -0.9294 -0.1218
  331MOL0     H44663  11.637   6.396   9.740 -0.9083 -0.4535  0.7517
  331MOL0     H44664  11.741   6.324   9.856 -3.2545 -1.6030  1.3749
  331MOL0     H44665  10.798   5.923   9.119  2.5930  1.6655  0.7629
  331MOL0     H44666  10.570   5.938   9.003 -1.3625 -0.1289  0.3257
  331MOL0     H44667  10.118   6.126   9.078  0.1558  0.7449 -0.9507
  331MOL0     H44668   9.864   6.136   9.038  2.3574  1.0563 -0.1646
  331MOL0     H44669   8.273   6.169   8.767 -0.3986 -2.0038 -1.1983
  331MOL0     H44670   8.033   6.158   8.839  1.5249 -0.2956  0.7647
  331MOL0     H44671   7.595   6.060   8.648 -1.4207  0.3331 -0.5439
  331MOL0     H44672   7.348   6.058   8.671 -0.1749 -0.2463  1.1635
  331MOL0     H44673   7.098   6.396   8.804 -1.4048 -0.7721 -0.3897
  331MOL0     H44674   7.142   6.301   8.951  0.3012 -0.4738  0.4655
  331MOL0     H44675   6.985   6.127   8.863  0.6138 -0.4098 -1.0985
  331MOL0     H44676   6.951   6.225   8.721 -2.4968 -4.5367 -0.5234
  331MOL0     H44677   6.825   6.399   8.838  1.6215  0.3877 -1.1017
  331MOL0     H44678   6.905   6.355   8.990 -0.1687  0.1962  0.0753
  331MOL0     H44679   6.759   6.130   8.982  0.5724  0.4291  0.7682
  331MOL0     H44680   6.678   6.272   9.031 -1.7342  0.4334  0.3757
  331MOL0     H44681   6.603   6.155   8.612  2.8838  2.6354 -2.0238
  331MOL0     H44682   7.342   6.437   8.851 -1.9579  0.7482 -2.7434
  331MOL0     H44683   7.657   6.550   8.738 -1.6279  0.6631 -0.6740
  331MOL0     H44684   7.518   6.579   8.848 -0.8536  0.5575 -2.5146
  331MOL0     H44685   7.677   6.508   8.903  1.0031 -1.4285 -1.2055
  332MOL0     O44686   1.131   6.701   6.966  0.5249  0.3725  0.4196
  332MOL0     C44687   1.097   6.605   6.893 -0.3571  0.1011  0.0487
  332MOL0     O44688   1.187   6.518   6.837 -0.3645  0.4628  0.5165
  332MOL0     C44689   1.321   6.547   6.823 -0.7132 -0.1476  0.2680
  332MOL0     C44690   1.383   6.663   6.783 -1.2344  0.1845  0.9031
  332MOL0     C44691   1.521   6.682   6.795  0.1464  0.0835 -0.2054
  332MOL0     C44692   1.605   6.588   6.850  0.6061 -0.4977  0.4836
  332MOL0     O44693   1.727   6.614   6.896 -0.4035 -0.5344 -0.7660
  332MOL0     C44694   1.819   6.623   6.789  0.7657  0.6227  0.1417
  332MOL0     C44695   1.962   6.604   6.841  0.2714 -0.1686 -0.2094
  332MOL0     C44696   2.019   6.739   6.893  0.6404 -0.0835  0.2063
  332MOL0     C44697   2.153   6.728   6.960 -0.2274 -0.2131 -0.0062
  332MOL0     C44698   2.209   6.867   6.967 -0.9944 -0.5254 -0.5451
  332MOL0     C44699   2.349   6.885   7.034 -0.2843  1.4125 -0.2942
  332MOL0     C44700   2.338   6.871   7.184  0.5223  0.8231 -0.1713
  332MOL0     C44701   2.477   6.898   7.252  0.8241 -0.2018 -0.3876
  332MOL0     N44702   2.526   7.030   7.238  0.3547 -0.2683  0.4770
  332MOL0     C44703   2.444   7.138   7.244 -0.1038  0.9450  0.1713
  332MOL0     C44704   2.508   7.242   7.193  0.0930 -0.8092 -0.2289
  332MOL0     C44705   2.470   7.389   7.189 -0.8104 -0.2818  0.0421
  332MOL0     C44706   2.487   7.456   7.050  0.0001 -1.0132 -0.3873
  332MOL0     C44707   2.414   7.378   6.928  0.1940 -0.0094  0.5892
  332MOL0     C44708   2.265   7.374   6.931  0.4331 -0.0346 -0.2260
  332MOL0     O44709   2.207   7.500   6.962 -0.5554  0.3869  0.4982
  332MOL0     C44710   2.072   7.505   6.948  0.2700  0.3180  0.5214
  332MOL0     C44711   1.981   7.397   6.914 -0.3053 -0.5372  0.2006
  332MOL0     C44712   1.841   7.420   6.908  0.1547  0.5504 -0.0535
  332MOL0     C44713   1.792   7.550   6.912  0.2666 -0.4141  0.0583
  332MOL0     C44714   1.648   7.574   6.906  0.6305 -0.3404  1.1029
  332MOL0     O44715   1.565   7.468   6.931  0.0572  0.0426 -0.0402
  332MOL0     C44716   1.440   7.488   6.976  0.0130 -0.2316 -0.0710
  332MOL0     C44717   1.329   7.476   6.883 -0.3005 -0.0261 -0.4383
  332MOL0     C44718   1.199   7.458   6.935 -0.6570  0.6727 -0.0945
  332MOL0     C44719   1.171   7.459   7.074  0.4784 -1.2504  0.9430
  332MOL0     O44720   1.046   7.430   7.133 -0.2320  0.4614  0.4985
  332MOL0     C44721   0.931   7.448   7.054  0.5466  0.6771  0.4849
  332MOL0     C44722   0.814   7.425   7.132 -0.4526 -0.0072 -0.8484
  332MOL0     C44723   0.696   7.520   7.080  1.2014 -0.8145 -0.3766
  332MOL0     C44724   0.560   7.491   7.154 -0.8060 -0.0237 -0.3022
  332MOL0     C44725   0.436   7.551   7.073  0.0864 -0.0174  0.9052
  332MOL0     C44726   0.305   7.565   7.151 -1.0231  0.3175  0.4343
  332MOL0     C44727   0.199   7.641   7.083 -0.0208  0.3879 -0.6946
  332MOL0     C44728   0.074   7.562   7.062 -0.2886 -0.1848 -0.1279
  332MOL0    Cl44729  -0.000   7.540   7.230 -0.0455  0.2989 -0.4135
  332MOL0     C44730   1.280   7.473   7.162 -0.5543  0.0118  0.7793
  332MOL0     C44731   1.411   7.491   7.117 -0.5709  0.3492  0.4046
  332MOL0     O44732   1.610   7.687   6.869 -0.6994 -0.7088 -1.0392
  332MOL0     C44733   1.884   7.650   6.936  0.7703 -0.5081  0.6749
  332MOL0     C44734   2.017   7.627   6.958  0.4711 -0.5050 -0.6477
  332MOL0     N44735   2.635   7.192   7.161 -0.4418 -0.0634  0.5590
  332MOL0     N44736   2.645   7.070   7.186  0.0208  0.3207 -0.5196
  332MOL0     C44737   1.552   6.464   6.883 -0.2924  0.5190 -0.6802
  332MOL0     C44738   1.412   6.446   6.858 -0.1264  0.4876  0.5991
  332MOL0     C44739   0.955   6.583   6.858  0.8156  0.2164  0.8216
  332MOL0     C44740   0.855   6.622   6.958 -0.4593  0.3192 -0.5273
  332MOL0     C44741   0.719   6.601   6.942 -0.3955  0.4477 -0.3700
  332MOL0     C44742   0.672   6.540   6.831  0.1483 -0.0528  0.2138
  332MOL0     O44743   0.533   6.518   6.829  0.3597 -0.0891 -0.0473
  332MOL0     C44744   0.479   6.455   6.705 -0.1117  0.7777 -0.4715
  332MOL0     C44745   0.336   6.483   6.726 -0.2646  0.0868  0.2498
  332MOL0     C44746   0.281   6.392   6.837 -0.3926  0.7110 -0.8414
  332MOL0     C44747   0.127   6.382   6.801 -0.7501  0.6481 -0.7677
  332MOL0     C44748   0.051   6.322   6.910  0.8466  0.0294 -0.5009
  332MOL0     C44749  -0.009   6.270   7.001  0.1412  0.8172  0.0154
  332MOL0     C44750   0.768   6.494   6.730  0.8960  0.5612  0.1611
  332MOL0     C44751   0.903   6.517   6.741 -0.2507 -0.3654 -0.6760
  332MOL0     C44752   0.990   6.454   6.632  0.4697 -0.1366  0.3590
  332MOL0     H44753   1.310   6.740   6.757 -0.1619  1.2581  0.9821
  332MOL0     H44754   1.566   6.778   6.774  0.2395  0.2348  0.6481
  332MOL0     H44755   1.801   6.544   6.716  0.8625  1.5173 -0.8741
  332MOL0     H44756   1.810   6.712   6.727  1.2985  0.2719 -0.4554
  332MOL0     H44757   2.023   6.560   6.762  0.9584  2.7110 -1.4372
  332MOL0     H44758   1.964   6.536   6.927  0.7136 -1.2772 -1.0737
  332MOL0     H44759   1.952   6.783   6.967  0.6954 -0.6957  0.6252
  332MOL0     H44760   2.027   6.809   6.810 -3.1193 -0.4833 -0.6577
  332MOL0     H44761   2.155   6.680   7.058  2.5071 -0.6226 -0.1717
  332MOL0     H44762   2.228   6.673   6.901 -0.2946 -1.2226  0.8098
  332MOL0     H44763   2.217   6.908   6.865  0.1291  0.5163 -0.0602
  332MOL0     H44764   2.149   6.939   7.024  2.1188  0.2923  1.9925
  332MOL0     H44765   2.408   6.803   6.993 -2.4371 -2.7421  3.9690
  332MOL0     H44766   2.390   6.978   6.993 -1.2243  1.7966 -0.3903
  332MOL0     H44767   2.314   6.766   7.203  2.4329  0.1722 -1.0643
  332MOL0     H44768   2.258   6.936   7.219 -0.5660  0.3151 -1.5713
  332MOL0     H44769   2.455   6.882   7.358 -0.0934  0.7522 -0.4137
  332MOL0     H44770   2.554   6.825   7.225 -0.4265 -1.9790  0.5804
  332MOL0     H44771   2.342   7.134   7.283  0.1364 -2.7501  0.8300
  332MOL0     H44772   2.367   7.404   7.224 -1.5578 -2.1189 -1.2402
  332MOL0     H44773   2.539   7.436   7.260  1.9516 -1.5522 -1.6471
  332MOL0     H44774   2.461   7.562   7.061 -1.8424 -1.0951 -3.0024
  332MOL0     H44775   2.593   7.463   7.023  0.2813  1.7763  1.0878
  332MOL0     H44776   2.451   7.276   6.913 -1.2397 -0.9362  2.9287
  332MOL0     H44777   2.438   7.440   6.841  0.6398 -1.1952 -0.1534
  332MOL0     H44778   2.234   7.307   7.011 -0.6661  0.5589 -0.1444
  332MOL0     H44779   2.224   7.330   6.839 -0.5587  0.1801  0.1055
  332MOL0     H44780   2.016   7.296   6.897 -0.5932 -0.7198  0.6632
  332MOL0     H44781   1.787   7.329   6.885  1.9064 -0.6853  0.5760
  332MOL0     H44782   1.342   7.463   6.776 -0.9377  1.0904 -0.6711
  332MOL0     H44783   1.119   7.443   6.864  2.3742  1.4032 -3.9657
  332MOL0     H44784   0.934   7.543   7.000  0.5535 -0.2498 -1.2085
  332MOL0     H44785   0.938   7.373   6.975 -0.8591  1.8808 -0.8588
  332MOL0     H44786   0.785   7.319   7.138 -1.1960  0.2520  0.7254
  332MOL0     H44787   0.847   7.451   7.233 -0.6755  0.4202 -0.8867
  332MOL0     H44788   0.711   7.625   7.105 -1.8073 -0.3639 -0.0194
  332MOL0     H44789   0.678   7.517   6.972  0.0461 -0.0820 -0.2319
  332MOL0     H44790   0.563   7.533   7.255 -1.4809  1.8965 -1.0286
  332MOL0     H44791   0.543   7.384   7.163 -3.1784  0.4008  1.0939
  332MOL0     H44792   0.420   7.480   6.991  2.1038 -1.2999  1.5570
  332MOL0     H44793   0.461   7.647   7.028 -1.5690 -1.5557 -3.9658
  332MOL0     H44794   0.267   7.468   7.186 -1.4387 -0.1662 -1.2449
  332MOL0     H44795   0.341   7.626   7.234 -0.7543 -0.1655  0.6772
  332MOL0     H44796   0.237   7.695   6.996 -0.1502  1.7206  0.0488
  332MOL0     H44797   0.168   7.723   7.150 -1.2819  0.7438 -1.6659
  332MOL0     H44798   0.010   7.627   7.002 -0.7812  2.2463  2.8233
  332MOL0     H44799   0.103   7.473   7.005 -1.3931 -0.7116  0.1154
  332MOL0     H44800   1.257   7.466   7.268 -1.1665  0.2122  0.6673
  332MOL0     H44801   1.499   7.513   7.177 -0.1874 -0.1876  0.0478
  332MOL0     H44802   1.837   7.746   6.955  0.0076 -0.2364 -2.1489
  332MOL0     H44803   2.073   7.717   6.980 -2.3913  0.6829  2.8465
  332MOL0     H44804   1.609   6.381   6.922 -1.9712 -0.6436 -0.5847
  332MOL0     H44805   1.370   6.353   6.893  0.9746 -0.1762  0.2088
  332MOL0     H44806   0.899   6.642   7.056  0.9054 -2.9269 -0.3546
  332MOL0     H44807   0.650   6.625   7.023  1.0957  2.6497  0.3570
  332MOL0     H44808   0.503   6.348   6.701  1.5579  1.1518 -3.5280
  332MOL0     H44809   0.515   6.504   6.615  2.8063 -1.6343 -0.7765
  332MOL0     H44810   0.283   6.458   6.634 -0.1766 -2.5525  0.8343
  332MOL0     H44811   0.306   6.585   6.750 -2.3870  0.2524 -2.6239
  332MOL0     H44812   0.297   6.442   6.932 -0.2889  0.2127 -0.5943
  332MOL0     H44813   0.333   6.296   6.847 -3.9406 -1.1672  2.0801
  332MOL0     H44814   0.083   6.479   6.777  2.2850  2.1007 -0.9153
  332MOL0     H44815   0.103   6.320   6.714 -1.0621  0.4246 -0.5230
  332MOL0     H44816  -0.071   6.219   7.073  0.8970  0.0725  0.1437
  332MOL0     H44817   0.739   6.431   6.647  4.7590 -2.0993  0.5610
  332MOL0     H44818   1.022   6.355   6.667  0.4645  0.4158  2.0103
  332MOL0     H44819   0.929   6.430   6.545 -1.7220 -1.7280  2.2313
  332MOL0     H44820   1.073   6.520   6.604  0.0376 -0.3624 -1.6438
  333MOL0     O44821   4.256   3.048   0.759  0.0243 -0.1516 -0.3279
  333MOL0     C44822   4.213   3.151   0.804  0.1045 -0.0603  0.3211
  333MOL0     O44823   4.286   3.270   0.806 -0.3679  0.6731  0.2219
  333MOL0     C44824   4.386   3.277   0.704  0.4291  0.2500 -0.4784
  333MOL0     C44825   4.517   3.307   0.746  0.8108 -0.1844  0.0690
  333MOL0     C44826   4.621   3.329   0.655 -0.1031 -0.5781 -0.0488
  333MOL0     C44827   4.588   3.324   0.526 -0.5963 -0.4468  0.5088
  333MOL0     O44828   4.700   3.338   0.439  0.7612  0.5522  0.1545
  333MOL0     C44829   4.677   3.317   0.300 -1.0394 -0.4690  0.1260
  333MOL0     C44830   4.806   3.342   0.208 -0.3537  0.7925  0.5778
  333MOL0     C44831   4.934   3.260   0.248 -0.4424 -0.0178  0.2848
  333MOL0     C44832   5.049   3.307   0.164 -0.6019  0.2397  0.6363
  333MOL0     C44833   5.171   3.220   0.173  0.2137 -1.0814  0.4877
  333MOL0     C44834   5.287   3.289   0.096  0.5611 -0.4268  0.2057
  333MOL0     C44835   5.403   3.185   0.080  0.7410  0.2204 -0.1381
  333MOL0     C44836   5.540   3.253   0.043 -0.0492 -0.5869 -0.5230
  333MOL0     N44837   5.533   3.280  -0.104 -0.0283  0.4681 -0.0780
  333MOL0     C44838   5.577   3.197  -0.200 -0.0801  0.2849  0.2177
  333MOL0     C44839   5.578   3.268  -0.315 -0.1322  0.4191 -0.4602
  333MOL0     C44840   5.625   3.224  -0.449  0.1047 -0.2438 -0.1615
  333MOL0     C44841   5.780   3.208  -0.452 -0.1557  0.3331 -0.6535
  333MOL0     C44842   5.850   3.152  -0.572  0.4097 -0.0501  0.4463
  333MOL0     C44843   5.819   3.205  -0.708  0.4177  0.5072  0.2627
  333MOL0     O44844   5.888   3.131  -0.815 -0.3441  0.1937  0.7336
  333MOL0     C44845   6.001   3.184  -0.878 -0.3530  0.0869  0.3970
  333MOL0     C44846   6.034   3.124  -1.006  0.2839 -0.0682 -0.2200
  333MOL0     C44847   6.155   3.161  -1.073 -0.0205 -1.6007  0.1720
  333MOL0     C44848   6.248   3.250  -1.020  0.0061  0.1346 -0.4547
  333MOL0     C44849   6.369   3.284  -1.096 -0.2071 -0.2963  0.5082
  333MOL0     O44850   6.402   3.196  -1.199  0.4229  0.2593 -0.9990
  333MOL0     C44851   6.521   3.231  -1.267 -0.1783  0.5019 -0.4818
  333MOL0     C44852   6.510   3.237  -1.400 -0.7793 -0.5677 -0.5505
  333MOL0     C44853   6.623   3.247  -1.483 -0.2896  0.6261  0.0470
  333MOL0     C44854   6.751   3.250  -1.422  0.0948  0.0123  0.3352
  333MOL0     O44855   6.864   3.255  -1.498 -0.3594 -0.3555  0.3576
  333MOL0     C44856   6.865   3.200  -1.633  0.4919  0.2126 -1.1316
  333MOL0     C44857   7.010   3.214  -1.677  0.3306 -0.8209 -0.5604
  333MOL0     C44858   7.123   3.168  -1.583 -0.2031 -0.5717  0.0616
  333MOL0     C44859   7.252   3.195  -1.658  0.3363 -0.0906 -0.4113
  333MOL0     C44860   7.370   3.099  -1.621 -0.7224  0.6796 -0.7069
  333MOL0     C44861   7.429   3.121  -1.482  0.5518 -0.1519 -0.4579
  333MOL0     C44862   7.473   3.269  -1.449 -0.3224 -0.4874  0.2147
  333MOL0     C44863   7.543   3.283  -1.321  0.0505  0.3736 -0.5447
  333MOL0    Cl44864   7.701   3.188  -1.341 -0.0180  0.1856 -0.3999
  333MOL0     C44865   6.761   3.236  -1.289  0.5092 -0.7562  0.2595
  333MOL0     C44866   6.649   3.220  -1.209 -0.0687 -0.8363  0.2161
  333MOL0     O44867   6.426   3.387  -1.066 -0.9462  0.2334 -0.4284
  333MOL0     C44868   6.210   3.313  -0.898 -0.0584  0.3970 -0.0286
  333MOL0     C44869   6.089   3.284  -0.831 -0.4321  0.1925  0.5853
  333MOL0     N44870   5.542   3.397  -0.282  0.5689  0.0721 -0.9073
  333MOL0     N44871   5.528   3.404  -0.152  0.4082 -0.3656 -0.1672
  333MOL0     C44872   4.462   3.288   0.483 -1.0683 -0.1584  0.0172
  333MOL0     C44873   4.356   3.260   0.567 -0.8589 -0.3606 -0.2212
  333MOL0     C44874   4.079   3.135   0.877 -0.0973 -0.1684  0.9436
  333MOL0     C44875   4.043   3.007   0.920  0.3730 -0.6214 -0.2594
  333MOL0     C44876   3.914   2.981   0.966  0.0056 -0.7159  0.3814
  333MOL0     C44877   3.832   3.089   0.988 -0.6152 -1.0887  0.0169
  333MOL0     O44878   3.701   3.077   1.038  0.4049  0.6826  0.0048
  333MOL0     C44879   3.631   2.948   1.037 -0.8138  0.2685  1.1629
  333MOL0     C44880   3.513   2.959   1.128 -0.2328 -0.2006  0.1194
  333MOL0     C44881   3.541   3.034   1.264 -0.4281 -0.1986 -0.6408
  333MOL0     C44882   3.675   2.985   1.325 -0.2523 -0.2871 -0.5180
  333MOL0     C44883   3.709   2.841   1.311  0.0929  0.0937 -0.5232
  333MOL0     C44884   3.738   2.723   1.289  0.1980  0.3734 -0.3100
  333MOL0     C44885   3.879   3.219   0.964 -0.1342 -0.1595  0.3049
  333MOL0     C44886   4.001   3.245   0.900 -0.5986  0.0454  0.0941
  333MOL0     C44887   4.036   3.387   0.874  0.4795  0.1478  0.4907
  333MOL0     H44888   4.530   3.318   0.854 -1.8469 -1.6528  0.6186
  333MOL0     H44889   4.721   3.342   0.695 -0.0040  1.6335 -0.8854
  333MOL0     H44890   4.661   3.209   0.288 -1.1242 -0.4495  0.0650
  333MOL0     H44891   4.601   3.385   0.259 -0.5039 -0.1535 -0.3587
  333MOL0     H44892   4.829   3.449   0.213  1.1051  0.6633 -1.7658
  333MOL0     H44893   4.781   3.317   0.105 -0.9400 -1.7319  1.2514
  333MOL0     H44894   4.923   3.151   0.249  1.2516 -0.3438 -3.0565
  333MOL0     H44895   4.962   3.290   0.349  1.1605  0.4952 -0.2919
  333MOL0     H44896   5.024   3.304   0.057 -1.3877 -0.4590  0.8317
  333MOL0     H44897   5.084   3.409   0.183  2.7639 -0.2213 -2.0454
  333MOL0     H44898   5.189   3.214   0.281 -1.5960  1.4015  1.0063
  333MOL0     H44899   5.147   3.119   0.140 -2.6531  0.1453 -1.5661
  333MOL0     H44900   5.261   3.316  -0.007  2.6134 -0.9286 -0.4868
  333MOL0     H44901   5.324   3.385   0.135  2.5294 -1.2258  0.4238
  333MOL0     H44902   5.381   3.104   0.009  1.6952  0.1309 -0.3373
  333MOL0     H44903   5.414   3.145   0.181 -3.0058  1.3649  0.9088
  333MOL0     H44904   5.563   3.341   0.104 -1.2539 -0.1988 -0.6093
  333MOL0     H44905   5.620   3.181   0.061  0.2825 -0.0033  0.4346
  333MOL0     H44906   5.612   3.095  -0.189 -2.3426 -0.4337  1.5056
  333MOL0     H44907   5.575   3.131  -0.478 -0.2944  0.5234 -2.0726
  333MOL0     H44908   5.603   3.299  -0.525  1.0472  1.7015  1.4049
  333MOL0     H44909   5.818   3.309  -0.438 -2.8077  1.5998 -1.9291
  333MOL0     H44910   5.808   3.149  -0.364  2.3323 -1.4527 -2.4751
  333MOL0     H44911   5.832   3.044  -0.569  0.3226 -0.0237  0.9662
  333MOL0     H44912   5.958   3.167  -0.562  0.7373 -1.5308 -0.5157
  333MOL0     H44913   5.840   3.313  -0.713  0.0196  0.7617  2.7588
  333MOL0     H44914   5.711   3.189  -0.714  0.1419  1.4995  1.7501
  333MOL0     H44915   5.959   3.055  -1.044  0.8641 -0.7861 -0.0904
  333MOL0     H44916   6.164   3.110  -1.169  0.3262  1.5926 -1.6382
  333MOL0     H44917   6.411   3.226  -1.441 -0.9801 -1.7201  0.1906
  333MOL0     H44918   6.605   3.253  -1.590  0.6444 -1.0679 -0.2453
  333MOL0     H44919   6.835   3.096  -1.619 -1.6747  1.1055  1.9827
  333MOL0     H44920   6.794   3.247  -1.701  0.2586  1.3598 -0.1358
  333MOL0     H44921   7.017   3.172  -1.778 -3.6158 -2.2767 -0.3965
  333MOL0     H44922   7.026   3.323  -1.681  2.5788 -1.0178  1.1987
  333MOL0     H44923   7.118   3.216  -1.484  0.4729 -1.5935  0.6045
  333MOL0     H44924   7.116   3.060  -1.572  1.0601 -0.8044 -1.2596
  333MOL0     H44925   7.282   3.298  -1.633 -0.3751 -0.1688  0.8147
  333MOL0     H44926   7.231   3.189  -1.765  0.4812 -0.8186 -0.4048
  333MOL0     H44927   7.453   3.117  -1.690 -2.7630 -0.0207 -3.5642
  333MOL0     H44928   7.345   2.993  -1.632 -3.1039  0.9459  1.2699
  333MOL0     H44929   7.351   3.089  -1.411  2.9308  1.7548  3.3697
  333MOL0     H44930   7.509   3.047  -1.475 -1.2162 -2.0457  1.4338
  333MOL0     H44931   7.386   3.332  -1.432 -0.6097 -0.5794 -0.8106
  333MOL0     H44932   7.538   3.309  -1.528  0.7690 -0.5951  1.0272
  333MOL0     H44933   7.572   3.386  -1.302 -0.2459  0.5692 -1.1184
  333MOL0     H44934   7.480   3.245  -1.239 -1.7994  0.9011 -1.6657
  333MOL0     H44935   6.859   3.243  -1.242 -0.0454  0.8079  1.2793
  333MOL0     H44936   6.666   3.216  -1.102  0.4369  1.6541  0.2876
  333MOL0     H44937   6.274   3.376  -0.837  0.4850 -0.8474  0.7339
  333MOL0     H44938   6.076   3.343  -0.741 -0.6803 -1.9263  2.0205
  333MOL0     H44939   4.448   3.271   0.377  1.8070  0.8028 -0.5895
  333MOL0     H44940   4.252   3.246   0.538 -0.5830 -1.1480 -0.8427
  333MOL0     H44941   4.120   2.930   0.915  0.3949 -0.5845 -0.4804
  333MOL0     H44942   3.878   2.883   0.995 -0.4560 -0.4338  0.7827
  333MOL0     H44943   3.695   2.865   1.068 -0.8610 -0.3631 -0.3454
  333MOL0     H44944   3.607   2.930   0.932  0.0774  0.3055  0.9441
  333MOL0     H44945   3.478   2.858   1.153 -3.2995  0.9177  0.7004
  333MOL0     H44946   3.429   3.008   1.078 -0.5734 -0.2404  0.6462
  333MOL0     H44947   3.456   3.015   1.329  2.5025 -0.5939  3.4271
  333MOL0     H44948   3.544   3.142   1.247  1.1162  0.0985  1.2220
  333MOL0     H44949   3.760   3.033   1.276  0.5616 -0.4903  0.6726
  333MOL0     H44950   3.676   3.012   1.431 -1.5596  0.7631 -0.7369
  333MOL0     H44951   3.748   2.618   1.269 -1.6700  0.4795 -2.1301
  333MOL0     H44952   3.824   3.304   1.004 -1.0497 -0.7140  0.2481
  333MOL0     H44953   4.111   3.419   0.947 -2.2353 -0.4109  3.7884
  333MOL0     H44954   4.078   3.407   0.775 -0.2121 -0.9970 -0.0580
  333MOL0     H44955   3.950   3.453   0.888 -0.5754 -1.4021  1.6692
  334MOL0     O44956   7.530   4.400   7.039  0.3343 -0.7313  0.0124
  334MOL0     C44957   7.592   4.455   6.954 -0.8240 -0.6169  0.4816
  334MOL0     O44958   7.694   4.537   6.977 -0.5354  0.2212 -0.1225
  334MOL0     C44959   7.713   4.580   7.105  0.9541  0.3769  1.1761
  334MOL0     C44960   7.821   4.526   7.174  0.6515 -0.0980 -0.7127
  334MOL0     C44961   7.859   4.577   7.304  0.8890 -0.7745 -0.5065
  334MOL0     C44962   7.805   4.707   7.341  0.2098 -0.1565  0.1008
  334MOL0     O44963   7.848   4.776   7.452 -0.2677  0.2495  0.2618
  334MOL0     C44964   7.970   4.735   7.517  0.4831 -0.1157  0.4668
  334MOL0     C44965   8.023   4.857   7.601 -0.2674  0.6042  0.2008
  334MOL0     C44966   8.158   4.830   7.674  0.1813 -0.0243 -0.2331
  334MOL0     C44967   8.164   4.689   7.748 -0.0556  0.7163 -0.0587
  334MOL0     C44968   8.301   4.677   7.813 -0.1690 -0.5847  0.3412
  334MOL0     C44969   8.302   4.662   7.965 -0.1177 -0.2306  0.0821
  334MOL0     C44970   8.249   4.525   8.006 -0.2777  0.1787 -0.0670
  334MOL0     C44971   8.274   4.489   8.154 -0.4121  0.0033  0.2959
  334MOL0     N44972   8.414   4.452   8.169  0.8103  0.5962  0.2217
  334MOL0     C44973   8.472   4.334   8.147 -1.0393  0.0014 -0.6118
  334MOL0     C44974   8.608   4.355   8.161  0.0589 -0.0287  0.1308
  334MOL0     C44975   8.723   4.256   8.139 -0.7485  0.1827 -0.0229
  334MOL0     C44976   8.756   4.219   7.995  0.5134 -1.1641 -0.4358
  334MOL0     C44977   8.838   4.317   7.919 -0.2833 -0.9655 -0.0783
  334MOL0     C44978   8.961   4.374   7.990 -0.4742 -0.1974  0.5921
  334MOL0     O44979   9.072   4.279   8.006 -0.1169 -0.2707 -0.4993
  334MOL0     C44980   9.162   4.307   8.104 -0.0577  1.1279  0.5046
  334MOL0     C44981   9.176   4.432   8.179 -0.2202  0.9494 -0.5097
  334MOL0     C44982   9.289   4.437   8.268  0.1874 -0.3668  0.2173
  334MOL0     C44983   9.387   4.344   8.262  0.3378 -0.3203  0.6577
  334MOL0     C44984   9.510   4.374   8.338  0.0230 -0.1465 -0.4039
  334MOL0     O44985   9.601   4.271   8.336  0.7351 -0.9978 -0.0641
  334MOL0     C44986   9.717   4.279   8.410 -0.3132  1.2487 -0.2582
  334MOL0     C44987   9.773   4.151   8.431 -0.3001  0.3641 -0.2198
  334MOL0     C44988   9.897   4.129   8.504 -0.2081 -0.1201 -0.0992
  334MOL0     C44989   9.970   4.243   8.557  0.4884 -0.2838  0.0693
  334MOL0     O44990  10.079   4.221   8.632 -0.3283  0.3584 -0.2571
  334MOL0     C44991  10.163   4.336   8.644  0.6817 -0.1292  0.0058
  334MOL0     C44992  10.286   4.301   8.723 -0.0335  0.2709 -0.4603
  334MOL0     C44993  10.361   4.167   8.688 -0.6058 -0.2417  0.1667
  334MOL0     C44994  10.483   4.178   8.783 -0.0503 -0.1744 -1.0657
  334MOL0     C44995  10.610   4.120   8.734  0.4302 -0.1181 -0.2530
  334MOL0     C44996  10.737   4.153   8.820  0.4298 -0.4036  0.2065
  334MOL0     C44997  10.866   4.079   8.776  0.5466 -0.6267 -0.2213
  334MOL0     C44998  10.935   4.006   8.893 -0.1841  0.3822 -0.3104
  334MOL0    Cl44999  11.082   3.929   8.823 -0.2848  0.2994  0.1380
  334MOL0     C45000   9.902   4.371   8.533 -0.0186  0.1200 -0.3823
  334MOL0     C45001   9.791   4.388   8.448 -0.0701  0.5688 -1.1357
  334MOL0     O45002   9.518   4.474   8.405  0.0451 -0.0097 -0.1225
  334MOL0     C45003   9.373   4.224   8.192 -0.1121  0.2759  0.2877
  334MOL0     C45004   9.262   4.209   8.114  0.7521 -0.8022  0.0697
  334MOL0     N45005   8.628   4.490   8.203 -0.3040 -0.0687 -1.0774
  334MOL0     N45006   8.510   4.544   8.187 -0.3120 -0.5394  0.2621
  334MOL0     C45007   7.697   4.756   7.265 -0.1879 -0.1708  0.0718
  334MOL0     C45008   7.652   4.696   7.148 -0.4822 -0.1428  0.0127
  334MOL0     C45009   7.542   4.455   6.810 -0.6697  0.3230  0.1803
  334MOL0     C45010   7.626   4.509   6.714 -0.4464  0.3017 -0.0962
  334MOL0     C45011   7.611   4.492   6.574 -0.0010  0.8917  1.4353
  334MOL0     C45012   7.502   4.417   6.528  0.8316  0.1216 -0.0911
  334MOL0     O45013   7.481   4.404   6.387 -0.0274 -0.1682  0.5028
  334MOL0     C45014   7.373   4.329   6.331 -0.8097 -0.4096 -0.6236
  334MOL0     C45015   7.244   4.415   6.319 -0.8482 -0.0213  0.0051
  334MOL0     C45016   7.121   4.332   6.272 -0.1927  0.2947 -0.2652
  334MOL0     C45017   6.988   4.410   6.258 -0.4314  0.3207 -0.2560
  334MOL0     C45018   6.891   4.302   6.228  0.0417 -0.2122  0.4590
  334MOL0     C45019   6.812   4.218   6.197 -0.9962  0.6284  0.3243
  334MOL0     C45020   7.409   4.377   6.623 -0.3896 -0.3443 -0.5234
  334MOL0     C45021   7.423   4.399   6.763 -0.4671 -0.1132 -0.3318
  334MOL0     C45022   7.319   4.362   6.862  0.4764  0.2158  0.6682
  334MOL0     H45023   7.880   4.444   7.133  0.7530  0.5135 -1.8485
  334MOL0     H45024   7.933   4.527   7.365  0.5177 -1.7573 -0.8297
  334MOL0     H45025   7.942   4.653   7.584  1.1619  0.2043  1.1508
  334MOL0     H45026   8.045   4.706   7.442  0.8299 -0.3206  0.8849
  334MOL0     H45027   7.949   4.889   7.675 -0.8132 -1.7427  0.7710
  334MOL0     H45028   8.044   4.935   7.528  0.9033  1.6284  1.5777
  334MOL0     H45029   8.181   4.907   7.748  1.6281  1.5776 -2.2318
  334MOL0     H45030   8.240   4.835   7.602 -0.8617  2.0171 -1.3786
  334MOL0     H45031   8.077   4.683   7.814 -0.8324 -0.4212 -1.1549
  334MOL0     H45032   8.153   4.615   7.668 -0.9031  1.4520 -0.6480
  334MOL0     H45033   8.357   4.602   7.755 -0.2061 -1.9256  1.9608
  334MOL0     H45034   8.352   4.774   7.813 -0.4716 -0.3040  3.9762
  334MOL0     H45035   8.404   4.667   8.004  0.5397  0.4046 -1.6265
  334MOL0     H45036   8.236   4.736   8.011  0.6781 -1.0736  2.8153
  334MOL0     H45037   8.287   4.449   7.938  0.4261  0.8189 -0.4110
  334MOL0     H45038   8.140   4.523   7.994 -0.3627 -2.6940  0.6280
  334MOL0     H45039   8.252   4.575   8.218  1.8076  0.0085  1.1488
  334MOL0     H45040   8.209   4.407   8.186 -1.9825  0.4509 -1.5503
  334MOL0     H45041   8.422   4.241   8.121  0.6166 -1.2270  0.3900
  334MOL0     H45042   8.810   4.304   8.185 -1.2219  3.6196 -2.2692
  334MOL0     H45043   8.698   4.162   8.188 -0.2157  0.1708  0.2262
  334MOL0     H45044   8.817   4.128   7.991 -0.0043 -1.4676 -1.7865
  334MOL0     H45045   8.665   4.196   7.939 -0.3257 -0.5703  0.6371
  334MOL0     H45046   8.779   4.404   7.892  3.1245  1.1162 -1.5539
  334MOL0     H45047   8.867   4.266   7.826 -1.6841 -3.1568  0.6013
  334MOL0     H45048   8.931   4.415   8.087 -0.4843  2.2798 -0.3889
  334MOL0     H45049   8.996   4.463   7.937 -0.7268  0.1272  0.9615
  334MOL0     H45050   9.100   4.508   8.172 -0.8757  0.5543  1.5706
  334MOL0     H45051   9.289   4.526   8.330 -1.0294  0.6492 -1.1486
  334MOL0     H45052   9.734   4.059   8.389  0.3882 -0.3172  0.5892
  334MOL0     H45053   9.934   4.029   8.529 -0.6107  0.6373  4.2849
  334MOL0     H45054  10.202   4.353   8.543 -0.0352  1.2650 -0.0519
  334MOL0     H45055  10.116   4.428   8.677  2.3184  0.0340  2.0404
  334MOL0     H45056  10.358   4.383   8.717 -0.4236  0.7030  0.4492
  334MOL0     H45057  10.255   4.297   8.828  0.1411  0.9606 -0.3795
  334MOL0     H45058  10.307   4.073   8.704 -0.8961 -0.5821 -2.3599
  334MOL0     H45059  10.398   4.168   8.585  0.3644  0.5395  0.5086
  334MOL0     H45060  10.472   4.132   8.882  1.8325 -0.3830 -0.9168
  334MOL0     H45061  10.511   4.282   8.799  2.9409 -1.0077 -0.2567
  334MOL0     H45062  10.629   4.149   8.631 -0.8833 -1.4040 -0.9009
  334MOL0     H45063  10.596   4.011   8.727  0.2649 -0.1140 -0.0047
  334MOL0     H45064  10.750   4.262   8.829 -0.2071 -0.3685  0.8065
  334MOL0     H45065  10.715   4.115   8.920  0.5803  0.4959  0.5910
  334MOL0     H45066  10.943   4.154   8.755  0.9044 -0.5775  1.1660
  334MOL0     H45067  10.851   4.008   8.693  0.6259 -0.4408 -0.3947
  334MOL0     H45068  10.949   4.070   8.981  0.5821 -0.2121  0.0071
  334MOL0     H45069  10.860   3.939   8.938  2.0706 -1.9786  0.2141
  334MOL0     H45070   9.928   4.469   8.572  1.2462 -0.3346 -0.0583
  334MOL0     H45071   9.754   4.489   8.433  3.4287  1.9602 -1.4295
  334MOL0     H45072   9.448   4.146   8.194  0.9097  1.2383  2.2119
  334MOL0     H45073   9.252   4.120   8.052 -3.0120 -1.8887  1.9105
  334MOL0     H45074   7.664   4.851   7.306 -0.0578 -1.1741  2.6879
  334MOL0     H45075   7.566   4.742   7.101 -0.3556  0.5307  0.4360
  334MOL0     H45076   7.715   4.561   6.749 -1.1551  1.0914  0.5747
  334MOL0     H45077   7.682   4.532   6.503  2.4378 -3.4908  1.0546
  334MOL0     H45078   7.354   4.237   6.386 -1.3056 -1.1385 -1.9527
  334MOL0     H45079   7.408   4.300   6.231  0.5756 -1.5701  0.1695
  334MOL0     H45080   7.260   4.501   6.254  0.4029 -0.6537 -0.5484
  334MOL0     H45081   7.227   4.457   6.419  1.6286 -0.7743  0.8116
  334MOL0     H45082   7.094   4.257   6.346  0.6585 -1.9879 -2.1456
  334MOL0     H45083   7.142   4.268   6.186  1.6616  0.9749 -0.3729
  334MOL0     H45084   6.956   4.455   6.352  1.4976 -1.2653  1.2485
  334MOL0     H45085   6.993   4.477   6.172  1.0005  0.3705 -0.1577
  334MOL0     H45086   6.739   4.151   6.156 -0.3982  2.2944 -4.1284
  334MOL0     H45087   7.317   4.323   6.601 -0.3655  0.0571 -1.7110
  334MOL0     H45088   7.344   4.267   6.911 -1.0000  0.5706  2.2023
  334MOL0     H45089   7.296   4.431   6.944 -0.6263 -3.3428  3.6406
  334MOL0     H45090   7.225   4.342   6.811  0.2119 -2.7965  2.0964
  335MOL0     O45091   9.060   4.210   6.389 -0.0518  0.8089  0.1154
  335MOL0     C45092   9.040   4.187   6.508  0.5436 -0.5883 -0.1173
  335MOL0     O45093   9.136   4.177   6.598 -0.1027 -0.4476  0.3498
  335MOL0     C45094   9.264   4.186   6.572  0.3834 -0.1964 -0.0738
  335MOL0     C45095   9.354   4.253   6.659 -0.0248  0.2348  0.6296
  335MOL0     C45096   9.484   4.226   6.665 -0.7857 -0.5815 -1.1316
  335MOL0     C45097   9.549   4.141   6.569  0.7337 -0.1430 -0.4281
  335MOL0     O45098   9.682   4.132   6.569  0.1931 -0.6041 -0.0227
  335MOL0     C45099   9.750   4.167   6.444  0.3370 -0.0173 -0.7144
  335MOL0     C45100   9.744   4.318   6.406 -0.4921 -0.0005 -0.5469
  335MOL0     C45101   9.813   4.402   6.518  0.3406  0.5244 -0.0295
  335MOL0     C45102   9.790   4.555   6.506  0.6767  0.1499 -0.0805
  335MOL0     C45103   9.839   4.617   6.377 -0.3054  0.0721  0.2333
  335MOL0     C45104   9.859   4.767   6.397 -0.1851  0.1406 -0.2941
  335MOL0     C45105   9.905   4.845   6.271  0.3582 -0.0211 -0.0188
  335MOL0     C45106  10.049   4.814   6.229  0.3047  0.1265 -0.9198
  335MOL0     N45107  10.113   4.931   6.161 -0.0966 -0.0115  0.0682
  335MOL0     C45108  10.110   4.977   6.027  0.2105  0.4276  0.1705
  335MOL0     C45109  10.188   5.089   6.021  0.1140 -0.2896 -0.9314
  335MOL0     C45110  10.212   5.178   5.902 -0.7562 -0.2339  0.5693
  335MOL0     C45111  10.365   5.219   5.899 -0.1863 -0.2460  0.0811
  335MOL0     C45112  10.391   5.345   5.990  0.2531 -0.3378  0.3417
  335MOL0     C45113  10.545   5.377   5.993  0.3625  0.3909  0.6605
  335MOL0     O45114  10.544   5.504   6.060 -0.2771  0.6653  0.0610
  335MOL0     C45115  10.661   5.578   6.059 -0.2663 -0.2181  0.5408
  335MOL0     C45116  10.637   5.714   6.010 -0.2950 -0.2946 -0.4409
  335MOL0     C45117  10.742   5.806   6.016 -0.2076  0.0524 -0.3688
  335MOL0     C45118  10.871   5.759   6.068  0.1197 -0.6745 -0.4044
  335MOL0     C45119  10.986   5.860   6.076  0.0127  0.4624 -0.0014
  335MOL0     O45120  11.093   5.816   6.143 -0.6027 -0.5018 -0.4363
  335MOL0     C45121  11.187   5.923   6.150  0.2045 -0.1628  0.0277
  335MOL0     C45122  11.181   6.020   6.254 -0.0610  0.5015  0.3081
  335MOL0     C45123  11.284   6.113   6.260  0.3637 -0.2710  0.2439
  335MOL0     C45124  11.391   6.115   6.169 -0.5994 -0.3051 -0.1304
  335MOL0     O45125  11.490   6.211   6.181 -0.2695 -0.2582  0.1275
  335MOL0     C45126  11.572   6.216   6.306  0.6554  0.2356 -0.6104
  335MOL0     C45127  11.605   6.360   6.329  0.4098 -0.0915 -1.0664
  335MOL0     C45128  11.690   6.424   6.222 -0.0536 -0.2588 -0.2699
  335MOL0     C45129  11.694   6.585   6.230  0.0353  0.5567  0.3257
  335MOL0     C45130  11.769   6.629   6.099 -0.1565 -0.0006 -0.3020
  335MOL0     C45131  11.779   6.781   6.093  0.1658  0.4631  0.3679
  335MOL0     C45132  11.834   6.811   5.953  0.1183 -0.8558 -0.3612
  335MOL0     C45133  11.861   6.956   5.925  0.6177 -0.6840 -0.2557
  335MOL0    Cl45134  11.993   7.024   6.031 -0.0355 -0.1431 -0.1268
  335MOL0     C45135  11.399   6.019   6.070 -0.0036  0.6266  0.0706
  335MOL0     C45136  11.297   5.927   6.059  0.8272  0.5333 -0.2164
  335MOL0     O45137  10.969   5.973   6.036 -0.5264  0.1877 -0.4030
  335MOL0     C45138  10.891   5.625   6.104  0.5034 -0.0446  0.5712
  335MOL0     C45139  10.784   5.541   6.105 -0.3724  0.2843 -0.5462
  335MOL0     N45140  10.254   5.100   6.140  0.8505  0.6084 -0.1815
  335MOL0     N45141  10.216   5.006   6.218 -0.0058  0.1114  0.0205
  335MOL0     C45142   9.460   4.087   6.465 -0.1217 -0.3927 -0.6926
  335MOL0     C45143   9.316   4.106   6.473 -0.8952 -0.3003  0.0465
  335MOL0     C45144   8.903   4.186   6.557 -0.9363  0.0059  0.1667
  335MOL0     C45145   8.881   4.197   6.695 -0.0748  0.1318 -0.8387
  335MOL0     C45146   8.751   4.203   6.752  0.7761  0.7512 -0.1178
  335MOL0     C45147   8.640   4.200   6.667  0.3775 -0.9283 -0.6680
  335MOL0     O45148   8.522   4.188   6.727 -0.1073  0.0727 -0.3023
  335MOL0     C45149   8.393   4.221   6.659  0.7147  1.0764 -0.4402
  335MOL0     C45150   8.350   4.095   6.597  0.9324 -0.4533  0.9289
  335MOL0     C45151   8.356   3.973   6.689  0.4825 -0.4898  0.6446
  335MOL0     C45152   8.244   3.984   6.788  0.4255  0.1129  0.6663
  335MOL0     C45153   8.248   3.883   6.890  0.9265 -0.6230 -0.3266
  335MOL0     C45154   8.249   3.806   6.989 -0.6407 -0.0801  0.4748
  335MOL0     C45155   8.659   4.192   6.532 -0.9265  0.5699 -0.9522
  335MOL0     C45156   8.787   4.181   6.477 -0.1030 -0.2506 -0.3560
  335MOL0     C45157   8.788   4.179   6.318 -0.4480 -0.5243 -0.5186
  335MOL0     H45158   9.307   4.322   6.729 -1.9461  0.2164 -0.5510
  335MOL0     H45159   9.542   4.281   6.737  1.1293  2.0499 -4.3809
  335MOL0     H45160   9.855   4.137   6.456 -0.1900 -2.7143 -2.0463
  335MOL0     H45161   9.713   4.103   6.363  0.0605 -0.3458 -0.3286
  335MOL0     H45162   9.639   4.348   6.401  0.0817  2.0707 -1.1487
  335MOL0     H45163   9.795   4.336   6.311 -1.0930  1.3628 -0.6379
  335MOL0     H45164   9.921   4.385   6.518  0.0901 -1.4212 -1.5601
  335MOL0     H45165   9.772   4.362   6.611 -0.6255 -1.2989 -1.1875
  335MOL0     H45166   9.682   4.576   6.514  0.2945 -1.4926 -0.5581
  335MOL0     H45167   9.843   4.603   6.590 -0.9930 -1.1018  1.7900
  335MOL0     H45168   9.935   4.574   6.346 -1.5892 -1.9585 -1.1563
  335MOL0     H45169   9.764   4.596   6.300  1.2256  0.6470 -1.4911
  335MOL0     H45170   9.759   4.807   6.417 -0.0078 -0.4574  2.0724
  335MOL0     H45171   9.918   4.787   6.487 -1.2584  1.1557  0.2129
  335MOL0     H45172   9.892   4.950   6.298 -1.9905  0.1079 -1.3103
  335MOL0     H45173   9.834   4.841   6.187  0.6183 -1.7524 -0.2119
  335MOL0     H45174  10.105   4.794   6.321 -1.3122 -0.1952  0.0304
  335MOL0     H45175  10.070   4.722   6.174  3.3112 -0.6074  1.2089
  335MOL0     H45176  10.047   4.944   5.945  0.9119 -1.4496  0.3522
  335MOL0     H45177  10.193   5.108   5.820 -0.2134 -1.7957  1.7422
  335MOL0     H45178  10.148   5.263   5.875  1.6086  1.2348 -0.7994
  335MOL0     H45179  10.418   5.131   5.936 -1.6893  0.2960  4.0036
  335MOL0     H45180  10.388   5.243   5.795  0.1111 -0.3368  0.1267
  335MOL0     H45181  10.366   5.336   6.097  0.3728  0.0574  0.4030
  335MOL0     H45182  10.336   5.431   5.952 -2.0420 -1.1072  1.6647
  335MOL0     H45183  10.580   5.393   5.891 -1.1144 -2.3351 -0.3714
  335MOL0     H45184  10.593   5.293   6.045 -3.4125 -0.6097  2.9690
  335MOL0     H45185  10.534   5.729   5.980 -0.9452 -2.4220  0.5472
  335MOL0     H45186  10.710   5.903   5.980 -0.5572 -0.4491 -1.4609
  335MOL0     H45187  11.110   6.006   6.335  0.4406 -1.1330  0.5085
  335MOL0     H45188  11.284   6.194   6.332 -1.3156 -0.6248  0.6939
  335MOL0     H45189  11.523   6.180   6.397  0.3768 -1.0263 -1.2395
  335MOL0     H45190  11.662   6.156   6.288  0.2879 -0.7647  0.7013
  335MOL0     H45191  11.514   6.413   6.361 -0.9028 -2.3398 -0.8029
  335MOL0     H45192  11.665   6.374   6.420 -1.2420  1.0148 -0.0873
  335MOL0     H45193  11.794   6.391   6.223 -0.2292 -0.8678 -1.1580
  335MOL0     H45194  11.650   6.410   6.121 -0.1028  2.3129 -0.6798
  335MOL0     H45195  11.762   6.611   6.312  3.0769 -0.8009 -1.5960
  335MOL0     H45196  11.594   6.630   6.239 -2.0242 -3.2100 -1.6964
  335MOL0     H45197  11.720   6.600   6.006  0.4512 -0.4478 -0.4881
  335MOL0     H45198  11.872   6.593   6.107 -0.3241 -0.6145 -0.8372
  335MOL0     H45199  11.678   6.820   6.106 -0.8881 -1.6115 -1.0724
  335MOL0     H45200  11.834   6.825   6.177  2.1688 -0.4073 -0.4398
  335MOL0     H45201  11.766   6.772   5.877 -0.7703 -2.5175  1.2041
  335MOL0     H45202  11.932   6.766   5.935  0.2144  0.0310 -2.2823
  335MOL0     H45203  11.881   6.951   5.818 -0.3296  1.2641 -0.5655
  335MOL0     H45204  11.776   7.024   5.936 -0.0878 -1.3995 -1.1138
  335MOL0     H45205  11.481   6.009   6.000 -0.5402  1.7016 -0.7318
  335MOL0     H45206  11.287   5.856   5.978 -0.6373 -0.9837  1.2250
  335MOL0     H45207  10.993   5.594   6.124  1.5002  0.4400 -3.0199
  335MOL0     H45208  10.809   5.438   6.129  0.0912  0.9956  2.3554
  335MOL0     H45209   9.495   4.021   6.386 -0.0738  0.8442 -1.7334
  335MOL0     H45210   9.257   4.048   6.403 -1.8434  0.0252  0.5620
  335MOL0     H45211   8.965   4.193   6.762 -0.0656 -0.2207 -0.8719
  335MOL0     H45212   8.750   4.194   6.860  3.0582 -2.0676 -0.2149
  335MOL0     H45213   8.406   4.299   6.583 -0.6004  0.4130 -1.3741
  335MOL0     H45214   8.312   4.243   6.728 -1.2001 -0.9717 -1.9124
  335MOL0     H45215   8.425   4.075   6.520  0.1632  1.0244 -0.2589
  335MOL0     H45216   8.249   4.101   6.556  0.6038  0.2543  1.8146
  335MOL0     H45217   8.454   3.962   6.736 -0.5757 -0.4999  2.9960
  335MOL0     H45218   8.340   3.886   6.625  0.6861 -0.7381  0.9243
  335MOL0     H45219   8.233   4.078   6.843 -0.0622 -0.2732  1.2364
  335MOL0     H45220   8.148   3.969   6.738  0.1267 -0.1470  1.3215
  335MOL0     H45221   8.266   3.731   7.063  1.1885 -0.1439  0.0416
  335MOL0     H45222   8.570   4.187   6.471 -1.1442  1.6467 -0.7377
  335MOL0     H45223   8.847   4.260   6.274 -1.0701  0.4911  0.4614
  335MOL0     H45224   8.819   4.082   6.279  1.3267 -0.0840 -0.2942
  335MOL0     H45225   8.692   4.204   6.272 -0.6995 -0.6800 -0.0766
  336MOL0     O45226   2.596   1.685   0.939  0.2557 -0.7244  0.1692
  336MOL0     C45227   2.612   1.600   1.024  0.6073  0.5069 -1.0782
  336MOL0     O45228   2.741   1.546   1.063 -0.0200  0.2384  0.1449
  336MOL0     C45229   2.840   1.557   0.975  0.8419  0.5212  0.4969
  336MOL0     C45230   2.887   1.441   0.921  0.4175 -0.0671  0.2577
  336MOL0     C45231   2.993   1.451   0.824  0.8183 -0.3412 -0.0652
  336MOL0     C45232   3.047   1.573   0.786 -0.0122 -0.0346 -0.9008
  336MOL0     O45233   3.145   1.573   0.691 -0.3557 -0.2514  0.1177
  336MOL0     C45234   3.276   1.621   0.740 -0.0261 -0.1004 -0.0851
  336MOL0     C45235   3.332   1.730   0.647 -0.3575  0.2286 -0.0270
  336MOL0     C45236   3.481   1.747   0.671  0.4440 -0.9451  0.4948
  336MOL0     C45237   3.557   1.820   0.553 -0.8349  0.2398  1.0768
  336MOL0     C45238   3.708   1.809   0.561  0.7212  0.2771 -0.4740
  336MOL0     C45239   3.768   1.807   0.699  0.1690  0.3871 -0.3733
  336MOL0     C45240   3.922   1.831   0.697  0.0244 -0.7768  0.5424
  336MOL0     C45241   3.985   1.868   0.835 -0.4553 -0.3163 -0.7451
  336MOL0     N45242   4.128   1.865   0.824  0.0088 -0.5937 -0.4656
  336MOL0     C45243   4.206   1.750   0.843 -0.1309 -0.9798 -0.4203
  336MOL0     C45244   4.329   1.790   0.874 -0.2351 -0.1377  0.1569
  336MOL0     C45245   4.449   1.697   0.905 -0.2413  0.5062  0.2809
  336MOL0     C45246   4.588   1.734   0.850  0.3021  0.1012  0.1006
  336MOL0     C45247   4.643   1.846   0.929 -0.5017 -0.3255 -0.7853
  336MOL0     C45248   4.770   1.896   0.859 -1.3538 -0.3673 -0.1167
  336MOL0     O45249   4.872   1.794   0.878  0.6189  0.4382 -0.1812
  336MOL0     C45250   5.003   1.836   0.855 -0.3824  0.3183  0.0528
  336MOL0     C45251   5.107   1.797   0.944  0.8379 -0.1325  0.1273
  336MOL0     C45252   5.237   1.848   0.926  0.6882 -0.4449  0.5044
  336MOL0     C45253   5.268   1.946   0.824 -0.5181  0.1219  0.2422
  336MOL0     C45254   5.406   1.998   0.807  0.7060 -1.2712  0.1867
  336MOL0     O45255   5.499   1.974   0.895 -0.5666  0.0598 -0.4751
  336MOL0     C45256   5.620   2.022   0.862 -0.0718  0.3707  0.4172
  336MOL0     C45257   5.726   1.934   0.818  0.1389 -0.1688  0.2340
  336MOL0     C45258   5.847   1.989   0.779 -0.0219  0.3936  0.2808
  336MOL0     C45259   5.877   2.120   0.807  0.0790  0.3430 -0.5504
  336MOL0     O45260   5.999   2.176   0.784  0.5808 -0.0104 -0.0027
  336MOL0     C45261   6.097   2.106   0.699  0.3529 -0.8470 -0.2154
  336MOL0     C45262   6.180   1.997   0.768 -0.3857 -0.3967 -0.6272
  336MOL0     C45263   6.256   1.923   0.661 -0.7598  0.7228 -0.4366
  336MOL0     C45264   6.350   1.818   0.730  0.4905  0.4388  0.9182
  336MOL0     C45265   6.411   1.721   0.626  0.7167 -1.5835  0.4881
  336MOL0     C45266   6.540   1.790   0.566 -0.6633 -0.4389 -0.1406
  336MOL0     C45267   6.601   1.710   0.446 -0.0127  0.4074 -0.6401
  336MOL0     C45268   6.758   1.682   0.461 -0.1084 -0.2671 -0.0478
  336MOL0    Cl45269   6.851   1.838   0.444  0.2782  0.1715 -0.0163
  336MOL0     C45270   5.783   2.198   0.870 -0.6627  0.1231  0.3281
  336MOL0     C45271   5.651   2.153   0.903  0.4824  0.4580 -0.0850
  336MOL0     O45272   5.418   2.079   0.709  0.0355 -0.0945 -0.2070
  336MOL0     C45273   5.170   1.981   0.738  0.2002 -0.3378 -0.0311
  336MOL0     C45274   5.037   1.924   0.751  0.2587 -0.1107 -0.0188
  336MOL0     N45275   4.325   1.933   0.873 -0.7455  0.6837  0.3312
  336MOL0     N45276   4.214   1.972   0.839  0.4230 -0.2108 -0.1454
  336MOL0     C45277   3.000   1.690   0.844 -0.1796  0.0456  0.0764
  336MOL0     C45278   2.899   1.683   0.940  0.0686  0.0908 -0.2280
  336MOL0     C45279   2.492   1.548   1.099  0.3177 -0.4888  0.3196
  336MOL0     C45280   2.507   1.419   1.153  0.2499  0.7410  0.1618
  336MOL0     C45281   2.399   1.356   1.214 -0.2203 -0.3072 -0.4802
  336MOL0     C45282   2.269   1.408   1.206 -0.0521  0.5152  0.5172
  336MOL0     O45283   2.163   1.326   1.260 -0.7193  0.3718 -0.0165
  336MOL0     C45284   2.029   1.347   1.225 -0.2172  0.2532  0.0571
  336MOL0     C45285   1.939   1.253   1.303  0.0899  0.6148 -0.4782
  336MOL0     C45286   1.787   1.277   1.265  0.6799  0.3056 -0.9939
  336MOL0     C45287   1.684   1.178   1.324 -0.6388 -0.6229  0.3836
  336MOL0     C45288   1.548   1.214   1.279  0.1710 -0.7324  0.3414
  336MOL0     C45289   1.435   1.237   1.239  0.8997  0.5562  0.2085
  336MOL0     C45290   2.247   1.535   1.148 -0.5525  1.0557 -0.4658
  336MOL0     C45291   2.358   1.607   1.099 -0.1611  0.2503  0.5475
  336MOL0     C45292   2.339   1.751   1.063  0.1903 -0.9481  0.4707
  336MOL0     H45293   2.836   1.350   0.953 -0.9203  0.6851  0.3133
  336MOL0     H45294   3.039   1.364   0.778  1.2130 -1.7159  2.7293
  336MOL0     H45295   3.270   1.670   0.838 -1.3030  1.2646 -0.8061
  336MOL0     H45296   3.352   1.543   0.743  2.9714  2.6225  1.4224
  336MOL0     H45297   3.282   1.826   0.664  0.3645  0.4697  0.7910
  336MOL0     H45298   3.321   1.702   0.542 -0.1640  4.1805 -1.2854
  336MOL0     H45299   3.532   1.651   0.681  1.1953 -0.4174  2.0310
  336MOL0     H45300   3.500   1.793   0.769  1.7215  1.2552 -0.7099
  336MOL0     H45301   3.524   1.776   0.458  2.3944  0.2049 -0.1274
  336MOL0     H45302   3.533   1.926   0.556 -0.1202  0.3963  1.2948
  336MOL0     H45303   3.728   1.716   0.508 -0.0470 -1.8848  2.7364
  336MOL0     H45304   3.749   1.895   0.508  3.2245 -0.9488 -0.6642
  336MOL0     H45305   3.722   1.882   0.765 -2.2524  1.0279 -2.6076
  336MOL0     H45306   3.762   1.707   0.743 -0.9365 -0.6426 -2.7171
  336MOL0     H45307   3.946   1.915   0.632  1.1711 -0.6562  1.0954
  336MOL0     H45308   3.967   1.737   0.664  1.2370 -0.0076 -0.0355
  336MOL0     H45309   3.953   1.969   0.862  0.7584  0.3077 -1.5943
  336MOL0     H45310   3.950   1.792   0.906 -1.7345 -0.1482 -1.1622
  336MOL0     H45311   4.159   1.653   0.857 -2.3504 -0.0062 -0.7355
  336MOL0     H45312   4.451   1.691   1.014 -0.1370  4.3514  0.6158
  336MOL0     H45313   4.434   1.594   0.870 -2.8557  0.5133  1.1463
  336MOL0     H45314   4.656   1.649   0.858  0.5598  0.3139  0.1964
  336MOL0     H45315   4.569   1.757   0.745  1.9186 -0.1520 -0.2744
  336MOL0     H45316   4.671   1.813   1.030  0.8170  2.1819 -0.2468
  336MOL0     H45317   4.574   1.930   0.946  1.2737  1.5669 -2.3830
  336MOL0     H45318   4.795   1.992   0.904  2.1156 -0.3883 -1.6616
  336MOL0     H45319   4.759   1.917   0.752  2.1174  1.1422 -0.3112
  336MOL0     H45320   5.070   1.733   1.024  0.8633  0.3736  0.5464
  336MOL0     H45321   5.315   1.806   0.988  0.8230 -4.0502 -1.7876
  336MOL0     H45322   5.704   1.827   0.814 -0.8344  0.0462 -0.8378
  336MOL0     H45323   5.920   1.924   0.734 -2.1151 -1.4015 -0.7231
  336MOL0     H45324   6.041   2.072   0.612 -0.9441  2.4946 -0.8210
  336MOL0     H45325   6.164   2.186   0.667  1.2205 -1.0299  1.0655
  336MOL0     H45326   6.245   2.045   0.842 -0.7718  0.3726 -0.7736
  336MOL0     H45327   6.111   1.923   0.808 -1.9885  0.6599 -1.3370
  336MOL0     H45328   6.184   1.874   0.595  1.4544 -0.0542 -2.4262
  336MOL0     H45329   6.315   1.994   0.601  1.3236  1.7749  2.6333
  336MOL0     H45330   6.292   1.757   0.800 -0.9246  1.1415  0.4142
  336MOL0     H45331   6.429   1.873   0.781  0.3325  2.7441 -1.1498
  336MOL0     H45332   6.347   1.710   0.538  1.1394  1.2802 -0.2604
  336MOL0     H45333   6.432   1.622   0.668 -1.8386 -1.3012  2.7524
  336MOL0     H45334   6.533   1.893   0.531  2.9770 -0.6442 -1.9583
  336MOL0     H45335   6.607   1.785   0.653 -4.0138 -1.6009  2.6096
  336MOL0     H45336   6.580   1.769   0.356 -0.4916  1.0421 -0.1150
  336MOL0     H45337   6.554   1.611   0.438 -0.9899  0.8075  0.0510
  336MOL0     H45338   6.777   1.639   0.560  1.0484  0.5935  0.1188
  336MOL0     H45339   6.796   1.616   0.383 -2.0168  0.1736 -1.4192
  336MOL0     H45340   5.821   2.296   0.896  0.8777 -0.9190  2.2535
  336MOL0     H45341   5.568   2.213   0.940 -0.0054  0.6979 -1.5188
  336MOL0     H45342   5.197   2.047   0.657  1.9743 -0.2843  0.5780
  336MOL0     H45343   4.953   1.942   0.685  0.1459  2.6114  0.7778
  336MOL0     H45344   3.051   1.781   0.815  1.0390 -0.1093  1.6328
  336MOL0     H45345   2.865   1.779   0.976 -0.2267 -0.8519  2.1387
  336MOL0     H45346   2.604   1.371   1.142 -0.5696 -0.7650 -0.8560
  336MOL0     H45347   2.417   1.272   1.281 -0.0626  0.1294  0.0329
  336MOL0     H45348   2.013   1.336   1.117 -1.5553 -0.3299  0.2981
  336MOL0     H45349   2.002   1.450   1.251 -1.1084  0.3915 -1.3113
  336MOL0     H45350   1.939   1.271   1.411 -0.3099  3.6563 -0.8857
  336MOL0     H45351   1.963   1.147   1.292 -1.4635  0.1705  0.1766
  336MOL0     H45352   1.797   1.263   1.156  4.0215 -1.9776 -0.5817
  336MOL0     H45353   1.764   1.382   1.284  3.0998  0.1729  4.4270
  336MOL0     H45354   1.718   1.083   1.282 -0.2101  0.0540 -0.8685
  336MOL0     H45355   1.690   1.182   1.433 -1.1979 -3.8160  0.6281
  336MOL0     H45356   1.333   1.251   1.211  0.3181  3.0021  3.0268
  336MOL0     H45357   2.148   1.576   1.133 -0.3425  1.3003 -1.2504
  336MOL0     H45358   2.307   1.762   0.959  0.1395 -2.6856  0.2718
  336MOL0     H45359   2.275   1.795   1.139  2.7959  1.3620  1.5063
  336MOL0     H45360   2.432   1.808   1.071 -0.4801  0.1616  0.6115
  337MOL0     O45361   7.249   8.192   5.057 -0.1069 -0.4989 -0.3479
  337MOL0     C45362   7.192   8.301   5.095 -0.3241  0.1660  0.6153
  337MOL0     O45363   7.261   8.423   5.116  0.6969  0.7904  0.4181
  337MOL0     C45364   7.392   8.433   5.089 -0.5747 -0.9516 -0.2428
  337MOL0     C45365   7.458   8.374   4.977 -0.2922 -0.5642 -0.1741
  337MOL0     C45366   7.598   8.377   4.954  0.0885 -0.7814 -1.0791
  337MOL0     C45367   7.676   8.453   5.047  0.3731  1.0132  0.3020
  337MOL0     O45368   7.808   8.458   5.015  0.0031 -0.2803  0.2197
  337MOL0     C45369   7.899   8.498   5.114 -1.3698 -0.0603 -0.3731
  337MOL0     C45370   7.931   8.646   5.098 -0.3795  0.4013  0.5484
  337MOL0     C45371   8.068   8.672   5.028  1.1584 -0.6409 -0.2208
  337MOL0     C45372   8.169   8.719   5.139  0.0508  0.4469 -0.2491
  337MOL0     C45373   8.293   8.785   5.090  0.2430 -0.3483 -0.1665
  337MOL0     C45374   8.391   8.686   5.035  0.6160 -0.5860 -0.2506
  337MOL0     C45375   8.538   8.738   5.038 -0.1595  0.0571  0.3728
  337MOL0     C45376   8.620   8.660   4.938 -0.3566 -0.2198  0.2467
  337MOL0     N45377   8.763   8.692   4.951  0.8048 -0.0982 -0.4833
  337MOL0     C45378   8.860   8.603   4.903  0.1629  0.8109 -0.2607
  337MOL0     C45379   8.972   8.664   4.928 -0.7881  0.5855 -0.7681
  337MOL0     C45380   9.102   8.618   4.885 -0.0284  0.1325  0.5316
  337MOL0     C45381   9.165   8.531   4.998  0.4984 -0.2915  0.3948
  337MOL0     C45382   9.251   8.615   5.089 -0.5114 -0.0238  0.2762
  337MOL0     C45383   9.324   8.538   5.194  0.4216 -0.2526 -0.5004
  337MOL0     O45384   9.391   8.628   5.283  0.3367  0.0157  0.0846
  337MOL0     C45385   9.476   8.570   5.368  0.4286  0.0621 -0.0473
  337MOL0     C45386   9.463   8.444   5.425  0.3896  0.0151  0.1777
  337MOL0     C45387   9.560   8.384   5.512 -0.4192  0.1467 -0.0398
  337MOL0     C45388   9.675   8.449   5.548 -0.2541  0.0391 -0.1860
  337MOL0     C45389   9.786   8.391   5.631  0.8230 -0.6838 -0.1462
  337MOL0     O45390   9.917   8.413   5.582  0.0189  0.5836 -0.2346
  337MOL0     C45391  10.023   8.371   5.659  0.9947 -0.6875 -0.4905
  337MOL0     C45392  10.138   8.438   5.616  0.0719  0.1648 -0.0341
  337MOL0     C45393  10.258   8.410   5.680  0.3561 -0.4193  0.3337
  337MOL0     C45394  10.268   8.316   5.788 -0.1996 -0.7362 -0.1731
  337MOL0     O45395  10.397   8.310   5.830 -0.2659  0.9213  0.0187
  337MOL0     C45396  10.442   8.176   5.869  0.3334  0.3811 -0.2634
  337MOL0     C45397  10.577   8.155   5.791  0.0732 -0.1565 -0.1946
  337MOL0     C45398  10.686   8.267   5.811  0.0860  0.0183  0.1929
  337MOL0     C45399  10.820   8.227   5.748 -0.3192 -0.6806  0.5846
  337MOL0     C45400  10.913   8.349   5.729  0.8679 -0.3506  0.0310
  337MOL0     C45401  10.943   8.445   5.853  0.3476  0.3195 -0.7007
  337MOL0     C45402  11.037   8.561   5.818  0.7464  0.0419  0.1049
  337MOL0     C45403  11.077   8.639   5.941 -0.4370 -0.3196  0.3735
  337MOL0    Cl45404  11.219   8.744   5.898  0.0008  0.0282 -0.1647
  337MOL0     C45405  10.150   8.249   5.836  0.4310 -0.7596 -0.2453
  337MOL0     C45406  10.019   8.286   5.776 -0.7995 -1.0732 -0.5559
  337MOL0     O45407   9.750   8.332   5.735  0.7051  0.3738  0.1009
  337MOL0     C45408   9.691   8.584   5.486 -0.0557 -1.3831 -0.3104
  337MOL0     C45409   9.592   8.641   5.410 -0.4997 -0.3255 -0.3375
  337MOL0     N45410   8.947   8.778   5.002  0.5386  0.0473  0.6526
  337MOL0     N45411   8.822   8.790   5.017 -0.4964  0.8428  0.1411
  337MOL0     C45412   7.611   8.527   5.151 -0.1155  0.1590  0.8829
  337MOL0     C45413   7.469   8.522   5.169  0.2424  0.1445 -0.1069
  337MOL0     C45414   7.043   8.307   5.104  0.2954 -0.6429 -0.1601
  337MOL0     C45415   6.985   8.435   5.089 -0.0057 -0.2979  0.1395
  337MOL0     C45416   6.846   8.446   5.102  0.2455  0.6088  0.2863
  337MOL0     C45417   6.763   8.339   5.119  0.7284  0.5573  0.2900
  337MOL0     O45418   6.626   8.360   5.120 -0.0268  0.0914  0.2501
  337MOL0     C45419   6.544   8.243   5.133 -0.7047 -0.3439 -0.2234
  337MOL0     C45420   6.404   8.272   5.085  1.0101  0.3507 -0.9642
  337MOL0     C45421   6.317   8.367   5.168 -0.1772 -1.1287 -0.4177
  337MOL0     C45422   6.347   8.508   5.122 -0.1323  0.5348 -0.0935
  337MOL0     C45423   6.258   8.614   5.178 -0.8006 -0.6525 -0.2631
  337MOL0     C45424   6.191   8.705   5.222 -0.9883 -0.0039  0.3694
  337MOL0     C45425   6.823   8.209   5.117  0.6342  0.4175  0.3639
  337MOL0     C45426   6.959   8.192   5.116  0.3024  0.3474  0.4244
  337MOL0     C45427   7.013   8.049   5.143 -0.2303  0.0808  0.3033
  337MOL0     H45428   7.395   8.315   4.911 -0.2948 -2.0659  1.0948
  337MOL0     H45429   7.636   8.317   4.872 -0.6542 -1.6326 -0.8180
  337MOL0     H45430   7.875   8.483   5.220  0.7773  0.0338  0.1886
  337MOL0     H45431   7.991   8.440   5.099 -0.4660  1.7290 -2.1490
  337MOL0     H45432   7.913   8.697   5.192 -1.9510 -1.9119  1.6031
  337MOL0     H45433   7.853   8.691   5.035  1.3791  1.2122 -1.1290
  337MOL0     H45434   8.047   8.756   4.962  1.7804 -0.1001  0.2543
  337MOL0     H45435   8.103   8.582   4.977  0.7543 -1.6260  1.1842
  337MOL0     H45436   8.126   8.799   5.201  0.6084 -0.2133  1.0334
  337MOL0     H45437   8.179   8.641   5.214 -1.9454 -0.7211 -1.1208
  337MOL0     H45438   8.266   8.856   5.011  0.5336  1.6188  1.4107
  337MOL0     H45439   8.347   8.843   5.166  1.8489  0.6696 -2.0070
  337MOL0     H45440   8.372   8.590   5.084 -5.4071  0.1055 -0.4634
  337MOL0     H45441   8.373   8.667   4.929  0.0925  1.4665 -0.5686
  337MOL0     H45442   8.575   8.716   5.138 -2.2194  0.9054  1.3791
  337MOL0     H45443   8.546   8.843   5.006 -2.0730 -0.3557 -1.7215
  337MOL0     H45444   8.603   8.552   4.943 -1.7977 -0.0858 -1.0025
  337MOL0     H45445   8.590   8.702   4.842  3.0908  1.2066 -0.3621
  337MOL0     H45446   8.848   8.511   4.846  1.0654  0.6421 -0.1875
  337MOL0     H45447   9.093   8.559   4.793 -0.2528  1.4550 -0.3181
  337MOL0     H45448   9.164   8.706   4.866  1.7234 -0.7263  1.9249
  337MOL0     H45449   9.090   8.479   5.057 -0.8322  0.6900 -0.3727
  337MOL0     H45450   9.237   8.455   4.965  4.9211  3.1641  0.9920
  337MOL0     H45451   9.182   8.687   5.134  0.7379 -0.2399  2.6514
  337MOL0     H45452   9.333   8.660   5.033 -0.8359  0.3785  0.1175
  337MOL0     H45453   9.401   8.479   5.143  0.0364 -0.5484 -0.7398
  337MOL0     H45454   9.256   8.477   5.254  0.6577  2.3245  2.6907
  337MOL0     H45455   9.372   8.388   5.403  0.9176 -1.4150  1.4777
  337MOL0     H45456   9.541   8.286   5.554 -0.9098  0.4963  0.5848
  337MOL0     H45457  10.143   8.490   5.522 -1.0606 -2.9928 -1.9912
  337MOL0     H45458  10.349   8.452   5.639  0.1355 -0.8720 -0.6563
  337MOL0     H45459  10.456   8.181   5.977  2.7159  1.2028 -0.5531
  337MOL0     H45460  10.366   8.100   5.848  0.1120  0.8051 -1.0446
  337MOL0     H45461  10.625   8.061   5.819  0.4614 -0.9221 -3.1556
  337MOL0     H45462  10.545   8.145   5.687  0.1875  0.2625 -0.2711
  337MOL0     H45463  10.642   8.356   5.765 -0.0393  0.7687  1.6963
  337MOL0     H45464  10.696   8.278   5.919 -1.5862  1.8056  0.2266
  337MOL0     H45465  10.796   8.178   5.653  1.3549 -2.5061  1.0308
  337MOL0     H45466  10.866   8.154   5.815  0.5920  2.3118  3.4926
  337MOL0     H45467  10.857   8.418   5.665  1.5776 -0.5979 -0.8809
  337MOL0     H45468  11.006   8.322   5.679 -0.2366  3.1059 -4.5059
  337MOL0     H45469  10.853   8.487   5.898  1.8992  1.7591  1.2087
  337MOL0     H45470  10.995   8.387   5.930 -1.1352 -0.1770 -0.0440
  337MOL0     H45471  10.982   8.627   5.750 -0.1040 -0.4946  0.2606
  337MOL0     H45472  11.125   8.516   5.770 -0.6146 -2.0792 -0.5733
  337MOL0     H45473  10.997   8.698   5.987  0.7877  0.1767  1.9670
  337MOL0     H45474  11.097   8.568   6.022 -2.3938 -1.1252  0.2016
  337MOL0     H45475  10.148   8.180   5.920  2.5886  0.7693  1.1854
  337MOL0     H45476   9.927   8.241   5.810 -1.9579  0.6712 -1.2642
  337MOL0     H45477   9.786   8.636   5.499 -1.6332  2.0266 -1.3610
  337MOL0     H45478   9.605   8.738   5.363  2.0332 -0.6089 -0.3473
  337MOL0     H45479   7.680   8.575   5.219  1.0583 -1.3171  0.7961
  337MOL0     H45480   7.422   8.571   5.253  0.0754  0.0971 -0.1728
  337MOL0     H45481   7.047   8.524   5.080  0.0713 -0.3801 -0.1786
  337MOL0     H45482   6.809   8.548   5.105  0.3209  0.6636 -0.4368
  337MOL0     H45483   6.538   8.211   5.238 -2.4795 -3.1814 -1.1008
  337MOL0     H45484   6.576   8.155   5.078 -3.1780 -1.1818 -0.4273
  337MOL0     H45485   6.355   8.175   5.090  3.2333 -0.7707  0.7289
  337MOL0     H45486   6.414   8.313   4.984  2.8841  2.3954 -0.0293
  337MOL0     H45487   6.336   8.348   5.274 -0.2514  1.7455  0.1979
  337MOL0     H45488   6.211   8.343   5.157 -0.3329 -0.9627  0.5965
  337MOL0     H45489   6.452   8.528   5.144 -0.3653  1.6267  0.0865
  337MOL0     H45490   6.347   8.528   5.014 -1.7862  2.5585  0.2027
  337MOL0     H45491   6.139   8.791   5.260 -0.7935  0.7446 -0.9911
  337MOL0     H45492   6.756   8.123   5.124 -0.6578  1.5169  2.3968
  337MOL0     H45493   7.071   8.044   5.236  1.9931  2.5302 -0.8154
  337MOL0     H45494   6.938   7.970   5.137 -0.5937  0.5234 -2.3342
  337MOL0     H45495   7.067   8.012   5.055 -2.7500  0.6133 -1.5861
  338MOL0     O45496   1.251   4.267   1.341 -0.3899  0.1194  0.7931
  338MOL0     C45497   1.133   4.301   1.372 -0.4982  0.6205  0.3146
  338MOL0     O45498   1.085   4.306   1.500  0.0630  0.0601  0.3778
  338MOL0     C45499   1.163   4.280   1.603 -0.1542  0.5233  0.0626
  338MOL0     C45500   1.212   4.154   1.642  0.4914 -0.9807  0.0699
  338MOL0     C45501   1.300   4.136   1.748  0.2719 -0.2370 -0.2975
  338MOL0     C45502   1.351   4.255   1.810 -1.2665  0.4792 -0.6819
  338MOL0     O45503   1.436   4.258   1.922  0.1909 -0.6994  0.0854
  338MOL0     C45504   1.438   4.148   2.014  0.0494 -0.2453 -0.0286
  338MOL0     C45505   1.582   4.159   2.071  0.6666 -0.0205 -0.1008
  338MOL0     C45506   1.693   4.110   1.983 -0.7623  0.2628  0.1930
  338MOL0     C45507   1.835   4.144   2.044  0.5104  0.8722 -0.4047
  338MOL0     C45508   1.967   4.102   1.970 -0.2061 -0.5214  0.0983
  338MOL0     C45509   2.079   4.081   2.068  0.3473  0.3282 -0.4776
  338MOL0     C45510   2.226   4.057   2.013  0.5031 -0.6227 -0.0055
  338MOL0     C45511   2.329   4.064   2.132  0.0955  0.4239  0.8431
  338MOL0     N45512   2.456   4.105   2.079 -0.7823  0.3508  0.7319
  338MOL0     C45513   2.537   4.045   1.984  0.7203  0.1078 -0.0940
  338MOL0     C45514   2.660   4.104   1.999  1.0587  0.0419  0.2344
  338MOL0     C45515   2.782   4.068   1.909  0.4519  0.7156 -0.6290
  338MOL0     C45516   2.772   4.104   1.757 -0.3798 -0.0658 -0.0825
  338MOL0     C45517   2.906   4.084   1.689 -0.3219  0.6605 -0.2850
  338MOL0     C45518   2.898   4.127   1.540 -0.1668  0.5097 -0.2496
  338MOL0     O45519   3.025   4.089   1.480  0.1145  0.0912  0.2367
  338MOL0     C45520   3.138   4.165   1.497  0.5295 -0.3340  0.4237
  338MOL0     C45521   3.142   4.299   1.543  0.4948  0.5322  0.9110
  338MOL0     C45522   3.269   4.359   1.569  0.6199 -0.6088 -0.0862
  338MOL0     C45523   3.387   4.291   1.548 -0.2982  0.4565 -0.3588
  338MOL0     C45524   3.515   4.356   1.561 -0.1726  0.3801  0.9904
  338MOL0     O45525   3.510   4.493   1.549 -0.0323 -0.0664 -0.0672
  338MOL0     C45526   3.627   4.562   1.571 -0.4128  0.0310 -0.3735
  338MOL0     C45527   3.711   4.542   1.692 -0.2265  0.1738  0.6352
  338MOL0     C45528   3.813   4.630   1.718  0.0730 -0.1178  0.3286
  338MOL0     C45529   3.838   4.740   1.633 -0.4459  0.2043 -0.8593
  338MOL0     O45530   3.946   4.824   1.647  0.6091 -0.1139 -0.4867
  338MOL0     C45531   4.040   4.818   1.755  0.6763  0.1364 -0.4413
  338MOL0     C45532   4.151   4.922   1.735 -0.5701  0.6781  0.5974
  338MOL0     C45533   4.224   4.957   1.862 -0.4131 -0.6228  0.1981
  338MOL0     C45534   4.299   4.837   1.929 -0.0150  0.2100  0.0581
  338MOL0     C45535   4.434   4.801   1.859  0.2099  0.4058  0.3886
  338MOL0     C45536   4.531   4.736   1.953 -0.2458 -0.2954 -0.2944
  338MOL0     C45537   4.669   4.717   1.882  0.2042 -0.5559 -0.2415
  338MOL0     C45538   4.740   4.848   1.867 -0.1837  0.1799 -0.2921
  338MOL0    Cl45539   4.903   4.819   1.850 -0.4758  0.2538 -0.0430
  338MOL0     C45540   3.763   4.761   1.520  0.0591 -0.5396  0.5539
  338MOL0     C45541   3.656   4.675   1.490  0.6102  0.6661 -0.6217
  338MOL0     O45542   3.620   4.288   1.571 -1.1309  0.5394  0.4073
  338MOL0     C45543   3.378   4.161   1.499  0.2216  0.1070 -0.0083
  338MOL0     C45544   3.261   4.105   1.472  0.9331 -0.3802  0.4084
  338MOL0     N45545   2.645   4.202   2.096  0.6409 -0.5632 -0.6754
  338MOL0     N45546   2.526   4.201   2.135  0.2337  0.1070 -0.4222
  338MOL0     C45547   1.311   4.372   1.769  0.0167  0.1448 -0.4473
  338MOL0     C45548   1.216   4.391   1.671  0.7663  0.7421 -0.7123
  338MOL0     C45549   1.035   4.312   1.260  0.1178  0.1638 -0.0494
  338MOL0     C45550   0.905   4.296   1.305  0.0802  0.0179 -0.0080
  338MOL0     C45551   0.787   4.313   1.231 -0.2557  0.3391  0.4706
  338MOL0     C45552   0.802   4.352   1.098  0.2422  0.4892  0.6893
  338MOL0     O45553   0.699   4.384   1.011  0.0139 -0.4189  0.6163
  338MOL0     C45554   0.559   4.374   1.047 -0.9279  0.0468  0.5041
  338MOL0     C45555   0.502   4.239   1.038  0.3961 -0.3126 -0.1893
  338MOL0     C45556   0.472   4.205   0.889  0.5939 -0.0584  0.3311
  338MOL0     C45557   0.410   4.063   0.878 -0.0069  0.8743 -0.7390
  338MOL0     C45558   0.488   3.957   0.946 -0.2861 -0.5671 -0.4626
  338MOL0     C45559   0.574   3.880   0.985 -0.3513  0.6650 -0.0072
  338MOL0     C45560   0.928   4.369   1.043 -0.4279 -0.2692 -0.7125
  338MOL0     C45561   1.053   4.347   1.120 -0.1208 -0.0653 -0.0656
  338MOL0     C45562   1.187   4.380   1.057 -0.1802 -0.4373  0.0957
  338MOL0     H45563   1.186   4.064   1.588 -0.3480 -2.0718  2.1581
  338MOL0     H45564   1.330   4.034   1.769  1.0479 -0.0518 -0.4689
  338MOL0     H45565   1.360   4.163   2.089  0.8322  1.1411  0.5434
  338MOL0     H45566   1.420   4.049   1.970 -2.8195  0.1322  0.1460
  338MOL0     H45567   1.581   4.095   2.160  0.6523 -2.1068 -1.5396
  338MOL0     H45568   1.601   4.264   2.096  2.9728 -0.3930 -0.0522
  338MOL0     H45569   1.682   4.162   1.887 -2.4437 -1.3711 -0.5666
  338MOL0     H45570   1.696   4.001   1.972  2.2090  0.0225  2.1581
  338MOL0     H45571   1.846   4.251   2.067  0.5973  1.5013 -3.0302
  338MOL0     H45572   1.833   4.088   2.137 -1.7575 -1.5247 -1.7557
  338MOL0     H45573   1.948   4.002   1.929  0.8669 -0.9484  0.6046
  338MOL0     H45574   1.999   4.175   1.895  0.7331  0.0049  0.9950
  338MOL0     H45575   2.079   4.169   2.133 -0.8565 -0.3882  0.5190
  338MOL0     H45576   2.055   3.994   2.129  1.4268 -0.7195 -1.4851
  338MOL0     H45577   2.247   4.141   1.946  0.5410 -0.3601  0.3305
  338MOL0     H45578   2.243   3.960   1.966  0.9429 -0.5806  0.0636
  338MOL0     H45579   2.302   4.138   2.208  1.3223 -0.3370  2.0483
  338MOL0     H45580   2.341   3.968   2.183  0.2924 -0.8070 -1.3503
  338MOL0     H45581   2.512   3.958   1.924  0.0558 -0.6440  1.2229
  338MOL0     H45582   2.874   4.113   1.947  1.5478 -0.9749 -1.1788
  338MOL0     H45583   2.803   3.961   1.914  0.8445  0.8251  0.2008
  338MOL0     H45584   2.689   4.045   1.715  0.6438 -2.2057  0.7694
  338MOL0     H45585   2.743   4.210   1.753 -0.8429 -0.2243 -1.8553
  338MOL0     H45586   2.949   3.985   1.706 -0.4032  0.8401  1.0075
  338MOL0     H45587   2.974   4.152   1.740  1.8290 -1.6672  0.1427
  338MOL0     H45588   2.883   4.234   1.525 -1.2072  0.3657 -0.2563
  338MOL0     H45589   2.820   4.070   1.489 -3.2350  0.7606  3.6840
  338MOL0     H45590   3.052   4.354   1.569 -1.2283 -2.7593  2.5551
  338MOL0     H45591   3.273   4.461   1.604  3.2661 -0.0496 -1.7517
  338MOL0     H45592   3.706   4.457   1.759  2.5243 -0.5331  0.0660
  338MOL0     H45593   3.875   4.614   1.806  1.6807 -0.6633 -0.8567
  338MOL0     H45594   3.975   4.828   1.843 -0.3970  0.5234 -1.2559
  338MOL0     H45595   4.071   4.713   1.750 -2.5048 -0.9800  0.7306
  338MOL0     H45596   4.222   4.880   1.663 -2.5885 -0.7645 -0.6494
  338MOL0     H45597   4.107   5.014   1.694  2.6172  3.1572  2.3089
  338MOL0     H45598   4.302   5.034   1.853 -0.3154 -0.7269  0.1429
  338MOL0     H45599   4.142   4.996   1.923 -1.0729  0.0303 -1.0721
  338MOL0     H45600   4.233   4.750   1.942 -0.2575  0.2589 -0.7508
  338MOL0     H45601   4.318   4.871   2.031 -2.2284  1.7467  0.0244
  338MOL0     H45602   4.472   4.896   1.820 -0.3872  1.1384  1.5375
  338MOL0     H45603   4.417   4.740   1.769 -2.1100 -1.0749  1.7265
  338MOL0     H45604   4.551   4.785   2.049  0.9566 -0.7085 -0.3194
  338MOL0     H45605   4.495   4.638   1.986  1.8268 -0.1697  2.7285
  338MOL0     H45606   4.656   4.658   1.791  0.1019  0.6924 -1.0609
  338MOL0     H45607   4.729   4.656   1.950  1.3523 -1.0137 -1.6124
  338MOL0     H45608   4.711   4.890   1.770 -0.6180 -0.2183 -0.3349
  338MOL0     H45609   4.715   4.914   1.951 -0.1469  3.4486 -2.6469
  338MOL0     H45610   3.788   4.844   1.455 -0.2149  0.5707  1.8115
  338MOL0     H45611   3.602   4.702   1.400 -1.8688 -1.9139 -0.0626
  338MOL0     H45612   3.471   4.111   1.473  0.7193  0.6997  0.5937
  338MOL0     H45613   3.267   4.009   1.422  2.9973 -0.1987  0.1913
  338MOL0     H45614   1.353   4.464   1.809 -0.2467  0.8464 -1.6922
  338MOL0     H45615   1.178   4.490   1.649  1.0456  1.4095  1.4999
  338MOL0     H45616   0.882   4.277   1.409  1.4173  1.3145  0.5573
  338MOL0     H45617   0.692   4.291   1.280  0.4741  1.1026  2.2982
  338MOL0     H45618   0.498   4.439   0.983  1.5206  0.0402 -2.0580
  338MOL0     H45619   0.532   4.405   1.148  3.1088 -1.6912  2.3092
  338MOL0     H45620   0.407   4.245   1.091  0.6578  0.9243  0.1804
  338MOL0     H45621   0.573   4.175   1.090  1.2714  1.3424  0.7269
  338MOL0     H45622   0.559   4.211   0.822 -1.8775  1.4311 -3.0623
  338MOL0     H45623   0.401   4.278   0.849  0.6272 -0.4830 -0.5357
  338MOL0     H45624   0.313   4.062   0.928 -0.0606 -2.0866 -0.7494
  338MOL0     H45625   0.393   4.034   0.774 -2.5836 -2.4937  0.4425
  338MOL0     H45626   0.643   3.808   1.023  1.1613  1.5424 -1.0158
  338MOL0     H45627   0.924   4.407   0.941 -5.2705 -2.5777 -1.6683
  338MOL0     H45628   1.162   4.394   0.951 -1.4828  0.1415  0.4644
  338MOL0     H45629   1.223   4.473   1.101 -1.1485 -0.9543  2.0764
  338MOL0     H45630   1.262   4.301   1.071 -0.4948 -0.7482  0.0418
  339MOL0     O45631   2.831   6.366   3.349 -0.1085  0.1545 -0.4931
  339MOL0     C45632   2.871   6.290   3.442  0.3132 -0.0798 -0.5409
  339MOL0     O45633   3.003   6.241   3.453  0.1184  0.2122 -0.2404
  339MOL0     C45634   3.093   6.298   3.364 -0.6559 -0.2848  0.9248
  339MOL0     C45635   3.179   6.388   3.429  0.1111  0.2783 -0.2707
  339MOL0     C45636   3.291   6.438   3.359 -0.4092  0.2616 -0.4980
  339MOL0     C45637   3.320   6.390   3.235  0.1402 -0.5910  0.4159
  339MOL0     O45638   3.425   6.437   3.158 -0.1839 -0.0917 -0.0230
  339MOL0     C45639   3.527   6.343   3.112  0.7403 -0.5173 -0.9218
  339MOL0     C45640   3.670   6.408   3.125  0.2131 -0.0528 -0.5394
  339MOL0     C45641   3.770   6.323   3.042  0.3690  0.4916 -0.2419
  339MOL0     C45642   3.920   6.373   3.050  0.3967 -0.0429  0.0852
  339MOL0     C45643   4.039   6.272   3.024 -0.2772  0.1719 -0.2188
  339MOL0     C45644   4.178   6.348   3.045 -0.0538  0.0359  0.5202
  339MOL0     C45645   4.286   6.235   3.038 -0.0418 -0.8108 -0.1055
  339MOL0     C45646   4.421   6.279   3.093 -0.8751 -0.2311  0.3803
  339MOL0     N45647   4.522   6.177   3.068 -0.1516 -0.2920  0.1940
  339MOL0     C45648   4.534   6.051   3.119  0.2666  0.1481 -0.8549
  339MOL0     C45649   4.646   6.001   3.070 -0.7341  0.6239  0.1559
  339MOL0     C45650   4.708   5.865   3.103  0.6007 -0.9829  0.1773
  339MOL0     C45651   4.852   5.856   3.046  0.1737 -0.0587  0.7818
  339MOL0     C45652   4.953   5.931   3.138 -0.8060  0.1821 -0.3037
  339MOL0     C45653   5.090   5.959   3.072  0.4662  0.0985  0.1773
  339MOL0     O45654   5.161   5.840   3.045 -0.3296 -0.0292  0.2407
  339MOL0     C45655   5.300   5.849   3.033  0.0266  1.3555 -0.0108
  339MOL0     C45656   5.362   5.966   2.992  0.4380 -0.6911 -0.3952
  339MOL0     C45657   5.498   5.971   2.967  0.7568 -0.8888  0.6824
  339MOL0     C45658   5.572   5.857   2.971 -1.4019  0.0685  0.2801
  339MOL0     C45659   5.722   5.854   2.953  0.4503  0.4569  0.0069
  339MOL0     O45660   5.771   5.977   2.946  0.2003 -0.4121  0.2283
  339MOL0     C45661   5.892   6.006   2.896 -0.0741 -0.3117 -0.6241
  339MOL0     C45662   5.922   6.120   2.824  0.3312  0.2532  0.0382
  339MOL0     C45663   6.052   6.162   2.795 -0.1994 -0.0301 -0.0806
  339MOL0     C45664   6.163   6.072   2.819  0.3600  0.1109  0.3772
  339MOL0     O45665   6.291   6.078   2.779 -0.1488 -0.5549 -0.8223
  339MOL0     C45666   6.346   6.201   2.730 -0.1428  1.0471  0.6991
  339MOL0     C45667   6.494   6.165   2.683  0.6504 -0.3748  0.2484
  339MOL0     C45668   6.505   6.043   2.591  0.3405  0.1661  0.3713
  339MOL0     C45669   6.648   6.020   2.524  0.2605 -0.9082  0.0640
  339MOL0     C45670   6.666   5.892   2.439  0.1579 -0.2487 -0.5485
  339MOL0     C45671   6.609   5.895   2.300 -0.4260 -1.0028 -0.5801
  339MOL0     C45672   6.654   5.771   2.219 -0.2976 -0.5252 -0.4955
  339MOL0     C45673   6.591   5.759   2.086  0.0726  0.6205  0.1029
  339MOL0    Cl45674   6.417   5.727   2.116  0.1112  0.4537  0.0532
  339MOL0     C45675   6.130   5.947   2.880  0.2894  0.1107  0.7454
  339MOL0     C45676   6.005   5.917   2.927  1.4339 -0.0428  0.1677
  339MOL0     O45677   5.777   5.748   2.924 -0.2943 -0.3254 -0.1253
  339MOL0     C45678   5.510   5.733   3.001 -0.7695  0.0690 -0.0643
  339MOL0     C45679   5.374   5.728   3.037 -0.4302 -0.5424 -0.7403
  339MOL0     N45680   4.700   6.087   2.978  0.3384  0.2820  0.1280
  339MOL0     N45681   4.622   6.187   2.975  0.2365  0.0496 -0.1089
  339MOL0     C45682   3.228   6.302   3.168  0.4607 -0.1622 -0.1349
  339MOL0     C45683   3.115   6.264   3.238 -0.6185 -0.3617  0.1408
  339MOL0     C45684   2.773   6.226   3.536  0.4698  0.0197 -1.0061
  339MOL0     C45685   2.830   6.156   3.643  0.7121  0.6816  0.3008
  339MOL0     C45686   2.744   6.084   3.734 -0.4929  0.0773  0.2501
  339MOL0     C45687   2.607   6.088   3.711  0.1209  1.0148  0.5275
  339MOL0     O45688   2.511   6.009   3.778  0.6799 -0.2476 -0.0948
  339MOL0     C45689   2.562   5.912   3.862  0.1734 -0.0824 -0.3128
  339MOL0     C45690   2.573   5.973   4.003  0.5444 -0.2986 -0.0552
  339MOL0     C45691   2.428   5.999   4.058 -0.0646  0.1563  0.3235
  339MOL0     C45692   2.440   6.080   4.179  0.1607  0.6474  0.7397
  339MOL0     C45693   2.306   6.118   4.226 -0.9168 -0.1024  0.0272
  339MOL0     C45694   2.196   6.146   4.261 -0.1398  0.5132 -0.0812
  339MOL0     C45695   2.557   6.157   3.599 -0.8995 -0.3446 -1.0332
  339MOL0     C45696   2.629   6.233   3.515 -0.9106  1.3172  0.2760
  339MOL0     C45697   2.559   6.311   3.404 -0.0933 -0.5181 -0.1925
  339MOL0     H45698   3.150   6.415   3.530 -0.8498 -0.9971 -0.1771
  339MOL0     H45699   3.362   6.510   3.400 -0.3146  0.7140 -1.4222
  339MOL0     H45700   3.522   6.240   3.148 -0.5410 -1.6530 -4.0077
  339MOL0     H45701   3.511   6.336   3.004  1.3346  0.0414 -1.0555
  339MOL0     H45702   3.697   6.410   3.231 -2.3933  0.6062  0.1781
  339MOL0     H45703   3.668   6.516   3.104 -0.7388  0.5644  2.2643
  339MOL0     H45704   3.749   6.323   2.935  2.2868 -1.0184 -0.6751
  339MOL0     H45705   3.760   6.218   3.072 -0.2912  0.0483 -1.9166
  339MOL0     H45706   3.941   6.444   2.970  0.8545 -0.4598 -0.1703
  339MOL0     H45707   3.931   6.417   3.149  3.7867  0.3658 -0.3344
  339MOL0     H45708   4.038   6.195   3.101  3.4748  0.2287  0.0601
  339MOL0     H45709   4.036   6.216   2.930 -1.7181 -1.2134  0.6102
  339MOL0     H45710   4.187   6.430   2.974 -1.7336  1.3799  1.7550
  339MOL0     H45711   4.178   6.382   3.149  0.7956  0.5501  0.3526
  339MOL0     H45712   4.294   6.205   2.933  0.2626  1.1419 -0.6708
  339MOL0     H45713   4.247   6.152   3.098 -0.5854  0.8692  1.9545
  339MOL0     H45714   4.461   6.364   3.038 -0.2956 -0.8117 -0.1214
  339MOL0     H45715   4.418   6.298   3.201  2.1224 -1.8156  0.8528
  339MOL0     H45716   4.475   5.994   3.189 -0.2379  0.9681 -0.6010
  339MOL0     H45717   4.709   5.850   3.211  3.2040  1.9905  0.7221
  339MOL0     H45718   4.649   5.788   3.052  0.2703  0.2208 -1.3703
  339MOL0     H45719   4.888   5.753   3.040  1.7247  0.5407 -1.8272
  339MOL0     H45720   4.860   5.910   2.951 -3.0809  1.8414  1.4529
  339MOL0     H45721   4.954   5.883   3.236 -2.3493  1.6516  0.4821
  339MOL0     H45722   4.911   6.032   3.145 -1.4293 -0.1864  2.0143
  339MOL0     H45723   5.147   6.004   3.154 -0.0190 -2.7841  2.2652
  339MOL0     H45724   5.084   6.025   2.986 -0.3908  0.0741  0.2085
  339MOL0     H45725   5.300   6.055   2.994 -1.6912 -2.1071  1.1170
  339MOL0     H45726   5.535   6.068   2.935  0.9194 -1.6113 -1.4998
  339MOL0     H45727   5.835   6.183   2.810  0.0675 -0.1982 -0.3740
  339MOL0     H45728   6.078   6.257   2.749 -2.1764  0.2161 -0.7602
  339MOL0     H45729   6.299   6.224   2.634 -0.7090 -3.3691 -0.3192
  339MOL0     H45730   6.349   6.283   2.801  3.7630  0.2383  1.7212
  339MOL0     H45731   6.535   6.252   2.632  2.5894 -1.7799 -0.6802
  339MOL0     H45732   6.556   6.141   2.770  0.2065 -1.6108  0.2444
  339MOL0     H45733   6.479   5.953   2.648  2.6462  0.7571  2.5847
  339MOL0     H45734   6.432   6.059   2.512 -0.5950 -0.9024  0.9750
  339MOL0     H45735   6.725   6.021   2.602 -0.6704  0.3189  1.0056
  339MOL0     H45736   6.662   6.110   2.464  2.1718 -0.4459  1.1109
  339MOL0     H45737   6.616   5.811   2.493 -0.5481 -1.3501 -2.7425
  339MOL0     H45738   6.774   5.875   2.430  0.1461 -0.4536 -0.3137
  339MOL0     H45739   6.500   5.908   2.302 -0.5106 -1.3075 -1.9108
  339MOL0     H45740   6.651   5.983   2.251  1.0510 -2.5590 -2.2537
  339MOL0     H45741   6.621   5.682   2.274  1.1655  0.2010  1.6998
  339MOL0     H45742   6.764   5.772   2.222 -0.3062  1.4386  0.4258
  339MOL0     H45743   6.610   5.838   2.013 -0.8641  0.8620  0.1119
  339MOL0     H45744   6.638   5.674   2.035  1.7489  1.4835  0.1053
  339MOL0     H45745   6.207   5.870   2.880  0.3577  0.1774  0.4178
  339MOL0     H45746   5.995   5.822   2.979 -0.7382  0.4280  0.7199
  339MOL0     H45747   5.565   5.640   3.005 -1.3107 -0.2470  0.2027
  339MOL0     H45748   5.329   5.634   3.064 -0.0372 -0.6324 -0.3816
  339MOL0     H45749   3.249   6.263   3.069  1.4370 -1.5570  0.5757
  339MOL0     H45750   3.044   6.196   3.193  1.0080 -1.8131 -0.3346
  339MOL0     H45751   2.935   6.138   3.662 -0.0563 -2.3201  2.5507
  339MOL0     H45752   2.786   6.015   3.806  0.7854 -1.2545 -1.6754
  339MOL0     H45753   2.665   5.884   3.836  0.0614 -1.5183  0.6489
  339MOL0     H45754   2.499   5.823   3.849 -0.8008  0.4298  0.7798
  339MOL0     H45755   2.622   6.071   4.007  1.2818 -0.6876  0.5665
  339MOL0     H45756   2.628   5.908   4.072 -1.0571 -0.8218  0.8042
  339MOL0     H45757   2.379   5.903   4.074  2.3969 -1.4131 -0.8134
  339MOL0     H45758   2.365   6.047   3.983 -0.4233 -2.1312 -0.9486
  339MOL0     H45759   2.481   6.022   4.262  3.5270 -0.0869 -1.2587
  339MOL0     H45760   2.494   6.171   4.151  2.9464 -0.5044  1.9944
  339MOL0     H45761   2.104   6.191   4.293 -0.8379 -0.5951 -0.4780
  339MOL0     H45762   2.451   6.139   3.587 -1.1565 -2.2351  2.5061
  339MOL0     H45763   2.604   6.407   3.377 -1.9189  0.3751 -0.2136
  339MOL0     H45764   2.565   6.253   3.312 -0.6252 -0.5242 -0.2291
  339MOL0     H45765   2.455   6.324   3.434  0.7646 -1.1708  3.4477
  340MOL0     O45766   8.507   0.763   1.995  0.2713  0.5529  0.1082
  340MOL0     C45767   8.467   0.829   1.896  0.4309 -1.8088 -0.7268
  340MOL0     O45768   8.556   0.895   1.818 -0.1023  0.3889  0.3714
  340MOL0     C45769   8.690   0.891   1.857  1.0251 -0.2153 -0.2859
  340MOL0     C45770   8.740   0.983   1.947 -0.6019  0.1626 -0.6300
  340MOL0     C45771   8.875   0.964   1.996  0.9638  0.1263 -0.1118
  340MOL0     C45772   8.948   0.849   1.964 -0.5697 -0.2857  0.1735
  340MOL0     O45773   9.073   0.849   2.016  0.4425 -0.4747 -0.2535
  340MOL0     C45774   9.142   0.727   2.024 -0.5023  0.3438  0.2049
  340MOL0     C45775   9.278   0.724   2.085 -0.0592 -0.3952  0.3274
  340MOL0     C45776   9.372   0.836   2.034 -0.7572  0.3939 -0.7928
  340MOL0     C45777   9.507   0.814   2.099 -0.3273  0.0761  0.0172
  340MOL0     C45778   9.638   0.882   2.034 -0.3515 -0.3159  0.9638
  340MOL0     C45779   9.759   0.828   2.110  0.3556 -0.2728 -0.0201
  340MOL0     C45780   9.894   0.894   2.069  0.9273  0.1815 -0.2638
  340MOL0     C45781  10.009   0.858   2.161  0.6618  0.4364 -0.6060
  340MOL0     N45782  10.046   0.724   2.141 -0.0299  0.0824 -0.9913
  340MOL0     C45783  10.000   0.608   2.199  0.0543 -0.1677  0.0733
  340MOL0     C45784  10.071   0.514   2.146  0.3456  0.0537 -0.1284
  340MOL0     C45785  10.038   0.370   2.174  0.3153 -0.0909  0.1102
  340MOL0     C45786   9.950   0.314   2.062 -0.2787 -0.2624 -0.3876
  340MOL0     C45787   9.892   0.172   2.111 -0.2145 -0.6468  0.3377
  340MOL0     C45788   9.811   0.094   2.014  0.3841  0.0363 -0.4405
  340MOL0     O45789   9.685   0.160   1.995  0.3494 -0.0085 -0.6023
  340MOL0     C45790   9.596   0.112   1.903 -0.1609  0.0407  0.0994
  340MOL0     C45791   9.616  -0.010   1.826  0.1343 -0.7437 -0.3703
  340MOL0     C45792   9.525  -0.035   1.727  0.5926  0.6695  0.5118
  340MOL0     C45793   9.422   0.059   1.688 -0.1470  0.0358  0.6726
  340MOL0     C45794   9.337   0.021   1.573 -0.0358 -0.2604  0.0151
  340MOL0     O45795   9.333  -0.105   1.529  0.0033  0.2448 -0.1895
  340MOL0     C45796   9.239  -0.131   1.430 -0.9827 -0.0708  0.0751
  340MOL0     C45797   9.126  -0.195   1.465  0.4148  0.3270 -0.9077
  340MOL0     C45798   9.032  -0.232   1.373  0.0832 -0.0406 -0.2713
  340MOL0     C45799   9.055  -0.204   1.240  0.1121  0.7153 -0.1845
  340MOL0     O45800   8.979  -0.255   1.140 -0.7575  0.3369  0.4530
  340MOL0     C45801   8.845  -0.311   1.151  0.2300 -0.2664 -0.0992
  340MOL0     C45802   8.765  -0.304   1.015 -0.0821  0.0901 -0.3710
  340MOL0     C45803   8.619  -0.347   1.010  1.5453  0.7116 -0.4139
  340MOL0     C45804   8.527  -0.253   1.081  0.8597  0.1920  0.7876
  340MOL0     C45805   8.386  -0.317   1.095 -0.3987  0.2722 -0.2070
  340MOL0     C45806   8.317  -0.348   0.961 -0.3148 -0.1576 -0.1459
  340MOL0     C45807   8.169  -0.382   0.986 -0.6307  0.4223  0.8348
  340MOL0     C45808   8.138  -0.518   1.047  1.1284  0.0904  0.1835
  340MOL0    Cl45809   7.966  -0.581   1.026 -0.0317 -0.5031  0.1607
  340MOL0     C45810   9.182  -0.164   1.200 -0.3489  0.0938  0.5033
  340MOL0     C45811   9.272  -0.114   1.297  0.1134 -0.6717 -0.7562
  340MOL0     O45812   9.263   0.110   1.532 -0.3807 -0.7755 -0.1468
  340MOL0     C45813   9.399   0.170   1.770 -0.0465  0.6068  0.1592
  340MOL0     C45814   9.485   0.194   1.881  0.8141 -0.1471  0.4274
  340MOL0     N45815  10.165   0.564   2.064  0.3004  0.5030  0.7770
  340MOL0     N45816  10.148   0.687   2.062  0.1411 -0.4692 -0.1397
  340MOL0     C45817   8.903   0.761   1.865 -0.1143  0.2197 -0.1143
  340MOL0     C45818   8.768   0.778   1.811 -0.7967  0.1768 -0.0655
  340MOL0     C45819   8.327   0.842   1.865  0.9454  0.1984  0.1396
  340MOL0     C45820   8.291   0.894   1.741 -0.7476  0.3545  0.9790
  340MOL0     C45821   8.164   0.924   1.706 -0.4811  0.7671 -0.0659
  340MOL0     C45822   8.052   0.893   1.787  0.2971 -0.1712 -0.3656
  340MOL0     O45823   7.929   0.944   1.751 -0.3237 -0.4555  0.5470
  340MOL0     C45824   7.818   0.902   1.829 -0.0833 -0.6422  0.1532
  340MOL0     C45825   7.698   0.953   1.764 -0.0808 -0.5724  0.1569
  340MOL0     C45826   7.576   0.989   1.864 -0.0153  0.3253  0.1028
  340MOL0     C45827   7.534   0.866   1.935 -0.1889  0.8252 -0.5953
  340MOL0     C45828   7.416   0.905   2.011 -0.5231  0.1461 -0.1100
  340MOL0     C45829   7.326   0.942   2.085 -0.4939 -0.9734  0.2522
  340MOL0     C45830   8.083   0.830   1.907 -0.2670  0.0648  0.3580
  340MOL0     C45831   8.220   0.810   1.951 -0.1779  0.2208 -0.3120
  340MOL0     C45832   8.240   0.748   2.087  0.3668 -0.4348 -0.2948
  340MOL0     H45833   8.675   1.058   1.991 -2.6493 -2.1521  0.5619
  340MOL0     H45834   8.917   1.037   2.064 -0.9567 -0.3044  1.6042
  340MOL0     H45835   9.081   0.653   2.076  0.9875 -0.6392  0.6096
  340MOL0     H45836   9.149   0.689   1.922 -0.5977 -1.0108  0.6864
  340MOL0     H45837   9.323   0.627   2.061  0.9537 -0.5899  2.6426
  340MOL0     H45838   9.264   0.731   2.193 -1.3428  0.8444  0.0997
  340MOL0     H45839   9.339   0.934   2.070 -1.9338 -1.2397  3.1142
  340MOL0     H45840   9.370   0.829   1.925 -2.2334  1.2525 -0.8498
  340MOL0     H45841   9.501   0.850   2.202 -1.1178  0.3484 -0.1185
  340MOL0     H45842   9.529   0.708   2.117  2.9231  1.0512  2.7731
  340MOL0     H45843   9.657   0.852   1.930 -1.1275 -0.9513  0.9966
  340MOL0     H45844   9.637   0.991   2.042  0.7167 -0.1344 -0.6880
  340MOL0     H45845   9.741   0.824   2.218  0.2722  0.7316  0.0077
  340MOL0     H45846   9.769   0.720   2.094 -1.8211 -0.3918 -0.9830
  340MOL0     H45847   9.879   1.002   2.074 -1.5484 -0.1563  2.5504
  340MOL0     H45848   9.918   0.857   1.969  1.9164 -1.8324  0.6433
  340MOL0     H45849  10.095   0.920   2.133 -0.0542  1.8318  0.2287
  340MOL0     H45850   9.982   0.893   2.261  1.1272  2.2257 -1.0681
  340MOL0     H45851   9.915   0.612   2.266  1.2154  0.8022  1.5327
  340MOL0     H45852  10.129   0.316   2.200  2.0632  3.0647  1.0583
  340MOL0     H45853   9.972   0.370   2.262 -0.6753 -0.1590 -0.6130
  340MOL0     H45854   9.870   0.386   2.044  1.7499  2.0432 -0.7158
  340MOL0     H45855  10.016   0.303   1.976  3.0070 -1.4022  2.0609
  340MOL0     H45856   9.832   0.196   2.199 -1.7847  1.7685 -1.2800
  340MOL0     H45857   9.981   0.121   2.150  0.0581  0.1281  0.7648
  340MOL0     H45858   9.801  -0.009   2.050  0.6738  0.2290  0.2055
  340MOL0     H45859   9.866   0.088   1.920 -0.4291 -1.3701 -0.8540
  340MOL0     H45860   9.688  -0.089   1.850 -0.3810 -0.8639  0.8724
  340MOL0     H45861   9.544  -0.126   1.672 -1.6565  1.1529 -1.1778
  340MOL0     H45862   9.108  -0.216   1.570  1.8225 -0.3100 -0.7726
  340MOL0     H45863   8.944  -0.283   1.411  1.3158 -2.0354  0.0487
  340MOL0     H45864   8.849  -0.411   1.194 -2.7819 -0.1991  0.5810
  340MOL0     H45865   8.781  -0.248   1.215  1.8558  0.1019  1.2213
  340MOL0     H45866   8.768  -0.198   0.988 -3.2531  1.4284  3.5518
  340MOL0     H45867   8.818  -0.371   0.947  0.2261 -2.7062  2.4096
  340MOL0     H45868   8.591  -0.353   0.905  0.3507  1.7136 -0.1867
  340MOL0     H45869   8.600  -0.443   1.060  0.5728  1.3599  0.5245
  340MOL0     H45870   8.524  -0.158   1.027 -0.2544 -1.2497 -1.8786
  340MOL0     H45871   8.573  -0.224   1.176  0.9912 -0.4508  0.9242
  340MOL0     H45872   8.321  -0.244   1.144 -0.6582 -0.1202  0.0360
  340MOL0     H45873   8.390  -0.404   1.161  3.4750  2.3450  2.7147
  340MOL0     H45874   8.321  -0.258   0.899  0.1938  0.3424  0.6040
  340MOL0     H45875   8.353  -0.437   0.907 -0.2333  0.2035 -0.6916
  340MOL0     H45876   8.122  -0.384   0.887 -2.2946  3.4771  1.4283
  340MOL0     H45877   8.113  -0.300   1.031 -1.1998  1.7999 -2.1118
  340MOL0     H45878   8.194  -0.601   1.003  0.1736 -1.0601  1.0444
  340MOL0     H45879   8.172  -0.524   1.151 -0.5276  1.6973  0.8735
  340MOL0     H45880   9.211  -0.159   1.096 -1.8502 -0.9822 -0.0001
  340MOL0     H45881   9.366  -0.065   1.271 -0.0481  0.3215  0.4758
  340MOL0     H45882   9.319   0.239   1.745 -0.9098 -1.3134 -2.8388
  340MOL0     H45883   9.480   0.282   1.945  1.3194 -0.5084  0.9795
  340MOL0     H45884   8.966   0.678   1.837  3.4388  2.3621  0.9647
  340MOL0     H45885   8.721   0.700   1.753 -2.8899  0.3477  1.2843
  340MOL0     H45886   8.369   0.927   1.673 -1.2840 -1.5896 -0.6486
  340MOL0     H45887   8.143   0.974   1.612 -1.6826 -3.0499 -2.0510
  340MOL0     H45888   7.812   0.943   1.930 -1.5434  2.8641 -1.2141
  340MOL0     H45889   7.810   0.793   1.831  0.5521 -0.6929  0.3588
  340MOL0     H45890   7.667   0.887   1.683 -1.8792  1.9535 -1.3815
  340MOL0     H45891   7.722   1.042   1.705 -0.5156  0.0211  0.8466
  340MOL0     H45892   7.488   1.008   1.801 -0.2934 -0.9771  0.0688
  340MOL0     H45893   7.595   1.072   1.931  2.3438 -0.6855  0.7703
  340MOL0     H45894   7.495   0.795   1.862 -0.1838 -0.4571  0.6143
  340MOL0     H45895   7.611   0.817   1.995 -0.0619 -1.9001 -2.8288
  340MOL0     H45896   7.246   0.982   2.144  1.5391  2.1539  1.1948
  340MOL0     H45897   8.000   0.809   1.974  0.4727 -1.8911  0.7306
  340MOL0     H45898   8.284   0.648   2.082 -0.0877 -0.6839  0.5157
  340MOL0     H45899   8.303   0.813   2.149  3.0139  0.2508 -3.4676
  340MOL0     H45900   8.143   0.738   2.137  1.2032  0.2211  1.5728
  341MOL0     O45901   6.174   8.618   9.657  0.0553  0.2399  0.0818
  341MOL0     C45902   6.233   8.508   9.683 -0.1783 -0.2213 -1.0372
  341MOL0     O45903   6.362   8.504   9.742 -0.4237 -0.4334 -0.8454
  341MOL0     C45904   6.407   8.618   9.805 -0.4647  0.0262 -0.1610
  341MOL0     C45905   6.533   8.659   9.753  0.2187 -0.7134 -0.7531
  341MOL0     C45906   6.587   8.769   9.813 -0.5903 -0.3795  0.2068
  341MOL0     C45907   6.529   8.829   9.933 -0.5421  0.1759 -0.5735
  341MOL0     O45908   6.575   8.935   9.997 -1.0616 -0.2707 -0.0978
  341MOL0     C45909   6.717   8.929  10.031  0.4437 -0.0654 -0.1108
  341MOL0     C45910   6.767   9.069  10.053 -0.6240  0.3712  0.5856
  341MOL0     C45911   6.916   9.075  10.099 -0.4669  0.6172 -0.6940
  341MOL0     C45912   6.972   9.204  10.150 -0.0908  0.4655 -0.1523
  341MOL0     C45913   7.117   9.237  10.129 -0.1398  0.2954 -0.0421
  341MOL0     C45914   7.201   9.124  10.187  0.0392  0.0074 -0.1317
  341MOL0     C45915   7.349   9.175  10.188  0.4713  0.2737 -0.0066
  341MOL0     C45916   7.452   9.063  10.236  0.2369 -0.5771  1.0210
  341MOL0     N45917   7.583   9.121  10.233 -0.0363  0.5352  0.6167
  341MOL0     C45918   7.651   9.157  10.350 -0.2635  0.0930  0.4254
  341MOL0     C45919   7.772   9.195  10.314 -0.4388  0.2617  0.4285
  341MOL0     C45920   7.876   9.233  10.407  0.6224  1.1508  0.0496
  341MOL0     C45921   7.855   9.365  10.478 -0.2094 -0.5794  0.4356
  341MOL0     C45922   7.942   9.475  10.405 -0.3098 -0.1252 -0.1564
  341MOL0     C45923   7.899   9.617  10.442 -0.0396 -0.5079 -0.1254
  341MOL0     O45924   7.939   9.658  10.576 -1.0515  0.6531 -0.1643
  341MOL0     C45925   8.058   9.717  10.581 -0.2372  0.5622 -1.4685
  341MOL0     C45926   8.056   9.855  10.615 -0.4897  0.2112 -0.0901
  341MOL0     C45927   8.187   9.920  10.628  0.2056 -0.6917 -0.3896
  341MOL0     C45928   8.309   9.854  10.604 -0.1604  0.4312 -0.3600
  341MOL0     C45929   8.444   9.917  10.622 -0.1224 -0.7166 -0.5557
  341MOL0     O45930   8.554   9.842  10.588  0.4769 -0.0609  0.0840
  341MOL0     C45931   8.676   9.900  10.596 -0.5578  0.6849 -0.1514
  341MOL0     C45932   8.764   9.870  10.701  1.4451  0.2824 -0.5965
  341MOL0     C45933   8.882   9.940  10.717  0.5788 -0.3859 -0.8426
  341MOL0     C45934   8.913  10.054  10.642  0.5501  0.0801 -0.3647
  341MOL0     O45935   9.028  10.124  10.674  0.3352  0.0213 -0.0112
  341MOL0     C45936   9.150  10.074  10.613  0.0253  0.4386  0.0440
  341MOL0     C45937   9.253  10.181  10.614 -1.0689 -0.1780  0.1825
  341MOL0     C45938   9.389  10.152  10.561  0.1258  0.1368  0.0890
  341MOL0     C45939   9.475  10.058  10.647  0.4699 -0.5370  0.6941
  341MOL0     C45940   9.612  10.031  10.586  1.1840 -0.6026  0.0508
  341MOL0     C45941   9.696  10.159  10.589 -0.3709  0.1356  0.6202
  341MOL0     C45942   9.832  10.117  10.531  0.7485 -0.9077 -0.1464
  341MOL0     C45943   9.924  10.242  10.517  0.5793  0.2018  1.2459
  341MOL0    Cl45944  10.076  10.200  10.438  0.4134  0.3352  0.1660
  341MOL0     C45945   8.821  10.099  10.552 -0.3058 -0.2934 -0.4160
  341MOL0     C45946   8.703  10.020  10.526 -0.3445  0.4989 -0.4156
  341MOL0     O45947   8.441  10.026  10.685  0.6120  0.0494 -0.4082
  341MOL0     C45948   8.308   9.711  10.577 -0.2946 -1.4994  0.3671
  341MOL0     C45949   8.182   9.646  10.568  0.1360  0.3760  0.1600
  341MOL0     N45950   7.784   9.191  10.180  0.0168  0.0261  0.3523
  341MOL0     N45951   7.672   9.150  10.132 -0.4822  0.5662  0.3512
  341MOL0     C45952   6.422   8.768   9.990  0.1651  0.5664 -0.9512
  341MOL0     C45953   6.351   8.673   9.924  0.5276  0.1314  0.4658
  341MOL0     C45954   6.173   8.383   9.631  0.7711 -0.0171  0.0127
  341MOL0     C45955   6.253   8.266   9.645 -0.4970 -0.3065  0.2921
  341MOL0     C45956   6.210   8.145   9.598  0.2629 -0.7311 -0.7052
  341MOL0     C45957   6.084   8.123   9.546  0.0091 -0.7688  0.4578
  341MOL0     O45958   6.065   8.001   9.485 -0.3359 -0.2364  1.1388
  341MOL0     C45959   5.937   7.972   9.419 -0.5872  0.2107  0.0096
  341MOL0     C45960   5.830   7.929   9.520  0.6888 -0.1024 -0.0677
  341MOL0     C45961   5.703   7.896   9.448  0.7688 -0.6455  0.0992
  341MOL0     C45962   5.585   7.920   9.528  0.0704 -0.3357  0.3517
  341MOL0     C45963   5.465   7.870   9.467 -0.1354 -0.2691 -0.4675
  341MOL0     C45964   5.361   7.819   9.429 -0.2972 -0.1572  0.1293
  341MOL0     C45965   5.996   8.234   9.553 -0.1892 -0.4175 -0.0355
  341MOL0     C45966   6.042   8.361   9.589  1.3727  0.7116  0.9784
  341MOL0     C45967   5.935   8.471   9.611 -0.0335  0.2419  0.1236
  341MOL0     H45968   6.586   8.613   9.670 -1.2844 -2.4067 -0.8356
  341MOL0     H45969   6.676   8.818   9.775 -1.7523  3.1976  1.6400
  341MOL0     H45970   6.721   8.874  10.125 -2.4763 -2.7200 -1.3722
  341MOL0     H45971   6.775   8.874   9.956 -0.4878 -1.7723  0.3676
  341MOL0     H45972   6.702   9.097  10.135  0.4159  1.9089  0.9230
  341MOL0     H45973   6.755   9.130   9.962  3.1519  2.5316  1.3050
  341MOL0     H45974   6.980   9.043  10.016 -0.4997 -4.0205  0.7975
  341MOL0     H45975   6.932   9.004  10.181  0.6548  1.4448 -0.1658
  341MOL0     H45976   6.917   9.277  10.090 -0.6582 -0.6924 -1.0770
  341MOL0     H45977   6.939   9.213  10.254  1.0720  0.1622  0.2557
  341MOL0     H45978   7.133   9.246  10.021 -2.6195  2.7044 -0.3327
  341MOL0     H45979   7.142   9.335  10.171  0.8143  0.2900 -0.5625
  341MOL0     H45980   7.162   9.109  10.288 -3.7105  0.5381 -1.3809
  341MOL0     H45981   7.180   9.040  10.120 -0.7261 -0.4466  0.6602
  341MOL0     H45982   7.365   9.261  10.254  0.9906 -2.7670  4.2109
  341MOL0     H45983   7.383   9.212  10.091  2.0906  0.9677  0.7749
  341MOL0     H45984   7.422   9.022  10.332  0.6511  0.1770  1.4870
  341MOL0     H45985   7.435   8.981  10.166 -4.9832  1.9439 -1.2075
  341MOL0     H45986   7.613   9.153  10.451 -1.1857  0.2830  0.0991
  341MOL0     H45987   7.872   9.165  10.493  0.2069  1.2387  0.0987
  341MOL0     H45988   7.977   9.224  10.366  1.0992 -3.6333  1.6465
  341MOL0     H45989   7.749   9.389  10.468 -0.0939  0.0377  0.6195
  341MOL0     H45990   7.876   9.367  10.586 -1.1630  1.1849  0.6157
  341MOL0     H45991   7.939   9.461  10.296 -1.6069 -0.1644 -0.1394
  341MOL0     H45992   8.043   9.450  10.435 -0.6184 -1.1756  0.0292
  341MOL0     H45993   7.791   9.631  10.433  0.0337  1.5935  1.5174
  341MOL0     H45994   7.952   9.689  10.380 -3.6106  3.3900  0.8791
  341MOL0     H45995   7.967   9.916  10.626  0.5188  1.5343  1.0896
  341MOL0     H45996   8.194  10.025  10.657 -4.1945 -0.5307  0.8086
  341MOL0     H45997   8.741   9.785  10.764  0.1833  3.5004  3.7615
  341MOL0     H45998   8.956   9.906  10.789 -0.9851 -0.1211  0.9675
  341MOL0     H45999   9.186   9.982  10.660  1.8485 -0.1956 -2.3535
  341MOL0     H46000   9.128  10.058  10.507  0.0633  0.2360  0.0662
  341MOL0     H46001   9.228  10.267  10.551  0.0167 -0.9900 -1.4233
  341MOL0     H46002   9.266  10.212  10.718  1.8030  1.7316 -0.6226
  341MOL0     H46003   9.394  10.123  10.455  3.3491  1.4462 -0.2299
  341MOL0     H46004   9.445  10.246  10.561  0.7470 -0.2274 -0.3088
  341MOL0     H46005   9.445   9.954  10.662  1.6472 -1.1829 -1.1000
  341MOL0     H46006   9.489  10.106  10.744  2.2095  0.5747 -0.0531
  341MOL0     H46007   9.605   9.977  10.490 -0.6437 -3.1115  1.4562
  341MOL0     H46008   9.667   9.967  10.656  0.3085 -2.1371 -0.6050
  341MOL0     H46009   9.656  10.233  10.518  0.2362 -0.0531  0.0749
  341MOL0     H46010   9.709  10.200  10.690  2.5138 -0.1330  0.4273
  341MOL0     H46011   9.807  10.077  10.433 -1.7275 -1.2171  0.5373
  341MOL0     H46012   9.877  10.040  10.595  2.6778  1.0705  1.0324
  341MOL0     H46013   9.872  10.310  10.449 -3.3107 -3.2765  0.3078
  341MOL0     H46014   9.937  10.291  10.613  1.9147  0.5559  0.9063
  341MOL0     H46015   8.825  10.197  10.506 -1.4492  0.0616  0.2005
  341MOL0     H46016   8.639  10.068  10.453 -2.1471  1.9505  1.9467
  341MOL0     H46017   8.403   9.659  10.572  0.9118  0.5228  0.9555
  341MOL0     H46018   8.189   9.538  10.560 -1.7539  0.1917  0.6252
  341MOL0     H46019   6.381   8.828  10.070  1.9719  1.0376 -0.3349
  341MOL0     H46020   6.253   8.639   9.958 -0.3790  1.5200 -0.6439
  341MOL0     H46021   6.357   8.272   9.678  0.0158 -0.6019 -1.2046
  341MOL0     H46022   6.282   8.064   9.604  1.5237  0.2822 -1.5387
  341MOL0     H46023   5.958   7.895   9.345  0.5636  1.6870 -1.2657
  341MOL0     H46024   5.905   8.066   9.373 -1.5683  1.1452  2.3966
  341MOL0     H46025   5.831   8.003   9.600  2.8628  0.9552 -0.9728
  341MOL0     H46026   5.857   7.844   9.583  0.0713 -1.7306 -1.9087
  341MOL0     H46027   5.707   7.789   9.424  0.2822 -0.5298 -0.5367
  341MOL0     H46028   5.701   7.944   9.349  5.3456 -0.0847  0.0585
  341MOL0     H46029   5.586   7.859   9.619 -2.0299 -2.9708 -1.2514
  341MOL0     H46030   5.573   8.028   9.535 -1.7402 -0.4314 -0.6633
  341MOL0     H46031   5.271   7.772   9.393 -0.8471  1.0587 -0.1498
  341MOL0     H46032   5.899   8.210   9.511  0.4482 -2.4859 -0.4867
  341MOL0     H46033   5.972   8.555   9.552  0.3639 -1.1085 -1.6555
  341MOL0     H46034   5.835   8.440   9.576  0.7347  0.2178 -2.2367
  341MOL0     H46035   5.925   8.501   9.715  0.5828 -0.1067  0.2871
  342MOL0     O46036   1.729   5.030   6.601 -0.1984  1.0286 -0.1807
  342MOL0     C46037   1.645   5.122   6.620  0.5664  0.1203  0.5235
  342MOL0     O46038   1.658   5.255   6.583  0.6303  0.1585 -0.4788
  342MOL0     C46039   1.777   5.292   6.526  0.5286  1.0814  0.3069
  342MOL0     C46040   1.784   5.329   6.390  0.3402 -0.1713  0.1940
  342MOL0     C46041   1.896   5.388   6.335  0.7768 -0.3263  0.4392
  342MOL0     C46042   2.012   5.392   6.412 -1.4819 -0.2061  0.0212
  342MOL0     O46043   2.128   5.441   6.356  0.1783 -0.8844  0.4029
  342MOL0     C46044   2.173   5.576   6.368  0.3808 -0.9094 -0.0257
  342MOL0     C46045   2.312   5.589   6.430  0.3481 -0.3817  0.1931
  342MOL0     C46046   2.417   5.539   6.336  0.2176  1.1310 -0.3599
  342MOL0     C46047   2.547   5.601   6.364 -0.3896  0.2079 -1.0270
  342MOL0     C46048   2.660   5.529   6.284 -0.6087  0.0342 -0.6012
  342MOL0     C46049   2.795   5.596   6.309 -0.0539  0.1933  0.5490
  342MOL0     C46050   2.905   5.533   6.216  0.4055 -1.2284 -0.9479
  342MOL0     C46051   3.041   5.611   6.241  0.0386 -0.4039 -0.5389
  342MOL0     N46052   3.155   5.549   6.174 -0.3956  0.2613  1.1244
  342MOL0     C46053   3.168   5.521   6.042 -0.1864  0.6522 -0.0364
  342MOL0     C46054   3.292   5.468   6.023  0.4796  0.0986 -0.0208
  342MOL0     C46055   3.343   5.413   5.891 -0.9658  0.2835 -0.4948
  342MOL0     C46056   3.322   5.262   5.880 -0.0145  0.4660 -1.0668
  342MOL0     C46057   3.373   5.183   6.000 -0.3489  0.1847 -0.6843
  342MOL0     C46058   3.371   5.027   5.979  0.4086 -0.2235 -0.6874
  342MOL0     O46059   3.451   4.976   5.871  0.8399 -0.2363  0.3896
  342MOL0     C46060   3.583   4.960   5.887 -0.2731 -0.2136 -0.0428
  342MOL0     C46061   3.648   4.905   5.777 -0.0722  0.8984 -0.3596
  342MOL0     C46062   3.786   4.884   5.788  0.3728 -0.4929 -0.1122
  342MOL0     C46063   3.857   4.929   5.898 -0.8711  0.5596  0.1203
  342MOL0     C46064   3.994   4.911   5.909  0.7137 -0.5008 -0.3805
  342MOL0     O46065   4.060   4.877   6.025 -0.0810  0.1164 -0.2167
  342MOL0     C46066   4.194   4.860   6.016 -1.0384 -0.2624 -0.0136
  342MOL0     C46067   4.278   4.949   6.090 -0.2082  0.0045 -0.5957
  342MOL0     C46068   4.419   4.931   6.090  0.4460 -0.6959 -0.5957
  342MOL0     C46069   4.483   4.824   6.031 -0.0150  0.1574 -0.2217
  342MOL0     O46070   4.620   4.794   6.024 -0.6211  0.3369 -0.3636
  342MOL0     C46071   4.708   4.910   6.000  0.1172 -0.4614  0.5237
  342MOL0     C46072   4.835   4.864   5.932  0.2467 -0.0935  0.1160
  342MOL0     C46073   4.958   4.928   5.999  0.1243 -0.1914  0.3965
  342MOL0     C46074   5.092   4.867   5.956  0.0767 -0.4821 -0.3316
  342MOL0     C46075   5.204   4.917   6.043 -0.5913 -0.5474 -0.8736
  342MOL0     C46076   5.345   4.871   5.994 -0.1053 -0.2137  0.1863
  342MOL0     C46077   5.450   4.916   6.097  1.2100 -0.5732  0.9915
  342MOL0     C46078   5.585   4.867   6.054  0.2862 -0.3515  0.4163
  342MOL0    Cl46079   5.635   4.956   5.905  0.1381  0.3542  0.3400
  342MOL0     C46080   4.395   4.737   5.959 -0.4177  0.8518 -0.8773
  342MOL0     C46081   4.253   4.753   5.950  0.2670  0.4295 -0.4095
  342MOL0     O46082   4.048   4.935   5.804 -0.1624 -0.2110 -0.3636
  342MOL0     C46083   3.792   4.978   6.011  0.7324 -0.1672 -0.1478
  342MOL0     C46084   3.653   5.002   6.004 -0.4491  0.5578  0.0116
  342MOL0     N46085   3.353   5.462   6.144  0.5702  0.2398 -0.2948
  342MOL0     N46086   3.270   5.510   6.240 -0.2008  0.0601  0.0752
  342MOL0     C46087   2.016   5.354   6.545  0.5855 -0.2774  0.1639
  342MOL0     C46088   1.890   5.306   6.604 -0.0197 -0.0776  0.1221
  342MOL0     C46089   1.501   5.092   6.660 -0.8618 -0.0783  0.1715
  342MOL0     C46090   1.429   5.207   6.685 -0.0841 -0.7755 -0.0432
  342MOL0     C46091   1.295   5.198   6.731 -0.5278 -0.2160 -0.5970
  342MOL0     C46092   1.235   5.074   6.737 -0.1535  0.0684 -0.7575
  342MOL0     O46093   1.102   5.044   6.774 -0.1452 -0.0312 -0.0572
  342MOL0     C46094   1.031   5.133   6.857  0.4855 -1.0022 -0.3232
  342MOL0     C46095   1.089   5.131   6.999 -0.8663  0.1202 -0.6812
  342MOL0     C46096   1.001   5.208   7.096 -0.1180  0.8778 -0.5220
  342MOL0     C46097   1.051   5.201   7.239  0.1977  0.3415 -0.3318
  342MOL0     C46098   1.144   5.307   7.272  0.1641 -0.9614  0.2545
  342MOL0     C46099   1.220   5.400   7.295  0.5428 -0.1460 -0.6240
  342MOL0     C46100   1.307   4.965   6.707 -0.1520 -0.1170  0.3651
  342MOL0     C46101   1.443   4.966   6.665  0.7375  0.5675  0.1616
  342MOL0     C46102   1.513   4.830   6.633  0.8533  0.3548  0.2941
  342MOL0     H46103   1.694   5.328   6.329 -0.4363  0.8798  1.2631
  342MOL0     H46104   1.901   5.418   6.231 -3.8988 -1.6007 -0.3942
  342MOL0     H46105   2.165   5.628   6.273  0.6664 -1.0909 -0.1515
  342MOL0     H46106   2.115   5.640   6.435  0.1069  1.9866 -2.8456
  342MOL0     H46107   2.313   5.531   6.523 -0.9479 -0.0864  0.4163
  342MOL0     H46108   2.341   5.689   6.463  0.9874 -0.0777 -1.2296
  342MOL0     H46109   2.393   5.567   6.233  1.0212  1.7783 -0.3795
  342MOL0     H46110   2.428   5.430   6.338 -3.7950  0.5573 -1.4113
  342MOL0     H46111   2.545   5.706   6.331 -0.6019  0.3925 -0.4421
  342MOL0     H46112   2.574   5.593   6.470 -1.0597  1.2153 -0.7642
  342MOL0     H46113   2.658   5.423   6.311  1.5600 -0.4703 -2.1486
  342MOL0     H46114   2.640   5.538   6.177  1.4471  1.9267 -0.9057
  342MOL0     H46115   2.782   5.699   6.274 -0.6462  0.5452  1.7786
  342MOL0     H46116   2.821   5.589   6.415  2.7443 -2.0087 -0.1709
  342MOL0     H46117   2.870   5.530   6.113  0.9763 -5.5331 -1.2117
  342MOL0     H46118   2.909   5.434   6.261 -1.5881  0.1003  2.5345
  342MOL0     H46119   3.038   5.719   6.223  3.1419  0.0599  1.0462
  342MOL0     H46120   3.050   5.601   6.350 -2.9623  0.9755 -0.0614
  342MOL0     H46121   3.086   5.534   5.972 -0.1484 -1.7141 -0.6105
  342MOL0     H46122   3.287   5.458   5.809 -2.7520  1.6607  1.3611
  342MOL0     H46123   3.451   5.430   5.886 -0.6223 -2.0976 -2.4984
  342MOL0     H46124   3.214   5.244   5.883 -0.3119  1.9096  3.0115
  342MOL0     H46125   3.364   5.217   5.789 -1.2462 -1.4136 -0.7694
  342MOL0     H46126   3.309   5.213   6.084 -0.6821  0.0889 -0.9044
  342MOL0     H46127   3.473   5.222   6.017  0.4478 -1.7466 -0.6695
  342MOL0     H46128   3.271   5.001   5.945 -0.0367 -1.4211  1.3565
  342MOL0     H46129   3.386   4.965   6.068  2.6005  0.2054 -0.7063
  342MOL0     H46130   3.602   4.886   5.681  3.1344  1.3085 -2.1365
  342MOL0     H46131   3.841   4.821   5.719  0.0954 -1.5984  0.6412
  342MOL0     H46132   4.227   5.030   6.141 -2.1685 -1.2522 -0.4850
  342MOL0     H46133   4.472   5.020   6.123 -1.7412 -0.2821  2.1435
  342MOL0     H46134   4.671   4.988   5.933 -1.4853 -1.2784  0.4125
  342MOL0     H46135   4.729   4.958   6.096  1.8510  1.7443 -0.8630
  342MOL0     H46136   4.848   4.757   5.947  1.4609  0.0683  0.3622
  342MOL0     H46137   4.831   4.885   5.825  2.4409 -1.6197 -0.3324
  342MOL0     H46138   4.977   5.031   5.966 -1.0266 -0.5906 -1.7033
  342MOL0     H46139   4.955   4.925   6.109  1.4597 -1.2512  0.4335
  342MOL0     H46140   5.121   4.895   5.854  3.6329 -1.8677  0.1267
  342MOL0     H46141   5.082   4.758   5.954  1.0179 -0.5795 -1.6587
  342MOL0     H46142   5.193   4.874   6.143 -0.4555 -1.3049 -1.1712
  342MOL0     H46143   5.215   5.025   6.043 -1.6170 -0.4301  0.4567
  342MOL0     H46144   5.343   4.761   6.001  0.1892 -0.1422  4.4998
  342MOL0     H46145   5.359   4.911   5.894  2.4033 -1.0007  0.1357
  342MOL0     H46146   5.423   4.879   6.196  2.3860  0.3741  1.6948
  342MOL0     H46147   5.460   5.024   6.110 -2.6680 -0.3470  3.9166
  342MOL0     H46148   5.662   4.874   6.133  1.2747  0.1222 -0.5598
  342MOL0     H46149   5.569   4.762   6.028  3.6409 -1.3945  1.8794
  342MOL0     H46150   4.442   4.648   5.918  0.4145  0.8903 -0.0459
  342MOL0     H46151   4.188   4.690   5.891 -0.5050  0.5570  0.2846
  342MOL0     H46152   3.846   5.009   6.100 -1.8662  1.3496  1.0099
  342MOL0     H46153   3.604   5.031   6.096  1.5254 -0.0882  1.3457
  342MOL0     H46154   2.106   5.369   6.603 -0.1420  1.6357  0.8683
  342MOL0     H46155   1.868   5.299   6.710  2.2538  0.3196  0.6753
  342MOL0     H46156   1.466   5.309   6.688  0.6941 -1.0574  0.1164
  342MOL0     H46157   1.238   5.284   6.764 -4.6461 -2.8844 -0.1028
  342MOL0     H46158   0.926   5.103   6.851  0.1715  0.2472 -1.4973
  342MOL0     H46159   1.035   5.237   6.825 -3.2549 -1.0286 -1.3777
  342MOL0     H46160   1.188   5.178   6.997 -0.3478 -0.9372 -0.7180
  342MOL0     H46161   1.099   5.027   7.034  0.5750  0.4512 -0.0246
  342MOL0     H46162   0.904   5.158   7.104  0.2079  0.3635  0.3627
  342MOL0     H46163   0.973   5.311   7.070 -0.1048  1.3203  1.1326
  342MOL0     H46164   0.968   5.197   7.310  3.1254  1.9445  3.5653
  342MOL0     H46165   1.103   5.106   7.250 -3.3761 -1.4886  3.6265
  342MOL0     H46166   1.293   5.477   7.313  0.3327 -0.2981  1.0707
  342MOL0     H46167   1.255   4.873   6.731 -0.4487 -0.1338 -0.3128
  342MOL0     H46168   1.457   4.736   6.642  0.4351  0.6586  0.9788
  342MOL0     H46169   1.540   4.837   6.527  1.0522  1.0282  0.3871
  342MOL0     H46170   1.603   4.815   6.693  0.0577  0.1766  1.4798
  343MOL0     O46171   0.631   1.043   2.892 -0.6160 -0.4649  0.3069
  343MOL0     C46172   0.628   1.163   2.883 -0.1839  0.7926  0.3802
  343MOL0     O46173   0.733   1.250   2.869 -0.7264  0.1525 -0.2073
  343MOL0     C46174   0.859   1.193   2.842  0.3416  0.0634  1.0043
  343MOL0     C46175   0.974   1.238   2.899  0.7441  0.3931 -0.3257
  343MOL0     C46176   1.097   1.187   2.867  0.2825  0.2421 -0.3653
  343MOL0     C46177   1.121   1.103   2.759  0.8584  0.4368 -0.0907
  343MOL0     O46178   1.245   1.065   2.713  0.2542 -0.2370 -0.7718
  343MOL0     C46179   1.352   1.073   2.808  0.1646  0.1569  0.2421
  343MOL0     C46180   1.434   1.198   2.784 -0.5640  0.0222 -0.4937
  343MOL0     C46181   1.557   1.213   2.887 -0.1683  0.0432 -0.2213
  343MOL0     C46182   1.504   1.263   3.023 -0.3618  0.3512  0.3435
  343MOL0     C46183   1.620   1.317   3.104 -0.0279 -0.2732 -0.8772
  343MOL0     C46184   1.759   1.251   3.081  0.4319  0.5098 -0.1676
  343MOL0     C46185   1.859   1.286   3.187 -0.1584 -0.7464 -0.3194
  343MOL0     C46186   1.899   1.430   3.192 -0.0587 -0.9660 -0.0209
  343MOL0     N46187   1.977   1.464   3.067 -0.1806 -0.9873  0.0243
  343MOL0     C46188   1.922   1.505   2.955  0.2121 -0.0921  0.2974
  343MOL0     C46189   2.021   1.549   2.876  0.1414 -0.5948  0.0680
  343MOL0     C46190   2.002   1.616   2.742  0.1947 -0.1837 -0.8929
  343MOL0     C46191   2.030   1.521   2.625 -0.5880  0.3404  0.2410
  343MOL0     C46192   2.178   1.500   2.607 -0.0582 -0.4787  0.3958
  343MOL0     C46193   2.203   1.444   2.464  0.3602  0.3229 -0.0082
  343MOL0     O46194   2.340   1.420   2.459  0.2037 -0.1026  0.6044
  343MOL0     C46195   2.410   1.444   2.344  0.5131 -0.9340  0.3392
  343MOL0     C46196   2.544   1.450   2.359  0.2633 -0.3530  0.4814
  343MOL0     C46197   2.639   1.452   2.247  0.6013 -0.5327 -0.2768
  343MOL0     C46198   2.593   1.461   2.118 -0.0888  0.4247  0.7333
  343MOL0     C46199   2.671   1.485   1.994  0.0189 -0.2642  0.9082
  343MOL0     O46200   2.810   1.473   2.005  0.0743  0.1742 -0.3404
  343MOL0     C46201   2.884   1.471   1.891 -0.0864  0.1115 -0.1702
  343MOL0     C46202   2.926   1.352   1.844 -0.0645  0.3582 -0.6411
  343MOL0     C46203   3.019   1.351   1.734  0.2578  0.0207  0.0065
  343MOL0     C46204   3.061   1.460   1.669 -0.8431 -1.6483 -0.0929
  343MOL0     O46205   3.138   1.470   1.554  0.3006 -0.3964  0.1018
  343MOL0     C46206   3.257   1.558   1.553  0.8544 -0.2065  0.5966
  343MOL0     C46207   3.371   1.483   1.490 -0.3692 -0.1177 -0.2423
  343MOL0     C46208   3.360   1.436   1.345  1.1343 -0.5770  0.6217
  343MOL0     C46209   3.373   1.551   1.247  0.5011  0.2206 -0.4081
  343MOL0     C46210   3.514   1.598   1.227  0.4227  0.0381 -0.6355
  343MOL0     C46211   3.518   1.735   1.161 -0.5420  0.5471 -0.3574
  343MOL0     C46212   3.660   1.799   1.154 -0.3220  0.0685  0.1586
  343MOL0     C46213   3.654   1.950   1.149 -0.2105  0.0010 -0.6323
  343MOL0    Cl46214   3.634   2.007   0.976 -0.4037  0.4308  0.0268
  343MOL0     C46215   3.012   1.584   1.721  0.1805  0.5473  0.1029
  343MOL0     C46216   2.917   1.594   1.822 -0.1761  0.5154  0.5611
  343MOL0     O46217   2.611   1.503   1.890 -0.3406  0.5155  0.3016
  343MOL0     C46218   2.447   1.447   2.106 -0.0037 -0.4912  0.7243
  343MOL0     C46219   2.361   1.433   2.218 -0.4240  0.6266  0.0438
  343MOL0     N46220   2.136   1.524   2.945  0.3727  0.1889 -0.3235
  343MOL0     N46221   2.110   1.475   3.057 -0.1218  0.2722 -0.2214
  343MOL0     C46222   1.002   1.058   2.695 -0.0142 -0.2859  0.2076
  343MOL0     C46223   0.874   1.096   2.740 -0.4072 -0.2318 -0.5148
  343MOL0     C46224   0.500   1.226   2.858 -0.4250 -0.5922 -0.3023
  343MOL0     C46225   0.405   1.165   2.776  0.6088  0.5136  1.0034
  343MOL0     C46226   0.291   1.225   2.733  0.6533 -0.1514  0.3768
  343MOL0     C46227   0.257   1.356   2.774  0.2991  1.1541 -0.0527
  343MOL0     O46228   0.140   1.417   2.726 -0.1341 -0.4259 -0.2443
  343MOL0     C46229   0.155   1.553   2.671  0.1130 -1.1134 -0.3164
  343MOL0     C46230   0.044   1.567   2.566 -0.7569 -1.3686  1.0449
  343MOL0     C46231   0.061   1.694   2.477  0.8005 -0.3052  0.4394
  343MOL0     C46232  -0.074   1.725   2.407 -0.5821  0.6239 -0.1658
  343MOL0     C46233  -0.074   1.867   2.370  0.8178 -0.1946  0.3315
  343MOL0     C46234  -0.095   1.989   2.347 -0.0365 -0.0094 -0.6796
  343MOL0     C46235   0.350   1.425   2.845  0.2581  0.1593 -1.4224
  343MOL0     C46236   0.471   1.359   2.894 -0.5628 -0.6770  0.5252
  343MOL0     C46237   0.559   1.455   2.972  0.3560  0.3564 -0.2007
  343MOL0     H46238   0.962   1.315   2.974 -2.3031  0.7894 -1.0915
  343MOL0     H46239   1.181   1.225   2.924  0.2151 -1.7264  1.1306
  343MOL0     H46240   1.326   1.055   2.912  5.5206  1.3889  2.0930
  343MOL0     H46241   1.418   0.988   2.788  1.1073  0.3365  2.3975
  343MOL0     H46242   1.372   1.287   2.801 -1.6293 -0.7951 -0.0079
  343MOL0     H46243   1.480   1.204   2.684 -2.6788 -3.2054 -1.8239
  343MOL0     H46244   1.622   1.291   2.845  0.9485 -1.1821 -0.8593
  343MOL0     H46245   1.609   1.118   2.895  1.3293  0.7681 -0.9094
  343MOL0     H46246   1.432   1.343   3.006  1.3721  1.8909 -0.1003
  343MOL0     H46247   1.454   1.191   3.088  1.7299 -0.9691  0.5622
  343MOL0     H46248   1.627   1.426   3.096  2.1552 -0.4707 -2.3743
  343MOL0     H46249   1.591   1.307   3.209 -2.3645  3.5717 -0.9375
  343MOL0     H46250   1.742   1.144   3.096 -2.6632  1.1245  1.7365
  343MOL0     H46251   1.801   1.271   2.982  0.2860  0.1638 -0.2978
  343MOL0     H46252   1.949   1.225   3.179  1.3280  1.1877  0.9547
  343MOL0     H46253   1.806   1.272   3.282  1.1676 -1.3915  0.3501
  343MOL0     H46254   1.812   1.495   3.208 -0.1842 -0.9064 -0.8837
  343MOL0     H46255   1.955   1.448   3.285 -2.9790  0.3355  1.6445
  343MOL0     H46256   1.818   1.506   2.925  0.3978 -0.8299 -0.4347
  343MOL0     H46257   1.898   1.650   2.731 -0.4207 -1.5164  0.4123
  343MOL0     H46258   2.075   1.696   2.754  0.6201 -0.8990  1.9383
  343MOL0     H46259   1.974   1.428   2.632  1.4001 -0.8510  1.2395
  343MOL0     H46260   2.005   1.559   2.526  2.5929 -1.3449 -1.3402
  343MOL0     H46261   2.209   1.424   2.680 -2.6818 -2.3560 -0.2901
  343MOL0     H46262   2.237   1.590   2.625  0.0829 -0.6446  0.7899
  343MOL0     H46263   2.174   1.518   2.388  1.9360  0.6807 -0.3057
  343MOL0     H46264   2.135   1.360   2.446 -2.1596  1.6671  2.4492
  343MOL0     H46265   2.576   1.447   2.462 -0.8299 -1.5438  0.8272
  343MOL0     H46266   2.744   1.467   2.272 -0.2161  4.0606  1.3708
  343MOL0     H46267   2.916   1.255   1.892  0.4645  0.4530 -0.3355
  343MOL0     H46268   3.059   1.251   1.716 -0.3759 -0.2186 -0.0895
  343MOL0     H46269   3.221   1.641   1.491  1.1425 -1.0513 -0.7270
  343MOL0     H46270   3.273   1.600   1.653 -1.2817  0.4887  0.7044
  343MOL0     H46271   3.459   1.546   1.505  0.9233 -2.1101  0.9548
  343MOL0     H46272   3.394   1.406   1.564  1.8435  1.2501  0.5902
  343MOL0     H46273   3.441   1.364   1.332  0.5918 -1.2929  1.0905
  343MOL0     H46274   3.264   1.385   1.331 -0.4194  2.6419 -1.5644
  343MOL0     H46275   3.301   1.629   1.275 -1.9624 -1.9605 -0.2275
  343MOL0     H46276   3.334   1.502   1.157 -1.7947 -0.1445  0.7006
  343MOL0     H46277   3.571   1.527   1.166 -0.4775 -1.9284  0.7261
  343MOL0     H46278   3.561   1.610   1.325  0.2856  0.7826 -0.6512
  343MOL0     H46279   3.479   1.741   1.059  1.1399  1.1106 -1.0057
  343MOL0     H46280   3.461   1.803   1.225  0.1720 -1.0973  2.1572
  343MOL0     H46281   3.712   1.758   1.067 -3.5347  1.0087 -2.4281
  343MOL0     H46282   3.712   1.775   1.246  1.1032 -0.8577 -0.8488
  343MOL0     H46283   3.570   1.992   1.206  1.5868  0.3366  1.9629
  343MOL0     H46284   3.752   1.990   1.176 -0.6708 -0.7190  2.5338
  343MOL0     H46285   3.031   1.677   1.669 -2.0642  2.0425  1.7266
  343MOL0     H46286   2.876   1.691   1.850 -0.1829  1.6468 -2.8407
  343MOL0     H46287   2.407   1.452   2.005 -1.7154  4.6597  1.4017
  343MOL0     H46288   2.254   1.425   2.200 -0.3334 -0.9788  0.0908
  343MOL0     H46289   1.010   1.001   2.603  1.6510  0.0072  0.1382
  343MOL0     H46290   0.778   1.071   2.694 -0.4959 -0.5351 -0.1705
  343MOL0     H46291   0.427   1.070   2.731  1.9715  1.2381  0.0868
  343MOL0     H46292   0.214   1.182   2.670 -1.1700  2.4698  0.6179
  343MOL0     H46293   0.257   1.566   2.632  0.6445  0.3450  1.3629
  343MOL0     H46294   0.153   1.635   2.744  2.4047  0.6172 -2.0179
  343MOL0     H46295  -0.050   1.573   2.621 -1.0714  0.9726  0.3278
  343MOL0     H46296   0.050   1.482   2.497  0.3817 -0.0634 -0.5321
  343MOL0     H46297   0.145   1.672   2.411 -1.0285  0.1081 -2.1750
  343MOL0     H46298   0.100   1.775   2.540  0.0021  0.1731  0.3302
  343MOL0     H46299  -0.070   1.665   2.316  3.4532 -3.2970  2.1486
  343MOL0     H46300  -0.159   1.709   2.474  0.1165  0.6357  0.7441
  343MOL0     H46301  -0.131   2.083   2.311  0.5417  0.6577  0.4446
  343MOL0     H46302   0.335   1.529   2.870 -2.1593 -0.5305  0.2673
  343MOL0     H46303   0.501   1.517   3.042  0.6139 -1.6571  1.9533
  343MOL0     H46304   0.624   1.401   3.042 -3.0704 -2.5465  1.0882
  343MOL0     H46305   0.608   1.529   2.908 -0.4018  0.0074 -1.1960
  344MOL0     O46306   5.601   5.511   7.814 -0.1868 -0.0046  0.1042
  344MOL0     C46307   5.523   5.430   7.757  0.2629  0.4954  0.0484
  344MOL0     O46308   5.559   5.327   7.682 -0.1444  0.3389  0.3201
  344MOL0     C46309   5.692   5.288   7.685 -0.5049  0.1482 -0.5857
  344MOL0     C46310   5.754   5.260   7.801  0.3655  0.5431  0.0516
  344MOL0     C46311   5.887   5.225   7.804 -0.4893 -0.2840 -0.6119
  344MOL0     C46312   5.970   5.234   7.692  0.4014 -0.1024  0.2997
  344MOL0     O46313   6.109   5.208   7.705  0.4360 -0.6014 -0.6758
  344MOL0     C46314   6.196   5.205   7.585  0.1787 -0.6812 -0.7841
  344MOL0     C46315   6.217   5.343   7.528  0.3501  0.5765  0.2604
  344MOL0     C46316   6.336   5.422   7.584  0.2668  0.2609 -0.5383
  344MOL0     C46317   6.369   5.552   7.500 -0.4739 -0.6996  0.0269
  344MOL0     C46318   6.403   5.528   7.352 -0.2664  0.0572  0.7555
  344MOL0     C46319   6.520   5.433   7.327 -0.7816 -0.1895 -0.0197
  344MOL0     C46320   6.532   5.418   7.176  0.2239 -0.3206  0.5142
  344MOL0     C46321   6.638   5.314   7.130 -0.2091  0.1544 -0.5677
  344MOL0     N46322   6.773   5.368   7.170  0.0120 -0.2133  0.1050
  344MOL0     C46323   6.839   5.464   7.108 -0.1884  0.2044  0.5731
  344MOL0     C46324   6.927   5.498   7.202  0.3498 -0.6124 -0.1006
  344MOL0     C46325   7.027   5.604   7.152  0.3737 -0.1960 -0.0170
  344MOL0     C46326   7.166   5.578   7.198 -0.4389  0.1356 -0.7792
  344MOL0     C46327   7.259   5.703   7.187  0.1154 -0.5113  0.0998
  344MOL0     C46328   7.398   5.705   7.250  0.6543  0.5534 -0.4540
  344MOL0     O46329   7.466   5.581   7.215 -0.1893 -0.0748 -1.2754
  344MOL0     C46330   7.603   5.572   7.242  0.2373 -0.5960 -0.3092
  344MOL0     C46331   7.668   5.453   7.223 -0.1892  0.4846  0.4356
  344MOL0     C46332   7.809   5.439   7.258 -0.0125  0.0798 -0.6112
  344MOL0     C46333   7.878   5.546   7.318  0.7304  0.7131 -0.7774
  344MOL0     C46334   8.022   5.525   7.359  0.0250  0.1588  0.2478
  344MOL0     O46335   8.072   5.402   7.396  0.8533  0.2242 -0.3211
  344MOL0     C46336   8.197   5.391   7.454  0.4907  0.4460 -0.0851
  344MOL0     C46337   8.208   5.289   7.545 -0.2005  0.2100  0.3125
  344MOL0     C46338   8.329   5.261   7.603 -0.3092 -0.3922  0.2307
  344MOL0     C46339   8.445   5.322   7.557 -0.9866  0.0064 -0.2339
  344MOL0     O46340   8.564   5.291   7.619  0.0954  0.4882  0.1295
  344MOL0     C46341   8.677   5.373   7.585  0.7842 -0.1390  0.1125
  344MOL0     C46342   8.796   5.281   7.610 -0.1286 -0.6118  0.7009
  344MOL0     C46343   8.918   5.355   7.578 -0.1213 -0.6271 -0.0825
  344MOL0     C46344   9.035   5.330   7.675 -0.0405 -0.3678 -0.5243
  344MOL0     C46345   9.154   5.398   7.633 -0.2379 -0.7388 -0.5005
  344MOL0     C46346   9.280   5.329   7.695 -0.2377 -0.2695 -1.0624
  344MOL0     C46347   9.416   5.392   7.667  0.2206  0.3243  1.0751
  344MOL0     C46348   9.436   5.526   7.715 -0.3372  0.1689 -0.2744
  344MOL0    Cl46349   9.614   5.571   7.703  0.2239 -0.0121 -0.3229
  344MOL0     C46350   8.434   5.419   7.452  0.0030 -0.1573 -0.3703
  344MOL0     C46351   8.309   5.450   7.398  0.3752 -0.2152  1.0664
  344MOL0     O46352   8.088   5.631   7.373 -0.3213  0.1019 -0.2422
  344MOL0     C46353   7.817   5.671   7.344  0.3422  0.9304  0.4786
  344MOL0     C46354   7.682   5.677   7.308 -0.1608 -0.2652 -0.0756
  344MOL0     N46355   6.919   5.422   7.314  0.3757  0.1639  0.3387
  344MOL0     N46356   6.816   5.342   7.295  0.5170 -1.1496  0.1173
  344MOL0     C46357   5.905   5.252   7.569 -0.1348  0.5449  0.2482
  344MOL0     C46358   5.769   5.282   7.565  0.6519  0.2795 -0.3075
  344MOL0     C46359   5.380   5.460   7.762  0.6064  0.1079  0.1710
  344MOL0     C46360   5.322   5.528   7.875 -0.1577  0.4834  0.0262
  344MOL0     C46361   5.186   5.563   7.880  0.3305 -0.8216  0.5684
  344MOL0     C46362   5.102   5.537   7.776 -1.1646  0.0413  0.0685
  344MOL0     O46363   4.974   5.577   7.786  0.9215 -0.0257 -0.1702
  344MOL0     C46364   4.882   5.573   7.676 -0.2055 -0.2426 -0.4344
  344MOL0     C46365   4.915   5.667   7.555  0.5736 -0.3200  0.9889
  344MOL0     C46366   4.796   5.668   7.455  0.5906  0.3295  0.2702
  344MOL0     C46367   4.827   5.682   7.305 -0.2784 -0.5314  0.2769
  344MOL0     C46368   4.700   5.688   7.224 -0.6534 -0.1785  0.5240
  344MOL0     C46369   4.601   5.679   7.161  0.3493  0.6310  0.8649
  344MOL0     C46370   5.157   5.472   7.660 -1.0750  0.1309 -0.1957
  344MOL0     C46371   5.296   5.449   7.647 -0.6651  0.5115  0.0231
  344MOL0     C46372   5.329   5.386   7.516  0.1759  0.7935  0.1513
  344MOL0     H46373   5.691   5.253   7.889 -1.6015  2.1817 -1.1330
  344MOL0     H46374   5.923   5.185   7.898  0.8838 -0.4655 -1.1819
  344MOL0     H46375   6.291   5.163   7.619 -0.6839 -1.3298  0.9501
  344MOL0     H46376   6.158   5.149   7.498  0.8313 -0.1005 -1.4547
  344MOL0     H46377   6.138   5.413   7.557  2.1033  3.2570 -1.0345
  344MOL0     H46378   6.232   5.340   7.419  3.1736  2.4872  0.4822
  344MOL0     H46379   6.429   5.364   7.590  0.4340  0.6933  3.2519
  344MOL0     H46380   6.317   5.462   7.684 -0.1762  1.0785 -0.9411
  344MOL0     H46381   6.290   5.627   7.514 -2.1176 -2.2306 -0.5896
  344MOL0     H46382   6.448   5.606   7.553 -1.0180 -1.9600  2.2337
  344MOL0     H46383   6.316   5.494   7.296  2.2028 -0.4737 -3.0858
  344MOL0     H46384   6.430   5.620   7.300 -2.8085  0.7638  0.5624
  344MOL0     H46385   6.613   5.472   7.369 -1.4074  0.4234  0.8435
  344MOL0     H46386   6.511   5.336   7.377 -0.1581  0.2322  0.9381
  344MOL0     H46387   6.546   5.516   7.129 -2.3279  0.2890  0.8269
  344MOL0     H46388   6.437   5.383   7.134 -0.6840  2.9198 -0.4198
  344MOL0     H46389   6.607   5.218   7.172 -1.1129  1.2834  1.4933
  344MOL0     H46390   6.617   5.301   7.023 -2.6101 -1.3336  0.0141
  344MOL0     H46391   6.815   5.504   7.011  0.4982  1.2144  0.8034
  344MOL0     H46392   7.032   5.613   7.043 -2.9593 -1.1393 -0.3532
  344MOL0     H46393   7.005   5.703   7.193  2.7025 -0.1694  1.3071
  344MOL0     H46394   7.153   5.547   7.302 -1.4171 -1.0364 -1.2338
  344MOL0     H46395   7.211   5.497   7.138  1.2084  1.4123 -1.3543
  344MOL0     H46396   7.201   5.786   7.229  1.2580  0.2438  0.2486
  344MOL0     H46397   7.268   5.735   7.083  0.5724 -2.6508 -0.5585
  344MOL0     H46398   7.390   5.719   7.358  0.8667  2.8285 -0.6750
  344MOL0     H46399   7.453   5.788   7.203  0.8085 -1.2246 -3.6958
  344MOL0     H46400   7.613   5.375   7.172  0.8287 -0.9892  1.5186
  344MOL0     H46401   7.864   5.347   7.242  1.1543  1.1196 -3.1604
  344MOL0     H46402   8.118   5.238   7.577 -0.3918  0.0658 -0.4305
  344MOL0     H46403   8.315   5.184   7.679 -2.6968 -0.1600  0.1217
  344MOL0     H46404   8.684   5.393   7.477 -1.8598 -2.1873 -0.5364
  344MOL0     H46405   8.677   5.460   7.650 -0.7134  1.9743 -2.5045
  344MOL0     H46406   8.792   5.233   7.708 -0.8976  0.4838  1.2268
  344MOL0     H46407   8.795   5.203   7.532 -1.3796  1.9548 -2.0578
  344MOL0     H46408   8.952   5.324   7.479 -2.1449 -1.0755 -0.6818
  344MOL0     H46409   8.898   5.463   7.579  0.9597 -0.3236  3.4648
  344MOL0     H46410   9.059   5.223   7.679  0.3378 -0.2533  0.4798
  344MOL0     H46411   8.999   5.365   7.772  1.1649  1.4288 -0.6757
  344MOL0     H46412   9.143   5.503   7.661 -1.6121 -1.7589  3.3561
  344MOL0     H46413   9.159   5.379   7.525  1.1007 -1.5202 -0.3307
  344MOL0     H46414   9.273   5.308   7.802  1.8873 -0.3648 -0.8971
  344MOL0     H46415   9.288   5.229   7.653 -0.6006  0.1786 -2.2306
  344MOL0     H46416   9.432   5.386   7.559  0.3913 -1.3800  1.1654
  344MOL0     H46417   9.489   5.322   7.709  0.3803  0.5188  1.1186
  344MOL0     H46418   9.379   5.600   7.659 -0.7610  0.0387 -0.0202
  344MOL0     H46419   9.412   5.527   7.822 -0.7477 -0.2688 -0.3600
  344MOL0     H46420   8.522   5.468   7.412  0.6612 -1.7070 -0.9153
  344MOL0     H46421   8.297   5.515   7.312  1.3163 -1.1858  0.1790
  344MOL0     H46422   7.858   5.756   7.397  0.8341  0.8610  0.2146
  344MOL0     H46423   7.631   5.771   7.328 -3.3065 -1.9173  0.4537
  344MOL0     H46424   5.960   5.238   7.477  1.0239 -1.0043  1.1219
  344MOL0     H46425   5.719   5.305   7.471 -0.6254 -1.6702 -0.1825
  344MOL0     H46426   5.379   5.551   7.964 -1.4088 -2.0441  1.6176
  344MOL0     H46427   5.133   5.617   7.958  0.6307  0.1654  0.1157
  344MOL0     H46428   4.784   5.605   7.714  0.6055  1.1851  0.5464
  344MOL0     H46429   4.876   5.467   7.647 -0.4343 -0.2819 -0.2502
  344MOL0     H46430   5.006   5.631   7.506 -0.6906 -2.7367  0.2360
  344MOL0     H46431   4.942   5.772   7.573  3.0102 -1.0249  1.9546
  344MOL0     H46432   4.726   5.743   7.493 -0.5577  0.0260 -1.1361
  344MOL0     H46433   4.759   5.566   7.462  1.7598 -0.0904  0.4703
  344MOL0     H46434   4.877   5.776   7.280 -0.9577 -0.5325 -1.1494
  344MOL0     H46435   4.891   5.603   7.262 -0.7000 -2.0017  2.1720
  344MOL0     H46436   4.509   5.663   7.108  0.0342 -2.0118  1.9967
  344MOL0     H46437   5.090   5.449   7.577  0.1547  0.7046 -1.4009
  344MOL0     H46438   5.433   5.397   7.484  0.1188  2.5862  0.4709
  344MOL0     H46439   5.314   5.279   7.533  0.4707  0.9286  1.3879
  344MOL0     H46440   5.261   5.420   7.438  0.9262  1.9398 -0.0400
  345MOL0     O46441   9.441   2.494  10.969 -0.0500 -0.2643  0.3076
  345MOL0     C46442   9.425   2.520  10.852 -0.1721  0.3647 -1.0512
  345MOL0     O46443   9.523   2.525  10.758 -0.2234 -0.4497  0.1241
  345MOL0     C46444   9.651   2.499  10.787  0.1884  0.7122 -0.6244
  345MOL0     C46445   9.743   2.586  10.732 -0.8508 -0.3971 -0.5566
  345MOL0     C46446   9.887   2.574  10.755  0.5618 -0.1016 -1.3921
  345MOL0     C46447   9.930   2.477  10.843  1.0097  0.7650  0.5104
  345MOL0     O46448  10.057   2.481  10.892  0.6291  1.0197 -0.1551
  345MOL0     C46449  10.166   2.562  10.836 -0.8403  0.1773  0.2408
  345MOL0     C46450  10.290   2.539  10.919 -0.1052 -0.4570  0.4961
  345MOL0     C46451  10.331   2.396  10.931  0.4377 -0.2031  0.0976
  345MOL0     C46452  10.479   2.373  10.962 -1.0139 -1.0671 -0.5467
  345MOL0     C46453  10.524   2.420  11.102  1.0190 -0.6634 -0.3963
  345MOL0     C46454  10.674   2.417  11.122  0.0399  0.6082 -0.3487
  345MOL0     C46455  10.713   2.461  11.267  0.0074  0.1839  0.5570
  345MOL0     C46456  10.854   2.539  11.269  0.1472  0.2592  0.5111
  345MOL0     N46457  10.887   2.625  11.155  0.2481  0.8073 -0.7704
  345MOL0     C46458  10.975   2.577  11.055  0.7755 -0.2693  0.0749
  345MOL0     C46459  10.993   2.690  10.985 -0.1475  0.1173  0.6683
  345MOL0     C46460  11.104   2.707  10.881 -0.3532 -0.1850  0.3607
  345MOL0     C46461  11.235   2.766  10.928 -1.4348  0.3201  0.1385
  345MOL0     C46462  11.343   2.714  10.832  0.1634  0.5226  0.3366
  345MOL0     C46463  11.336   2.785  10.700  0.0906 -0.2262 -0.5635
  345MOL0     O46464  11.365   2.922  10.702 -0.2342  0.0586 -0.9171
  345MOL0     C46465  11.487   2.974  10.715  0.2421 -0.4969 -0.6889
  345MOL0     C46466  11.597   2.902  10.707  0.3100  0.3560 -0.4458
  345MOL0     C46467  11.725   2.961  10.713 -0.2141  0.4097  0.3094
  345MOL0     C46468  11.745   3.099  10.735  1.0457 -0.2664 -0.4938
  345MOL0     C46469  11.877   3.171  10.733 -0.2597  0.0608  0.3645
  345MOL0     O46470  11.979   3.095  10.690 -0.2589  0.2352  0.5083
  345MOL0     C46471  12.111   3.137  10.691  0.0131  0.5949 -0.2581
  345MOL0     C46472  12.163   3.233  10.774  0.0105  0.0315  0.4139
  345MOL0     C46473  12.294   3.263  10.775  0.2689  0.1102 -0.6275
  345MOL0     C46474  12.387   3.205  10.687  0.8408 -0.7107  0.1475
  345MOL0     O46475  12.517   3.253  10.702  0.3173  1.0179  0.3276
  345MOL0     C46476  12.613   3.180  10.621  0.0071 -0.4126  0.3793
  345MOL0     C46477  12.750   3.183  10.677  0.7754 -0.4144 -0.3160
  345MOL0     C46478  12.858   3.119  10.602 -0.3419 -0.3333 -0.5222
  345MOL0     C46479  12.985   3.147  10.673  0.2401  0.0007  0.2428
  345MOL0     C46480  13.110   3.089  10.616 -0.4506  0.4471 -0.9428
  345MOL0     C46481  13.240   3.122  10.683  0.1668 -0.3243  0.0172
  345MOL0     C46482  13.355   3.033  10.627 -0.2925 -0.2042 -0.4723
  345MOL0     C46483  13.479   3.112  10.664 -1.0945 -0.2015 -0.6193
  345MOL0    Cl46484  13.625   3.028  10.624 -0.3856  0.0478  0.5851
  345MOL0     C46485  12.333   3.106  10.596 -0.2796 -0.9970 -0.5173
  345MOL0     C46486  12.196   3.070  10.602 -1.1009 -0.0434 -0.0011
  345MOL0     O46487  11.879   3.289  10.753 -0.6353 -1.1021  0.0393
  345MOL0     C46488  11.626   3.172  10.752  0.0395  0.2202  0.5359
  345MOL0     C46489  11.499   3.110  10.745 -1.5132 -0.3217  0.6783
  345MOL0     N46490  10.921   2.793  11.043  1.0222  0.0516  0.2571
  345MOL0     N46491  10.855   2.752  11.138 -0.2544  0.2322 -0.3809
  345MOL0     C46492   9.837   2.376  10.890  0.6513 -0.8775  0.5794
  345MOL0     C46493   9.703   2.391  10.859  0.1935  0.2841  0.5948
  345MOL0     C46494   9.296   2.557  10.805  0.0781 -0.8213  0.3697
  345MOL0     C46495   9.187   2.521  10.880  0.6177  0.3050  1.0232
  345MOL0     C46496   9.058   2.553  10.835  0.4057  0.9343  0.2607
  345MOL0     C46497   9.026   2.612  10.711 -0.7508  0.8316 -0.1046
  345MOL0     O46498   8.892   2.614  10.677 -0.3033  0.1554 -0.3798
  345MOL0     C46499   8.852   2.689  10.562 -0.5727 -0.3468  0.2135
  345MOL0     C46500   8.699   2.696  10.549  0.2635 -0.1212 -0.1816
  345MOL0     C46501   8.654   2.756  10.415  0.0670  0.9872 -0.5049
  345MOL0     C46502   8.654   2.655  10.301 -0.4528 -0.0018 -0.9633
  345MOL0     C46503   8.551   2.555  10.319  0.3022  0.3716  0.0065
  345MOL0     C46504   8.464   2.474  10.352  0.4175 -1.5198  0.0736
  345MOL0     C46505   9.141   2.647  10.637  0.3257 -0.5845 -0.2313
  345MOL0     C46506   9.269   2.618  10.674  0.1745  1.3354 -0.5475
  345MOL0     C46507   9.376   2.655  10.574  0.4303 -0.1547 -0.5872
  345MOL0     H46508   9.704   2.667  10.671  0.7470  0.6371 -0.2787
  345MOL0     H46509   9.938   2.656  10.705  1.7160 -0.3742 -0.7245
  345MOL0     H46510  10.179   2.532  10.732 -0.9914 -0.0556  0.2884
  345MOL0     H46511  10.139   2.668  10.829 -1.5553 -0.0684 -1.1751
  345MOL0     H46512  10.267   2.572  11.020 -0.8004 -0.9454  0.5055
  345MOL0     H46513  10.372   2.603  10.885 -1.5389  0.4234 -1.5928
  345MOL0     H46514  10.300   2.343  10.840 -3.7867  0.6568  0.8147
  345MOL0     H46515  10.282   2.333  11.007  4.0814 -2.4191  0.8350
  345MOL0     H46516  10.511   2.269  10.949  0.6725 -0.9032  1.6114
  345MOL0     H46517  10.546   2.429  10.896  0.8261  0.0201  2.0419
  345MOL0     H46518  10.488   2.522  11.123 -2.8409 -2.0916  0.7406
  345MOL0     H46519  10.480   2.350  11.173  0.8135 -0.8771 -0.7310
  345MOL0     H46520  10.717   2.317  11.105  3.9857  1.9401  0.6948
  345MOL0     H46521  10.718   2.486  11.049  2.7694 -1.3543 -0.7149
  345MOL0     H46522  10.711   2.381  11.341 -0.6279 -0.5707 -0.2556
  345MOL0     H46523  10.649   2.541  11.304  1.6443  3.2508 -2.6110
  345MOL0     H46524  10.850   2.599  11.360  0.3398 -0.1382  0.7844
  345MOL0     H46525  10.937   2.466  11.270 -0.8259 -0.8759  0.8330
  345MOL0     H46526  11.020   2.478  11.046  0.3874 -0.3391 -1.2303
  345MOL0     H46527  11.122   2.604  10.849 -4.4318 -1.3057  1.1370
  345MOL0     H46528  11.056   2.766  10.803 -1.4671  1.4053  2.1716
  345MOL0     H46529  11.237   2.874  10.943  2.8928  0.5862 -0.8910
  345MOL0     H46530  11.252   2.729  11.030  0.0953 -1.0592 -0.5708
  345MOL0     H46531  11.330   2.607  10.812 -0.8034  0.6641  0.1288
  345MOL0     H46532  11.444   2.722  10.874  0.4053  2.4414 -0.4946
  345MOL0     H46533  11.238   2.779  10.653  0.2219  2.1563 -1.2585
  345MOL0     H46534  11.408   2.729  10.640  2.6526  1.6460  0.5291
  345MOL0     H46535  11.609   2.795  10.695  1.5353  0.6297 -1.9882
  345MOL0     H46536  11.813   2.897  10.716  0.3675  1.2038  0.8766
  345MOL0     H46537  12.099   3.274  10.851  1.0541  2.3817  0.1149
  345MOL0     H46538  12.334   3.327  10.853 -0.9146  0.8714 -0.6228
  345MOL0     H46539  12.594   3.072  10.617 -0.4755 -0.3233 -3.0580
  345MOL0     H46540  12.607   3.228  10.523 -0.7143 -1.9086 -0.3389
  345MOL0     H46541  12.764   3.291  10.691  1.4437 -0.6866  1.3590
  345MOL0     H46542  12.745   3.148  10.780 -3.0589 -2.5830 -1.0546
  345MOL0     H46543  12.846   3.010  10.599  0.2226 -0.4357  0.5372
  345MOL0     H46544  12.863   3.160  10.500  0.1746 -3.1078 -1.6922
  345MOL0     H46545  12.976   3.106  10.774 -0.6229  2.6985  1.3368
  345MOL0     H46546  12.998   3.254  10.691 -1.8073  0.6133 -1.4832
  345MOL0     H46547  13.106   3.120  10.511 -0.1791  0.8226 -0.8432
  345MOL0     H46548  13.105   2.980  10.626 -0.8382  0.5096 -0.4516
  345MOL0     H46549  13.266   3.227  10.666 -2.1801 -0.0334 -2.6754
  345MOL0     H46550  13.228   3.103  10.790  1.1542 -1.8682 -0.1062
  345MOL0     H46551  13.350   3.010  10.520 -0.2570 -0.1796 -0.4796
  345MOL0     H46552  13.342   2.936  10.676  2.4606 -0.8197 -0.7826
  345MOL0     H46553  13.482   3.204  10.605 -0.3878 -0.9151 -1.7388
  345MOL0     H46554  13.469   3.139  10.769  0.2115  0.0656 -0.5517
  345MOL0     H46555  12.398   3.037  10.543 -0.3264 -2.2612  0.9929
  345MOL0     H46556  12.145   2.997  10.541 -1.2614 -1.7215  2.0283
  345MOL0     H46557  11.629   3.280  10.760 -2.0015  0.3882 -0.5505
  345MOL0     H46558  11.418   3.181  10.759 -1.2370 -0.5029  3.9615
  345MOL0     H46559   9.884   2.301  10.952  3.6971 -0.9666 -1.5819
  345MOL0     H46560   9.645   2.313  10.908  2.6441 -1.5799  0.7045
  345MOL0     H46561   9.208   2.471  10.974 -2.6506 -2.0141  0.6858
  345MOL0     H46562   8.967   2.513  10.879 -1.0695  1.9095 -1.7328
  345MOL0     H46563   8.890   2.650  10.467 -0.8387  4.1739 -1.9817
  345MOL0     H46564   8.877   2.794  10.575 -1.3772  0.4372 -3.4346
  345MOL0     H46565   8.656   2.756  10.630  0.3651  1.9862 -1.6105
  345MOL0     H46566   8.670   2.591  10.554 -0.2962  0.0123 -0.6474
  345MOL0     H46567   8.715   2.844  10.396 -1.9839  2.7491  0.6794
  345MOL0     H46568   8.550   2.786  10.432 -0.7707 -1.3980 -0.9057
  345MOL0     H46569   8.628   2.706  10.208  1.3935 -1.0906 -2.1184
  345MOL0     H46570   8.749   2.603  10.289 -0.5546 -1.2903  2.6857
  345MOL0     H46571   8.397   2.410  10.406  0.3404 -0.5122  1.2278
  345MOL0     H46572   9.117   2.690  10.540 -0.2787 -2.3442 -0.9046
  345MOL0     H46573   9.437   2.728  10.629 -0.8732 -0.0191  0.7592
  345MOL0     H46574   9.423   2.566  10.531 -0.0506 -0.9644  0.5094
  345MOL0     H46575   9.326   2.706  10.491 -0.7826  2.7338  1.7311
  346MOL0     O46576   2.439  10.809   1.598  0.0684 -0.4286 -0.5132
  346MOL0     C46577   2.392  10.809   1.484  1.2657 -0.1769  0.1828
  346MOL0     O46578   2.448  10.759   1.369 -0.1775 -0.4354 -0.0546
  346MOL0     C46579   2.585  10.728   1.362  0.8310  0.4801 -0.4274
  346MOL0     C46580   2.643  10.764   1.237  0.1371  0.6331 -0.3911
  346MOL0     C46581   2.781  10.733   1.224 -0.2454 -0.4305  0.2292
  346MOL0     C46582   2.863  10.670   1.321  0.6364  0.1548  0.0033
  346MOL0     O46583   2.993  10.637   1.307 -0.1342  0.9909  0.0153
  346MOL0     C46584   3.045  10.621   1.172  0.5086  0.5651 -0.5843
  346MOL0     C46585   3.178  10.550   1.180 -0.0966 -0.0155 -0.4278
  346MOL0     C46586   3.262  10.594   1.053 -0.8791 -0.5154  1.3117
  346MOL0     C46587   3.357  10.486   0.992 -0.4395 -0.4718  0.2481
  346MOL0     C46588   3.431  10.516   0.859  0.3945 -1.2097  0.1965
  346MOL0     C46589   3.469  10.666   0.862  0.0418  0.0846 -0.8191
  346MOL0     C46590   3.577  10.714   0.760  0.2430 -0.6638 -0.3571
  346MOL0     C46591   3.547  10.665   0.617 -0.0599  0.2534  0.0048
  346MOL0     N46592   3.641  10.734   0.530 -0.3049 -0.3402  0.2446
  346MOL0     C46593   3.637  10.873   0.507  0.8360  0.6870  0.9217
  346MOL0     C46594   3.748  10.897   0.441  0.5889  0.0908  0.3714
  346MOL0     C46595   3.797  11.040   0.407  0.2232 -0.0710  0.4039
  346MOL0     C46596   3.833  11.050   0.260  0.9489  0.1228  0.1834
  346MOL0     C46597   3.875  11.194   0.239  0.5956 -0.7218 -0.9266
  346MOL0     C46598   4.023  11.217   0.270  0.0424 -0.2864  0.4772
  346MOL0     O46599   4.043  11.362   0.255  0.7253 -0.1018  0.1204
  346MOL0     C46600   4.176  11.404   0.245  1.2235  0.0580  0.1797
  346MOL0     C46601   4.289  11.320   0.260 -0.9227 -0.1398 -0.3806
  346MOL0     C46602   4.420  11.374   0.270 -0.4507  0.8323  0.1791
  346MOL0     C46603   4.444  11.508   0.268  0.2223  0.4317  0.0305
  346MOL0     C46604   4.582  11.558   0.276 -0.3462 -0.2439 -0.2074
  346MOL0     O46605   4.601  11.696   0.279  0.6540 -0.1005 -0.1753
  346MOL0     C46606   4.724  11.746   0.253  1.2342  0.2860  1.0574
  346MOL0     C46607   4.791  11.812   0.349  0.1456  0.0985  0.3919
  346MOL0     C46608   4.917  11.875   0.331  0.2714  0.5680  0.0157
  346MOL0     C46609   4.966  11.885   0.200 -0.3496  0.4039 -0.0841
  346MOL0     O46610   5.082  11.954   0.197 -0.0042 -0.1873  0.2774
  346MOL0     C46611   5.140  11.972   0.065 -0.1808  0.0395 -1.0384
  346MOL0     C46612   5.240  12.083   0.069 -0.2270  0.1276  0.0725
  346MOL0     C46613   5.358  12.038   0.154 -0.8513  0.0980  0.0102
  346MOL0     C46614   5.458  12.156   0.182 -0.5755 -0.3043 -0.9566
  346MOL0     C46615   5.553  12.122   0.311  0.4339 -0.5727  0.2936
  346MOL0     C46616   5.652  12.244   0.337  0.4207  0.2915 -0.5573
  346MOL0     C46617   5.733  12.233   0.470 -0.3744  0.6127  0.0213
  346MOL0     C46618   5.855  12.326   0.483 -0.0709 -0.2168  0.4474
  346MOL0    Cl46619   5.905  12.302   0.656  0.4011 -0.0989 -0.2399
  346MOL0     C46620   4.894  11.817   0.098 -0.1174  0.6268 -0.3489
  346MOL0     C46621   4.768  11.748   0.122  0.0512 -0.8864 -0.5492
  346MOL0     O46622   4.668  11.477   0.285 -0.7042 -0.4057  0.7075
  346MOL0     C46623   4.331  11.592   0.253 -0.9288  0.3911  0.0850
  346MOL0     C46624   4.205  11.541   0.241 -0.0538  0.3615  0.8182
  346MOL0     N46625   3.822  10.780   0.422 -0.2743  0.2064  0.5384
  346MOL0     N46626   3.766  10.692   0.492 -0.5736  0.0061 -0.1658
  346MOL0     C46627   2.800  10.631   1.435 -0.4659 -0.1055  0.0450
  346MOL0     C46628   2.665  10.654   1.455 -0.3781  0.2063  0.6525
  346MOL0     C46629   2.253  10.875   1.477 -0.3852  0.0962 -0.4292
  346MOL0     C46630   2.208  10.941   1.597 -0.1319 -0.9854  0.6480
  346MOL0     C46631   2.079  11.007   1.603  0.3824 -0.3439  0.1352
  346MOL0     C46632   1.991  11.000   1.492  0.2744  0.5277  0.0894
  346MOL0     O46633   1.870  11.070   1.508  0.5481  0.3601  0.2786
  346MOL0     C46634   1.755  10.977   1.502 -0.5868 -0.1072  0.5952
  346MOL0     C46635   1.621  11.045   1.493 -0.5754 -0.2512  0.1757
  346MOL0     C46636   1.626  11.153   1.379 -0.3189  0.0513  0.7468
  346MOL0     C46637   1.558  11.283   1.424  1.1313  0.9750  0.2280
  346MOL0     C46638   1.410  11.269   1.448 -0.6040 -0.6789  0.4004
  346MOL0     C46639   1.288  11.240   1.457 -0.1422  0.2749  0.3480
  346MOL0     C46640   2.033  10.934   1.380 -0.4080 -0.0949  0.5379
  346MOL0     C46641   2.157  10.874   1.369 -0.4343  0.1416 -0.7169
  346MOL0     C46642   2.180  10.804   1.245  0.2354 -0.2518  0.1596
  346MOL0     H46643   2.588  10.813   1.157 -3.2794  0.3464  1.6261
  346MOL0     H46644   2.817  10.783   1.134 -1.7509  2.1968  0.9969
  346MOL0     H46645   2.982  10.558   1.108  2.6779  0.2596 -2.5596
  346MOL0     H46646   3.054  10.720   1.127  0.0458 -0.1573 -2.3313
  346MOL0     H46647   3.155  10.445   1.159  0.0977  0.4222 -3.1366
  346MOL0     H46648   3.229  10.571   1.275  0.9199  0.3530 -1.0404
  346MOL0     H46649   3.318  10.684   1.080 -2.5251  0.9674  0.0242
  346MOL0     H46650   3.198  10.625   0.970  1.3373  0.5810 -0.1010
  346MOL0     H46651   3.434  10.472   1.069  1.3823  1.1191 -1.1652
  346MOL0     H46652   3.296  10.397   0.975  0.2476 -1.2176  1.4858
  346MOL0     H46653   3.519  10.451   0.849  1.0127 -0.6950  1.9652
  346MOL0     H46654   3.368  10.490   0.773  0.8807  0.9521 -0.8771
  346MOL0     H46655   3.378  10.726   0.851 -1.7706 -2.4195 -0.3734
  346MOL0     H46656   3.510  10.682   0.962  4.8155  1.3956 -2.7147
  346MOL0     H46657   3.671  10.673   0.799 -0.0975 -1.3215 -0.2128
  346MOL0     H46658   3.581  10.824   0.766  1.4447 -0.7079 -0.1186
  346MOL0     H46659   3.563  10.556   0.616 -2.1087 -0.2673  3.8762
  346MOL0     H46660   3.441  10.684   0.595 -0.4275 -0.3442  1.1846
  346MOL0     H46661   3.552  10.932   0.540 -0.6860 -1.4747  1.0412
  346MOL0     H46662   3.714  11.103   0.440  0.2316  0.1457  0.0230
  346MOL0     H46663   3.883  11.066   0.470 -0.2784  2.6173  0.1245
  346MOL0     H46664   3.911  10.981   0.227 -1.7514 -3.7565  1.2124
  346MOL0     H46665   3.742  11.034   0.201  0.1195  0.9866  1.1818
  346MOL0     H46666   3.816  11.262   0.301  1.8466  1.9352 -2.4417
  346MOL0     H46667   3.860  11.231   0.137  1.0085  1.9002 -0.1002
  346MOL0     H46668   4.089  11.164   0.200 -0.9753 -1.0397  0.0669
  346MOL0     H46669   4.056  11.190   0.371  2.7202  1.1246  0.0637
  346MOL0     H46670   4.292  11.211   0.260  2.1741 -0.1805  0.8676
  346MOL0     H46671   4.504  11.309   0.248  1.0190  3.2660 -1.9482
  346MOL0     H46672   4.761  11.811   0.453 -2.6215  5.8615  0.0809
  346MOL0     H46673   4.973  11.913   0.416  1.6722  0.8885 -1.0111
  346MOL0     H46674   5.180  11.874   0.035  0.7004  0.1448 -0.2586
  346MOL0     H46675   5.076  12.004  -0.017  0.5156 -0.7965 -1.9356
  346MOL0     H46676   5.262  12.102  -0.037  2.0595 -0.9200  0.3037
  346MOL0     H46677   5.191  12.163   0.123  0.2188 -0.7383  1.8190
  346MOL0     H46678   5.326  12.005   0.254 -0.3439  1.6460  0.7118
  346MOL0     H46679   5.420  11.958   0.113 -2.2167 -0.8090 -0.3780
  346MOL0     H46680   5.417  12.254   0.208 -0.3933 -0.2103 -1.0253
  346MOL0     H46681   5.525  12.172   0.097 -0.6118  0.0173 -0.9259
  346MOL0     H46682   5.612  12.033   0.288 -2.9052 -2.8211 -0.3446
  346MOL0     H46683   5.496  12.097   0.400  0.8443  0.9261  1.0070
  346MOL0     H46684   5.725  12.261   0.257  1.9943 -0.9346  0.5464
  346MOL0     H46685   5.590  12.333   0.353 -0.7912 -0.5195 -0.5957
  346MOL0     H46686   5.757  12.127   0.482  1.7230  0.8306 -1.4825
  346MOL0     H46687   5.667  12.264   0.551  2.9744  4.7241  1.5647
  346MOL0     H46688   5.935  12.293   0.415 -1.1723 -0.2113 -0.8866
  346MOL0     H46689   5.834  12.433   0.470 -4.1724 -0.9884 -0.7377
  346MOL0     H46690   4.935  11.810  -0.002 -0.2539  1.8050 -0.4965
  346MOL0     H46691   4.711  11.705   0.040 -0.1793  1.6639 -1.8013
  346MOL0     H46692   4.345  11.698   0.236  0.6355  0.7242  2.8038
  346MOL0     H46693   4.120  11.608   0.230 -1.0247 -0.9897 -0.3394
  346MOL0     H46694   2.862  10.566   1.495  4.4712 -1.0812 -5.1858
  346MOL0     H46695   2.611  10.605   1.535  1.3254 -1.5136  0.8340
  346MOL0     H46696   2.273  10.944   1.683  2.4776  0.0308 -1.2292
  346MOL0     H46697   2.041  11.047   1.696  2.1667  0.3273  0.5993
  346MOL0     H46698   1.768  10.918   1.594  0.5166 -2.2455 -0.8336
  346MOL0     H46699   1.759  10.901   1.423 -0.8728  0.0477  0.4327
  346MOL0     H46700   1.593  11.099   1.584 -2.1909  1.6157 -1.3398
  346MOL0     H46701   1.547  10.971   1.461 -1.1515  1.9059 -4.3180
  346MOL0     H46702   1.587  11.103   1.290 -2.0672 -0.2460  1.6363
  346MOL0     H46703   1.727  11.173   1.341  0.0232 -1.2419  0.9456
  346MOL0     H46704   1.603  11.344   1.503  0.0238  0.9696  0.8771
  346MOL0     H46705   1.564  11.340   1.331  2.2148 -0.6349 -0.7237
  346MOL0     H46706   1.182  11.230   1.472 -0.3035  0.6149 -0.4829
  346MOL0     H46707   1.966  10.921   1.296  1.1345 -2.2446 -0.4636
  346MOL0     H46708   2.094  10.798   1.178 -1.3221 -3.8124  2.1583
  346MOL0     H46709   2.258  10.851   1.185  0.4793 -1.2152 -0.3104
  346MOL0     H46710   2.209  10.698   1.250 -0.3520 -0.6156 -2.6274
  347MOL0     O46711   9.677   2.680   5.707  0.3275  0.4489  0.2805
  347MOL0     C46712   9.615   2.773   5.757  0.4233  0.6152  0.0766
  347MOL0     O46713   9.670   2.866   5.835  0.8296 -0.2645  0.0475
  347MOL0     C46714   9.799   2.870   5.880 -0.0496 -0.1899  0.0422
  347MOL0     C46715   9.826   2.953   5.989 -0.5789  0.4861 -0.2361
  347MOL0     C46716   9.958   2.965   6.041  0.2259  0.0732 -0.0119
  347MOL0     C46717  10.065   2.901   5.976  0.0092  0.0962 -0.2257
  347MOL0     O46718  10.193   2.927   6.013  0.7542 -0.3275 -0.5961
  347MOL0     C46719  10.302   2.869   5.944  0.2878  0.5980 -0.2179
  347MOL0     C46720  10.429   2.892   6.016  0.2667  0.4273 -0.2711
  347MOL0     C46721  10.555   2.838   5.936  0.4701 -0.6143 -0.2869
  347MOL0     C46722  10.681   2.828   6.031  0.3239  0.2280 -0.4425
  347MOL0     C46723  10.817   2.804   5.956 -0.3938  0.9702 -0.1996
  347MOL0     C46724  10.943   2.789   6.050  0.0251 -0.4014 -0.4013
  347MOL0     C46725  11.077   2.778   5.973 -0.5171  0.1208 -0.0446
  347MOL0     C46726  11.201   2.751   6.058 -0.6988  0.1798 -0.2532
  347MOL0     N46727  11.216   2.868   6.144  0.1828 -0.0581 -0.0347
  347MOL0     C46728  11.165   2.901   6.264  0.3569  0.5917 -0.0471
  347MOL0     C46729  11.203   3.027   6.296  0.4782  0.2216 -1.1573
  347MOL0     C46730  11.176   3.122   6.418  0.9349 -0.2706 -0.2737
  347MOL0     C46731  11.156   3.046   6.545 -0.6797  0.1560 -0.3872
  347MOL0     C46732  11.111   3.150   6.655  0.0127 -0.6296  0.2835
  347MOL0     C46733  11.216   3.258   6.679 -1.0795 -0.4291 -0.0494
  347MOL0     O46734  11.340   3.178   6.702 -0.1719  0.3661  0.4071
  347MOL0     C46735  11.454   3.248   6.688 -0.3578  0.2019  0.4355
  347MOL0     C46736  11.535   3.224   6.578 -0.4063 -0.8279  0.2318
  347MOL0     C46737  11.654   3.304   6.565  0.8148 -0.0237 -0.2575
  347MOL0     C46738  11.706   3.385   6.669  0.3838  0.3464 -0.3264
  347MOL0     C46739  11.846   3.442   6.658  0.2032  0.2718 -0.2231
  347MOL0     O46740  11.865   3.557   6.727 -0.2745 -0.7318 -0.2341
  347MOL0     C46741  11.962   3.637   6.678  0.1742 -0.5330 -0.9382
  347MOL0     C46742  12.085   3.663   6.747 -0.0773 -0.3068  0.3730
  347MOL0     C46743  12.194   3.738   6.699  0.4712 -0.3117  0.1500
  347MOL0     C46744  12.163   3.803   6.578 -0.2284 -0.7685 -0.7133
  347MOL0     O46745  12.248   3.888   6.517 -0.0039 -0.2227  0.8927
  347MOL0     C46746  12.263   4.015   6.589 -0.6463  0.1308 -0.8477
  347MOL0     C46747  12.349   4.097   6.495  0.7379  0.1630  0.1508
  347MOL0     C46748  12.369   4.242   6.546  1.0285 -0.0979 -1.0670
  347MOL0     C46749  12.463   4.250   6.667  0.1411 -0.3962  0.0373
  347MOL0     C46750  12.502   4.394   6.701  0.2213 -0.0063 -0.0887
  347MOL0     C46751  12.597   4.384   6.824  0.5719  0.3769  1.2871
  347MOL0     C46752  12.700   4.498   6.826 -0.2215 -0.1269  0.6713
  347MOL0     C46753  12.753   4.513   6.967  0.0353 -0.0416  0.0189
  347MOL0    Cl46754  12.621   4.572   7.082  0.5463  0.0895 -0.1752
  347MOL0     C46755  12.047   3.777   6.514 -0.0945 -0.6128 -0.0176
  347MOL0     C46756  11.944   3.703   6.563  0.7931 -0.1151  0.9908
  347MOL0     O46757  11.923   3.396   6.575  0.2079  0.2412 -0.0316
  347MOL0     C46758  11.624   3.411   6.787 -0.2823  0.5242 -0.1367
  347MOL0     C46759  11.498   3.345   6.789  0.1703  0.4949  1.0586
  347MOL0     N46760  11.275   3.080   6.191 -0.1375 -0.3527  1.0190
  347MOL0     N46761  11.284   2.977   6.111  0.0019  0.0718  0.7436
  347MOL0     C46762  10.034   2.830   5.857 -0.1084 -0.1693 -0.2846
  347MOL0     C46763   9.909   2.807   5.816 -0.5392  0.0369  0.2436
  347MOL0     C46764   9.466   2.773   5.717 -0.1744  0.6627 -0.1837
  347MOL0     C46765   9.411   2.664   5.641  0.6229  0.3157  0.0359
  347MOL0     C46766   9.279   2.662   5.594 -0.7693 -0.2884 -0.4843
  347MOL0     C46767   9.190   2.756   5.640  0.1909  0.0304 -0.3002
  347MOL0     O46768   9.064   2.760   5.585 -0.6288 -0.0166 -0.7268
  347MOL0     C46769   8.993   2.632   5.554 -0.0092  0.0763  0.5394
  347MOL0     C46770   8.853   2.642   5.591 -0.5526 -0.6156 -0.1893
  347MOL0     C46771   8.779   2.517   5.568  0.3535  0.3941 -0.2822
  347MOL0     C46772   8.641   2.526   5.629 -1.2335  1.0056  0.7624
  347MOL0     C46773   8.588   2.392   5.669 -0.3542 -0.1678 -0.4930
  347MOL0     C46774   8.541   2.284   5.708  0.6381 -0.4204 -0.5931
  347MOL0     C46775   9.239   2.859   5.723  0.3316  0.4868  0.1157
  347MOL0     C46776   9.377   2.870   5.768 -0.2291  0.3844  0.0202
  347MOL0     C46777   9.412   2.993   5.851 -0.1225 -0.1674 -0.2533
  347MOL0     H46778   9.745   3.009   6.035  0.5186  1.4138  0.6297
  347MOL0     H46779   9.978   3.028   6.126 -0.4559 -1.5551  1.4082
  347MOL0     H46780  10.291   2.762   5.924  2.5343  0.2672  0.0559
  347MOL0     H46781  10.316   2.913   5.845 -1.0338 -2.1274 -1.7335
  347MOL0     H46782  10.421   2.840   6.111  5.2245 -0.8655 -0.2846
  347MOL0     H46783  10.444   2.998   6.038 -1.1099  0.7521 -0.7844
  347MOL0     H46784  10.575   2.908   5.855 -2.4705  1.3371  0.5075
  347MOL0     H46785  10.537   2.738   5.895 -0.0370 -0.0523 -1.4828
  347MOL0     H46786  10.680   2.920   6.091 -1.1502 -0.2975  0.3873
  347MOL0     H46787  10.671   2.741   6.096  2.3318 -0.7698 -1.3737
  347MOL0     H46788  10.808   2.705   5.912 -0.1430  0.7039  0.3482
  347MOL0     H46789  10.842   2.870   5.872  1.6035 -2.3472 -2.4348
  347MOL0     H46790  10.952   2.883   6.104  0.6427 -0.4244 -0.4625
  347MOL0     H46791  10.918   2.713   6.125 -5.5466  2.8116  1.6231
  347MOL0     H46792  11.100   2.865   5.910  0.2311  1.3082  1.7707
  347MOL0     H46793  11.072   2.695   5.902  0.2132  0.4652 -0.5147
  347MOL0     H46794  11.199   2.664   6.123  1.7331  0.6115  0.4940
  347MOL0     H46795  11.286   2.749   5.990  0.0144  1.8227  0.5270
  347MOL0     H46796  11.094   2.842   6.322 -0.9200  0.0935 -2.0216
  347MOL0     H46797  11.267   3.183   6.422  0.1920  0.9820 -1.4466
  347MOL0     H46798  11.092   3.187   6.393 -0.4237 -1.9112 -0.1020
  347MOL0     H46799  11.080   2.969   6.530  1.9220 -2.7246  0.3469
  347MOL0     H46800  11.247   2.993   6.574 -0.4219  1.1644  0.7146
  347MOL0     H46801  11.103   3.099   6.752  2.4763  0.4339  1.1246
  347MOL0     H46802  11.011   3.187   6.635  0.2006  0.7942  1.7227
  347MOL0     H46803  11.189   3.313   6.769 -0.1670  0.4351 -0.2848
  347MOL0     H46804  11.221   3.326   6.593 -2.1780 -1.8411 -1.2945
  347MOL0     H46805  11.524   3.162   6.490  6.4227 -0.2432 -1.6457
  347MOL0     H46806  11.709   3.298   6.472  0.0740 -2.6904 -0.6055
  347MOL0     H46807  12.090   3.601   6.837  0.1248  2.8468  2.7177
  347MOL0     H46808  12.289   3.742   6.750 -0.4882  1.0667  1.9494
  347MOL0     H46809  12.164   4.059   6.604 -1.1734 -1.3230  0.1392
  347MOL0     H46810  12.328   3.999   6.675  0.7003  1.1970 -1.6312
  347MOL0     H46811  12.444   4.046   6.479 -0.2398 -1.6274 -0.3019
  347MOL0     H46812  12.297   4.111   6.400  0.7332  0.3282  0.1776
  347MOL0     H46813  12.413   4.309   6.471  4.1846 -0.4639  0.2919
  347MOL0     H46814  12.272   4.285   6.572 -0.7486 -3.6031 -1.3374
  347MOL0     H46815  12.556   4.198   6.642  2.0627  3.2774 -1.1349
  347MOL0     H46816  12.405   4.208   6.749 -1.1281 -0.0354 -0.6356
  347MOL0     H46817  12.410   4.449   6.716 -1.0724 -1.9797 -0.3491
  347MOL0     H46818  12.562   4.438   6.621 -0.5939 -0.3232 -0.8870
  347MOL0     H46819  12.540   4.373   6.916  1.1954  0.4811  1.6959
  347MOL0     H46820  12.662   4.296   6.817  0.4050  0.2087  1.7774
  347MOL0     H46821  12.667   4.596   6.789  0.1222 -0.0594  0.5426
  347MOL0     H46822  12.778   4.465   6.757 -1.4817 -0.7906 -0.5037
  347MOL0     H46823  12.801   4.422   7.003  2.5763 -0.2210 -3.3546
  347MOL0     H46824  12.829   4.591   6.978 -1.6359  1.6592  0.0661
  347MOL0     H46825  12.027   3.831   6.422  1.2410 -0.3736 -0.1892
  347MOL0     H46826  11.851   3.690   6.510  0.9185 -1.9281  1.1618
  347MOL0     H46827  11.655   3.488   6.857  2.9780 -0.0471 -0.8199
  347MOL0     H46828  11.417   3.361   6.859 -0.3615 -0.5512  0.6953
  347MOL0     H46829  10.120   2.797   5.799  0.9440  2.3931 -0.2925
  347MOL0     H46830   9.892   2.748   5.726  0.1105 -0.3390  0.3649
  347MOL0     H46831   9.473   2.588   5.596 -1.1950 -1.5176  0.4554
  347MOL0     H46832   9.264   2.587   5.516  2.8571 -3.5718  1.6635
  347MOL0     H46833   9.042   2.547   5.601 -0.0938 -0.1905  0.1493
  347MOL0     H46834   9.001   2.624   5.445  0.6120  0.0531  0.5803
  347MOL0     H46835   8.825   2.724   5.524 -1.9257 -0.9366 -0.0203
  347MOL0     H46836   8.847   2.671   5.696 -1.2724 -1.2038 -0.0634
  347MOL0     H46837   8.839   2.438   5.615  0.3271  0.0557 -0.8058
  347MOL0     H46838   8.769   2.501   5.460  1.9129 -2.3524 -0.1163
  347MOL0     H46839   8.632   2.596   5.712 -0.9700  0.9249  0.8624
  347MOL0     H46840   8.586   2.558   5.540 -1.4456 -3.6715 -1.0657
  347MOL0     H46841   8.489   2.200   5.749  2.1247  0.2889  3.1231
  347MOL0     H46842   9.168   2.930   5.763  0.0284 -0.6126  1.6269
  347MOL0     H46843   9.326   3.052   5.884  0.9453  2.5546 -1.9967
  347MOL0     H46844   9.464   2.964   5.943  0.7755  1.6327 -0.1548
  347MOL0     H46845   9.469   3.060   5.786 -2.3679 -0.0771 -2.2542
  348MOL0     O46846   0.193   5.289   5.649 -0.4741 -0.1874  0.2029
  348MOL0     C46847   0.230   5.226   5.749  0.3474  0.9746 -0.6191
  348MOL0     O46848   0.353   5.243   5.807 -0.8790  0.3874  0.0619
  348MOL0     C46849   0.444   5.319   5.740 -0.2444 -0.1741  0.1400
  348MOL0     C46850   0.484   5.440   5.800 -0.1530 -0.3280  0.5634
  348MOL0     C46851   0.577   5.515   5.725 -0.4450 -0.5222  0.0388
  348MOL0     C46852   0.638   5.464   5.603  0.2548 -0.6750 -0.3000
  348MOL0     O46853   0.730   5.527   5.520 -0.4779  0.7798 -0.4445
  348MOL0     C46854   0.761   5.664   5.536  0.4427  0.2767 -0.5417
  348MOL0     C46855   0.880   5.700   5.449  0.0819  0.5877  1.0698
  348MOL0     C46856   0.867   5.658   5.293 -0.0301  1.1930  0.0445
  348MOL0     C46857   0.996   5.671   5.215  0.1651  0.0779 -1.1063
  348MOL0     C46858   1.010   5.549   5.119  0.1826 -0.5302  0.4535
  348MOL0     C46859   1.116   5.566   5.009  0.5693  0.4918  0.3776
  348MOL0     C46860   1.245   5.601   5.084  0.4060  0.3887 -0.1931
  348MOL0     C46861   1.361   5.578   4.981  0.7071  0.3698 -0.0414
  348MOL0     N46862   1.491   5.591   5.044 -0.2141 -0.3746 -0.5226
  348MOL0     C46863   1.594   5.496   5.037 -0.3255 -0.4851 -1.1788
  348MOL0     C46864   1.701   5.556   5.080  0.0667 -0.3916 -0.6454
  348MOL0     C46865   1.831   5.485   5.081 -0.5563 -0.5641 -0.2457
  348MOL0     C46866   1.911   5.535   4.958  0.2084  0.4719  0.6253
  348MOL0     C46867   2.038   5.448   4.913  0.4603  0.1829  0.0915
  348MOL0     C46868   2.144   5.450   5.018  0.8859  0.3783 -0.2320
  348MOL0     O46869   2.246   5.355   4.985  0.6853  0.0549 -0.3521
  348MOL0     C46870   2.371   5.359   5.039  0.3218 -0.1199 -0.4779
  348MOL0     C46871   2.402   5.439   5.153 -0.1766  0.3452  0.4317
  348MOL0     C46872   2.527   5.482   5.184  0.0239 -0.4753 -0.0167
  348MOL0     C46873   2.627   5.433   5.102 -1.1705  0.9190  0.2026
  348MOL0     C46874   2.768   5.448   5.150 -0.9950  0.1365  0.7806
  348MOL0     O46875   2.859   5.391   5.062 -0.1179 -0.1500 -0.0448
  348MOL0     C46876   2.989   5.413   5.091 -0.5413 -0.8095  0.4753
  348MOL0     C46877   3.049   5.535   5.118 -0.3887  1.0672 -0.1959
  348MOL0     C46878   3.183   5.545   5.152 -0.3170 -0.0068  0.8669
  348MOL0     C46879   3.252   5.434   5.167 -0.0969  0.2947 -0.2888
  348MOL0     O46880   3.380   5.448   5.207 -0.3133 -0.4098 -0.2305
  348MOL0     C46881   3.405   5.430   5.342 -0.2874  0.8774 -0.4816
  348MOL0     C46882   3.440   5.567   5.414  0.6016 -0.0950 -0.0304
  348MOL0     C46883   3.579   5.617   5.371  0.2049  0.2104  0.3162
  348MOL0     C46884   3.610   5.750   5.440 -0.5593  0.6124  0.6041
  348MOL0     C46885   3.758   5.800   5.450 -0.1850 -0.2243 -0.4707
  348MOL0     C46886   3.825   5.800   5.307 -0.5755  0.4986 -1.0670
  348MOL0     C46887   3.965   5.869   5.308  0.2363 -0.1874  0.4739
  348MOL0     C46888   4.058   5.798   5.202 -0.5863 -1.0238 -0.2482
  348MOL0    Cl46889   4.083   5.628   5.230  0.3386  0.0623 -0.1596
  348MOL0     C46890   3.196   5.305   5.133 -0.1324  0.4209  1.1051
  348MOL0     C46891   3.068   5.300   5.082 -0.4336 -0.0983  0.3921
  348MOL0     O46892   2.793   5.497   5.259  0.3888 -0.0745 -0.5737
  348MOL0     C46893   2.602   5.360   4.984  0.5691 -0.0949  0.8262
  348MOL0     C46894   2.472   5.328   4.949 -0.1792  0.1911  0.2019
  348MOL0     N46895   1.677   5.688   5.112 -0.5733 -0.5510  0.2919
  348MOL0     N46896   1.552   5.715   5.081  0.4663 -0.7463  0.0240
  348MOL0     C46897   0.602   5.339   5.558  0.5993  0.6696 -0.1993
  348MOL0     C46898   0.497   5.274   5.621  0.2698 -0.4057  0.2994
  348MOL0     C46899   0.141   5.125   5.802  0.3933  0.3007 -0.5438
  348MOL0     C46900   0.199   5.040   5.897  0.1148 -0.5765 -0.1132
  348MOL0     C46901   0.120   4.936   5.946  0.7261 -0.8354 -0.7556
  348MOL0     C46902  -0.005   4.907   5.912  0.5187  0.1605  0.9819
  348MOL0     O46903  -0.059   4.796   5.970  0.2040 -0.0724 -0.2383
  348MOL0     C46904  -0.181   4.737   5.919 -1.0820 -0.2999 -0.1302
  348MOL0     C46905  -0.308   4.783   6.001 -0.3170  0.5018  0.4705
  348MOL0     C46906  -0.441   4.729   5.935 -1.3116 -0.8160  0.1223
  348MOL0     C46907  -0.448   4.574   5.946 -0.3389  0.1567 -0.4511
  348MOL0     C46908  -0.582   4.541   5.909  0.2587 -0.7452  0.0276
  348MOL0     C46909  -0.696   4.520   5.883  0.2915 -0.4423  0.2775
  348MOL0     C46910  -0.067   4.995   5.820 -0.6519  0.7292  0.4451
  348MOL0     C46911   0.005   5.096   5.759 -0.2843 -0.1070 -0.4761
  348MOL0     C46912  -0.063   5.175   5.651 -0.0123 -0.5081  0.4757
  348MOL0     H46913   0.446   5.484   5.891  2.6017  0.1210  1.5722
  348MOL0     H46914   0.609   5.612   5.764  2.7002 -1.3459 -0.1783
  348MOL0     H46915   0.676   5.720   5.495  1.6909  3.5853  1.0508
  348MOL0     H46916   0.770   5.693   5.641 -0.9843 -0.7951 -0.0852
  348MOL0     H46917   0.978   5.668   5.488  1.4834  0.9282 -1.8856
  348MOL0     H46918   0.869   5.808   5.439 -4.4387  0.1068 -1.2015
  348MOL0     H46919   0.795   5.724   5.242  3.0279  3.2831 -1.8854
  348MOL0     H46920   0.825   5.558   5.288  1.9003  0.3709 -0.5547
  348MOL0     H46921   0.982   5.767   5.166  0.0997  1.1545  0.9156
  348MOL0     H46922   1.087   5.679   5.274  0.5278  1.3778 -1.8159
  348MOL0     H46923   1.022   5.451   5.167  0.9233 -0.1396  1.0830
  348MOL0     H46924   0.915   5.542   5.065  1.6046 -0.1387 -2.2860
  348MOL0     H46925   1.131   5.467   4.965 -2.2230  0.5741 -1.0047
  348MOL0     H46926   1.090   5.631   4.925  1.0864  0.8179  0.4677
  348MOL0     H46927   1.273   5.525   5.158 -3.1725 -0.5660  0.3788
  348MOL0     H46928   1.254   5.698   5.134 -0.4500 -0.0025  0.7509
  348MOL0     H46929   1.339   5.477   4.945 -2.9178  1.2470 -0.7607
  348MOL0     H46930   1.350   5.645   4.895  2.2109  1.4044  0.5305
  348MOL0     H46931   1.590   5.398   4.990  1.2191 -1.1792  0.0345
  348MOL0     H46932   1.887   5.516   5.170  1.0852 -0.5510 -1.2381
  348MOL0     H46933   1.831   5.375   5.084  3.0746 -0.6841 -0.1116
  348MOL0     H46934   1.833   5.522   4.883  0.6695 -0.9173  0.3538
  348MOL0     H46935   1.934   5.642   4.951  0.6099  0.3414 -0.1148
  348MOL0     H46936   2.090   5.483   4.823  0.4696 -0.6209 -0.2219
  348MOL0     H46937   1.997   5.347   4.899  0.7300  0.0504  0.2500
  348MOL0     H46938   2.103   5.431   5.117 -1.4018  0.6212 -1.0774
  348MOL0     H46939   2.198   5.545   5.015  3.0225 -0.6958  1.4997
  348MOL0     H46940   2.326   5.464   5.226 -0.7771  1.2652 -0.4714
  348MOL0     H46941   2.536   5.543   5.273 -0.5724  3.3661 -2.3606
  348MOL0     H46942   2.988   5.623   5.102  0.0965  1.5355  0.4774
  348MOL0     H46943   3.226   5.644   5.162 -0.0296 -0.1654  1.2085
  348MOL0     H46944   3.312   5.402   5.393 -0.2090  0.8933 -0.3309
  348MOL0     H46945   3.479   5.352   5.362 -0.5049  0.6660 -0.4929
  348MOL0     H46946   3.362   5.640   5.394  2.2086  1.5811 -0.4674
  348MOL0     H46947   3.446   5.562   5.523  0.1826  0.9255  0.0499
  348MOL0     H46948   3.649   5.541   5.404 -0.0154 -0.0636  0.1534
  348MOL0     H46949   3.579   5.640   5.263  0.2879  1.5618  0.5804
  348MOL0     H46950   3.579   5.741   5.545  0.2863 -0.0220  0.8064
  348MOL0     H46951   3.541   5.824   5.399  0.8673  1.0118 -1.1896
  348MOL0     H46952   3.821   5.751   5.524  1.9060  3.1382  0.2130
  348MOL0     H46953   3.748   5.906   5.477 -0.7954 -0.7723  1.5428
  348MOL0     H46954   3.849   5.695   5.286 -0.1227 -0.1289  2.0787
  348MOL0     H46955   3.757   5.847   5.236 -0.5220  1.2100 -0.6520
  348MOL0     H46956   4.012   5.868   5.406 -1.3725 -1.4011  1.2801
  348MOL0     H46957   3.962   5.976   5.285  0.9726  0.0605  1.4562
  348MOL0     H46958   4.019   5.809   5.101  0.7579  0.5971 -0.6323
  348MOL0     H46959   4.146   5.862   5.193 -1.9408  1.0735  0.4834
  348MOL0     H46960   3.255   5.214   5.131 -2.4727 -1.1758 -0.4622
  348MOL0     H46961   3.020   5.213   5.037 -1.5551 -0.8837  2.8851
  348MOL0     H46962   2.677   5.317   4.918  0.1286 -3.9451  2.5573
  348MOL0     H46963   2.447   5.277   4.856 -1.4060  3.7862 -1.6489
  348MOL0     H46964   0.645   5.307   5.464  0.2162  2.1511 -0.9042
  348MOL0     H46965   0.456   5.186   5.573  1.1970 -0.8589  0.3173
  348MOL0     H46966   0.301   5.058   5.930 -0.0800  1.6728 -0.5576
  348MOL0     H46967   0.152   4.863   6.020 -0.8823 -2.7886 -1.8807
  348MOL0     H46968  -0.176   4.628   5.921  0.7683 -0.2541  1.8163
  348MOL0     H46969  -0.204   4.752   5.813 -1.1964 -4.8341 -0.9233
  348MOL0     H46970  -0.313   4.891   5.990  0.8227  0.3901 -1.8334
  348MOL0     H46971  -0.298   4.755   6.107  0.8196  0.3110  0.3186
  348MOL0     H46972  -0.435   4.755   5.829  2.9765 -1.1722  0.0883
  348MOL0     H46973  -0.529   4.774   5.981 -0.3391 -0.0154  1.2691
  348MOL0     H46974  -0.377   4.525   5.878  0.0639  0.0911  0.0139
  348MOL0     H46975  -0.419   4.541   6.046  1.9696  0.7965 -0.8482
  348MOL0     H46976  -0.797   4.499   5.853  0.9414 -0.2044 -2.3367
  348MOL0     H46977  -0.170   4.980   5.787 -0.3229 -3.8246  0.8599
  348MOL0     H46978  -0.056   5.282   5.672 -1.9452 -0.6120  1.8969
  348MOL0     H46979  -0.002   5.154   5.563 -1.7514  0.9564 -1.1823
  348MOL0     H46980  -0.171   5.161   5.641 -0.0421 -0.0604  0.1024
  349MOL0     O46981  11.144   4.444   8.514  0.3428  0.2973  0.6504
  349MOL0     C46982  11.105   4.522   8.425 -0.1361 -0.5360 -0.0959
  349MOL0     O46983  11.184   4.615   8.379 -0.2241 -0.2210  0.3135
  349MOL0     C46984  11.316   4.605   8.404  0.4114 -0.1622 -0.0587
  349MOL0     C46985  11.396   4.554   8.305 -0.0244  0.2679  0.3232
  349MOL0     C46986  11.534   4.548   8.314 -0.1615 -0.5374  0.1120
  349MOL0     C46987  11.599   4.580   8.440  0.2863  0.7301 -0.1155
  349MOL0     O46988  11.731   4.551   8.469 -0.1175 -0.4465  0.2916
  349MOL0     C46989  11.822   4.520   8.349  0.0831 -0.1167  0.1201
  349MOL0     C46990  11.960   4.493   8.401 -0.8179 -0.5462 -0.3762
  349MOL0     C46991  12.069   4.445   8.309 -0.0574 -0.2581 -0.8577
  349MOL0     C46992  12.041   4.435   8.161 -0.4773 -0.4984  0.9100
  349MOL0     C46993  12.174   4.434   8.086 -0.3001  0.4626  0.6889
  349MOL0     C46994  12.230   4.574   8.045  0.7887 -0.3871 -0.5562
  349MOL0     C46995  12.198   4.616   7.901  0.1342  1.0476 -0.3474
  349MOL0     C46996  12.051   4.621   7.858  0.6696  0.3323 -0.1754
  349MOL0     N46997  12.001   4.753   7.887  0.1656  0.3703  0.0627
  349MOL0     C46998  11.954   4.798   8.007 -0.2888  0.0052 -0.1604
  349MOL0     C46999  11.871   4.900   7.989  0.8385  0.7199 -0.1860
  349MOL0     C47000  11.803   4.993   8.093 -1.4126  0.3309  0.3548
  349MOL0     C47001  11.681   4.941   8.153  1.1889  0.3773  0.3423
  349MOL0     C47002  11.592   4.863   8.043 -0.0302  0.1928  0.3893
  349MOL0     C47003  11.443   4.866   8.081 -0.1107 -0.5990 -0.6125
  349MOL0     O47004  11.367   4.783   8.001  0.5980 -0.3901 -0.3926
  349MOL0     C47005  11.229   4.806   7.980 -0.1576  0.5663  0.2016
  349MOL0     C47006  11.172   4.751   7.862 -0.2058 -0.1505 -0.6937
  349MOL0     C47007  11.036   4.772   7.826 -0.2303 -1.0259  0.5707
  349MOL0     C47008  10.951   4.849   7.909 -0.5051 -0.1958 -0.5320
  349MOL0     C47009  10.810   4.876   7.869 -0.0290  0.4310  1.0083
  349MOL0     O47010  10.758   4.991   7.931 -0.0665  0.2167 -0.0206
  349MOL0     C47011  10.618   5.002   7.935  0.7904 -0.5188  0.0543
  349MOL0     C47012  10.556   5.023   8.061 -0.2290 -0.0552 -0.7540
  349MOL0     C47013  10.417   5.035   8.064 -0.9006 -0.6695  0.6409
  349MOL0     C47014  10.346   5.028   7.949  0.7603  0.3806  0.4725
  349MOL0     O47015  10.216   5.028   7.970 -0.4810  0.0501 -0.2359
  349MOL0     C47016  10.139   5.140   7.930  1.0687  0.5516  0.4039
  349MOL0     C47017   9.990   5.102   7.950  0.0281 -1.2772  1.1640
  349MOL0     C47018   9.942   5.017   7.831  0.2770 -0.3525 -0.2504
  349MOL0     C47019   9.786   4.993   7.838 -0.8793 -0.1692  0.2771
  349MOL0     C47020   9.749   4.914   7.965  1.0603  0.4222 -1.2257
  349MOL0     C47021   9.596   4.913   7.993 -0.3309  0.1512  0.2955
  349MOL0     C47022   9.522   4.804   7.903 -0.8217 -0.4908  0.1535
  349MOL0     C47023   9.371   4.791   7.936  0.2986 -0.2668 -0.5535
  349MOL0    Cl47024   9.362   4.720   8.094  0.1178 -0.0489 -0.4307
  349MOL0     C47025  10.403   5.009   7.825  0.0347  0.3271  0.4748
  349MOL0     C47026  10.539   5.007   7.811  0.5320 -0.6939 -0.2967
  349MOL0     O47027  10.751   4.802   7.783  0.2918  0.0744 -0.3014
  349MOL0     C47028  11.015   4.918   8.019  0.1392  0.6665  0.1932
  349MOL0     C47029  11.154   4.892   8.051  1.0799  0.3252 -0.4076
  349MOL0     N47030  11.860   4.910   7.848 -0.8982 -0.3426  0.1702
  349MOL0     N47031  11.941   4.827   7.791 -0.6683 -0.4535  0.6262
  349MOL0     C47032  11.520   4.624   8.545  0.2960  0.5235  0.1530
  349MOL0     C47033  11.381   4.647   8.526  0.9994  0.0646 -0.3637
  349MOL0     C47034  10.963   4.539   8.394 -0.3835  0.1166 -0.0039
  349MOL0     C47035  10.932   4.646   8.305  0.3123  0.6260  0.0930
  349MOL0     C47036  10.799   4.676   8.268 -0.0593  1.0418  0.2292
  349MOL0     C47037  10.695   4.593   8.320 -0.3223 -0.2334  0.3160
  349MOL0     O47038  10.564   4.623   8.277  0.2228 -0.2330 -0.0999
  349MOL0     C47039  10.468   4.526   8.311  0.0397 -0.3728 -0.0044
  349MOL0     C47040  10.341   4.545   8.223  0.0171  0.8671  0.1627
  349MOL0     C47041  10.298   4.695   8.198 -0.1337 -0.4863  0.2319
  349MOL0     C47042  10.182   4.719   8.101  0.1102  0.3400  0.0378
  349MOL0     C47043  10.060   4.650   8.146 -0.2262 -0.1497  0.1123
  349MOL0     C47044   9.967   4.596   8.201  0.0710  0.0951  0.3133
  349MOL0     C47045  10.720   4.496   8.417 -0.4795 -0.2552  0.8416
  349MOL0     C47046  10.854   4.461   8.452  0.0102 -0.1438  0.2804
  349MOL0     C47047  10.878   4.352   8.547  0.7843  0.2949 -0.4422
  349MOL0     H47048  11.367   4.526   8.204 -0.6784  1.2727  0.2140
  349MOL0     H47049  11.581   4.490   8.234 -1.4618 -2.6392  0.7919
  349MOL0     H47050  11.784   4.436   8.290  0.4352 -0.2217  0.0394
  349MOL0     H47051  11.823   4.605   8.281 -2.0554 -0.2997 -0.2101
  349MOL0     H47052  11.944   4.424   8.484  1.0136  0.8483  1.2269
  349MOL0     H47053  12.002   4.579   8.455  1.7331 -2.1150  0.3103
  349MOL0     H47054  12.102   4.342   8.325  0.6125 -0.1323 -1.3412
  349MOL0     H47055  12.163   4.499   8.324  1.5759 -3.2673  0.5229
  349MOL0     H47056  11.996   4.336   8.144 -1.0054  0.1878 -2.2951
  349MOL0     H47057  11.973   4.516   8.135  0.8275  0.2794 -0.1852
  349MOL0     H47058  12.248   4.385   8.150  0.1612 -2.5556 -1.9387
  349MOL0     H47059  12.168   4.373   7.995  1.1717  0.7500  0.3703
  349MOL0     H47060  12.189   4.646   8.117  1.8033 -2.1350  1.9116
  349MOL0     H47061  12.338   4.582   8.061  0.6494 -1.8465  1.6253
  349MOL0     H47062  12.259   4.549   7.840  0.4557  1.1532 -0.1455
  349MOL0     H47063  12.250   4.711   7.884  3.5160 -0.8078 -1.4072
  349MOL0     H47064  12.038   4.598   7.752 -0.8020 -1.0983  0.2789
  349MOL0     H47065  11.981   4.553   7.907 -3.6159  2.1630 -3.1531
  349MOL0     H47066  11.991   4.773   8.106 -1.3123  2.5168  0.9415
  349MOL0     H47067  11.880   5.002   8.170  0.1516 -2.1623 -0.7919
  349MOL0     H47068  11.784   5.087   8.039 -1.2515 -1.0257 -2.2204
  349MOL0     H47069  11.690   4.854   8.219  2.3567 -0.5167 -0.9523
  349MOL0     H47070  11.628   5.031   8.187 -0.8794 -0.2585 -1.0358
  349MOL0     H47071  11.622   4.758   8.041 -1.9098 -0.3651 -1.1960
  349MOL0     H47072  11.622   4.892   7.942  3.6906  1.1279  1.6075
  349MOL0     H47073  11.402   4.967   8.078 -1.5961 -1.1332  0.3734
  349MOL0     H47074  11.436   4.828   8.183 -1.5121  1.1759 -0.0058
  349MOL0     H47075  11.234   4.691   7.797  0.4337 -1.8724  1.4043
  349MOL0     H47076  11.004   4.737   7.728  0.2141 -0.4435  0.2157
  349MOL0     H47077  10.601   5.015   8.160 -0.4664  1.3531 -0.5020
  349MOL0     H47078  10.367   5.031   8.160  0.7225  0.6130  1.5766
  349MOL0     H47079  10.170   5.228   7.987  2.8321 -0.8832  1.8103
  349MOL0     H47080  10.161   5.176   7.829  0.0205 -1.6249 -0.6775
  349MOL0     H47081   9.986   5.049   8.046  1.0430 -2.1537  0.7453
  349MOL0     H47082   9.925   5.189   7.963  0.2306 -1.3455  2.8370
  349MOL0     H47083   9.960   5.066   7.735  2.8644 -1.2212 -0.2764
  349MOL0     H47084  10.003   4.928   7.846  0.8290 -0.1433 -1.1569
  349MOL0     H47085   9.741   4.940   7.754 -1.7931 -0.1257  0.7301
  349MOL0     H47086   9.739   5.091   7.824  0.3100  0.2641 -0.9347
  349MOL0     H47087   9.795   4.945   8.059 -0.4241 -0.4345 -0.1652
  349MOL0     H47088   9.788   4.812   7.962  1.4651  0.4934  0.5706
  349MOL0     H47089   9.580   4.889   8.098  2.1487 -4.5795 -0.0879
  349MOL0     H47090   9.567   5.016   7.970  0.1587 -0.2422 -2.5122
  349MOL0     H47091   9.567   4.704   7.906  0.3118  0.0297  2.8586
  349MOL0     H47092   9.543   4.835   7.800  0.5088 -1.2356  0.1751
  349MOL0     H47093   9.334   4.893   7.948  1.1196 -0.2186  2.3743
  349MOL0     H47094   9.329   4.726   7.858  3.2468 -1.2221 -1.4981
  349MOL0     H47095  10.333   4.994   7.743 -0.8237 -2.0334  1.5755
  349MOL0     H47096  10.584   4.997   7.713  2.0846  0.8059  0.2221
  349MOL0     H47097  10.953   4.988   8.075 -0.5729  0.4636 -0.3376
  349MOL0     H47098  11.199   4.939   8.138  0.9457 -1.2370  0.5292
  349MOL0     H47099  11.569   4.638   8.641  1.9316  1.7591 -0.8161
  349MOL0     H47100  11.315   4.702   8.592 -0.6724 -1.8672 -0.3352
  349MOL0     H47101  11.001   4.711   8.251 -1.0566  2.0145 -0.0635
  349MOL0     H47102  10.756   4.750   8.202 -2.6889  0.0586  0.7143
  349MOL0     H47103  10.442   4.538   8.417 -3.3157 -0.4869 -0.7043
  349MOL0     H47104  10.506   4.425   8.292  0.8004  0.2455 -2.0248
  349MOL0     H47105  10.261   4.488   8.270 -0.0801  0.5869 -0.3305
  349MOL0     H47106  10.369   4.494   8.130 -1.0294 -1.2926  0.9880
  349MOL0     H47107  10.384   4.753   8.164 -1.8680  0.8774 -2.1909
  349MOL0     H47108  10.271   4.729   8.299  2.7284  0.8242  0.6624
  349MOL0     H47109  10.152   4.824   8.097  4.1461  1.8846  3.3094
  349MOL0     H47110  10.209   4.688   7.999  0.2352 -0.9757  0.4517
  349MOL0     H47111   9.879   4.554   8.245 -1.8934  1.8658 -1.6555
  349MOL0     H47112  10.645   4.431   8.460 -1.6354 -0.1974 -0.9883
  349MOL0     H47113  10.915   4.268   8.487 -0.8118 -1.7109  1.2293
  349MOL0     H47114  10.957   4.374   8.619  1.0184 -1.6826 -0.0429
  349MOL0     H47115  10.787   4.328   8.603  2.0764  1.8213  2.4935
  350MOL0     O47116  11.271   7.036   1.504 -0.4776  0.0086  0.2939
  350MOL0     C47117  11.254   6.921   1.473  0.3044  0.2271  0.5842
  350MOL0     O47118  11.348   6.843   1.413  0.7271 -0.3850  0.2458
  350MOL0     C47119  11.480   6.887   1.399  0.1323 -0.4432 -0.5580
  350MOL0     C47120  11.577   6.852   1.490  0.4732 -0.3486 -0.1075
  350MOL0     C47121  11.708   6.883   1.462 -0.5066  0.1989  0.5483
  350MOL0     C47122  11.753   6.939   1.343 -0.0417  0.6058  0.9854
  350MOL0     O47123  11.890   6.956   1.311  0.4289  0.3143 -0.9002
  350MOL0     C47124  11.928   7.053   1.219  0.6364  0.5082 -0.2447
  350MOL0     C47125  12.078   7.066   1.241  0.6658  0.0175 -0.7921
  350MOL0     C47126  12.116   7.133   1.370  0.6327  0.2425 -0.0818
  350MOL0     C47127  12.270   7.138   1.389  0.0855 -0.4861 -1.0122
  350MOL0     C47128  12.317   7.176   1.532  0.4339  0.5135 -0.6597
  350MOL0     C47129  12.463   7.184   1.536 -0.3179 -0.5142  0.0332
  350MOL0     C47130  12.518   7.200   1.684  0.5966  0.1051 -1.5273
  350MOL0     C47131  12.669   7.192   1.711  0.3014  0.9385  0.9629
  350MOL0     N47132  12.738   7.066   1.693 -0.3614 -0.1844 -0.1027
  350MOL0     C47133  12.711   6.968   1.781 -0.3147 -0.2928  0.6534
  350MOL0     C47134  12.819   6.884   1.769  0.4244  0.0765  0.4632
  350MOL0     C47135  12.851   6.772   1.860 -0.1122 -0.0920 -0.6446
  350MOL0     C47136  12.983   6.758   1.930  0.6774 -0.2632 -0.0259
  350MOL0     C47137  13.030   6.898   1.968 -0.1585  0.2458 -0.0011
  350MOL0     C47138  13.103   6.896   2.108  0.2203  0.0287 -0.5048
  350MOL0     O47139  13.141   7.031   2.141 -0.2836  0.8575  0.3150
  350MOL0     C47140  13.248   7.014   2.230  0.5622 -0.1344  0.2472
  350MOL0     C47141  13.224   7.057   2.360 -0.0485  0.6697 -0.3207
  350MOL0     C47142  13.334   7.081   2.447 -0.3538  0.4552 -0.5220
  350MOL0     C47143  13.466   7.043   2.403 -0.6154 -0.1381 -0.1141
  350MOL0     C47144  13.582   7.075   2.499 -0.4680  1.1577  0.2297
  350MOL0     O47145  13.688   6.992   2.484 -0.4447  0.2860 -0.7380
  350MOL0     C47146  13.812   7.030   2.548  0.3365 -0.3169 -0.4727
  350MOL0     C47147  13.863   7.161   2.585  0.4793 -0.0240 -0.3295
  350MOL0     C47148  13.986   7.166   2.649 -0.7372  1.3054  0.5064
  350MOL0     C47149  14.059   7.051   2.686  1.1232 -0.3240  0.0371
  350MOL0     O47150  14.175   7.064   2.758 -0.0536  0.2690  0.3727
  350MOL0     C47151  14.291   6.991   2.714 -0.0740  0.2907 -0.5721
  350MOL0     C47152  14.412   7.083   2.733 -0.3227 -0.4762 -0.8793
  350MOL0     C47153  14.440   7.116   2.877  1.0489 -0.2725  0.1781
  350MOL0     C47154  14.474   6.985   2.956  0.4280  0.1187  0.3310
  350MOL0     C47155  14.599   6.908   2.916  0.8261 -0.3540  0.6297
  350MOL0     C47156  14.731   6.984   2.935 -0.3962 -0.4823 -0.1610
  350MOL0     C47157  14.769   6.993   3.084  0.7628 -1.0601  0.1607
  350MOL0     C47158  14.818   6.858   3.132  0.0379 -0.6754  0.3870
  350MOL0    Cl47159  14.866   6.864   3.307  0.1079 -0.0613 -0.0612
  350MOL0     C47160  14.009   6.926   2.655  0.4395 -0.1289  0.8543
  350MOL0     C47161  13.887   6.917   2.581  0.2880  0.1046 -0.0115
  350MOL0     O47162  13.574   7.172   2.571  0.1630  0.4170  0.7837
  350MOL0     C47163  13.487   6.991   2.274  0.9590 -0.4765 -0.4533
  350MOL0     C47164  13.375   6.980   2.187 -0.5062 -0.8743  0.1036
  350MOL0     N47165  12.903   6.929   1.664  0.8831  0.0136 -0.2391
  350MOL0     N47166  12.853   7.042   1.628  0.4459  0.2918  0.1490
  350MOL0     C47167  11.650   6.985   1.255 -0.5959 -0.2340 -0.1215
  350MOL0     C47168  11.523   6.957   1.289  0.1126 -0.9092  0.2744
  350MOL0     C47169  11.124   6.871   1.499 -0.2285  0.0973  0.5109
  350MOL0     C47170  11.119   6.733   1.529  0.3217 -0.2561  0.0558
  350MOL0     C47171  10.989   6.678   1.559 -0.0694  0.6858  0.6314
  350MOL0     C47172  10.870   6.742   1.558  0.7389 -0.2688 -0.6365
  350MOL0     O47173  10.746   6.680   1.583  0.1252 -0.2084  0.1890
  350MOL0     C47174  10.632   6.741   1.526 -0.3086 -0.4662  0.4357
  350MOL0     C47175  10.558   6.800   1.638  0.4782 -0.1721 -0.1050
  350MOL0     C47176  10.517   6.696   1.750 -0.2342 -0.2126  0.3348
  350MOL0     C47177  10.374   6.666   1.779 -0.1080 -0.5273 -0.9154
  350MOL0     C47178  10.296   6.646   1.652  0.6447 -0.3231  0.6774
  350MOL0     C47179  10.234   6.621   1.547 -0.7819 -0.4143  0.3565
  350MOL0     C47180  10.881   6.882   1.528  0.4438 -0.3949 -0.0207
  350MOL0     C47181  11.005   6.948   1.505  0.2884 -0.9296  0.0897
  350MOL0     C47182  10.996   7.092   1.475 -0.2177 -0.8240 -0.5011
  350MOL0     H47183  11.536   6.805   1.579  0.1737  1.6435  0.8859
  350MOL0     H47184  11.782   6.850   1.533  1.0383  4.0129  0.9318
  350MOL0     H47185  11.907   7.014   1.120 -0.1582  0.5374 -0.0897
  350MOL0     H47186  11.883   7.152   1.217  2.3231  1.2927 -0.7877
  350MOL0     H47187  12.117   7.126   1.157  0.7491 -0.4936 -1.1231
  350MOL0     H47188  12.128   6.970   1.227 -2.0833 -1.4872 -0.8614
  350MOL0     H47189  12.076   7.074   1.452  0.4097 -1.0469 -1.0941
  350MOL0     H47190  12.076   7.235   1.378  1.7948  0.6600  0.8252
  350MOL0     H47191  12.303   7.035   1.375 -2.5754 -1.2949 -1.7377
  350MOL0     H47192  12.309   7.203   1.310 -1.5597  3.1930  0.9645
  350MOL0     H47193  12.269   7.271   1.559  0.3269  1.0026 -2.4240
  350MOL0     H47194  12.281   7.104   1.605  1.8366  0.0017 -0.4403
  350MOL0     H47195  12.494   7.089   1.491  2.2453 -0.0012  0.5550
  350MOL0     H47196  12.508   7.267   1.481 -2.8570  0.5268 -0.6249
  350MOL0     H47197  12.477   7.118   1.744  3.1623 -0.7846 -0.8632
  350MOL0     H47198  12.485   7.296   1.725  2.2061  1.5164 -3.3614
  350MOL0     H47199  12.715   7.263   1.641 -0.2903  0.3360 -0.0774
  350MOL0     H47200  12.679   7.211   1.818  0.2559 -0.1181  1.1703
  350MOL0     H47201  12.637   6.966   1.860  0.1145  0.2414  1.0735
  350MOL0     H47202  12.775   6.775   1.939 -0.2409 -1.2455 -0.7032
  350MOL0     H47203  12.826   6.679   1.808  1.8231 -0.9886 -0.0836
  350MOL0     H47204  12.962   6.705   2.023 -0.4981  1.0592  0.4889
  350MOL0     H47205  13.063   6.703   1.880  1.0402 -0.5038  0.7999
  350MOL0     H47206  12.955   6.977   1.982  0.8791  1.0816  1.0514
  350MOL0     H47207  13.090   6.936   1.884 -2.0188  0.4927 -1.2823
  350MOL0     H47208  13.178   6.817   2.109 -1.9058 -2.1174  0.1260
  350MOL0     H47209  13.028   6.869   2.183  0.8451  0.9901  0.4802
  350MOL0     H47210  13.127   7.099   2.384 -0.3437 -0.0151 -0.3193
  350MOL0     H47211  13.318   7.140   2.537  1.0097 -0.6046  0.4505
  350MOL0     H47212  13.806   7.250   2.562 -0.2844 -0.2727  0.5344
  350MOL0     H47213  14.016   7.264   2.685  0.6390  1.0216  0.1740
  350MOL0     H47214  14.301   6.897   2.769  2.5233  0.0802 -1.2478
  350MOL0     H47215  14.277   6.967   2.608  0.8985 -0.7784 -0.4798
  350MOL0     H47216  14.503   7.036   2.694  0.4343 -0.9097  1.2571
  350MOL0     H47217  14.371   7.169   2.679 -0.3772  0.0030 -0.0955
  350MOL0     H47218  14.516   7.194   2.885 -0.9221  1.9130 -0.8909
  350MOL0     H47219  14.346   7.144   2.927 -0.5410 -3.4447 -0.7278
  350MOL0     H47220  14.390   6.916   2.951  0.6613 -0.0921 -1.3532
  350MOL0     H47221  14.479   7.017   3.060  1.4406  3.2060 -0.5415
  350MOL0     H47222  14.581   6.876   2.813  2.6958 -0.2239  0.2219
  350MOL0     H47223  14.602   6.813   2.970 -2.0607 -1.0892 -0.3177
  350MOL0     H47224  14.803   6.931   2.871 -1.1737 -1.0091 -0.6195
  350MOL0     H47225  14.731   7.082   2.887 -0.7489  1.4069  3.3838
  350MOL0     H47226  14.684   7.036   3.137  0.7826 -0.3744 -0.3433
  350MOL0     H47227  14.851   7.065   3.094  0.3354 -0.5511  0.0438
  350MOL0     H47228  14.744   6.778   3.137 -0.5118 -0.1232  1.3908
  350MOL0     H47229  14.904   6.832   3.070 -1.0678 -1.9480 -0.6538
  350MOL0     H47230  14.067   6.840   2.689  0.0733 -1.0802 -0.8224
  350MOL0     H47231  13.846   6.818   2.564 -0.5320  0.3635  0.3750
  350MOL0     H47232  13.582   6.949   2.242  0.4548 -3.8906  2.0376
  350MOL0     H47233  13.380   6.962   2.080 -1.7282  4.4412 -1.1553
  350MOL0     H47234  11.687   7.033   1.165 -0.9758  0.0652 -0.1200
  350MOL0     H47235  11.443   6.980   1.218 -1.5434 -1.0549  2.0090
  350MOL0     H47236  11.203   6.663   1.530 -0.1053 -0.8633 -2.0475
  350MOL0     H47237  10.990   6.574   1.589  2.5018  0.4526 -0.0162
  350MOL0     H47238  10.574   6.657   1.487 -0.6806 -0.8249  1.7154
  350MOL0     H47239  10.648   6.814   1.446  1.0371 -1.7530 -0.5225
  350MOL0     H47240  10.479   6.857   1.587  1.6558 -1.3458 -3.5564
  350MOL0     H47241  10.631   6.867   1.683  0.9980 -1.7909  1.5630
  350MOL0     H47242  10.564   6.731   1.842  0.8734 -0.4407 -0.1226
  350MOL0     H47243  10.576   6.606   1.729  1.8251  1.8867 -4.3191
  350MOL0     H47244  10.360   6.574   1.837  0.7998 -0.3862 -0.4584
  350MOL0     H47245  10.324   6.744   1.836 -1.1110 -0.6869 -1.5445
  350MOL0     H47246  10.190   6.609   1.450 -2.1170 -1.1186  1.0190
  350MOL0     H47247  10.794   6.946   1.526  0.8559  0.2925  1.7355
  350MOL0     H47248  11.047   7.108   1.380 -1.4950 -0.9638 -1.2363
  350MOL0     H47249  10.896   7.128   1.449  0.6744 -0.9354 -4.6433
  350MOL0     H47250  11.039   7.152   1.556 -1.2564 -1.4784  0.5809
  351MOL0     O47251   0.395  11.113   3.191 -0.6334  0.5586  0.5481
  351MOL0     C47252   0.368  10.997   3.210  0.4391 -0.2162 -0.7473
  351MOL0     O47253   0.449  10.910   3.271  0.5426 -0.0865 -0.5994
  351MOL0     C47254   0.586  10.922   3.267  0.0688  0.1615 -0.0713
  351MOL0     C47255   0.663  11.028   3.224  0.4577  0.3508  0.5301
  351MOL0     C47256   0.803  11.023   3.221 -0.3526  0.6310 -0.2450
  351MOL0     C47257   0.871  10.913   3.280 -1.2198  0.1045 -0.5951
  351MOL0     O47258   1.006  10.903   3.300  0.4143 -0.0726 -0.6228
  351MOL0     C47259   1.084  11.002   3.236  0.0251 -0.1896  0.0706
  351MOL0     C47260   1.228  10.967   3.247 -0.6287  0.0405 -0.3234
  351MOL0     C47261   1.284  10.877   3.134  0.3613 -0.7951  0.6014
  351MOL0     C47262   1.434  10.844   3.161 -0.1289  0.0520 -0.4151
  351MOL0     C47263   1.526  10.964   3.128  1.1310  0.7668 -0.7779
  351MOL0     C47264   1.671  10.924   3.112  0.1760 -0.4213 -0.7333
  351MOL0     C47265   1.746  11.063   3.113  0.2748  0.7523 -0.2788
  351MOL0     C47266   1.887  11.041   3.076 -0.3233  0.1356 -0.6767
  351MOL0     N47267   1.959  11.167   3.048  0.1860 -0.4895 -0.2071
  351MOL0     C47268   2.058  11.166   2.952  0.3096 -0.1273  0.8959
  351MOL0     C47269   2.102  11.291   2.934  0.0442  0.4119  0.1459
  351MOL0     C47270   2.194  11.336   2.825 -0.0208 -0.2520 -0.9653
  351MOL0     C47271   2.329  11.287   2.860 -0.2358  0.1245  0.0498
  351MOL0     C47272   2.403  11.347   2.980  0.9917 -0.1939 -0.4453
  351MOL0     C47273   2.541  11.283   2.995  0.1004 -0.1179  0.7688
  351MOL0     O47274   2.619  11.356   3.090  0.0333  0.1219  0.6946
  351MOL0     C47275   2.756  11.346   3.090  0.3020 -0.4510 -0.7665
  351MOL0     C47276   2.825  11.455   3.134 -0.5456 -0.1614 -0.4809
  351MOL0     C47277   2.963  11.461   3.146  0.2710  0.2496  0.5649
  351MOL0     C47278   3.040  11.343   3.114  0.4826  0.1562 -0.4672
  351MOL0     C47279   3.188  11.344   3.118 -0.1223  0.1453  0.1346
  351MOL0     O47280   3.255  11.243   3.062  0.0408 -0.4051  0.1527
  351MOL0     C47281   3.394  11.247   3.052  0.2050  0.2753  0.0412
  351MOL0     C47282   3.470  11.224   3.169 -0.3047  0.1026 -0.3262
  351MOL0     C47283   3.609  11.242   3.157 -0.6336 -0.2782  0.3467
  351MOL0     C47284   3.673  11.256   3.034  0.2614  0.2881  0.6141
  351MOL0     O47285   3.802  11.252   3.013 -0.0505  0.8661 -0.5868
  351MOL0     C47286   3.885  11.183   3.107 -0.4738 -0.5822 -0.6415
  351MOL0     C47287   4.010  11.119   3.052 -0.2287  0.1964  0.5393
  351MOL0     C47288   4.110  11.226   2.999  0.2380 -0.1324  0.2872
  351MOL0     C47289   4.222  11.158   2.925  0.9717 -0.0906  0.1658
  351MOL0     C47290   4.325  11.260   2.879 -0.5742  0.0708 -0.0689
  351MOL0     C47291   4.459  11.200   2.843 -0.3191  0.0904  0.4533
  351MOL0     C47292   4.559  11.313   2.803  0.7789 -0.0107  0.5984
  351MOL0     C47293   4.515  11.388   2.668 -0.6970 -0.3607  0.3436
  351MOL0    Cl47294   4.658  11.468   2.594  0.0417  0.4321 -0.2371
  351MOL0     C47295   3.595  11.275   2.922 -0.6559  0.4017 -0.0564
  351MOL0     C47296   3.459  11.270   2.933  0.5415  0.3177  0.3187
  351MOL0     O47297   3.239  11.440   3.177 -0.6011 -0.0741  0.2975
  351MOL0     C47298   2.970  11.228   3.074 -0.2853 -0.7393 -0.0063
  351MOL0     C47299   2.828  11.235   3.060  0.1985  0.0591  0.2307
  351MOL0     N47300   2.030  11.366   3.028 -0.1237 -0.4087 -0.2615
  351MOL0     N47301   1.948  11.293   3.092 -0.1173  0.2271  0.2583
  351MOL0     C47302   0.794  10.814   3.342 -0.8611  0.9176 -0.1314
  351MOL0     C47303   0.660  10.815   3.331  0.1864 -0.2836  0.4572
  351MOL0     C47304   0.231  10.962   3.189  0.3238 -0.1728  0.7808
  351MOL0     C47305   0.194  10.826   3.191 -0.4726 -0.5513 -0.4891
  351MOL0     C47306   0.071  10.786   3.158  0.4064 -0.7366 -0.9493
  351MOL0     C47307  -0.028  10.874   3.133 -0.0448  0.2098 -0.5836
  351MOL0     O47308  -0.151  10.839   3.094 -0.3480 -0.2182 -0.0547
  351MOL0     C47309  -0.200  10.707   3.090  0.1731 -0.8540 -0.6250
  351MOL0     C47310  -0.345  10.699   3.042  0.1590  0.0931  0.1656
  351MOL0     C47311  -0.380  10.546   3.025  0.0177 -0.5891  0.2995
  351MOL0     C47312  -0.488  10.529   2.920  0.4113  0.1617 -0.1523
  351MOL0     C47313  -0.618  10.573   2.980 -0.3696 -0.6519  0.0981
  351MOL0     C47314  -0.734  10.604   3.011  0.1350 -0.7830 -0.2122
  351MOL0     C47315  -0.001  11.008   3.138 -0.5111 -0.2542  0.7605
  351MOL0     C47316   0.130  11.052   3.159 -0.9265 -0.3285  0.8935
  351MOL0     C47317   0.138  11.205   3.149 -0.3330  0.8199  0.5715
  351MOL0     H47318   0.614  11.110   3.173 -0.0914 -1.8297 -2.7265
  351MOL0     H47319   0.849  11.111   3.178 -0.0702  0.4175 -0.3885
  351MOL0     H47320   1.051  11.005   3.132  1.6494  1.9849 -0.4613
  351MOL0     H47321   1.058  11.103   3.268 -1.4622  0.4361 -2.7906
  351MOL0     H47322   1.240  10.919   3.344 -1.3758 -0.9197 -0.6941
  351MOL0     H47323   1.296  11.052   3.251  3.2596 -2.7991 -0.6581
  351MOL0     H47324   1.272  10.926   3.037  3.5999 -1.2567 -0.1356
  351MOL0     H47325   1.230  10.782   3.122  0.1371 -0.7381  1.1482
  351MOL0     H47326   1.448  10.810   3.264 -1.2981  0.3017 -0.1627
  351MOL0     H47327   1.477  10.768   3.095 -0.2008  0.2047 -0.6386
  351MOL0     H47328   1.482  10.995   3.033 -3.5126 -2.6874 -0.1582
  351MOL0     H47329   1.510  11.047   3.198 -3.1565  0.1506 -0.7453
  351MOL0     H47330   1.705  10.860   3.194  0.2179  1.3229  0.6767
  351MOL0     H47331   1.690  10.870   3.019 -1.9730 -3.0477  0.2465
  351MOL0     H47332   1.743  11.116   3.209  2.1907  1.0868 -0.3713
  351MOL0     H47333   1.697  11.131   3.042 -1.1290  0.5004  0.4248
  351MOL0     H47334   1.937  10.992   3.160 -0.0986 -0.3317 -1.0834
  351MOL0     H47335   1.901  10.966   2.998 -0.4949  0.7260 -1.2896
  351MOL0     H47336   2.089  11.080   2.894 -1.7568 -0.0877 -0.3830
  351MOL0     H47337   2.180  11.284   2.730  1.1513 -1.8085 -0.3226
  351MOL0     H47338   2.189  11.445   2.821  0.4915 -0.1342  0.7319
  351MOL0     H47339   2.331  11.178   2.869 -0.2582 -0.0026 -1.2526
  351MOL0     H47340   2.383  11.307   2.767  0.3000 -0.2227  0.2791
  351MOL0     H47341   2.343  11.329   3.069 -0.1231 -2.0625 -1.5092
  351MOL0     H47342   2.414  11.455   2.971  3.4913 -0.3266  0.3077
  351MOL0     H47343   2.591  11.288   2.897  0.8492  0.1527  1.1527
  351MOL0     H47344   2.524  11.176   3.007  1.1206 -0.5255 -1.0027
  351MOL0     H47345   2.775  11.548   3.160  1.7259  1.5354 -1.8291
  351MOL0     H47346   3.012  11.550   3.184 -0.4925  0.6259  0.6912
  351MOL0     H47347   3.426  11.225   3.269 -2.7107 -2.9456 -1.2010
  351MOL0     H47348   3.673  11.258   3.243  0.0190  2.0029 -0.4900
  351MOL0     H47349   3.908  11.267   3.173  0.0323 -0.8685 -0.4441
  351MOL0     H47350   3.829  11.104   3.157  0.5713 -1.1231 -0.2754
  351MOL0     H47351   4.066  11.053   3.118  1.7537 -0.3778 -1.5955
  351MOL0     H47352   3.978  11.061   2.965  0.6813  0.7872 -0.2107
  351MOL0     H47353   4.061  11.288   2.923 -3.4984 -0.4835  2.1976
  351MOL0     H47354   4.152  11.290   3.077  2.2022  0.4224 -1.1401
  351MOL0     H47355   4.190  11.106   2.834 -0.5812  1.8523 -0.4602
  351MOL0     H47356   4.267  11.087   2.995  0.4788 -1.0783 -0.4994
  351MOL0     H47357   4.338  11.340   2.952  0.2505 -1.7655  1.8845
  351MOL0     H47358   4.287  11.314   2.791  1.7783  1.7768 -0.1203
  351MOL0     H47359   4.495  11.149   2.933 -0.3459  0.2249  0.5393
  351MOL0     H47360   4.448  11.127   2.761 -1.6179 -2.1460  2.4785
  351MOL0     H47361   4.657  11.266   2.797  1.2959  1.1923 -1.1469
  351MOL0     H47362   4.562  11.387   2.884  1.5006 -2.3856  2.9105
  351MOL0     H47363   4.476  11.312   2.600 -1.9865  0.3848  0.2201
  351MOL0     H47364   4.431  11.457   2.675  0.1059  0.7035 -0.1876
  351MOL0     H47365   3.639  11.289   2.824  0.7322 -0.2433  0.4466
  351MOL0     H47366   3.387  11.290   2.854 -0.0633  1.3679  1.1074
  351MOL0     H47367   3.024  11.139   3.043 -0.1779 -1.2014  1.4551
  351MOL0     H47368   2.783  11.143   3.024 -0.5299  0.3367  0.4105
  351MOL0     H47369   0.847  10.733   3.392  1.7369  0.9093 -2.6077
  351MOL0     H47370   0.593  10.736   3.365 -1.3622  0.7883 -0.0016
  351MOL0     H47371   0.269  10.748   3.196 -0.9811 -1.1381 -1.6344
  351MOL0     H47372   0.067  10.677   3.156  5.6093 -1.2410  0.2964
  351MOL0     H47373  -0.187  10.666   3.191 -1.3447 -0.6379 -0.3153
  351MOL0     H47374  -0.141  10.650   3.017 -0.4287  0.0733 -1.8693
  351MOL0     H47375  -0.340  10.733   2.938  0.7184  0.9484  0.4600
  351MOL0     H47376  -0.416  10.756   3.103 -1.6330 -0.4325 -1.3266
  351MOL0     H47377  -0.417  10.516   3.123  2.5389 -0.4265  1.3877
  351MOL0     H47378  -0.306  10.472   2.992 -0.5362 -2.7063  3.4404
  351MOL0     H47379  -0.461  10.587   2.831 -0.2371  1.7219  0.6153
  351MOL0     H47380  -0.496  10.424   2.893  0.6579  0.4758 -1.5352
  351MOL0     H47381  -0.836  10.627   3.035 -0.0915 -2.5880  0.6567
  351MOL0     H47382  -0.077  11.072   3.095 -0.0860  0.0039  0.3862
  351MOL0     H47383   0.204  11.236   3.067  0.8294  2.4720  2.0510
  351MOL0     H47384   0.040  11.253   3.135 -1.2995 -1.3011 -0.4034
  351MOL0     H47385   0.192  11.247   3.234 -0.4343  4.0715 -0.7947
  352MOL0     O47386   3.255   4.499   0.482 -0.2436  0.9571 -0.6296
  352MOL0     C47387   3.233   4.399   0.555  0.2674 -0.0644 -0.3198
  352MOL0     O47388   3.324   4.303   0.578 -1.2730  0.4226  0.1440
  352MOL0     C47389   3.441   4.305   0.499  0.8712 -0.2943  0.5792
  352MOL0     C47390   3.519   4.416   0.456  0.0813 -1.7275 -0.1441
  352MOL0     C47391   3.621   4.403   0.363  0.1775  0.2615  0.1892
  352MOL0     C47392   3.663   4.276   0.326 -0.7677 -0.2139 -0.1943
  352MOL0     O47393   3.780   4.244   0.257 -0.0266 -0.9382 -0.1771
  352MOL0     C47394   3.812   4.337   0.153 -0.6606  0.3767  0.2220
  352MOL0     C47395   3.913   4.274   0.058  0.5215  0.2333  0.4022
  352MOL0     C47396   3.848   4.155  -0.015  0.2515 -0.6072 -0.2526
  352MOL0     C47397   3.970   4.083  -0.080  0.1021  0.5322 -0.7386
  352MOL0     C47398   3.934   4.018  -0.212  0.5987  0.4980 -0.2389
  352MOL0     C47399   4.063   3.956  -0.269 -0.2212  0.7082  0.9212
  352MOL0     C47400   4.039   3.889  -0.413 -0.4069 -0.1615 -0.0285
  352MOL0     C47401   4.169   3.849  -0.492  0.5568 -0.5147 -0.5698
  352MOL0     N47402   4.224   3.728  -0.438  0.2669  0.6894  0.1543
  352MOL0     C47403   4.286   3.704  -0.318 -0.3160  0.2553 -0.0515
  352MOL0     C47404   4.332   3.572  -0.327  0.5816  0.1870 -0.8199
  352MOL0     C47405   4.411   3.513  -0.213 -0.0950  0.0887 -0.6580
  352MOL0     C47406   4.533   3.435  -0.260 -0.8620  0.4659  0.2865
  352MOL0     C47407   4.575   3.325  -0.163 -0.2807 -0.0039  0.1447
  352MOL0     C47408   4.717   3.281  -0.195  0.3215 -0.1029 -0.5591
  352MOL0     O47409   4.746   3.170  -0.110 -0.4962  0.0895  0.6705
  352MOL0     C47410   4.883   3.121  -0.113 -0.5570 -0.2429  0.0841
  352MOL0     C47411   4.986   3.189  -0.182  0.5773  0.1103 -0.3334
  352MOL0     C47412   5.110   3.116  -0.191 -0.0547  0.6777 -0.7074
  352MOL0     C47413   5.127   2.983  -0.135 -0.8812 -0.2883 -0.5180
  352MOL0     C47414   5.250   2.908  -0.171 -0.1911  0.4141  0.5673
  352MOL0     O47415   5.367   2.963  -0.206 -0.0215 -0.6774  0.4407
  352MOL0     C47416   5.467   2.891  -0.246 -0.5806  0.3445 -0.9221
  352MOL0     C47417   5.551   2.818  -0.151  0.2134 -0.8890 -0.2376
  352MOL0     C47418   5.665   2.749  -0.180  0.0497  0.3450  0.2547
  352MOL0     C47419   5.701   2.740  -0.317 -0.7517  0.6866 -0.5252
  352MOL0     O47420   5.816   2.664  -0.349  0.1683 -0.9839 -0.5480
  352MOL0     C47421   5.929   2.682  -0.262  0.2489 -0.1939  0.0888
  352MOL0     C47422   6.048   2.635  -0.351  0.1327  0.4931  0.0419
  352MOL0     C47423   6.174   2.637  -0.258 -0.2817 -0.4343  0.8209
  352MOL0     C47424   6.287   2.575  -0.338 -0.3657 -0.1085  0.0155
  352MOL0     C47425   6.421   2.550  -0.262  0.3101  0.6217  0.1174
  352MOL0     C47426   6.412   2.471  -0.124 -0.4828  0.6748 -0.5488
  352MOL0     C47427   6.551   2.440  -0.065  0.2763  0.0702  0.7186
  352MOL0     C47428   6.549   2.343   0.057 -0.4175 -0.4505  0.5432
  352MOL0    Cl47429   6.480   2.191   0.014  0.2211 -0.1031 -0.0705
  352MOL0     C47430   5.615   2.797  -0.418  0.5826 -0.0470  0.3912
  352MOL0     C47431   5.502   2.884  -0.379 -1.2140  0.5026  0.1502
  352MOL0     O47432   5.232   2.786  -0.155 -0.2934 -0.3224 -0.6720
  352MOL0     C47433   5.024   2.926  -0.060  0.1667  0.5655 -0.5873
  352MOL0     C47434   4.906   3.000  -0.049  0.5889 -0.3628  0.1494
  352MOL0     N47435   4.302   3.528  -0.453  0.4886 -0.2150  0.3423
  352MOL0     N47436   4.238   3.622  -0.521 -0.6282 -0.4237  1.1005
  352MOL0     C47437   3.586   4.169   0.368  0.1091  0.8918 -0.3093
  352MOL0     C47438   3.467   4.181   0.439 -0.5994  0.2852  0.6221
  352MOL0     C47439   3.096   4.389   0.622 -0.6089  0.9826  0.1496
  352MOL0     C47440   2.988   4.465   0.562 -0.9496 -0.1298 -0.2965
  352MOL0     C47441   2.857   4.445   0.600 -0.4252  0.0368 -0.1758
  352MOL0     C47442   2.827   4.352   0.702  0.4275 -0.1416  0.7474
  352MOL0     O47443   2.700   4.318   0.751  0.0164 -0.1582  0.3393
  352MOL0     C47444   2.579   4.371   0.691 -0.1469  0.0756  0.7028
  352MOL0     C47445   2.453   4.302   0.749 -0.6272 -0.4800 -0.7852
  352MOL0     C47446   2.461   4.144   0.746 -0.0950 -0.5567 -0.2732
  352MOL0     C47447   2.355   4.068   0.822 -0.2565  0.0764 -0.0038
  352MOL0     C47448   2.216   4.107   0.779 -0.8414 -0.6618 -0.4493
  352MOL0     C47449   2.104   4.139   0.755 -0.1822 -0.0033 -0.2314
  352MOL0     C47450   2.929   4.291   0.767  0.5255  0.6277 -0.1663
  352MOL0     C47451   3.062   4.314   0.738 -0.5404  0.3250  0.2883
  352MOL0     C47452   3.163   4.243   0.816 -0.5381  0.7693  0.1407
  352MOL0     H47453   3.490   4.517   0.485  2.1388 -0.5072 -2.0357
  352MOL0     H47454   3.668   4.500   0.347  0.3515 -0.3287 -3.8374
  352MOL0     H47455   3.717   4.359   0.103 -1.6125 -3.8199 -0.1744
  352MOL0     H47456   3.859   4.426   0.195 -0.5718  0.1649  0.5829
  352MOL0     H47457   4.010   4.255   0.104  0.3822  1.4760  1.2751
  352MOL0     H47458   3.943   4.353  -0.011  0.1031  0.9761  1.0607
  352MOL0     H47459   3.778   4.190  -0.091  1.7702  2.6162 -0.3178
  352MOL0     H47460   3.796   4.100   0.064  1.2963  0.8941  1.5745
  352MOL0     H47461   4.047   4.157  -0.103  0.7533  0.6092  1.4748
  352MOL0     H47462   4.012   4.016  -0.004 -0.7307  2.2558  1.3584
  352MOL0     H47463   3.863   3.935  -0.207 -1.9994  2.6221  0.6797
  352MOL0     H47464   3.898   4.086  -0.290  1.3149  0.8394 -0.2832
  352MOL0     H47465   4.129   4.040  -0.293 -2.2183  1.5376 -2.3386
  352MOL0     H47466   4.105   3.881  -0.203  0.5784 -0.8388 -1.2285
  352MOL0     H47467   3.987   3.962  -0.475  2.2301  2.0231  0.1467
  352MOL0     H47468   3.974   3.802  -0.405  0.0802 -0.6385 -0.9885
  352MOL0     H47469   4.131   3.832  -0.593  0.4246 -1.3953 -0.3789
  352MOL0     H47470   4.233   3.937  -0.504 -1.1339  0.7132 -1.0513
  352MOL0     H47471   4.310   3.773  -0.238  2.4794 -0.6858  0.0485
  352MOL0     H47472   4.445   3.594  -0.148 -1.1650  1.1194 -1.3177
  352MOL0     H47473   4.346   3.445  -0.158 -1.3392 -2.0089 -4.3324
  352MOL0     H47474   4.515   3.385  -0.356  0.0318 -1.0134  0.8642
  352MOL0     H47475   4.624   3.495  -0.267 -0.4039 -0.1719  0.6901
  352MOL0     H47476   4.525   3.229  -0.178  2.0471 -1.0811 -1.4331
  352MOL0     H47477   4.566   3.349  -0.057  3.6867  1.1076  0.3795
  352MOL0     H47478   4.789   3.360  -0.172 -0.2359  0.0260  0.7921
  352MOL0     H47479   4.713   3.256  -0.302 -1.2231  4.2061 -1.7369
  352MOL0     H47480   4.986   3.288  -0.227 -2.0449  0.9170  1.2692
  352MOL0     H47481   5.188   3.174  -0.239 -0.1453  2.1320  0.8109
  352MOL0     H47482   5.526   2.826  -0.045  2.0268  1.5333  0.1177
  352MOL0     H47483   5.734   2.714  -0.104  0.1023  0.9008  0.4646
  352MOL0     H47484   5.936   2.787  -0.232 -1.2442  0.2022 -0.8236
  352MOL0     H47485   5.916   2.620  -0.172  0.8583  0.6716  0.7870
  352MOL0     H47486   6.020   2.536  -0.388  2.0415  0.7441 -2.3208
  352MOL0     H47487   6.064   2.691  -0.443  1.0522 -0.4749 -0.4146
  352MOL0     H47488   6.193   2.740  -0.227 -0.6393 -0.2236  0.3554
  352MOL0     H47489   6.157   2.581  -0.166 -0.8186  1.3196  1.8415
  352MOL0     H47490   6.309   2.641  -0.422 -2.7014  2.3807  1.1972
  352MOL0     H47491   6.251   2.477  -0.370  0.3145  0.1220 -1.4960
  352MOL0     H47492   6.469   2.648  -0.253 -2.8958  2.3994 -0.5383
  352MOL0     H47493   6.485   2.491  -0.328 -0.0518 -0.2264  0.5113
  352MOL0     H47494   6.343   2.521  -0.056 -1.8427 -2.7097  0.7872
  352MOL0     H47495   6.366   2.372  -0.135 -0.2539  0.2493  1.7554
  352MOL0     H47496   6.589   2.537  -0.032 -0.0142 -0.3938  2.5211
  352MOL0     H47497   6.619   2.398  -0.139  3.0778  3.2909  1.1996
  352MOL0     H47498   6.651   2.317   0.085 -0.2646 -1.6911 -1.0399
  352MOL0     H47499   6.500   2.400   0.137  1.5913  2.0728  0.1068
  352MOL0     H47500   5.648   2.787  -0.521  0.0354  3.4239 -0.2733
  352MOL0     H47501   5.425   2.932  -0.439 -1.3029  0.3277  0.1244
  352MOL0     H47502   5.024   2.841   0.007  1.3593  2.0551  1.4244
  352MOL0     H47503   4.820   2.951  -0.003 -0.0134 -0.6070 -1.1954
  352MOL0     H47504   3.607   4.083   0.304 -1.0738  0.0552  0.3917
  352MOL0     H47505   3.412   4.093   0.471  0.1370 -0.1726  0.6817
  352MOL0     H47506   3.016   4.532   0.482  0.5639 -1.3258 -0.8205
  352MOL0     H47507   2.776   4.493   0.547 -1.6313 -1.0314  0.6580
  352MOL0     H47508   2.579   4.354   0.583  1.8993  0.4237  0.6153
  352MOL0     H47509   2.568   4.478   0.709 -4.1016 -0.0954  0.3540
  352MOL0     H47510   2.372   4.339   0.685  0.2627 -1.9717 -2.8917
  352MOL0     H47511   2.436   4.333   0.852 -0.0686 -0.0843 -0.8023
  352MOL0     H47512   2.558   4.111   0.786  1.0984  2.2822 -0.5678
  352MOL0     H47513   2.455   4.106   0.644 -2.1124 -2.0579  0.3434
  352MOL0     H47514   2.373   3.961   0.818  2.9896  0.5505 -1.5262
  352MOL0     H47515   2.369   4.093   0.928  1.0686 -0.8847  0.0694
  352MOL0     H47516   2.006   4.182   0.749 -1.3362 -2.4582  0.0640
  352MOL0     H47517   2.907   4.218   0.844 -0.6607 -2.4126 -3.1360
  352MOL0     H47518   3.191   4.141   0.786  1.9088  1.7803 -1.3230
  352MOL0     H47519   3.255   4.301   0.807 -0.6459  1.1447  1.3375
  352MOL0     H47520   3.145   4.242   0.924  0.0534  1.4589  0.2480
  353MOL0     O47521   3.059   6.619   2.943  0.3024  0.5243  0.3372
  353MOL0     C47522   3.026   6.583   2.828 -0.1134 -0.1193 -0.1880
  353MOL0     O47523   3.098   6.597   2.717 -0.6217 -0.2802 -0.2744
  353MOL0     C47524   3.232   6.612   2.721 -1.1417  1.1290 -0.2979
  353MOL0     C47525   3.328   6.562   2.823 -0.1217  0.1129 -0.1891
  353MOL0     C47526   3.462   6.591   2.822 -0.4602 -0.1949 -1.0304
  353MOL0     C47527   3.515   6.675   2.729  0.6483 -1.1190  0.6431
  353MOL0     O47528   3.645   6.710   2.739 -0.2505 -0.1638  0.8990
  353MOL0     C47529   3.717   6.765   2.630  0.2042 -0.1223  0.1069
  353MOL0     C47530   3.863   6.780   2.663  1.0326 -0.0010 -1.5935
  353MOL0     C47531   3.886   6.890   2.769 -0.7622  0.0585 -0.2299
  353MOL0     C47532   4.034   6.903   2.795  0.2972 -0.2401 -0.3271
  353MOL0     C47533   4.064   7.033   2.881 -0.3449  0.4941 -0.6090
  353MOL0     C47534   4.217   7.061   2.899 -1.1651  0.9029 -0.2892
  353MOL0     C47535   4.235   7.197   2.957 -0.2834 -0.1635  0.3983
  353MOL0     C47536   4.384   7.236   2.956  0.3947 -0.1882 -0.2397
  353MOL0     N47537   4.468   7.143   3.034 -0.5833  0.0555 -0.0600
  353MOL0     C47538   4.559   7.047   2.987  0.2659  0.2323  0.1173
  353MOL0     C47539   4.629   7.015   3.098  0.6137  0.6439  0.0848
  353MOL0     C47540   4.752   6.931   3.078 -1.4559 -0.3350  0.7819
  353MOL0     C47541   4.869   7.017   3.043 -0.2021 -0.2772  0.5028
  353MOL0     C47542   4.997   6.937   2.994  0.3934 -0.6500 -0.5157
  353MOL0     C47543   5.122   7.024   3.026  0.4667  0.2787  0.6720
  353MOL0     O47544   5.217   6.927   2.993 -0.2566  0.3727 -0.2214
  353MOL0     C47545   5.348   6.966   2.973  0.0093  0.2707  1.2503
  353MOL0     C47546   5.428   6.873   2.909 -0.3430 -0.2678  0.2106
  353MOL0     C47547   5.561   6.909   2.885 -0.2491 -0.2375  0.1725
  353MOL0     C47548   5.606   7.037   2.923 -0.5724 -0.4086  0.3101
  353MOL0     C47549   5.745   7.070   2.909  0.1485  0.4468  0.3653
  353MOL0     O47550   5.799   7.185   2.956  0.2659  0.5490  0.4258
  353MOL0     C47551   5.933   7.205   2.951  0.8380 -0.2140 -0.5082
  353MOL0     C47552   6.037   7.119   3.000  0.3383  0.7050 -0.3892
  353MOL0     C47553   6.164   7.165   3.003  0.2738 -0.9082 -0.9425
  353MOL0     C47554   6.202   7.295   2.959  0.5809 -0.2807 -0.8379
  353MOL0     O47555   6.336   7.334   2.950  0.1493 -0.0368  0.2658
  353MOL0     C47556   6.366   7.471   2.956  0.5165 -0.0879  0.3381
  353MOL0     C47557   6.507   7.503   2.998  0.1394  0.1863  0.2783
  353MOL0     C47558   6.591   7.450   2.881  0.4601 -0.1530 -0.1269
  353MOL0     C47559   6.684   7.559   2.823  0.5052 -0.4296 -0.5855
  353MOL0     C47560   6.611   7.645   2.713  0.7809 -0.7487  1.2356
  353MOL0     C47561   6.598   7.563   2.580  0.5130  0.7357 -0.4643
  353MOL0     C47562   6.556   7.651   2.469 -0.0321 -0.0883 -0.4295
  353MOL0     C47563   6.411   7.690   2.465 -0.1417 -0.2310  0.0842
  353MOL0    Cl47564   6.301   7.543   2.473  0.0388 -0.4693  0.3720
  353MOL0     C47565   6.096   7.387   2.926 -0.4613  0.2377  0.4819
  353MOL0     C47566   5.968   7.339   2.917 -0.7836 -0.0451  0.2558
  353MOL0     O47567   5.818   6.987   2.852 -0.8456 -0.2622  0.2411
  353MOL0     C47568   5.516   7.138   2.974 -0.5260  0.8548 -0.8105
  353MOL0     C47569   5.386   7.097   3.006 -0.7045  0.8625 -0.8200
  353MOL0     N47570   4.592   7.093   3.207 -1.3357  0.1660  0.0462
  353MOL0     N47571   4.494   7.165   3.161 -0.6367 -0.3272 -0.7373
  353MOL0     C47572   3.433   6.711   2.619 -0.1751  0.2675  0.6225
  353MOL0     C47573   3.294   6.678   2.615 -0.2485  0.7109  0.5845
  353MOL0     C47574   2.886   6.551   2.804  0.3343  0.0009 -1.3502
  353MOL0     C47575   2.818   6.576   2.681 -0.2634  0.2708  0.4917
  353MOL0     C47576   2.686   6.560   2.666  1.1529 -0.4623  0.0472
  353MOL0     C47577   2.605   6.511   2.765  0.8931 -0.0026  0.3239
  353MOL0     O47578   2.466   6.498   2.759  0.0261  0.0887  0.3391
  353MOL0     C47579   2.407   6.445   2.640 -0.1970 -0.5964  0.0967
  353MOL0     C47580   2.340   6.560   2.554 -0.0105 -0.0290 -1.3097
  353MOL0     C47581   2.358   6.539   2.401 -0.2670 -0.2305  0.6762
  353MOL0     C47582   2.263   6.435   2.346 -0.7624 -0.2667  0.4100
  353MOL0     C47583   2.297   6.303   2.393 -0.4703 -0.5256 -0.1266
  353MOL0     C47584   2.296   6.185   2.430 -0.2659 -0.2737 -0.1654
  353MOL0     C47585   2.668   6.474   2.874 -0.1126  0.9218  0.0178
  353MOL0     C47586   2.803   6.493   2.898 -0.2436  0.4392  1.1637
  353MOL0     C47587   2.861   6.452   3.030 -0.1651  0.4954  0.3084
  353MOL0     H47588   3.282   6.508   2.905 -2.0885  0.3898 -1.0389
  353MOL0     H47589   3.532   6.574   2.903  0.8396  1.0481 -1.8515
  353MOL0     H47590   3.699   6.700   2.544 -1.1054  0.3859 -0.0407
  353MOL0     H47591   3.677   6.865   2.611  0.6315  0.0990  0.3757
  353MOL0     H47592   3.920   6.811   2.576  1.3210 -0.1335 -1.4564
  353MOL0     H47593   3.910   6.687   2.700 -0.3944  0.8196  2.9645
  353MOL0     H47594   3.823   6.870   2.856 -2.6326 -4.3248 -2.2770
  353MOL0     H47595   3.854   6.986   2.729 -0.5063 -0.4067 -1.6397
  353MOL0     H47596   4.064   6.816   2.855 -3.9689 -0.5425  1.7720
  353MOL0     H47597   4.081   6.904   2.696  2.0707 -0.6758  0.4722
  353MOL0     H47598   4.034   7.112   2.812 -1.4624 -0.5885 -1.4174
  353MOL0     H47599   4.026   7.040   2.983  1.8716  2.0372  0.2073
  353MOL0     H47600   4.258   6.978   2.956 -1.0910 -0.5090 -2.3173
  353MOL0     H47601   4.257   7.060   2.797  0.1356 -0.1709  0.2084
  353MOL0     H47602   4.197   7.194   3.059 -2.0889  1.3576 -0.1750
  353MOL0     H47603   4.179   7.277   2.907  0.4738  0.2669  0.2326
  353MOL0     H47604   4.417   7.230   2.852 -0.6754 -0.2043 -0.5896
  353MOL0     H47605   4.382   7.333   3.006  0.2769 -1.4841  2.4319
  353MOL0     H47606   4.572   7.022   2.882 -1.1786 -0.7712  0.1450
  353MOL0     H47607   4.774   6.888   3.175  2.2787 -1.5773 -0.4397
  353MOL0     H47608   4.731   6.851   3.007 -0.4113  1.6191 -1.9542
  353MOL0     H47609   4.847   7.078   2.954  0.2019 -3.2532 -1.7916
  353MOL0     H47610   4.891   7.081   3.129 -1.9939  0.9278  0.1335
  353MOL0     H47611   4.992   6.919   2.887  1.0854  0.7066 -0.8052
  353MOL0     H47612   5.013   6.843   3.048  0.4435 -0.3471  0.0084
  353MOL0     H47613   5.127   7.056   3.131 -1.8008  0.5804  0.7474
  353MOL0     H47614   5.121   7.104   2.951 -0.7733  3.6168  3.9552
  353MOL0     H47615   5.385   6.778   2.880 -3.0756  1.5729 -2.4482
  353MOL0     H47616   5.636   6.839   2.849  1.0191  1.4518 -0.6177
  353MOL0     H47617   6.005   7.022   3.037  0.8534  1.0264  0.9371
  353MOL0     H47618   6.241   7.108   3.054  1.4417  0.6466 -0.8764
  353MOL0     H47619   6.346   7.506   2.855 -1.7602  2.4909  1.5493
  353MOL0     H47620   6.290   7.517   3.020 -1.3532 -1.0935 -1.0690
  353MOL0     H47621   6.529   7.610   2.998 -0.5097  0.3952  3.0629
  353MOL0     H47622   6.530   7.450   3.091  1.1467 -0.5014 -0.3437
  353MOL0     H47623   6.660   7.374   2.919 -0.9555 -1.9358 -0.9783
  353MOL0     H47624   6.532   7.397   2.806 -0.0899 -0.6519  0.6397
  353MOL0     H47625   6.774   7.507   2.789 -0.0828 -3.2775  1.8512
  353MOL0     H47626   6.722   7.628   2.899 -1.1443 -0.8050  0.6376
  353MOL0     H47627   6.663   7.740   2.698 -2.4665  1.2489  1.6033
  353MOL0     H47628   6.513   7.668   2.756  0.9839  1.0757  0.8184
  353MOL0     H47629   6.697   7.523   2.556 -0.5360 -3.7756  1.6752
  353MOL0     H47630   6.533   7.475   2.580  1.7220 -0.1885 -0.5991
  353MOL0     H47631   6.559   7.592   2.377 -0.7498 -1.0153  0.1214
  353MOL0     H47632   6.620   7.739   2.464  1.1080 -0.7744  1.0290
  353MOL0     H47633   6.378   7.770   2.532  2.4619  1.1817 -0.1912
  353MOL0     H47634   6.394   7.723   2.363  2.7151 -1.3935 -0.8609
  353MOL0     H47635   6.114   7.481   2.876 -2.7901  1.6398  2.0724
  353MOL0     H47636   5.894   7.404   2.871  1.0665  1.3875 -0.8769
  353MOL0     H47637   5.549   7.238   2.998 -1.6753  1.3587 -1.2622
  353MOL0     H47638   5.315   7.169   3.046 -0.1207  1.4082 -0.7453
  353MOL0     H47639   3.479   6.772   2.542  1.5844  2.0619  2.9578
  353MOL0     H47640   3.231   6.709   2.533  0.3452  1.6520  0.4620
  353MOL0     H47641   2.873   6.630   2.605 -1.1214  1.2676  0.5500
  353MOL0     H47642   2.636   6.588   2.573  1.0862 -0.6609  0.0220
  353MOL0     H47643   2.321   6.383   2.665 -1.2579  1.1109  0.8855
  353MOL0     H47644   2.483   6.386   2.589 -0.9532 -1.5762  0.0728
  353MOL0     H47645   2.383   6.652   2.595 -1.2034 -0.3629  0.8366
  353MOL0     H47646   2.236   6.576   2.583  0.1912 -0.8232 -0.0612
  353MOL0     H47647   2.459   6.503   2.381 -0.4884 -1.8502  2.2504
  353MOL0     H47648   2.356   6.634   2.347  2.2739 -0.9774 -0.8634
  353MOL0     H47649   2.165   6.471   2.379 -0.8371 -0.7808  0.7552
  353MOL0     H47650   2.260   6.435   2.237 -0.4932  1.5662  0.3582
  353MOL0     H47651   2.294   6.083   2.463 -1.2984  0.7939  3.5829
  353MOL0     H47652   2.606   6.426   2.950  0.1373  1.5857  0.6583
  353MOL0     H47653   2.794   6.388   3.088 -0.9338  0.7068 -0.3378
  353MOL0     H47654   2.956   6.397   3.021  0.1677  0.9832  0.7862
  353MOL0     H47655   2.884   6.541   3.089  0.6963 -0.7601  1.9931
  354MOL0     O47656   4.192   7.609  10.600  0.1832 -0.1451  0.3217
  354MOL0     C47657   4.142   7.528  10.685 -0.0975 -0.9362 -1.1145
  354MOL0     O47658   4.212   7.442  10.766  0.2328  0.1992  0.0653
  354MOL0     C47659   4.347   7.473  10.792 -0.3543 -0.5596  0.7708
  354MOL0     C47660   4.436   7.372  10.777 -0.5462  0.1757 -0.0841
  354MOL0     C47661   4.572   7.402  10.793  0.4882  0.1487  0.2615
  354MOL0     C47662   4.624   7.527  10.818 -0.3515  0.1426  0.0405
  354MOL0     O47663   4.759   7.545  10.832 -0.0009 -0.3709 -0.0241
  354MOL0     C47664   4.825   7.676  10.844 -0.3565  0.3564 -0.0589
  354MOL0     C47665   4.962   7.653  10.899  0.0473 -0.0620 -0.1635
  354MOL0     C47666   5.059   7.766  10.865 -0.0135  0.3091  0.4019
  354MOL0     C47667   5.206   7.719  10.887  0.5058 -1.0816  0.6216
  354MOL0     C47668   5.291   7.845  10.907  0.5875 -0.1938 -0.8249
  354MOL0     C47669   5.440   7.830  10.896  0.7360 -0.5661 -0.1105
  354MOL0     C47670   5.512   7.959  10.931 -0.0670  0.0402 -0.2130
  354MOL0     C47671   5.659   7.944  10.899  0.1580  0.1838  0.6792
  354MOL0     N47672   5.737   8.069  10.899 -0.8865  0.3102  0.0589
  354MOL0     C47673   5.794   8.139  10.789 -0.0574 -0.3825 -1.0526
  354MOL0     C47674   5.866   8.235  10.852 -0.5664 -1.0154  0.0980
  354MOL0     C47675   5.943   8.336  10.764 -0.5981 -0.4994 -0.4679
  354MOL0     C47676   6.102   8.313  10.748  0.3293 -0.4624  0.2016
  354MOL0     C47677   6.139   8.186  10.676 -0.2367  1.4109  0.2303
  354MOL0     C47678   6.288   8.148  10.679 -0.1824  0.4200 -0.4446
  354MOL0     O47679   6.366   8.229  10.585  0.3288 -0.4747  0.3289
  354MOL0     C47680   6.510   8.213  10.574  1.4232 -0.4778  0.2991
  354MOL0     C47681   6.578   8.307  10.496 -0.3840  0.8913  0.4015
  354MOL0     C47682   6.714   8.300  10.476  0.1349  0.6233 -0.4239
  354MOL0     C47683   6.786   8.196  10.539 -0.6783 -1.0953  0.0815
  354MOL0     C47684   6.934   8.194  10.516  0.0209  1.0717  0.8356
  354MOL0     O47685   6.982   8.265  10.417 -0.0124 -0.5953  0.2776
  354MOL0     C47686   7.119   8.267  10.406  0.4024  0.6543  0.9985
  354MOL0     C47687   7.185   8.161  10.339  0.8638  0.0319 -1.4265
  354MOL0     C47688   7.327   8.171  10.326  0.9863 -0.5105 -0.4683
  354MOL0     C47689   7.401   8.255  10.398 -0.5671 -0.6848  0.4458
  354MOL0     O47690   7.537   8.245  10.391 -0.7857  0.7558 -0.1341
  354MOL0     C47691   7.606   8.252  10.515  0.1068 -0.1443  0.2466
  354MOL0     C47692   7.749   8.224  10.471 -0.1824 -0.7721 -0.3539
  354MOL0     C47693   7.817   8.357  10.436  0.8778 -0.4802 -0.7246
  354MOL0     C47694   7.973   8.326  10.413 -0.0251 -0.0688 -0.4961
  354MOL0     C47695   8.069   8.443  10.374 -0.6180  0.4434  1.1195
  354MOL0     C47696   8.088   8.544  10.487 -0.0191 -1.2202  0.5792
  354MOL0     C47697   8.213   8.635  10.455 -0.8363 -0.1313  0.9220
  354MOL0     C47698   8.348   8.607  10.536  0.4896  0.0817 -0.2554
  354MOL0    Cl47699   8.417   8.440  10.499  0.5789  0.5649  0.0699
  354MOL0     C47700   7.332   8.354  10.468 -0.2332 -0.0786  0.0135
  354MOL0     C47701   7.194   8.361  10.471 -0.3731 -0.3226 -0.3441
  354MOL0     O47702   6.996   8.126  10.596 -0.1201 -0.5893  0.1065
  354MOL0     C47703   6.722   8.104  10.621  0.1443  0.5691  0.2001
  354MOL0     C47704   6.580   8.110  10.625  1.0234 -0.0596  0.0228
  354MOL0     N47705   5.852   8.225  10.985  0.7415  0.6845  0.3343
  354MOL0     N47706   5.771   8.131  11.020  0.4455  0.5360 -0.1346
  354MOL0     C47707   4.526   7.629  10.841 -0.4839  0.4340  0.0876
  354MOL0     C47708   4.393   7.602  10.834 -0.5041  0.4273  0.2676
  354MOL0     C47709   3.992   7.523  10.693  0.0254 -0.1674 -0.3818
  354MOL0     C47710   3.930   7.408  10.644  0.9208  0.1827 -0.8198
  354MOL0     C47711   3.793   7.386  10.664  0.8823 -0.6807 -0.3570
  354MOL0     C47712   3.712   7.480  10.722 -0.7177 -0.0471 -0.6858
  354MOL0     O47713   3.586   7.440  10.748 -0.1370  0.2834 -0.0606
  354MOL0     C47714   3.494   7.540  10.793  0.3113 -0.0925  0.4019
  354MOL0     C47715   3.355   7.475  10.816  0.3242  0.2685 -0.0277
  354MOL0     C47716   3.282   7.437  10.689  0.4772  0.1654  0.8975
  354MOL0     C47717   3.134   7.417  10.720  0.0982  0.2670  0.1859
  354MOL0     C47718   3.102   7.278  10.761  1.0401  0.0804  0.1522
  354MOL0     C47719   3.063   7.169  10.810  0.2313 -0.5473 -0.1902
  354MOL0     C47720   3.772   7.603  10.768  0.3252 -0.1887  0.3502
  354MOL0     C47721   3.909   7.618  10.751 -0.1652 -0.7029  0.1642
  354MOL0     C47722   3.971   7.751  10.780  0.1708 -0.1099  0.3030
  354MOL0     H47723   4.403   7.272  10.748 -1.9285 -0.0878  2.1464
  354MOL0     H47724   4.643   7.323  10.771  0.9310  1.0881 -2.0252
  354MOL0     H47725   4.840   7.707  10.740 -0.7794 -0.6050 -0.4250
  354MOL0     H47726   4.774   7.755  10.900 -1.6226  0.8690 -1.8234
  354MOL0     H47727   4.983   7.555  10.855  0.8122  0.7418 -1.6779
  354MOL0     H47728   4.954   7.639  11.007 -1.3902 -1.5951 -0.4139
  354MOL0     H47729   5.029   7.857  10.917 -2.3340  0.5761 -1.2798
  354MOL0     H47730   5.044   7.784  10.758 -3.4610 -0.9826  0.5581
  354MOL0     H47731   5.204   7.661  10.980 -1.1600 -1.1644  0.5632
  354MOL0     H47732   5.248   7.663  10.803  0.4044  0.3553 -0.4235
  354MOL0     H47733   5.258   7.929  10.846  1.6879  0.0940 -1.0429
  354MOL0     H47734   5.274   7.877  11.011 -3.6908  0.7850 -1.6189
  354MOL0     H47735   5.478   7.748  10.956  1.6854 -0.7897 -0.9910
  354MOL0     H47736   5.462   7.812  10.790  1.6089  1.2759 -0.2717
  354MOL0     H47737   5.500   7.992  11.035 -1.7624  2.2944 -1.0424
  354MOL0     H47738   5.470   8.039  10.869  1.5413  0.2473 -1.0799
  354MOL0     H47739   5.719   7.874  10.959 -0.6077 -3.3754 -2.3431
  354MOL0     H47740   5.668   7.902  10.798 -2.2725 -1.0962  0.9186
  354MOL0     H47741   5.781   8.127  10.682  0.3132  0.6404 -1.2162
  354MOL0     H47742   5.894   8.327  10.666  0.7577  1.3688 -1.3815
  354MOL0     H47743   5.923   8.439  10.795  2.0656  0.6145 -2.1446
  354MOL0     H47744   6.135   8.398  10.688  1.0913 -0.8800  0.0051
  354MOL0     H47745   6.143   8.310  10.849 -1.4533  1.2113  1.0190
  354MOL0     H47746   6.106   8.189  10.572  1.8267  1.9221 -0.4589
  354MOL0     H47747   6.086   8.102  10.722 -2.0732  3.4893  2.1657
  354MOL0     H47748   6.295   8.039  10.671 -1.4546  0.2937  0.0652
  354MOL0     H47749   6.329   8.166  10.779  0.3527  0.2390 -0.6260
  354MOL0     H47750   6.522   8.385  10.446  1.1660  1.2124 -0.9125
  354MOL0     H47751   6.771   8.373  10.418  0.4323  0.0148 -0.9065
  354MOL0     H47752   7.125   8.082  10.296 -1.8712  0.7906  0.7396
  354MOL0     H47753   7.369   8.103  10.253  1.1263 -0.6532 -0.2554
  354MOL0     H47754   7.593   8.348  10.565 -0.1838  0.3501 -0.7554
  354MOL0     H47755   7.572   8.173  10.583  1.3063 -0.8642  0.0458
  354MOL0     H47756   7.812   8.177  10.548  1.8539  2.3546  0.0932
  354MOL0     H47757   7.766   8.146  10.397  1.7184 -2.8790  2.0805
  354MOL0     H47758   7.774   8.401  10.346  0.4139 -0.0165 -0.2808
  354MOL0     H47759   7.817   8.433  10.514 -0.0830  1.5084 -2.5746
  354MOL0     H47760   7.978   8.267  10.321 -1.0356  0.4013 -0.8801
  354MOL0     H47761   8.005   8.281  10.507 -2.7464 -0.5082  0.3150
  354MOL0     H47762   8.035   8.492  10.282  0.3577 -1.8371 -0.5449
  354MOL0     H47763   8.161   8.389  10.350 -1.2341  0.0844 -0.6224
  354MOL0     H47764   8.005   8.615  10.486  0.8741 -0.1080  1.9814
  354MOL0     H47765   8.095   8.499  10.586  0.5027  0.4077  1.2959
  354MOL0     H47766   8.182   8.736  10.485 -1.3357 -0.4546  1.5166
  354MOL0     H47767   8.235   8.651  10.349  0.2461  2.6069  1.4768
  354MOL0     H47768   8.421   8.688  10.521 -0.9977  1.4060 -0.5403
  354MOL0     H47769   8.308   8.610  10.637 -3.8801 -3.8113 -1.5400
  354MOL0     H47770   7.388   8.429  10.523  2.2634 -1.2691 -0.7423
  354MOL0     H47771   7.152   8.450  10.517  1.2176 -0.6419  1.9041
  354MOL0     H47772   6.772   8.022  10.670 -0.5891  0.2633  0.4546
  354MOL0     H47773   6.522   8.030  10.670 -0.8853  2.5900  2.6226
  354MOL0     H47774   4.565   7.721  10.884  1.3371 -0.8231  1.2893
  354MOL0     H47775   4.332   7.687  10.863 -1.3837  1.2528 -3.4362
  354MOL0     H47776   3.988   7.319  10.621 -1.8322 -2.0631  0.1870
  354MOL0     H47777   3.742   7.298  10.624  2.4432 -0.7164 -2.3897
  354MOL0     H47778   3.477   7.623  10.723 -0.4914  0.3699  1.1173
  354MOL0     H47779   3.517   7.588  10.889 -3.0251  0.4498  1.0414
  354MOL0     H47780   3.304   7.552  10.875  0.3487 -0.7456  1.3694
  354MOL0     H47781   3.360   7.387  10.881 -3.4639  0.0960  0.2699
  354MOL0     H47782   3.317   7.354  10.627 -2.7017 -1.2782  0.8017
  354MOL0     H47783   3.290   7.519  10.617 -4.0712  0.0688  0.0025
  354MOL0     H47784   3.104   7.480  10.804  0.3324 -1.2623  1.4579
  354MOL0     H47785   3.082   7.450  10.630  1.7057  2.0894 -0.1460
  354MOL0     H47786   3.011   7.089  10.858  1.1129 -1.6603 -1.0176
  354MOL0     H47787   3.715   7.669  10.832 -1.8230 -0.7115 -0.9216
  354MOL0     H47788   4.037   7.748  10.867  2.2674  4.2117 -0.8362
  354MOL0     H47789   4.035   7.785  10.698  0.7829 -1.0443  0.3808
  354MOL0     H47790   3.891   7.822  10.800  0.7022  0.1825  1.4530
  355MOL0     O47791   5.520   6.616   6.225 -0.0975 -0.2176 -0.0941
  355MOL0     C47792   5.456   6.518   6.230  0.8305  0.8245  0.2653
  355MOL0     O47793   5.497   6.408   6.296  0.1735  0.5289  0.1240
  355MOL0     C47794   5.561   6.411   6.415  0.3749 -0.4453  0.2600
  355MOL0     C47795   5.630   6.297   6.457  0.2786 -0.4811  0.2883
  355MOL0     C47796   5.696   6.293   6.579  0.6042 -0.0543 -0.3362
  355MOL0     C47797   5.688   6.401   6.668 -0.1391  0.3902 -0.2873
  355MOL0     O47798   5.758   6.401   6.786  0.3212  0.6812 -0.1824
  355MOL0     C47799   5.729   6.287   6.869 -0.1287  0.0398  0.2457
  355MOL0     C47800   5.798   6.291   6.995 -0.3375  0.3753 -0.9187
  355MOL0     C47801   5.735   6.214   7.113  0.1753  0.7642 -0.1390
  355MOL0     C47802   5.616   6.288   7.173  0.2466 -0.4814  0.2639
  355MOL0     C47803   5.548   6.201   7.282  0.0075 -0.0158 -0.6365
  355MOL0     C47804   5.639   6.164   7.394 -0.5915  1.5419 -0.3707
  355MOL0     C47805   5.717   6.283   7.464  0.6369  0.4991  0.0521
  355MOL0     C47806   5.639   6.405   7.506 -0.2957  0.2312 -0.3042
  355MOL0     N47807   5.514   6.374   7.577  0.3170  0.4101 -0.4406
  355MOL0     C47808   5.378   6.392   7.546 -0.3548  0.9176  0.3358
  355MOL0     C47809   5.308   6.347   7.653 -0.0717 -0.5823  0.1516
  355MOL0     C47810   5.159   6.348   7.667  0.9719  0.2500 -0.1924
  355MOL0     C47811   5.097   6.488   7.692 -0.1051 -1.4543  0.3356
  355MOL0     C47812   4.951   6.495   7.740  0.3590  0.7570 -1.0676
  355MOL0     C47813   4.896   6.636   7.778 -0.1113 -0.0424  0.6845
  355MOL0     O47814   4.755   6.631   7.814 -0.4982  0.3537 -0.1136
  355MOL0     C47815   4.701   6.743   7.876 -0.4721 -0.5075 -0.4026
  355MOL0     C47816   4.739   6.875   7.852  0.1371 -0.0580 -1.5349
  355MOL0     C47817   4.698   6.981   7.935  0.0786  0.0207 -0.8446
  355MOL0     C47818   4.609   6.957   8.043 -1.1440  0.1093 -0.1658
  355MOL0     C47819   4.579   7.063   8.136  0.9882 -0.3742 -0.0546
  355MOL0     O47820   4.466   7.055   8.212 -0.4468  0.3685 -0.3949
  355MOL0     C47821   4.452   7.139   8.320 -0.0146 -0.1214 -0.6693
  355MOL0     C47822   4.550   7.190   8.405 -0.1199  0.4122 -0.0745
  355MOL0     C47823   4.515   7.252   8.526 -0.3348  0.1801  0.7898
  355MOL0     C47824   4.385   7.283   8.557 -0.0679  0.8376 -0.4173
  355MOL0     O47825   4.359   7.331   8.683 -0.2678  0.8190  0.2257
  355MOL0     C47826   4.230   7.326   8.733  0.7993  0.2069 -0.9216
  355MOL0     C47827   4.196   7.183   8.771  0.5683  0.3127 -0.1063
  355MOL0     C47828   4.060   7.187   8.841 -0.1954  0.1602  0.1840
  355MOL0     C47829   3.945   7.203   8.744  0.0604  0.3675 -0.5243
  355MOL0     C47830   3.807   7.184   8.823  0.1342 -0.9782 -0.9614
  355MOL0     C47831   3.778   7.276   8.946 -0.4419 -0.3245 -0.4334
  355MOL0     C47832   3.627   7.281   8.993  0.0936  0.4772  0.0718
  355MOL0     C47833   3.578   7.150   9.058 -1.0793 -0.4862 -0.5128
  355MOL0    Cl47834   3.413   7.171   9.125  0.2221 -0.1075 -0.5301
  355MOL0     C47835   4.292   7.253   8.460  0.4933 -0.3912 -0.4852
  355MOL0     C47836   4.319   7.175   8.351  0.1228 -0.2390  0.1868
  355MOL0     O47837   4.649   7.163   8.131 -0.6550  0.1452 -0.1136
  355MOL0     C47838   4.570   6.825   8.064  0.0328  0.5955 -0.3320
  355MOL0     C47839   4.612   6.718   7.987  0.0520  0.1333 -0.0817
  355MOL0     N47840   5.401   6.317   7.749  0.5896  0.3344 -0.0033
  355MOL0     N47841   5.520   6.328   7.704  0.7233  0.3608  0.0235
  355MOL0     C47842   5.616   6.515   6.629  0.0281 -0.4840  0.8045
  355MOL0     C47843   5.547   6.515   6.512  0.6706 -0.1357 -0.1273
  355MOL0     C47844   5.339   6.510   6.136 -0.0655  0.4726 -0.1618
  355MOL0     C47845   5.311   6.377   6.082 -0.5279  0.4931  0.2630
  355MOL0     C47846   5.202   6.355   5.988 -1.2587  0.1553  0.1606
  355MOL0     C47847   5.134   6.473   5.959  0.3613 -0.0279 -0.0444
  355MOL0     O47848   5.021   6.461   5.881  0.6175 -0.2825  0.0496
  355MOL0     C47849   4.913   6.370   5.921 -0.9844 -0.0037  0.3071
  355MOL0     C47850   4.810   6.468   5.985 -0.5002 -0.5130 -0.1377
  355MOL0     C47851   4.681   6.384   6.012  0.0315  0.0283 -0.3970
  355MOL0     C47852   4.565   6.451   6.077  1.4880  0.5421  0.0801
  355MOL0     C47853   4.532   6.563   5.999  0.9802  0.3296  0.2119
  355MOL0     C47854   4.491   6.662   5.929 -0.2875  1.5879 -0.6359
  355MOL0     C47855   5.174   6.608   5.994 -0.5218 -1.1001 -0.1357
  355MOL0     C47856   5.270   6.624   6.090 -0.0753 -0.0901  0.2794
  355MOL0     C47857   5.282   6.761   6.149 -0.4190 -0.2767 -0.1745
  355MOL0     H47858   5.626   6.211   6.391 -1.4797 -3.7726  4.2018
  355MOL0     H47859   5.758   6.206   6.591 -0.9296 -1.0854  0.5190
  355MOL0     H47860   5.624   6.289   6.900  0.3790 -0.1977  2.1285
  355MOL0     H47861   5.753   6.195   6.816 -1.7974 -0.3036  0.0316
  355MOL0     H47862   5.800   6.396   7.027 -0.5273 -0.6902  3.1685
  355MOL0     H47863   5.900   6.261   6.972  0.2978  2.6812 -1.4049
  355MOL0     H47864   5.821   6.207   7.180  1.1542  3.2867 -1.0284
  355MOL0     H47865   5.710   6.110   7.087 -1.8360 -0.0026  4.0392
  355MOL0     H47866   5.657   6.374   7.227  0.0290 -1.5625  2.2180
  355MOL0     H47867   5.548   6.333   7.099  2.2836  3.2733  0.4171
  355MOL0     H47868   5.462   6.256   7.321  1.1335  1.7002 -0.4491
  355MOL0     H47869   5.514   6.114   7.225  1.2720  0.4759 -2.2161
  355MOL0     H47870   5.572   6.117   7.467  2.3528 -3.2976 -0.3371
  355MOL0     H47871   5.704   6.082   7.361 -1.8162  0.6094 -0.5218
  355MOL0     H47872   5.800   6.324   7.405  1.7702 -1.3732  0.2421
  355MOL0     H47873   5.763   6.239   7.553  4.2593  0.1344 -1.7946
  355MOL0     H47874   5.692   6.456   7.587  1.6358 -0.3061 -1.1815
  355MOL0     H47875   5.626   6.477   7.425 -0.2248  1.0539  0.3999
  355MOL0     H47876   5.337   6.425   7.450 -2.4969 -0.0101  0.8618
  355MOL0     H47877   5.110   6.305   7.579  0.1494 -1.8374  1.2102
  355MOL0     H47878   5.132   6.281   7.749 -0.5189 -0.8687 -1.5207
  355MOL0     H47879   5.160   6.540   7.765 -0.0171 -0.6701 -0.2759
  355MOL0     H47880   5.110   6.535   7.594  2.7112 -0.1842  1.1949
  355MOL0     H47881   4.927   6.427   7.822 -1.7738  0.3419 -1.9561
  355MOL0     H47882   4.886   6.452   7.662 -0.0692 -2.9349  1.0724
  355MOL0     H47883   4.909   6.700   7.690  1.5172  0.5932  1.3487
  355MOL0     H47884   4.959   6.676   7.858 -1.3973  1.4790  1.0067
  355MOL0     H47885   4.806   6.896   7.769 -0.2034 -3.0360 -2.7150
  355MOL0     H47886   4.734   7.080   7.911  0.3506 -0.0872 -0.8808
  355MOL0     H47887   4.656   7.190   8.380  0.1948 -0.0093  1.1815
  355MOL0     H47888   4.585   7.286   8.602  0.2952 -1.2543  0.8872
  355MOL0     H47889   4.216   7.393   8.819  0.1629  2.3338 -2.5990
  355MOL0     H47890   4.158   7.365   8.660 -2.3991 -1.5128  1.0877
  355MOL0     H47891   4.194   7.119   8.682  1.7406 -0.8085  0.6378
  355MOL0     H47892   4.266   7.139   8.842 -0.9673 -0.8721  0.7470
  355MOL0     H47893   4.047   7.098   8.903  0.7646 -0.2023 -0.1059
  355MOL0     H47894   4.051   7.265   8.916  2.3826  0.0225  0.7490
  355MOL0     H47895   3.951   7.117   8.677 -2.4640 -1.3665  1.3353
  355MOL0     H47896   3.941   7.301   8.696 -0.0591  0.1561 -0.9492
  355MOL0     H47897   3.804   7.082   8.862  0.1007 -1.0891 -1.2522
  355MOL0     H47898   3.726   7.198   8.750 -1.0281 -0.9888  0.2851
  355MOL0     H47899   3.840   7.242   9.029 -1.8046 -1.5507  0.1249
  355MOL0     H47900   3.803   7.380   8.924 -0.8050  0.3947  2.1683
  355MOL0     H47901   3.559   7.310   8.912  0.0178 -0.2304 -0.1256
  355MOL0     H47902   3.623   7.349   9.078 -0.4537 -1.6944  1.9041
  355MOL0     H47903   3.579   7.074   8.979  0.6799  0.0309 -1.0319
  355MOL0     H47904   3.639   7.105   9.137  0.2434  0.5409 -0.9141
  355MOL0     H47905   4.192   7.293   8.470  0.0888 -1.3732 -0.4403
  355MOL0     H47906   4.239   7.155   8.281  1.4950 -0.9496 -1.2217
  355MOL0     H47907   4.509   6.797   8.149 -0.2983 -0.8937 -1.0177
  355MOL0     H47908   4.586   6.613   7.998  1.6431 -0.3910 -0.9665
  355MOL0     H47909   5.611   6.591   6.707 -3.1989  3.8656 -3.0912
  355MOL0     H47910   5.492   6.607   6.497  2.9856  1.2327 -0.8046
  355MOL0     H47911   5.362   6.287   6.115 -1.3596  0.2254  0.8540
  355MOL0     H47912   5.172   6.258   5.947  0.8319 -0.6869  0.5017
  355MOL0     H47913   4.939   6.294   5.996  0.1145  1.3192  1.3146
  355MOL0     H47914   4.883   6.320   5.828  0.9250  0.6498 -0.7277
  355MOL0     H47915   4.793   6.556   5.922  1.0600  1.8666  2.5691
  355MOL0     H47916   4.853   6.503   6.079 -2.6043  0.0945  0.6670
  355MOL0     H47917   4.717   6.306   6.081 -2.9324  0.3312  1.6687
  355MOL0     H47918   4.655   6.329   5.922 -0.2181 -2.3336  1.0399
  355MOL0     H47919   4.481   6.381   6.085  0.0489  2.4020  3.5285
  355MOL0     H47920   4.583   6.488   6.179  0.1444 -0.5544  0.7496
  355MOL0     H47921   4.436   6.733   5.871 -1.8701  0.5538 -0.4413
  355MOL0     H47922   5.108   6.687   5.959 -1.3636 -2.1732 -1.0310
  355MOL0     H47923   5.200   6.832   6.135 -1.4096 -1.5617 -1.1222
  355MOL0     H47924   5.309   6.742   6.253 -1.2412  1.1688  0.3258
  355MOL0     H47925   5.367   6.815   6.107 -0.9403  0.9079  0.2468
  356MOL0     O47926   4.576   5.195   5.162 -0.5789  0.1420 -0.0419
  356MOL0     C47927   4.509   5.142   5.074  0.6704  0.1216  0.0009
  356MOL0     O47928   4.551   5.027   5.002 -0.0914  0.6324 -0.8059
  356MOL0     C47929   4.684   5.008   5.000 -0.5412  0.1112 -0.1906
  356MOL0     C47930   4.764   5.028   4.884  0.8724 -0.2388  0.7725
  356MOL0     C47931   4.894   4.988   4.891  0.3018  0.0992  0.2593
  356MOL0     C47932   4.957   4.937   5.002  0.0036  0.2281  0.0769
  356MOL0     O47933   5.090   4.892   4.992 -0.7155  0.3949  0.4046
  356MOL0     C47934   5.147   4.822   5.107  0.4779  0.5701 -0.0450
  356MOL0     C47935   5.287   4.773   5.074  0.4311 -0.5103 -0.4623
  356MOL0     C47936   5.372   4.899   5.069 -1.5637 -0.2082  1.2196
  356MOL0     C47937   5.528   4.864   5.063  0.5602 -0.2731  0.2585
  356MOL0     C47938   5.616   4.988   5.024  1.7027 -0.4938 -0.1788
  356MOL0     C47939   5.763   4.953   5.016  0.0758 -0.2298 -0.2297
  356MOL0     C47940   5.835   5.013   4.897 -0.6659 -0.5742 -0.0619
  356MOL0     C47941   5.982   5.051   4.914 -0.2378  0.5228  0.1813
  356MOL0     N47942   6.071   4.958   4.851  0.0257 -0.1321  0.7508
  356MOL0     C47943   6.127   4.846   4.914 -0.4942  0.7640  0.4401
  356MOL0     C47944   6.214   4.798   4.825  0.0198  1.1133 -0.4550
  356MOL0     C47945   6.313   4.691   4.850  0.8375 -0.0516  0.5094
  356MOL0     C47946   6.453   4.749   4.853 -0.3073 -0.3745  0.4653
  356MOL0     C47947   6.571   4.659   4.895  0.5719  1.8865 -0.2716
  356MOL0     C47948   6.569   4.513   4.836 -0.1820  0.4611 -0.4044
  356MOL0     O47949   6.684   4.431   4.876  0.8272 -0.0186 -0.7652
  356MOL0     C47950   6.813   4.454   4.838 -0.0683 -0.8536  0.3772
  356MOL0     C47951   6.918   4.380   4.902 -0.9243  0.2677 -0.0704
  356MOL0     C47952   7.050   4.416   4.888 -0.1373 -0.7259  0.4943
  356MOL0     C47953   7.087   4.514   4.794 -0.0761  0.1100 -1.0835
  356MOL0     C47954   7.229   4.544   4.764  0.1893 -0.6397  0.0656
  356MOL0     O47955   7.321   4.452   4.807 -0.0228 -0.4683  0.2472
  356MOL0     C47956   7.454   4.471   4.791  0.3773 -0.3325 -0.0927
  356MOL0     C47957   7.507   4.535   4.680  0.0051 -0.3542  0.1556
  356MOL0     C47958   7.648   4.556   4.666  0.8062  0.5116  0.5641
  356MOL0     C47959   7.732   4.517   4.770 -0.1258  0.9005 -0.0635
  356MOL0     O47960   7.864   4.534   4.779 -0.9260 -0.0328  0.1824
  356MOL0     C47961   7.948   4.597   4.677  0.7355 -0.0342  0.3835
  356MOL0     C47962   8.094   4.586   4.699 -0.1540 -0.8811 -0.1348
  356MOL0     C47963   8.148   4.698   4.787 -0.8503  0.9371  0.1762
  356MOL0     C47964   8.292   4.672   4.827 -0.1246 -0.2567  0.1403
  356MOL0     C47965   8.368   4.804   4.877  0.0711  0.7724  0.2299
  356MOL0     C47966   8.326   4.843   5.024  0.0046  0.4679 -0.5663
  356MOL0     C47967   8.405   4.970   5.069 -0.3055 -0.0499  0.5266
  356MOL0     C47968   8.344   5.035   5.189  0.5778 -0.2974  0.3466
  356MOL0    Cl47969   8.335   4.922   5.322 -0.5042  0.1996  0.0934
  356MOL0     C47970   7.677   4.438   4.874 -0.0173 -1.0379 -0.0656
  356MOL0     C47971   7.544   4.416   4.886  0.2602  0.3087  0.0168
  356MOL0     O47972   7.255   4.654   4.718 -0.3652 -0.1066 -0.1772
  356MOL0     C47973   6.984   4.583   4.723 -0.2179 -0.2921 -0.2590
  356MOL0     C47974   6.854   4.562   4.752  0.0596  0.6731  0.0540
  356MOL0     N47975   6.188   4.854   4.699  0.5406 -0.6474  0.4141
  356MOL0     N47976   6.104   4.949   4.717 -0.6151  0.2663 -0.4086
  356MOL0     C47977   4.880   4.919   5.118  0.4835  0.2825 -0.3682
  356MOL0     C47978   4.743   4.956   5.120  0.0678  0.5386  0.2202
  356MOL0     C47979   4.379   5.190   5.053  0.5525 -0.1262 -0.0814
  356MOL0     C47980   4.323   5.149   4.933  0.0434 -0.7789  0.0396
  356MOL0     C47981   4.188   5.182   4.899 -0.4824 -0.9565  0.0172
  356MOL0     C47982   4.107   5.262   4.982 -0.1043 -0.3167  0.3547
  356MOL0     O47983   3.978   5.277   4.943  0.4325  0.0374 -0.2820
  356MOL0     C47984   3.887   5.380   4.998  0.1499 -0.4536 -0.7243
  356MOL0     C47985   3.813   5.354   5.127  0.0394 -0.0386 -1.0421
  356MOL0     C47986   3.740   5.218   5.106 -0.3070 -0.1901 -0.3558
  356MOL0     C47987   3.609   5.225   5.025  0.0128 -0.4956  0.5576
  356MOL0     C47988   3.594   5.105   4.934  0.1480 -1.1020  0.3997
  356MOL0     C47989   3.566   5.002   4.872  0.0241  0.1695  0.0538
  356MOL0     C47990   4.170   5.315   5.099  0.2359 -0.6046 -0.1961
  356MOL0     C47991   4.297   5.275   5.137 -1.3460  0.6554 -0.2657
  356MOL0     C47992   4.345   5.329   5.270  0.0138  0.4269  0.5984
  356MOL0     H47993   4.715   5.067   4.795  2.3336  1.4806  0.6679
  356MOL0     H47994   4.940   4.996   4.793 -0.4825  1.9094 -0.0006
  356MOL0     H47995   5.153   4.877   5.201  0.1734  1.1764 -0.3760
  356MOL0     H47996   5.085   4.736   5.134  2.2166 -0.9163 -0.5336
  356MOL0     H47997   5.303   4.705   4.989  2.2066 -0.9902  0.1968
  356MOL0     H47998   5.315   4.714   5.162 -0.2018  1.0262  0.8082
  356MOL0     H47999   5.359   4.968   5.153 -2.0044  0.0451  0.9450
  356MOL0     H48000   5.338   4.944   4.976  0.7810  0.4431  0.6334
  356MOL0     H48001   5.572   4.822   5.153  0.6175 -0.9483 -0.0794
  356MOL0     H48002   5.539   4.790   4.983 -2.1133 -1.3133  0.7469
  356MOL0     H48003   5.581   5.032   4.930  1.8625  1.1296  0.4919
  356MOL0     H48004   5.610   5.075   5.091 -1.3084 -0.5579 -0.2290
  356MOL0     H48005   5.810   4.999   5.104  0.7442 -0.0341 -0.6822
  356MOL0     H48006   5.781   4.845   5.016  1.1705 -0.0740  0.6267
  356MOL0     H48007   5.787   5.110   4.881  3.7797  1.8697 -0.2231
  356MOL0     H48008   5.813   4.963   4.802  0.4885  1.1797 -1.3123
  356MOL0     H48009   6.010   5.151   4.879  3.4776  0.0056  1.2414
  356MOL0     H48010   6.002   5.057   5.021 -3.1193  2.9303  0.7074
  356MOL0     H48011   6.100   4.819   5.016  0.0595 -1.7067 -0.0286
  356MOL0     H48012   6.300   4.642   4.947  4.0116 -2.4217 -0.0907
  356MOL0     H48013   6.311   4.609   4.778 -0.8116  2.0866 -2.0657
  356MOL0     H48014   6.486   4.808   4.767 -0.2840  0.3937  0.9819
  356MOL0     H48015   6.444   4.824   4.933 -0.2074  2.5936 -2.0972
  356MOL0     H48016   6.585   4.654   5.003 -2.0573 -2.6039  0.1096
  356MOL0     H48017   6.661   4.704   4.852 -0.5527  2.6391 -1.9429
  356MOL0     H48018   6.560   4.517   4.727  1.0792 -1.9918 -0.6756
  356MOL0     H48019   6.470   4.477   4.867 -0.6133  3.4361  2.2153
  356MOL0     H48020   6.895   4.291   4.958  1.7837 -1.9267 -2.1584
  356MOL0     H48021   7.127   4.369   4.948 -2.0670  0.7170  4.4765
  356MOL0     H48022   7.438   4.566   4.602 -2.0462 -4.0406  0.2238
  356MOL0     H48023   7.700   4.609   4.587  0.4441  2.0284  1.3125
  356MOL0     H48024   7.928   4.540   4.586  2.7136 -1.2269  0.6522
  356MOL0     H48025   7.927   4.703   4.658  2.4597  0.6991  2.2057
  356MOL0     H48026   8.119   4.494   4.752 -2.4107 -0.3809  1.9788
  356MOL0     H48027   8.140   4.586   4.600  1.7609 -0.1183  0.6906
  356MOL0     H48028   8.127   4.790   4.731  1.0591  2.0533  1.1720
  356MOL0     H48029   8.083   4.703   4.875  2.3126  1.8284  2.6667
  356MOL0     H48030   8.342   4.627   4.741  1.4189 -0.2186  0.9940
  356MOL0     H48031   8.283   4.595   4.904  0.2090 -0.1634  0.2716
  356MOL0     H48032   8.352   4.884   4.805 -3.0154 -0.0132 -0.0962
  356MOL0     H48033   8.475   4.783   4.881  0.3709  2.3398  2.7527
  356MOL0     H48034   8.220   4.867   5.029 -0.2504 -0.7725  1.0960
  356MOL0     H48035   8.348   4.762   5.095 -0.9525  0.2580 -0.4912
  356MOL0     H48036   8.401   5.035   4.981 -2.1555 -1.5424 -0.5726
  356MOL0     H48037   8.509   4.944   5.088 -0.8003 -1.5937  1.3294
  356MOL0     H48038   8.399   5.123   5.224  3.6371 -1.4643 -1.2211
  356MOL0     H48039   8.242   5.068   5.164  0.8303  0.4182  0.2483
  356MOL0     H48040   7.742   4.384   4.942  0.4042 -1.5154 -0.8445
  356MOL0     H48041   7.503   4.350   4.962  0.5800 -0.2752 -0.3054
  356MOL0     H48042   7.007   4.663   4.654  0.7453 -0.8263 -0.5715
  356MOL0     H48043   6.774   4.621   4.707 -0.9481 -0.6110  0.0948
  356MOL0     H48044   4.927   4.875   5.205  1.0186  0.2179 -0.6845
  356MOL0     H48045   4.696   4.962   5.217 -1.0815 -1.0770 -0.1867
  356MOL0     H48046   4.383   5.083   4.871  0.1608 -0.2789 -0.3883
  356MOL0     H48047   4.148   5.157   4.801  1.8473  0.0484 -1.2688
  356MOL0     H48048   3.814   5.402   4.920 -2.5551 -2.4224  1.0830
  356MOL0     H48049   3.954   5.464   5.019  0.1077 -0.2696 -1.3176
  356MOL0     H48050   3.744   5.437   5.146  0.3750  0.3381 -1.4406
  356MOL0     H48051   3.886   5.350   5.208  1.3898  0.5649 -2.1880
  356MOL0     H48052   3.717   5.174   5.204  2.2702  0.3559  0.5622
  356MOL0     H48053   3.818   5.147   5.075 -0.6289 -1.3904  1.4079
  356MOL0     H48054   3.524   5.233   5.094 -1.0731 -2.1809 -0.4984
  356MOL0     H48055   3.592   5.319   4.972 -2.2103 -1.3145 -0.3047
  356MOL0     H48056   3.562   4.915   4.811  2.8139  0.2154 -0.3083
  356MOL0     H48057   4.103   5.368   5.167 -1.6488 -1.7073 -1.1264
  356MOL0     H48058   4.375   5.249   5.338  4.4621  1.8756  0.6427
  356MOL0     H48059   4.425   5.403   5.271  1.0569 -0.6335  2.6529
  356MOL0     H48060   4.261   5.373   5.325  0.4520 -2.0515  3.5434
  357MOL0     O48061   4.875  11.091   1.060 -0.2238 -0.0188 -0.7323
  357MOL0     C48062   4.841  11.001   1.134  0.9612 -0.3737  0.8808
  357MOL0     O48063   4.901  10.971   1.249  0.4263 -0.0100  0.3457
  357MOL0     C48064   5.023  11.034   1.276 -0.0085  1.0706  0.3414
  357MOL0     C48065   5.133  10.950   1.313  0.3617 -1.1904  0.0065
  357MOL0     C48066   5.250  11.013   1.362 -0.1893  0.6484 -0.0088
  357MOL0     C48067   5.267  11.150   1.366 -0.3112 -0.5249  0.2177
  357MOL0     O48068   5.385  11.215   1.396  0.2329  0.0030  0.9806
  357MOL0     C48069   5.503  11.139   1.436  0.1669 -0.5899 -0.1805
  357MOL0     C48070   5.631  11.227   1.410  0.2128  0.3687  0.4458
  357MOL0     C48071   5.650  11.280   1.260  0.2266  0.6226  0.4843
  357MOL0     C48072   5.637  11.164   1.154 -0.0964  0.0718  0.6802
  357MOL0     C48073   5.727  11.201   1.026  0.5055  1.2100 -0.7733
  357MOL0     C48074   5.693  11.104   0.915 -0.8079 -0.4346  0.1140
  357MOL0     C48075   5.752  11.134   0.775  0.2959  0.2051  0.0728
  357MOL0     C48076   5.732  11.011   0.672 -0.0171 -0.0309 -0.5831
  357MOL0     N48077   5.784  11.037   0.538  0.6576  0.5433 -0.3459
  357MOL0     C48078   5.718  11.012   0.421 -0.2520  0.5030  0.3405
  357MOL0     C48079   5.812  11.017   0.324  0.2713 -0.6101  0.0598
  357MOL0     C48080   5.802  10.992   0.175 -0.2166  0.4226  0.1095
  357MOL0     C48081   5.881  10.873   0.122 -0.4967  0.5456  0.6836
  357MOL0     C48082   6.041  10.871   0.140  0.0415 -1.0333 -0.0630
  357MOL0     C48083   6.111  10.789   0.045  0.4934  0.6054  0.3504
  357MOL0     O48084   6.253  10.807   0.064 -0.0377  0.1212  0.1376
  357MOL0     C48085   6.333  10.733  -0.013 -0.2214 -0.0761 -0.3442
  357MOL0     C48086   6.297  10.666  -0.123  0.4560  0.0539 -0.2438
  357MOL0     C48087   6.385  10.587  -0.202  0.1533  0.4572 -0.5446
  357MOL0     C48088   6.520  10.582  -0.159 -0.6762  1.0297  0.2411
  357MOL0     C48089   6.608  10.496  -0.241 -0.9542  0.2634 -0.2691
  357MOL0     O48090   6.740  10.491  -0.199 -0.1211 -1.2185 -0.2625
  357MOL0     C48091   6.817  10.412  -0.274  0.6221 -0.4864 -0.5514
  357MOL0     C48092   6.862  10.294  -0.218 -0.6372 -0.2421 -0.4048
  357MOL0     C48093   6.959  10.222  -0.280 -0.2156  0.4942 -0.2701
  357MOL0     C48094   7.018  10.256  -0.402  0.0351 -0.4387  0.2890
  357MOL0     O48095   7.123  10.189  -0.458  0.1657 -0.0064  0.4021
  357MOL0     C48096   7.183  10.072  -0.395 -0.3175  0.2509  0.3857
  357MOL0     C48097   7.297  10.016  -0.485  0.5086  0.3582 -0.2508
  357MOL0     C48098   7.253   9.911  -0.584 -0.3674  0.3862  0.7800
  357MOL0     C48099   7.223   9.973  -0.726 -0.2416 -0.2893 -0.6690
  357MOL0     C48100   7.168   9.860  -0.812  0.9232  0.0298  0.1086
  357MOL0     C48101   7.007   9.837  -0.802  0.2135  0.5381  0.7472
  357MOL0     C48102   6.944   9.770  -0.922 -0.6804  0.5846 -0.4323
  357MOL0     C48103   7.036   9.659  -0.993  0.0565  0.0483  0.2801
  357MOL0    Cl48104   7.072   9.527  -0.872 -0.4014  0.6786  0.0588
  357MOL0     C48105   6.976  10.378  -0.463  0.7020 -0.0719 -0.1286
  357MOL0     C48106   6.878  10.453  -0.394  0.7007 -0.1439 -1.0217
  357MOL0     O48107   6.560  10.425  -0.333  0.7639 -0.1511 -0.5847
  357MOL0     C48108   6.568  10.656  -0.049 -0.2720  0.1744 -0.1367
  357MOL0     C48109   6.472  10.731   0.023 -0.4160 -0.3313  0.7897
  357MOL0     N48110   5.932  11.035   0.392  0.5426  0.2411 -0.1745
  357MOL0     N48111   5.913  11.053   0.516 -0.6073 -0.0725  0.5130
  357MOL0     C48112   5.151  11.226   1.331  0.2763 -0.2045  0.5490
  357MOL0     C48113   5.033  11.166   1.295  0.7881 -0.0656  0.0504
  357MOL0     C48114   4.720  10.917   1.090  0.0581 -0.1573  0.2515
  357MOL0     C48115   4.666  10.827   1.181  0.2327 -0.1927  0.4374
  357MOL0     C48116   4.544  10.765   1.152 -0.5689  0.0104 -0.2130
  357MOL0     C48117   4.477  10.785   1.040 -0.2830  0.8570 -0.0614
  357MOL0     O48118   4.364  10.703   1.025 -0.6602 -0.2888 -0.1795
  357MOL0     C48119   4.271  10.726   0.918 -0.0858 -0.0234 -0.1330
  357MOL0     C48120   4.156  10.628   0.938  0.3327  0.6291 -0.1996
  357MOL0     C48121   4.047  10.629   0.830  0.1871  0.4154  0.5749
  357MOL0     C48122   3.950  10.516   0.859  0.4225 -0.4181 -0.5114
  357MOL0     C48123   3.867  10.542   0.980  0.8126 -0.1389  0.2689
  357MOL0     C48124   3.808  10.556   1.082 -0.1847  0.2858 -0.4463
  357MOL0     C48125   4.523  10.868   0.940 -0.6964  1.3999 -0.7037
  357MOL0     C48126   4.648  10.931   0.958  0.7464 -0.2566  0.0721
  357MOL0     C48127   4.698  11.012   0.844 -0.3018 -0.2748  0.0580
  357MOL0     H48128   5.126  10.842   1.311  0.1681 -1.1873  0.3335
  357MOL0     H48129   5.328  10.941   1.383 -1.0369 -0.1095  0.6020
  357MOL0     H48130   5.506  11.117   1.543  1.0836 -2.4594 -0.5469
  357MOL0     H48131   5.508  11.043   1.383 -1.0859 -1.0288  0.4446
  357MOL0     H48132   5.725  11.173   1.428 -0.1452 -0.2284  0.5173
  357MOL0     H48133   5.628  11.314   1.477  0.7140  0.0278  0.9243
  357MOL0     H48134   5.740  11.340   1.245  1.2223 -0.4015  2.0032
  357MOL0     H48135   5.565  11.345   1.237 -2.0277 -3.0888 -2.8293
  357MOL0     H48136   5.677  11.076   1.206 -0.0169 -0.3495 -0.0838
  357MOL0     H48137   5.530  11.150   1.141  0.0258 -0.3489  0.1142
  357MOL0     H48138   5.717  11.304   0.992  3.3770  0.7641 -3.4211
  357MOL0     H48139   5.831  11.195   1.059 -0.0669  0.1149  0.9678
  357MOL0     H48140   5.718  11.002   0.945  0.9159  0.2263  1.0714
  357MOL0     H48141   5.585  11.112   0.897 -0.7538  0.1974  0.0478
  357MOL0     H48142   5.860  11.153   0.781  0.6568 -1.6597  0.1713
  357MOL0     H48143   5.710  11.224   0.729 -0.2639  0.5477  1.2156
  357MOL0     H48144   5.798  10.929   0.703  3.2891  2.3246 -0.8250
  357MOL0     H48145   5.627  10.981   0.672 -0.9224  2.6197  1.4226
  357MOL0     H48146   5.611  10.995   0.413 -0.5718  1.6980  1.6663
  357MOL0     H48147   5.702  10.960   0.144  1.1166 -1.5761 -2.6160
  357MOL0     H48148   5.835  11.083   0.122  0.9804 -0.0619 -0.0096
  357MOL0     H48149   5.831  10.780   0.150  0.6071 -0.5802 -0.8773
  357MOL0     H48150   5.862  10.876   0.014 -1.8741 -3.4017  0.6864
  357MOL0     H48151   6.078  10.844   0.240  2.8725  2.0612 -0.0936
  357MOL0     H48152   6.073  10.974   0.121 -0.1552 -0.6145  1.6535
  357MOL0     H48153   6.086  10.810  -0.059  3.4718 -0.6743 -0.7289
  357MOL0     H48154   6.088  10.683   0.056  0.8339  0.2401 -1.8946
  357MOL0     H48155   6.197  10.664  -0.167  0.8753 -3.2683 -1.2923
  357MOL0     H48156   6.368  10.535  -0.296  0.4157 -0.7717  0.0617
  357MOL0     H48157   6.807  10.257  -0.132 -0.3972 -2.5842 -1.1798
  357MOL0     H48158   6.992  10.142  -0.214 -1.4485  0.8382  0.8220
  357MOL0     H48159   7.237  10.096  -0.303 -0.6602  0.7810  0.4557
  357MOL0     H48160   7.101  10.001  -0.379 -1.0403  0.3816 -2.2532
  357MOL0     H48161   7.353  10.095  -0.536 -0.5070  1.0194 -0.3759
  357MOL0     H48162   7.363   9.965  -0.415 -0.9196 -1.6243 -0.2569
  357MOL0     H48163   7.321   9.825  -0.586 -3.2368 -2.0454 -1.7956
  357MOL0     H48164   7.162   9.863  -0.548 -0.1280 -0.4399  0.3122
  357MOL0     H48165   7.320  10.014  -0.757  0.8189 -1.1076  1.3401
  357MOL0     H48166   7.146  10.050  -0.719  1.8840  1.9504 -0.4463
  357MOL0     H48167   7.225   9.768  -0.799  3.1504  1.4260  0.8370
  357MOL0     H48168   7.185   9.896  -0.914  1.5758 -1.2789 -0.2679
  357MOL0     H48169   6.983   9.766  -0.723 -1.4255  0.9338  0.6445
  357MOL0     H48170   6.953   9.932  -0.793 -2.7411 -0.6333 -2.2411
  357MOL0     H48171   6.918   9.849  -0.993 -1.6008  0.8644  0.1922
  357MOL0     H48172   6.848   9.723  -0.899 -0.6626  1.0784  0.7156
  357MOL0     H48173   6.974   9.599  -1.061 -2.4852  1.0839  1.5438
  357MOL0     H48174   7.118   9.696  -1.055  0.5133  0.3094  1.0235
  357MOL0     H48175   7.029  10.411  -0.551  0.0494  1.7623  0.1233
  357MOL0     H48176   6.841  10.547  -0.433 -2.1001 -1.6396 -2.2245
  357MOL0     H48177   6.662  10.660   0.004 -2.0207  0.9090  3.1721
  357MOL0     H48178   6.500  10.799   0.103  1.9505 -1.4417  1.0119
  357MOL0     H48179   5.158  11.334   1.339  0.3077  0.0052 -1.7367
  357MOL0     H48180   4.951  11.237   1.305  1.9050  1.0189  1.9586
  357MOL0     H48181   4.726  10.806   1.269  0.3483 -0.5581  0.2762
  357MOL0     H48182   4.500  10.690   1.217 -0.1585 -2.9913 -3.1067
  357MOL0     H48183   4.312  10.700   0.820 -0.6101 -4.2559  0.5846
  357MOL0     H48184   4.240  10.830   0.911  0.7996  0.1492 -1.9808
  357MOL0     H48185   4.116  10.648   1.037  2.1146 -0.3814  0.7840
  357MOL0     H48186   4.205  10.531   0.946 -2.0631 -0.7839 -1.5387
  357MOL0     H48187   4.095  10.591   0.739  0.6692  1.3530  0.4365
  357MOL0     H48188   3.989  10.722   0.824  1.0519  0.9501  0.4521
  357MOL0     H48189   3.876  10.519   0.779 -0.9046  4.0509  0.5932
  357MOL0     H48190   3.992  10.415   0.858 -0.2669 -0.7667 -3.7992
  357MOL0     H48191   3.747  10.569   1.169  0.3133 -0.0872 -0.0331
  357MOL0     H48192   4.477  10.892   0.844 -3.3501  0.5721  0.2877
  357MOL0     H48193   4.808  11.011   0.842 -0.3012 -2.3287 -0.5756
  357MOL0     H48194   4.656  10.981   0.748 -1.8149 -1.2152  0.9938
  357MOL0     H48195   4.680  11.119   0.858 -0.1691 -0.2109 -0.2513
  358MOL0     O48196   5.896   9.922   3.041  0.2312 -0.1833 -0.2942
  358MOL0     C48197   5.871   9.955   3.163 -0.4952 -0.1929  0.6681
  358MOL0     O48198   5.962   9.955   3.271  0.4161 -0.4010  0.3147
  358MOL0     C48199   6.086   9.901   3.265  0.0723  0.0456  0.6736
  358MOL0     C48200   6.187   9.906   3.158 -0.6139 -0.3148 -0.2207
  358MOL0     C48201   6.316   9.859   3.175 -0.4544  0.6828 -0.5520
  358MOL0     C48202   6.353   9.810   3.304  0.4633 -0.1677 -0.3643
  358MOL0     O48203   6.482   9.778   3.345  0.6130  0.3174  0.2777
  358MOL0     C48204   6.593   9.809   3.260  1.1766  0.2720 -0.4808
  358MOL0     C48205   6.722   9.809   3.347  1.0324  0.4332  0.0028
  358MOL0     C48206   6.756   9.668   3.390  0.1897 -0.0389  0.1758
  358MOL0     C48207   6.885   9.667   3.481 -0.4987  0.2894  0.1955
  358MOL0     C48208   6.912   9.518   3.529  0.2321 -0.6887 -0.0986
  358MOL0     C48209   7.041   9.512   3.601 -0.4248 -0.9561 -0.1102
  358MOL0     C48210   7.073   9.375   3.654  0.0114 -0.0171  0.0740
  358MOL0     C48211   7.204   9.378   3.745  0.4482 -0.4027 -0.1035
  358MOL0     N48212   7.321   9.445   3.677  0.4871  0.4736  0.2636
  358MOL0     C48213   7.390   9.550   3.733 -0.8388 -0.0716 -0.3722
  358MOL0     C48214   7.507   9.563   3.650  0.8407 -1.1465  0.0327
  358MOL0     C48215   7.613   9.666   3.680 -0.3543  0.5216  0.0319
  358MOL0     C48216   7.763   9.618   3.653 -0.6357  0.6174  0.5577
  358MOL0     C48217   7.782   9.647   3.503  0.2455 -0.1584  0.5572
  358MOL0     C48218   7.919   9.591   3.452  0.7952 -0.0089 -0.2191
  358MOL0     O48219   8.020   9.655   3.528  0.4596  0.0336 -0.0472
  358MOL0     C48220   8.155   9.648   3.486 -0.1245  0.0829  0.0863
  358MOL0     C48221   8.220   9.760   3.441  0.9462  0.6169  0.2735
  358MOL0     C48222   8.352   9.745   3.396 -0.5689  0.1424  0.3484
  358MOL0     C48223   8.417   9.619   3.393 -0.2639  0.1279  0.3853
  358MOL0     C48224   8.556   9.606   3.341 -0.1251 -0.5468  1.3156
  358MOL0     O48225   8.635   9.715   3.349  0.5188  0.0727 -0.3458
  358MOL0     C48226   8.770   9.712   3.356 -0.9440  0.3419  0.1977
  358MOL0     C48227   8.838   9.611   3.423 -0.2379 -0.5753 -0.5580
  358MOL0     C48228   8.981   9.605   3.447 -0.4808 -0.1185  0.4523
  358MOL0     C48229   9.058   9.697   3.387  0.1052 -0.1896  1.2054
  358MOL0     O48230   9.194   9.686   3.395 -0.1484 -0.2645 -0.1807
  358MOL0     C48231   9.255   9.800   3.450 -0.1996 -0.9282  0.0595
  358MOL0     C48232   9.406   9.787   3.423  0.1492 -0.0407 -0.4950
  358MOL0     C48233   9.460   9.845   3.286 -0.2417 -0.2225  0.7941
  358MOL0     C48234   9.387   9.789   3.166  0.2297 -1.6136  0.6264
  358MOL0     C48235   9.442   9.861   3.039  0.0592 -0.3180 -0.4465
  358MOL0     C48236   9.414   9.797   2.903  0.8466 -0.0201  0.2573
  358MOL0     C48237   9.262   9.787   2.876 -0.0854  0.1753 -0.6116
  358MOL0     C48238   9.225   9.733   2.741 -0.4048 -0.9609  0.0753
  358MOL0    Cl48239   9.049   9.698   2.738 -0.0650 -0.2486  0.0422
  358MOL0     C48240   8.995   9.801   3.320 -0.2968 -0.9787  0.1647
  358MOL0     C48241   8.854   9.808   3.305 -0.5421 -0.2946  0.0147
  358MOL0     O48242   8.587   9.496   3.290 -0.2315  0.8397 -0.7346
  358MOL0     C48243   8.351   9.505   3.427 -0.6272  0.0358  0.5343
  358MOL0     C48244   8.217   9.522   3.480 -0.5048 -0.2903  0.2230
  358MOL0     N48245   7.494   9.480   3.548  0.4066  0.3474  0.1998
  358MOL0     N48246   7.391   9.403   3.570  1.0814 -0.2694  0.4132
  358MOL0     C48247   6.257   9.824   3.407 -0.1975  0.3163 -0.1234
  358MOL0     C48248   6.128   9.875   3.390  0.2951 -0.5573 -0.1815
  358MOL0     C48249   5.737   9.979   3.217 -0.1069 -1.0270 -0.1397
  358MOL0     C48250   5.719   9.940   3.350 -0.2987 -0.0803  0.1330
  358MOL0     C48251   5.608   9.972   3.419 -0.4396 -0.1091 -1.1524
  358MOL0     C48252   5.510  10.051   3.364 -0.2375  0.6409 -0.5682
  358MOL0     O48253   5.401  10.070   3.442 -0.1848 -0.4784  0.4744
  358MOL0     C48254   5.292  10.146   3.384  0.1858  0.1939  0.3786
  358MOL0     C48255   5.316  10.296   3.403 -0.5727 -0.4293  0.2623
  358MOL0     C48256   5.198  10.381   3.368 -0.6498  1.2182 -0.9069
  358MOL0     C48257   5.090  10.374   3.480  0.4627  0.2566  0.3031
  358MOL0     C48258   5.004  10.260   3.481  0.3432 -0.7506 -0.2582
  358MOL0     C48259   4.930  10.176   3.471 -0.1246  0.1421  0.8329
  358MOL0     C48260   5.518  10.086   3.230 -0.0265 -0.4845 -0.0524
  358MOL0     C48261   5.631  10.050   3.154  0.1667 -0.1743 -0.5249
  358MOL0     C48262   5.641  10.099   3.014 -0.1345  0.2784  1.0293
  358MOL0     H48263   6.166   9.929   3.054 -0.6192 -2.2065 -0.6799
  358MOL0     H48264   6.381   9.867   3.088 -0.1637  0.7581 -0.3305
  358MOL0     H48265   6.598   9.727   3.188 -1.4701  1.2468 -1.8916
  358MOL0     H48266   6.571   9.906   3.216 -1.4804  0.5575  1.2687
  358MOL0     H48267   6.706   9.874   3.433  2.2125  1.2301 -0.3595
  358MOL0     H48268   6.800   9.861   3.291 -0.7602  1.8847 -1.2535
  358MOL0     H48269   6.775   9.603   3.304  1.7235  2.2376 -1.3157
  358MOL0     H48270   6.677   9.637   3.460  0.1553  0.0590  0.1817
  358MOL0     H48271   6.973   9.710   3.432 -0.6170  1.7550  1.1888
  358MOL0     H48272   6.859   9.727   3.569  0.8568  2.2562 -0.6692
  358MOL0     H48273   6.827   9.476   3.583 -0.1928 -1.9111 -1.6309
  358MOL0     H48274   6.924   9.456   3.440 -0.0286 -2.4442  1.0293
  358MOL0     H48275   7.110   9.536   3.520 -1.2528 -0.7033 -0.7561
  358MOL0     H48276   7.047   9.589   3.679 -0.9922 -0.8054 -0.2113
  358MOL0     H48277   7.102   9.302   3.577 -0.1005 -0.7074  0.6670
  358MOL0     H48278   6.985   9.332   3.704  0.1027 -1.7059 -1.1341
  358MOL0     H48279   7.171   9.431   3.835 -0.5256 -0.8081 -0.2020
  358MOL0     H48280   7.238   9.278   3.772 -0.4772 -0.1683  2.1175
  358MOL0     H48281   7.371   9.614   3.819 -0.6975 -1.2369  0.5442
  358MOL0     H48282   7.599   9.756   3.619  0.5987 -0.0284 -1.0513
  358MOL0     H48283   7.621   9.684   3.787  1.7409 -2.8235  0.5950
  358MOL0     H48284   7.825   9.674   3.724 -2.0065  0.2093  2.1324
  358MOL0     H48285   7.778   9.512   3.675 -0.7922  0.8375  1.8538
  358MOL0     H48286   7.769   9.750   3.467 -1.5525 -0.5201  0.1238
  358MOL0     H48287   7.705   9.598   3.444 -1.4555  1.4164  1.3639
  358MOL0     H48288   7.938   9.611   3.347  0.0762  0.7420 -0.2197
  358MOL0     H48289   7.915   9.482   3.461 -2.5483  0.0148 -0.1436
  358MOL0     H48290   8.173   9.857   3.444  0.4168  0.4213 -1.0304
  358MOL0     H48291   8.387   9.836   3.348  0.0184 -0.2916 -0.0600
  358MOL0     H48292   8.776   9.535   3.470  1.3940 -0.9802  1.0499
  358MOL0     H48293   9.031   9.529   3.506  0.1359  0.5256  0.7679
  358MOL0     H48294   9.224   9.894   3.403  0.1406 -0.1666  1.3075
  358MOL0     H48295   9.236   9.797   3.558 -3.4129 -1.3305 -0.4137
  358MOL0     H48296   9.455   9.855   3.493 -1.6313  0.0897  0.6843
  358MOL0     H48297   9.452   9.690   3.442  3.0612  1.5349  1.1409
  358MOL0     H48298   9.452   9.954   3.297 -2.2257 -0.5258  3.1612
  358MOL0     H48299   9.569   9.831   3.280 -0.5068 -2.1568 -4.4390
  358MOL0     H48300   9.280   9.811   3.165  0.8854  2.3698  0.5116
  358MOL0     H48301   9.399   9.681   3.165 -2.4142 -2.0381  2.8884
  358MOL0     H48302   9.551   9.853   3.042  0.1107  0.2007 -0.8341
  358MOL0     H48303   9.420   9.967   3.027 -1.1313 -0.8485 -4.2793
  358MOL0     H48304   9.459   9.864   2.830 -1.0302  3.4591  2.0175
  358MOL0     H48305   9.470   9.704   2.900  1.8487  0.5786 -0.2071
  358MOL0     H48306   9.215   9.886   2.874 -1.1624 -0.0748  3.5406
  358MOL0     H48307   9.206   9.738   2.956 -0.4092  0.6653 -0.5338
  358MOL0     H48308   9.254   9.806   2.666  3.3793 -1.9070  0.3861
  358MOL0     H48309   9.278   9.638   2.725  1.2134 -0.0005 -0.4740
  358MOL0     H48310   9.048   9.882   3.271  0.3416 -1.4948 -0.0042
  358MOL0     H48311   8.817   9.888   3.242 -1.1925 -0.3369  0.3376
  358MOL0     H48312   8.391   9.405   3.414  1.1411  0.7476  0.2756
  358MOL0     H48313   8.152   9.441   3.507 -0.7403 -0.4254 -0.6933
  358MOL0     H48314   6.283   9.787   3.506 -0.3975  0.1384 -0.1349
  358MOL0     H48315   6.054   9.897   3.467  0.2262  0.4779 -0.5265
  358MOL0     H48316   5.799   9.883   3.395  0.9624  1.1126 -0.4970
  358MOL0     H48317   5.608   9.944   3.523  3.7635  2.0104 -0.3656
  358MOL0     H48318   5.215  10.119   3.457  0.3936 -2.8112 -0.3860
  358MOL0     H48319   5.259  10.106   3.288 -1.8530 -3.3814  2.3805
  358MOL0     H48320   5.396  10.334   3.338 -0.1023  0.6588  1.4446
  358MOL0     H48321   5.348  10.310   3.507 -1.8227 -1.9878  0.9029
  358MOL0     H48322   5.161  10.339   3.274  1.7981 -4.2454  0.1945
  358MOL0     H48323   5.246  10.479   3.366  3.0867 -0.4568 -2.1295
  358MOL0     H48324   5.136  10.374   3.580 -0.5602  1.8557  0.8225
  358MOL0     H48325   5.027  10.463   3.478 -3.0229 -2.0276  1.0274
  358MOL0     H48326   4.848  10.109   3.452 -1.6177  2.3210 -0.9407
  358MOL0     H48327   5.449  10.162   3.195  1.4938  1.2919  0.6574
  358MOL0     H48328   5.738  10.148   2.997  0.4108 -0.9413  0.5164
  358MOL0     H48329   5.651  10.019   2.941  0.5761  2.6535 -1.6808
  358MOL0     H48330   5.559  10.164   2.982  0.2273  0.3292  0.1541
  359MOL0     O48331   1.758  10.527   6.841  0.0378 -0.4021  0.2970
  359MOL0     C48332   1.658  10.519   6.910 -0.0014 -0.0943 -0.2158
  359MOL0     O48333   1.626  10.605   7.014  0.2730  0.2325  0.7525
  359MOL0     C48334   1.708  10.706   7.027 -0.2102 -0.0650  0.3665
  359MOL0     C48335   1.680  10.823   6.953 -0.3398 -0.7083  0.4675
  359MOL0     C48336   1.770  10.932   6.968 -0.3920 -0.0758 -1.2287
  359MOL0     C48337   1.892  10.919   7.033  1.0329  0.3492 -0.2067
  359MOL0     O48338   1.951  11.040   7.047  0.4835  0.2041 -0.2419
  359MOL0     C48339   2.082  11.041   7.108 -0.6159 -0.9642 -0.4905
  359MOL0     C48340   2.142  11.180   7.104 -0.7105  0.3174  0.4556
  359MOL0     C48341   2.267  11.184   7.186 -0.4305 -0.1521  0.0675
  359MOL0     C48342   2.355  11.304   7.167  0.5906 -0.1415 -0.0208
  359MOL0     C48343   2.480  11.296   7.255  0.0899 -0.2701 -0.1260
  359MOL0     C48344   2.542  11.430   7.275 -0.5385 -0.4960  0.0297
  359MOL0     C48345   2.658  11.415   7.371  0.4410 -0.0129 -0.6557
  359MOL0     C48346   2.791  11.392   7.304  0.8822  0.2497  0.2055
  359MOL0     N48347   2.909  11.435   7.386  0.2096 -0.5543  0.6334
  359MOL0     C48348   2.939  11.389   7.508  0.7161  0.0282  0.1629
  359MOL0     C48349   3.067  11.437   7.542  0.1495  0.3124 -0.1980
  359MOL0     C48350   3.124  11.428   7.676 -0.4190 -0.0746 -0.4294
  359MOL0     C48351   3.252  11.336   7.691 -0.5103 -0.2513 -1.0197
  359MOL0     C48352   3.310  11.345   7.829 -1.4321 -0.0682  0.0234
  359MOL0     C48353   3.222  11.279   7.937 -0.2865  0.3026 -0.2832
  359MOL0     O48354   3.274  11.304   8.069  1.0226 -0.7687 -0.0426
  359MOL0     C48355   3.406  11.264   8.101 -0.4202  0.7242 -0.2197
  359MOL0     C48356   3.508  11.350   8.124 -1.1160 -0.1583 -0.9620
  359MOL0     C48357   3.636  11.303   8.157 -0.2235 -0.7693  0.4143
  359MOL0     C48358   3.667  11.168   8.172 -0.0955 -0.3035 -0.7971
  359MOL0     C48359   3.801  11.127   8.209 -0.4263 -0.1990  0.0695
  359MOL0     O48360   3.903  11.219   8.202  0.0170 -0.3695  0.2333
  359MOL0     C48361   4.037  11.209   8.209  0.0893  1.2532  0.6916
  359MOL0     C48362   4.112  11.322   8.223 -0.3104 -0.5140  0.7854
  359MOL0     C48363   4.251  11.325   8.215 -0.4966  0.3969 -0.3477
  359MOL0     C48364   4.327  11.214   8.191 -0.5793  0.5793 -0.4219
  359MOL0     O48365   4.463  11.219   8.176  0.5522  0.1151 -0.3644
  359MOL0     C48366   4.529  11.146   8.277 -1.0384 -0.0797 -0.2031
  359MOL0     C48367   4.676  11.178   8.284 -0.0371 -0.8399 -0.1813
  359MOL0     C48368   4.768  11.106   8.180  0.1860  0.5218 -0.3378
  359MOL0     C48369   4.921  11.125   8.212  0.1888 -0.3303 -0.0099
  359MOL0     C48370   5.006  11.028   8.122 -0.5643  0.5221 -0.3087
  359MOL0     C48371   5.143  11.095   8.117  0.5601  0.1491  0.1682
  359MOL0     C48372   5.203  11.057   7.984  0.4758 -0.2981  0.7106
  359MOL0     C48373   5.353  11.019   7.987  0.1957  0.3087  0.4961
  359MOL0    Cl48374   5.462  11.163   7.973  0.3979 -0.1456  0.0145
  359MOL0     C48375   4.253  11.092   8.182 -0.7635  0.0828  0.8349
  359MOL0     C48376   4.117  11.095   8.182  0.8202 -0.6432  0.0983
  359MOL0     O48377   3.816  11.005   8.221  0.3134 -0.0177 -0.3244
  359MOL0     C48378   3.558  11.076   8.149 -0.5017 -0.6828 -0.0355
  359MOL0     C48379   3.438  11.124   8.112  0.2602 -0.2307 -0.0006
  359MOL0     N48380   3.112  11.510   7.435  0.7365  0.0355  0.2292
  359MOL0     N48381   3.015  11.524   7.355  0.0904  0.1006 -1.1774
  359MOL0     C48382   1.935  10.795   7.087  0.1263  0.7468 -0.5643
  359MOL0     C48383   1.836  10.694   7.090 -0.1245  0.0921 -0.1533
  359MOL0     C48384   1.557  10.402   6.885  0.0630  0.4841  0.1996
  359MOL0     C48385   1.597  10.306   6.785  0.1186 -0.5428 -0.0232
  359MOL0     C48386   1.513  10.193   6.768  0.0421 -0.1046  0.4775
  359MOL0     C48387   1.398  10.172   6.838  0.1385  0.1193  0.2220
  359MOL0     O48388   1.332  10.045   6.818  0.1187 -0.0193  0.2073
  359MOL0     C48389   1.214  10.016   6.901  0.8093 -0.4546 -0.5865
  359MOL0     C48390   1.162   9.877   6.853 -0.0492 -0.7872 -0.0637
  359MOL0     C48391   1.086   9.904   6.729 -0.0862  0.3440  0.6576
  359MOL0     C48392   1.002   9.780   6.684  0.2288 -0.0826 -0.6044
  359MOL0     C48393   1.080   9.686   6.609  0.6515 -0.0816  0.2462
  359MOL0     C48394   1.115   9.590   6.545 -0.1175  0.5306 -0.8594
  359MOL0     C48395   1.359  10.267   6.928 -0.3708  0.2934 -0.0642
  359MOL0     C48396   1.431  10.382   6.950  0.2773 -0.7098  0.3271
  359MOL0     C48397   1.380  10.473   7.061  0.0128 -0.1944 -0.2254
  359MOL0     H48398   1.581  10.828   6.909  0.4479 -1.4473 -1.5202
  359MOL0     H48399   1.733  11.025   6.927 -2.9195 -1.5055 -2.4011
  359MOL0     H48400   2.088  11.010   7.212  0.9718 -2.7369 -1.0466
  359MOL0     H48401   2.144  10.962   7.065  0.9216 -0.0048 -0.0835
  359MOL0     H48402   2.070  11.250   7.147 -1.9404  0.2359 -1.3382
  359MOL0     H48403   2.160  11.207   7.000  0.0600 -1.3087  0.1335
  359MOL0     H48404   2.324  11.093   7.165 -1.3170 -0.4859 -1.0591
  359MOL0     H48405   2.245  11.192   7.292  0.1922  1.1548  0.1196
  359MOL0     H48406   2.399  11.311   7.067  0.7532  1.8752  0.1490
  359MOL0     H48407   2.300  11.395   7.193  2.1475  1.2630 -1.3804
  359MOL0     H48408   2.450  11.255   7.352  0.3968 -1.3631 -0.4814
  359MOL0     H48409   2.552  11.225   7.213 -1.8389 -1.8302 -0.9946
  359MOL0     H48410   2.577  11.471   7.180 -1.8650  0.2299 -0.1796
  359MOL0     H48411   2.460  11.495   7.308  0.4404  1.1583 -0.6777
  359MOL0     H48412   2.629  11.330   7.434  0.9965 -2.3840 -3.3705
  359MOL0     H48413   2.657  11.508   7.429  2.7363  1.0734 -2.2005
  359MOL0     H48414   2.804  11.283   7.297 -2.4283 -0.1833 -1.5322
  359MOL0     H48415   2.778  11.442   7.207 -2.5784 -2.1647 -0.8003
  359MOL0     H48416   2.875  11.321   7.564 -0.3117  0.3996 -0.5358
  359MOL0     H48417   3.140  11.529   7.715 -1.3210 -0.1307  0.0968
  359MOL0     H48418   3.052  11.385   7.745  0.6224  1.0185  1.4290
  359MOL0     H48419   3.216  11.234   7.673 -0.5959 -0.4553  0.2376
  359MOL0     H48420   3.325  11.358   7.612 -1.0747 -0.4859 -1.6116
  359MOL0     H48421   3.330  11.446   7.865 -1.9022 -0.7833  2.4706
  359MOL0     H48422   3.411  11.303   7.825 -1.3085  0.2877 -1.3405
  359MOL0     H48423   3.221  11.171   7.916 -0.3973  0.5916 -1.8834
  359MOL0     H48424   3.121  11.320   7.935 -0.1341  0.7225  0.4995
  359MOL0     H48425   3.489  11.456   8.114 -2.4166  0.1094  2.8665
  359MOL0     H48426   3.715  11.376   8.150 -1.2615  0.3754  0.2569
  359MOL0     H48427   4.056  11.414   8.238 -0.1027  0.3091 -2.5858
  359MOL0     H48428   4.297  11.424   8.215 -1.4133  0.8602  1.1971
  359MOL0     H48429   4.483  11.180   8.370 -2.4109  1.4808 -1.3731
  359MOL0     H48430   4.520  11.038   8.268  0.1799 -0.4600  2.3904
  359MOL0     H48431   4.690  11.281   8.249 -1.8883 -1.8322 -4.4889
  359MOL0     H48432   4.719  11.174   8.384 -0.0625 -0.8024 -0.1681
  359MOL0     H48433   4.748  10.999   8.190 -2.1451  1.0913  2.3202
  359MOL0     H48434   4.741  11.134   8.078 -1.0091 -2.9555 -1.1235
  359MOL0     H48435   4.946  11.120   8.318  0.5295  2.2532  0.0821
  359MOL0     H48436   4.930  11.229   8.182  1.3974 -0.7111 -1.0305
  359MOL0     H48437   4.950  11.019   8.028  1.2543 -0.7378 -1.3271
  359MOL0     H48438   5.012  10.932   8.174  2.5236  2.1301  2.6621
  359MOL0     H48439   5.144  11.204   8.130  1.2910 -0.0587  2.1478
  359MOL0     H48440   5.207  11.050   8.193  2.7783  0.1765 -1.5504
  359MOL0     H48441   5.194  11.140   7.913 -1.5949 -1.1121 -0.0694
  359MOL0     H48442   5.155  10.968   7.944  0.6995  0.3912 -1.1784
  359MOL0     H48443   5.383  10.952   8.068  1.0345 -0.2346 -0.2418
  359MOL0     H48444   5.376  10.956   7.901 -1.8920 -1.6449  1.2665
  359MOL0     H48445   4.315  11.009   8.148  1.5768  2.1384 -0.1589
  359MOL0     H48446   4.068  11.003   8.150  1.3481 -0.0032 -2.8229
  359MOL0     H48447   3.572  10.968   8.144 -0.0503 -0.5673 -2.4667
  359MOL0     H48448   3.369  11.045   8.084  2.1467 -1.4451 -1.4379
  359MOL0     H48449   2.030  10.781   7.137 -0.5797  0.4371  0.7678
  359MOL0     H48450   1.853  10.605   7.149  0.1982 -0.2952 -0.8137
  359MOL0     H48451   1.692  10.313   6.732 -0.0778  2.3691 -0.1398
  359MOL0     H48452   1.550  10.110   6.709  2.5826  0.7970  0.6857
  359MOL0     H48453   1.132  10.088   6.894 -0.2592 -1.3331  1.8115
  359MOL0     H48454   1.240  10.014   7.007 -0.9702  4.4216  0.2366
  359MOL0     H48455   1.096   9.839   6.932  0.3842  0.7061  1.0696
  359MOL0     H48456   1.247   9.809   6.840  1.9198  1.7844 -1.5324
  359MOL0     H48457   1.159   9.941   6.656 -0.7594 -2.3478 -1.6003
  359MOL0     H48458   1.023   9.993   6.724 -0.7647 -0.1436  0.3986
  359MOL0     H48459   0.953   9.723   6.764  0.6743 -2.0929 -1.6918
  359MOL0     H48460   0.918   9.812   6.622 -2.0698  1.3981  2.9360
  359MOL0     H48461   1.145   9.503   6.490  1.8128  1.5687 -1.5199
  359MOL0     H48462   1.269  10.247   6.985  1.5935 -0.7634  2.8645
  359MOL0     H48463   1.446  10.496   7.145 -1.9572  2.9486  0.6252
  359MOL0     H48464   1.351  10.570   7.020 -1.2886 -0.5523 -0.1929
  359MOL0     H48465   1.282  10.437   7.095 -1.2918  2.3781 -1.0192
  360MOL0     O48466   4.327   3.181   2.483 -0.3895 -0.4641  0.2811
  360MOL0     C48467   4.277   3.243   2.390 -0.0326 -0.6560  0.5778
  360MOL0     O48468   4.315   3.235   2.263  0.0473 -0.1064 -0.1037
  360MOL0     C48469   4.369   3.128   2.194  0.1193  0.7247  0.2709
  360MOL0     C48470   4.341   3.120   2.060  0.6167  0.5057  0.6726
  360MOL0     C48471   4.364   3.013   1.977  0.3268  0.5185  0.0883
  360MOL0     C48472   4.443   2.907   2.043 -0.2276  0.5838  0.1648
  360MOL0     O48473   4.471   2.797   1.955 -0.2533 -0.5540 -0.3372
  360MOL0     C48474   4.580   2.715   1.961 -0.5312 -0.3844  0.7782
  360MOL0     C48475   4.663   2.718   1.830 -0.6455  0.1881  0.3630
  360MOL0     C48476   4.716   2.852   1.791 -0.3301 -0.1194  1.0237
  360MOL0     C48477   4.766   2.856   1.637 -0.1499 -0.3155 -0.2335
  360MOL0     C48478   4.893   2.776   1.617 -0.9126 -0.1064  0.7070
  360MOL0     C48479   5.007   2.819   1.710  0.7780  1.5750  0.0709
  360MOL0     C48480   5.145   2.754   1.673 -0.0396  0.4832 -0.6055
  360MOL0     C48481   5.199   2.805   1.537  0.1256  0.0368 -0.0664
  360MOL0     N48482   5.316   2.733   1.486 -0.2790 -0.5528  0.0449
  360MOL0     C48483   5.407   2.794   1.406 -0.2627 -0.2634 -0.3648
  360MOL0     C48484   5.486   2.692   1.359 -0.1208  0.0455  0.2358
  360MOL0     C48485   5.593   2.713   1.269 -0.2754  0.4988  0.3141
  360MOL0     C48486   5.712   2.624   1.299  0.3033 -0.2292  0.2051
  360MOL0     C48487   5.817   2.620   1.186  0.9141  0.3173 -0.0095
  360MOL0     C48488   5.954   2.546   1.217 -0.3878 -0.8500  0.0951
  360MOL0     O48489   6.028   2.518   1.100  0.1738 -0.4925  0.6942
  360MOL0     C48490   6.146   2.449   1.110  0.6978 -0.1505 -0.5314
  360MOL0     C48491   6.208   2.410   1.231  0.0931 -0.4732 -0.4025
  360MOL0     C48492   6.324   2.343   1.240 -0.2303  0.4290  0.6626
  360MOL0     C48493   6.382   2.302   1.121 -0.5286 -0.4955 -0.2947
  360MOL0     C48494   6.501   2.212   1.134 -0.8102 -0.3588  0.3490
  360MOL0     O48495   6.563   2.183   1.016 -0.0565 -0.8975 -0.2021
  360MOL0     C48496   6.674   2.104   1.010  0.0730 -0.0409  0.9340
  360MOL0     C48497   6.689   2.026   0.888 -0.3518  0.4128 -0.6901
  360MOL0     C48498   6.806   1.960   0.855 -0.3005 -0.2508 -0.0490
  360MOL0     C48499   6.916   1.953   0.947  0.7880  0.0522 -0.5269
  360MOL0     O48500   7.023   1.869   0.928 -0.5911  0.7814 -0.1924
  360MOL0     C48501   7.042   1.802   0.800 -0.2548 -1.3724  0.1941
  360MOL0     C48502   7.185   1.753   0.782 -0.2373 -0.4677  0.2213
  360MOL0     C48503   7.204   1.665   0.660  0.0656  1.1286  1.0396
  360MOL0     C48504   7.334   1.693   0.572  0.0372  0.7296  0.2304
  360MOL0     C48505   7.466   1.633   0.633 -0.4743  1.0634 -0.6169
  360MOL0     C48506   7.483   1.484   0.605 -0.3101 -0.0199  0.2371
  360MOL0     C48507   7.607   1.427   0.691  0.8568  0.9068  0.1758
  360MOL0     C48508   7.730   1.510   0.713 -0.4061 -1.0057 -0.1283
  360MOL0    Cl48509   7.844   1.418   0.824 -0.1928  0.2584 -0.3647
  360MOL0     C48510   6.903   2.032   1.067  0.0188  0.8105  0.5761
  360MOL0     C48511   6.780   2.096   1.099 -0.3928  0.0692  0.4230
  360MOL0     O48512   6.535   2.168   1.243 -0.3633  0.3483 -0.4658
  360MOL0     C48513   6.318   2.329   1.000 -1.1135  0.5283 -0.8993
  360MOL0     C48514   6.197   2.391   0.992 -0.0388  0.1023  0.5010
  360MOL0     N48515   5.442   2.567   1.408 -0.4489  0.1472  0.8059
  360MOL0     N48516   5.339   2.597   1.483 -0.5407  0.6028  0.2756
  360MOL0     C48517   4.482   2.912   2.180 -0.0753 -0.3935 -0.3641
  360MOL0     C48518   4.435   3.025   2.250 -0.7265  0.9734 -0.2071
  360MOL0     C48519   4.186   3.362   2.420  0.0354  0.6246 -1.3802
  360MOL0     C48520   4.184   3.466   2.327 -0.4829  0.4384  0.2535
  360MOL0     C48521   4.091   3.580   2.344 -0.8145 -0.2237  0.8594
  360MOL0     C48522   4.027   3.597   2.464  0.7211  0.6373 -0.0529
  360MOL0     O48523   3.939   3.703   2.495  0.0868  0.0673  0.3718
  360MOL0     C48524   3.897   3.787   2.380 -0.0767 -0.4917 -0.5690
  360MOL0     C48525   3.803   3.885   2.438  0.0499  0.1435  0.6810
  360MOL0     C48526   3.676   3.816   2.488 -0.3585 -0.1168  0.5095
  360MOL0     C48527   3.575   3.914   2.520  0.0336 -0.5453  0.4196
  360MOL0     C48528   3.519   3.995   2.402 -0.1491  0.2091  0.0001
  360MOL0     C48529   3.455   4.049   2.318 -0.1428  0.3464  0.4842
  360MOL0     C48530   4.049   3.497   2.565 -0.1466  0.2414 -0.1584
  360MOL0     C48531   4.113   3.370   2.540  0.3842 -0.0645  0.8622
  360MOL0     C48532   4.106   3.265   2.646 -0.4606  0.1480 -0.1767
  360MOL0     H48533   4.310   3.216   2.020  0.0073 -0.2586 -0.7545
  360MOL0     H48534   4.365   3.013   1.868  0.7723 -1.8339  0.0335
  360MOL0     H48535   4.644   2.743   2.046 -0.3075  0.1395  0.4446
  360MOL0     H48536   4.552   2.610   1.974  0.3597 -1.3053 -3.4855
  360MOL0     H48537   4.609   2.681   1.743  0.8517 -1.7034  0.1690
  360MOL0     H48538   4.754   2.657   1.836 -1.3772 -0.7855  2.5862
  360MOL0     H48539   4.801   2.879   1.854  0.4409 -0.4664  0.1612
  360MOL0     H48540   4.636   2.926   1.800 -0.4385  0.3666 -2.4046
  360MOL0     H48541   4.689   2.815   1.571  0.8405 -1.0872 -0.9223
  360MOL0     H48542   4.778   2.960   1.606 -2.4345  0.8019  2.1904
  360MOL0     H48543   4.867   2.672   1.638  0.6200 -0.7801 -0.5373
  360MOL0     H48544   4.925   2.789   1.513  1.4958  1.3291  1.5630
  360MOL0     H48545   5.000   2.928   1.720 -1.2999  1.8045 -2.7106
  360MOL0     H48546   4.978   2.778   1.807 -1.0189 -0.2594 -1.1757
  360MOL0     H48547   5.127   2.647   1.666 -1.2504  0.6601 -0.3740
  360MOL0     H48548   5.209   2.771   1.760 -1.2741 -0.8684  0.6301
  360MOL0     H48549   5.118   2.796   1.464 -0.9359 -0.3593  1.1310
  360MOL0     H48550   5.218   2.912   1.538 -0.7860  0.2434  2.2908
  360MOL0     H48551   5.416   2.901   1.392 -0.5835 -0.1049  0.5465
  360MOL0     H48552   5.548   2.689   1.172 -0.1806  1.6784 -0.0492
  360MOL0     H48553   5.630   2.816   1.268  1.0266  0.1049  2.1732
  360MOL0     H48554   5.755   2.650   1.396  2.3241 -2.7654  0.1062
  360MOL0     H48555   5.666   2.525   1.304 -2.8733  1.1902  1.9512
  360MOL0     H48556   5.844   2.724   1.168 -0.7841  0.7247 -0.4454
  360MOL0     H48557   5.769   2.569   1.102  0.8239  0.6120 -0.1386
  360MOL0     H48558   5.940   2.453   1.273 -1.3799 -0.1116  1.1169
  360MOL0     H48559   6.015   2.608   1.283 -2.7566  1.4272  0.3129
  360MOL0     H48560   6.161   2.439   1.325  1.3036  0.0780  0.0549
  360MOL0     H48561   6.369   2.324   1.337  0.3611 -1.3761  0.0797
  360MOL0     H48562   6.606   2.026   0.818  0.2634 -0.7696 -1.4425
  360MOL0     H48563   6.803   1.893   0.770  0.3535 -3.6754  2.4309
  360MOL0     H48564   6.982   1.710   0.793 -1.1069 -0.8824  0.8967
  360MOL0     H48565   7.006   1.869   0.721 -3.4130 -1.6045  1.2697
  360MOL0     H48566   7.253   1.838   0.772  1.5427 -1.8628 -0.0193
  360MOL0     H48567   7.216   1.684   0.861 -0.2006  0.5644  1.1361
  360MOL0     H48568   7.214   1.561   0.695 -1.2106  0.7754  0.4129
  360MOL0     H48569   7.118   1.672   0.592  1.3370 -0.4842 -0.8547
  360MOL0     H48570   7.350   1.801   0.570 -1.7210  1.0681  1.5410
  360MOL0     H48571   7.317   1.657   0.470 -1.8640  2.6948 -0.2314
  360MOL0     H48572   7.474   1.648   0.741  2.8916  2.1828 -0.9076
  360MOL0     H48573   7.549   1.694   0.597  0.3879  0.6964  0.6983
  360MOL0     H48574   7.398   1.417   0.620 -1.3570  1.5675  1.9034
  360MOL0     H48575   7.515   1.487   0.500 -0.1869  0.2297  0.2823
  360MOL0     H48576   7.651   1.339   0.642  4.3481 -0.0300  4.3384
  360MOL0     H48577   7.571   1.395   0.790  1.0339 -1.8665 -0.5741
  360MOL0     H48578   7.778   1.547   0.622 -2.2455  2.0172 -0.0176
  360MOL0     H48579   7.709   1.594   0.781  2.1570 -0.1020 -0.3458
  360MOL0     H48580   6.982   2.027   1.142  1.4756 -2.6494 -0.9643
  360MOL0     H48581   6.782   2.154   1.191  0.2031  0.4381  0.1831
  360MOL0     H48582   6.371   2.281   0.919  3.7258  2.3380  0.8040
  360MOL0     H48583   6.148   2.407   0.896  1.7064 -0.9512 -0.6258
  360MOL0     H48584   4.551   2.839   2.221  2.2388  1.5789 -0.4618
  360MOL0     H48585   4.469   3.034   2.352  1.5885  3.2638 -1.0829
  360MOL0     H48586   4.228   3.447   2.229 -0.3378 -1.8348  0.7018
  360MOL0     H48587   4.083   3.650   2.261 -1.4652 -0.0315  1.0787
  360MOL0     H48588   3.858   3.733   2.293  0.6857  1.3819 -2.1612
  360MOL0     H48589   3.985   3.842   2.345  0.2153  1.0715  2.2878
  360MOL0     H48590   3.790   3.958   2.357  2.9564 -1.6047 -1.5525
  360MOL0     H48591   3.851   3.937   2.522 -0.4351  1.9619 -0.1236
  360MOL0     H48592   3.691   3.756   2.578 -0.9278 -0.3914  0.4234
  360MOL0     H48593   3.655   3.753   2.401  3.1859  1.8420 -2.0655
  360MOL0     H48594   3.490   3.859   2.561 -1.1509 -0.2123 -1.4565
  360MOL0     H48595   3.624   3.980   2.592  0.6917  1.2332 -1.5302
  360MOL0     H48596   3.408   4.076   2.225  4.0208 -1.7790 -2.6110
  360MOL0     H48597   3.990   3.503   2.656  1.7913  1.2883  1.0847
  360MOL0     H48598   4.199   3.267   2.705 -0.4454  5.4998  0.0584
  360MOL0     H48599   4.031   3.296   2.718 -0.6163 -0.3197 -0.1298
  360MOL0     H48600   4.074   3.165   2.615  0.1167 -0.3293  0.7164
  361MOL0     O48601   6.893   0.447   5.317 -0.2934  0.0843 -0.0743
  361MOL0     C48602   6.864   0.566   5.309 -0.1444  0.8912  0.4188
  361MOL0     O48603   6.950   0.661   5.235  0.7494  0.2389 -0.4947
  361MOL0     C48604   7.087   0.644   5.227  0.4460 -0.2081 -0.3137
  361MOL0     C48605   7.174   0.708   5.310  1.1718 -0.1998 -0.4459
  361MOL0     C48606   7.306   0.689   5.293  0.3373  0.3965  0.1025
  361MOL0     C48607   7.352   0.605   5.191  1.2017  0.1437 -0.6637
  361MOL0     O48608   7.491   0.581   5.202 -0.5510 -0.2340  0.0188
  361MOL0     C48609   7.554   0.477   5.127  0.2915 -0.0210 -0.1693
  361MOL0     C48610   7.707   0.499   5.143 -0.0620  0.0757 -0.2479
  361MOL0     C48611   7.799   0.384   5.096  0.3815 -0.2141  0.1273
  361MOL0     C48612   7.847   0.390   4.949 -1.1095 -0.1781  0.1676
  361MOL0     C48613   7.897   0.241   4.897  0.3420 -0.0534 -0.4824
  361MOL0     C48614   7.981   0.171   5.003  0.4409 -0.0956 -0.2769
  361MOL0     C48615   8.008   0.023   4.977  0.3009 -0.8388  0.4645
  361MOL0     C48616   8.125  -0.018   5.065  0.2784 -0.0763 -0.1813
  361MOL0     N48617   8.166  -0.154   5.025  0.2133  0.9102 -0.7028
  361MOL0     C48618   8.110  -0.265   5.079  0.4306  0.1258  0.6930
  361MOL0     C48619   8.163  -0.357   4.997  0.9056  0.0584 -0.3054
  361MOL0     C48620   8.121  -0.501   4.998  0.2078 -0.7498  0.5970
  361MOL0     C48621   8.183  -0.596   5.099  0.6150 -0.3357 -0.7513
  361MOL0     C48622   8.330  -0.583   5.116  0.5155 -0.4712  0.3759
  361MOL0     C48623   8.419  -0.594   4.988 -0.1250 -0.3992 -0.8114
  361MOL0     O48624   8.425  -0.721   4.925 -0.3714 -0.3120 -0.6345
  361MOL0     C48625   8.516  -0.813   4.965 -0.4937  0.6107  0.3127
  361MOL0     C48626   8.530  -0.925   4.879 -0.9987  0.8925 -0.4080
  361MOL0     C48627   8.627  -1.024   4.908  0.3953  0.2165  0.0654
  361MOL0     C48628   8.700  -1.021   5.027 -0.9884 -0.0579 -0.1980
  361MOL0     C48629   8.808  -1.120   5.048 -0.2299  0.2591  1.1015
  361MOL0     O48630   8.888  -1.093   5.152  0.6844 -0.4111 -0.1621
  361MOL0     C48631   8.996  -1.171   5.183  0.2471 -1.0082  0.1569
  361MOL0     C48632   9.100  -1.103   5.243  0.1050  0.4049  0.5288
  361MOL0     C48633   9.209  -1.179   5.293  1.3167  0.8979  0.4606
  361MOL0     C48634   9.211  -1.324   5.285 -0.4678  0.7365 -0.3385
  361MOL0     O48635   9.307  -1.390   5.352  0.7535  0.1679 -0.4433
  361MOL0     C48636   9.340  -1.522   5.299  0.2437  0.5512 -0.1644
  361MOL0     C48637   9.474  -1.567   5.368 -0.8692 -0.2907 -0.0486
  361MOL0     C48638   9.591  -1.466   5.385  0.5748  0.1719 -0.0625
  361MOL0     C48639   9.712  -1.523   5.451  0.2546  0.5577 -0.5402
  361MOL0     C48640   9.811  -1.421   5.501  0.6110  0.2138 -0.9070
  361MOL0     C48641   9.922  -1.491   5.583 -0.4062 -0.6130 -0.4484
  361MOL0     C48642  10.002  -1.398   5.678 -0.1379  0.3554  0.2804
  361MOL0     C48643  10.088  -1.484   5.773 -0.0610 -1.2855 -0.1820
  361MOL0    Cl48644   9.973  -1.547   5.909 -0.2630 -0.6119 -0.0970
  361MOL0     C48645   9.101  -1.383   5.219  0.0672  0.2676  0.0370
  361MOL0     C48646   8.987  -1.309   5.172 -0.4155  0.2603 -0.2762
  361MOL0     O48647   8.829  -1.205   4.961  0.3158  0.4204 -0.5091
  361MOL0     C48648   8.683  -0.918   5.115  0.3526  0.0658 -0.3936
  361MOL0     C48649   8.600  -0.814   5.086 -0.1190 -0.1580  0.7135
  361MOL0     N48650   8.254  -0.307   4.904 -0.8398  0.2754  0.0160
  361MOL0     N48651   8.261  -0.185   4.932 -0.1886  0.9016  0.6994
  361MOL0     C48652   7.267   0.551   5.095  0.4738 -0.5749 -0.8301
  361MOL0     C48653   7.129   0.568   5.118  0.4371  0.2514  0.2312
  361MOL0     C48654   6.737   0.620   5.361 -0.2000  0.6309  0.4734
  361MOL0     C48655   6.725   0.762   5.362  0.6059 -0.0614 -0.7065
  361MOL0     C48656   6.612   0.833   5.416 -0.4403 -0.3591 -0.3872
  361MOL0     C48657   6.499   0.757   5.454 -0.3360  1.0509  0.1869
  361MOL0     O48658   6.389   0.815   5.509 -0.0732 -0.9227  0.3972
  361MOL0     C48659   6.270   0.738   5.531 -0.6960 -0.2237  0.5833
  361MOL0     C48660   6.160   0.832   5.584 -0.5884 -0.7257  0.4776
  361MOL0     C48661   6.030   0.757   5.575 -0.5562  0.7966  0.2746
  361MOL0     C48662   5.918   0.850   5.624 -0.2410  0.2005  0.2277
  361MOL0     C48663   5.919   0.866   5.765  0.5896 -0.3133  0.2753
  361MOL0     C48664   5.906   0.871   5.886  0.4303 -0.8257 -0.0109
  361MOL0     C48665   6.508   0.615   5.440  0.4467 -0.2218 -0.1208
  361MOL0     C48666   6.625   0.545   5.406 -0.3858  0.1434 -0.0491
  361MOL0     C48667   6.631   0.394   5.410  0.5406  0.5203 -0.3646
  361MOL0     H48668   7.126   0.777   5.380  0.8294 -0.6394 -0.2428
  361MOL0     H48669   7.374   0.744   5.357 -0.3043  0.0167  1.1282
  361MOL0     H48670   7.524   0.384   5.177 -0.9537  0.9717  1.0021
  361MOL0     H48671   7.511   0.481   5.027 -0.5468 -1.8701  0.0808
  361MOL0     H48672   7.718   0.529   5.248 -2.3693 -2.1841  0.7491
  361MOL0     H48673   7.745   0.588   5.092 -0.7423  1.2274  1.1932
  361MOL0     H48674   7.744   0.292   5.118  0.8475  0.4861  5.7422
  361MOL0     H48675   7.893   0.388   5.152  0.5862 -1.0407 -0.1442
  361MOL0     H48676   7.778   0.436   4.877 -0.6018  0.0655 -0.1723
  361MOL0     H48677   7.941   0.446   4.949 -1.7969  1.2313 -3.1898
  361MOL0     H48678   7.809   0.182   4.868  0.3590 -0.7931  0.8858
  361MOL0     H48679   7.946   0.263   4.801 -1.9781  2.5126 -1.1854
  361MOL0     H48680   8.076   0.225   5.003 -0.7894  2.1671 -0.1868
  361MOL0     H48681   7.934   0.183   5.101  2.1927 -1.6479  0.8301
  361MOL0     H48682   8.044   0.005   4.875  0.4152  3.1866 -0.3461
  361MOL0     H48683   7.920  -0.032   5.012 -1.0816  2.0870  1.9279
  361MOL0     H48684   8.208   0.047   5.035  1.9205 -1.7375  0.5452
  361MOL0     H48685   8.093  -0.008   5.169  3.7901  0.2445  0.9960
  361MOL0     H48686   8.028  -0.265   5.151 -2.0834  1.8078 -1.9332
  361MOL0     H48687   8.013  -0.499   5.016 -0.9181  1.3380 -4.4989
  361MOL0     H48688   8.133  -0.549   4.900 -0.6666  1.2800 -0.5710
  361MOL0     H48689   8.141  -0.570   5.197  1.6479 -0.0440 -0.3679
  361MOL0     H48690   8.146  -0.696   5.074 -0.0037 -0.3555  0.1870
  361MOL0     H48691   8.360  -0.665   5.181 -3.6217 -1.0727  1.8511
  361MOL0     H48692   8.358  -0.488   5.161  2.1219 -1.6372  1.9990
  361MOL0     H48693   8.517  -0.563   5.025 -1.9178  3.0079  1.5538
  361MOL0     H48694   8.393  -0.520   4.912  2.5807  2.1302  0.5301
  361MOL0     H48695   8.467  -0.936   4.791 -0.3319 -0.6713 -0.7156
  361MOL0     H48696   8.637  -1.111   4.845 -1.0668 -0.5591  0.8375
  361MOL0     H48697   9.097  -0.994   5.250  0.1901  0.4714 -0.3610
  361MOL0     H48698   9.286  -1.139   5.359  3.4385 -2.1328  0.0134
  361MOL0     H48699   9.262  -1.596   5.319  0.5595  0.8690  2.7881
  361MOL0     H48700   9.355  -1.516   5.191  5.2841 -1.3342  0.1607
  361MOL0     H48701   9.472  -1.596   5.473  3.9739  2.2520  1.0443
  361MOL0     H48702   9.505  -1.656   5.313 -2.1576 -1.4619  1.0267
  361MOL0     H48703   9.627  -1.427   5.290 -0.0175 -0.7198 -0.6682
  361MOL0     H48704   9.553  -1.387   5.450  0.1599 -0.8085  0.9358
  361MOL0     H48705   9.764  -1.589   5.382 -0.8988 -2.7438  1.5277
  361MOL0     H48706   9.669  -1.596   5.520  0.1277 -0.3121 -1.5247
  361MOL0     H48707   9.753  -1.344   5.552 -2.5773 -1.8462 -1.1381
  361MOL0     H48708   9.854  -1.373   5.413 -1.8852  1.1527 -1.6827
  361MOL0     H48709   9.875  -1.572   5.639  1.9492 -1.3410  0.6160
  361MOL0     H48710   9.996  -1.540   5.518 -3.2455 -2.3657 -2.5815
  361MOL0     H48711   9.926  -1.346   5.736  0.7321  1.5750  0.3524
  361MOL0     H48712  10.066  -1.330   5.621  0.3432 -1.2418 -1.2072
  361MOL0     H48713  10.123  -1.573   5.719 -0.1515 -0.5502 -1.4821
  361MOL0     H48714  10.173  -1.426   5.808  1.1367 -2.7918 -0.4773
  361MOL0     H48715   9.106  -1.489   5.196 -0.3238 -0.1750  1.8226
  361MOL0     H48716   8.908  -1.369   5.128  0.0953 -2.5759  2.3215
  361MOL0     H48717   8.746  -0.912   5.203 -0.5757 -0.0114  0.2848
  361MOL0     H48718   8.605  -0.734   5.160 -1.2197 -1.0120  1.7614
  361MOL0     H48719   7.310   0.498   5.011  2.7423 -1.0454  0.5469
  361MOL0     H48720   7.061   0.526   5.044  0.0982 -0.3862  0.8904
  361MOL0     H48721   6.785   0.829   5.303 -0.2560  0.1251 -1.3881
  361MOL0     H48722   6.613   0.940   5.433  2.4635 -0.2703 -0.4886
  361MOL0     H48723   6.286   0.660   5.606  2.3683  0.4350  0.7659
  361MOL0     H48724   6.232   0.691   5.441  0.8763  0.3871 -0.4405
  361MOL0     H48725   6.142   0.907   5.507 -1.1214 -1.1008  0.2269
  361MOL0     H48726   6.181   0.894   5.671 -3.3200  1.6190 -0.3977
  361MOL0     H48727   6.040   0.667   5.636  4.7363  1.2619  0.5419
  361MOL0     H48728   6.020   0.733   5.469 -1.4938 -0.2552  0.5877
  361MOL0     H48729   5.927   0.950   5.580  1.3799  0.7556  1.7125
  361MOL0     H48730   5.827   0.803   5.583  0.8084 -1.2216 -0.5788
  361MOL0     H48731   5.896   0.883   5.992 -3.3038  1.2628 -0.4219
  361MOL0     H48732   6.424   0.559   5.481 -0.7249 -0.1628 -2.3370
  361MOL0     H48733   6.670   0.345   5.320 -2.0344  1.1080 -1.9102
  361MOL0     H48734   6.687   0.350   5.493 -3.4710 -3.1480  0.8338
  361MOL0     H48735   6.530   0.352   5.421  1.8568 -2.7229  0.3845
  362MOL0     O48736   4.477   0.525   9.097  0.4183  0.0738  0.0722
  362MOL0     C48737   4.435   0.414   9.047  0.2311  0.0091  1.0969
  362MOL0     O48738   4.500   0.339   8.953 -0.9754 -0.0802  0.0114
  362MOL0     C48739   4.636   0.355   8.947 -0.3113 -0.2536 -0.5065
  362MOL0     C48740   4.692   0.346   8.822 -0.1616 -0.8890 -0.6124
  362MOL0     C48741   4.828   0.355   8.806 -0.1502 -0.4933  0.2759
  362MOL0     C48742   4.917   0.379   8.914  0.0491 -0.3896 -0.2008
  362MOL0     O48743   5.056   0.420   8.923  0.1467 -0.0309 -0.2805
  362MOL0     C48744   5.099   0.488   8.804  0.1739  0.5879  0.5047
  362MOL0     C48745   5.200   0.597   8.841 -0.4905 -0.5061  0.0988
  362MOL0     C48746   5.330   0.540   8.915 -0.3581  0.1943  0.2859
  362MOL0     C48747   5.433   0.646   8.955  0.8526 -0.0873  1.0097
  362MOL0     C48748   5.519   0.600   9.071  0.5418  0.3784 -0.7589
  362MOL0     C48749   5.641   0.678   9.104 -1.2131  0.1201 -0.1208
  362MOL0     C48750   5.733   0.581   9.177  0.0241  0.0154  0.1141
  362MOL0     C48751   5.875   0.644   9.218 -0.3096 -0.3054  0.5292
  362MOL0     N48752   5.968   0.543   9.260 -0.0440 -0.0544  0.2060
  362MOL0     C48753   6.040   0.553   9.375 -0.9013 -0.1307 -0.1577
  362MOL0     C48754   6.138   0.465   9.372 -0.6101  0.3729  0.3449
  362MOL0     C48755   6.237   0.437   9.477  0.0947  0.0974 -0.6213
  362MOL0     C48756   6.375   0.476   9.416  0.3818 -0.3908 -0.7741
  362MOL0     C48757   6.484   0.436   9.513  0.4324 -0.1230  0.6185
  362MOL0     C48758   6.618   0.485   9.453 -0.7263 -0.2699  0.0173
  362MOL0     O48759   6.638   0.417   9.328 -0.3050  0.3592 -0.2609
  362MOL0     C48760   6.764   0.406   9.274  0.1656  0.3187 -0.0992
  362MOL0     C48761   6.782   0.311   9.175  0.0109 -0.3662  0.9085
  362MOL0     C48762   6.911   0.298   9.120 -0.6162 -0.1033  0.8267
  362MOL0     C48763   7.008   0.388   9.156 -0.0576  0.0995 -0.0921
  362MOL0     C48764   7.130   0.380   9.086 -0.0686 -0.4760 -0.0856
  362MOL0     O48765   7.215   0.477   9.121 -0.4958  0.6351  0.3911
  362MOL0     C48766   7.334   0.497   9.053 -0.2955 -0.7151  0.3303
  362MOL0     C48767   7.356   0.621   8.988 -0.0814  0.1120  0.4584
  362MOL0     C48768   7.473   0.640   8.919  0.2278 -0.4340  0.1849
  362MOL0     C48769   7.580   0.545   8.927 -0.2557 -0.1221  0.5649
  362MOL0     O48770   7.695   0.555   8.855 -0.0483 -0.9508  0.1816
  362MOL0     C48771   7.738   0.686   8.811  0.1910 -0.3138 -0.0752
  362MOL0     C48772   7.889   0.670   8.764  0.0217 -0.8208  0.4145
  362MOL0     C48773   7.955   0.786   8.683 -0.0825 -0.1063  0.1571
  362MOL0     C48774   7.914   0.922   8.741 -0.1472 -0.2735  0.2437
  362MOL0     C48775   7.994   1.043   8.690  0.2915  0.1213  0.5179
  362MOL0     C48776   7.964   1.167   8.775  0.2199 -0.3824  0.3885
  362MOL0     C48777   8.031   1.297   8.725 -0.1882 -0.3503 -0.4155
  362MOL0     C48778   7.964   1.418   8.810  0.5116  0.4392 -0.6659
  362MOL0    Cl48779   8.044   1.574   8.768 -0.2624 -0.0390 -0.6300
  362MOL0     C48780   7.560   0.428   9.002  0.4614  0.7179  0.4205
  362MOL0     C48781   7.437   0.401   9.056 -0.4058 -1.2725 -0.6450
  362MOL0     O48782   7.158   0.281   9.019  0.0795 -0.0941  0.0291
  362MOL0     C48783   6.987   0.476   9.264 -0.0127  0.8137  0.6928
  362MOL0     C48784   6.861   0.487   9.317 -0.2298 -0.1486  0.2362
  362MOL0     N48785   6.121   0.392   9.253  0.7800 -0.1863  0.7733
  362MOL0     N48786   6.019   0.437   9.186 -0.8082  0.4840  0.2671
  362MOL0     C48787   4.857   0.373   9.040  0.4440  0.1307  0.8670
  362MOL0     C48788   4.720   0.362   9.053  0.0248 -0.0764 -0.1081
  362MOL0     C48789   4.295   0.378   9.076 -0.0937  0.2753  0.5544
  362MOL0     C48790   4.241   0.408   9.202  0.2202 -0.1129  0.7891
  362MOL0     C48791   4.100   0.393   9.230 -0.6431 -0.5161  0.4567
  362MOL0     C48792   4.012   0.346   9.125 -0.0778 -0.1491 -0.3540
  362MOL0     O48793   3.884   0.293   9.136  0.4863 -0.2047 -0.6499
  362MOL0     C48794   3.819   0.304   9.270 -0.5650 -0.1078  0.2254
  362MOL0     C48795   3.683   0.253   9.265 -0.3174  1.0839 -0.1024
  362MOL0     C48796   3.660   0.126   9.185  0.1507  0.5530 -0.0187
  362MOL0     C48797   3.745   0.007   9.233  0.6373 -0.4614 -0.1105
  362MOL0     C48798   3.699  -0.028   9.370  0.3942  0.1884  0.2550
  362MOL0     C48799   3.653  -0.053   9.483  0.1318 -0.8854  1.0750
  362MOL0     C48800   4.069   0.323   9.005 -0.2658 -0.7464 -0.8023
  362MOL0     C48801   4.205   0.342   8.973 -0.2731  0.1395 -0.6725
  362MOL0     C48802   4.247   0.313   8.823 -0.1064  0.0551 -0.5571
  362MOL0     H48803   4.633   0.342   8.731 -0.5423  1.7145 -0.5417
  362MOL0     H48804   4.874   0.360   8.707 -1.9607  2.6706 -0.5391
  362MOL0     H48805   5.140   0.422   8.726  2.4196  1.6138  0.7509
  362MOL0     H48806   5.013   0.534   8.754 -1.9831 -1.8390  1.7184
  362MOL0     H48807   5.151   0.669   8.907  0.2893 -0.9210  1.1619
  362MOL0     H48808   5.232   0.656   8.754 -2.9320 -0.9643 -1.1769
  362MOL0     H48809   5.379   0.465   8.852 -0.4413  0.0690  0.3687
  362MOL0     H48810   5.296   0.493   9.008  1.3662 -0.3375  0.6855
  362MOL0     H48811   5.497   0.670   8.870  0.4914 -1.4114  0.3301
  362MOL0     H48812   5.380   0.736   8.988  1.5269  1.1205 -0.9881
  362MOL0     H48813   5.453   0.579   9.155  1.2425 -0.1209 -0.3213
  362MOL0     H48814   5.561   0.512   9.022  0.5318  1.6390 -3.2069
  362MOL0     H48815   5.698   0.710   9.016 -0.9986 -0.6183 -0.2509
  362MOL0     H48816   5.617   0.773   9.153  2.1077  1.5627 -0.9835
  362MOL0     H48817   5.744   0.492   9.114 -4.7474 -0.1732 -0.8487
  362MOL0     H48818   5.687   0.547   9.270  1.2254 -0.0933  0.6920
  362MOL0     H48819   5.905   0.710   9.135 -5.2644  2.5729  0.6404
  362MOL0     H48820   5.851   0.706   9.305  0.5471 -0.3697  0.8191
  362MOL0     H48821   6.014   0.627   9.450  0.0996 -0.3084  0.3836
  362MOL0     H48822   6.220   0.495   9.569  1.9300  0.3924 -0.4292
  362MOL0     H48823   6.232   0.332   9.505  1.1171  0.8421  2.8441
  362MOL0     H48824   6.384   0.436   9.315 -1.1997  0.0464 -1.1100
  362MOL0     H48825   6.385   0.583   9.394 -1.7400 -0.1626 -0.7590
  362MOL0     H48826   6.508   0.329   9.517  1.4959 -0.0921 -2.4369
  362MOL0     H48827   6.460   0.479   9.611 -0.9985 -1.8411  1.0688
  362MOL0     H48828   6.688   0.469   9.535 -0.1908 -2.3334 -0.7918
  362MOL0     H48829   6.617   0.592   9.428 -2.9494 -0.2368  0.0371
  362MOL0     H48830   6.705   0.246   9.134 -0.1910  0.7557 -0.5652
  362MOL0     H48831   6.927   0.221   9.045  0.6900  0.4261  0.5385
  362MOL0     H48832   7.280   0.699   8.993  0.1489  0.7916 -3.4694
  362MOL0     H48833   7.478   0.731   8.860 -1.7079 -1.3458 -1.4856
  362MOL0     H48834   7.677   0.730   8.732  0.9940 -0.7641 -0.9665
  362MOL0     H48835   7.750   0.755   8.895 -0.2298  0.8985 -0.9758
  362MOL0     H48836   7.949   0.647   8.853 -0.4694 -1.9105  0.4838
  362MOL0     H48837   7.885   0.586   8.695 -0.0858 -0.5477  0.0840
  362MOL0     H48838   8.063   0.771   8.675  0.2651  2.2302 -0.3888
  362MOL0     H48839   7.915   0.788   8.581 -0.4457 -0.9744  0.2751
  362MOL0     H48840   7.928   0.928   8.850 -2.9464  1.5722  0.5990
  362MOL0     H48841   7.808   0.950   8.733 -0.4730  0.1070  4.0158
  362MOL0     H48842   7.969   1.055   8.584 -0.2053 -0.4911  0.5564
  362MOL0     H48843   8.101   1.024   8.686  0.9983  3.5638 -2.8734
  362MOL0     H48844   7.855   1.181   8.777  0.1275 -1.0837  0.7544
  362MOL0     H48845   8.013   1.153   8.872  2.9360  1.0468 -0.6662
  362MOL0     H48846   8.028   1.318   8.618  2.4423 -1.7456 -0.8351
  362MOL0     H48847   8.137   1.298   8.752 -0.5112 -1.3201  1.0215
  362MOL0     H48848   7.859   1.426   8.779  1.3480  0.0968 -3.9615
  362MOL0     H48849   7.972   1.395   8.916 -2.4681  1.1880 -0.1738
  362MOL0     H48850   7.635   0.350   8.997 -1.8865 -1.6466 -2.4617
  362MOL0     H48851   7.407   0.307   9.101 -0.4915 -0.1122  1.9063
  362MOL0     H48852   7.041   0.560   9.306  0.3885  0.4665  0.8790
  362MOL0     H48853   6.845   0.567   9.389 -0.4652  1.2177 -1.2694
  362MOL0     H48854   4.923   0.390   9.124 -1.2871 -0.8419  2.4877
  362MOL0     H48855   4.671   0.350   9.149  0.8060  1.6988  0.5430
  362MOL0     H48856   4.306   0.438   9.284 -0.8688  1.6308  1.0843
  362MOL0     H48857   4.053   0.405   9.327 -1.5094 -4.1763  0.6255
  362MOL0     H48858   3.826   0.409   9.297  0.3690  0.4383 -1.8704
  362MOL0     H48859   3.871   0.245   9.346  1.1439  0.7639 -0.2038
  362MOL0     H48860   3.627   0.333   9.216 -0.5937  1.6828  1.1335
  362MOL0     H48861   3.638   0.245   9.365  2.1144  0.8010  1.0313
  362MOL0     H48862   3.681   0.137   9.078 -2.3073  1.3735 -0.4812
  362MOL0     H48863   3.557   0.091   9.195  1.2773 -2.4125  3.1152
  362MOL0     H48864   3.741  -0.083   9.172  0.3910 -0.5317  0.0097
  362MOL0     H48865   3.853   0.028   9.236  0.9620 -1.4828 -2.2996
  362MOL0     H48866   3.623  -0.094   9.577  2.9775 -2.4583  1.4381
  362MOL0     H48867   4.002   0.289   8.927 -2.1643  1.4629 -0.2357
  362MOL0     H48868   4.335   0.365   8.786 -0.5801  0.5671 -0.9689
  362MOL0     H48869   4.264   0.205   8.813 -1.9849 -0.2902 -0.5066
  362MOL0     H48870   4.166   0.335   8.753 -0.8785  1.1741  0.6336
  363MOL0     O48871   7.752   2.942   0.408  0.4814  0.1937 -0.7468
  363MOL0     C48872   7.686   2.966   0.306 -0.1977  0.6192  0.1522
  363MOL0     O48873   7.736   2.956   0.180 -0.3718  0.5696 -0.7382
  363MOL0     C48874   7.870   2.946   0.152  1.1477  0.0713  0.4434
  363MOL0     C48875   7.945   3.058   0.190  0.5090 -0.4015  0.0784
  363MOL0     C48876   8.081   3.051   0.159 -0.1199 -0.6688  0.0120
  363MOL0     C48877   8.133   2.947   0.078  0.3634  0.1301  0.2426
  363MOL0     O48878   8.262   2.930   0.045  0.4837  0.2913 -0.1966
  363MOL0     C48879   8.366   2.963   0.139 -0.1068  0.0929  0.2725
  363MOL0     C48880   8.457   2.847   0.166 -0.8658  0.4103  0.4447
  363MOL0     C48881   8.587   2.886   0.243  0.2865 -0.3097  0.0505
  363MOL0     C48882   8.644   2.756   0.295 -0.8880  1.4979  0.4606
  363MOL0     C48883   8.780   2.779   0.366  0.1306  0.3362  0.3216
  363MOL0     C48884   8.843   2.643   0.389 -0.9533  0.0467 -0.3137
  363MOL0     C48885   8.777   2.564   0.511  0.0615 -0.3348 -0.3842
  363MOL0     C48886   8.828   2.414   0.517 -1.2980 -0.3522 -0.4230
  363MOL0     N48887   8.967   2.412   0.561  0.0199 -0.1053  0.1657
  363MOL0     C48888   9.015   2.467   0.678 -0.1327  0.1992 -0.2779
  363MOL0     C48889   9.147   2.455   0.672  0.6365 -0.4718  0.3214
  363MOL0     C48890   9.251   2.515   0.758 -1.0625 -0.4117  0.0017
  363MOL0     C48891   9.297   2.404   0.854 -0.8881  0.3366 -0.0842
  363MOL0     C48892   9.402   2.458   0.956  0.2453 -0.6550 -0.7415
  363MOL0     C48893   9.537   2.460   0.892  0.6230 -0.8705  0.7170
  363MOL0     O48894   9.542   2.571   0.802  0.4193  0.4513  0.4963
  363MOL0     C48895   9.591   2.686   0.844  0.8500  0.3291  0.2942
  363MOL0     C48896   9.730   2.704   0.867 -0.7892  0.9851 -1.0563
  363MOL0     C48897   9.783   2.825   0.918  0.5328  0.8721 -0.8794
  363MOL0     C48898   9.693   2.928   0.949  0.2665 -0.2306 -0.0215
  363MOL0     C48899   9.740   3.043   1.017  0.1039 -0.3693 -0.9085
  363MOL0     O48900   9.868   3.036   1.074  0.1319  0.3321  0.2013
  363MOL0     C48901   9.916   3.148   1.130 -0.5426 -0.1422 -0.0245
  363MOL0     C48902   9.900   3.286   1.081  0.3071  0.5435  0.7115
  363MOL0     C48903   9.953   3.394   1.154 -0.3290  0.4264 -0.0151
  363MOL0     C48904  10.040   3.375   1.258  0.5013  0.6926 -0.3410
  363MOL0     O48905  10.086   3.492   1.323 -0.1582  0.0365 -0.1431
  363MOL0     C48906  10.100   3.479   1.472 -0.4883  1.0373  0.3594
  363MOL0     C48907  10.071   3.614   1.514  0.2579 -0.5408 -0.7050
  363MOL0     C48908  10.060   3.624   1.672  0.1783  0.6481  0.4559
  363MOL0     C48909  10.198   3.647   1.751  0.3932 -0.5623 -0.4895
  363MOL0     C48910  10.253   3.793   1.731  0.4156  0.5197  0.5068
  363MOL0     C48911  10.404   3.802   1.761  0.1684 -0.9145 -0.3588
  363MOL0     C48912  10.472   3.938   1.734  0.1509 -0.5982 -0.2106
  363MOL0     C48913  10.611   3.953   1.791 -0.0086  0.1168  0.4569
  363MOL0    Cl48914  10.738   3.871   1.701 -0.1653  0.3816  0.2356
  363MOL0     C48915  10.084   3.242   1.289 -0.4192 -0.2518 -1.2174
  363MOL0     C48916  10.023   3.129   1.227  0.1475  1.1302  0.8054
  363MOL0     O48917   9.658   3.138   1.043 -0.2946 -0.3570  1.3241
  363MOL0     C48918   9.559   2.917   0.906 -0.7619 -0.5171  0.5659
  363MOL0     C48919   9.506   2.797   0.856  0.9918  0.0189 -0.6377
  363MOL0     N48920   9.181   2.402   0.545  0.1113 -0.0964  0.3492
  363MOL0     N48921   9.077   2.381   0.483 -0.4889 -0.0787 -0.2636
  363MOL0     C48922   8.048   2.849   0.035  0.1474  0.2338  0.1679
  363MOL0     C48923   7.911   2.846   0.065 -0.0222  0.6938 -1.0152
  363MOL0     C48924   7.547   3.030   0.311 -0.0040 -0.0936  0.1116
  363MOL0     C48925   7.493   3.079   0.188 -1.3306 -0.0340 -0.7120
  363MOL0     C48926   7.374   3.146   0.185 -0.1404  0.5504  0.5838
  363MOL0     C48927   7.292   3.167   0.298 -1.3694  0.0146  0.1552
  363MOL0     O48928   7.175   3.235   0.290 -0.1775 -0.1524 -0.0261
  363MOL0     C48929   7.057   3.158   0.304 -0.4044  0.3061  0.7219
  363MOL0     C48930   6.984   3.167   0.171 -0.0096  1.0179 -1.2546
  363MOL0     C48931   7.045   3.108   0.049  0.4923  0.1867 -0.1070
  363MOL0     C48932   7.089   2.957   0.062  0.5487  0.4541  0.4905
  363MOL0     C48933   7.195   2.921  -0.031 -0.8592  0.6458 -0.2387
  363MOL0     C48934   7.289   2.897  -0.105 -0.1827 -0.0832  0.9093
  363MOL0     C48935   7.339   3.116   0.417 -0.4556 -0.5931 -0.6761
  363MOL0     C48936   7.465   3.042   0.428  0.1282  0.5049 -0.3489
  363MOL0     C48937   7.501   2.979   0.563 -0.3741  0.3627 -0.4681
  363MOL0     H48938   7.904   3.143   0.244 -2.5334 -1.8359  0.2459
  363MOL0     H48939   8.148   3.133   0.181  1.3740 -1.5593 -0.9917
  363MOL0     H48940   8.421   3.047   0.097  0.1088 -0.5201 -0.7054
  363MOL0     H48941   8.324   2.997   0.234 -2.3433  2.7482 -1.5145
  363MOL0     H48942   8.480   2.795   0.072 -0.0178 -0.2270  1.0005
  363MOL0     H48943   8.393   2.769   0.208 -3.1899  2.2048  0.4926
  363MOL0     H48944   8.563   2.957   0.323  0.1672  0.5832 -0.7638
  363MOL0     H48945   8.661   2.928   0.175 -0.9831  0.5243 -0.8869
  363MOL0     H48946   8.571   2.707   0.361 -2.7376 -0.9506 -3.0945
  363MOL0     H48947   8.658   2.697   0.204  0.0236 -0.1996  1.6517
  363MOL0     H48948   8.849   2.843   0.311  1.6248  0.9203  2.7373
  363MOL0     H48949   8.745   2.826   0.459 -2.8430  0.3537 -0.7017
  363MOL0     H48950   8.845   2.576   0.303  1.1565 -0.1365 -0.1787
  363MOL0     H48951   8.948   2.662   0.413 -0.2804 -1.9606 -1.4647
  363MOL0     H48952   8.667   2.566   0.505  0.1103  1.1391 -1.5792
  363MOL0     H48953   8.803   2.613   0.605 -2.4950  1.6112 -0.5725
  363MOL0     H48954   8.781   2.347   0.589  0.1462 -2.8726 -1.6541
  363MOL0     H48955   8.816   2.378   0.414 -3.9765  0.7727 -0.5566
  363MOL0     H48956   8.957   2.512   0.758  0.2107  1.1948 -0.5808
  363MOL0     H48957   9.337   2.553   0.700 -1.0597 -2.2582 -1.2832
  363MOL0     H48958   9.213   2.595   0.822  0.3865  1.4270 -1.3259
  363MOL0     H48959   9.213   2.355   0.904  0.5091  0.9995  3.1431
  363MOL0     H48960   9.348   2.329   0.793  1.0984  1.1083  0.5537
  363MOL0     H48961   9.408   2.385   1.037  0.6415 -1.7596 -1.7321
  363MOL0     H48962   9.372   2.554   0.998  3.3962  1.0865 -2.1029
  363MOL0     H48963   9.557   2.370   0.833  1.8785  1.3929 -2.6539
  363MOL0     H48964   9.627   2.457   0.955  2.6407 -0.3232 -1.9469
  363MOL0     H48965   9.784   2.612   0.847 -0.7907  1.2486 -2.3387
  363MOL0     H48966   9.888   2.838   0.944  0.3381 -0.4436  0.6748
  363MOL0     H48967   9.827   3.309   1.003 -0.6138  0.5209  1.5495
  363MOL0     H48968   9.934   3.497   1.124  2.1907  0.6432 -1.1600
  363MOL0     H48969  10.027   3.409   1.515 -1.3724  2.0424  0.5405
  363MOL0     H48970  10.197   3.456   1.517 -2.4233  0.0405  4.4559
  363MOL0     H48971  10.142   3.684   1.469 -1.6638 -1.0120 -4.9995
  363MOL0     H48972   9.980   3.638   1.457  1.1124  2.4303 -0.9793
  363MOL0     H48973   9.989   3.707   1.680 -0.9146 -0.3701  1.6907
  363MOL0     H48974  10.014   3.529   1.699 -0.3097  0.3952 -1.1705
  363MOL0     H48975  10.268   3.570   1.719  2.5181 -0.4340  3.2436
  363MOL0     H48976  10.179   3.628   1.857 -4.1731 -0.8079 -1.1515
  363MOL0     H48977  10.205   3.868   1.794 -2.3578 -1.1974  0.6026
  363MOL0     H48978  10.231   3.830   1.630 -0.7716 -0.3608  0.4284
  363MOL0     H48979  10.412   3.791   1.870 -2.7878  0.3971  0.0913
  363MOL0     H48980  10.452   3.716   1.712 -0.5973 -1.0745 -0.8438
  363MOL0     H48981  10.406   4.008   1.786 -1.3590 -2.3477  0.3726
  363MOL0     H48982  10.470   3.965   1.628 -0.6578 -0.6483 -0.2149
  363MOL0     H48983  10.628   4.061   1.788 -4.5981  1.0495  0.7653
  363MOL0     H48984  10.601   3.931   1.898 -1.2832  1.6510  0.6930
  363MOL0     H48985  10.158   3.224   1.365  1.7464 -1.2963 -3.4473
  363MOL0     H48986  10.045   3.026   1.253 -1.8558  0.4668  0.0518
  363MOL0     H48987   9.501   3.007   0.922  2.2976  1.5001  1.1771
  363MOL0     H48988   9.401   2.796   0.829  1.0223  3.1497 -1.2314
  363MOL0     H48989   8.082   2.775  -0.036 -0.5174  1.9618 -2.0765
  363MOL0     H48990   7.853   2.778   0.003  3.7449 -1.6920 -2.2613
  363MOL0     H48991   7.549   3.073   0.094  2.1853 -2.7379  1.3146
  363MOL0     H48992   7.336   3.195   0.096 -1.4801  0.1825  0.9340
  363MOL0     H48993   6.990   3.214   0.371 -0.7542  0.6011  0.1339
  363MOL0     H48994   7.078   3.058   0.342 -0.2751 -0.6143 -1.6317
  363MOL0     H48995   6.973   3.269   0.135  2.0172  1.8514  0.3356
  363MOL0     H48996   6.885   3.122   0.185  0.0194  0.5712 -2.3246
  363MOL0     H48997   7.135   3.168   0.033  1.9675 -1.2091  2.3533
  363MOL0     H48998   6.976   3.125  -0.034  0.4754  1.6850  0.1953
  363MOL0     H48999   7.133   2.948   0.161  2.8113  0.4756 -0.4619
  363MOL0     H49000   7.002   2.894   0.039  1.3160  0.0501 -1.4864
  363MOL0     H49001   7.370   2.884  -0.173  0.4674  3.8986  0.6630
  363MOL0     H49002   7.284   3.124   0.510 -1.3951 -1.7709 -1.1055
  363MOL0     H49003   7.409   2.960   0.620  0.0519  1.3414  0.5952
  363MOL0     H49004   7.545   2.882   0.536 -1.2402  0.5185 -2.5562
  363MOL0     H49005   7.576   3.037   0.618 -2.1471  2.2256  0.0796
  364MOL0     O49006   9.781   6.197   1.027  1.0835 -0.5643 -0.3423
  364MOL0     C49007   9.746   6.107   0.951 -0.0393 -0.4240 -0.9213
  364MOL0     O49008   9.828   6.010   0.898  0.4513 -0.3608 -0.4490
  364MOL0     C49009   9.964   6.022   0.919  0.3320  0.4833  0.4951
  364MOL0     C49010  10.030   5.900   0.949  0.4157 -0.9383  0.8345
  364MOL0     C49011  10.172   5.902   0.980  0.5291  0.3228 -0.0354
  364MOL0     C49012  10.248   6.021   0.959  0.5475 -0.3644  0.5146
  364MOL0     O49013  10.381   6.010   0.980 -0.1515 -0.3664  0.0288
  364MOL0     C49014  10.475   6.102   0.916  0.4951  0.2482  0.3288
  364MOL0     C49015  10.619   6.047   0.938 -0.2912 -0.0748 -0.2541
  364MOL0     C49016  10.718   6.162   0.895  0.1146 -0.2090  0.0218
  364MOL0     C49017  10.864   6.111   0.893 -0.2003  0.3129 -0.7741
  364MOL0     C49018  10.973   6.209   0.840  0.3286 -0.3128  0.1126
  364MOL0     C49019  10.991   6.187   0.688  0.6740  0.2521 -0.3566
  364MOL0     C49020  11.113   6.261   0.638 -0.9778  0.8717 -0.2415
  364MOL0     C49021  11.149   6.205   0.495  0.3598 -1.0756 -0.1997
  364MOL0     N49022  11.263   6.273   0.423  0.9957  0.7075 -0.0634
  364MOL0     C49023  11.396   6.272   0.469  0.1881  0.6445  0.5589
  364MOL0     C49024  11.458   6.345   0.375 -0.8933 -0.6379  0.0119
  364MOL0     C49025  11.608   6.376   0.384 -0.0529  0.6313 -0.1066
  364MOL0     C49026  11.700   6.324   0.267  0.0174  0.3430  0.3612
  364MOL0     C49027  11.848   6.352   0.296  0.4059  0.4081  0.6118
  364MOL0     C49028  11.940   6.280   0.196  0.6716 -0.4556 -0.2600
  364MOL0     O49029  11.941   6.136   0.227  0.2424 -0.0343 -0.2189
  364MOL0     C49030  12.028   6.047   0.169  0.2691  0.3685 -0.5863
  364MOL0     C49031  12.137   6.089   0.093  0.6131 -1.5500  0.3640
  364MOL0     C49032  12.236   5.999   0.051 -0.1355  0.7711 -0.8966
  364MOL0     C49033  12.229   5.864   0.084 -0.1207 -0.3518 -0.0659
  364MOL0     C49034  12.332   5.773   0.040  1.0713 -0.2285  0.0974
  364MOL0     O49035  12.402   5.812  -0.070 -1.1540  0.0360  0.4112
  364MOL0     C49036  12.519   5.751  -0.098 -0.1843 -0.3243  0.0771
  364MOL0     C49037  12.640   5.817  -0.076 -0.5441  0.1683 -0.0078
  364MOL0     C49038  12.758   5.747  -0.086 -0.3277  0.4193  0.2164
  364MOL0     C49039  12.764   5.614  -0.126  0.6382  0.3092 -0.2044
  364MOL0     O49040  12.891   5.553  -0.129  0.3873  0.3278  0.0788
  364MOL0     C49041  12.894   5.405  -0.134 -0.4462 -0.6183 -0.1052
  364MOL0     C49042  13.027   5.367  -0.067  0.8694  0.0021  0.6740
  364MOL0     C49043  13.147   5.413  -0.154 -0.1781  0.0949 -0.4915
  364MOL0     C49044  13.277   5.393  -0.076  0.3848  0.2946  0.2430
  364MOL0     C49045  13.383   5.446  -0.159 -0.3402 -0.5206 -0.2217
  364MOL0     C49046  13.496   5.505  -0.070  0.8449 -0.2434 -0.0394
  364MOL0     C49047  13.569   5.390   0.010 -0.6027 -0.2715  0.5646
  364MOL0     C49048  13.695   5.432   0.074 -0.3435 -0.0603 -0.5021
  364MOL0    Cl49049  13.828   5.476  -0.039 -0.1396  0.0793  0.3429
  364MOL0     C49050  12.644   5.544  -0.153  0.4492 -0.0526  0.4373
  364MOL0     C49051  12.522   5.618  -0.148  0.6325  0.0060 -0.2400
  364MOL0     O49052  12.346   5.671   0.099 -0.5210  0.6151 -0.9354
  364MOL0     C49053  12.116   5.819   0.157  0.0507  0.2540 -0.0015
  364MOL0     C49054  12.013   5.914   0.188 -0.3944  0.6705 -0.7811
  364MOL0     N49055  11.369   6.410   0.294  0.4778  0.5465  0.3740
  364MOL0     N49056  11.250   6.366   0.323 -0.2563  0.1020 -0.4832
  364MOL0     C49057  10.177   6.136   0.909 -0.1327  0.6136 -0.0594
  364MOL0     C49058  10.037   6.142   0.888 -0.2273 -0.1331  0.5032
  364MOL0     C49059   9.603   6.097   0.915 -0.3170 -0.9573  0.5102
  364MOL0     C49060   9.517   6.141   1.010 -0.9691 -0.0092 -0.0090
  364MOL0     C49061   9.381   6.137   0.992  0.7577 -0.0135  0.4446
  364MOL0     C49062   9.318   6.090   0.873 -0.8414  0.2315  0.0651
  364MOL0     O49063   9.184   6.102   0.859 -0.0126  0.0709  1.1364
  364MOL0     C49064   9.147   6.122   0.717  0.4521  0.1997 -0.0682
  364MOL0     C49065   8.991   6.142   0.716  0.4459 -0.4827 -0.5590
  364MOL0     C49066   8.920   6.019   0.760  0.8893  0.1882  0.1457
  364MOL0     C49067   8.770   6.029   0.780  0.8140  0.2507 -0.5482
  364MOL0     C49068   8.717   6.073   0.650  0.5037  0.3789 -0.8409
  364MOL0     C49069   8.674   6.112   0.546  0.0653 -0.0953 -0.3190
  364MOL0     C49070   9.409   6.046   0.777  0.3187 -0.2392 -0.0949
  364MOL0     C49071   9.548   6.043   0.795  0.1134  0.8368 -1.2634
  364MOL0     C49072   9.644   6.012   0.677 -0.5706  0.2569 -0.0269
  364MOL0     H49073   9.981   5.806   0.975 -0.3839 -0.6259  0.4911
  364MOL0     H49074  10.225   5.824   1.033  1.4333  1.8117  1.3736
  364MOL0     H49075  10.445   6.094   0.811 -0.8577  3.1283  0.4076
  364MOL0     H49076  10.460   6.199   0.964 -4.0106 -0.1379  0.1600
  364MOL0     H49077  10.638   5.956   0.881  1.0383 -0.3907  0.6487
  364MOL0     H49078  10.646   6.023   1.041  0.1570  0.3001 -0.2781
  364MOL0     H49079  10.708   6.243   0.968 -1.3925  1.5563 -2.0387
  364MOL0     H49080  10.693   6.197   0.795 -1.3815 -0.5619  0.2484
  364MOL0     H49081  10.902   6.081   0.991  3.3886 -1.3443 -2.4799
  364MOL0     H49082  10.873   6.015   0.842  1.5310 -0.1524  0.3241
  364MOL0     H49083  10.928   6.304   0.872 -0.4375 -0.6576  0.0775
  364MOL0     H49084  11.065   6.195   0.898  2.8406  0.4040 -3.3796
  364MOL0     H49085  11.015   6.081   0.687  2.1738  0.3423  4.3501
  364MOL0     H49086  10.900   6.205   0.630  0.8395 -2.2374 -1.4831
  364MOL0     H49087  11.192   6.230   0.706 -2.5284  0.0184  1.2719
  364MOL0     H49088  11.101   6.369   0.647 -1.6595  0.6228  2.8954
  364MOL0     H49089  11.181   6.100   0.500  3.6047 -0.2876 -1.9031
  364MOL0     H49090  11.054   6.219   0.444  0.9479  0.2030 -0.9888
  364MOL0     H49091  11.439   6.232   0.560 -2.7704  1.9548  2.6955
  364MOL0     H49092  11.616   6.485   0.396 -1.5904  0.5556  2.3089
  364MOL0     H49093  11.633   6.332   0.481 -1.4600  1.3771  0.6329
  364MOL0     H49094  11.695   6.215   0.266 -2.3231  0.3873  0.9250
  364MOL0     H49095  11.679   6.369   0.170  1.1830  1.0472  0.4132
  364MOL0     H49096  11.865   6.311   0.396  0.6270 -0.5350  0.1911
  364MOL0     H49097  11.874   6.459   0.295 -0.3418  0.6188 -1.4308
  364MOL0     H49098  12.046   6.306   0.202  0.5952  0.2313 -1.4911
  364MOL0     H49099  11.898   6.304   0.098 -1.4573  0.7376  0.8951
  364MOL0     H49100  12.161   6.193   0.070 -0.9938 -0.6345  2.4747
  364MOL0     H49101  12.305   6.049  -0.016 -2.4325  2.6414 -2.0226
  364MOL0     H49102  12.643   5.921  -0.046 -0.5022  0.8221 -2.1275
  364MOL0     H49103  12.851   5.800  -0.069 -0.9321  1.7661 -0.5453
  364MOL0     H49104  12.818   5.354  -0.074  0.9595 -2.9263 -0.1828
  364MOL0     H49105  12.884   5.377  -0.239  0.4083  0.5463 -0.5180
  364MOL0     H49106  13.033   5.416   0.031  1.0611  1.3382  0.0264
  364MOL0     H49107  13.033   5.258  -0.064 -0.8956 -0.1212  1.1740
  364MOL0     H49108  13.156   5.354  -0.246  1.8242 -1.3655  0.5759
  364MOL0     H49109  13.136   5.521  -0.174  0.5047  0.3899  0.6499
  364MOL0     H49110  13.302   5.287  -0.065  0.4550  0.0670 -1.7115
  364MOL0     H49111  13.265   5.437   0.024 -1.1991 -1.1061  0.7140
  364MOL0     H49112  13.345   5.531  -0.217  0.7390 -0.5988 -1.0703
  364MOL0     H49113  13.431   5.379  -0.231  0.1244  1.1002 -1.5159
  364MOL0     H49114  13.561   5.554  -0.143 -0.6554 -0.7420 -1.7862
  364MOL0     H49115  13.457   5.585  -0.005  0.0271  0.0046 -0.8182
  364MOL0     H49116  13.587   5.301  -0.052 -0.1735  0.3784 -0.2659
  364MOL0     H49117  13.492   5.358   0.081 -0.0491  1.5403  2.0295
  364MOL0     H49118  13.661   5.522   0.126  1.4505  0.1986  0.3058
  364MOL0     H49119  13.716   5.369   0.161  2.0597  1.7840  0.3884
  364MOL0     H49120  12.651   5.445  -0.196  2.3693  0.8108 -1.4514
  364MOL0     H49121  12.432   5.560  -0.168  0.9083 -0.6781  0.4695
  364MOL0     H49122  12.103   5.719   0.198 -1.5688  0.5184  0.2181
  364MOL0     H49123  11.928   5.870   0.237  1.1187 -1.5467 -0.0133
  364MOL0     H49124  10.238   6.226   0.905  1.8017 -0.5497  1.6446
  364MOL0     H49125   9.976   6.223   0.849 -0.5585 -0.2900  0.6917
  364MOL0     H49126   9.555   6.186   1.102  2.3870  0.5869 -1.5450
  364MOL0     H49127   9.315   6.168   1.073  1.5292 -2.6179  2.2270
  364MOL0     H49128   9.161   6.025   0.668  4.3077 -0.3028  1.6282
  364MOL0     H49129   9.208   6.200   0.671 -0.2733  0.0283 -1.3744
  364MOL0     H49130   8.968   6.169   0.612  1.0244 -3.4376 -1.5560
  364MOL0     H49131   8.958   6.221   0.783  0.2183 -1.9294  1.0922
  364MOL0     H49132   8.969   5.986   0.852 -1.0511 -3.0934  0.1917
  364MOL0     H49133   8.936   5.941   0.685  2.0978 -0.5498  1.1318
  364MOL0     H49134   8.721   5.935   0.811  0.6483  0.6154  0.3437
  364MOL0     H49135   8.750   6.097   0.863 -1.8689 -1.7541  0.6170
  364MOL0     H49136   8.638   6.140   0.449  0.8274  0.5338 -0.4290
  364MOL0     H49137   9.378   6.019   0.676 -1.6103  1.4458 -0.0297
  364MOL0     H49138   9.696   5.915   0.678  1.4052  1.2585  0.6379
  364MOL0     H49139   9.581   5.998   0.589  0.9464 -1.1320 -0.9517
  364MOL0     H49140   9.716   6.094   0.678  0.1716 -0.2770  3.1390
  365MOL0     O49141  10.286  10.906   7.636 -0.8287 -0.4069 -0.4544
  365MOL0     C49142  10.238  10.800   7.601 -0.3515 -0.5353 -0.7323
  365MOL0     O49143  10.294  10.716   7.516  0.2636  0.0605 -0.1733
  365MOL0     C49144  10.419  10.759   7.468 -0.2522 -0.2553 -0.0238
  365MOL0     C49145  10.539  10.746   7.541  0.5449  0.0844  0.7870
  365MOL0     C49146  10.660  10.798   7.493  0.1456  0.5524 -0.9735
  365MOL0     C49147  10.659  10.871   7.372 -0.0096 -0.2744  0.0329
  365MOL0     O49148  10.778  10.924   7.329 -0.7400 -0.0996  0.1757
  365MOL0     C49149  10.876  10.972   7.421 -0.7610  0.2665  0.5574
  365MOL0     C49150  10.987  11.044   7.336 -0.0199 -0.2069 -0.2118
  365MOL0     C49151  11.103  11.081   7.418 -0.3519  0.5961  0.4988
  365MOL0     C49152  11.217  11.133   7.338  0.1333 -0.5967  0.2026
  365MOL0     C49153  11.271  11.037   7.231 -0.1612 -0.1115 -0.7291
  365MOL0     C49154  11.415  11.081   7.189  0.4818  0.7116 -0.6562
  365MOL0     C49155  11.485  10.961   7.125 -0.1503 -0.1692  0.0700
  365MOL0     C49156  11.642  10.993   7.120 -0.6123 -0.3610 -0.4135
  365MOL0     N49157  11.721  10.882   7.056  0.1165 -0.0226 -0.5038
  365MOL0     C49158  11.680  10.801   6.958 -0.0397  0.4744  0.0968
  365MOL0     C49159  11.786  10.723   6.927 -1.1843 -0.0574  0.4870
  365MOL0     C49160  11.794  10.604   6.833 -0.1781 -0.1421 -0.8543
  365MOL0     C49161  11.823  10.641   6.691 -0.0831  0.2586  0.3281
  365MOL0     C49162  11.956  10.718   6.679 -0.6827 -0.0515 -0.2417
  365MOL0     C49163  12.002  10.744   6.534 -0.0898  1.3073  0.7135
  365MOL0     O49164  12.038  10.614   6.474  0.0714 -0.1720 -0.5633
  365MOL0     C49165  12.125  10.630   6.368 -0.6330 -0.2963  0.5932
  365MOL0     C49166  12.270  10.636   6.380  1.5240  0.0836  0.2632
  365MOL0     C49167  12.343  10.659   6.265  0.4053 -0.8273  0.1542
  365MOL0     C49168  12.273  10.676   6.138  0.1490 -0.2448  0.7728
  365MOL0     C49169  12.340  10.699   6.016 -0.5685  0.2861  1.1027
  365MOL0     O49170  12.276  10.647   5.908 -0.4109  0.3297 -0.1329
  365MOL0     C49171  12.323  10.675   5.778 -0.9087 -0.4846  0.0946
  365MOL0     C49172  12.451  10.640   5.734  0.0800 -0.0580 -0.3401
  365MOL0     C49173  12.490  10.653   5.601 -0.1441  0.4667 -0.1350
  365MOL0     C49174  12.400  10.688   5.495  0.6154  0.4278 -0.4421
  365MOL0     O49175  12.426  10.688   5.364  0.2503  0.2507 -0.1321
  365MOL0     C49176  12.532  10.615   5.307  1.1511 -0.1872  0.1290
  365MOL0     C49177  12.646  10.701   5.274 -0.0263  0.7254  0.5472
  365MOL0     C49178  12.772  10.618   5.228 -0.7955  0.6858 -0.1271
  365MOL0     C49179  12.872  10.727   5.181  0.1289 -0.4309  0.3865
  365MOL0     C49180  12.984  10.656   5.092  0.0724  0.0626 -0.5746
  365MOL0     C49181  13.085  10.761   5.052  0.8246 -0.2593  0.4623
  365MOL0     C49182  13.197  10.706   4.968 -0.0821  0.0711 -0.2938
  365MOL0     C49183  13.279  10.813   4.914 -1.0949 -0.7350 -0.3062
  365MOL0    Cl49184  13.395  10.882   5.042  0.1096  0.0970 -0.0539
  365MOL0     C49185  12.272  10.729   5.542  0.9272 -0.8128  0.0062
  365MOL0     C49186  12.233  10.731   5.680 -0.0680 -0.0372 -0.6439
  365MOL0     O49187  12.444  10.768   6.018 -0.2109 -0.2556 -0.2796
  365MOL0     C49188  12.135  10.676   6.129 -0.4720 -0.6577  0.0623
  365MOL0     C49189  12.058  10.661   6.246 -0.4222  0.6290 -0.2182
  365MOL0     N49190  11.896  10.757   7.008  0.7269 -0.0049 -0.1242
  365MOL0     N49191  11.853  10.857   7.083 -0.8707  0.0628  0.7261
  365MOL0     C49192  10.540  10.871   7.293 -0.2239 -0.1098  0.2626
  365MOL0     C49193  10.429  10.814   7.344 -0.0090 -0.4806 -1.4944
  365MOL0     C49194  10.111  10.759   7.656  1.0987 -0.3476 -0.9432
  365MOL0     C49195  10.070  10.810   7.784 -0.5565 -0.2922 -0.6935
  365MOL0     C49196   9.950  10.777   7.847  0.0284  0.2142  0.0255
  365MOL0     C49197   9.859  10.701   7.779 -0.1018 -0.6629 -0.6028
  365MOL0     O49198   9.743  10.675   7.855  0.8498 -0.0860 -0.7719
  365MOL0     C49199   9.627  10.615   7.789  0.5047  1.1558  0.1290
  365MOL0     C49200   9.627  10.458   7.816 -0.1786  0.0893  0.1564
  365MOL0     C49201   9.508  10.407   7.734 -0.0256  0.1618 -0.4238
  365MOL0     C49202   9.462  10.262   7.775 -0.3692 -0.0190 -0.4183
  365MOL0     C49203   9.347  10.224   7.693  1.1807 -0.2334 -0.0812
  365MOL0     C49204   9.256  10.179   7.629 -0.3908  0.3193 -0.3650
  365MOL0     C49205   9.894  10.644   7.658  0.6446  0.0303 -0.4412
  365MOL0     C49206  10.016  10.684   7.589  0.5100 -0.1669 -1.1254
  365MOL0     C49207  10.034  10.658   7.441  0.1107 -0.8473  0.2053
  365MOL0     H49208  10.536  10.698   7.638 -0.9609  1.0710  1.2689
  365MOL0     H49209  10.756  10.778   7.539  0.0775  0.3310 -0.9279
  365MOL0     H49210  10.846  11.051   7.490 -0.2565  1.4579 -0.5470
  365MOL0     H49211  10.916  10.887   7.477  0.5852  0.9573  0.6871
  365MOL0     H49212  10.940  11.136   7.301 -0.6730 -0.8008 -0.9278
  365MOL0     H49213  11.016  10.980   7.252 -2.6589 -1.6367 -0.1393
  365MOL0     H49214  11.146  10.995   7.471 -0.1168  0.6489  0.3966
  365MOL0     H49215  11.076  11.159   7.490 -0.2366  1.8157 -0.7339
  365MOL0     H49216  11.187  11.229   7.296 -0.2706 -0.1800  1.4209
  365MOL0     H49217  11.298  11.161   7.406  0.9705 -0.4083 -0.8360
  365MOL0     H49218  11.268  10.938   7.277 -1.8256  0.6151  0.8577
  365MOL0     H49219  11.215  11.036   7.137  1.6425  1.4077 -1.8861
  365MOL0     H49220  11.397  11.161   7.116 -1.7658  0.9930  0.1196
  365MOL0     H49221  11.478  11.104   7.275  2.0580  0.2831 -1.6512
  365MOL0     H49222  11.436  10.931   7.031 -0.5488  1.9248 -0.4484
  365MOL0     H49223  11.469  10.876   7.192 -1.8235  0.4144  0.4612
  365MOL0     H49224  11.658  11.080   7.057  4.0146 -0.3793  0.3674
  365MOL0     H49225  11.692  11.014   7.215  0.7714 -0.8517 -1.0138
  365MOL0     H49226  11.581  10.789   6.913  0.0439  0.6367 -0.1294
  365MOL0     H49227  11.872  10.537   6.869 -0.9069 -0.5797 -0.0586
  365MOL0     H49228  11.698  10.551   6.838  0.8637 -2.0945 -0.5275
  365MOL0     H49229  11.833  10.544   6.641  0.9716  0.3269  0.3764
  365MOL0     H49230  11.735  10.696   6.657 -2.0330 -2.5636  0.5145
  365MOL0     H49231  12.034  10.656   6.723 -1.5226 -1.3693 -0.5744
  365MOL0     H49232  11.952  10.802   6.749 -1.2319 -1.0963  1.0135
  365MOL0     H49233  12.087  10.813   6.528 -1.8083  3.4244 -0.5471
  365MOL0     H49234  11.913  10.784   6.485 -2.1907 -0.7934  2.5501
  365MOL0     H49235  12.327  10.634   6.472  2.3391  0.8825 -0.1996
  365MOL0     H49236  12.449  10.683   6.272  0.1011  1.5831 -1.9658
  365MOL0     H49237  12.534  10.608   5.797  0.0706 -4.4674 -2.2134
  365MOL0     H49238  12.593  10.635   5.570 -0.3405 -1.7413  0.3357
  365MOL0     H49239  12.561  10.534   5.374 -1.5272 -0.7183  0.7552
  365MOL0     H49240  12.501  10.559   5.218  2.7018 -1.0869  0.1169
  365MOL0     H49241  12.609  10.776   5.203 -1.2288 -0.7107 -0.4054
  365MOL0     H49242  12.672  10.765   5.358  2.0918 -1.1143  1.4176
  365MOL0     H49243  12.817  10.569   5.315 -2.2255  1.7663  1.2651
  365MOL0     H49244  12.752  10.541   5.153  2.5311  0.9703 -1.4983
  365MOL0     H49245  12.902  10.776   5.274  0.0599 -0.5099  0.4506
  365MOL0     H49246  12.815  10.790   5.113 -2.4206 -1.0516  1.8320
  365MOL0     H49247  12.935  10.602   5.010  0.6458 -0.2696 -0.7047
  365MOL0     H49248  13.040  10.589   5.158 -0.9060 -1.8155 -1.5751
  365MOL0     H49249  13.024  10.833   4.997 -1.8153 -1.0119  2.2361
  365MOL0     H49250  13.132  10.807   5.139  0.8213 -1.3570  1.0627
  365MOL0     H49251  13.167  10.643   4.883  0.6732 -0.7035 -0.0026
  365MOL0     H49252  13.256  10.636   5.028  2.3135  0.2464 -2.3002
  365MOL0     H49253  13.353  10.767   4.847  0.9985 -1.0487  2.0752
  365MOL0     H49254  13.229  10.890   4.854  1.7730  2.6095  1.2251
  365MOL0     H49255  12.196  10.753   5.469 -0.2123  1.2807  1.7768
  365MOL0     H49256  12.128  10.753   5.693 -0.1354  0.1810 -1.5142
  365MOL0     H49257  12.078  10.698   6.040 -1.1075  4.0131  1.3780
  365MOL0     H49258  11.950  10.666   6.239 -0.3880 -0.1081 -1.4486
  365MOL0     H49259  10.526  10.913   7.193 -1.6556  1.6201  1.1332
  365MOL0     H49260  10.334  10.827   7.292 -1.1643 -1.0486  0.3826
  365MOL0     H49261  10.147  10.869   7.833  1.4593 -2.0015 -1.6661
  365MOL0     H49262   9.932  10.805   7.950 -1.7544  1.9061 -0.6796
  365MOL0     H49263   9.625  10.633   7.681 -2.4817  1.3551  0.1260
  365MOL0     H49264   9.536  10.641   7.844  1.0193 -1.5639  2.5178
  365MOL0     H49265   9.608  10.447   7.923 -1.2423 -0.5120 -0.0900
  365MOL0     H49266   9.720  10.413   7.780 -1.0648 -1.8580  0.1795
  365MOL0     H49267   9.530  10.403   7.627  0.2723 -2.8058 -0.3365
  365MOL0     H49268   9.419  10.468   7.752 -0.5899 -0.7620  0.0135
  365MOL0     H49269   9.546  10.200   7.740  0.4166  1.5622 -1.4766
  365MOL0     H49270   9.436  10.245   7.879 -0.4298 -0.6268 -0.5254
  365MOL0     H49271   9.183  10.122   7.576 -0.3773 -1.2247  1.1939
  365MOL0     H49272   9.833  10.571   7.606  0.2253  0.1351 -0.1075
  365MOL0     H49273  10.089  10.567   7.417  0.3690 -0.2651 -1.5929
  365MOL0     H49274   9.938  10.654   7.388  0.7543  0.8005 -1.1596
  365MOL0     H49275  10.089  10.744   7.403  2.6595 -1.6977  1.7085
  366MOL0     O49276   0.694   2.996   9.269 -0.0600 -0.2002  0.0775
  366MOL0     C49277   0.638   2.894   9.221  0.5472  0.2991  0.3490
  366MOL0     O49278   0.671   2.828   9.108 -0.7763  0.7632 -0.6174
  366MOL0     C49279   0.804   2.834   9.072 -1.0168 -0.5560 -0.2406
  366MOL0     C49280   0.910   2.812   9.164  0.1215 -0.4606  0.0847
  366MOL0     C49281   1.040   2.813   9.123 -0.2342  0.0261  0.5345
  366MOL0     C49282   1.068   2.831   8.981  0.2252 -0.3054  0.1624
  366MOL0     O49283   1.197   2.833   8.930 -0.2037  0.3201 -0.5300
  366MOL0     C49284   1.289   2.740   8.990 -0.2474 -1.0973 -0.3292
  366MOL0     C49285   1.402   2.713   8.892  0.0953 -0.3848  0.9566
  366MOL0     C49286   1.484   2.834   8.841 -0.1449  0.0049 -0.2129
  366MOL0     C49287   1.596   2.878   8.928 -0.2293 -0.5551  0.8082
  366MOL0     C49288   1.677   2.993   8.862 -0.2520 -0.7915 -0.3900
  366MOL0     C49289   1.761   2.947   8.748 -1.0566  0.0462 -0.5169
  366MOL0     C49290   1.844   3.066   8.695 -0.7779  0.3497  0.4048
  366MOL0     C49291   1.961   3.110   8.788 -0.2032 -0.2439  0.3671
  366MOL0     N49292   2.062   3.014   8.806 -0.6882  0.7142  0.0282
  366MOL0     C49293   2.048   2.906   8.897 -0.1632  0.1649 -0.0338
  366MOL0     C49294   2.166   2.837   8.893  0.6362  0.6674  0.1370
  366MOL0     C49295   2.224   2.708   8.953 -0.1958 -0.2072 -0.4573
  366MOL0     C49296   2.201   2.595   8.847 -0.3441 -0.1342 -0.1404
  366MOL0     C49297   2.293   2.472   8.889  0.5141  0.2103  0.2795
  366MOL0     C49298   2.437   2.487   8.842  0.0083  0.1296 -0.9020
  366MOL0     O49299   2.513   2.378   8.906 -0.2538  0.4565 -0.3575
  366MOL0     C49300   2.648   2.382   8.912 -0.3628 -0.4555  0.0491
  366MOL0     C49301   2.710   2.282   8.988 -0.3047  0.1031 -0.4216
  366MOL0     C49302   2.843   2.284   9.013 -0.3577  0.2144 -0.0721
  366MOL0     C49303   2.924   2.391   8.965 -0.1522  0.7088  0.7686
  366MOL0     C49304   3.073   2.394   8.979  0.0319  0.4906 -0.7445
  366MOL0     O49305   3.131   2.515   8.946  0.1579 -0.2434 -0.5388
  366MOL0     C49306   3.263   2.528   8.974 -0.3029  0.3390 -0.6814
  366MOL0     C49307   3.311   2.530   9.111 -0.9743 -0.4637  0.4948
  366MOL0     C49308   3.447   2.553   9.132 -0.4642 -0.1940  0.2725
  366MOL0     C49309   3.541   2.580   9.030  0.7784 -0.3112 -1.2126
  366MOL0     O49310   3.678   2.603   9.058  0.6364  0.2032  0.6373
  366MOL0     C49311   3.781   2.574   8.970  0.1529  0.7276 -0.0608
  366MOL0     C49312   3.791   2.425   8.974 -0.1194  0.3126  0.5209
  366MOL0     C49313   3.914   2.379   8.891  0.1485  0.4071 -1.1389
  366MOL0     C49314   3.955   2.241   8.952 -0.0999  0.1376 -0.9815
  366MOL0     C49315   4.028   2.164   8.846 -0.0539  0.2754  0.0570
  366MOL0     C49316   4.085   2.028   8.900  0.3535  0.6187 -0.4228
  366MOL0     C49317   4.131   1.915   8.804  0.6546 -0.1101 -0.7274
  366MOL0     C49318   4.256   1.944   8.745 -1.4186 -0.2256  0.0673
  366MOL0    Cl49319   4.380   1.953   8.872  0.0640  0.0720 -0.0293
  366MOL0     C49320   3.487   2.585   8.893 -0.6676  0.3452  0.1991
  366MOL0     C49321   3.350   2.554   8.867  0.7426 -0.1970 -0.3088
  366MOL0     O49322   3.136   2.297   9.012  0.5876  0.5110 -0.2040
  366MOL0     C49323   2.867   2.485   8.881  0.1597  0.5642 -0.1226
  366MOL0     C49324   2.731   2.487   8.859  0.2431  0.2834 -0.5400
  366MOL0     N49325   2.239   2.905   8.799  0.0857 -0.3047  0.6879
  366MOL0     N49326   2.178   3.002   8.738 -0.5121 -0.3278  0.9615
  366MOL0     C49327   0.960   2.852   8.894 -0.3546  0.2997 -0.2800
  366MOL0     C49328   0.834   2.853   8.943 -0.4853 -0.3880 -0.7867
  366MOL0     C49329   0.536   2.828   9.307  0.2148  0.0149 -0.0031
  366MOL0     C49330   0.515   2.689   9.285 -0.4357  0.6735  0.1110
  366MOL0     C49331   0.425   2.609   9.369 -0.4240  0.6590  0.2992
  366MOL0     C49332   0.358   2.672   9.471 -0.1973 -0.5313  0.6799
  366MOL0     O49333   0.275   2.592   9.550  0.2096 -0.0158  0.1306
  366MOL0     C49334   0.168   2.658   9.613  0.0647 -0.2743 -0.2237
  366MOL0     C49335   0.057   2.552   9.634 -0.2616  0.1407 -0.3830
  366MOL0     C49336   0.013   2.497   9.502  0.6041  0.2273 -0.6716
  366MOL0     C49337  -0.097   2.379   9.517 -0.2552  0.3884  0.6504
  366MOL0     C49338  -0.177   2.345   9.387 -1.1944  0.4959  1.0273
  366MOL0     C49339  -0.265   2.332   9.301  0.4099 -0.9821 -0.7211
  366MOL0     C49340   0.376   2.811   9.488  0.6159  0.0878 -0.2312
  366MOL0     C49341   0.470   2.884   9.415 -0.3074 -0.6994 -0.1801
  366MOL0     C49342   0.474   3.035   9.446  0.4794 -0.4342 -0.3935
  366MOL0     H49343   0.883   2.801   9.268 -1.7116 -1.0881 -0.4063
  366MOL0     H49344   1.113   2.777   9.195 -2.2834  0.1347  2.8127
  366MOL0     H49345   1.325   2.782   9.085  0.9921  0.0382 -1.2655
  366MOL0     H49346   1.237   2.646   9.011 -2.8265  0.4383  0.7176
  366MOL0     H49347   1.356   2.666   8.804 -0.9746 -0.3925  1.4987
  366MOL0     H49348   1.461   2.628   8.928  0.0028 -1.5579 -1.4771
  366MOL0     H49349   1.410   2.915   8.833 -3.1008 -2.5834 -1.0756
  366MOL0     H49350   1.513   2.807   8.739 -0.9323  1.0092 -0.7285
  366MOL0     H49351   1.544   2.918   9.016 -0.8915  2.2363 -0.7280
  366MOL0     H49352   1.665   2.800   8.960 -0.6095 -0.5141  1.7763
  366MOL0     H49353   1.609   3.066   8.818 -0.6822 -1.3741 -0.6967
  366MOL0     H49354   1.745   3.032   8.939 -0.3639  1.0238 -1.1479
  366MOL0     H49355   1.829   2.863   8.763 -1.5059 -0.4379 -1.1424
  366MOL0     H49356   1.694   2.920   8.666 -1.8142  0.2275  0.0285
  366MOL0     H49357   1.789   3.156   8.667 -1.0472 -0.0249 -0.2968
  366MOL0     H49358   1.906   3.024   8.615  2.0072  1.6067  1.7674
  366MOL0     H49359   2.015   3.200   8.756 -0.8551  1.6209  3.9044
  366MOL0     H49360   1.919   3.147   8.882  1.9990 -0.9800  1.7056
  366MOL0     H49361   1.970   2.881   8.968  2.5736 -1.3952  2.6830
  366MOL0     H49362   2.331   2.717   8.974 -0.6571 -1.5010  3.4197
  366MOL0     H49363   2.179   2.676   9.048  0.9162 -0.4211  0.0168
  366MOL0     H49364   2.094   2.571   8.840 -1.2773  3.4925 -0.4562
  366MOL0     H49365   2.230   2.632   8.748 -0.1224  1.2143  0.4028
  366MOL0     H49366   2.253   2.381   8.845 -2.6557  1.1719  0.9046
  366MOL0     H49367   2.301   2.462   8.998  0.7200  0.2375  0.2694
  366MOL0     H49368   2.470   2.584   8.879 -1.2522  0.7771 -1.4037
  366MOL0     H49369   2.460   2.481   8.735  6.8897  0.3462  0.1467
  366MOL0     H49370   2.656   2.192   9.017  1.0495 -1.2298 -1.7710
  366MOL0     H49371   2.891   2.200   9.062  1.9391  1.1621 -0.5846
  366MOL0     H49372   3.234   2.515   9.186 -2.5461  0.0653 -0.9580
  366MOL0     H49373   3.495   2.532   9.227  1.2291  0.7801 -0.3222
  366MOL0     H49374   3.749   2.598   8.869 -0.8588 -0.5637 -0.0828
  366MOL0     H49375   3.873   2.629   8.989  1.2470 -1.4778  1.4805
  366MOL0     H49376   3.807   2.404   9.080 -1.5500 -2.5153  0.2869
  366MOL0     H49377   3.698   2.369   8.963 -0.3414 -0.1983  3.9070
  366MOL0     H49378   3.883   2.361   8.788  1.3725 -0.5453 -1.3610
  366MOL0     H49379   4.004   2.440   8.899  1.2713 -1.4134  2.0823
  366MOL0     H49380   3.869   2.186   8.990 -0.5144  0.3937 -1.5354
  366MOL0     H49381   4.020   2.260   9.038 -1.9740  0.4174  0.4229
  366MOL0     H49382   4.110   2.233   8.821  0.1836 -0.6221 -1.7832
  366MOL0     H49383   3.969   2.140   8.757 -0.7648  1.0829  0.2911
  366MOL0     H49384   4.163   2.040   8.975 -2.0280 -0.9926  2.5306
  366MOL0     H49385   4.007   1.981   8.961  2.8309 -0.1742  2.3400
  366MOL0     H49386   4.060   1.893   8.724 -0.9860  1.3951  0.2430
  366MOL0     H49387   4.136   1.823   8.862  3.1228 -0.3461 -1.1859
  366MOL0     H49388   4.281   1.857   8.683  0.6183  1.5323 -1.7513
  366MOL0     H49389   4.263   2.035   8.684 -1.6860 -0.3845 -0.2014
  366MOL0     H49390   3.543   2.597   8.801 -1.0837  0.1002 -0.0882
  366MOL0     H49391   3.314   2.546   8.765  1.3112 -1.2305 -0.4384
  366MOL0     H49392   2.924   2.563   8.831  1.1000  0.5685  0.9342
  366MOL0     H49393   2.700   2.563   8.788  0.7303  0.3440 -0.6889
  366MOL0     H49394   0.982   2.875   8.790 -2.5456  1.6084 -0.5175
  366MOL0     H49395   0.751   2.863   8.873  0.2505 -0.8671 -1.7424
  366MOL0     H49396   0.586   2.633   9.225 -0.1576 -1.8245  2.5556
  366MOL0     H49397   0.393   2.507   9.349  0.2170  0.1809  1.5797
  366MOL0     H49398   0.128   2.740   9.553 -1.1369  1.8002  3.1252
  366MOL0     H49399   0.198   2.706   9.706  1.3691  0.9628 -1.2316
  366MOL0     H49400  -0.026   2.611   9.675 -0.3647  1.4434 -2.3425
  366MOL0     H49401   0.093   2.474   9.702  1.4078  1.4956  0.3939
  366MOL0     H49402   0.098   2.455   9.448  0.0633 -0.2722 -1.1491
  366MOL0     H49403  -0.023   2.574   9.432 -0.0057  1.2574  0.7325
  366MOL0     H49404  -0.046   2.291   9.556 -3.0582 -1.4958  0.3316
  366MOL0     H49405  -0.177   2.414   9.582 -1.4047 -1.3360  0.2216
  366MOL0     H49406  -0.355   2.325   9.245 -0.0405 -0.3536 -0.0831
  366MOL0     H49407   0.315   2.870   9.556  0.7761  0.2809 -0.2565
  366MOL0     H49408   0.569   3.081   9.475 -1.6900  3.4104  1.3651
  366MOL0     H49409   0.459   3.087   9.351 -1.1938  2.0021  1.1039
  366MOL0     H49410   0.393   3.070   9.510  2.8860  2.6165  1.2703
  367MOL0     O49411   4.080   8.048   4.711 -0.2856 -0.3787  0.4567
  367MOL0     C49412   4.051   8.114   4.806  0.3739  0.3751  0.0197
  367MOL0     O49413   4.130   8.124   4.919 -0.2546 -0.1472  0.2705
  367MOL0     C49414   4.227   8.025   4.940  0.3664 -0.9614  0.5818
  367MOL0     C49415   4.201   7.954   5.062 -1.2487 -0.0767  0.5144
  367MOL0     C49416   4.293   7.842   5.079  0.9639  0.5513 -0.2243
  367MOL0     C49417   4.395   7.808   4.998 -0.7341 -0.5065  0.1154
  367MOL0     O49418   4.480   7.704   5.037  0.1658 -0.4544 -0.8702
  367MOL0     C49419   4.579   7.665   4.940 -0.5313  1.0690  0.0265
  367MOL0     C49420   4.638   7.535   4.969 -0.1639  0.4497 -1.2426
  367MOL0     C49421   4.738   7.494   4.867  1.1323 -0.6099  0.9063
  367MOL0     C49422   4.758   7.344   4.875  0.1764 -0.4462  0.7763
  367MOL0     C49423   4.875   7.301   4.786  0.1864 -0.2304 -1.0362
  367MOL0     C49424   4.876   7.148   4.776  0.6610  0.5176  0.5958
  367MOL0     C49425   4.995   7.080   4.727 -0.7962  0.3265  0.4024
  367MOL0     C49426   5.026   7.130   4.588  0.4270 -0.1291  0.2219
  367MOL0     N49427   5.124   7.052   4.517  0.5199 -0.6182  0.0637
  367MOL0     C49428   5.244   7.000   4.562  0.2853  0.0818 -0.8908
  367MOL0     C49429   5.309   6.962   4.451  0.8155  0.7500 -0.2468
  367MOL0     C49430   5.438   6.893   4.443  0.9176 -0.0493 -0.5775
  367MOL0     C49431   5.540   6.987   4.387  0.2557  0.3160 -0.4033
  367MOL0     C49432   5.683   6.928   4.379  0.0338 -0.0182 -0.1164
  367MOL0     C49433   5.691   6.809   4.286  0.1542  0.3112 -0.2435
  367MOL0     O49434   5.806   6.729   4.311 -0.7851  0.4851 -0.4339
  367MOL0     C49435   5.916   6.714   4.227 -0.5146 -0.3006  0.2760
  367MOL0     C49436   5.938   6.769   4.104  0.3072 -0.6068 -0.7936
  367MOL0     C49437   6.059   6.752   4.036  0.7771  0.5707  1.0288
  367MOL0     C49438   6.156   6.660   4.079  0.5625 -0.6732 -0.3717
  367MOL0     C49439   6.281   6.639   3.998  0.8814  0.1510 -0.9611
  367MOL0     O49440   6.318   6.729   3.899  0.2508  0.0193 -0.0865
  367MOL0     C49441   6.430   6.697   3.843 -0.0957 -0.0114  0.8311
  367MOL0     C49442   6.428   6.668   3.707 -0.1730 -0.0385  0.1408
  367MOL0     C49443   6.542   6.631   3.636 -0.4370 -0.0431  0.2915
  367MOL0     C49444   6.667   6.628   3.697  0.5117  0.6462  0.0759
  367MOL0     O49445   6.772   6.584   3.619  0.1630 -0.3595 -0.5629
  367MOL0     C49446   6.886   6.522   3.674  0.0277  0.7695  0.4093
  367MOL0     C49447   7.003   6.517   3.578 -0.4704  0.1921 -0.2467
  367MOL0     C49448   6.980   6.436   3.443 -0.4607 -1.2640  0.2658
  367MOL0     C49449   6.854   6.348   3.430 -0.2203 -0.6357 -0.5734
  367MOL0     C49450   6.862   6.239   3.319  0.8815  1.0156  1.0056
  367MOL0     C49451   6.885   6.282   3.172  0.4764 -0.1732  0.1995
  367MOL0     C49452   6.753   6.311   3.095  0.6873 -0.3072 -0.4349
  367MOL0     C49453   6.769   6.343   2.942 -0.6823  0.2676  0.3791
  367MOL0    Cl49454   6.853   6.218   2.844  0.1360  0.2365 -0.5843
  367MOL0     C49455   6.672   6.664   3.829  0.9926  0.6425 -1.0670
  367MOL0     C49456   6.556   6.700   3.906  0.2888  0.5569 -0.0666
  367MOL0     O49457   6.340   6.535   4.030 -0.1130 -0.4915  0.3593
  367MOL0     C49458   6.141   6.611   4.209 -0.5440  0.1525 -0.4431
  367MOL0     C49459   6.026   6.637   4.276 -0.0937  0.2942  0.5443
  367MOL0     N49460   5.232   6.998   4.339 -0.9238  0.1930  0.2323
  367MOL0     N49461   5.128   7.044   4.379 -0.2826 -0.8899 -0.2703
  367MOL0     C49462   4.417   7.889   4.880 -0.1346 -0.3936  0.1474
  367MOL0     C49463   4.333   8.001   4.848  0.0989  0.3287  0.2373
  367MOL0     C49464   3.936   8.216   4.802  0.0610 -0.1156  0.2058
  367MOL0     C49465   3.907   8.296   4.923  0.0789  0.6951 -0.2585
  367MOL0     C49466   3.822   8.413   4.912 -1.0139  0.4093  0.0766
  367MOL0     C49467   3.752   8.436   4.800 -0.2314 -0.6307  0.1221
  367MOL0     O49468   3.654   8.535   4.777 -0.0465 -0.0013  0.7956
  367MOL0     C49469   3.629   8.619   4.885 -0.6538 -0.0451 -0.4526
  367MOL0     C49470   3.504   8.711   4.852 -0.8149 -0.5972  0.6999
  367MOL0     C49471   3.367   8.641   4.863  0.1722  0.0421  0.2028
  367MOL0     C49472   3.259   8.743   4.886  0.1801  0.4020 -0.6487
  367MOL0     C49473   3.256   8.833   4.771  0.2181 -0.1479 -0.6114
  367MOL0     C49474   3.243   8.917   4.685  0.2516 -0.0524  0.9679
  367MOL0     C49475   3.784   8.361   4.692  0.7752  0.1490 -0.0878
  367MOL0     C49476   3.865   8.249   4.686  0.4631 -0.3595  0.7242
  367MOL0     C49477   3.864   8.173   4.557 -0.0808  0.4689 -0.3092
  367MOL0     H49478   4.119   7.975   5.130  0.0599  2.0343  1.5438
  367MOL0     H49479   4.293   7.775   5.164 -0.4366  1.8228  0.8203
  367MOL0     H49480   4.538   7.658   4.839 -2.1451 -2.4343  0.7739
  367MOL0     H49481   4.661   7.737   4.950 -0.9330  1.6756 -0.9627
  367MOL0     H49482   4.555   7.465   4.971  0.3181 -0.1204 -0.8012
  367MOL0     H49483   4.691   7.531   5.065  2.6347  0.8681 -2.6514
  367MOL0     H49484   4.823   7.561   4.881  0.1536  0.9332 -0.2365
  367MOL0     H49485   4.704   7.517   4.765  4.5061 -1.4036 -0.5382
  367MOL0     H49486   4.788   7.316   4.977 -0.3399 -0.2763  0.9768
  367MOL0     H49487   4.667   7.290   4.848 -0.6398  1.3054 -0.1158
  367MOL0     H49488   4.870   7.359   4.694  1.3799  1.0246 -0.3387
  367MOL0     H49489   4.961   7.343   4.839 -0.0288 -0.9074 -0.1140
  367MOL0     H49490   4.846   7.098   4.868 -0.3493 -0.1964 -0.1109
  367MOL0     H49491   4.801   7.126   4.700 -0.1256 -0.0521  1.5122
  367MOL0     H49492   4.966   6.975   4.715 -0.0086  0.3572 -2.4688
  367MOL0     H49493   5.084   7.081   4.791  1.4587 -0.3809 -2.5160
  367MOL0     H49494   4.934   7.133   4.530 -0.0037  2.4901  0.9261
  367MOL0     H49495   5.051   7.236   4.592 -4.3938  1.2908 -1.0912
  367MOL0     H49496   5.280   7.006   4.665  0.4678 -0.4752 -0.9224
  367MOL0     H49497   5.479   6.854   4.537  2.8403  0.3912 -1.1839
  367MOL0     H49498   5.420   6.805   4.380 -0.4692 -1.3063  1.4228
  367MOL0     H49499   5.517   7.015   4.284 -0.0633  3.4108  0.4096
  367MOL0     H49500   5.534   7.078   4.448 -1.0082 -2.3976  4.0454
  367MOL0     H49501   5.731   6.910   4.475  1.5825  0.8953 -0.6981
  367MOL0     H49502   5.748   7.007   4.341 -4.3593  3.4928 -1.1922
  367MOL0     H49503   5.683   6.845   4.183 -1.2868 -0.6817 -0.5143
  367MOL0     H49504   5.600   6.750   4.300 -0.4955  1.1096 -0.9771
  367MOL0     H49505   5.871   6.836   4.051  2.4202  2.0094 -0.4197
  367MOL0     H49506   6.058   6.798   3.937 -0.2146  1.8250  1.6008
  367MOL0     H49507   6.339   6.678   3.645 -1.5143 -3.2095  1.3513
  367MOL0     H49508   6.549   6.623   3.528  2.3502 -2.2757  0.4928
  367MOL0     H49509   6.923   6.587   3.753  0.4556  2.9052 -1.4278
  367MOL0     H49510   6.866   6.423   3.715  0.6581  1.1391  1.6442
  367MOL0     H49511   7.013   6.622   3.550 -0.7259 -0.0636 -1.3401
  367MOL0     H49512   7.097   6.486   3.625 -2.7333 -3.1824  2.7331
  367MOL0     H49513   6.995   6.504   3.359 -1.7165  0.3677  1.2977
  367MOL0     H49514   7.067   6.371   3.430 -0.6296 -0.9455 -3.4381
  367MOL0     H49515   6.765   6.402   3.396 -0.3181 -1.6425 -2.0075
  367MOL0     H49516   6.820   6.311   3.527 -3.1870  0.0550 -1.2297
  367MOL0     H49517   6.774   6.175   3.327  3.1090 -2.1007  2.6732
  367MOL0     H49518   6.952   6.178   3.329  1.3573  0.8406 -2.7743
  367MOL0     H49519   6.951   6.369   3.163  0.0258 -0.0543 -3.2676
  367MOL0     H49520   6.941   6.209   3.113  1.2512  2.7783 -3.0430
  367MOL0     H49521   6.709   6.396   3.148  3.2069  1.2509 -0.6841
  367MOL0     H49522   6.680   6.232   3.115  0.0710  1.1024  3.9642
  367MOL0     H49523   6.673   6.356   2.890 -1.9346  0.1505  2.5302
  367MOL0     H49524   6.826   6.436   2.937  2.4374 -1.2851  3.2935
  367MOL0     H49525   6.764   6.657   3.885 -1.3768 -2.2624  3.0580
  367MOL0     H49526   6.572   6.700   4.013  2.3787 -2.2143 -0.2750
  367MOL0     H49527   6.225   6.560   4.255 -1.2444 -0.3771  0.2744
  367MOL0     H49528   6.014   6.601   4.378 -0.3494 -1.1294  0.0332
  367MOL0     H49529   4.509   7.873   4.825 -0.0471  0.1710  0.1233
  367MOL0     H49530   4.357   8.055   4.757  1.4448 -1.4671 -0.5358
  367MOL0     H49531   3.953   8.278   5.020  1.9450  1.7093 -0.9092
  367MOL0     H49532   3.805   8.461   5.008 -1.1262  1.3764 -0.4247
  367MOL0     H49533   3.717   8.683   4.902  0.1856 -1.0106 -1.0137
  367MOL0     H49534   3.610   8.561   4.976  0.6676 -0.4146 -0.3830
  367MOL0     H49535   3.516   8.761   4.756  1.8803 -0.4678  1.0205
  367MOL0     H49536   3.500   8.792   4.926 -2.8517 -0.7729  0.8429
  367MOL0     H49537   3.377   8.562   4.937  0.4873 -0.4353 -0.3401
  367MOL0     H49538   3.345   8.577   4.777  0.0731  0.5243 -0.1367
  367MOL0     H49539   3.161   8.696   4.886 -0.7042  2.1415  0.0608
  367MOL0     H49540   3.271   8.805   4.975 -3.3720 -1.1719  1.1189
  367MOL0     H49541   3.218   8.992   4.613  0.1877 -0.5971  0.4101
  367MOL0     H49542   3.729   8.378   4.600 -1.8630 -2.2129  0.9288
  367MOL0     H49543   3.774   8.187   4.496  0.9860 -0.2548 -2.1448
  367MOL0     H49544   3.960   8.194   4.509 -1.3442  0.9312 -2.8052
  367MOL0     H49545   3.853   8.068   4.588 -0.8468  0.2166 -1.3699
  368MOL0     O49546   0.817   8.239   5.441  0.0926 -0.3434  0.4279
  368MOL0     C49547   0.761   8.224   5.546 -0.2299 -0.6330  0.2465
  368MOL0     O49548   0.786   8.297   5.658 -0.5661  0.2356 -0.5819
  368MOL0     C49549   0.873   8.403   5.656 -0.7184 -0.8560  0.0518
  368MOL0     C49550   0.827   8.516   5.722 -1.1111  0.0040  0.0861
  368MOL0     C49551   0.922   8.619   5.738 -0.1711  0.8700 -0.3397
  368MOL0     C49552   1.061   8.609   5.702 -0.1548  1.0065 -0.4603
  368MOL0     O49553   1.145   8.716   5.721 -0.1887 -0.3556  0.0209
  368MOL0     C49554   1.213   8.774   5.605 -0.6019  0.2917  0.3549
  368MOL0     C49555   1.364   8.736   5.592 -0.2684  0.9508 -0.2075
  368MOL0     C49556   1.453   8.854   5.550 -0.1882 -0.7784  0.1287
  368MOL0     C49557   1.590   8.817   5.579  0.0436 -0.6246  0.4092
  368MOL0     C49558   1.692   8.932   5.544  0.1855 -0.5142 -0.2157
  368MOL0     C49559   1.729   8.920   5.395  0.0920  0.5016 -0.5250
  368MOL0     C49560   1.833   9.033   5.347 -0.0060  0.2377 -0.6053
  368MOL0     C49561   1.965   8.983   5.293  0.0715 -0.5274 -0.3726
  368MOL0     N49562   2.053   8.928   5.398 -0.3235  0.6935  0.8468
  368MOL0     C49563   2.141   9.002   5.478 -0.7937 -0.2679  0.6657
  368MOL0     C49564   2.236   8.903   5.510  0.0902 -0.5443  0.1877
  368MOL0     C49565   2.360   8.920   5.590  0.7617 -0.4763 -0.3752
  368MOL0     C49566   2.338   8.899   5.738 -0.4255 -0.0739 -0.1294
  368MOL0     C49567   2.362   9.025   5.827  0.4145 -0.3759  0.0126
  368MOL0     C49568   2.505   9.037   5.878 -1.2785 -0.8805  0.2663
  368MOL0     O49569   2.590   9.061   5.760  0.1658  0.6401 -0.2280
  368MOL0     C49570   2.727   9.086   5.777 -1.0056  0.1709 -0.0796
  368MOL0     C49571   2.786   9.138   5.661  0.2567  0.1927 -0.0037
  368MOL0     C49572   2.924   9.147   5.650  0.0172 -0.4232 -1.2513
  368MOL0     C49573   3.007   9.109   5.762 -0.7278 -0.1803  0.5409
  368MOL0     C49574   3.151   9.120   5.748  0.1809 -0.0981 -0.1182
  368MOL0     O49575   3.225   9.090   5.857  0.7667 -0.1662 -0.2954
  368MOL0     C49576   3.364   9.101   5.856  0.6835  0.2554 -0.8708
  368MOL0     C49577   3.433   9.213   5.804 -0.3393  0.1537 -0.7165
  368MOL0     C49578   3.569   9.231   5.828 -0.2359  0.1224  0.5385
  368MOL0     C49579   3.641   9.132   5.895  0.3779  0.3131  0.3660
  368MOL0     O49580   3.769   9.177   5.919  0.6671 -0.6417  1.0379
  368MOL0     C49581   3.865   9.086   5.952 -0.3718  0.5057 -0.6613
  368MOL0     C49582   4.004   9.151   5.913  0.1790 -0.3873 -0.2358
  368MOL0     C49583   4.028   9.158   5.766  0.3106 -0.0711  0.8423
  368MOL0     C49584   4.184   9.186   5.744 -0.0449  0.2897  0.6141
  368MOL0     C49585   4.204   9.237   5.600  0.6382 -0.2043 -0.4550
  368MOL0     C49586   4.348   9.259   5.585  0.5890  0.3428 -0.2149
  368MOL0     C49587   4.388   9.290   5.438  0.2997  0.0940  0.2452
  368MOL0     C49588   4.531   9.345   5.415  0.2507  0.1678 -1.0387
  368MOL0    Cl49589   4.642   9.241   5.510  0.2019 -0.1453  0.5315
  368MOL0     C49590   3.574   9.016   5.941  0.0798 -0.3300  0.6583
  368MOL0     C49591   3.431   9.007   5.922  1.0878 -0.0207  0.1384
  368MOL0     O49592   3.192   9.156   5.635  0.1480  0.2806  0.3392
  368MOL0     C49593   2.953   9.063   5.878 -0.8090  0.2916 -0.2259
  368MOL0     C49594   2.813   9.041   5.875 -0.3673  0.7524  0.3845
  368MOL0     N49595   2.189   8.779   5.479  0.1029 -0.5055 -0.1085
  368MOL0     N49596   2.082   8.791   5.415  0.2171  0.0509  0.9141
  368MOL0     C49597   1.101   8.495   5.633 -0.3627 -0.8587 -0.0589
  368MOL0     C49598   1.007   8.392   5.604  0.0007 -0.6352  0.0336
  368MOL0     C49599   0.642   8.138   5.564  0.2801 -0.4068 -0.5220
  368MOL0     C49600   0.576   8.147   5.690 -0.3722 -0.3152 -0.3625
  368MOL0     C49601   0.473   8.062   5.726  0.0996 -0.3403  1.0308
  368MOL0     C49602   0.418   7.980   5.637  0.7655  1.3203 -1.0508
  368MOL0     O49603   0.315   7.889   5.659 -0.8549  0.7269 -0.1163
  368MOL0     C49604   0.260   7.886   5.795 -0.0239  0.5853 -0.1796
  368MOL0     C49605   0.158   8.000   5.818  0.4925 -0.5395  0.0986
  368MOL0     C49606   0.055   7.999   5.698 -0.6024 -0.2276 -0.6093
  368MOL0     C49607  -0.059   8.105   5.720 -0.1026 -0.6707  1.1541
  368MOL0     C49608  -0.140   8.056   5.830 -0.3894  0.6815 -0.2100
  368MOL0     C49609  -0.209   8.024   5.927 -0.5245 -0.4667  0.2626
  368MOL0     C49610   0.485   7.966   5.518 -0.1641 -0.3875 -0.6275
  368MOL0     C49611   0.599   8.035   5.482  0.8558  1.3348  0.2221
  368MOL0     C49612   0.677   8.000   5.359  0.3758 -0.3386  0.1009
  368MOL0     H49613   0.731   8.522   5.771 -1.3463  3.1200 -0.5925
  368MOL0     H49614   0.893   8.706   5.796  0.5795 -0.8061  2.7611
  368MOL0     H49615   1.157   8.759   5.512 -0.2298 -0.3148  0.2229
  368MOL0     H49616   1.210   8.883   5.611 -0.5535  0.2454  1.4159
  368MOL0     H49617   1.380   8.645   5.534 -0.8065 -1.4210  3.0988
  368MOL0     H49618   1.393   8.713   5.695 -2.5367  2.6102  0.8711
  368MOL0     H49619   1.425   8.946   5.602 -0.2327 -0.3373 -0.6629
  368MOL0     H49620   1.432   8.866   5.443 -0.7782 -1.6118  0.1396
  368MOL0     H49621   1.597   8.814   5.688 -2.4402  3.6480  0.8967
  368MOL0     H49622   1.619   8.723   5.531  0.6911 -0.2003 -0.0368
  368MOL0     H49623   1.648   9.031   5.560  2.0117  0.3788 -0.5203
  368MOL0     H49624   1.787   8.917   5.594  2.8200  1.1567 -4.1740
  368MOL0     H49625   1.764   8.821   5.364 -5.5988 -1.6790 -1.1589
  368MOL0     H49626   1.636   8.932   5.340 -0.4555 -0.8581  0.0514
  368MOL0     H49627   1.848   9.103   5.430 -1.0197 -2.1130  1.7050
  368MOL0     H49628   1.781   9.083   5.265 -0.1443 -1.1270 -1.3739
  368MOL0     H49629   1.948   8.911   5.213 -0.3823 -0.9393  0.0897
  368MOL0     H49630   2.018   9.072   5.258 -3.5770  1.8929 -0.3979
  368MOL0     H49631   2.143   9.108   5.499 -0.4910 -0.1813  0.2154
  368MOL0     H49632   2.438   8.855   5.550  4.7321  1.8389  2.7844
  368MOL0     H49633   2.394   9.024   5.584  1.8722 -0.7799  0.2912
  368MOL0     H49634   2.234   8.877   5.763 -0.6014 -0.3070 -1.0449
  368MOL0     H49635   2.406   8.819   5.767 -0.3112 -0.5313 -1.5985
  368MOL0     H49636   2.300   9.026   5.917 -0.3174  2.3418 -0.4354
  368MOL0     H49637   2.334   9.113   5.768 -1.5771 -0.5303  0.6507
  368MOL0     H49638   2.541   8.950   5.935  1.5146 -0.2913 -0.4157
  368MOL0     H49639   2.515   9.128   5.938  0.8415 -0.1315 -1.0943
  368MOL0     H49640   2.723   9.177   5.582 -0.9145  0.6206  1.1030
  368MOL0     H49641   2.974   9.195   5.566  1.8446  0.6139  0.3328
  368MOL0     H49642   3.369   9.295   5.775 -0.4860  0.0161 -0.7869
  368MOL0     H49643   3.611   9.327   5.804 -0.7002  0.2903  0.3902
  368MOL0     H49644   3.863   9.080   6.061 -1.6176 -1.9992 -0.7531
  368MOL0     H49645   3.850   8.983   5.918  0.3170  0.9670 -2.4986
  368MOL0     H49646   4.000   9.251   5.958  2.5258  0.0551 -0.8346
  368MOL0     H49647   4.093   9.104   5.956  2.0634  0.7111 -2.6336
  368MOL0     H49648   4.006   9.058   5.728  2.4216 -0.0023 -0.7031
  368MOL0     H49649   3.976   9.241   5.717  1.3906 -0.3342 -0.8221
  368MOL0     H49650   4.246   9.097   5.758 -0.5833  0.3638  4.3400
  368MOL0     H49651   4.215   9.264   5.814 -0.2741 -1.9117  3.3407
  368MOL0     H49652   4.141   9.325   5.584  0.1764  0.0435  2.2009
  368MOL0     H49653   4.162   9.158   5.536  0.0037  1.3290 -2.0181
  368MOL0     H49654   4.377   9.344   5.648 -1.7613  1.6290 -0.7723
  368MOL0     H49655   4.409   9.176   5.624  0.6168  1.5219  2.4880
  368MOL0     H49656   4.319   9.361   5.391  1.8646  1.1985 -0.4937
  368MOL0     H49657   4.371   9.198   5.381 -2.0873 -0.8810  2.3527
  368MOL0     H49658   4.563   9.339   5.310  4.0616 -3.0552  0.0229
  368MOL0     H49659   4.543   9.447   5.451  0.0783  0.0106 -0.5391
  368MOL0     H49660   3.627   8.930   5.981  0.7342 -0.0044  0.4937
  368MOL0     H49661   3.376   8.920   5.955 -1.7942  1.3467 -0.6749
  368MOL0     H49662   3.011   9.033   5.965 -2.2523 -0.6874  0.4475
  368MOL0     H49663   2.771   8.989   5.961  0.8815  1.8746  1.7287
  368MOL0     H49664   1.197   8.498   5.583  0.2308  1.4419  1.0701
  368MOL0     H49665   1.042   8.309   5.542  2.0769  3.1689 -4.4939
  368MOL0     H49666   0.610   8.220   5.764  1.2661 -0.8853 -0.5274
  368MOL0     H49667   0.436   8.079   5.826 -0.0135 -0.6945  1.0491
  368MOL0     H49668   0.349   7.885   5.858  0.1753 -2.2670 -0.3771
  368MOL0     H49669   0.218   7.789   5.826 -0.4992  0.9152  0.2152
  368MOL0     H49670   0.220   8.090   5.817 -1.1538  0.6374 -0.8110
  368MOL0     H49671   0.101   7.997   5.911 -0.9621  2.6024 -0.5426
  368MOL0     H49672   0.019   7.897   5.685 -1.0140 -0.5732  2.4954
  368MOL0     H49673   0.105   8.036   5.608  2.0824 -1.0188  0.4454
  368MOL0     H49674  -0.012   8.199   5.750  1.2200 -0.5018 -1.2519
  368MOL0     H49675  -0.119   8.111   5.630  1.2275 -1.4162  0.1807
  368MOL0     H49676  -0.271   8.005   6.012 -0.6096  0.8407  0.5266
  368MOL0     H49677   0.438   7.895   5.450 -0.6267 -1.0333  0.3525
  368MOL0     H49678   0.781   7.981   5.385 -0.3483 -2.5817  1.7018
  368MOL0     H49679   0.640   7.909   5.312  0.8673 -1.8686  2.4975
  368MOL0     H49680   0.681   8.084   5.289  1.8988  2.0667  2.8554
  369MOL0     O49681   4.300  10.348  10.734 -0.1889 -0.7264  0.7462
  369MOL0     C49682   4.292  10.279  10.631  0.3916  0.1523  0.1974
  369MOL0     O49683   4.396  10.239  10.560 -0.2885  0.1336  0.2188
  369MOL0     C49684   4.518  10.303  10.564 -0.0302 -0.2304 -0.1919
  369MOL0     C49685   4.585  10.332  10.687  0.4389 -0.3685 -0.4078
  369MOL0     C49686   4.699  10.410  10.682 -0.0694  0.1808 -0.2457
  369MOL0     C49687   4.760  10.440  10.561 -0.3563  0.1125  0.0664
  369MOL0     O49688   4.883  10.500  10.580 -0.2057 -0.3390 -0.0894
  369MOL0     C49689   4.975  10.496  10.468 -0.5700  0.2787  0.0847
  369MOL0     C49690   5.025  10.357  10.424 -0.1958  0.4575  0.2729
  369MOL0     C49691   5.169  10.375  10.375  0.6690 -0.5133 -0.1968
  369MOL0     C49692   5.226  10.238  10.348 -0.2145  0.6833  0.0274
  369MOL0     C49693   5.372  10.249  10.288  0.2251 -0.0797  0.0568
  369MOL0     C49694   5.483  10.299  10.377 -0.0914 -0.1046  0.7568
  369MOL0     C49695   5.619  10.248  10.324  0.4232  0.5017 -0.6650
  369MOL0     C49696   5.674  10.331  10.215  0.1049  0.3641 -0.7515
  369MOL0     N49697   5.811  10.289  10.198  0.1693 -0.3934  0.5865
  369MOL0     C49698   5.867  10.178  10.133  0.2780 -0.1982 -0.0531
  369MOL0     C49699   6.003  10.187  10.157 -0.1105  0.0898 -0.4794
  369MOL0     C49700   6.107  10.097  10.110 -0.1425 -0.9618  0.3525
  369MOL0     C49701   6.079   9.948  10.130  0.6674  0.2762 -0.7473
  369MOL0     C49702   6.056   9.914  10.280 -0.9893  0.3928  0.4494
  369MOL0     C49703   5.905   9.941  10.334 -0.1077 -0.0636 -0.8288
  369MOL0     O49704   5.801   9.895  10.242 -0.3643  0.4272  1.0105
  369MOL0     C49705   5.669   9.877  10.272  0.3038  0.6185 -0.2721
  369MOL0     C49706   5.588   9.837  10.167 -0.4717  0.2454 -0.1346
  369MOL0     C49707   5.450   9.833  10.173 -0.2959 -0.6031 -0.5731
  369MOL0     C49708   5.388   9.862  10.301 -0.6413  0.0170  0.8741
  369MOL0     C49709   5.240   9.873  10.315  0.3640  0.3461 -0.0056
  369MOL0     O49710   5.169   9.863  10.204 -0.1190 -0.2863 -0.1639
  369MOL0     C49711   5.033   9.867  10.200  0.0455 -0.5736  0.5869
  369MOL0     C49712   4.945   9.802  10.285  0.5040 -0.0739 -0.0744
  369MOL0     C49713   4.806   9.791  10.265 -0.1784 -0.0373 -0.3275
  369MOL0     C49714   4.755   9.836  10.138  0.0540 -0.1806  0.3098
  369MOL0     O49715   4.624   9.793  10.101  0.0805  0.0183 -0.0673
  369MOL0     C49716   4.604   9.758   9.961 -0.9245 -0.6024 -0.6272
  369MOL0     C49717   4.508   9.647   9.939  0.2374  0.1611  0.0837
  369MOL0     C49718   4.435   9.659   9.808  1.3297 -0.4916  0.3472
  369MOL0     C49719   4.314   9.555   9.816 -0.7234 -0.1292  0.4120
  369MOL0     C49720   4.217   9.558   9.705  0.1580  0.7068  0.4191
  369MOL0     C49721   4.270   9.561   9.557 -0.9025  0.1274  0.0987
  369MOL0     C49722   4.356   9.432   9.539 -0.4226 -1.0142 -0.3620
  369MOL0     C49723   4.409   9.427   9.394  0.7906 -0.4656 -0.0727
  369MOL0    Cl49724   4.484   9.579   9.335 -0.6563 -0.4244  0.2785
  369MOL0     C49725   4.842   9.901  10.044  0.4281 -0.8151  0.2832
  369MOL0     C49726   4.980   9.908  10.072 -0.5241  0.1934 -0.0188
  369MOL0     O49727   5.196   9.874  10.428  0.1763 -0.0327 -0.1591
  369MOL0     C49728   5.473   9.887  10.408 -0.5057 -0.5270  0.0099
  369MOL0     C49729   5.610   9.906  10.390  0.1168  0.7486  1.4708
  369MOL0     N49730   6.026  10.310  10.216  0.2898  0.7531 -0.7603
  369MOL0     N49731   5.912  10.358  10.245  0.1058  0.2570 -0.2902
  369MOL0     C49732   4.708  10.397  10.436  0.7881 -0.3993  0.4871
  369MOL0     C49733   4.586  10.332  10.441  0.3058  0.4241 -0.4118
  369MOL0     C49734   4.157  10.234  10.604 -0.2081  0.5325  0.3463
  369MOL0     C49735   4.076  10.192  10.712 -0.1777  0.3792  0.1561
  369MOL0     C49736   3.933  10.172  10.688  0.5193 -0.4480  0.6362
  369MOL0     C49737   3.880  10.179  10.561 -0.9437 -0.0714 -0.0004
  369MOL0     O49738   3.754  10.141  10.542  0.0716  0.2682 -0.3274
  369MOL0     C49739   3.712  10.001  10.561 -0.1859 -0.6303  0.1454
  369MOL0     C49740   3.607   9.973  10.455  0.0612  0.4526 -0.2407
  369MOL0     C49741   3.562   9.817  10.457  0.3372  0.4124  0.5359
  369MOL0     C49742   3.477   9.784  10.327 -0.5273 -0.0192  0.2332
  369MOL0     C49743   3.341   9.834  10.334 -0.5899  0.4400  0.1697
  369MOL0     C49744   3.229   9.869  10.358  0.1759  0.9636 -0.2194
  369MOL0     C49745   3.958  10.218  10.451 -0.3943 -0.4703 -0.1071
  369MOL0     C49746   4.103  10.247  10.474 -0.2404  0.3770  0.1332
  369MOL0     C49747   4.186  10.286  10.354  0.6349  0.0329  0.3488
  369MOL0     H49748   4.545  10.296  10.781  1.9707 -0.4818  0.2311
  369MOL0     H49749   4.756  10.433  10.771  1.9272  0.8124 -1.6018
  369MOL0     H49750   4.929  10.547  10.383 -0.2930  0.1588 -0.1384
  369MOL0     H49751   5.048  10.569  10.504  0.1050 -0.5701  0.4820
  369MOL0     H49752   4.961  10.312  10.348 -1.7433  2.2604  0.4492
  369MOL0     H49753   5.033  10.288  10.509  2.7251  0.2579 -0.0312
  369MOL0     H49754   5.233  10.436  10.440  1.6930 -2.4440  0.6880
  369MOL0     H49755   5.170  10.427  10.278 -1.1607  0.3171  0.1866
  369MOL0     H49756   5.237  10.181  10.441 -0.8999  1.9350  0.9029
  369MOL0     H49757   5.161  10.176  10.285  1.8398  1.2081 -2.8277
  369MOL0     H49758   5.387  10.150  10.244  0.1167  0.4751 -1.2628
  369MOL0     H49759   5.367  10.310  10.197  1.3173  0.2933  0.2353
  369MOL0     H49760   5.489  10.407  10.389  1.0269 -0.3217  2.4665
  369MOL0     H49761   5.469  10.247  10.472 -1.3225 -0.2117  0.5335
  369MOL0     H49762   5.617  10.145  10.288 -0.1309  1.0676 -2.4073
  369MOL0     H49763   5.692  10.267  10.402  0.0584  2.6323 -0.7662
  369MOL0     H49764   5.623  10.307  10.121  0.3161  3.2763 -1.7158
  369MOL0     H49765   5.674  10.437  10.242  3.0616  0.1878  0.2236
  369MOL0     H49766   5.830  10.092  10.077 -2.0831  0.0064  1.0600
  369MOL0     H49767   6.122  10.111  10.003  0.3230 -2.1179  0.2509
  369MOL0     H49768   6.195  10.122  10.171 -0.1043 -2.6889  1.0723
  369MOL0     H49769   6.007   9.909  10.058  1.3484 -0.0965 -1.2388
  369MOL0     H49770   6.173   9.899  10.101  1.8320  0.7062  1.9942
  369MOL0     H49771   6.133   9.970  10.335 -0.2831  0.3639 -0.4926
  369MOL0     H49772   6.094   9.811  10.283  0.5126  0.8865 -0.5559
  369MOL0     H49773   5.891  10.048  10.355  0.8328  0.1275 -1.1112
  369MOL0     H49774   5.905   9.893  10.433  2.1285  0.7094 -0.3778
  369MOL0     H49775   5.629   9.804  10.072 -2.3984 -0.0925 -0.9045
  369MOL0     H49776   5.384   9.804  10.092 -1.0310 -1.7430  0.3993
  369MOL0     H49777   4.986   9.757  10.375  0.7670 -0.0981 -0.2045
  369MOL0     H49778   4.749   9.731  10.335  1.8311 -1.2002  0.4169
  369MOL0     H49779   4.560   9.847   9.914  0.0841  1.9978  2.9156
  369MOL0     H49780   4.695   9.722   9.914  0.2964 -0.0282  1.1822
  369MOL0     H49781   4.562   9.553   9.954  1.8060  1.1225  0.8659
  369MOL0     H49782   4.430   9.651  10.015 -0.8708 -1.9528 -0.8706
  369MOL0     H49783   4.395   9.759   9.791  1.6022 -0.2233  1.2251
  369MOL0     H49784   4.504   9.638   9.726  0.3600  0.2118 -0.6724
  369MOL0     H49785   4.258   9.582   9.906 -3.5383 -1.2798 -0.8824
  369MOL0     H49786   4.365   9.459   9.827  3.8217  2.1127  1.3621
  369MOL0     H49787   4.161   9.645   9.740 -2.5342 -0.7430 -0.0367
  369MOL0     H49788   4.151   9.473   9.722  0.5941  0.8108  3.0927
  369MOL0     H49789   4.193   9.570   9.481  3.2578  1.7785 -4.4427
  369MOL0     H49790   4.338   9.647   9.548 -2.2026  1.3700  1.5363
  369MOL0     H49791   4.299   9.341   9.562  1.3350 -2.0607 -0.0212
  369MOL0     H49792   4.440   9.442   9.608  1.2880 -0.1182 -2.4988
  369MOL0     H49793   4.477   9.341   9.390  1.1046 -0.1731 -1.5706
  369MOL0     H49794   4.338   9.392   9.318 -0.7394 -0.3814  1.2624
  369MOL0     H49795   4.814   9.930   9.943 -0.1429  1.3539  1.0156
  369MOL0     H49796   5.049   9.959  10.007 -1.2214 -0.6826 -1.4966
  369MOL0     H49797   5.436   9.898  10.510  3.3255  0.2051  1.4900
  369MOL0     H49798   5.677   9.926  10.473 -0.0226 -0.8016  1.9862
  369MOL0     H49799   4.748  10.410  10.336 -2.6157 -0.6886 -1.0455
  369MOL0     H49800   4.567  10.276  10.350  0.2875 -1.3548  0.6339
  369MOL0     H49801   4.113  10.181  10.813 -2.6059 -4.0676  0.8099
  369MOL0     H49802   3.864  10.155  10.770 -3.4265  0.6586 -2.1464
  369MOL0     H49803   3.674   9.985  10.662  0.2464 -1.2787  0.2132
  369MOL0     H49804   3.791   9.926  10.550  0.6227  0.2833 -0.3869
  369MOL0     H49805   3.643  10.003  10.357 -0.5090  1.3784 -0.1760
  369MOL0     H49806   3.518  10.033  10.476  1.5788  2.6631  0.1906
  369MOL0     H49807   3.502   9.792  10.545 -0.7481  1.0562 -0.0025
  369MOL0     H49808   3.643   9.745  10.468 -1.5317 -2.2379 -1.4471
  369MOL0     H49809   3.544   9.834  10.256 -0.2403 -0.3355  0.2807
  369MOL0     H49810   3.479   9.677  10.305  0.6531 -0.5682  2.6766
  369MOL0     H49811   3.126   9.897  10.371 -0.3655 -1.6852  2.4256
  369MOL0     H49812   3.907  10.219  10.355  1.0669 -1.8002 -0.9475
  369MOL0     H49813   4.124  10.281  10.264 -1.1992  3.6927  1.1874
  369MOL0     H49814   4.222  10.389  10.358  1.1188 -0.1538  3.6842
  369MOL0     H49815   4.270  10.218  10.338  0.1992  0.2503 -4.0721
  370MOL0     O49816   5.657   7.616   6.132 -0.3107  0.5434  0.0152
  370MOL0     C49817   5.751   7.675   6.186  0.3563 -0.5483  0.2361
  370MOL0     O49818   5.868   7.714   6.133  0.4656 -0.7072 -0.3707
  370MOL0     C49819   5.907   7.695   6.007 -1.1215 -0.1125 -0.5694
  370MOL0     C49820   5.823   7.655   5.907  0.3627  0.5745  0.5229
  370MOL0     C49821   5.873   7.658   5.774 -0.4178  0.4487  0.2671
  370MOL0     C49822   6.002   7.689   5.742  0.0805  0.4284  0.0440
  370MOL0     O49823   6.023   7.702   5.607 -0.0452  0.8582 -0.2109
  370MOL0     C49824   6.126   7.785   5.547  1.4248  0.1880  0.5909
  370MOL0     C49825   6.254   7.701   5.539 -0.9491 -0.0261  0.0405
  370MOL0     C49826   6.276   7.644   5.397  0.7518 -0.9401 -0.1428
  370MOL0     C49827   6.407   7.571   5.390  0.4730 -0.4935  0.3199
  370MOL0     C49828   6.444   7.501   5.258 -0.0785  0.0411  0.3662
  370MOL0     C49829   6.592   7.476   5.254 -0.1977 -0.2610 -0.2131
  370MOL0     C49830   6.624   7.416   5.116 -0.5387  0.1312 -0.1409
  370MOL0     C49831   6.785   7.421   5.081  0.3328 -0.2019 -0.4282
  370MOL0     N49832   6.812   7.354   4.955  0.8037  0.2580 -0.1615
  370MOL0     C49833   6.744   7.370   4.834 -0.3091 -0.7377  0.2044
  370MOL0     C49834   6.812   7.274   4.760  0.1059 -0.5098  0.3204
  370MOL0     C49835   6.776   7.245   4.612 -0.7330 -0.1936 -0.0351
  370MOL0     C49836   6.716   7.103   4.590 -0.3226  0.8229  0.1426
  370MOL0     C49837   6.820   6.993   4.614 -0.0610  0.0378  0.0848
  370MOL0     C49838   6.783   6.867   4.535  0.3608 -0.5283  0.6061
  370MOL0     O49839   6.869   6.758   4.562  0.3011 -1.0025 -0.3219
  370MOL0     C49840   6.991   6.761   4.505  0.7174  0.3964  0.4557
  370MOL0     C49841   7.094   6.706   4.576  1.0815 -0.7209 -0.4029
  370MOL0     C49842   7.223   6.682   4.530 -0.0414 -0.6271 -0.2490
  370MOL0     C49843   7.253   6.710   4.392  0.8462  0.1159 -0.6694
  370MOL0     C49844   7.376   6.666   4.333 -0.6452  0.1043 -0.0136
  370MOL0     O49845   7.383   6.682   4.196  0.0201  0.1406 -0.2149
  370MOL0     C49846   7.495   6.635   4.140 -0.7604 -0.5740 -0.1920
  370MOL0     C49847   7.612   6.713   4.153  0.0154 -0.0055  0.2172
  370MOL0     C49848   7.735   6.671   4.092 -0.6086 -0.3802  0.7764
  370MOL0     C49849   7.741   6.540   4.035 -0.3169  0.0843 -0.2751
  370MOL0     O49850   7.854   6.483   3.970  0.4390 -0.2394 -0.2142
  370MOL0     C49851   7.977   6.549   3.985  0.6373  0.8363  0.2552
  370MOL0     C49852   7.996   6.640   3.866 -0.1273 -0.5439  0.8249
  370MOL0     C49853   8.084   6.755   3.891  0.6119  0.6828 -1.0047
  370MOL0     C49854   8.223   6.730   3.922  1.2706  0.0747 -0.3047
  370MOL0     C49855   8.311   6.851   3.904 -0.6787 -1.3827 -0.3510
  370MOL0     C49856   8.465   6.812   3.918 -1.6596 -0.8121 -0.3414
  370MOL0     C49857   8.497   6.722   4.039  0.4159 -0.7915  0.1540
  370MOL0     C49858   8.639   6.720   4.087 -0.2366  0.5087  0.5101
  370MOL0    Cl49859   8.740   6.629   3.977  0.0722  0.2266 -0.0829
  370MOL0     C49860   7.619   6.462   4.035  0.7367  0.6546 -0.1208
  370MOL0     C49861   7.495   6.510   4.081  0.4510  0.2495  0.2029
  370MOL0     O49862   7.469   6.630   4.407 -0.4055 -0.1131  0.2262
  370MOL0     C49863   7.149   6.765   4.318 -0.0890 -0.0066  0.7242
  370MOL0     C49864   7.022   6.790   4.372 -0.2359 -0.2661  0.5982
  370MOL0     N49865   6.907   7.203   4.829 -0.0423  0.3083 -0.4157
  370MOL0     N49866   6.906   7.259   4.944 -1.0114  0.3094 -0.3092
  370MOL0     C49867   6.089   7.715   5.841 -1.5242 -0.3937 -0.2824
  370MOL0     C49868   6.044   7.715   5.974 -0.6133 -0.0169  0.8605
  370MOL0     C49869   5.729   7.725   6.326 -0.4608 -0.9289  0.1354
  370MOL0     C49870   5.600   7.771   6.359  0.2046 -0.0484 -0.1017
  370MOL0     C49871   5.567   7.807   6.495 -0.3523 -0.4262  0.4447
  370MOL0     C49872   5.662   7.803   6.598 -0.3528  0.4009 -0.2405
  370MOL0     O49873   5.621   7.835   6.723 -0.4730  0.0069  0.4846
  370MOL0     C49874   5.564   7.730   6.800 -0.1583  0.6829  0.1437
  370MOL0     C49875   5.433   7.777   6.856  0.5268  0.4380  0.5299
  370MOL0     C49876   5.357   7.659   6.932  0.1680 -0.0600 -0.4264
  370MOL0     C49877   5.438   7.600   7.052  0.2913 -0.5189 -0.0834
  370MOL0     C49878   5.466   7.706   7.151  0.0939 -0.4448  0.4887
  370MOL0     C49879   5.507   7.770   7.245  0.1502 -0.1717 -0.9578
  370MOL0     C49880   5.795   7.776   6.564 -0.4165  0.4554  0.6696
  370MOL0     C49881   5.831   7.732   6.434 -0.1322 -0.1634  0.5142
  370MOL0     C49882   5.976   7.702   6.404 -0.4632 -0.3634  0.4933
  370MOL0     H49883   5.718   7.628   5.912  0.2983  0.6602 -0.1869
  370MOL0     H49884   5.799   7.644   5.696  0.0946 -1.4810  0.0817
  370MOL0     H49885   6.097   7.822   5.449  2.1697 -0.9349 -0.0765
  370MOL0     H49886   6.146   7.866   5.619  2.3519  1.1724 -0.7214
  370MOL0     H49887   6.244   7.619   5.611  0.3723 -1.3518 -1.2052
  370MOL0     H49888   6.340   7.760   5.571 -0.8577 -1.9626  3.9131
  370MOL0     H49889   6.274   7.729   5.329 -2.6192  2.3044  3.5074
  370MOL0     H49890   6.195   7.578   5.367  0.1106  0.1457 -0.8492
  370MOL0     H49891   6.478   7.654   5.397 -0.0989 -0.0504  0.9923
  370MOL0     H49892   6.411   7.500   5.473 -0.9188 -1.1170 -0.1123
  370MOL0     H49893   6.385   7.410   5.245  0.7495 -0.5085  0.3913
  370MOL0     H49894   6.416   7.565   5.175 -3.0508  1.3110  2.1800
  370MOL0     H49895   6.644   7.570   5.271  0.8864 -0.5969 -1.5380
  370MOL0     H49896   6.629   7.411   5.334  1.4093  0.7931 -0.0616
  370MOL0     H49897   6.585   7.479   5.035 -1.3703 -0.6708 -0.3751
  370MOL0     H49898   6.600   7.310   5.109  2.0608 -0.4591 -1.2039
  370MOL0     H49899   6.814   7.526   5.078 -1.0252  0.1902 -0.9784
  370MOL0     H49900   6.839   7.369   5.160 -0.0273 -2.5572 -1.6459
  370MOL0     H49901   6.662   7.433   4.799  0.6168  0.5400  0.2728
  370MOL0     H49902   6.712   7.324   4.573 -3.5490 -1.7482  1.0898
  370MOL0     H49903   6.873   7.247   4.562 -0.5653 -2.3588  0.1085
  370MOL0     H49904   6.639   7.087   4.666 -1.7102 -1.1833 -1.5681
  370MOL0     H49905   6.676   7.088   4.489  0.1082 -2.0480  0.3227
  370MOL0     H49906   6.826   6.971   4.721  0.4608 -2.3446 -0.3657
  370MOL0     H49907   6.920   7.032   4.591 -0.9695  2.3104 -0.1928
  370MOL0     H49908   6.787   6.895   4.429 -1.5933  0.0750  0.6499
  370MOL0     H49909   6.680   6.839   4.558  0.4080  0.7648  2.5646
  370MOL0     H49910   7.084   6.673   4.679  0.0616 -1.0231 -0.5991
  370MOL0     H49911   7.295   6.629   4.590  0.9174 -0.3298 -1.1156
  370MOL0     H49912   7.614   6.811   4.199  0.8379 -0.2730  0.7671
  370MOL0     H49913   7.822   6.735   4.103 -1.0536  0.5451 -0.8048
  370MOL0     H49914   7.980   6.602   4.081 -1.9280 -0.5665  1.2034
  370MOL0     H49915   8.050   6.467   3.991 -0.9505 -0.8278 -1.8081
  370MOL0     H49916   8.030   6.588   3.776 -3.2193 -1.7438  0.2208
  370MOL0     H49917   7.899   6.687   3.847  0.5678  0.9830  0.8405
  370MOL0     H49918   8.066   6.813   3.800 -0.3386  2.1645  0.0663
  370MOL0     H49919   8.040   6.813   3.973  2.0594 -0.0376  0.3354
  370MOL0     H49920   8.258   6.657   3.848  3.2243  0.1755  0.4390
  370MOL0     H49921   8.227   6.682   4.020 -1.7187  1.5841  0.6637
  370MOL0     H49922   8.283   6.932   3.972  0.3880  2.2561 -3.8285
  370MOL0     H49923   8.292   6.903   3.810 -0.6476  0.8112  0.7889
  370MOL0     H49924   8.502   6.772   3.823  0.8579 -0.0861  0.2360
  370MOL0     H49925   8.524   6.904   3.926  0.8892 -2.2774 -0.8131
  370MOL0     H49926   8.459   6.620   4.028 -1.0448 -0.3016  0.3799
  370MOL0     H49927   8.439   6.761   4.123 -2.2423 -0.2627 -1.7634
  370MOL0     H49928   8.671   6.824   4.103  0.8001  0.3994 -0.6998
  370MOL0     H49929   8.646   6.663   4.180 -6.2975 -1.7786 -0.0276
  370MOL0     H49930   7.615   6.362   3.992 -2.9056  0.6259 -0.0502
  370MOL0     H49931   7.406   6.448   4.073  0.0149  1.0193 -1.2812
  370MOL0     H49932   7.166   6.777   4.211  0.6230  1.8206  1.0181
  370MOL0     H49933   6.949   6.831   4.303  1.5356  2.2028  0.0415
  370MOL0     H49934   6.188   7.758   5.831 -1.4385 -0.0783  1.6238
  370MOL0     H49935   6.120   7.733   6.049 -0.8733 -2.7629  1.8956
  370MOL0     H49936   5.513   7.756   6.296 -2.0845  2.7886  2.0980
  370MOL0     H49937   5.463   7.827   6.518 -1.5735 -1.1029 -3.6891
  370MOL0     H49938   5.634   7.696   6.877  2.0274  1.3614 -1.4390
  370MOL0     H49939   5.554   7.646   6.732  0.6765  0.8259 -0.1651
  370MOL0     H49940   5.364   7.801   6.775  1.7217 -0.7144 -0.8820
  370MOL0     H49941   5.450   7.863   6.922  2.9423 -1.3009  2.3763
  370MOL0     H49942   5.340   7.590   6.849 -2.1521  1.3964 -1.2786
  370MOL0     H49943   5.264   7.703   6.970  1.3368  2.1215  0.0755
  370MOL0     H49944   5.391   7.513   7.100  0.9715 -0.2704  1.0601
  370MOL0     H49945   5.528   7.558   7.007  0.2701  0.8126 -1.4416
  370MOL0     H49946   5.538   7.845   7.315  0.4418 -1.3148  0.1713
  370MOL0     H49947   5.870   7.782   6.642 -0.8766  0.6267  1.0989
  370MOL0     H49948   6.030   7.681   6.497 -2.6573  0.6936  2.0924
  370MOL0     H49949   5.981   7.604   6.355  0.3764 -0.7383  1.3013
  370MOL0     H49950   6.022   7.786   6.351 -2.1389 -0.3794 -1.0853
  371MOL0     O49951  11.164  10.971   7.967  0.6545 -0.5116  0.1767
  371MOL0     C49952  11.092  11.004   7.869  0.5735 -0.4782 -0.1853
  371MOL0     O49953  11.137  11.039   7.739  0.4859 -0.1099 -0.1074
  371MOL0     C49954  11.273  11.055   7.727  0.6423  0.3368 -0.0781
  371MOL0     C49955  11.347  10.968   7.646  0.3992  0.3388  1.1179
  371MOL0     C49956  11.482  10.988   7.621 -0.1041  0.1964  0.6509
  371MOL0     C49957  11.540  11.099   7.680  0.6249 -0.7137 -0.4800
  371MOL0     O49958  11.663  11.122   7.646 -0.7880 -0.5589  0.3471
  371MOL0     C49959  11.682  11.145   7.506 -0.6246  0.0802  0.4766
  371MOL0     C49960  11.778  11.267   7.485 -0.4628  0.5625 -0.2453
  371MOL0     C49961  11.806  11.277   7.338 -0.2676 -0.6574 -0.3612
  371MOL0     C49962  11.913  11.377   7.291 -0.0748  0.5352  0.7509
  371MOL0     C49963  11.920  11.380   7.135 -0.9751 -0.3766  0.1255
  371MOL0     C49964  11.955  11.246   7.076 -0.2093  0.0867 -0.1826
  371MOL0     C49965  12.092  11.190   7.123 -0.4170 -0.2601  0.0768
  371MOL0     C49966  12.114  11.066   7.042  0.3917 -0.1973 -0.4651
  371MOL0     N49967  12.251  11.023   7.044 -0.9319  0.1236 -0.0682
  371MOL0     C49968  12.334  10.982   7.142  0.0156  0.0822  0.1905
  371MOL0     C49969  12.451  10.943   7.090 -0.1329 -0.8642  0.3303
  371MOL0     C49970  12.577  10.888   7.152  0.5773 -0.6436  0.2055
  371MOL0     C49971  12.705  10.938   7.101 -0.5261  0.5544 -0.0698
  371MOL0     C49972  12.723  11.080   7.146 -0.6945 -0.8805  0.3363
  371MOL0     C49973  12.821  11.162   7.071 -0.2308  0.1091 -0.5505
  371MOL0     O49974  12.832  11.290   7.129 -0.3125 -0.9053 -0.2811
  371MOL0     C49975  12.941  11.363   7.089 -1.0360  0.3867  0.6802
  371MOL0     C49976  12.959  11.485   7.158  0.7574  0.5288  0.3691
  371MOL0     C49977  13.069  11.566   7.131 -0.5943 -0.3520  0.1471
  371MOL0     C49978  13.167  11.526   7.037  0.2331  0.2524  0.5747
  371MOL0     C49979  13.277  11.615   6.986  0.2544  0.3061  0.7974
  371MOL0     O49980  13.343  11.571   6.878 -0.4656 -0.6621  0.5312
  371MOL0     C49981  13.470  11.622   6.851  0.7022  0.0003  0.4540
  371MOL0     C49982  13.578  11.557   6.893  0.0075 -0.4879 -0.3925
  371MOL0     C49983  13.708  11.600   6.866  0.5314 -0.5557  0.8769
  371MOL0     C49984  13.727  11.720   6.795 -0.0065  0.4186 -0.8219
  371MOL0     O49985  13.861  11.758   6.793  0.2216 -0.3343  0.4627
  371MOL0     C49986  13.897  11.868   6.713  0.3375  0.6359 -0.0685
  371MOL0     C49987  13.920  11.988   6.807 -0.0885  0.1181 -0.1877
  371MOL0     C49988  13.958  12.110   6.726  1.0439 -0.2478 -0.5013
  371MOL0     C49989  14.011  12.232   6.807  0.1654  0.9099 -0.1839
  371MOL0     C49990  14.147  12.213   6.869  0.3909  0.9398  0.2145
  371MOL0     C49991  14.210  12.324   6.952  0.1142 -0.5117 -0.3472
  371MOL0     C49992  14.215  12.457   6.871  0.3871  0.2429  0.3380
  371MOL0     C49993  14.287  12.552   6.952 -0.2126  0.2252  0.3776
  371MOL0    Cl49994  14.296  12.715   6.869  0.0231 -0.1862 -0.0222
  371MOL0     C49995  13.613  11.787   6.757 -0.6058  0.3536 -0.7821
  371MOL0     C49996  13.487  11.738   6.783 -1.8651 -0.5753 -0.4645
  371MOL0     O49997  13.300  11.715   7.059  0.2315  0.1547  0.7252
  371MOL0     C49998  13.143  11.407   6.970 -0.6649 -0.2968 -0.2690
  371MOL0     C49999  13.038  11.325   6.996 -0.1963  0.1301  0.3255
  371MOL0     N50000  12.435  10.946   6.952  0.4006  0.0062  0.1124
  371MOL0     N50001  12.312  10.986   6.930 -0.3926 -0.0958  1.1458
  371MOL0     C50002  11.471  11.194   7.758 -0.2449  1.0640  0.2221
  371MOL0     C50003  11.332  11.168   7.782  0.2123  0.1584 -0.0557
  371MOL0     C50004  10.948  11.004   7.883 -0.2776 -1.1991  0.4835
  371MOL0     C50005  10.871  11.105   7.809  0.3172 -0.0068  0.3197
  371MOL0     C50006  10.731  11.099   7.802 -0.3348  1.0416 -0.2059
  371MOL0     C50007  10.667  10.988   7.858 -0.1471 -1.0925  0.7875
  371MOL0     O50008  10.533  11.000   7.858  0.2731 -0.8977 -0.3320
  371MOL0     C50009  10.453  10.921   7.943 -0.4708  0.1424  0.0025
  371MOL0     C50010  10.449  10.992   8.082  0.8458  0.7946  0.2121
  371MOL0     C50011  10.402  11.141   8.081  0.0526 -0.1006 -0.7690
  371MOL0     C50012  10.287  11.178   7.988  0.2052  0.1925 -0.1085
  371MOL0     C50013  10.175  11.093   8.028  0.0565 -0.6462  0.4837
  371MOL0     C50014  10.070  11.042   8.069  0.0293 -0.0469  0.4831
  371MOL0     C50015  10.741  10.891   7.922  0.7049  0.4448  0.8664
  371MOL0     C50016  10.880  10.897   7.951  0.1236 -0.4166  0.1790
  371MOL0     C50017  10.947  10.777   8.017 -0.1700  0.0764 -0.1377
  371MOL0     H50018  11.295  10.882   7.603 -0.7689  2.0462 -1.1003
  371MOL0     H50019  11.545  10.912   7.575  0.4322  1.5789 -1.0150
  371MOL0     H50020  11.728  11.064   7.448 -1.6053 -1.1112  1.3174
  371MOL0     H50021  11.586  11.167   7.458 -0.1453  1.3155  0.0216
  371MOL0     H50022  11.862  11.238   7.549  1.3734  0.0543 -2.7050
  371MOL0     H50023  11.746  11.366   7.519 -0.3564  0.6383 -0.3653
  371MOL0     H50024  11.716  11.320   7.293 -1.0346 -0.9908  0.8168
  371MOL0     H50025  11.827  11.179   7.292  0.2584  1.0997 -4.2276
  371MOL0     H50026  11.893  11.470   7.345 -1.6708 -0.4020  1.8810
  371MOL0     H50027  12.009  11.341   7.329 -0.3332 -1.0911 -0.0381
  371MOL0     H50028  11.823  11.415   7.097 -0.1185 -1.4845 -3.4454
  371MOL0     H50029  11.997  11.455   7.114 -0.8634 -0.4644  0.2204
  371MOL0     H50030  11.868  11.181   7.082  0.2749 -0.6198 -0.6755
  371MOL0     H50031  11.952  11.275   6.971 -1.1296 -0.3688 -0.2822
  371MOL0     H50032  12.090  11.166   7.230 -0.7225  0.7132  0.3040
  371MOL0     H50033  12.164  11.270   7.103 -3.2750  2.5694  0.2374
  371MOL0     H50034  12.065  10.986   7.098  0.2877  1.1125  1.4065
  371MOL0     H50035  12.079  11.063   6.938  0.2438 -0.7475 -0.4060
  371MOL0     H50036  12.313  10.990   7.248 -1.2431 -0.0242 -0.0350
  371MOL0     H50037  12.587  10.891   7.261  1.4150 -3.7453  0.3199
  371MOL0     H50038  12.556  10.783   7.129  0.1118 -0.4398 -0.3028
  371MOL0     H50039  12.782  10.873   7.143 -0.3936 -0.9633 -2.4667
  371MOL0     H50040  12.700  10.937   6.991 -3.1124  0.6646 -0.0323
  371MOL0     H50041  12.751  11.076   7.252 -1.5179  1.7471  0.7294
  371MOL0     H50042  12.624  11.126   7.145  0.1411  1.0360  0.3072
  371MOL0     H50043  12.793  11.171   6.966  0.5050 -1.0842 -0.8624
  371MOL0     H50044  12.918  11.112   7.078  0.3556  1.2764  0.1613
  371MOL0     H50045  12.880  11.508   7.229 -0.3429 -0.4876 -0.4920
  371MOL0     H50046  13.071  11.667   7.170  2.0277 -0.6430  0.9828
  371MOL0     H50047  13.557  11.461   6.938 -0.9051 -0.0976  0.0545
  371MOL0     H50048  13.788  11.535   6.899  0.7421 -1.1740 -0.7626
  371MOL0     H50049  13.988  11.843   6.657  0.1185 -0.5478  0.0762
  371MOL0     H50050  13.818  11.876   6.637  1.0234 -1.7969 -1.1364
  371MOL0     H50051  13.828  11.998   6.865 -1.6179 -2.7108 -1.9007
  371MOL0     H50052  14.001  11.958   6.874 -0.5025  0.5349  0.5133
  371MOL0     H50053  14.041  12.088   6.658  2.0134  2.7243 -0.4296
  371MOL0     H50054  13.873  12.137   6.663  1.3601 -1.2210 -1.3638
  371MOL0     H50055  13.950  12.255   6.895  0.6906 -0.7017  0.6245
  371MOL0     H50056  14.015  12.321   6.742  0.5745  0.1487 -1.2178
  371MOL0     H50057  14.218  12.185   6.791  1.3593  4.8673 -0.5314
  371MOL0     H50058  14.135  12.127   6.936 -2.0002  0.3559 -0.8394
  371MOL0     H50059  14.159  12.330   7.048 -1.2152  0.1729 -1.0663
  371MOL0     H50060  14.314  12.294   6.969 -0.0910  0.0262  2.3321
  371MOL0     H50061  14.110  12.480   6.853 -0.3071 -2.3133  0.7074
  371MOL0     H50062  14.271  12.435   6.780 -1.9581 -0.4237 -1.0120
  371MOL0     H50063  14.232  12.555   7.047  2.3492  2.8478  1.9408
  371MOL0     H50064  14.393  12.527   6.966  1.0308  3.5576 -1.8392
  371MOL0     H50065  13.628  11.886   6.714 -0.7104 -0.2837 -2.3576
  371MOL0     H50066  13.396  11.784   6.744 -1.5424 -0.4957 -1.1403
  371MOL0     H50067  13.215  11.382   6.893 -1.1689 -0.8376 -0.5705
  371MOL0     H50068  13.033  11.232   6.940 -2.9434 -1.1735  2.4443
  371MOL0     H50069  11.511  11.291   7.786 -1.2728  1.1332  1.5741
  371MOL0     H50070  11.281  11.249   7.833 -0.1350  1.1171 -1.8330
  371MOL0     H50071  10.922  11.184   7.756  0.3766  0.3142  0.8547
  371MOL0     H50072  10.677  11.182   7.758  1.4136 -0.3417 -5.6967
  371MOL0     H50073  10.487  10.822   7.972  0.1436  0.8996  2.0462
  371MOL0     H50074  10.355  10.904   7.898 -2.2119 -0.8718  3.7318
  371MOL0     H50075  10.543  10.981   8.135  0.1002  1.1510  1.6557
  371MOL0     H50076  10.379  10.924   8.132  1.2094 -2.0258 -2.7826
  371MOL0     H50077  10.490  11.199   8.051 -0.0117 -0.1190 -1.0005
  371MOL0     H50078  10.368  11.173   8.180  0.3618  0.6778 -0.9086
  371MOL0     H50079  10.260  11.282   8.005 -0.6745  0.7807 -4.0996
  371MOL0     H50080  10.316  11.171   7.883 -0.4463 -1.1785 -0.2169
  371MOL0     H50081   9.982  10.991   8.102 -0.2351 -0.9021 -1.4174
  371MOL0     H50082  10.687  10.805   7.960 -1.1929  0.8587 -0.7051
  371MOL0     H50083  11.028  10.735   7.957  1.8175  0.2703  2.2224
  371MOL0     H50084  10.988  10.820   8.109 -0.6070 -1.0318  0.6041
  371MOL0     H50085  10.876  10.698   8.044  0.5883 -1.3524 -2.1021
  372MOL0     O50086   5.099   6.801   0.958 -0.8052 -1.3424  0.1347
  372MOL0     C50087   5.185   6.804   0.871  0.0444  0.2340  0.8218
  372MOL0     O50088   5.227   6.696   0.797 -0.5472  0.5856  0.9494
  372MOL0     C50089   5.194   6.557   0.827  0.4411 -1.4541  0.0011
  372MOL0     C50090   5.093   6.522   0.920  0.1543  1.1504 -0.0527
  372MOL0     C50091   5.060   6.388   0.942  1.3534 -0.4512 -0.2274
  372MOL0     C50092   5.128   6.287   0.871 -0.3965 -0.1872  0.0429
  372MOL0     O50093   5.110   6.153   0.893  0.7084 -0.0473 -1.0005
  372MOL0     C50094   5.107   6.067   0.780 -0.0512  0.1314  0.1445
  372MOL0     C50095   5.192   5.941   0.813  0.6156 -0.3368  0.2270
  372MOL0     C50096   5.345   5.970   0.826  0.0812 -0.3759 -0.4876
  372MOL0     C50097   5.420   5.975   0.687  0.7111 -0.4825 -0.7271
  372MOL0     C50098   5.575   6.000   0.695  0.4821 -0.4332 -0.1363
  372MOL0     C50099   5.652   5.900   0.776  0.2984  0.0654  0.2293
  372MOL0     C50100   5.806   5.897   0.751  0.5292 -0.1669 -0.3595
  372MOL0     C50101   5.887   5.832   0.870  1.6569  0.5627  0.2499
  372MOL0     N50102   6.034   5.828   0.837  0.2099  0.4652  0.5989
  372MOL0     C50103   6.094   5.729   0.757  0.3860 -0.4101 -0.1219
  372MOL0     C50104   6.225   5.741   0.775  0.1860 -0.0484 -0.6611
  372MOL0     C50105   6.324   5.644   0.710 -0.1658  0.4305  0.3030
  372MOL0     C50106   6.468   5.660   0.751 -0.3569 -0.4380 -0.7207
  372MOL0     C50107   6.532   5.788   0.693 -0.5228  0.0911 -0.4547
  372MOL0     C50108   6.671   5.801   0.745 -0.2264  0.4472 -0.1155
  372MOL0     O50109   6.753   5.694   0.695 -1.0168  0.1174 -0.2049
  372MOL0     C50110   6.884   5.707   0.651  0.3299  0.0132 -0.3843
  372MOL0     C50111   6.949   5.598   0.598  0.6241  0.9159  0.6198
  372MOL0     C50112   7.074   5.600   0.558 -0.7549  0.3611  0.3845
  372MOL0     C50113   7.143   5.723   0.553  0.3183  0.1465 -0.2256
  372MOL0     C50114   7.283   5.720   0.514  0.0532  0.2398  0.3333
  372MOL0     O50115   7.346   5.600   0.518  0.2334 -0.0616 -0.5285
  372MOL0     C50116   7.469   5.595   0.454 -0.6414  0.1414 -0.3117
  372MOL0     C50117   7.467   5.531   0.329  1.0837  0.4173 -0.7751
  372MOL0     C50118   7.590   5.516   0.255 -0.1760 -0.0035 -0.4972
  372MOL0     C50119   7.708   5.567   0.309  0.6270  0.4180 -0.1990
  372MOL0     O50120   7.825   5.552   0.243  0.3292  0.0303  0.0370
  372MOL0     C50121   7.906   5.446   0.301 -0.1838 -0.0080  0.6256
  372MOL0     C50122   8.043   5.505   0.322 -0.2215 -0.0032 -0.1770
  372MOL0     C50123   8.120   5.399   0.392  0.0807 -0.4978  0.1141
  372MOL0     C50124   8.272   5.429   0.380  0.2669 -0.1118 -0.2752
  372MOL0     C50125   8.352   5.308   0.428 -0.0186  0.2635 -0.6937
  372MOL0     C50126   8.500   5.339   0.439 -0.3136  0.5310  1.0868
  372MOL0     C50127   8.582   5.217   0.486  0.2561 -0.1199  0.4296
  372MOL0     C50128   8.732   5.236   0.508  0.1438 -0.3220 -0.5060
  372MOL0    Cl50129   8.827   5.204   0.368 -0.2699  0.0469  0.1167
  372MOL0     C50130   7.703   5.637   0.434 -0.4307  0.2356  0.3571
  372MOL0     C50131   7.585   5.657   0.502 -0.9556  0.3739  0.0717
  372MOL0     O50132   7.333   5.826   0.476  0.3424  0.3394 -0.6085
  372MOL0     C50133   7.080   5.834   0.608  0.4173 -0.0512  1.0738
  372MOL0     C50134   6.956   5.827   0.660  0.1589 -0.3008  0.3012
  372MOL0     N50135   6.243   5.848   0.869  0.1621 -0.1442  0.7217
  372MOL0     N50136   6.131   5.903   0.901  0.3766 -0.1983  0.3110
  372MOL0     C50137   5.237   6.329   0.791 -0.2438  0.4305  0.6293
  372MOL0     C50138   5.279   6.459   0.772  0.2070  0.2790  0.7755
  372MOL0     C50139   5.229   6.934   0.814 -0.3986  0.2616  0.1596
  372MOL0     C50140   5.368   6.952   0.795 -0.3663  1.2958  0.1237
  372MOL0     C50141   5.419   7.068   0.727  0.0289  0.4181 -0.3657
  372MOL0     C50142   5.331   7.172   0.689  0.4684 -0.0016  0.1353
  372MOL0     O50143   5.376   7.294   0.649  0.5878  0.2403  0.1191
  372MOL0     C50144   5.305   7.384   0.564  0.5324 -0.0688 -0.5264
  372MOL0     C50145   5.284   7.331   0.414  0.7757  1.0744 -0.1865
  372MOL0     C50146   5.420   7.281   0.368 -0.0733 -0.1582  0.4803
  372MOL0     C50147   5.413   7.253   0.218  0.3792 -0.0369 -0.2999
  372MOL0     C50148   5.554   7.230   0.190  0.3957  0.5334  0.0444
  372MOL0     C50149   5.672   7.214   0.167 -0.4230 -0.6174 -0.3678
  372MOL0     C50150   5.191   7.154   0.713 -0.5550  1.0277 -0.3668
  372MOL0     C50151   5.144   7.042   0.778  0.5222  1.2621  0.6884
  372MOL0     C50152   4.995   7.030   0.804 -0.0283  0.1336  0.3455
  372MOL0     H50153   5.024   6.583   0.977 -3.2497 -3.3913  1.3149
  372MOL0     H50154   4.977   6.360   1.005  1.8026  0.2215  0.6798
  372MOL0     H50155   5.005   6.031   0.767  1.2496 -3.2312 -1.9508
  372MOL0     H50156   5.151   6.115   0.692  0.8557  0.0849  0.5619
  372MOL0     H50157   5.164   5.883   0.725 -0.3625 -0.0811  0.3574
  372MOL0     H50158   5.167   5.899   0.910  1.4445  0.2472  0.7068
  372MOL0     H50159   5.384   5.887   0.887 -0.8210  0.1011  0.7759
  372MOL0     H50160   5.364   6.058   0.889 -1.8019 -0.0399 -0.3356
  372MOL0     H50161   5.407   5.880   0.635 -1.1977 -0.2419 -0.7639
  372MOL0     H50162   5.385   6.049   0.615  0.2860 -1.6217 -1.7223
  372MOL0     H50163   5.618   5.996   0.594  1.4394 -1.4481  0.2821
  372MOL0     H50164   5.580   6.101   0.736  3.6105 -0.1231 -0.9877
  372MOL0     H50165   5.640   5.916   0.883 -0.6105  0.2068  0.1140
  372MOL0     H50166   5.615   5.797   0.764  1.0934 -0.5546  2.6297
  372MOL0     H50167   5.853   5.993   0.728 -1.2898  0.7247 -0.5266
  372MOL0     H50168   5.811   5.833   0.662 -3.9071 -1.2768 -0.0736
  372MOL0     H50169   5.868   5.889   0.961 -0.2687 -0.4266  0.5327
  372MOL0     H50170   5.847   5.732   0.891  4.1026  0.1754  4.0608
  372MOL0     H50171   6.042   5.667   0.684 -0.1863  1.4890 -1.4188
  372MOL0     H50172   6.286   5.547   0.742  1.7403 -0.7228 -0.7676
  372MOL0     H50173   6.316   5.646   0.601  0.1795  2.3719  0.2767
  372MOL0     H50174   6.473   5.665   0.860 -0.1812 -2.3835 -0.6049
  372MOL0     H50175   6.518   5.569   0.717  0.4459 -0.5342  0.6505
  372MOL0     H50176   6.470   5.875   0.714 -0.3816  0.1208 -0.1624
  372MOL0     H50177   6.528   5.769   0.585  1.7468  0.5767 -0.6750
  372MOL0     H50178   6.669   5.808   0.854 -0.1171  1.0185 -0.1435
  372MOL0     H50179   6.700   5.897   0.699  2.0238 -0.4540 -0.6967
  372MOL0     H50180   6.882   5.513   0.592  1.4735 -0.0095  3.0111
  372MOL0     H50181   7.135   5.515   0.530  2.7418  1.7785  3.0096
  372MOL0     H50182   7.380   5.478   0.293  0.4433 -0.7388  2.1541
  372MOL0     H50183   7.582   5.463   0.161  0.9899 -4.5121  1.6359
  372MOL0     H50184   7.868   5.412   0.398 -0.5757 -3.8870 -0.7198
  372MOL0     H50185   7.908   5.364   0.228  3.0469  1.1925 -0.8144
  372MOL0     H50186   8.086   5.531   0.225  1.8954 -0.5584  0.5735
  372MOL0     H50187   8.029   5.596   0.381  1.2622 -0.5610  1.0977
  372MOL0     H50188   8.085   5.384   0.494 -1.6263 -1.7005 -0.5984
  372MOL0     H50189   8.109   5.308   0.332  1.5469  0.4516 -1.7072
  372MOL0     H50190   8.300   5.520   0.435  0.8187 -1.1333  1.1892
  372MOL0     H50191   8.287   5.449   0.274  2.0338  2.6365  0.3900
  372MOL0     H50192   8.335   5.218   0.369 -6.6647 -0.9708  2.1295
  372MOL0     H50193   8.322   5.276   0.529  0.9269  1.2798 -0.0622
  372MOL0     H50194   8.540   5.365   0.340  2.0716 -3.8574  0.6570
  372MOL0     H50195   8.532   5.423   0.502  0.6027  0.6278  0.5131
  372MOL0     H50196   8.583   5.139   0.409  0.7683  0.1648  0.1457
  372MOL0     H50197   8.539   5.170   0.575  0.7757 -2.3287 -0.4047
  372MOL0     H50198   8.753   5.338   0.541  0.9870  0.5381 -3.3712
  372MOL0     H50199   8.779   5.172   0.583  1.8781  0.7490 -0.6184
  372MOL0     H50200   7.797   5.681   0.468 -0.4388  1.8237 -1.5095
  372MOL0     H50201   7.587   5.722   0.588  0.9004  0.0449  0.3152
  372MOL0     H50202   7.131   5.930   0.602 -2.2709  1.4388  0.5280
  372MOL0     H50203   6.918   5.919   0.704 -1.3783  0.2749 -2.0450
  372MOL0     H50204   5.302   6.253   0.747 -0.7885 -1.7054  3.2692
  372MOL0     H50205   5.359   6.502   0.713 -0.4572  0.1650 -0.2383
  372MOL0     H50206   5.442   6.880   0.828  0.0386  0.7945 -1.7851
  372MOL0     H50207   5.526   7.081   0.715 -0.0321  1.6553  0.3143
  372MOL0     H50208   5.356   7.481   0.559  0.3389  0.0434 -0.3423
  372MOL0     H50209   5.209   7.392   0.615  0.2157 -1.5398 -0.8578
  372MOL0     H50210   5.237   7.407   0.351  1.2682 -0.2148 -2.2107
  372MOL0     H50211   5.212   7.248   0.417  0.0796  1.5767 -1.8235
  372MOL0     H50212   5.458   7.195   0.424 -0.9058  0.0097  1.3136
  372MOL0     H50213   5.494   7.362   0.377 -0.1698  0.1779 -1.2684
  372MOL0     H50214   5.354   7.162   0.205 -0.9531  0.6735  0.5513
  372MOL0     H50215   5.374   7.331   0.152  0.2582  1.1639  1.1357
  372MOL0     H50216   5.773   7.191   0.140 -0.4051 -0.7872 -0.1591
  372MOL0     H50217   5.125   7.235   0.685  0.4489  0.9792 -3.1919
  372MOL0     H50218   4.954   6.935   0.772  0.9358 -0.7422  1.6045
  372MOL0     H50219   4.965   7.047   0.908 -0.7979  0.4223  0.0837
  372MOL0     H50220   4.945   7.106   0.743 -0.1697  0.0519  0.3620
  373MOL0     O50221   2.824   3.997   2.855 -0.0760  0.1291  0.2175
  373MOL0     C50222   2.822   4.103   2.916  1.3129 -0.4017  0.6179
  373MOL0     O50223   2.926   4.166   2.977  0.3871  0.0702  0.2607
  373MOL0     C50224   3.050   4.110   2.959 -0.5606  0.1023  0.2888
  373MOL0     C50225   3.120   4.105   2.832 -0.5848 -0.0971  0.5925
  373MOL0     C50226   3.247   4.045   2.809 -0.3375 -0.5076 -0.9815
  373MOL0     C50227   3.302   3.975   2.914 -0.2889 -0.5182 -0.2046
  373MOL0     O50228   3.418   3.909   2.888  0.5360 -0.4785  0.2517
  373MOL0     C50229   3.480   3.838   2.999  0.1968 -0.7286  0.8403
  373MOL0     C50230   3.624   3.835   2.956  0.0722 -0.3929 -0.3973
  373MOL0     C50231   3.687   3.967   2.939 -0.4362  0.0041  0.4598
  373MOL0     C50232   3.831   3.940   2.876  0.3521 -0.0374 -0.2950
  373MOL0     C50233   3.904   4.072   2.859  0.3469 -1.0971 -0.4371
  373MOL0     C50234   3.936   4.157   2.985 -0.1636 -0.7969  0.0590
  373MOL0     C50235   4.040   4.086   3.079  0.2342  0.2992  0.5768
  373MOL0     C50236   4.173   4.056   3.025  0.5349  0.3406 -0.3037
  373MOL0     N50237   4.239   4.173   2.979  0.3938 -0.9740  0.0200
  373MOL0     C50238   4.326   4.195   2.872 -0.5482 -0.0255 -0.0067
  373MOL0     C50239   4.384   4.314   2.907  0.2394 -0.3593  0.1783
  373MOL0     C50240   4.465   4.397   2.816  0.1816  0.9493 -0.0543
  373MOL0     C50241   4.616   4.388   2.844  0.4194 -0.3807 -0.9359
  373MOL0     C50242   4.648   4.486   2.951 -0.0193  0.6705  0.2969
  373MOL0     C50243   4.807   4.511   2.960  0.1205  0.8776 -0.7426
  373MOL0     O50244   4.861   4.396   3.011 -0.7754 -0.5030 -0.5343
  373MOL0     C50245   4.992   4.394   3.055  0.6408 -0.3287  0.1202
  373MOL0     C50246   5.087   4.502   3.033  0.4229  0.2984 -0.7771
  373MOL0     C50247   5.219   4.489   3.071 -0.4310  0.5096 -0.1255
  373MOL0     C50248   5.263   4.361   3.131  0.1470 -0.2922 -0.2990
  373MOL0     C50249   5.402   4.347   3.164  0.0354 -0.1350 -0.3743
  373MOL0     O50250   5.445   4.212   3.152  0.2020 -0.0162 -0.7010
  373MOL0     C50251   5.578   4.178   3.142 -0.9149 -0.4825  0.3807
  373MOL0     C50252   5.616   4.120   3.015 -0.7086 -0.9596  0.5149
  373MOL0     C50253   5.750   4.074   2.988  0.5028 -0.5890 -0.4627
  373MOL0     C50254   5.844   4.072   3.094  0.3310 -0.1819 -0.4212
  373MOL0     O50255   5.973   4.024   3.095 -0.2752  0.0204  0.6239
  373MOL0     C50256   6.022   3.946   2.981 -0.6177 -0.0752  0.1533
  373MOL0     C50257   6.167   3.902   3.000 -0.2266  0.2133 -0.4335
  373MOL0     C50258   6.182   3.813   3.125 -0.6668  0.6157  0.2554
  373MOL0     C50259   6.307   3.728   3.111  0.4355  0.5899  0.3089
  373MOL0     C50260   6.355   3.685   3.253  0.1099 -0.2064 -0.6232
  373MOL0     C50261   6.477   3.587   3.245 -0.7517  0.1156  0.0466
  373MOL0     C50262   6.606   3.657   3.204  0.5319 -0.7519  0.0228
  373MOL0     C50263   6.697   3.711   3.313 -1.1341 -0.1635  0.4831
  373MOL0    Cl50264   6.856   3.756   3.241 -0.1825 -0.1773  0.0655
  373MOL0     C50265   5.813   4.137   3.213  0.4864  0.1985 -0.2396
  373MOL0     C50266   5.687   4.191   3.239 -0.5756  0.3016  0.3041
  373MOL0     O50267   5.472   4.449   3.175  0.7049 -0.4107 -0.3636
  373MOL0     C50268   5.168   4.252   3.139 -0.4070  0.1710  0.2415
  373MOL0     C50269   5.036   4.270   3.099 -0.4164 -0.3562  0.3838
  373MOL0     N50270   4.349   4.353   3.032 -0.0212 -0.0790 -0.2713
  373MOL0     N50271   4.247   4.279   3.070 -0.0783  0.1560  1.1851
  373MOL0     C50272   3.235   3.976   3.042 -0.1576 -0.4630  0.5569
  373MOL0     C50273   3.111   4.043   3.066 -0.4470 -0.3418 -0.3387
  373MOL0     C50274   2.685   4.152   2.934  0.8666  0.2901  0.0689
  373MOL0     C50275   2.673   4.267   3.018  0.2061  0.1829  0.7264
  373MOL0     C50276   2.554   4.332   3.044  0.5501 -0.6452  0.6582
  373MOL0     C50277   2.433   4.287   2.988  0.0204 -0.2189  0.8511
  373MOL0     O50278   2.324   4.363   3.020 -0.3088 -0.4782  0.5509
  373MOL0     C50279   2.198   4.324   2.964  0.1882  0.0194  0.0082
  373MOL0     C50280   2.083   4.412   3.015 -0.5380 -0.5341  0.8664
  373MOL0     C50281   1.956   4.365   2.950  0.2943 -0.2209 -0.3574
  373MOL0     C50282   1.842   4.441   3.007 -0.1201 -0.1455  0.0061
  373MOL0     C50283   1.715   4.419   2.947  0.3507 -0.9372 -1.4073
  373MOL0     C50284   1.608   4.387   2.913  0.0104  0.4260 -0.4004
  373MOL0     C50285   2.432   4.161   2.926 -0.1848  0.6488  0.6332
  373MOL0     C50286   2.555   4.100   2.888  0.1892 -0.0938 -0.6197
  373MOL0     C50287   2.544   3.980   2.807  0.6702 -0.0719  0.1921
  373MOL0     H50288   3.069   4.136   2.741  2.4631  3.3687 -0.1558
  373MOL0     H50289   3.282   4.045   2.706 -1.9064 -0.8379 -1.5496
  373MOL0     H50290   3.466   3.901   3.088  0.3708  0.6265 -0.0507
  373MOL0     H50291   3.435   3.741   3.020 -0.8813 -0.1270  1.4028
  373MOL0     H50292   3.634   3.787   2.859  2.7750 -1.2656  0.2136
  373MOL0     H50293   3.674   3.770   3.029 -0.2049 -1.6953 -1.3415
  373MOL0     H50294   3.684   4.020   3.035  1.6214  0.9826  0.0528
  373MOL0     H50295   3.639   4.030   2.864  2.7521  1.9070 -0.1850
  373MOL0     H50296   3.884   3.879   2.950 -1.7647 -0.6081  0.8408
  373MOL0     H50297   3.829   3.890   2.779  2.4280  2.4936 -1.7691
  373MOL0     H50298   3.994   4.059   2.798  0.9237  1.2550 -0.1925
  373MOL0     H50299   3.834   4.135   2.804  0.1570 -0.0828  0.9223
  373MOL0     H50300   3.967   4.256   2.950 -0.6546 -0.7205 -0.1761
  373MOL0     H50301   3.850   4.175   3.050 -1.4736  3.0651 -2.3598
  373MOL0     H50302   4.002   3.988   3.107  3.3023 -0.9573  0.8114
  373MOL0     H50303   4.055   4.146   3.169  4.2084  3.5981 -1.9082
  373MOL0     H50304   4.221   4.006   3.110  0.1441 -1.4503 -1.0822
  373MOL0     H50305   4.181   3.987   2.940  3.5318  0.5629 -0.3079
  373MOL0     H50306   4.331   4.143   2.777 -4.6869  3.1730 -2.3171
  373MOL0     H50307   4.441   4.362   2.715  0.8848  0.0743  0.0757
  373MOL0     H50308   4.417   4.494   2.836 -0.4340  0.4952  0.7811
  373MOL0     H50309   4.629   4.287   2.883 -2.3556 -0.6776 -0.5902
  373MOL0     H50310   4.665   4.404   2.747  2.0556 -1.1196 -0.2565
  373MOL0     H50311   4.614   4.445   3.047  1.6892  2.9327  1.9917
  373MOL0     H50312   4.605   4.584   2.931  0.5239  1.1256  1.2537
  373MOL0     H50313   4.822   4.601   3.020 -0.1239  1.1088 -1.0258
  373MOL0     H50314   4.834   4.528   2.856  0.7375 -0.1212 -0.7675
  373MOL0     H50315   5.056   4.587   2.972  1.3353  0.7377 -0.6369
  373MOL0     H50316   5.282   4.573   3.043 -0.2157 -0.0845 -1.4873
  373MOL0     H50317   5.538   4.115   2.940  0.3111  0.0237 -0.6384
  373MOL0     H50318   5.774   4.033   2.890  2.7001 -1.9281  0.5683
  373MOL0     H50319   5.947   3.868   2.965  1.1247 -2.1094  1.3846
  373MOL0     H50320   6.019   4.023   2.903 -2.7376  0.9592  1.1704
  373MOL0     H50321   6.198   3.856   2.906  0.8323 -0.6626  0.2958
  373MOL0     H50322   6.226   3.990   3.026 -0.3298  0.9922 -2.6771
  373MOL0     H50323   6.195   3.867   3.220  0.2717 -0.8791  1.0066
  373MOL0     H50324   6.102   3.742   3.146  0.3161  0.3533  3.8473
  373MOL0     H50325   6.386   3.791   3.069  0.0592  2.7397  2.5894
  373MOL0     H50326   6.280   3.642   3.049  0.0892 -1.2204  2.8006
  373MOL0     H50327   6.283   3.625   3.310 -1.3388  1.7947 -0.2353
  373MOL0     H50328   6.379   3.772   3.315 -3.6540 -0.6344  1.8237
  373MOL0     H50329   6.498   3.541   3.342 -1.0215  2.1164  1.1036
  373MOL0     H50330   6.454   3.505   3.178  0.5507 -1.3263  1.2753
  373MOL0     H50331   6.580   3.750   3.153 -0.3705 -0.9711  0.0473
  373MOL0     H50332   6.659   3.590   3.136 -1.0638 -0.3606 -1.7003
  373MOL0     H50333   6.649   3.795   3.364 -0.4884  0.8361 -0.4898
  373MOL0     H50334   6.709   3.635   3.391  0.3290  1.0888  1.5359
  373MOL0     H50335   5.882   4.146   3.296  1.5403  1.8030 -1.2477
  373MOL0     H50336   5.651   4.240   3.329 -3.1752  0.9573 -0.9774
  373MOL0     H50337   5.192   4.152   3.174 -0.3086  0.4679  1.0377
  373MOL0     H50338   4.963   4.191   3.107 -2.6103  1.7074  2.2453
  373MOL0     H50339   3.268   3.917   3.126 -0.9487  0.2412  1.3845
  373MOL0     H50340   3.066   4.040   3.164  0.8211  0.2340  0.2902
  373MOL0     H50341   2.753   4.325   3.062 -0.4110  1.1684  0.5920
  373MOL0     H50342   2.551   4.425   3.099  2.1036 -1.4913  2.2499
  373MOL0     H50343   2.178   4.222   2.999  0.4770 -0.8100 -2.0917
  373MOL0     H50344   2.215   4.316   2.856 -0.6482  1.7438 -0.2864
  373MOL0     H50345   2.114   4.512   2.985  1.3967 -1.7494 -1.5559
  373MOL0     H50346   2.085   4.403   3.124  0.7790  0.0057  0.9127
  373MOL0     H50347   1.948   4.257   2.962  0.7998 -0.0973  1.4315
  373MOL0     H50348   1.973   4.384   2.844  0.4714 -0.2011 -0.3264
  373MOL0     H50349   1.819   4.430   3.113  0.2371 -0.9963  0.0010
  373MOL0     H50350   1.865   4.544   2.978 -1.6988 -0.1676 -1.5205
  373MOL0     H50351   1.508   4.358   2.886 -0.8742  1.9112  1.0533
  373MOL0     H50352   2.344   4.108   2.890 -0.6492  1.1284  1.0568
  373MOL0     H50353   2.445   3.977   2.760 -0.4291 -0.4783  2.4012
  373MOL0     H50354   2.611   3.979   2.721 -0.9199 -0.1871 -1.0866
  373MOL0     H50355   2.548   3.886   2.863 -2.5839 -1.2314 -1.2612
  374MOL0     O50356   1.593   1.797   6.408  0.4545 -0.0516 -0.0405
  374MOL0     C50357   1.552   1.877   6.328  0.3956 -0.1563 -0.5811
  374MOL0     O50358   1.616   1.918   6.217 -0.2030  0.2752 -0.5626
  374MOL0     C50359   1.738   1.858   6.188 -0.1637 -0.2648  0.1228
  374MOL0     C50360   1.751   1.773   6.075 -0.2041  0.7252  0.1617
  374MOL0     C50361   1.878   1.726   6.035  0.1018  0.5476  0.4046
  374MOL0     C50362   1.990   1.761   6.111  0.7040  1.0825  0.5334
  374MOL0     O50363   2.110   1.712   6.075 -1.0031  0.0833 -0.7569
  374MOL0     C50364   2.145   1.601   6.147 -0.5016 -0.2856 -0.0860
  374MOL0     C50365   2.281   1.615   6.215  0.0025 -1.5134  0.5327
  374MOL0     C50366   2.402   1.678   6.125 -0.1775 -0.5269 -0.1097
  374MOL0     C50367   2.396   1.604   6.001  0.0922  0.0904  0.8339
  374MOL0     C50368   2.525   1.618   5.924 -0.5359  0.0910 -0.3647
  374MOL0     C50369   2.534   1.520   5.808 -0.4489 -0.8115  0.0093
  374MOL0     C50370   2.650   1.548   5.713 -0.2239  0.3792 -0.3566
  374MOL0     C50371   2.665   1.441   5.615  0.0379  0.0237 -0.2833
  374MOL0     N50372   2.751   1.482   5.504  0.2835  0.0432  0.3058
  374MOL0     C50373   2.745   1.436   5.377  0.0154 -0.2217  0.8799
  374MOL0     C50374   2.853   1.475   5.313 -0.9637 -0.6797  0.1443
  374MOL0     C50375   2.889   1.465   5.163 -0.2344  0.1185 -0.0035
  374MOL0     C50376   3.027   1.400   5.142 -0.0499 -0.2889  0.5254
  374MOL0     C50377   3.064   1.386   4.995  0.8641 -0.4968 -0.4446
  374MOL0     C50378   3.207   1.346   4.991 -0.4764 -0.1928 -0.6013
  374MOL0     O50379   3.224   1.210   5.036 -0.1189 -0.4408  0.3883
  374MOL0     C50380   3.343   1.150   5.009 -0.4448  0.8253  0.2171
  374MOL0     C50381   3.461   1.212   4.974  0.7149 -0.1084  0.2910
  374MOL0     C50382   3.583   1.138   4.950  0.4936  0.0888 -0.4995
  374MOL0     C50383   3.592   1.001   4.985 -0.3432  0.6536 -0.3503
  374MOL0     C50384   3.719   0.939   4.997 -0.4528 -0.1228  0.4434
  374MOL0     O50385   3.826   1.006   4.951  0.4449 -0.5845  0.2070
  374MOL0     C50386   3.960   0.960   4.957  0.3132  0.3192 -0.3111
  374MOL0     C50387   4.044   0.993   4.853  0.4121 -0.6127  0.1905
  374MOL0     C50388   4.176   0.948   4.848 -0.3077 -0.5963 -1.2293
  374MOL0     C50389   4.226   0.869   4.955  0.0757 -0.0783  0.6641
  374MOL0     O50390   4.352   0.817   4.966  0.4780  0.0216  0.3697
  374MOL0     C50391   4.420   0.805   4.842 -0.8649 -0.3262  0.1455
  374MOL0     C50392   4.559   0.754   4.867 -0.6563  0.1403 -0.0708
  374MOL0     C50393   4.563   0.604   4.917 -0.7495 -0.0014  0.7745
  374MOL0     C50394   4.650   0.509   4.832  0.3966 -0.1118 -0.7263
  374MOL0     C50395   4.794   0.542   4.850  0.6518  0.0590  0.2078
  374MOL0     C50396   4.882   0.413   4.805  0.0733  0.3158 -0.2179
  374MOL0     C50397   5.036   0.433   4.818  0.7226  0.8398  0.5673
  374MOL0     C50398   5.091   0.488   4.686  0.1497  0.1343 -0.3994
  374MOL0    Cl50399   5.272   0.457   4.675  0.0465 -0.0542  0.3845
  374MOL0     C50400   4.142   0.848   5.065 -0.0336  0.6273  0.4362
  374MOL0     C50401   4.017   0.888   5.071  0.7956 -0.2401  0.8586
  374MOL0     O50402   3.724   0.832   5.060  0.0878 -0.4433  0.4558
  374MOL0     C50403   3.478   0.935   5.029 -0.5383  0.4033  0.0446
  374MOL0     C50404   3.358   1.008   5.034  0.7923  0.1709 -0.2268
  374MOL0     N50405   2.927   1.560   5.404 -1.0263  0.2647  0.4845
  374MOL0     N50406   2.865   1.554   5.520 -0.0444  0.2724  0.1076
  374MOL0     C50407   1.977   1.836   6.232  0.6825 -0.2394  0.1451
  374MOL0     C50408   1.849   1.887   6.270  0.0454 -0.2573  0.2163
  374MOL0     C50409   1.425   1.934   6.349 -0.0041 -0.5880 -0.2504
  374MOL0     C50410   1.416   2.073   6.346  0.6289  0.2660  0.2144
  374MOL0     C50411   1.302   2.147   6.379  0.5130  0.8399 -0.9180
  374MOL0     C50412   1.190   2.074   6.416 -0.1347 -0.9175  0.3363
  374MOL0     O50413   1.066   2.132   6.458  0.3760 -0.8057  0.5611
  374MOL0     C50414   1.034   2.268   6.422 -1.0657  0.3032 -0.2077
  374MOL0     C50415   0.891   2.298   6.454 -0.2753 -0.4865 -0.4659
  374MOL0     C50416   0.854   2.440   6.417  0.9196 -0.7909  0.3163
  374MOL0     C50417   0.705   2.458   6.448  0.0715 -0.6315 -0.1719
  374MOL0     C50418   0.684   2.474   6.593  0.7788  0.3609 -0.0706
  374MOL0     C50419   0.670   2.481   6.711  0.2827 -0.2311  0.0500
  374MOL0     C50420   1.195   1.934   6.414  0.0389  0.1230  0.0501
  374MOL0     C50421   1.315   1.862   6.378  0.3341  0.8822 -0.1652
  374MOL0     C50422   1.312   1.709   6.377 -0.2986  0.4276 -0.3634
  374MOL0     H50423   1.656   1.756   6.027 -2.5274  1.3965  4.0769
  374MOL0     H50424   1.889   1.664   5.946  3.9862 -1.7213  2.1771
  374MOL0     H50425   2.068   1.574   6.219  1.5489 -4.5820  0.7982
  374MOL0     H50426   2.163   1.517   6.079  1.8111  0.1787 -0.1202
  374MOL0     H50427   2.303   1.523   6.269 -2.1069 -3.0685 -1.1053
  374MOL0     H50428   2.265   1.690   6.293  0.1356  1.2414 -1.9263
  374MOL0     H50429   2.499   1.660   6.171 -0.7243  1.5881  2.1103
  374MOL0     H50430   2.401   1.786   6.106 -1.5182 -0.9051 -2.5754
  374MOL0     H50431   2.383   1.500   6.030 -1.0182  0.2226  0.8459
  374MOL0     H50432   2.310   1.628   5.937 -2.9736 -2.0990  3.7988
  374MOL0     H50433   2.530   1.722   5.890  0.1451  0.1724 -0.0297
  374MOL0     H50434   2.615   1.600   5.982  3.6086  0.4922 -5.9030
  374MOL0     H50435   2.555   1.419   5.845  0.9544 -0.0266  1.5144
  374MOL0     H50436   2.438   1.525   5.756 -1.4083  1.6116  1.8538
  374MOL0     H50437   2.749   1.550   5.761  2.2794 -1.6480 -4.8186
  374MOL0     H50438   2.636   1.642   5.658  0.8491  1.0681  0.4950
  374MOL0     H50439   2.703   1.346   5.654 -0.7623 -0.8101 -1.4633
  374MOL0     H50440   2.567   1.427   5.567  1.4275  1.1664 -3.7863
  374MOL0     H50441   2.668   1.372   5.335  0.1498  0.6911 -0.8577
  374MOL0     H50442   2.812   1.407   5.111  1.2819 -1.1167 -0.9518
  374MOL0     H50443   2.882   1.568   5.125  1.8539  0.1584 -0.3924
  374MOL0     H50444   3.101   1.465   5.190  0.4071 -0.8390  0.5766
  374MOL0     H50445   3.031   1.301   5.188  2.7353  0.2031  1.5210
  374MOL0     H50446   3.057   1.490   4.963 -0.6039 -0.4022  0.0994
  374MOL0     H50447   2.994   1.319   4.945  0.4741 -0.3853 -0.0613
  374MOL0     H50448   3.270   1.424   5.035  1.8085 -1.3839 -1.5918
  374MOL0     H50449   3.232   1.343   4.885 -0.3335  0.2735 -0.5800
  374MOL0     H50450   3.465   1.318   4.952  0.6981 -0.4449 -1.4165
  374MOL0     H50451   3.671   1.195   4.921 -1.4240  2.4092 -2.2209
  374MOL0     H50452   3.989   1.038   4.771 -0.8218  0.3945  1.5250
  374MOL0     H50453   4.222   0.968   4.751  1.1752  2.8851  0.0276
  374MOL0     H50454   4.367   0.740   4.772  1.1894 -1.2397 -0.6573
  374MOL0     H50455   4.426   0.903   4.793  1.3527 -1.3607 -1.8646
  374MOL0     H50456   4.614   0.764   4.773 -0.4368  2.3952  0.2430
  374MOL0     H50457   4.614   0.812   4.942  0.4706 -1.2687  0.2275
  374MOL0     H50458   4.591   0.593   5.022  1.5641  3.1869  0.6635
  374MOL0     H50459   4.467   0.553   4.907 -1.3776  1.0516  1.2278
  374MOL0     H50460   4.614   0.510   4.729 -0.4964  0.8243 -0.4168
  374MOL0     H50461   4.644   0.409   4.876 -2.6676  0.3268  0.0449
  374MOL0     H50462   4.819   0.571   4.953  0.5538 -1.5877  0.7161
  374MOL0     H50463   4.821   0.630   4.790  1.8772 -0.4994 -0.0911
  374MOL0     H50464   4.858   0.317   4.850 -0.2802 -0.5715 -2.2171
  374MOL0     H50465   4.865   0.389   4.700  0.5963  0.1605 -0.2721
  374MOL0     H50466   5.081   0.334   4.830  0.1648  0.5295  0.1297
  374MOL0     H50467   5.073   0.488   4.906  0.1993 -0.6199  1.7326
  374MOL0     H50468   5.040   0.439   4.604 -1.1062  0.6925  0.0229
  374MOL0     H50469   5.060   0.592   4.673 -2.7159 -0.4812  0.6918
  374MOL0     H50470   4.173   0.789   5.151 -1.9294 -1.8658 -0.4829
  374MOL0     H50471   3.959   0.853   5.156  0.2047 -0.8662  0.2113
  374MOL0     H50472   3.478   0.832   5.063  0.4780  0.1059 -0.7904
  374MOL0     H50473   3.269   0.957   5.069 -0.6686  0.0637 -3.6472
  374MOL0     H50474   2.063   1.870   6.288  0.8994  0.0738 -0.3730
  374MOL0     H50475   1.844   1.939   6.365 -4.5487 -0.6464  0.4195
  374MOL0     H50476   1.510   2.126   6.333  0.8657 -0.4704 -1.1815
  374MOL0     H50477   1.297   2.255   6.368  0.7622  1.2520  2.1746
  374MOL0     H50478   1.060   2.281   6.316 -3.2620 -0.5517 -0.9207
  374MOL0     H50479   1.094   2.337   6.482 -1.8716  0.7384  0.1036
  374MOL0     H50480   0.876   2.293   6.563 -1.3196  1.5528 -0.4697
  374MOL0     H50481   0.830   2.224   6.402 -0.5595 -0.1077 -0.6740
  374MOL0     H50482   0.861   2.472   6.312 -2.9406  2.2423  0.7647
  374MOL0     H50483   0.921   2.503   6.475  1.0075  0.8168 -1.4161
  374MOL0     H50484   0.680   2.559   6.412  0.0244  0.0080  1.5340
  374MOL0     H50485   0.644   2.376   6.409  0.5659 -0.7740 -0.6487
  374MOL0     H50486   0.650   2.492   6.815 -1.5241  1.4449 -0.4229
  374MOL0     H50487   1.102   1.881   6.431 -0.0425 -0.9886 -3.2118
  374MOL0     H50488   1.210   1.671   6.379  0.0495 -0.5408 -0.6505
  374MOL0     H50489   1.342   1.667   6.281 -3.4112 -1.0378 -0.7856
  374MOL0     H50490   1.369   1.660   6.457 -2.2810 -3.0648 -0.9319
  375MOL0     O50491   4.914   5.108  10.533 -0.1942  0.4673 -0.3230
  375MOL0     C50492   4.814   5.124  10.595  1.0887 -0.0227  0.8175
  375MOL0     O50493   4.770   5.031  10.695  0.0083 -0.3658 -0.1442
  375MOL0     C50494   4.880   4.950  10.726 -0.4604  0.7617 -0.2413
  375MOL0     C50495   4.955   4.990  10.842  0.2607 -0.0738 -0.3848
  375MOL0     C50496   5.069   4.909  10.877 -0.5102 -0.3189  0.6919
  375MOL0     C50497   5.097   4.790  10.812 -0.6610  0.8449 -0.5878
  375MOL0     O50498   5.200   4.706  10.850 -0.2983 -0.1859 -0.2210
  375MOL0     C50499   5.332   4.761  10.849 -0.4517 -0.3978  0.5834
  375MOL0     C50500   5.440   4.655  10.818 -1.3037 -0.8309  0.3861
  375MOL0     C50501   5.577   4.722  10.846 -0.1056 -0.4769 -0.1813
  375MOL0     C50502   5.619   4.679  10.991  0.8345  0.0653 -0.0235
  375MOL0     C50503   5.758   4.722  11.007 -0.6904  0.0102 -0.2411
  375MOL0     C50504   5.805   4.724  11.150 -0.4143 -0.2031  1.5151
  375MOL0     C50505   5.826   4.580  11.204 -0.0956 -0.2530 -0.0383
  375MOL0     C50506   5.909   4.572  11.339  0.3530  0.2359 -0.3996
  375MOL0     N50507   6.041   4.621  11.322  0.0869 -0.1241 -0.3768
  375MOL0     C50508   6.091   4.752  11.317 -0.2898 -0.4319  0.4398
  375MOL0     C50509   6.224   4.727  11.302  0.3248  0.4788 -0.2565
  375MOL0     C50510   6.322   4.849  11.285 -0.1206  0.4382  0.9257
  375MOL0     C50511   6.468   4.798  11.266  0.1261  0.0924 -0.1083
  375MOL0     C50512   6.573   4.916  11.278  0.4797  0.2123 -0.1727
  375MOL0     C50513   6.571   4.993  11.406  0.3057 -0.1992 -0.1707
  375MOL0     O50514   6.654   5.110  11.389  0.2388  0.6914 -0.7379
  375MOL0     C50515   6.790   5.093  11.387 -0.3052  0.0478 -0.6457
  375MOL0     C50516   6.864   5.191  11.338 -0.8580 -0.5406  0.4028
  375MOL0     C50517   6.998   5.162  11.307 -0.0419  0.0050  0.2424
  375MOL0     C50518   7.077   5.057  11.361  0.5556 -0.2394  0.1863
  375MOL0     C50519   7.223   5.041  11.341 -0.5780 -0.5857 -0.1073
  375MOL0     O50520   7.282   5.133  11.253  0.2075  0.2457 -0.4390
  375MOL0     C50521   7.416   5.155  11.250 -0.3012 -0.8214 -0.4828
  375MOL0     C50522   7.503   5.145  11.358 -0.0171  0.2644 -0.2560
  375MOL0     C50523   7.641   5.158  11.343  0.3953 -0.6323 -0.0883
  375MOL0     C50524   7.697   5.198  11.221 -0.2444 -0.1178 -0.1079
  375MOL0     O50525   7.835   5.225  11.192 -0.3415  0.6343 -0.7742
  375MOL0     C50526   7.947   5.189  11.276 -0.1897 -0.3030 -0.4845
  375MOL0     C50527   8.064   5.262  11.232 -0.0813 -0.6744 -0.3535
  375MOL0     C50528   8.198   5.238  11.298  0.8044 -0.4795 -0.4592
  375MOL0     C50529   8.311   5.322  11.236  0.3460 -0.0622 -0.4212
  375MOL0     C50530   8.434   5.286  11.305  0.0995 -0.0293  0.7256
  375MOL0     C50531   8.547   5.366  11.251  0.2005 -0.3999 -0.4694
  375MOL0     C50532   8.677   5.326  11.320 -0.5514 -0.3720  0.0260
  375MOL0     C50533   8.806   5.409  11.289 -0.5333 -0.3438  0.5921
  375MOL0    Cl50534   8.822   5.476  11.118 -0.3796  0.3123  0.0356
  375MOL0     C50535   7.608   5.219  11.114  0.6421  0.1118 -1.0230
  375MOL0     C50536   7.473   5.192  11.129 -0.6486  0.2645 -0.2743
  375MOL0     O50537   7.284   4.964  11.411 -0.6239 -0.5248 -0.5106
  375MOL0     C50538   6.998   4.961  11.429 -0.3449 -0.1338 -0.2687
  375MOL0     C50539   6.860   4.980  11.440  0.2121 -0.1460 -0.2562
  375MOL0     N50540   6.251   4.591  11.298  0.1713  0.2358 -0.3520
  375MOL0     N50541   6.143   4.530  11.316  0.3966  0.1943 -0.8255
  375MOL0     C50542   5.017   4.749  10.709  0.1197  0.5459  0.4092
  375MOL0     C50543   4.910   4.829  10.662  0.2670 -0.2694 -0.6838
  375MOL0     C50544   4.720   5.237  10.567  0.7480  0.4625  0.5233
  375MOL0     C50545   4.611   5.252  10.652 -0.2687  0.0721 -0.0240
  375MOL0     C50546   4.522   5.356  10.630  0.8712  0.2302  0.3563
  375MOL0     C50547   4.535   5.439  10.528 -0.3383 -0.1611  0.0223
  375MOL0     O50548   4.430   5.526  10.501  0.0580 -0.2538 -0.1710
  375MOL0     C50549   4.453   5.642  10.423  0.1564  0.1359 -0.9679
  375MOL0     C50550   4.340   5.740  10.447 -0.1353  0.3764  0.7190
  375MOL0     C50551   4.302   5.764  10.587  0.7962 -0.4637  0.1170
  375MOL0     C50552   4.399   5.850  10.669  0.1200 -0.2336 -1.1413
  375MOL0     C50553   4.447   5.978  10.616 -0.0311 -0.7076  0.0619
  375MOL0     C50554   4.488   6.076  10.558 -0.2759  0.6657 -0.5120
  375MOL0     C50555   4.630   5.407  10.427 -0.1832  0.4287 -0.4979
  375MOL0     C50556   4.724   5.307  10.445 -0.4030  0.2826  0.1721
  375MOL0     C50557   4.811   5.288  10.328  1.4375 -0.3922 -0.0668
  375MOL0     H50558   4.923   5.082  10.891  1.6790 -0.1526  0.7906
  375MOL0     H50559   5.135   4.954  10.951 -0.7330  2.7631 -0.8134
  375MOL0     H50560   5.337   4.849  10.784 -1.0631  0.8678  2.1910
  375MOL0     H50561   5.346   4.809  10.946  0.5400 -0.2121  0.3591
  375MOL0     H50562   5.429   4.623  10.714 -3.1492 -3.4859  1.2751
  375MOL0     H50563   5.430   4.562  10.875  0.5970 -0.4581  1.4223
  375MOL0     H50564   5.573   4.831  10.840 -2.2240 -0.5209 -0.3600
  375MOL0     H50565   5.649   4.676  10.778  0.0933  0.2355 -0.4525
  375MOL0     H50566   5.556   4.732  11.064  0.5669  0.5430 -0.5967
  375MOL0     H50567   5.612   4.571  10.999  0.3210 -0.0997 -2.1803
  375MOL0     H50568   5.813   4.645  10.953 -0.9633 -0.3165 -0.0581
  375MOL0     H50569   5.755   4.824  10.969  1.9623 -0.1263 -1.0116
  375MOL0     H50570   5.902   4.774  11.138 -0.3126 -0.8092 -0.6318
  375MOL0     H50571   5.737   4.776  11.218 -2.2047 -1.1267  0.5102
  375MOL0     H50572   5.876   4.524  11.125  0.1572  0.2581 -0.2437
  375MOL0     H50573   5.731   4.527  11.213 -1.3610  1.5557 -1.7710
  375MOL0     H50574   5.864   4.640  11.412 -0.5483  0.6797 -1.3368
  375MOL0     H50575   5.919   4.468  11.371 -2.7799 -0.5172 -1.4337
  375MOL0     H50576   6.045   4.850  11.320 -0.0886 -0.1638 -2.4013
  375MOL0     H50577   6.290   4.905  11.197 -0.9842 -0.2903  0.7613
  375MOL0     H50578   6.321   4.909  11.377  0.4248 -0.9005  1.8437
  375MOL0     H50579   6.474   4.710  11.331  1.4039  1.0898  1.1645
  375MOL0     H50580   6.473   4.748  11.168 -1.6488 -1.3063  0.4515
  375MOL0     H50581   6.560   4.988  11.197  2.2640  2.6383  1.5375
  375MOL0     H50582   6.672   4.874  11.261  0.3709 -0.4382  0.6828
  375MOL0     H50583   6.592   4.920  11.485  0.3427 -2.8927 -2.5216
  375MOL0     H50584   6.475   5.044  11.423  0.7584  0.6962 -0.2528
  375MOL0     H50585   6.830   5.293  11.318 -0.3033 -0.5077 -0.3825
  375MOL0     H50586   7.043   5.237  11.243 -0.5550  0.0111 -0.1171
  375MOL0     H50587   7.454   5.116  11.451  1.1309 -2.0410 -0.2865
  375MOL0     H50588   7.706   5.148  11.429  0.3083  3.5805  0.7223
  375MOL0     H50589   7.920   5.204  11.381  2.2822  0.2135  0.1456
  375MOL0     H50590   7.966   5.083  11.259  0.1771 -0.1207 -1.2736
  375MOL0     H50591   8.083   5.252  11.125  1.4347  2.7205 -0.5127
  375MOL0     H50592   8.040   5.368  11.246 -0.6036 -0.7420 -0.6986
  375MOL0     H50593   8.200   5.260  11.405  2.7158 -1.9051 -0.1367
  375MOL0     H50594   8.226   5.132  11.298 -1.5740 -1.2143  1.6859
  375MOL0     H50595   8.298   5.428  11.260 -1.9664 -0.3341 -0.2653
  375MOL0     H50596   8.314   5.297  11.130  0.0436 -1.2243 -0.1756
  375MOL0     H50597   8.457   5.182  11.280 -0.4449 -0.2410  1.0989
  375MOL0     H50598   8.411   5.294  11.411 -0.4052 -1.2779  0.7305
  375MOL0     H50599   8.552   5.358  11.142 -0.6514  0.5434 -0.5978
  375MOL0     H50600   8.545   5.473  11.277  1.5038 -0.7822  1.4125
  375MOL0     H50601   8.708   5.222  11.303 -2.0337 -1.0291  1.1226
  375MOL0     H50602   8.664   5.342  11.427 -0.1479  1.3364 -0.1504
  375MOL0     H50603   8.806   5.498  11.353  2.9363  1.7350 -1.9160
  375MOL0     H50604   8.890   5.344  11.315 -1.9502 -2.1445  0.8698
  375MOL0     H50605   7.638   5.262  11.019 -3.9316  2.1838 -1.8275
  375MOL0     H50606   7.407   5.179  11.043 -0.1513 -1.0097 -0.4929
  375MOL0     H50607   7.043   4.877  11.481  0.8516  1.4871  1.4534
  375MOL0     H50608   6.798   4.903  11.485 -0.3718  2.1050  3.1431
  375MOL0     H50609   5.033   4.653  10.662 -2.1829 -0.9508  2.4396
  375MOL0     H50610   4.846   4.804  10.578  0.5795 -0.8629 -0.7504
  375MOL0     H50611   4.613   5.192  10.742  2.4106  0.1182  0.0282
  375MOL0     H50612   4.449   5.364  10.711 -0.1382 -2.1816 -0.2099
  375MOL0     H50613   4.467   5.622  10.317  1.9089 -0.5641 -0.6517
  375MOL0     H50614   4.549   5.688  10.451  0.3898 -0.8863 -0.0180
  375MOL0     H50615   4.257   5.705  10.384 -0.0239  1.8019 -0.2824
  375MOL0     H50616   4.378   5.835  10.408 -2.2080  0.4128 -1.5316
  375MOL0     H50617   4.277   5.678  10.650 -0.3271  1.7256  2.8954
  375MOL0     H50618   4.206   5.815  10.580  0.8082 -0.2875  1.0710
  375MOL0     H50619   4.364   5.864  10.772  0.5723 -1.2755 -0.8381
  375MOL0     H50620   4.491   5.792  10.679 -0.3547 -0.5540  3.2485
  375MOL0     H50621   4.529   6.171  10.529  0.4501 -0.6015 -4.2356
  375MOL0     H50622   4.616   5.457  10.332 -4.0567 -0.1502 -0.3967
  375MOL0     H50623   4.785   5.198  10.271  0.2873  1.0556 -1.9694
  375MOL0     H50624   4.817   5.367  10.252 -1.0090 -0.0784 -0.0081
  375MOL0     H50625   4.914   5.276  10.362  2.6306 -2.1898 -3.7756
  376MOL0     O50626   8.327  10.734   8.492  0.1629 -0.1889  0.2908
  376MOL0     C50627   8.387  10.646   8.429  0.5195  0.3302 -0.0091
  376MOL0     O50628   8.526  10.627   8.435  0.5430 -0.2592 -0.4869
  376MOL0     C50629   8.600  10.738   8.471 -0.3783  1.0711 -0.9402
  376MOL0     C50630   8.707  10.731   8.567 -0.0042  0.1415  0.3145
  376MOL0     C50631   8.793  10.842   8.599  1.3927 -0.1770  0.7874
  376MOL0     C50632   8.773  10.958   8.523  0.4249  0.3960 -0.7164
  376MOL0     O50633   8.860  11.058   8.563  0.1743  0.4061 -0.3779
  376MOL0     C50634   8.970  11.100   8.475  0.8401 -0.4739  0.9233
  376MOL0     C50635   8.963  11.255   8.492  0.1576 -0.2678 -0.1366
  376MOL0     C50636   9.079  11.322   8.413  0.1117 -0.1087  0.6020
  376MOL0     C50637   9.214  11.301   8.476  0.0335 -0.3722 -0.0455
  376MOL0     C50638   9.327  11.409   8.438  0.9682  0.2389  0.2644
  376MOL0     C50639   9.474  11.362   8.459 -0.2423 -0.5601  0.4015
  376MOL0     C50640   9.564  11.488   8.452  0.5091  0.0263  0.8424
  376MOL0     C50641   9.701  11.478   8.512  0.5361 -1.1458  0.2201
  376MOL0     N50642   9.773  11.607   8.496  0.2622 -1.0486  0.5566
  376MOL0     C50643   9.810  11.690   8.596 -0.6205 -0.0269 -0.1948
  376MOL0     C50644   9.889  11.782   8.548  0.1273 -0.0609 -0.1894
  376MOL0     C50645   9.935  11.894   8.635  0.1417 -0.0328 -0.1946
  376MOL0     C50646  10.053  11.847   8.717 -0.4646  0.5632 -0.0215
  376MOL0     C50647  10.179  11.946   8.689  0.3534  1.0636  0.3132
  376MOL0     C50648  10.241  11.916   8.545  0.1479  0.2101  0.1291
  376MOL0     O50649  10.343  12.008   8.510  0.5821 -0.7562  0.3194
  376MOL0     C50650  10.472  11.972   8.542  0.0591 -0.1816  0.1599
  376MOL0     C50651  10.512  11.874   8.632  0.6175 -0.3130  0.1613
  376MOL0     C50652  10.651  11.843   8.660  0.0706  0.4423  0.7248
  376MOL0     C50653  10.750  11.901   8.571  0.1110  0.4706 -0.8151
  376MOL0     C50654  10.895  11.860   8.570 -0.5340  0.4705  0.6719
  376MOL0     O50655  10.963  11.900   8.453 -0.1723  0.2994 -1.0459
  376MOL0     C50656  11.090  11.852   8.422 -0.2643 -0.5859  0.1304
  376MOL0     C50657  11.176  11.929   8.337  0.7585 -0.5857  0.1396
  376MOL0     C50658  11.303  11.878   8.295  0.1272 -0.5352  0.4901
  376MOL0     C50659  11.338  11.744   8.333 -0.5952  0.4287  0.2775
  376MOL0     O50660  11.466  11.708   8.304 -0.2259  0.8415  0.0356
  376MOL0     C50661  11.526  11.633   8.409 -0.1135  0.3290  0.3939
  376MOL0     C50662  11.670  11.677   8.441  0.5060  0.0555  0.4909
  376MOL0     C50663  11.755  11.586   8.536 -0.3770 -0.0119  0.0940
  376MOL0     C50664  11.911  11.615   8.540  0.2171  0.0469  0.0714
  376MOL0     C50665  11.992  11.487   8.509  0.2871 -0.3236  0.2014
  376MOL0     C50666  12.144  11.500   8.491 -0.7149  0.4327 -0.2882
  376MOL0     C50667  12.212  11.528   8.628 -0.7993 -0.4939  0.1600
  376MOL0     C50668  12.366  11.558   8.633  0.6654  0.5722 -0.1141
  376MOL0    Cl50669  12.465  11.413   8.646  0.3646 -0.1817 -0.1357
  376MOL0     C50670  11.242  11.670   8.398  0.0340  0.3686  0.0936
  376MOL0     C50671  11.122  11.719   8.440 -0.0261  0.6515  0.5198
  376MOL0     O50672  10.947  11.790   8.653  0.2017 -0.0383 -0.3475
  376MOL0     C50673  10.709  12.001   8.479  0.5962  0.2059  0.2917
  376MOL0     C50674  10.578  12.043   8.480 -0.2547  0.4420 -0.0236
  376MOL0     N50675   9.911  11.764   8.417 -0.6073 -0.5808 -0.2165
  376MOL0     N50676   9.845  11.653   8.388 -0.4302  0.2835  0.1935
  376MOL0     C50677   8.673  10.967   8.426 -0.7366  0.4940 -0.1012
  376MOL0     C50678   8.583  10.855   8.407 -0.1907 -0.8557 -1.2248
  376MOL0     C50679   8.323  10.541   8.341  0.1535 -1.3924  0.5821
  376MOL0     C50680   8.395  10.459   8.262 -0.2612  0.3398 -0.3274
  376MOL0     C50681   8.338  10.357   8.187  0.1458  0.0746 -0.5240
  376MOL0     C50682   8.201  10.327   8.204  0.2243  0.4030  0.2270
  376MOL0     O50683   8.170  10.217   8.124 -0.5271  0.4994 -0.1176
  376MOL0     C50684   8.039  10.172   8.128 -0.2016 -0.7915  0.2708
  376MOL0     C50685   7.958  10.254   8.029  0.4906  0.3523 -0.1771
  376MOL0     C50686   8.021  10.275   7.892 -0.3419 -0.6743 -0.2760
  376MOL0     C50687   7.915  10.344   7.799  0.2824 -0.2271 -0.5720
  376MOL0     C50688   7.851  10.250   7.712 -0.5433 -0.0081 -0.1281
  376MOL0     C50689   7.811  10.171   7.635 -0.3669  0.0352  0.0290
  376MOL0     C50690   8.124  10.407   8.293 -0.6102  1.9108 -0.4905
  376MOL0     C50691   8.181  10.516   8.358  0.7334 -0.1169  0.2419
  376MOL0     C50692   8.090  10.576   8.458 -1.0952  0.1174  0.3419
  376MOL0     H50693   8.732  10.637   8.616 -0.4301 -0.8188 -1.2232
  376MOL0     H50694   8.872  10.842   8.672  2.1343  1.4308  0.0359
  376MOL0     H50695   9.063  11.053   8.506  3.5209  2.4720 -1.8885
  376MOL0     H50696   8.952  11.064   8.373  1.8990 -0.9715  0.9047
  376MOL0     H50697   8.961  11.273   8.600 -2.1900  2.2617 -0.4779
  376MOL0     H50698   8.865  11.290   8.457 -0.7657 -1.1217  1.4632
  376MOL0     H50699   9.060  11.429   8.404  0.2406 -0.0674  0.8383
  376MOL0     H50700   9.077  11.283   8.310  0.7391 -1.0554  0.9318
  376MOL0     H50701   9.206  11.311   8.584 -3.3022  2.6774 -0.3983
  376MOL0     H50702   9.236  11.198   8.448 -2.2092 -0.6049 -1.1822
  376MOL0     H50703   9.306  11.436   8.334  3.1302 -0.4213 -0.4100
  376MOL0     H50704   9.304  11.500   8.494 -0.6287  1.7626 -2.6203
  376MOL0     H50705   9.485  11.322   8.560  3.1887  2.8942  1.6300
  376MOL0     H50706   9.507  11.282   8.393  0.5840 -0.7517  1.0306
  376MOL0     H50707   9.513  11.574   8.496 -0.7844  0.0439 -0.6193
  376MOL0     H50708   9.591  11.512   8.349 -0.3640  2.8817  1.2064
  376MOL0     H50709   9.705  11.431   8.611 -1.5368 -0.3066  0.7458
  376MOL0     H50710   9.757  11.403   8.455  0.9617 -1.4589  1.0361
  376MOL0     H50711   9.781  11.679   8.700  1.9484  0.1350  0.6019
  376MOL0     H50712   9.952  11.978   8.566  3.5359  0.3616  0.9125
  376MOL0     H50713   9.859  11.937   8.700  0.1689  0.8115 -0.7026
  376MOL0     H50714  10.027  11.851   8.823 -0.8443  0.9614 -0.1271
  376MOL0     H50715  10.078  11.743   8.696  1.3629  0.6137  1.6045
  376MOL0     H50716  10.265  11.934   8.756 -0.7955 -0.4219  1.5802
  376MOL0     H50717  10.151  12.051   8.702 -1.7377  0.5798 -0.0157
  376MOL0     H50718  10.166  11.929   8.467  2.7233  2.0893 -2.2033
  376MOL0     H50719  10.277  11.815   8.525  2.4709  1.0402 -0.1470
  376MOL0     H50720  10.431  11.824   8.685  1.7408 -2.2198  0.1861
  376MOL0     H50721  10.676  11.764   8.730 -0.1634  0.3801  0.7414
  376MOL0     H50722  11.148  12.029   8.305  0.1100 -1.2640 -1.5136
  376MOL0     H50723  11.380  11.941   8.251  0.5790 -1.3135  0.1333
  376MOL0     H50724  11.474  11.644   8.505  0.9889  1.0501  0.9424
  376MOL0     H50725  11.534  11.528   8.383 -2.1964  0.4053 -0.7803
  376MOL0     H50726  11.727  11.693   8.349 -0.7064  0.8016 -0.1538
  376MOL0     H50727  11.653  11.770   8.495  0.2989  0.0012  0.5220
  376MOL0     H50728  11.710  11.593   8.636 -1.1078  1.8653 -0.3159
  376MOL0     H50729  11.744  11.480   8.515  1.5593 -0.1456 -0.3858
  376MOL0     H50730  11.933  11.647   8.642 -1.6837  3.3412 -0.4223
  376MOL0     H50731  11.929  11.697   8.470 -1.7122 -1.2801 -2.1236
  376MOL0     H50732  11.948  11.448   8.417 -2.4988  0.8216  0.9208
  376MOL0     H50733  11.968  11.411   8.585  0.9753 -1.8748 -1.0883
  376MOL0     H50734  12.179  11.405   8.448 -6.2366 -0.4446 -4.0531
  376MOL0     H50735  12.172  11.579   8.421  2.4852  0.1989  0.5934
  376MOL0     H50736  12.180  11.468   8.714  1.5066 -2.8114 -0.4421
  376MOL0     H50737  12.180  11.630   8.648  1.0489  0.4870 -1.4761
  376MOL0     H50738  12.398  11.622   8.550  1.5076  1.6904  1.0357
  376MOL0     H50739  12.395  11.613   8.723  1.5055 -2.8829  1.8903
  376MOL0     H50740  11.262  11.563   8.407  1.4685  0.5588 -0.5216
  376MOL0     H50741  11.058  11.644   8.486  0.3379  0.3944  0.6108
  376MOL0     H50742  10.769  12.061   8.411 -0.8436  0.3901 -0.8793
  376MOL0     H50743  10.544  12.126   8.419 -2.0250 -0.4286 -0.3059
  376MOL0     H50744   8.653  11.059   8.371 -3.5488 -0.8534 -1.5359
  376MOL0     H50745   8.501  10.864   8.336 -0.3608 -3.3960 -1.4467
  376MOL0     H50746   8.503  10.467   8.253  0.2131 -2.5588  1.2179
  376MOL0     H50747   8.396  10.288   8.126 -0.0035 -2.3601  1.8555
  376MOL0     H50748   8.007  10.168   8.232  2.1372  2.0812  1.2443
  376MOL0     H50749   8.052  10.065   8.108 -0.2091 -0.2116 -3.5524
  376MOL0     H50750   7.935  10.350   8.075 -2.2273 -0.6580  0.7828
  376MOL0     H50751   7.865  10.197   8.016  2.1812 -2.6751  0.0221
  376MOL0     H50752   8.042  10.171   7.863  0.6528 -0.9572  1.3013
  376MOL0     H50753   8.110  10.338   7.897 -0.8284  0.1346 -1.4311
  376MOL0     H50754   7.837  10.382   7.866  0.9776 -0.3421  0.3297
  376MOL0     H50755   7.972  10.420   7.744  1.7490  0.3262  1.5544
  376MOL0     H50756   7.766  10.093   7.576 -0.3702 -0.6197  0.8820
  376MOL0     H50757   8.021  10.378   8.312  0.9446 -2.2650  3.2095
  376MOL0     H50758   8.149  10.577   8.550 -1.7088 -2.1394  0.8288
  376MOL0     H50759   8.064  10.676   8.423  1.2469  0.7221  0.2269
  376MOL0     H50760   8.007  10.510   8.485 -0.7321  0.8043  3.4364
  377MOL0     O50761   4.962   4.349   5.701 -0.0528 -0.6019 -0.0538
  377MOL0     C50762   4.907   4.270   5.629  0.1097  0.6061 -0.4683
  377MOL0     O50763   4.970   4.181   5.553  0.8822  0.0166 -0.3764
  377MOL0     C50764   5.105   4.160   5.568 -0.7980 -0.2859  0.5795
  377MOL0     C50765   5.163   4.091   5.466  0.2409 -0.2570  0.9734
  377MOL0     C50766   5.304   4.077   5.455  0.8953 -0.0960 -0.1316
  377MOL0     C50767   5.393   4.123   5.556  0.5058  0.0344 -0.8285
  377MOL0     O50768   5.519   4.092   5.540 -0.0475  0.1542  0.4392
  377MOL0     C50769   5.614   4.148   5.628  0.3569 -0.0413 -0.2548
  377MOL0     C50770   5.754   4.115   5.576  1.0037  0.1759 -0.9700
  377MOL0     C50771   5.869   4.132   5.687  0.7197  0.3403  0.3352
  377MOL0     C50772   5.874   4.023   5.804  0.4775 -0.3181  0.9765
  377MOL0     C50773   5.994   4.049   5.894  0.3419 -0.4386 -0.4661
  377MOL0     C50774   6.005   3.951   6.006  0.0996  0.5199 -0.2443
  377MOL0     C50775   6.116   3.989   6.108 -0.8399  0.0417 -0.3482
  377MOL0     C50776   6.241   4.066   6.059  0.2199 -0.8892  0.1859
  377MOL0     N50777   6.311   4.134   6.171  0.8912  0.0995 -0.2200
  377MOL0     C50778   6.257   4.233   6.261 -0.2102  0.5043  0.2744
  377MOL0     C50779   6.372   4.288   6.312  0.9029 -0.1511  0.4573
  377MOL0     C50780   6.370   4.403   6.409 -0.0422  0.9737  0.0459
  377MOL0     C50781   6.442   4.523   6.354  0.0008 -0.3000 -0.5482
  377MOL0     C50782   6.598   4.517   6.346  0.8117  0.4590 -0.1358
  377MOL0     C50783   6.668   4.459   6.473 -0.2248  0.1161 -0.0337
  377MOL0     O50784   6.626   4.551   6.575 -0.0087 -0.1245 -0.0447
  377MOL0     C50785   6.708   4.555   6.685  0.3318 -0.2170  1.0249
  377MOL0     C50786   6.689   4.657   6.778 -0.5177 -0.4387  0.9121
  377MOL0     C50787   6.771   4.668   6.884  1.0210  0.1773  0.0381
  377MOL0     C50788   6.868   4.571   6.905 -0.0003  0.5783  0.1720
  377MOL0     C50789   6.961   4.568   7.023  1.0753  0.1980 -0.2855
  377MOL0     O50790   7.021   4.453   7.055 -0.4190 -0.2591 -0.3375
  377MOL0     C50791   7.112   4.451   7.156 -1.0276 -0.0041 -0.0766
  377MOL0     C50792   7.218   4.542   7.171  0.9258 -0.5500  0.4953
  377MOL0     C50793   7.282   4.541   7.299  0.0806  0.1340  0.0218
  377MOL0     C50794   7.245   4.461   7.406  0.4961  0.0939 -0.4299
  377MOL0     O50795   7.297   4.467   7.536  0.2066  0.0143 -0.4231
  377MOL0     C50796   7.410   4.545   7.571  0.0417 -0.6808 -0.6986
  377MOL0     C50797   7.461   4.494   7.709  0.0194 -0.1632 -0.1220
  377MOL0     C50798   7.356   4.506   7.818  0.2231  0.0472  0.0798
  377MOL0     C50799   7.417   4.492   7.955  0.0884 -0.3892  0.0328
  377MOL0     C50800   7.500   4.366   7.966  0.8366  0.3215  0.2671
  377MOL0     C50801   7.580   4.368   8.097  1.2186  0.2774 -1.1049
  377MOL0     C50802   7.640   4.225   8.121 -0.3522 -0.0832 -0.0141
  377MOL0     C50803   7.686   4.190   8.265  0.3142  0.3967 -0.2497
  377MOL0    Cl50804   7.731   4.013   8.262 -0.2945  0.0220 -0.1965
  377MOL0     C50805   7.150   4.357   7.379 -0.0048 -0.7244  0.2614
  377MOL0     C50806   7.088   4.360   7.251  0.6594  0.8505 -1.1899
  377MOL0     O50807   6.968   4.674   7.077  0.0334 -0.6051  0.7583
  377MOL0     C50808   6.890   4.461   6.818  0.6451 -0.4322  0.0096
  377MOL0     C50809   6.794   4.454   6.712 -0.0182 -0.2573  0.2803
  377MOL0     N50810   6.480   4.225   6.261  0.0289 -0.3204 -0.1389
  377MOL0     N50811   6.446   4.126   6.190  0.7069  0.7203 -0.3705
  377MOL0     C50812   5.335   4.171   5.673  0.0240 -0.0316  0.0758
  377MOL0     C50813   5.198   4.187   5.674  0.5912  0.8303  0.1976
  377MOL0     C50814   4.754   4.280   5.615  0.2704 -0.2789 -0.5803
  377MOL0     C50815   4.680   4.175   5.558 -0.3750 -0.1821  0.0235
  377MOL0     C50816   4.539   4.175   5.550 -0.0619  0.0199  0.3012
  377MOL0     C50817   4.467   4.286   5.588 -0.6664  0.7257  0.0998
  377MOL0     O50818   4.327   4.275   5.571 -0.8182 -0.2724 -0.0137
  377MOL0     C50819   4.255   4.390   5.601 -0.7556  0.0827 -0.2568
  377MOL0     C50820   4.116   4.368   5.555  0.0780  0.2185 -0.1955
  377MOL0     C50821   4.022   4.488   5.603  0.1055 -0.1101  0.2100
  377MOL0     C50822   3.873   4.459   5.572 -0.4336  0.3537  0.1059
  377MOL0     C50823   3.845   4.437   5.430  0.3337  0.2296  0.9707
  377MOL0     C50824   3.836   4.425   5.309  0.1702 -0.0966  0.5545
  377MOL0     C50825   4.540   4.394   5.638  0.4193 -0.1906  0.5834
  377MOL0     C50826   4.680   4.394   5.653 -0.2448 -0.3094 -0.9039
  377MOL0     C50827   4.741   4.522   5.719 -0.5212 -0.2065 -0.3506
  377MOL0     H50828   5.101   4.068   5.380  1.6554  1.6955 -0.6514
  377MOL0     H50829   5.344   4.037   5.362  1.8284 -0.6712  0.5007
  377MOL0     H50830   5.607   4.257   5.627 -1.7876 -0.1273 -0.4303
  377MOL0     H50831   5.608   4.099   5.726  0.0576  0.4353 -0.0344
  377MOL0     H50832   5.769   4.173   5.485  0.0730  0.2588 -1.0777
  377MOL0     H50833   5.747   4.010   5.545 -2.4130 -0.3791  1.1875
  377MOL0     H50834   5.851   4.228   5.737 -0.3853 -0.3651  1.3449
  377MOL0     H50835   5.965   4.146   5.637  0.2867  3.6682  0.1764
  377MOL0     H50836   5.778   4.022   5.857 -0.3377  0.1927 -0.4298
  377MOL0     H50837   5.890   3.924   5.759  2.3240 -0.6390  2.2398
  377MOL0     H50838   6.084   4.045   5.831  0.7449 -3.4914  0.1245
  377MOL0     H50839   5.988   4.149   5.937 -0.4816 -0.6283 -0.1240
  377MOL0     H50840   5.907   3.952   6.054  0.6521 -0.4655  0.9726
  377MOL0     H50841   6.014   3.845   5.979 -3.1673 -0.3064  1.4076
  377MOL0     H50842   6.152   3.906   6.168 -2.0199 -0.4110 -0.2493
  377MOL0     H50843   6.057   4.053   6.175  0.0325  0.1981  0.2787
  377MOL0     H50844   6.297   3.992   6.001  1.0551 -0.3609  0.2968
  377MOL0     H50845   6.213   4.143   5.986  2.1501 -0.7712 -0.4875
  377MOL0     H50846   6.153   4.265   6.268 -0.3868 -0.1465  0.6930
  377MOL0     H50847   6.266   4.433   6.421 -0.7004 -1.5511  1.5242
  377MOL0     H50848   6.405   4.368   6.506  1.4148 -1.6197 -1.2808
  377MOL0     H50849   6.406   4.538   6.252 -3.4530 -1.2360  0.3893
  377MOL0     H50850   6.408   4.611   6.410  0.4759 -0.5624  0.1718
  377MOL0     H50851   6.632   4.621   6.337  0.1604  0.6430 -0.5587
  377MOL0     H50852   6.619   4.454   6.260 -3.4793 -0.0375 -1.0449
  377MOL0     H50853   6.777   4.461   6.461  0.0369 -0.7753  1.7608
  377MOL0     H50854   6.638   4.357   6.496  0.7116  0.2669  2.1565
  377MOL0     H50855   6.613   4.732   6.760 -0.9900 -1.2734 -0.7481
  377MOL0     H50856   6.766   4.757   6.947  1.2524  0.2915 -0.1024
  377MOL0     H50857   7.236   4.610   7.089  1.2805  2.4986  2.9210
  377MOL0     H50858   7.360   4.616   7.303 -0.7987  1.1556 -1.0947
  377MOL0     H50859   7.492   4.546   7.499  1.8684  3.3840  1.1312
  377MOL0     H50860   7.375   4.648   7.582  1.0183 -0.3562 -0.5552
  377MOL0     H50861   7.499   4.393   7.693 -1.2050 -0.7845  0.7368
  377MOL0     H50862   7.548   4.551   7.741  0.9983 -0.5202 -2.0062
  377MOL0     H50863   7.311   4.605   7.814 -0.7232 -0.3313  0.9853
  377MOL0     H50864   7.275   4.433   7.809 -0.0930 -0.0827  3.0622
  377MOL0     H50865   7.342   4.504   8.034 -2.4529 -1.3133 -2.1107
  377MOL0     H50866   7.487   4.572   7.980  0.5565 -1.2036  1.4922
  377MOL0     H50867   7.577   4.356   7.889 -1.0044  0.7792 -1.7427
  377MOL0     H50868   7.429   4.285   7.948  1.2044  0.5702 -2.8796
  377MOL0     H50869   7.658   4.444   8.103  1.9221 -0.5136  0.3375
  377MOL0     H50870   7.516   4.389   8.183  1.4772 -1.3309 -0.4665
  377MOL0     H50871   7.727   4.228   8.054 -2.4355 -0.2545 -2.9061
  377MOL0     H50872   7.567   4.151   8.089  1.1879  0.0405 -4.7462
  377MOL0     H50873   7.777   4.242   8.295 -0.2935  0.7777  1.0020
  377MOL0     H50874   7.616   4.212   8.346 -0.3807 -1.1438 -0.3792
  377MOL0     H50875   7.140   4.275   7.449  3.1612 -1.7227 -0.2823
  377MOL0     H50876   7.005   4.292   7.235 -0.0456  1.6225 -0.8535
  377MOL0     H50877   6.954   4.375   6.833 -1.3576 -1.7695  1.3129
  377MOL0     H50878   6.816   4.371   6.647  0.0820  0.2036 -0.2779
  377MOL0     H50879   5.385   4.202   5.764 -0.3380  0.9872 -0.0614
  377MOL0     H50880   5.145   4.223   5.761  1.1807  1.2099  0.4000
  377MOL0     H50881   4.743   4.093   5.527  0.0136 -0.0922  0.5594
  377MOL0     H50882   4.490   4.093   5.498  1.0883  0.1354 -1.0293
  377MOL0     H50883   4.299   4.482   5.562 -0.7214  1.4302  2.6785
  377MOL0     H50884   4.242   4.406   5.709 -4.5734 -1.0611 -0.4100
  377MOL0     H50885   4.076   4.273   5.591 -1.3568 -0.0654 -2.3176
  377MOL0     H50886   4.102   4.363   5.446 -2.9020  0.7548  0.0649
  377MOL0     H50887   4.054   4.582   5.557 -1.2705  1.0584  1.5449
  377MOL0     H50888   4.035   4.501   5.711  0.3906 -0.5731  0.2361
  377MOL0     H50889   3.850   4.371   5.634  1.7786 -0.3615 -0.0103
  377MOL0     H50890   3.811   4.539   5.615  0.2401  1.3606 -0.7451
  377MOL0     H50891   3.794   4.409   5.212 -2.6149  1.9757  1.3046
  377MOL0     H50892   4.485   4.484   5.665  1.7391  0.1226  2.4697
  377MOL0     H50893   4.826   4.551   5.658 -1.0682 -0.9900 -1.5325
  377MOL0     H50894   4.658   4.591   5.703 -0.3320 -0.0797 -0.7998
  377MOL0     H50895   4.759   4.525   5.827 -1.5629  1.1899 -0.1951
  378MOL0     O50896   5.799   5.118   7.280  0.0676  0.0451 -0.3377
  378MOL0     C50897   5.715   5.032   7.287 -0.0334  0.0637 -0.0452
  378MOL0     O50898   5.735   4.913   7.348  1.0481 -0.0846  0.4620
  378MOL0     C50899   5.860   4.882   7.394 -0.3193  0.3739 -0.0200
  378MOL0     C50900   5.888   4.907   7.530 -0.5496 -0.1778  0.9614
  378MOL0     C50901   6.014   4.867   7.581 -0.8759 -0.6866 -0.1305
  378MOL0     C50902   6.114   4.810   7.495  0.6038 -0.3229 -0.4528
  378MOL0     O50903   6.224   4.774   7.559 -0.5572 -0.0628  0.5816
  378MOL0     C50904   6.255   4.635   7.566 -0.0095  0.3793  0.7759
  378MOL0     C50905   6.378   4.608   7.482 -0.1095 -0.4321 -0.0648
  378MOL0     C50906   6.501   4.692   7.530 -0.2321  0.1033  0.1578
  378MOL0     C50907   6.632   4.632   7.467  0.8173 -0.8292 -0.2421
  378MOL0     C50908   6.751   4.711   7.494 -0.5554 -0.1466 -0.0608
  378MOL0     C50909   6.875   4.612   7.479  0.6803 -0.7971  0.4518
  378MOL0     C50910   7.001   4.682   7.531  0.2471  0.7488 -0.5663
  378MOL0     C50911   7.060   4.634   7.657  0.0543  0.0958 -0.4377
  378MOL0     N50912   6.969   4.673   7.772 -0.2301  0.1134  0.2381
  378MOL0     C50913   6.959   4.800   7.830  0.6672 -0.2353 -0.0005
  378MOL0     C50914   6.842   4.795   7.904 -0.7334  0.2785 -0.2324
  378MOL0     C50915   6.785   4.899   7.995 -0.0944  0.2809  0.0931
  378MOL0     C50916   6.630   4.903   7.992  0.3796 -0.5224 -0.4486
  378MOL0     C50917   6.574   4.796   8.080 -0.4422 -0.2357  0.0206
  378MOL0     C50918   6.429   4.770   8.046  0.3922 -0.4722 -0.5246
  378MOL0     O50919   6.347   4.858   8.127  0.0526 -0.3403  0.6943
  378MOL0     C50920   6.215   4.865   8.088  0.6759  0.1679  0.0240
  378MOL0     C50921   6.138   4.959   8.158  0.1401 -0.2290  0.4098
  378MOL0     C50922   5.995   4.975   8.130  0.3144  0.4068  0.1528
  378MOL0     C50923   5.929   4.890   8.039  0.3400  0.6577  0.3748
  378MOL0     C50924   5.785   4.902   8.007 -0.0514 -0.6434  0.1403
  378MOL0     O50925   5.719   4.830   7.915 -0.6625 -0.1079  1.0389
  378MOL0     C50926   5.592   4.877   7.893 -0.3056  0.2865 -0.2551
  378MOL0     C50927   5.485   4.821   7.962 -0.6429  0.2232 -0.1189
  378MOL0     C50928   5.360   4.875   7.956 -0.2236 -0.7992 -0.7251
  378MOL0     C50929   5.329   4.985   7.874  1.1067  0.7375 -0.5045
  378MOL0     O50930   5.199   5.031   7.881  0.1023 -0.5733 -0.3672
  378MOL0     C50931   5.161   5.132   7.789 -0.0400 -0.0640 -0.0095
  378MOL0     C50932   5.012   5.156   7.785  0.4789  0.5278  0.2480
  378MOL0     C50933   4.936   5.066   7.688  0.5933 -0.0415 -0.5314
  378MOL0     C50934   4.787   5.091   7.709 -0.5038 -0.2238  0.2124
  378MOL0     C50935   4.700   4.981   7.649 -0.4241  1.3093 -0.1663
  378MOL0     C50936   4.559   5.014   7.623  0.8805  0.6235 -0.0582
  378MOL0     C50937   4.493   4.926   7.518 -0.3212 -0.8494  0.6021
  378MOL0     C50938   4.359   4.977   7.473  0.0864 -0.6711 -0.1115
  378MOL0    Cl50939   4.287   4.873   7.344 -0.2611  0.2734  0.1336
  378MOL0     C50940   5.435   5.036   7.793 -0.0887  0.7222 -0.3896
  378MOL0     C50941   5.567   4.984   7.804  0.6713  0.3053  0.0765
  378MOL0     O50942   5.738   4.997   8.072  0.1946 -0.0662 -0.5745
  378MOL0     C50943   6.013   4.790   7.971 -0.3359 -0.8287 -0.4534
  378MOL0     C50944   6.146   4.772   7.999 -0.2301 -0.2950  0.7434
  378MOL0     N50945   6.788   4.665   7.877 -0.0272 -0.0427 -0.5859
  378MOL0     N50946   6.865   4.594   7.805 -0.7338 -0.1401 -0.5341
  378MOL0     C50947   6.082   4.781   7.358 -0.2058 -0.8784  0.1574
  378MOL0     C50948   5.954   4.819   7.312 -0.4614  0.6713 -0.4991
  378MOL0     C50949   5.569   5.064   7.268  0.2811 -0.2605  0.2829
  378MOL0     C50950   5.477   4.990   7.347 -0.4781 -0.6306  0.7372
  378MOL0     C50951   5.339   5.026   7.355 -0.8656 -0.6726  0.5587
  378MOL0     C50952   5.297   5.146   7.286 -0.7175  0.4472 -0.7971
  378MOL0     O50953   5.168   5.173   7.304 -0.0415 -0.0757  0.2299
  378MOL0     C50954   5.100   5.271   7.226  0.0564 -0.5346  0.6859
  378MOL0     C50955   4.951   5.291   7.267 -0.2619  0.0614  0.0683
  378MOL0     C50956   4.861   5.176   7.217 -0.8040 -0.6162 -0.0433
  378MOL0     C50957   4.714   5.225   7.188  0.6510 -0.3601  0.5028
  378MOL0     C50958   4.639   5.267   7.307  0.3141  0.0128  0.5424
  378MOL0     C50959   4.573   5.316   7.397 -0.1707  1.0412  0.4228
  378MOL0     C50960   5.392   5.213   7.201  0.2299 -0.3483 -0.1496
  378MOL0     C50961   5.530   5.178   7.194  1.2466  1.1846  0.6325
  378MOL0     C50962   5.609   5.286   7.120 -0.7752  0.1697  0.4870
  378MOL0     H50963   5.825   4.970   7.592  2.7947  1.7259  2.7142
  378MOL0     H50964   6.041   4.892   7.683 -1.5732  0.7927 -0.2853
  378MOL0     H50965   6.267   4.604   7.670 -0.4514 -5.0595 -0.4824
  378MOL0     H50966   6.167   4.580   7.531 -0.9980  1.9325  0.7401
  378MOL0     H50967   6.360   4.628   7.376  1.1545  1.6437  0.0635
  378MOL0     H50968   6.392   4.500   7.485 -1.0338 -0.9292 -5.0730
  378MOL0     H50969   6.506   4.676   7.639 -1.1333 -1.8929 -0.0336
  378MOL0     H50970   6.494   4.798   7.507  1.2855  0.7969  2.5884
  378MOL0     H50971   6.642   4.535   7.517  0.2995 -2.1505 -2.5591
  378MOL0     H50972   6.629   4.609   7.360  0.3284  2.4689 -1.0172
  378MOL0     H50973   6.760   4.805   7.439  3.2073 -0.6279 -0.4947
  378MOL0     H50974   6.743   4.753   7.595  1.1319  4.2631 -1.5362
  378MOL0     H50975   6.855   4.517   7.530 -2.3172 -0.8394 -0.5628
  378MOL0     H50976   6.885   4.590   7.372 -1.0209  0.7029 -0.0759
  378MOL0     H50977   6.978   4.788   7.544  1.6940  1.1307 -0.9983
  378MOL0     H50978   7.076   4.661   7.455  0.8634  0.0133  0.2220
  378MOL0     H50979   7.080   4.527   7.652  3.5865  0.3112  3.2610
  378MOL0     H50980   7.157   4.685   7.660  1.0646 -1.7009 -0.8673
  378MOL0     H50981   7.029   4.883   7.825  2.4265 -1.6344  0.5714
  378MOL0     H50982   6.814   4.873   8.098 -2.3411 -0.3058  0.6377
  378MOL0     H50983   6.827   4.995   7.963 -0.9119  0.4285 -0.5704
  378MOL0     H50984   6.603   5.001   8.033  1.7890 -0.8174  1.3274
  378MOL0     H50985   6.594   4.894   7.889 -1.6454  0.2880  0.1432
  378MOL0     H50986   6.588   4.832   8.182 -1.3978  1.8559 -0.5437
  378MOL0     H50987   6.625   4.701   8.059  3.3186  1.4145  0.7879
  378MOL0     H50988   6.401   4.665   8.060 -1.6296  0.2565  1.5217
  378MOL0     H50989   6.408   4.793   7.941 -1.6175  2.0719  0.3509
  378MOL0     H50990   6.178   5.024   8.234  1.5592  1.8220 -1.9308
  378MOL0     H50991   5.929   5.049   8.174 -1.9973  0.9561 -3.7747
  378MOL0     H50992   5.495   4.731   8.022  1.9993 -0.1978 -1.0372
  378MOL0     H50993   5.280   4.830   8.014  0.7266 -1.1762  0.3441
  378MOL0     H50994   5.209   5.228   7.809 -0.5385 -0.3279  3.0769
  378MOL0     H50995   5.187   5.091   7.691  1.5139  2.7238 -0.8804
  378MOL0     H50996   4.981   5.145   7.889  2.8878 -3.5588  0.7320
  378MOL0     H50997   4.989   5.256   7.748 -0.9208 -0.6782 -2.4843
  378MOL0     H50998   4.970   5.097   7.589 -0.9525 -0.1709 -1.1429
  378MOL0     H50999   4.966   4.963   7.709  2.0132  0.1560 -1.4685
  378MOL0     H51000   4.777   5.182   7.648  1.6353  0.2232  0.4398
  378MOL0     H51001   4.755   5.108   7.813 -0.3507  1.5457 -0.0001
  378MOL0     H51002   4.713   4.893   7.713  0.8562  0.9737 -0.8453
  378MOL0     H51003   4.749   4.957   7.554 -2.4733 -0.4017 -0.8620
  378MOL0     H51004   4.507   4.996   7.718  0.1986  0.1939 -0.5042
  378MOL0     H51005   4.532   5.115   7.591 -1.5721  0.0735  0.1370
  378MOL0     H51006   4.491   4.828   7.565 -0.3788  0.4436  3.4980
  378MOL0     H51007   4.557   4.918   7.429 -2.7434  1.1652 -1.4955
  378MOL0     H51008   4.284   4.985   7.553 -1.0152 -1.1690 -1.0732
  378MOL0     H51009   4.381   5.079   7.438  0.0809 -0.0318  1.6252
  378MOL0     H51010   5.418   5.125   7.733  0.4357  0.9995 -0.1394
  378MOL0     H51011   5.646   5.025   7.742 -0.7957 -0.3079 -2.3412
  378MOL0     H51012   5.954   4.735   7.898 -0.0736  0.2564 -1.5299
  378MOL0     H51013   6.205   4.697   7.947  0.4654  0.4809  0.3919
  378MOL0     H51014   6.163   4.752   7.292  0.6663 -1.7838  1.5977
  378MOL0     H51015   5.921   4.795   7.211  2.0328  0.9731 -1.4576
  378MOL0     H51016   5.506   4.904   7.406  0.7577 -1.5119 -1.0702
  378MOL0     H51017   5.263   4.976   7.414 -0.7850  0.8918  2.0713
  378MOL0     H51018   5.107   5.238   7.122  2.2955 -0.4990  0.7865
  378MOL0     H51019   5.144   5.371   7.237 -0.3133 -0.2375 -0.3952
  378MOL0     H51020   4.914   5.388   7.233 -1.3323 -0.5102 -0.4364
  378MOL0     H51021   4.946   5.301   7.375  0.9085 -3.2058  0.5199
  378MOL0     H51022   4.861   5.093   7.288  1.7138 -0.8917 -0.2671
  378MOL0     H51023   4.903   5.142   7.122  2.6449  0.3055  1.0185
  378MOL0     H51024   4.704   5.300   7.109 -0.1799  1.2643  2.0769
  378MOL0     H51025   4.657   5.137   7.157  2.0494 -1.6820  1.5304
  378MOL0     H51026   4.518   5.341   7.486  1.6660 -0.0853  1.9492
  378MOL0     H51027   5.361   5.302   7.146  3.3127  0.9470 -0.0143
  378MOL0     H51028   5.557   5.331   7.035 -0.6528  0.2233  0.4413
  378MOL0     H51029   5.638   5.363   7.192 -0.5582  0.2584  0.3022
  378MOL0     H51030   5.702   5.249   7.076  0.5986  3.1859  0.5926
  379MOL0     O51031   9.531   6.155   6.427  0.5671 -1.3963 -0.2899
  379MOL0     C51032   9.515   6.036   6.426  0.3669 -0.1778  0.2046
  379MOL0     O51033   9.558   5.944   6.523 -0.2485 -0.3803  0.0246
  379MOL0     C51034   9.637   5.985   6.626  0.6692  0.5473  0.2734
  379MOL0     C51035   9.618   5.932   6.754 -0.2392  0.2677 -0.2530
  379MOL0     C51036   9.700   5.975   6.865  0.3878  0.3214 -0.2978
  379MOL0     C51037   9.809   6.059   6.857  0.9717 -0.2951  0.2777
  379MOL0     O51038   9.871   6.092   6.978  0.1177  0.1356 -0.1592
  379MOL0     C51039   9.990   6.158   6.973 -0.0573 -0.4652  0.0819
  379MOL0     C51040  10.021   6.207   7.115  0.3410 -0.0813  0.0630
  379MOL0     C51041  10.167   6.235   7.121 -0.2582  0.2986 -0.3304
  379MOL0     C51042  10.212   6.237   7.267 -0.4398 -1.0479 -0.1582
  379MOL0     C51043  10.351   6.311   7.273 -0.4751 -0.3011  0.4325
  379MOL0     C51044  10.396   6.344   7.411 -0.6796  1.1065 -0.1942
  379MOL0     C51045  10.536   6.399   7.427 -0.1982 -0.4392  0.1366
  379MOL0     C51046  10.579   6.414   7.578  1.1167 -0.1023  0.8402
  379MOL0     N51047  10.548   6.294   7.662  0.1771 -0.5191  0.6208
  379MOL0     C51048  10.605   6.167   7.650 -0.6314  0.1059  0.5801
  379MOL0     C51049  10.528   6.077   7.721  0.9962 -1.0148 -0.0435
  379MOL0     C51050  10.548   5.927   7.728 -0.7159  0.0639  0.4911
  379MOL0     C51051  10.657   5.879   7.822 -0.1899  0.3075  0.4640
  379MOL0     C51052  10.715   5.988   7.914  0.6040  0.1945  0.1587
  379MOL0     C51053  10.803   5.926   8.015 -0.0352 -0.2478  0.2819
  379MOL0     O51054  10.843   6.030   8.105  0.3055 -0.2569 -0.3141
  379MOL0     C51055  10.941   6.010   8.206  0.1229  0.8549 -0.4003
  379MOL0     C51056  11.012   5.892   8.211 -0.2772 -0.3139 -0.5328
  379MOL0     C51057  11.101   5.888   8.318 -0.6135 -0.7815 -0.8444
  379MOL0     C51058  11.113   5.990   8.420  0.1950 -0.2958 -0.0603
  379MOL0     C51059  11.220   5.979   8.526 -0.9413 -0.7689 -0.4883
  379MOL0     O51060  11.334   5.908   8.505 -0.0486  0.2657  0.1329
  379MOL0     C51061  11.433   5.912   8.606 -0.1708 -0.0189 -0.0879
  379MOL0     C51062  11.531   6.010   8.616 -0.2902  0.2260  0.3157
  379MOL0     C51063  11.641   5.998   8.701 -0.4470  0.0687  0.0219
  379MOL0     C51064  11.642   5.900   8.794 -0.3337  0.0934  0.7855
  379MOL0     O51065  11.746   5.875   8.882 -1.1309 -0.3719 -0.1985
  379MOL0     C51066  11.875   5.947   8.878  0.6345 -0.0047 -0.0040
  379MOL0     C51067  11.952   5.887   9.002  0.0052  0.5397  0.1350
  379MOL0     C51068  12.094   5.955   9.015  0.0947  0.5806  0.0965
  379MOL0     C51069  12.185   5.886   9.123  0.7794  0.6560 -0.1134
  379MOL0     C51070  12.322   5.955   9.139  0.3125 -0.7518 -0.0725
  379MOL0     C51071  12.410   5.908   9.251  0.5849  0.3810 -0.6341
  379MOL0     C51072  12.560   5.931   9.234 -0.0342 -0.0566  0.3725
  379MOL0     C51073  12.620   6.051   9.304  0.2932  0.0056 -0.2226
  379MOL0    Cl51074  12.573   6.198   9.216  0.0801 -0.2601  0.0402
  379MOL0     C51075  11.535   5.807   8.800 -0.4259  0.0027 -0.2467
  379MOL0     C51076  11.427   5.817   8.705  0.5805 -0.3905  0.4585
  379MOL0     O51077  11.197   6.035   8.633 -0.1569 -0.1053 -0.1327
  379MOL0     C51078  11.033   6.100   8.410  0.1383 -0.1680  0.0036
  379MOL0     C51079  10.948   6.113   8.306 -0.6191  0.3220  0.1645
  379MOL0     N51080  10.422   6.154   7.773  0.1396  0.6050 -0.7151
  379MOL0     N51081  10.434   6.273   7.728 -0.0011 -1.1981 -0.3208
  379MOL0     C51082   9.827   6.115   6.723 -0.4833  0.3256  0.5818
  379MOL0     C51083   9.748   6.074   6.611  0.1798 -0.4528 -0.4876
  379MOL0     C51084   9.432   5.985   6.316  0.4129  0.3951 -0.1612
  379MOL0     C51085   9.366   5.864   6.347 -0.2639 -0.1662  1.1464
  379MOL0     C51086   9.281   5.808   6.250 -0.0801  0.2011 -0.2829
  379MOL0     C51087   9.258   5.866   6.131  0.2967 -0.5181  0.2204
  379MOL0     O51088   9.165   5.799   6.048  0.1350 -0.0766  0.6874
  379MOL0     C51089   9.170   5.830   5.915  0.0133  0.1332  0.3305
  379MOL0     C51090   9.074   5.751   5.837  0.3383 -0.8524  0.9879
  379MOL0     C51091   9.127   5.604   5.821  0.0514 -0.1431 -0.0544
  379MOL0     C51092   9.059   5.531   5.703  0.4628 -0.1005  0.0283
  379MOL0     C51093   8.913   5.516   5.726 -0.7722  0.3761  0.3175
  379MOL0     C51094   8.797   5.503   5.735  0.1331  0.4543  0.7868
  379MOL0     C51095   9.328   5.987   6.097 -0.9794  1.2865 -0.4731
  379MOL0     C51096   9.422   6.045   6.186  0.3375 -0.1304 -0.2814
  379MOL0     C51097   9.491   6.169   6.120  0.0606  0.2058 -0.1089
  379MOL0     H51098   9.534   5.870   6.784  0.8140 -0.1420  2.0472
  379MOL0     H51099   9.676   5.935   6.963  0.0772  0.9117 -0.1337
  379MOL0     H51100  10.070   6.099   6.927  0.5015 -1.0720  1.7599
  379MOL0     H51101   9.976   6.250   6.916  0.5557 -1.2644 -1.4015
  379MOL0     H51102   9.981   6.138   7.190 -2.7310  0.5098 -0.8671
  379MOL0     H51103   9.978   6.305   7.134 -1.0583  0.0934 -3.2670
  379MOL0     H51104  10.184   6.329   7.067  1.0247  0.6056  0.5541
  379MOL0     H51105  10.220   6.151   7.075  1.7377 -0.8444  3.6121
  379MOL0     H51106  10.145   6.292   7.334 -0.2237 -1.5488  0.4731
  379MOL0     H51107  10.218   6.136   7.307 -0.1916 -0.6530  0.8088
  379MOL0     H51108  10.420   6.240   7.227 -0.4890 -0.5320  0.7654
  379MOL0     H51109  10.341   6.402   7.212 -2.3095  1.2091  2.7898
  379MOL0     H51110  10.328   6.413   7.462 -4.0876 -1.5575 -0.7298
  379MOL0     H51111  10.401   6.247   7.460 -1.2899  1.4483  0.5610
  379MOL0     H51112  10.535   6.494   7.373 -0.0772  0.1256  1.1083
  379MOL0     H51113  10.602   6.328   7.376 -0.2991 -0.4132 -0.0308
  379MOL0     H51114  10.686   6.440   7.580  1.2150 -0.4867  2.9258
  379MOL0     H51115  10.522   6.500   7.613 -0.5360 -1.1974  0.9209
  379MOL0     H51116  10.692   6.150   7.587 -2.5537 -0.9722 -1.9497
  379MOL0     H51117  10.454   5.881   7.760 -0.8691  1.6304  2.4793
  379MOL0     H51118  10.577   5.892   7.629 -0.4205  0.5060  0.4152
  379MOL0     H51119  10.615   5.795   7.878  0.2312  1.1804  2.1640
  379MOL0     H51120  10.750   5.840   7.780  1.0766  0.2342  3.0872
  379MOL0     H51121  10.635   6.044   7.964  2.6090  3.4455  0.0621
  379MOL0     H51122  10.768   6.064   7.856 -1.2534  3.1800  2.0944
  379MOL0     H51123  10.893   5.887   7.967 -0.5095  0.3473 -1.1420
  379MOL0     H51124  10.743   5.845   8.058 -1.1281  0.6432  0.4946
  379MOL0     H51125  11.005   5.808   8.142 -1.1856 -2.5155  2.0534
  379MOL0     H51126  11.162   5.798   8.321 -1.0807 -1.0881  0.1567
  379MOL0     H51127  11.539   6.094   8.548  3.4075 -0.2034  0.0377
  379MOL0     H51128  11.724   6.068   8.693 -0.6222  0.3532  0.6085
  379MOL0     H51129  11.928   5.924   8.785 -1.1966  3.9728 -2.2543
  379MOL0     H51130  11.870   6.056   8.885 -0.0675 -0.0039 -0.4022
  379MOL0     H51131  11.902   5.891   9.099  0.8102  0.1160  0.5817
  379MOL0     H51132  11.954   5.781   8.974 -0.6470  0.7831 -0.8590
  379MOL0     H51133  12.148   5.937   8.921  1.2838  0.3178  0.8126
  379MOL0     H51134  12.073   6.063   9.022 -3.8089  0.2275 -2.5624
  379MOL0     H51135  12.204   5.786   9.084  0.2509  1.1948 -1.8471
  379MOL0     H51136  12.126   5.863   9.213  1.4204 -0.5005  0.0292
  379MOL0     H51137  12.309   6.063   9.156  0.4928 -0.5090 -1.3831
  379MOL0     H51138  12.374   5.949   9.044 -0.7004  1.3522 -0.8366
  379MOL0     H51139  12.383   5.967   9.339  1.5485 -1.3574  0.8838
  379MOL0     H51140  12.387   5.802   9.259 -0.9972  0.6754 -0.9409
  379MOL0     H51141  12.586   5.927   9.127  4.1163  0.1085  1.1929
  379MOL0     H51142  12.601   5.841   9.282  0.1751  0.2211  0.7178
  379MOL0     H51143  12.577   6.060   9.405 -1.5473 -0.2315 -0.9463
  379MOL0     H51144  12.728   6.041   9.318  0.2565  1.0828  0.9811
  379MOL0     H51145  11.534   5.731   8.877 -0.5141  2.8224  2.8007
  379MOL0     H51146  11.346   5.745   8.710 -0.2890  0.6223  2.0877
  379MOL0     H51147  11.025   6.176   8.487 -2.9437 -0.6567  0.3155
  379MOL0     H51148  10.879   6.196   8.303  0.6374  1.5576  2.6044
  379MOL0     H51149   9.915   6.179   6.716 -0.2490  0.1068  1.4932
  379MOL0     H51150   9.756   6.113   6.510  0.3435  0.5144 -0.1027
  379MOL0     H51151   9.380   5.821   6.446 -0.6655  2.8908  2.6494
  379MOL0     H51152   9.227   5.717   6.274  1.4424 -1.3571 -2.3897
  379MOL0     H51153   9.272   5.820   5.877  0.0756 -0.9452  0.7506
  379MOL0     H51154   9.149   5.933   5.886  0.8458 -0.2707 -1.8800
  379MOL0     H51155   9.047   5.800   5.744 -1.2218 -0.3931  1.6435
  379MOL0     H51156   8.981   5.749   5.896  0.8846  1.9048  2.1187
  379MOL0     H51157   9.106   5.552   5.915  0.5864 -0.8402 -0.3078
  379MOL0     H51158   9.236   5.601   5.808  0.0735 -0.2859  0.1680
  379MOL0     H51159   9.063   5.586   5.608 -1.5461 -1.2010 -0.7367
  379MOL0     H51160   9.111   5.437   5.682 -0.7507 -0.6134 -0.7717
  379MOL0     H51161   8.693   5.508   5.711  0.7716  0.6132 -2.5695
  379MOL0     H51162   9.301   6.029   6.000 -2.4329 -1.2217 -1.2366
  379MOL0     H51163   9.514   6.141   6.016  0.3249  3.7651 -1.1393
  379MOL0     H51164   9.425   6.256   6.125  1.0174  0.9227  0.2587
  379MOL0     H51165   9.585   6.195   6.168  0.0446  1.4474 -0.7141
  380MOL0     O51166   5.451   4.277   9.137 -0.0021  0.0936 -0.3238
  380MOL0     C51167   5.360   4.309   9.062  0.2527  0.2909 -0.1566
  380MOL0     O51168   5.364   4.397   8.958 -0.0474 -0.0180  0.3038
  380MOL0     C51169   5.487   4.418   8.909 -0.6656  0.1541  0.2877
  380MOL0     C51170   5.560   4.316   8.852  0.1267  0.4949  1.1878
  380MOL0     C51171   5.683   4.340   8.795  0.3788 -0.1828 -0.2960
  380MOL0     C51172   5.738   4.474   8.790 -0.2394 -0.4672 -0.2536
  380MOL0     O51173   5.861   4.513   8.733 -0.3106  0.1743  0.6586
  380MOL0     C51174   5.947   4.399   8.696 -0.4974 -0.3742 -0.2592
  380MOL0     C51175   6.090   4.449   8.655  0.3380 -0.9899 -0.1511
  380MOL0     C51176   6.184   4.471   8.770 -0.1675  0.8622 -0.1709
  380MOL0     C51177   6.318   4.529   8.727 -0.2960 -0.3986 -0.0789
  380MOL0     C51178   6.409   4.547   8.852  0.4555  0.2938 -0.0279
  380MOL0     C51179   6.522   4.644   8.827 -0.0436 -0.4334 -0.1081
  380MOL0     C51180   6.596   4.695   8.958  0.8169 -0.1598  0.5746
  380MOL0     C51181   6.706   4.594   8.995 -0.0323 -0.0510 -0.6461
  380MOL0     N51182   6.821   4.622   8.916 -0.2699  0.3887  0.3939
  380MOL0     C51183   6.917   4.726   8.934  0.3985  0.2823  0.8208
  380MOL0     C51184   7.005   4.712   8.832  0.5030  0.0191  0.0693
  380MOL0     C51185   7.123   4.810   8.810 -0.3378 -0.5487 -0.0238
  380MOL0     C51186   7.132   4.891   8.682 -0.4425  0.2794 -0.0581
  380MOL0     C51187   7.232   5.017   8.685 -0.5326  0.0082 -0.6674
  380MOL0     C51188   7.360   5.005   8.769 -0.3313 -0.1455  0.5027
  380MOL0     O51189   7.420   4.887   8.702 -0.0432 -0.0700 -0.9401
  380MOL0     C51190   7.559   4.870   8.715 -0.1904 -0.4489 -0.6327
  380MOL0     C51191   7.640   4.877   8.601  0.7299 -0.1419  0.4769
  380MOL0     C51192   7.778   4.856   8.608  0.0261  0.3339  0.3074
  380MOL0     C51193   7.838   4.836   8.739  0.0336 -0.5023 -0.4453
  380MOL0     C51194   7.984   4.804   8.744 -0.4724 -0.8659  0.1851
  380MOL0     O51195   8.045   4.800   8.620  0.2731 -0.6846 -0.5687
  380MOL0     C51196   8.182   4.780   8.628 -0.4625 -0.9764  0.2418
  380MOL0     C51197   8.265   4.864   8.700 -0.4632  0.5511  0.1197
  380MOL0     C51198   8.411   4.851   8.686  0.7149 -0.3119 -0.2823
  380MOL0     C51199   8.472   4.756   8.597 -0.9069  0.1107 -0.0802
  380MOL0     O51200   8.608   4.748   8.588 -0.3141 -0.0090 -0.2102
  380MOL0     C51201   8.666   4.642   8.512  0.3371  0.7592  0.4802
  380MOL0     C51202   8.819   4.620   8.555  1.1917 -0.6849  1.0636
  380MOL0     C51203   8.910   4.738   8.525  0.0125 -0.1511 -0.2704
  380MOL0     C51204   9.057   4.690   8.540 -0.0585  0.6958  0.1936
  380MOL0     C51205   9.145   4.813   8.567  0.0766 -1.2976  0.6401
  380MOL0     C51206   9.136   4.907   8.450  0.3164 -0.4698 -0.8439
  380MOL0     C51207   9.250   5.004   8.463  0.5357  0.3547 -0.2133
  380MOL0     C51208   9.388   4.932   8.438  0.2058 -0.2654 -0.0056
  380MOL0    Cl51209   9.502   5.056   8.395 -0.2631  0.3434 -0.2054
  380MOL0     C51210   8.381   4.672   8.525 -1.0010  0.0333 -0.8664
  380MOL0     C51211   8.243   4.687   8.540  0.2306  0.4334 -0.5945
  380MOL0     O51212   8.040   4.769   8.849 -0.3255 -0.8887 -0.2364
  380MOL0     C51213   7.750   4.829   8.849 -0.0295 -0.0256 -0.6284
  380MOL0     C51214   7.614   4.849   8.839  0.3192 -0.5542 -0.1337
  380MOL0     N51215   6.957   4.612   8.753 -0.0391  0.9303  0.9484
  380MOL0     N51216   6.857   4.553   8.802 -0.3124  0.2133 -0.1491
  380MOL0     C51217   5.663   4.581   8.838 -0.5277 -0.0091 -1.0889
  380MOL0     C51218   5.540   4.547   8.895  0.5908  0.2417 -0.3775
  380MOL0     C51219   5.222   4.255   9.088  0.3526  0.6138  0.2253
  380MOL0     C51220   5.108   4.321   9.031 -0.8192 -0.4972 -0.3533
  380MOL0     C51221   4.978   4.277   9.053 -0.1817  0.4654 -1.0763
  380MOL0     C51222   4.957   4.155   9.123  0.3840  0.0925 -0.3043
  380MOL0     O51223   4.835   4.096   9.145  0.8608  0.1771 -0.0714
  380MOL0     C51224   4.729   4.115   9.050  0.7736  0.1101 -0.2754
  380MOL0     C51225   4.644   3.985   9.040 -0.6927  0.0616  0.3322
  380MOL0     C51226   4.601   3.950   9.182  0.1228  0.4640  0.2224
  380MOL0     C51227   4.489   3.853   9.193  0.4584 -0.2778 -0.2842
  380MOL0     C51228   4.362   3.914   9.151  0.3045  0.1016  1.2249
  380MOL0     C51229   4.270   3.973   9.097  0.0456 -0.0875 -0.0437
  380MOL0     C51230   5.067   4.086   9.175 -0.0357  0.5501  0.0912
  380MOL0     C51231   5.199   4.134   9.164  0.2376 -0.2857  0.7808
  380MOL0     C51232   5.303   4.049   9.225  0.5691  0.0199 -0.3141
  380MOL0     H51233   5.519   4.216   8.848  0.5837  0.2783 -4.0252
  380MOL0     H51234   5.733   4.257   8.745  1.8559  1.9042 -2.4582
  380MOL0     H51235   5.968   4.329   8.778  0.2654  0.3774  0.2020
  380MOL0     H51236   5.900   4.347   8.612 -3.3495  2.5123 -0.6521
  380MOL0     H51237   6.066   4.536   8.594  2.1193  0.1553  0.7269
  380MOL0     H51238   6.156   4.381   8.599  0.3716 -1.4912  0.4886
  380MOL0     H51239   6.198   4.377   8.825 -0.3795  2.5861  3.1007
  380MOL0     H51240   6.136   4.539   8.841  0.4951 -0.0946  1.2460
  380MOL0     H51241   6.365   4.470   8.647  0.1904 -1.6035  1.0606
  380MOL0     H51242   6.306   4.630   8.686  1.1225 -0.5677 -1.0180
  380MOL0     H51243   6.352   4.580   8.939  0.2349  1.3705 -0.5538
  380MOL0     H51244   6.465   4.454   8.867  2.8713  1.7238  0.4664
  380MOL0     H51245   6.597   4.588   8.770  1.2610  1.9893 -0.9167
  380MOL0     H51246   6.500   4.737   8.774  1.9070  2.0750  3.1424
  380MOL0     H51247   6.520   4.693   9.037 -1.1548  1.3071 -1.1766
  380MOL0     H51248   6.629   4.798   8.942 -2.4786  0.8313 -0.5993
  380MOL0     H51249   6.737   4.605   9.100 -0.0215 -2.1090 -0.3752
  380MOL0     H51250   6.674   4.489   8.984  1.1368 -0.7085  1.5514
  380MOL0     H51251   6.923   4.799   9.015 -1.7608  0.1498  1.1549
  380MOL0     H51252   7.118   4.878   8.895  1.5826 -0.8945  0.3919
  380MOL0     H51253   7.214   4.751   8.803  1.9897  2.6910  0.6647
  380MOL0     H51254   7.158   4.830   8.594  2.5704 -1.8544  2.1200
  380MOL0     H51255   7.031   4.926   8.659 -0.6972  0.1769  0.8908
  380MOL0     H51256   7.174   5.096   8.733  0.3463  0.2541  0.0389
  380MOL0     H51257   7.248   5.063   8.587  2.2328 -2.1798 -1.3946
  380MOL0     H51258   7.334   4.992   8.875 -0.5071  1.1710  0.6332
  380MOL0     H51259   7.422   5.094   8.765  1.5710 -1.3939  1.1282
  380MOL0     H51260   7.594   4.917   8.511  0.4518 -0.2815  0.5566
  380MOL0     H51261   7.843   4.868   8.522  0.0083  0.2850  0.2863
  380MOL0     H51262   8.220   4.935   8.769 -0.5130 -0.5350  1.2379
  380MOL0     H51263   8.470   4.907   8.758  2.6610 -0.5555 -1.5978
  380MOL0     H51264   8.613   4.547   8.524  0.5968  0.1344 -2.4498
  380MOL0     H51265   8.664   4.678   8.409 -3.3767  1.5108  0.6855
  380MOL0     H51266   8.823   4.594   8.662 -0.5986  1.0933  1.6286
  380MOL0     H51267   8.845   4.538   8.488  0.4710 -0.8218  0.9374
  380MOL0     H51268   8.898   4.771   8.422  1.7363  1.6877  0.0507
  380MOL0     H51269   8.878   4.826   8.583 -0.9150 -0.7049  0.0849
  380MOL0     H51270   9.082   4.629   8.453 -1.6016 -0.0124  0.2166
  380MOL0     H51271   9.067   4.626   8.628 -0.0970  0.3269 -0.0675
  380MOL0     H51272   9.248   4.784   8.585  0.3257 -0.7701  0.1138
  380MOL0     H51273   9.112   4.862   8.658  0.9839  1.0405 -0.2170
  380MOL0     H51274   9.132   4.852   8.355 -1.4687 -1.2803 -0.3536
  380MOL0     H51275   9.039   4.958   8.453 -0.3882 -1.8142  0.1469
  380MOL0     H51276   9.245   5.036   8.568 -0.2440 -1.5954  0.3845
  380MOL0     H51277   9.236   5.085   8.391  0.3559 -1.1263 -1.8937
  380MOL0     H51278   9.424   4.876   8.524 -0.0404 -1.3836 -0.6149
  380MOL0     H51279   9.384   4.859   8.357  0.4076 -0.9152  0.5578
  380MOL0     H51280   8.414   4.600   8.451 -1.0473 -0.7678 -0.1312
  380MOL0     H51281   8.179   4.628   8.476  0.4060 -3.6486  2.6234
  380MOL0     H51282   7.799   4.780   8.932  2.4025  0.6238 -1.5919
  380MOL0     H51283   7.547   4.824   8.920  0.1011 -1.3842 -0.5530
  380MOL0     H51284   5.688   4.687   8.834 -1.6376  0.3016 -0.1484
  380MOL0     H51285   5.480   4.631   8.930 -2.1058 -1.7364  0.0559
  380MOL0     H51286   5.122   4.416   8.981  1.2249 -0.6485 -0.1459
  380MOL0     H51287   4.895   4.338   9.017 -1.0142  1.0420  1.5920
  380MOL0     H51288   4.767   4.152   8.954 -0.1286  1.6013 -0.0800
  380MOL0     H51289   4.674   4.203   9.084  1.2198  0.6960 -1.0266
  380MOL0     H51290   4.712   3.911   8.998 -1.3291  0.0068 -0.6308
  380MOL0     H51291   4.565   4.002   8.967  0.3909  1.7554 -0.5325
  380MOL0     H51292   4.568   4.043   9.229 -0.1670  1.7952 -2.3955
  380MOL0     H51293   4.686   3.908   9.236  0.7807 -0.7094 -1.6271
  380MOL0     H51294   4.504   3.769   9.124  1.7710 -1.0939  0.9392
  380MOL0     H51295   4.498   3.807   9.291  0.7674 -0.0499 -0.2051
  380MOL0     H51296   4.189   4.019   9.043  0.1114  0.5657  0.3983
  380MOL0     H51297   5.043   3.993   9.225 -0.2667 -1.0398 -2.8152
  380MOL0     H51298   5.334   4.083   9.325 -0.8760 -1.5369  0.7024
  380MOL0     H51299   5.262   3.951   9.247 -1.8301  0.7632 -1.2205
  380MOL0     H51300   5.392   4.032   9.164  0.6264  0.9963 -0.5301
  381MOL0     O51301   6.637  10.793   1.003  0.3258  0.4640  0.3663
  381MOL0     C51302   6.658  10.849   1.108 -0.1409 -0.0230 -0.3326
  381MOL0     O51303   6.772  10.840   1.189 -0.5720  0.2155  0.3165
  381MOL0     C51304   6.887  10.774   1.155 -0.0644  0.0564  0.1524
  381MOL0     C51305   6.960  10.729   1.267  1.4416 -0.7789 -0.1738
  381MOL0     C51306   7.073  10.652   1.244  0.6546  1.3498 -0.9420
  381MOL0     C51307   7.111  10.615   1.119 -0.1110  0.6514  0.3409
  381MOL0     O51308   7.222  10.533   1.106  0.2048 -0.2299 -0.0827
  381MOL0     C51309   7.234  10.440   1.002 -0.3621 -0.0036 -0.4950
  381MOL0     C51310   7.121  10.339   0.988  0.3115  0.4978 -0.5321
  381MOL0     C51311   7.133  10.202   1.049  0.4656  0.1540 -0.8439
  381MOL0     C51312   7.095  10.216   1.195 -0.4609 -0.0499  0.0287
  381MOL0     C51313   7.101  10.081   1.261 -1.0027 -0.2091  0.4378
  381MOL0     C51314   6.959  10.028   1.269  0.2644 -0.0210 -0.1849
  381MOL0     C51315   6.954   9.893   1.340 -0.0809 -0.9687  0.7464
  381MOL0     C51316   6.827   9.816   1.304 -0.2770  0.7277 -0.1118
  381MOL0     N51317   6.827   9.686   1.362  0.4097  0.5136 -0.3712
  381MOL0     C51318   6.914   9.635   1.450  0.1678  0.3511  0.5268
  381MOL0     C51319   6.861   9.518   1.496  0.1065 -0.9364  0.6666
  381MOL0     C51320   6.911   9.432   1.608 -1.4741 -0.9433 -1.4844
  381MOL0     C51321   6.963   9.514   1.729  0.4698 -0.3474 -1.1963
  381MOL0     C51322   7.043   9.446   1.844 -0.1656  0.2592  0.2984
  381MOL0     C51323   7.192   9.410   1.816 -0.8775  0.5327  0.4322
  381MOL0     O51324   7.223   9.410   1.679  0.2461 -0.0773  0.0454
  381MOL0     C51325   7.348   9.390   1.631  0.1746 -0.5199  0.7547
  381MOL0     C51326   7.370   9.428   1.497  1.1268  0.7210  0.5254
  381MOL0     C51327   7.494   9.407   1.446  0.5075  0.3201 -0.0990
  381MOL0     C51328   7.604   9.358   1.524 -0.9803  0.4518 -0.5922
  381MOL0     C51329   7.742   9.348   1.472  0.3542  0.9608  0.0845
  381MOL0     O51330   7.851   9.335   1.559  0.2474 -0.2610 -0.7318
  381MOL0     C51331   7.981   9.334   1.526 -0.2376 -0.2747 -0.3401
  381MOL0     C51332   8.066   9.310   1.635 -0.3029 -0.0938 -0.2606
  381MOL0     C51333   8.204   9.301   1.616  0.3951  0.5261 -0.5638
  381MOL0     C51334   8.263   9.345   1.491  0.2774 -0.1682  0.2809
  381MOL0     O51335   8.397   9.350   1.470 -0.1072 -0.1549  0.7214
  381MOL0     C51336   8.488   9.249   1.491  0.2632  0.0890  0.1998
  381MOL0     C51337   8.550   9.195   1.353 -0.0208  0.2366 -0.1345
  381MOL0     C51338   8.665   9.085   1.358 -1.4801  0.4559  0.4077
  381MOL0     C51339   8.787   9.126   1.450  0.0201 -0.8166 -0.1555
  381MOL0     C51340   8.899   9.026   1.441 -0.2660  0.1213  0.1351
  381MOL0     C51341   9.014   9.068   1.520  0.4140 -0.0479  0.0107
  381MOL0     C51342   9.142   8.998   1.495  0.8829  0.0818  0.1884
  381MOL0     C51343   9.136   8.854   1.536 -0.1893  0.2356  0.9117
  381MOL0    Cl51344   9.299   8.813   1.558 -0.0227  0.1104 -0.4638
  381MOL0     C51345   8.177   9.386   1.385 -0.3448  0.5011  0.3294
  381MOL0     C51346   8.040   9.378   1.396  0.5048  0.3089  0.2706
  381MOL0     O51347   7.758   9.352   1.347  0.0513  0.5116 -0.3396
  381MOL0     C51348   7.580   9.314   1.657  0.3998  0.0218  0.5321
  381MOL0     C51349   7.448   9.330   1.712 -0.1312  0.7395 -0.2030
  381MOL0     N51350   6.734   9.502   1.427 -0.6202 -0.2214 -0.3759
  381MOL0     N51351   6.719   9.601   1.348 -0.3860  0.4369  1.1014
  381MOL0     C51352   7.044  10.663   1.002 -0.3167  0.5581  0.1198
  381MOL0     C51353   6.934  10.744   1.023  0.3209 -0.7013  0.0398
  381MOL0     C51354   6.550  10.917   1.178 -0.6488 -0.4690 -0.8589
  381MOL0     C51355   6.581  11.036   1.246 -0.7891 -0.9476 -0.0916
  381MOL0     C51356   6.483  11.105   1.307  0.4469  0.3027  0.6620
  381MOL0     C51357   6.351  11.065   1.310  0.2935  0.1678  0.4745
  381MOL0     O51358   6.248  11.132   1.371  0.4441 -0.1451  0.5121
  381MOL0     C51359   6.273  11.270   1.406 -0.4030  0.2404 -0.5044
  381MOL0     C51360   6.285  11.361   1.281 -0.1096  0.1970 -0.5069
  381MOL0     C51361   6.155  11.363   1.208  0.9363 -0.2695 -0.0350
  381MOL0     C51362   6.155  11.481   1.104  0.7112  0.4972 -0.1189
  381MOL0     C51363   6.026  11.517   1.051 -0.3616  0.6018  0.1629
  381MOL0     C51364   5.921  11.554   1.010  0.5210  0.5618  0.8697
  381MOL0     C51365   6.315  10.949   1.247 -0.3482  0.4182  0.4145
  381MOL0     C51366   6.413  10.871   1.178 -0.2703 -0.2976 -0.1899
  381MOL0     C51367   6.366  10.749   1.109 -0.3041  0.6594 -0.0698
  381MOL0     H51368   6.935  10.759   1.369  0.4452  0.9016 -0.8601
  381MOL0     H51369   7.128  10.614   1.330  1.5587 -1.7453 -2.7335
  381MOL0     H51370   7.243  10.511   0.920 -1.2304  0.7719  0.0596
  381MOL0     H51371   7.324  10.382   1.023 -2.0420 -2.1471  1.4181
  381MOL0     H51372   7.114  10.320   0.880 -0.0430 -1.0951 -0.2527
  381MOL0     H51373   7.029  10.386   1.024  0.0318 -0.3757 -0.0780
  381MOL0     H51374   7.237  10.168   1.039  0.7157  0.7656 -0.3433
  381MOL0     H51375   7.065  10.131   1.000  0.0177  0.3139 -0.4571
  381MOL0     H51376   7.179  10.273   1.236  0.3409 -1.6366  0.6475
  381MOL0     H51377   7.003  10.271   1.218 -1.9065 -2.0952 -0.5781
  381MOL0     H51378   7.163  10.022   1.193 -1.8063  0.8047 -1.2599
  381MOL0     H51379   7.148  10.088   1.359  0.4099 -0.8748 -0.1683
  381MOL0     H51380   6.892  10.094   1.325 -0.6319 -1.1721  0.1377
  381MOL0     H51381   6.924  10.002   1.169 -1.2575 -1.3831  0.6618
  381MOL0     H51382   6.955   9.921   1.446  0.3882 -1.1278  0.7863
  381MOL0     H51383   7.037   9.829   1.307 -0.0232 -0.6855  0.3272
  381MOL0     H51384   6.738   9.869   1.338  0.3877  1.8194 -0.0208
  381MOL0     H51385   6.821   9.797   1.196  3.4515 -2.1480 -0.0440
  381MOL0     H51386   7.007   9.686   1.473  0.0807 -0.3553  2.6661
  381MOL0     H51387   6.828   9.367   1.639 -2.1765 -1.1535 -3.5987
  381MOL0     H51388   6.992   9.377   1.558  0.6232  1.5373 -1.0084
  381MOL0     H51389   7.030   9.598   1.707  0.4643  0.8204  2.5086
  381MOL0     H51390   6.874   9.555   1.778  0.7620 -0.5690 -0.4608
  381MOL0     H51391   6.993   9.359   1.888  1.5001 -1.5946 -1.2560
  381MOL0     H51392   7.045   9.525   1.919  2.0267  0.6771 -0.1240
  381MOL0     H51393   7.199   9.316   1.872  0.6130 -0.4627 -1.3168
  381MOL0     H51394   7.254   9.483   1.870  1.4507 -1.3350  0.4577
  381MOL0     H51395   7.289   9.481   1.446  2.3029  0.8552 -1.2808
  381MOL0     H51396   7.498   9.430   1.340  0.8743 -2.7428 -0.8604
  381MOL0     H51397   8.025   9.288   1.733  2.8854 -0.1346  1.1799
  381MOL0     H51398   8.253   9.262   1.705 -2.2000 -0.6003  0.4873
  381MOL0     H51399   8.567   9.293   1.552  1.8432 -1.9393 -0.2371
  381MOL0     H51400   8.445   9.168   1.551  0.3814 -0.6692 -0.6977
  381MOL0     H51401   8.474   9.138   1.299  1.0775 -3.8911  2.2110
  381MOL0     H51402   8.590   9.279   1.296  1.5002  0.2827  0.9440
  381MOL0     H51403   8.622   8.987   1.378 -0.2655 -0.1914 -0.0296
  381MOL0     H51404   8.717   9.084   1.262  2.7551  1.7829  2.4205
  381MOL0     H51405   8.752   9.140   1.552  0.1740  2.2716 -0.4324
  381MOL0     H51406   8.824   9.219   1.407  0.3650 -1.6043 -1.6313
  381MOL0     H51407   8.933   9.021   1.338  0.0626  1.5593  0.1606
  381MOL0     H51408   8.870   8.933   1.492  2.3619 -0.6153  0.4389
  381MOL0     H51409   9.031   9.171   1.487 -2.3689 -0.6159 -3.9093
  381MOL0     H51410   8.991   9.051   1.625  0.7742 -4.2019 -0.4086
  381MOL0     H51411   9.214   9.056   1.554 -0.7147  0.8761  1.4406
  381MOL0     H51412   9.168   9.011   1.389 -1.6612 -0.9397 -0.6456
  381MOL0     H51413   9.087   8.832   1.631  1.5182 -1.7338  1.4114
  381MOL0     H51414   9.095   8.799   1.451 -0.4583 -2.0654  2.4513
  381MOL0     H51415   8.219   9.417   1.290  2.5031  0.4592  1.4928
  381MOL0     H51416   7.985   9.402   1.306  0.9963 -2.2620 -0.7938
  381MOL0     H51417   7.649   9.258   1.720  2.8419 -0.3555 -2.2342
  381MOL0     H51418   7.427   9.291   1.811  1.7424 -0.7719 -0.3335
  381MOL0     H51419   7.076  10.649   0.899 -0.7922 -0.2445  0.0703
  381MOL0     H51420   6.889  10.779   0.931  0.7024  0.8457  0.4220
  381MOL0     H51421   6.686  11.064   1.247 -0.7914 -0.9128 -0.6801
  381MOL0     H51422   6.519  11.194   1.358 -0.4470 -0.5291  2.8573
  381MOL0     H51423   6.362  11.280   1.468  1.3299 -0.0367 -2.7829
  381MOL0     H51424   6.183  11.295   1.463 -1.4895  0.0640 -2.0732
  381MOL0     H51425   6.370  11.340   1.215  1.4563  0.3291  1.3811
  381MOL0     H51426   6.307  11.456   1.330  0.5169 -0.0873 -0.2261
  381MOL0     H51427   6.071  11.373   1.277  2.2167  1.2423  1.3636
  381MOL0     H51428   6.156  11.272   1.146  0.1643  1.0630 -2.1433
  381MOL0     H51429   6.207  11.562   1.156 -0.1852 -0.8136  3.1067
  381MOL0     H51430   6.212  11.448   1.017 -1.2742  0.6724 -1.5484
  381MOL0     H51431   5.829  11.590   0.968  0.3237 -2.6312 -1.8474
  381MOL0     H51432   6.216  10.906   1.259 -0.0974  0.1322  1.5823
  381MOL0     H51433   6.265  10.726   1.143  0.0722  0.1658  0.7419
  381MOL0     H51434   6.376  10.762   1.001 -0.0347  0.7347 -0.0383
  381MOL0     H51435   6.425  10.668   1.153 -0.8487  0.6420  0.6356
  382MOL0     O51436   2.935   2.593  11.021  0.4119 -0.1802 -0.5408
  382MOL0     C51437   2.932   2.591  11.145 -0.7490 -0.3264 -0.1872
  382MOL0     O51438   3.042   2.601  11.226  0.2104  0.2050 -0.3236
  382MOL0     C51439   3.167   2.627  11.168 -0.2363  0.9701 -0.1078
  382MOL0     C51440   3.229   2.527  11.085  0.5716 -0.1359  0.1215
  382MOL0     C51441   3.365   2.557  11.047 -0.6313 -0.1371  0.0045
  382MOL0     C51442   3.439   2.666  11.089  0.2008 -0.5872  0.2481
  382MOL0     O51443   3.564   2.687  11.035  0.7338  0.0594  1.0569
  382MOL0     C51444   3.652   2.792  11.075 -0.1780 -0.1195  0.4506
  382MOL0     C51445   3.771   2.805  10.991  0.1504 -0.5075 -0.2830
  382MOL0     C51446   3.843   2.937  11.014  0.9834 -0.7211 -0.1666
  382MOL0     C51447   3.983   2.940  10.950  0.1630 -0.3995 -0.0040
  382MOL0     C51448   4.057   3.079  10.960 -0.0903 -0.3527  0.0332
  382MOL0     C51449   4.085   3.108  11.112  0.1012  0.1317  0.4394
  382MOL0     C51450   4.148   3.247  11.124 -0.2856 -0.1592  0.8535
  382MOL0     C51451   4.145   3.282  11.274  0.5533  1.1226  1.2850
  382MOL0     N51452   4.240   3.210  11.359 -0.8698  0.9555 -0.5357
  382MOL0     C51453   4.224   3.079  11.401 -0.0587  0.4518  0.3456
  382MOL0     C51454   4.330   3.060  11.481 -0.1263 -0.2414 -0.6301
  382MOL0     C51455   4.348   2.922  11.547  0.7064  0.0741  0.2224
  382MOL0     C51456   4.479   2.857  11.527 -0.8803 -0.5252  0.9053
  382MOL0     C51457   4.489   2.780  11.389 -0.0607  0.0419 -0.3821
  382MOL0     C51458   4.630   2.725  11.342  0.2589 -0.2340  0.2622
  382MOL0     O51459   4.647   2.588  11.375  0.4447  0.2096 -1.1413
  382MOL0     C51460   4.782   2.550  11.376 -0.3703  0.6985  0.1941
  382MOL0     C51461   4.851   2.508  11.494  0.3377  0.4801  0.6725
  382MOL0     C51462   4.982   2.462  11.486  0.6308 -0.0076 -0.3816
  382MOL0     C51463   5.056   2.473  11.371  0.2795 -0.1786  0.5856
  382MOL0     C51464   5.195   2.437  11.359 -0.3514  0.5054 -0.1957
  382MOL0     O51465   5.252   2.424  11.231  0.6597 -0.0647 -0.7846
  382MOL0     C51466   5.380   2.387  11.232 -0.5233 -0.4226  1.5983
  382MOL0     C51467   5.466   2.466  11.159  0.0293  0.4022 -0.0270
  382MOL0     C51468   5.602   2.434  11.132 -0.6426  0.0302 -0.0100
  382MOL0     C51469   5.659   2.321  11.204 -0.4049  0.5731  0.9333
  382MOL0     O51470   5.789   2.284  11.176 -0.2773  0.2622  0.4022
  382MOL0     C51471   5.814   2.139  11.184 -0.2953  0.1675 -0.1161
  382MOL0     C51472   5.965   2.107  11.146  0.7648 -0.0029 -0.5251
  382MOL0     C51473   6.015   2.186  11.024 -0.3345 -0.8227 -0.0054
  382MOL0     C51474   6.158   2.147  10.981  0.1903  0.3230 -1.2135
  382MOL0     C51475   6.151   2.138  10.828  0.3606 -0.3091 -0.5880
  382MOL0     C51476   6.293   2.141  10.773 -0.6971  0.2919  0.0997
  382MOL0     C51477   6.290   2.110  10.628  0.5315  0.1338  0.4101
  382MOL0     C51478   6.437   2.081  10.586 -0.0766  0.2747  0.0595
  382MOL0    Cl51479   6.552   2.216  10.623  0.8182  0.5821  0.1221
  382MOL0     C51480   5.570   2.238  11.280 -0.5640  0.4685  0.3620
  382MOL0     C51481   5.434   2.273  11.288  0.1657 -0.4778 -0.0247
  382MOL0     O51482   5.261   2.440  11.462 -0.2912  0.3026 -0.4273
  382MOL0     C51483   4.995   2.524  11.259 -0.6696 -0.2158 -0.0639
  382MOL0     C51484   4.860   2.555  11.259  0.4333 -0.1720 -0.6600
  382MOL0     N51485   4.418   3.171  11.472  0.0407 -0.5445  0.0895
  382MOL0     N51486   4.359   3.256  11.404 -0.2692 -1.2719 -0.5341
  382MOL0     C51487   3.369   2.761  11.165  0.0420  0.2620  0.2822
  382MOL0     C51488   3.237   2.737  11.205  0.5980 -0.2866 -0.0255
  382MOL0     C51489   2.792   2.587  11.190  0.1903 -0.3317  0.1398
  382MOL0     C51490   2.685   2.567  11.102  0.5846 -0.8604 -0.1844
  382MOL0     C51491   2.551   2.579  11.141  0.0784 -0.0091  0.3184
  382MOL0     C51492   2.511   2.595  11.271 -0.7038 -0.1712  0.6985
  382MOL0     O51493   2.378   2.603  11.308  0.1624 -0.2096  0.3874
  382MOL0     C51494   2.336   2.514  11.407  0.3884 -0.3798  0.3762
  382MOL0     C51495   2.224   2.434  11.339 -0.0033 -0.0995  0.5789
  382MOL0     C51496   2.169   2.319  11.416 -0.2555  0.5314 -0.4891
  382MOL0     C51497   2.075   2.376  11.516  0.0667  0.7922 -0.5534
  382MOL0     C51498   1.939   2.391  11.465  0.5198 -0.1963 -0.6081
  382MOL0     C51499   1.831   2.413  11.425 -0.2272 -0.3626  0.5588
  382MOL0     C51500   2.620   2.612  11.359  0.6041  0.0519  0.2696
  382MOL0     C51501   2.757   2.604  11.325  0.3164 -0.3134 -0.5933
  382MOL0     C51502   2.850   2.609  11.447 -0.2483  0.2925 -1.3166
  382MOL0     H51503   3.178   2.434  11.063  2.9046 -1.2781 -0.9351
  382MOL0     H51504   3.415   2.473  11.001 -0.6311 -0.8969  1.3515
  382MOL0     H51505   3.601   2.888  11.068  2.2760  1.5317  2.8852
  382MOL0     H51506   3.675   2.783  11.182  0.0258  1.9766  0.6140
  382MOL0     H51507   3.742   2.801  10.886 -0.5574  2.2984 -0.2813
  382MOL0     H51508   3.838   2.722  11.015 -1.3712 -1.9606 -0.8793
  382MOL0     H51509   3.836   2.961  11.121 -1.8716 -1.9691  0.0280
  382MOL0     H51510   3.786   3.016  10.963 -0.7863 -0.7951  1.5720
  382MOL0     H51511   4.047   2.870  11.004  1.9608  2.5567  1.9277
  382MOL0     H51512   3.970   2.913  10.844 -1.3494  0.4667 -0.0738
  382MOL0     H51513   4.154   3.084  10.910 -0.2900  1.5045 -0.2240
  382MOL0     H51514   3.996   3.161  10.923  0.1710 -0.0727  0.2202
  382MOL0     H51515   3.989   3.114  11.165 -0.9649 -3.1678 -0.8444
  382MOL0     H51516   4.143   3.019  11.136 -1.6568 -1.7288 -1.6700
  382MOL0     H51517   4.098   3.316  11.055  1.4948 -0.4222 -0.7982
  382MOL0     H51518   4.252   3.247  11.090 -0.0958 -0.2786  1.4204
  382MOL0     H51519   4.165   3.389  11.265  0.0475  1.0193 -3.1423
  382MOL0     H51520   4.041   3.265  11.303 -1.4915  1.3023 -4.6227
  382MOL0     H51521   4.150   3.003  11.377  0.6490  0.0943 -0.7686
  382MOL0     H51522   4.343   2.930  11.656  0.6364 -0.9252  0.3032
  382MOL0     H51523   4.271   2.853  11.510  1.8482 -1.5818  0.7897
  382MOL0     H51524   4.563   2.927  11.530  0.5921 -2.0707 -1.2782
  382MOL0     H51525   4.507   2.780  11.599  0.2839  1.5050  2.7386
  382MOL0     H51526   4.448   2.849  11.314 -1.2251  1.3070  1.3504
  382MOL0     H51527   4.420   2.694  11.390  0.6735 -0.5517 -0.3689
  382MOL0     H51528   4.712   2.785  11.383 -0.7147  1.1325  0.2721
  382MOL0     H51529   4.629   2.725  11.233 -1.4795  1.1282  0.2288
  382MOL0     H51530   4.796   2.495  11.587 -1.0924  0.9643 -0.0929
  382MOL0     H51531   5.037   2.425  11.572  2.6772 -1.4100 -2.1678
  382MOL0     H51532   5.416   2.551  11.113 -1.4340  0.3292  1.3513
  382MOL0     H51533   5.651   2.488  11.052 -0.7458 -0.1231 -0.1786
  382MOL0     H51534   5.799   2.111  11.289  0.9546 -0.9990 -0.2235
  382MOL0     H51535   5.743   2.086  11.120  0.1014 -0.9001  0.3149
  382MOL0     H51536   6.019   2.129  11.238 -1.0533 -1.6375  1.0265
  382MOL0     H51537   5.983   2.000  11.130  1.5036 -0.1089  0.9270
  382MOL0     H51538   5.949   2.172  10.938  0.7160  2.2917 -1.4797
  382MOL0     H51539   6.009   2.291  11.052 -1.7619 -0.3724 -1.7976
  382MOL0     H51540   6.202   2.059  11.029  0.5024  1.7597  1.3232
  382MOL0     H51541   6.220   2.227  11.022 -3.0796  1.4000  2.1110
  382MOL0     H51542   6.100   2.220  10.777  0.1732 -1.8656 -3.0674
  382MOL0     H51543   6.105   2.042  10.801  2.6302 -1.5327 -0.3723
  382MOL0     H51544   6.326   2.244  10.786  0.3712 -0.3282  3.0876
  382MOL0     H51545   6.360   2.070  10.822  0.4640  0.4308 -1.2118
  382MOL0     H51546   6.247   2.191  10.569 -0.2254 -0.7362 -0.2621
  382MOL0     H51547   6.239   2.017  10.602 -0.4972  0.4129  1.3767
  382MOL0     H51548   6.476   1.986  10.625  0.5625 -0.2757 -1.8051
  382MOL0     H51549   6.437   2.080  10.477 -0.4906  0.4167  0.0598
  382MOL0     H51550   5.596   2.144  11.326 -2.0957  0.2609  0.8652
  382MOL0     H51551   5.369   2.212  11.350 -0.1733 -1.3843 -1.2412
  382MOL0     H51552   5.052   2.551  11.170  3.4362 -0.8713  2.0892
  382MOL0     H51553   4.825   2.597  11.166 -1.0975  1.1568  0.4773
  382MOL0     H51554   3.416   2.850  11.205 -0.0341  0.9390 -1.0875
  382MOL0     H51555   3.200   2.815  11.271  1.1462  1.1166 -1.3026
  382MOL0     H51556   2.704   2.545  10.998 -0.2518 -3.7992  0.1895
  382MOL0     H51557   2.476   2.583  11.062 -0.1116  0.1020  0.5039
  382MOL0     H51558   2.309   2.558  11.504 -0.9693 -0.2121 -0.0562
  382MOL0     H51559   2.413   2.439  11.429  2.1438  0.9957 -0.7886
  382MOL0     H51560   2.263   2.397  11.245 -1.4666  1.1188 -0.5666
  382MOL0     H51561   2.139   2.500  11.318 -1.6818 -2.2292  0.3402
  382MOL0     H51562   2.244   2.260  11.470 -1.2884 -1.9000 -1.5374
  382MOL0     H51563   2.118   2.245  11.353  0.2726 -0.6090  0.3812
  382MOL0     H51564   2.072   2.310  11.604  0.7507 -3.0393 -3.1608
  382MOL0     H51565   2.097   2.478  11.547 -3.0096  1.3065  0.2571
  382MOL0     H51566   1.741   2.457  11.387  1.6825  3.4326 -0.1038
  382MOL0     H51567   2.590   2.627  11.463 -1.5137  3.3753 -0.6708
  382MOL0     H51568   2.929   2.533  11.440 -0.0470  0.5097 -1.4382
  382MOL0     H51569   2.879   2.712  11.465 -1.7608  0.7037 -1.1457
  382MOL0     H51570   2.807   2.574  11.541  1.2424  0.6934 -0.4458
  383MOL0     O51571   5.225   2.507   2.511  0.7795  0.0454  0.2304
  383MOL0     C51572   5.146   2.424   2.556 -0.1841  1.1189  0.3004
  383MOL0     O51573   5.136   2.295   2.521  0.5512  0.1866  0.2003
  383MOL0     C51574   5.230   2.243   2.432 -1.3050 -0.2390  0.4943
  383MOL0     C51575   5.366   2.261   2.466  0.3636 -0.8781  0.2392
  383MOL0     C51576   5.467   2.209   2.386  0.5797 -0.0417  0.3759
  383MOL0     C51577   5.435   2.139   2.271 -0.0328 -0.2931  0.5111
  383MOL0     O51578   5.543   2.103   2.199 -0.4250  0.0288  0.0674
  383MOL0     C51579   5.554   1.957   2.180  0.3146 -0.4128  0.7373
  383MOL0     C51580   5.702   1.939   2.137 -0.0097 -0.7627  0.3459
  383MOL0     C51581   5.740   1.793   2.135 -0.4043 -0.1857  0.0865
  383MOL0     C51582   5.862   1.756   2.048 -0.0697  0.0550 -0.1924
  383MOL0     C51583   5.888   1.601   2.054 -0.0582 -0.3663 -0.2019
  383MOL0     C51584   5.944   1.542   1.919 -0.9396 -0.9526 -0.0620
  383MOL0     C51585   6.001   1.400   1.934 -0.7838 -1.0311 -0.1163
  383MOL0     C51586   6.145   1.413   1.987 -0.1182  0.9725 -0.0676
  383MOL0     N51587   6.210   1.279   1.992 -0.0916  0.1160  0.2337
  383MOL0     C51588   6.278   1.218   1.890  0.4001  0.1583  0.3432
  383MOL0     C51589   6.338   1.100   1.943 -0.5022 -0.2004  0.6859
  383MOL0     C51590   6.439   1.009   1.869  0.2283  0.2679  0.3934
  383MOL0     C51591   6.556   1.013   1.965 -0.0675  0.0427  0.2251
  383MOL0     C51592   6.692   0.951   1.917 -0.2061  0.2819  0.1487
  383MOL0     C51593   6.687   0.832   1.814  0.2657  0.0950 -0.0438
  383MOL0     O51594   6.825   0.829   1.769 -0.5983  0.3655  0.3215
  383MOL0     C51595   6.904   0.735   1.833  0.5721 -0.6171 -0.9860
  383MOL0     C51596   7.039   0.777   1.863  0.7597 -0.4311 -0.2039
  383MOL0     C51597   7.117   0.687   1.916 -0.3571  0.6812  0.2406
  383MOL0     C51598   7.074   0.550   1.942 -0.3382 -0.1951 -0.3900
  383MOL0     C51599   7.161   0.463   2.027  0.2666 -0.5649 -0.0754
  383MOL0     O51600   7.269   0.417   1.971 -0.2729 -0.1060 -0.0793
  383MOL0     C51601   7.352   0.344   2.058  0.3285  1.0051 -0.1317
  383MOL0     C51602   7.365   0.205   2.047  0.9797  0.2785 -0.5091
  383MOL0     C51603   7.458   0.133   2.118  0.0096 -0.1744  0.7136
  383MOL0     C51604   7.548   0.199   2.210  0.8323  0.0000  0.4020
  383MOL0     O51605   7.649   0.140   2.283  0.0246 -0.1262  0.3976
  383MOL0     C51606   7.658  -0.004   2.271 -0.3701 -0.1017  0.1932
  383MOL0     C51607   7.755  -0.068   2.378 -0.0228  0.9022  0.4762
  383MOL0     C51608   7.900  -0.033   2.356 -1.2834  0.3600 -0.5156
  383MOL0     C51609   7.993  -0.113   2.445 -0.5232  0.3040  0.7043
  383MOL0     C51610   8.013  -0.063   2.591 -0.3005 -0.8879  0.3508
  383MOL0     C51611   8.122   0.040   2.613  0.2406 -1.0268 -0.1310
  383MOL0     C51612   8.141   0.085   2.765 -0.0255  0.2241  0.7027
  383MOL0     C51613   8.270   0.174   2.770  0.9617 -0.5645 -0.9857
  383MOL0    Cl51614   8.223   0.337   2.717  0.0155  0.5767 -0.2760
  383MOL0     C51615   7.534   0.340   2.221  0.0728  0.0363 -0.0258
  383MOL0     C51616   7.440   0.407   2.151  0.0074  0.2180  0.5870
  383MOL0     O51617   7.124   0.446   2.146  0.1919  0.0618  0.7411
  383MOL0     C51618   6.941   0.509   1.910 -0.4412  0.2822  0.5980
  383MOL0     C51619   6.860   0.601   1.857  0.7932  0.2841 -0.4729
  383MOL0     N51620   6.298   1.097   2.075 -0.3318 -0.3309 -0.1468
  383MOL0     N51621   6.231   1.204   2.105  0.2993  0.7193 -0.2558
  383MOL0     C51622   5.297   2.112   2.238  0.0132 -0.6325 -1.1585
  383MOL0     C51623   5.193   2.165   2.323  0.0857 -0.9052  0.1792
  383MOL0     C51624   5.034   2.472   2.642  0.5158  0.4011  0.5721
  383MOL0     C51625   4.911   2.408   2.641 -0.9408  0.3640  0.8037
  383MOL0     C51626   4.799   2.457   2.704 -0.0059  0.7726  0.7788
  383MOL0     C51627   4.794   2.569   2.775  0.6722  0.8591 -0.3776
  383MOL0     O51628   4.680   2.608   2.839  0.0901  0.0887  0.3140
  383MOL0     C51629   4.545   2.596   2.788 -0.8877 -0.2986 -0.4281
  383MOL0     C51630   4.478   2.482   2.846  0.4378 -0.2594 -0.5150
  383MOL0     C51631   4.338   2.525   2.897 -0.1428 -0.0316 -0.1774
  383MOL0     C51632   4.259   2.402   2.950 -0.1179 -0.6123 -0.2848
  383MOL0     C51633   4.248   2.286   2.859  0.1207  1.1820  0.9266
  383MOL0     C51634   4.222   2.184   2.791  0.3718 -1.2221  0.1069
  383MOL0     C51635   4.908   2.637   2.783  0.4516 -0.3314  0.8363
  383MOL0     C51636   5.031   2.594   2.720  0.1759  0.1711  0.2515
  383MOL0     C51637   5.150   2.687   2.739  0.0098  0.1808 -0.0179
  383MOL0     H51638   5.384   2.325   2.552  0.4884 -0.1439 -0.3227
  383MOL0     H51639   5.572   2.229   2.405 -0.0649  1.7420  2.3886
  383MOL0     H51640   5.540   1.895   2.269  0.4035  0.8467  1.6526
  383MOL0     H51641   5.488   1.928   2.097  1.1296 -0.0363 -0.0539
  383MOL0     H51642   5.768   1.995   2.203 -0.4664 -0.0792  0.2287
  383MOL0     H51643   5.717   1.985   2.039 -0.5249  0.5401  0.8603
  383MOL0     H51644   5.652   1.737   2.101 -0.9281  0.2447  0.6849
  383MOL0     H51645   5.753   1.765   2.240 -2.2641  4.7503  1.9419
  383MOL0     H51646   5.845   1.791   1.946  0.5750  0.8140 -0.0431
  383MOL0     H51647   5.958   1.800   2.073  0.0245  1.1688 -2.2920
  383MOL0     H51648   5.961   1.570   2.130  0.7038  3.5989  0.9163
  383MOL0     H51649   5.787   1.560   2.064 -1.1163  1.9622 -0.8387
  383MOL0     H51650   5.850   1.536   1.863 -1.7654 -0.0300  1.1756
  383MOL0     H51651   6.015   1.606   1.866 -1.5892 -0.6677 -0.6058
  383MOL0     H51652   5.999   1.355   1.835 -1.5274  3.9170 -2.6754
  383MOL0     H51653   5.940   1.340   2.003 -2.6676 -0.0375 -0.8279
  383MOL0     H51654   6.215   1.473   1.928  0.0969  2.1729  1.3528
  383MOL0     H51655   6.143   1.449   2.091 -0.7687 -0.1954  0.3448
  383MOL0     H51656   6.286   1.249   1.786 -0.4647  2.2837  0.8654
  383MOL0     H51657   6.393   0.911   1.854  2.8970 -0.8260 -1.3682
  383MOL0     H51658   6.463   1.052   1.771  0.7667  3.5671  1.8454
  383MOL0     H51659   6.579   1.117   1.992 -1.6338  0.7079 -0.8726
  383MOL0     H51660   6.529   0.962   2.058  1.3805 -2.0637 -0.4580
  383MOL0     H51661   6.754   0.920   2.001 -1.3316  1.3629  1.4344
  383MOL0     H51662   6.744   1.035   1.871 -1.9764  1.8272  0.8503
  383MOL0     H51663   6.628   0.855   1.725  0.2280 -2.0073 -0.6093
  383MOL0     H51664   6.647   0.739   1.856  2.5526 -1.5660 -1.3115
  383MOL0     H51665   7.071   0.879   1.843 -1.3475  0.5441  0.9590
  383MOL0     H51666   7.220   0.703   1.943  0.4961  1.5163 -3.0975
  383MOL0     H51667   7.303   0.158   1.971  0.3824  2.7330 -1.6384
  383MOL0     H51668   7.452   0.025   2.115  1.5152 -0.5019  4.2816
  383MOL0     H51669   7.556  -0.042   2.285 -1.3927  1.6070 -1.9624
  383MOL0     H51670   7.693  -0.030   2.171  0.8178 -1.6973  0.9666
  383MOL0     H51671   7.718  -0.037   2.477 -0.4594  1.8495  0.0335
  383MOL0     H51672   7.746  -0.177   2.381 -2.6805  1.0849  1.8959
  383MOL0     H51673   7.917  -0.051   2.249 -2.0053  1.0678 -0.7542
  383MOL0     H51674   7.929   0.069   2.383  0.0253 -0.0932 -0.1099
  383MOL0     H51675   8.096  -0.113   2.408  0.0357  0.6430  2.1658
  383MOL0     H51676   7.955  -0.215   2.437  0.3163 -0.0114  0.5684
  383MOL0     H51677   8.034  -0.141   2.664  1.6913 -0.5000  0.2362
  383MOL0     H51678   7.929   0.004   2.613 -0.2392  1.0549 -4.0725
  383MOL0     H51679   8.218   0.000   2.577 -0.0757 -0.1415 -2.1078
  383MOL0     H51680   8.107   0.124   2.544  1.5612 -0.7790 -0.1556
  383MOL0     H51681   8.151   0.002   2.835  1.3698 -0.9576 -0.7912
  383MOL0     H51682   8.052   0.147   2.780 -0.4746 -0.7445  2.2287
  383MOL0     H51683   8.299   0.195   2.873 -0.4489  0.7238 -0.8282
  383MOL0     H51684   8.349   0.148   2.698  1.9326 -7.6390  1.7926
  383MOL0     H51685   7.599   0.401   2.284 -0.1392  1.2579 -0.9543
  383MOL0     H51686   7.450   0.515   2.154  4.3977 -0.0076  0.5295
  383MOL0     H51687   6.903   0.410   1.934 -0.5674 -0.1014 -1.0966
  383MOL0     H51688   6.758   0.572   1.833  1.2329 -4.4610  2.1694
  383MOL0     H51689   5.277   2.059   2.145  1.5842  0.0530 -1.9352
  383MOL0     H51690   5.089   2.149   2.296  0.4771 -1.9392 -0.7892
  383MOL0     H51691   4.893   2.316   2.587 -1.0644  1.8596 -1.8969
  383MOL0     H51692   4.706   2.402   2.706  0.5638 -0.4088 -1.3440
  383MOL0     H51693   4.544   2.588   2.679 -1.0711  1.9849 -0.6318
  383MOL0     H51694   4.493   2.685   2.823  1.9179  1.3624 -0.1945
  383MOL0     H51695   4.541   2.443   2.927 -1.3764  2.3012  2.3701
  383MOL0     H51696   4.479   2.402   2.772  2.2687 -0.9097  0.1422
  383MOL0     H51697   4.283   2.559   2.809  2.1846  0.8217 -1.3652
  383MOL0     H51698   4.334   2.608   2.968 -0.2114  1.6751 -2.0909
  383MOL0     H51699   4.317   2.364   3.035 -0.1240 -0.7203 -0.3285
  383MOL0     H51700   4.157   2.421   2.985 -0.2429 -2.4888  0.5354
  383MOL0     H51701   4.206   2.101   2.725 -0.1461 -0.2520 -1.0426
  383MOL0     H51702   4.906   2.729   2.841 -2.5842  0.8162 -0.8634
  383MOL0     H51703   5.133   2.757   2.821  0.1053  2.4263 -1.8124
  383MOL0     H51704   5.237   2.624   2.757  0.4067  1.1647  1.7489
  383MOL0     H51705   5.171   2.740   2.645 -2.8543 -0.4375 -1.1123
  384MOL0     O51706   9.442   7.016   6.014 -0.0703 -1.0029  0.2516
  384MOL0     C51707   9.477   7.035   6.129 -0.7038 -0.2374 -0.8377
  384MOL0     O51708   9.392   7.074   6.231  0.4743 -0.2704  0.1586
  384MOL0     C51709   9.260   7.096   6.203  0.7612  0.8587 -0.6435
  384MOL0     C51710   9.169   6.996   6.220 -0.0770 -0.2236 -0.7547
  384MOL0     C51711   9.036   7.028   6.231 -0.2462  0.0109  0.0265
  384MOL0     C51712   8.988   7.157   6.201  0.1870  0.0890 -0.1044
  384MOL0     O51713   8.854   7.183   6.210 -0.0143 -0.2647 -0.2236
  384MOL0     C51714   8.762   7.084   6.155 -0.5578 -0.3694  0.0351
  384MOL0     C51715   8.649   7.054   6.255 -0.4891  0.4063  0.8502
  384MOL0     C51716   8.689   6.981   6.380 -0.2998  0.5545 -0.2138
  384MOL0     C51717   8.727   7.083   6.486 -0.3383  0.3702  0.1596
  384MOL0     C51718   8.727   7.019   6.621 -0.0194 -0.5533 -1.3082
  384MOL0     C51719   8.699   7.119   6.734 -0.6131  0.1937 -0.7802
  384MOL0     C51720   8.694   7.039   6.873 -0.7486  0.2766 -0.2557
  384MOL0     C51721   8.700   7.122   6.999  1.3864 -0.6177  0.3553
  384MOL0     N51722   8.818   7.199   7.036  0.2321 -0.8369 -0.8875
  384MOL0     C51723   8.949   7.154   7.040 -0.5901 -0.1729  0.4139
  384MOL0     C51724   9.022   7.251   7.102 -0.2747 -0.4466 -0.3268
  384MOL0     C51725   9.165   7.242   7.122 -0.7113 -0.6411 -0.0768
  384MOL0     C51726   9.240   7.375   7.095  0.0871 -0.1851 -1.1243
  384MOL0     C51727   9.390   7.357   7.120  0.5370 -0.8430  0.4822
  384MOL0     C51728   9.460   7.486   7.122  0.4004 -0.0483 -0.5196
  384MOL0     O51729   9.596   7.454   7.110  0.2246  0.6618 -0.4297
  384MOL0     C51730   9.692   7.547   7.118  0.5781  0.5779  0.1879
  384MOL0     C51731   9.686   7.685   7.121 -0.8155 -0.4541  0.1612
  384MOL0     C51732   9.795   7.765   7.133  0.2616 -0.2617  0.6736
  384MOL0     C51733   9.926   7.707   7.128  0.0779  0.5447  0.9116
  384MOL0     C51734  10.045   7.807   7.112  0.7580 -0.4414 -0.4294
  384MOL0     O51735  10.021   7.946   7.124 -0.2324  0.4215  0.8564
  384MOL0     C51736  10.114   8.047   7.108  0.1925  0.1557  0.5649
  384MOL0     C51737  10.254   8.048   7.137  0.1381  0.9949 -0.4225
  384MOL0     C51738  10.333   8.164   7.119  0.2122 -0.3811  0.6570
  384MOL0     C51739  10.274   8.281   7.070 -0.4222 -0.1554  0.1713
  384MOL0     O51740  10.352   8.391   7.055  0.0787 -0.4397  0.0080
  384MOL0     C51741  10.492   8.396   7.094  0.4518  0.5712  0.6641
  384MOL0     C51742  10.511   8.445   7.239  0.0206 -0.0171 -0.1431
  384MOL0     C51743  10.653   8.497   7.259 -0.1481 -0.2541  0.9050
  384MOL0     C51744  10.653   8.644   7.210  0.4905  0.4623 -0.5332
  384MOL0     C51745  10.712   8.745   7.322  0.0363  0.6737  0.6303
  384MOL0     C51746  10.856   8.723   7.354  0.0920 -1.2217 -0.0833
  384MOL0     C51747  10.904   8.820   7.469  0.0357  0.7532  0.3598
  384MOL0     C51748  10.849   8.771   7.601  0.1316  0.4427 -0.9896
  384MOL0    Cl51749  10.870   8.593   7.625 -0.0546  0.2354  0.2091
  384MOL0     C51750  10.148   8.277   7.021 -1.1936  0.5681 -0.1504
  384MOL0     C51751  10.066   8.167   7.053  0.3438 -0.3659  0.5362
  384MOL0     O51752  10.154   7.759   7.099  0.4441 -0.4809  0.2854
  384MOL0     C51753   9.943   7.565   7.132  0.4020 -1.0880 -0.2030
  384MOL0     C51754   9.822   7.489   7.117  0.7403  0.1165  0.5200
  384MOL0     N51755   8.935   7.356   7.132 -0.2726 -0.3943 -0.6814
  384MOL0     N51756   8.814   7.317   7.100  0.2169  0.2681 -0.1365
  384MOL0     C51757   9.078   7.259   6.173  0.5229 -0.1700 -0.3944
  384MOL0     C51758   9.214   7.223   6.170 -0.4694  0.7416  0.1600
  384MOL0     C51759   9.622   7.019   6.156  0.0182  0.3876 -0.4425
  384MOL0     C51760   9.717   7.012   6.050  0.8666  1.0093 -0.5610
  384MOL0     C51761   9.849   6.980   6.074 -0.6258  0.5740 -0.2682
  384MOL0     C51762   9.897   6.956   6.204  1.2101 -0.7775  0.3832
  384MOL0     O51763  10.019   6.905   6.244  0.4513 -0.6069 -0.6850
  384MOL0     C51764  10.124   6.894   6.156 -0.0578 -0.6599  0.8680
  384MOL0     C51765  10.246   6.933   6.232 -0.3705 -0.5159  0.2146
  384MOL0     C51766  10.367   6.965   6.136  0.0448 -0.1572  0.1196
  384MOL0     C51767  10.454   6.861   6.084  0.1506 -0.1740  0.4180
  384MOL0     C51768  10.561   6.908   5.993  0.6827 -0.5945 -0.6859
  384MOL0     C51769  10.639   6.935   5.911 -0.9314 -0.0715 -0.4210
  384MOL0     C51770   9.801   6.974   6.307 -0.5354 -0.2522  0.7231
  384MOL0     C51771   9.670   7.010   6.296  0.1759  0.3564  0.7110
  384MOL0     C51772   9.590   7.014   6.424 -0.4973 -0.7351  0.2218
  384MOL0     H51773   9.199   6.896   6.248 -2.4811 -0.3649  1.7696
  384MOL0     H51774   8.976   6.944   6.267  0.1777  0.2198  1.2586
  384MOL0     H51775   8.723   7.130   6.063  0.3402  1.7588  0.6456
  384MOL0     H51776   8.815   6.993   6.124  2.0966  1.8648 -2.5900
  384MOL0     H51777   8.565   7.005   6.205 -1.8641  1.3204  2.1547
  384MOL0     H51778   8.594   7.146   6.276 -1.3835  0.2441 -0.6350
  384MOL0     H51779   8.761   6.903   6.358 -1.5734 -0.7049 -0.0539
  384MOL0     H51780   8.599   6.931   6.416  1.0302 -1.9082 -0.1704
  384MOL0     H51781   8.832   7.108   6.470  0.0349 -1.4500 -0.5555
  384MOL0     H51782   8.678   7.180   6.481  1.5680  1.3613  0.0600
  384MOL0     H51783   8.644   6.948   6.621 -0.6886  0.2135 -1.4448
  384MOL0     H51784   8.809   6.950   6.641  0.4781  0.8649  2.4558
  384MOL0     H51785   8.772   7.200   6.732 -3.0639  2.5077 -1.5275
  384MOL0     H51786   8.601   7.162   6.712 -1.4606 -1.4782 -0.4383
  384MOL0     H51787   8.781   6.974   6.886 -0.4702  0.8753  1.1581
  384MOL0     H51788   8.602   6.981   6.874 -0.7045  0.1750 -1.2023
  384MOL0     H51789   8.611   7.185   6.997  1.0517 -1.0698 -2.0576
  384MOL0     H51790   8.683   7.044   7.074 -1.0766 -1.5577 -1.0874
  384MOL0     H51791   8.994   7.062   7.003 -0.4784  0.8507 -2.2066
  384MOL0     H51792   9.176   7.203   7.223 -1.6937 -2.7589 -0.7243
  384MOL0     H51793   9.210   7.172   7.051  1.0271 -1.2050  1.4901
  384MOL0     H51794   9.232   7.402   6.990  1.2312 -1.5137 -1.5859
  384MOL0     H51795   9.193   7.456   7.151  1.6679  0.6334 -0.9395
  384MOL0     H51796   9.439   7.294   7.044  0.7470 -1.1038  0.8318
  384MOL0     H51797   9.394   7.301   7.213 -1.0841 -1.2689  0.3133
  384MOL0     H51798   9.451   7.543   7.215  3.0988 -2.3946  1.3405
  384MOL0     H51799   9.423   7.549   7.040 -0.6695 -0.0498 -0.0541
  384MOL0     H51800   9.588   7.729   7.107  0.6668  2.9638 -0.3753
  384MOL0     H51801   9.770   7.871   7.135 -2.3292 -0.8067  1.1848
  384MOL0     H51802  10.294   7.960   7.185  2.0351  1.8487 -0.3633
  384MOL0     H51803  10.433   8.163   7.160  0.8194  0.9959 -0.6737
  384MOL0     H51804  10.553   8.307   7.077  0.6038  0.6116  0.9735
  384MOL0     H51805  10.528   8.467   7.019 -2.8113 -0.6325 -2.3061
  384MOL0     H51806  10.437   8.524   7.253  0.0566  0.2116 -1.1765
  384MOL0     H51807  10.494   8.363   7.309 -2.5893  2.1522  2.0169
  384MOL0     H51808  10.684   8.487   7.364 -4.1195  0.6066  2.3174
  384MOL0     H51809  10.727   8.449   7.193 -1.3802  0.9547 -1.4800
  384MOL0     H51810  10.554   8.676   7.177  0.4428 -0.2864 -1.1666
  384MOL0     H51811  10.723   8.662   7.128  1.7359 -1.0909  0.1284
  384MOL0     H51812  10.652   8.744   7.414 -0.4236 -0.2902  0.3252
  384MOL0     H51813  10.698   8.846   7.284 -1.0544  0.7262  1.1325
  384MOL0     H51814  10.886   8.618   7.366 -2.0425 -1.7996  0.6834
  384MOL0     H51815  10.908   8.763   7.266  0.8950  1.9301  1.6889
  384MOL0     H51816  10.877   8.924   7.449  0.8405  0.5230 -2.4488
  384MOL0     H51817  11.013   8.817   7.475 -0.0867 -1.3481  3.6690
  384MOL0     H51818  10.903   8.815   7.685  0.8057 -0.5931 -0.8678
  384MOL0     H51819  10.742   8.791   7.613  0.1852 -0.2252  0.8602
  384MOL0     H51820  10.107   8.370   6.981 -1.0551  0.8369  0.3169
  384MOL0     H51821   9.966   8.179   7.013  0.7786 -0.6216 -0.7039
  384MOL0     H51822  10.044   7.527   7.122  1.6423  1.6550  0.7339
  384MOL0     H51823   9.822   7.380   7.114 -0.5200  0.0539  1.6609
  384MOL0     H51824   9.035   7.356   6.153 -0.8172 -0.2023  2.0024
  384MOL0     H51825   9.291   7.295   6.146 -1.4796  2.0568  0.7411
  384MOL0     H51826   9.685   7.056   5.956 -4.3843  1.3256  1.0691
  384MOL0     H51827   9.918   6.974   5.991 -0.1250 -1.4409  0.2341
  384MOL0     H51828  10.114   6.966   6.074  2.5665 -2.3262 -1.0559
  384MOL0     H51829  10.128   6.791   6.119  2.1604 -1.3671  2.8488
  384MOL0     H51830  10.263   6.850   6.300  0.1840 -0.5178  0.0765
  384MOL0     H51831  10.230   7.027   6.287  1.4746  0.6078 -1.0671
  384MOL0     H51832  10.427   7.044   6.182 -1.8776  1.0865  0.5856
  384MOL0     H51833  10.320   7.016   6.051 -1.9070 -0.5557  0.9026
  384MOL0     H51834  10.517   6.805   6.154  3.2003  1.6646 -0.6541
  384MOL0     H51835  10.390   6.807   6.013  1.6784  1.5210 -2.4362
  384MOL0     H51836  10.704   6.956   5.828  0.1882 -1.3721  0.0978
  384MOL0     H51837   9.845   6.980   6.407 -0.3891 -0.4160  0.6674
  384MOL0     H51838   9.510   6.939   6.417 -0.6892 -0.4595 -0.6108
  384MOL0     H51839   9.652   6.973   6.504  0.3519  1.0801  0.5348
  384MOL0     H51840   9.555   7.115   6.445  0.2041 -0.3569 -0.3856
  385MOL0     O51841   9.897   1.794   8.174 -0.1450 -0.0854  1.1019
  385MOL0     C51842   9.783   1.783   8.223 -0.5601  0.6425 -0.5512
  385MOL0     O51843   9.761   1.804   8.356  0.1751 -0.1724  0.1711
  385MOL0     C51844   9.864   1.845   8.437  1.0287  0.4095  0.7593
  385MOL0     C51845   9.943   1.952   8.394 -0.4307 -0.7103 -0.4013
  385MOL0     C51846  10.055   1.989   8.471  0.2116  0.4127 -0.7778
  385MOL0     C51847  10.077   1.934   8.599  0.4321  0.2949  0.2945
  385MOL0     O51848  10.185   1.956   8.684 -0.1137  0.5765  0.0474
  385MOL0     C51849  10.294   2.014   8.631  0.6621  0.2926  0.0198
  385MOL0     C51850  10.412   2.036   8.723 -0.6163  1.0437 -0.0614
  385MOL0     C51851  10.541   1.978   8.656  0.4000  0.1620  0.4150
  385MOL0     C51852  10.671   2.040   8.711 -0.4458 -0.0250 -0.2673
  385MOL0     C51853  10.809   1.999   8.653 -0.1347 -0.9133 -0.2742
  385MOL0     C51854  10.926   2.060   8.727 -0.0320 -0.5762  0.5049
  385MOL0     C51855  11.057   2.030   8.650  0.3274 -0.1885  0.6258
  385MOL0     C51856  11.174   2.081   8.721  0.4162  0.3445 -0.0164
  385MOL0     N51857  11.208   1.994   8.836 -0.0856 -0.2600 -0.3254
  385MOL0     C51858  11.276   1.876   8.836  0.8249  0.7103 -0.0507
  385MOL0     C51859  11.258   1.825   8.959  0.9628 -0.4648  0.0974
  385MOL0     C51860  11.300   1.695   9.027 -0.8704 -0.2266  0.2401
  385MOL0     C51861  11.448   1.699   9.067  0.1663 -0.2922  0.0191
  385MOL0     C51862  11.491   1.588   9.161  0.8846  0.3892 -0.3372
  385MOL0     C51863  11.638   1.605   9.188 -0.7851  0.8480 -0.2236
  385MOL0     O51864  11.693   1.489   9.256  0.1293  0.1004 -1.0431
  385MOL0     C51865  11.823   1.486   9.302  0.1513  0.2362  0.4225
  385MOL0     C51866  11.856   1.400   9.405  0.2132  0.0279  0.2238
  385MOL0     C51867  11.988   1.383   9.440 -0.2660 -0.4955  0.6253
  385MOL0     C51868  12.092   1.432   9.363 -0.9442 -0.2747 -0.9481
  385MOL0     C51869  12.232   1.414   9.407 -0.4369  0.6308 -0.9510
  385MOL0     O51870  12.245   1.355   9.527 -0.4544  0.1102 -0.0572
  385MOL0     C51871  12.374   1.334   9.579  0.0947 -0.4508 -0.1255
  385MOL0     C51872  12.456   1.433   9.624  0.4225  0.1067  0.1769
  385MOL0     C51873  12.575   1.410   9.690  0.1993  0.2557  0.0753
  385MOL0     C51874  12.624   1.278   9.704 -0.4252 -0.1243  0.4942
  385MOL0     O51875  12.742   1.245   9.770 -0.5924 -0.7728  0.3945
  385MOL0     C51876  12.815   1.338   9.852  0.1963  0.6418 -0.7825
  385MOL0     C51877  12.914   1.253   9.946 -0.0648 -0.1071  0.6991
  385MOL0     C51878  12.841   1.145  10.019 -0.2367  0.3952 -0.6063
  385MOL0     C51879  12.900   1.120  10.165 -0.2312  0.1172 -0.2368
  385MOL0     C51880  12.824   0.991  10.220  1.4461 -0.5096  0.0265
  385MOL0     C51881  12.850   0.940  10.359  0.2300 -0.3188  0.4472
  385MOL0     C51882  12.786   1.033  10.460  0.2063 -0.0141  0.2251
  385MOL0     C51883  12.819   0.983  10.605 -1.0304  0.1439 -0.7564
  385MOL0    Cl51884  12.990   0.999  10.658 -0.0735  0.1281 -0.6486
  385MOL0     C51885  12.540   1.176   9.663  0.8022  0.0617  0.2749
  385MOL0     C51886  12.414   1.202   9.609 -0.7821 -0.0694 -0.3838
  385MOL0     O51887  12.327   1.455   9.344  0.0612  0.4465 -0.4413
  385MOL0     C51888  12.062   1.511   9.252 -0.8729  0.7073 -0.4628
  385MOL0     C51889  11.927   1.527   9.218 -0.1378  0.1671 -0.2470
  385MOL0     N51890  11.186   1.917   9.035  0.1053  0.1502 -0.8735
  385MOL0     N51891  11.163   2.022   8.965 -0.2239 -0.9250  0.1871
  385MOL0     C51892   9.985   1.836   8.642 -0.6719  0.2587  0.3370
  385MOL0     C51893   9.886   1.784   8.561  0.5782 -0.8857 -0.0758
  385MOL0     C51894   9.670   1.736   8.134 -0.0641 -0.0680 -0.0570
  385MOL0     C51895   9.553   1.703   8.196  0.0371  0.1126 -0.4586
  385MOL0     C51896   9.444   1.649   8.134  0.0021  0.1766  0.5760
  385MOL0     C51897   9.451   1.618   7.993 -0.6990 -0.2514 -0.5165
  385MOL0     O51898   9.339   1.563   7.946  0.6631 -0.0384  0.0794
  385MOL0     C51899   9.329   1.540   7.803 -0.4531 -0.1354  0.1981
  385MOL0     C51900   9.193   1.483   7.775 -0.3565 -0.1200 -1.0036
  385MOL0     C51901   9.172   1.460   7.623 -0.3276 -0.2587  0.6529
  385MOL0     C51902   9.041   1.400   7.586 -0.1152 -0.3042  0.4065
  385MOL0     C51903   8.926   1.482   7.621 -0.1076  0.3694 -0.3780
  385MOL0     C51904   8.828   1.543   7.647 -0.0329  0.5160  0.3501
  385MOL0     C51905   9.569   1.655   7.923  0.3139  1.1501 -0.1846
  385MOL0     C51906   9.676   1.723   7.992  0.9944 -0.4343 -0.1667
  385MOL0     C51907   9.790   1.761   7.905 -0.2261 -0.5571  0.1638
  385MOL0     H51908   9.905   1.998   8.303  0.2630 -0.7696 -0.7282
  385MOL0     H51909  10.125   2.067   8.441 -0.6020  1.5144  0.0951
  385MOL0     H51910  10.316   1.956   8.541  1.6909 -0.7201  0.8972
  385MOL0     H51911  10.274   2.117   8.598  0.6333 -0.2469 -1.7467
  385MOL0     H51912  10.403   1.982   8.818  0.4328  1.8056  0.4995
  385MOL0     H51913  10.422   2.142   8.747 -2.6736  1.3938 -0.5404
  385MOL0     H51914  10.545   2.002   8.549 -1.5727 -0.7428  0.1009
  385MOL0     H51915  10.552   1.871   8.671  1.4944  0.3120  0.7943
  385MOL0     H51916  10.672   2.149   8.707  0.3058  0.0607  1.6457
  385MOL0     H51917  10.667   2.020   8.818  0.4743 -2.4805 -0.6247
  385MOL0     H51918  10.807   1.889   8.652 -0.6180 -1.0089 -4.1061
  385MOL0     H51919  10.806   2.029   8.548  1.1677  1.3386  0.2758
  385MOL0     H51920  10.909   2.166   8.744  1.7134 -0.5181  2.2590
  385MOL0     H51921  10.923   2.020   8.829  2.6563 -0.0600  0.8527
  385MOL0     H51922  11.042   2.065   8.547  0.6863 -3.5957 -0.7032
  385MOL0     H51923  11.067   1.921   8.640 -1.1495 -0.1589 -2.0900
  385MOL0     H51924  11.260   2.070   8.655 -0.5056 -1.5455 -0.9849
  385MOL0     H51925  11.157   2.183   8.757 -0.2311 -1.0319  4.2056
  385MOL0     H51926  11.309   1.812   8.755  0.4264  1.8891 -1.1767
  385MOL0     H51927  11.236   1.688   9.116 -0.6342  1.2310  0.5481
  385MOL0     H51928  11.274   1.613   8.960 -2.1231 -0.2549  0.7365
  385MOL0     H51929  11.509   1.694   8.977  0.3983 -0.3862  0.1821
  385MOL0     H51930  11.463   1.799   9.107 -0.6553  1.0218 -2.7808
  385MOL0     H51931  11.473   1.485   9.127 -1.4015  0.7132 -0.2930
  385MOL0     H51932  11.431   1.594   9.253 -0.2591 -1.3303 -0.9157
  385MOL0     H51933  11.659   1.693   9.250  0.6761 -0.4558  1.2229
  385MOL0     H51934  11.688   1.615   9.091  1.7972  0.0902  0.9250
  385MOL0     H51935  11.764   1.361   9.447 -0.3260  0.4062 -0.5870
  385MOL0     H51936  12.001   1.325   9.531  0.6970 -1.1918  0.0586
  385MOL0     H51937  12.424   1.535   9.609  2.9009  0.5448 -3.7126
  385MOL0     H51938  12.636   1.489   9.733  0.2229 -1.2829  3.1408
  385MOL0     H51939  12.863   1.422   9.801  0.8057  2.2149  2.1077
  385MOL0     H51940  12.760   1.394   9.928  1.4530 -1.1383  1.5700
  385MOL0     H51941  12.991   1.211   9.881  0.3705  3.4715 -1.3536
  385MOL0     H51942  12.955   1.332  10.009 -0.7447  3.5673 -3.0870
  385MOL0     H51943  12.733   1.161  10.030 -0.4379  0.5267 -2.4205
  385MOL0     H51944  12.854   1.057   9.957 -1.0504  0.4278 -0.8300
  385MOL0     H51945  12.880   1.210  10.224  1.5241  1.5529 -1.7111
  385MOL0     H51946  13.006   1.092  10.162 -0.7163 -2.0294  0.9959
  385MOL0     H51947  12.838   0.909  10.148 -3.0948 -0.3787 -1.3015
  385MOL0     H51948  12.717   1.002  10.202  1.1232  0.7132  2.3733
  385MOL0     H51949  12.801   0.844  10.381 -1.2688  0.6269  1.3898
  385MOL0     H51950  12.957   0.921  10.370  0.9655 -0.3455 -4.4007
  385MOL0     H51951  12.680   1.026  10.438  0.2473  0.4435 -0.1307
  385MOL0     H51952  12.816   1.137  10.442 -2.0231  1.5762  4.2988
  385MOL0     H51953  12.762   1.049  10.671  1.6364  1.3156  0.5392
  385MOL0     H51954  12.790   0.877  10.604 -1.8436  0.3156 -3.8213
  385MOL0     H51955  12.564   1.073   9.687 -0.7617 -0.8490 -1.8424
  385MOL0     H51956  12.345   1.118   9.598  0.6367 -1.2577 -0.4435
  385MOL0     H51957  12.143   1.548   9.189 -0.1331  1.4850  0.8753
  385MOL0     H51958  11.887   1.579   9.131 -3.1664  1.2502  1.6308
  385MOL0     H51959   9.991   1.795   8.742  1.1774 -1.6508 -0.4818
  385MOL0     H51960   9.826   1.702   8.600  1.6819 -1.3084  0.7930
  385MOL0     H51961   9.544   1.714   8.303 -0.4296 -1.9957 -0.2305
  385MOL0     H51962   9.354   1.624   8.190 -1.9050 -1.8196 -2.9930
  385MOL0     H51963   9.401   1.477   7.751 -1.4603 -1.2934  0.1642
  385MOL0     H51964   9.329   1.638   7.754  1.8977 -0.5474 -0.7113
  385MOL0     H51965   9.113   1.543   7.819 -2.0797 -0.1605 -3.7897
  385MOL0     H51966   9.193   1.386   7.826  2.5070  0.8603  1.0666
  385MOL0     H51967   9.248   1.396   7.577 -1.9922 -1.8178 -0.0861
  385MOL0     H51968   9.171   1.556   7.571  5.6185 -0.4284 -0.3808
  385MOL0     H51969   9.032   1.373   7.480 -0.9517  1.5106 -0.0212
  385MOL0     H51970   9.040   1.306   7.643  0.6256  0.5002  1.7822
  385MOL0     H51971   8.732   1.585   7.669 -0.9653 -0.4908 -1.5920
  385MOL0     H51972   9.569   1.623   7.819 -0.6881  1.2247 -0.2163
  385MOL0     H51973   9.765   1.769   7.799  0.8940  2.1269  0.0285
  385MOL0     H51974   9.845   1.852   7.931 -0.5020 -0.6808  1.1917
  385MOL0     H51975   9.861   1.678   7.916  1.6926  0.8458 -0.9972
  386MOL0     O51976   3.365  10.645   6.942  0.0384 -0.3860  0.9865
  386MOL0     C51977   3.316  10.566   6.859 -0.6616  0.4966 -0.0726
  386MOL0     O51978   3.391  10.509   6.759  0.1490  0.5293 -0.1471
  386MOL0     C51979   3.521  10.551   6.745 -1.3030 -0.1499 -0.0276
  386MOL0     C51980   3.619  10.537   6.851 -0.1463 -0.0547  0.4900
  386MOL0     C51981   3.747  10.590   6.841  0.7039  0.2856 -1.0267
  386MOL0     C51982   3.783  10.669   6.738 -0.6211 -0.0750  0.0125
  386MOL0     O51983   3.895  10.744   6.735 -0.2939  0.2314 -0.2225
  386MOL0     C51984   3.905  10.864   6.810 -0.5281 -0.3788 -1.2477
  386MOL0     C51985   4.042  10.898   6.856 -0.2485 -0.2839  0.0762
  386MOL0     C51986   4.051  11.020   6.944  0.0373  0.4085  0.0625
  386MOL0     C51987   4.198  11.038   6.985 -0.0969  0.6760 -0.2041
  386MOL0     C51988   4.233  11.159   7.070  0.5268 -0.4034  0.6063
  386MOL0     C51989   4.250  11.278   6.975  0.9759 -0.1248 -0.0085
  386MOL0     C51990   4.254  11.410   7.053 -0.4229 -0.0544  0.1262
  386MOL0     C51991   4.274  11.525   6.949 -0.9718  0.2587 -0.2397
  386MOL0     N51992   4.281  11.660   7.009 -0.9178 -0.8711  0.2078
  386MOL0     C51993   4.183  11.758   7.023  0.0254  0.0805  1.5859
  386MOL0     C51994   4.248  11.874   7.067  0.2937  1.0007  0.4992
  386MOL0     C51995   4.183  12.011   7.075  0.1468  0.7215 -0.6919
  386MOL0     C51996   4.161  12.062   7.220  0.4050 -0.8887 -0.2113
  386MOL0     C51997   4.083  11.963   7.305 -0.7638  0.0915 -0.1988
  386MOL0     C51998   4.050  12.044   7.430  0.5874  0.2957  0.1581
  386MOL0     O51999   3.989  11.951   7.529  0.3461 -0.1008  0.0681
  386MOL0     C52000   3.980  11.995   7.662  0.0280  1.1484  0.0842
  386MOL0     C52001   3.966  11.896   7.761  0.4800  0.2048  0.8273
  386MOL0     C52002   3.927  11.931   7.891 -0.2199 -0.7234  1.0361
  386MOL0     C52003   3.930  12.060   7.932 -0.4424 -0.2490 -0.1070
  386MOL0     C52004   3.907  12.093   8.073 -0.8824  0.0034  0.2299
  386MOL0     O52005   3.946  12.225   8.117 -0.8208 -0.4530  0.1101
  386MOL0     C52006   3.924  12.272   8.246  0.0262 -0.5573 -0.1666
  386MOL0     C52007   4.010  12.374   8.300  0.0967 -0.5092 -0.1161
  386MOL0     C52008   3.988  12.414   8.427 -0.6349 -0.5417  0.9254
  386MOL0     C52009   3.874  12.371   8.500 -1.8692 -0.2731  0.1279
  386MOL0     O52010   3.843  12.422   8.620 -0.0628 -0.0936  0.2109
  386MOL0     C52011   3.948  12.460   8.708 -0.1108  0.4166  0.0816
  386MOL0     C52012   3.876  12.484   8.834  0.4924 -0.4684  0.1477
  386MOL0     C52013   3.975  12.555   8.931  0.3631 -0.0285  0.0479
  386MOL0     C52014   3.927  12.596   9.067 -0.2220  0.4075  0.0522
  386MOL0     C52015   3.899  12.479   9.164 -0.7398  0.0157  0.4411
  386MOL0     C52016   3.849  12.540   9.302  0.4044  0.5580 -0.1911
  386MOL0     C52017   3.781  12.438   9.398  0.7310  0.3764 -0.7742
  386MOL0     C52018   3.646  12.401   9.349 -0.1402  0.4881 -0.4737
  386MOL0    Cl52019   3.561  12.267   9.433 -0.2087  0.3621  0.2117
  386MOL0     C52020   3.781  12.280   8.442  0.4950  0.8654 -0.8061
  386MOL0     C52021   3.803  12.242   8.313 -0.5144 -0.3534  0.4281
  386MOL0     O52022   3.852  12.013   8.149 -0.5875 -0.3212 -0.0097
  386MOL0     C52023   3.967  12.160   7.842  0.5293 -0.2813  0.5439
  386MOL0     C52024   3.979  12.129   7.711  0.2178  0.0102  0.6436
  386MOL0     N52025   4.377  11.831   7.086 -0.3425  0.1899  0.3264
  386MOL0     N52026   4.393  11.714   7.050 -0.3369 -0.1016  1.3300
  386MOL0     C52027   3.696  10.678   6.629  0.5942 -0.7484 -0.3678
  386MOL0     C52028   3.572  10.624   6.633 -0.1906 -0.5239 -0.3510
  386MOL0     C52029   3.169  10.547   6.849 -0.4147 -0.0289 -0.3819
  386MOL0     C52030   3.130  10.442   6.764  0.6839 -0.4656  0.4496
  386MOL0     C52031   2.996  10.413   6.736 -0.4301 -0.7442  0.0604
  386MOL0     C52032   2.893  10.486   6.795 -0.7577 -0.2822 -1.1669
  386MOL0     O52033   2.766  10.449   6.750  0.0539  0.2610  0.0262
  386MOL0     C52034   2.660  10.548   6.760 -0.0457  1.2615 -0.1547
  386MOL0     C52035   2.601  10.535   6.893 -0.3373  0.2583  0.3932
  386MOL0     C52036   2.456  10.571   6.896  0.5823 -0.2774  0.4112
  386MOL0     C52037   2.350  10.469   6.830 -0.2510 -1.1094 -0.7586
  386MOL0     C52038   2.218  10.527   6.818  0.8488  0.2415 -0.3453
  386MOL0     C52039   2.103  10.570   6.830  0.1427 -0.3517 -0.4018
  386MOL0     C52040   2.929  10.591   6.883 -0.1300 -0.0178  0.7394
  386MOL0     C52041   3.064  10.617   6.914 -0.6158 -0.4330  0.4292
  386MOL0     C52042   3.099  10.710   7.036  0.5222 -0.2828 -0.4352
  386MOL0     H52043   3.581  10.497   6.945 -0.5099 -1.5993 -0.2885
  386MOL0     H52044   3.809  10.582   6.930  0.4967  1.0805 -0.8010
  386MOL0     H52045   3.858  10.945   6.752  0.4081  0.5810 -0.7163
  386MOL0     H52046   3.844  10.849   6.899 -1.4249  0.5603 -1.6839
  386MOL0     H52047   4.109  10.907   6.769  1.0539 -2.1622  0.8162
  386MOL0     H52048   4.090  10.813   6.905  1.4757  0.5692 -0.0639
  386MOL0     H52049   3.988  11.017   7.033  0.4041 -0.2629  0.2998
  386MOL0     H52050   4.022  11.103   6.878  0.3004  0.5059  0.0654
  386MOL0     H52051   4.226  10.949   7.042 -2.5577 -1.0193 -1.4585
  386MOL0     H52052   4.260  11.032   6.895  2.6918 -1.9839  1.7246
  386MOL0     H52053   4.160  11.174   7.151  0.8039  0.2794  0.7394
  386MOL0     H52054   4.330  11.142   7.117  0.7791 -0.5946  0.0223
  386MOL0     H52055   4.339  11.272   6.912 -0.0549  4.1871 -2.2344
  386MOL0     H52056   4.170  11.275   6.900  0.9074  0.2635  0.0452
  386MOL0     H52057   4.337  11.416   7.124  3.6033 -1.9806 -3.8094
  386MOL0     H52058   4.157  11.426   7.099  0.0774 -0.0151  1.2005
  386MOL0     H52059   4.368  11.507   6.897  0.2673  0.4118  1.8177
  386MOL0     H52060   4.191  11.525   6.877  0.1221  0.8187 -1.5373
  386MOL0     H52061   4.081  11.755   6.986  0.0396  1.7879  1.2924
  386MOL0     H52062   4.243  12.078   7.012  1.6921 -0.2334 -0.3103
  386MOL0     H52063   4.083  12.006   7.032 -1.0438  0.4458  1.9466
  386MOL0     H52064   4.260  12.066   7.266  0.5934 -3.9440 -0.1360
  386MOL0     H52065   4.117  12.162   7.228  1.6280 -0.4286  1.2292
  386MOL0     H52066   4.148  11.885   7.344 -2.5525  0.0376  3.0832
  386MOL0     H52067   3.990  11.933   7.256 -1.8304  0.4735  1.5025
  386MOL0     H52068   3.976  12.120   7.406 -2.3931 -1.3385  3.2154
  386MOL0     H52069   4.144  12.080   7.473 -0.4720 -0.2274  3.2017
  386MOL0     H52070   3.969  11.792   7.728 -2.8161  0.7300 -1.6407
  386MOL0     H52071   3.903  11.854   7.963 -1.7810 -2.5528 -1.2870
  386MOL0     H52072   4.110  12.394   8.264  0.1528  1.6783  1.1089
  386MOL0     H52073   4.052  12.489   8.473 -2.8256  1.0584  1.5291
  386MOL0     H52074   4.024  12.383   8.718 -1.4671 -1.4898 -2.8247
  386MOL0     H52075   3.995  12.557   8.688  0.0607  0.7246  1.7853
  386MOL0     H52076   3.790  12.552   8.831 -0.0648 -1.1543  0.5107
  386MOL0     H52077   3.840  12.391   8.877 -4.6935  0.7679 -0.8060
  386MOL0     H52078   4.049  12.476   8.944 -0.7554 -0.8118  2.1914
  386MOL0     H52079   4.018  12.642   8.880 -2.0695 -0.5855 -3.2813
  386MOL0     H52080   3.838  12.656   9.048 -0.3379  0.2761  0.1833
  386MOL0     H52081   4.018  12.645   9.105  2.2017 -2.0996 -2.0635
  386MOL0     H52082   3.988  12.417   9.174  0.1678  0.9321 -1.5854
  386MOL0     H52083   3.815  12.426   9.118  1.2943 -0.7337 -2.6850
  386MOL0     H52084   3.935  12.566   9.365  1.0459  3.1501 -1.9712
  386MOL0     H52085   3.787  12.629   9.293  0.6781  1.0063  1.8022
  386MOL0     H52086   3.769  12.472   9.501 -2.1711 -2.4103 -0.0570
  386MOL0     H52087   3.841  12.347   9.409  0.0037  0.0993  1.2814
  386MOL0     H52088   3.590  12.495   9.339 -0.3319  0.3777 -0.4238
  386MOL0     H52089   3.663  12.360   9.249 -2.1770 -1.0139 -0.2666
  386MOL0     H52090   3.689  12.254   8.494  0.7620  0.3454 -0.5831
  386MOL0     H52091   3.723  12.185   8.268 -1.3757  2.0032 -1.2201
  386MOL0     H52092   3.968  12.263   7.877 -1.6538 -0.7868  2.3658
  386MOL0     H52093   3.988  12.207   7.636 -1.1316  0.8507  1.3015
  386MOL0     H52094   3.725  10.742   6.547 -1.2020 -1.4146 -1.5816
  386MOL0     H52095   3.500  10.641   6.554  1.4309 -1.8572 -2.2286
  386MOL0     H52096   3.202  10.400   6.694  0.5570 -1.2210  0.7681
  386MOL0     H52097   2.977  10.336   6.662  2.3055 -1.1161 -0.3884
  386MOL0     H52098   2.584  10.516   6.688  1.3008  0.7833 -1.4116
  386MOL0     H52099   2.688  10.647   6.723 -0.5322  1.1138 -0.9432
  386MOL0     H52100   2.650  10.605   6.962  1.4733  0.7377 -1.3053
  386MOL0     H52101   2.610  10.433   6.932 -3.0952  0.8462  2.9599
  386MOL0     H52102   2.443  10.666   6.842 -0.5010 -1.9149 -2.4527
  386MOL0     H52103   2.420  10.603   6.994  1.1412  0.6938  0.3130
  386MOL0     H52104   2.376  10.437   6.728  1.0620  0.2610 -0.8954
  386MOL0     H52105   2.334  10.386   6.899  0.6190  0.0369  0.8773
  386MOL0     H52106   2.003  10.599   6.854  0.9156 -0.2323  3.2174
  386MOL0     H52107   2.863  10.639   6.955  1.2019  1.1714  1.2349
  386MOL0     H52108   3.154  10.649   7.109  1.0568 -0.3123 -0.8591
  386MOL0     H52109   3.162  10.797   7.017  1.4117 -1.2410 -2.1927
  386MOL0     H52110   3.002  10.728   7.082 -0.1895 -4.7703  0.2814
  387MOL0     O52111  10.891   0.501  11.262  0.0248 -0.2871  0.4809
  387MOL0     C52112  10.904   0.390  11.315  0.8384  0.3045 -0.1120
  387MOL0     O52113  11.017   0.337  11.355 -0.3051  0.1603 -0.5446
  387MOL0     C52114  11.139   0.372  11.314  0.2472  0.1925 -0.6063
  387MOL0     C52115  11.183   0.379  11.188 -0.5408 -0.8091  0.2042
  387MOL0     C52116  11.308   0.425  11.153 -0.8765  0.2713  0.1763
  387MOL0     C52117  11.401   0.451  11.254  0.5106  0.6911 -1.0529
  387MOL0     O52118  11.528   0.489  11.218 -0.7721 -0.0789 -0.6643
  387MOL0     C52119  11.573   0.618  11.268 -0.1863 -0.3268  0.2958
  387MOL0     C52120  11.703   0.672  11.208  0.0629  0.3375 -0.0527
  387MOL0     C52121  11.827   0.590  11.250  0.2876 -0.7955  0.3448
  387MOL0     C52122  11.949   0.673  11.192 -0.5808  1.0218  0.5889
  387MOL0     C52123  12.079   0.659  11.283 -0.7375  0.2595  0.0920
  387MOL0     C52124  12.136   0.519  11.254 -0.4308 -0.2429  0.2077
  387MOL0     C52125  12.278   0.499  11.290  0.1784 -0.1494 -0.0496
  387MOL0     C52126  12.284   0.504  11.447  1.1445  0.0268  0.8972
  387MOL0     N52127  12.413   0.457  11.491 -0.3867 -0.4001  0.0253
  387MOL0     C52128  12.442   0.324  11.485 -0.1852 -1.0346  0.0665
  387MOL0     C52129  12.582   0.319  11.487 -0.0415  0.2811  0.2403
  387MOL0     C52130  12.660   0.195  11.459  0.1122 -0.4621  0.2732
  387MOL0     C52131  12.688   0.179  11.311 -0.0813 -0.0552 -0.3222
  387MOL0     C52132  12.792   0.080  11.290 -0.6542 -0.1361  0.2816
  387MOL0     C52133  12.826   0.061  11.141 -0.0360 -0.5957 -0.5183
  387MOL0     O52134  12.823   0.179  11.070  0.4335  0.2894  0.2651
  387MOL0     C52135  12.899   0.177  10.957  0.6654  0.3034  0.6168
  387MOL0     C52136  12.848   0.225  10.833  0.1706 -0.1889  0.9131
  387MOL0     C52137  12.926   0.227  10.716 -0.5502  0.3649  0.6759
  387MOL0     C52138  13.054   0.173  10.705  0.0497  0.2508 -0.5188
  387MOL0     C52139  13.142   0.174  10.577  0.8035  0.0799  0.3904
  387MOL0     O52140  13.248   0.082  10.572 -0.2513 -0.2813 -1.1874
  387MOL0     C52141  13.334   0.091  10.465 -0.0510  0.4707 -0.0216
  387MOL0     C52142  13.292   0.105  10.334 -1.2306  0.3468 -0.8081
  387MOL0     C52143  13.387   0.104  10.225  0.2274 -0.6092  0.1223
  387MOL0     C52144  13.527   0.102  10.250  0.3509  0.6565  0.3019
  387MOL0     O52145  13.626   0.122  10.160  0.0934 -0.3673 -0.7474
  387MOL0     C52146  13.619   0.058  10.031 -0.0673 -0.3120 -0.0252
  387MOL0     C52147  13.756   0.034   9.966 -0.2393 -0.2902 -0.7631
  387MOL0     C52148  13.840  -0.091  10.019 -0.5839 -0.4655 -0.3012
  387MOL0     C52149  13.971  -0.056  10.076 -0.2345 -0.4510 -0.8414
  387MOL0     C52150  14.048  -0.172  10.123  0.6663  0.2537 -0.2071
  387MOL0     C52151  14.190  -0.126  10.159 -0.1750 -0.8340 -0.1068
  387MOL0     C52152  14.257  -0.207  10.260 -1.0926 -0.3238  0.1210
  387MOL0     C52153  14.393  -0.139  10.303 -0.6111 -0.6736 -0.2537
  387MOL0    Cl52154  14.511  -0.136  10.172  0.6264 -0.3064 -0.4285
  387MOL0     C52155  13.565   0.088  10.382 -0.2009 -0.4512 -0.5561
  387MOL0     C52156  13.472   0.083  10.485 -0.2299 -0.6883  0.0166
  387MOL0     O52157  13.107   0.257  10.493 -0.8330  0.6434  0.1742
  387MOL0     C52158  13.115   0.134  10.831  0.4776  0.3677 -0.7399
  387MOL0     C52159  13.036   0.131  10.951 -0.2586 -0.7119  0.4785
  387MOL0     N52160  12.630   0.458  11.486 -0.4284  0.3757 -1.0151
  387MOL0     N52161  12.524   0.535  11.496  0.4363  0.0708 -0.8255
  387MOL0     C52162  11.355   0.441  11.390 -0.0963  0.0503  0.0989
  387MOL0     C52163  11.228   0.396  11.423 -0.0750 -0.1832  0.2569
  387MOL0     C52164  10.776   0.312  11.333 -0.2958 -0.6546  0.4311
  387MOL0     C52165  10.667   0.363  11.264  0.2636  0.2181 -0.1970
  387MOL0     C52166  10.558   0.281  11.260  0.0980  0.2458 -0.3989
  387MOL0     C52167  10.544   0.149  11.315 -1.1317 -0.1678  0.4523
  387MOL0     O52168  10.438   0.075  11.307  0.0044 -0.2505  0.1853
  387MOL0     C52169  10.316   0.118  11.243  0.0534  0.0811  0.0292
  387MOL0     C52170  10.326   0.075  11.098 -0.5963 -0.3174 -0.3309
  387MOL0     C52171  10.210   0.139  11.010 -0.5978 -0.4110  0.9597
  387MOL0     C52172  10.214   0.077  10.867 -0.2295 -0.0627 -0.6496
  387MOL0     C52173  10.138  -0.053  10.855 -0.1280  0.1106 -0.1590
  387MOL0     C52174  10.075  -0.152  10.862 -0.1178 -0.0075 -0.5521
  387MOL0     C52175  10.651   0.104  11.388 -0.1754 -0.1273 -0.4140
  387MOL0     C52176  10.766   0.178  11.390  0.4336  1.0670 -0.0035
  387MOL0     C52177  10.889   0.102  11.450  1.0371 -0.3980  0.6507
  387MOL0     H52178  11.109   0.350  11.114 -0.6368 -2.2637  0.8302
  387MOL0     H52179  11.330   0.451  11.050 -0.5961 -2.8756 -0.6550
  387MOL0     H52180  11.500   0.697  11.248 -0.1113 -0.1686  0.6512
  387MOL0     H52181  11.591   0.604  11.375  0.9107 -0.8934  0.0465
  387MOL0     H52182  11.718   0.775  11.241  1.1830  0.0557  0.3865
  387MOL0     H52183  11.685   0.673  11.100 -1.5698 -3.7837  0.0013
  387MOL0     H52184  11.824   0.488  11.211 -1.6296 -0.1253 -1.4502
  387MOL0     H52185  11.825   0.601  11.359  0.0783  2.1812  0.1135
  387MOL0     H52186  11.959   0.650  11.086 -0.6955  2.3965  0.2523
  387MOL0     H52187  11.930   0.781  11.186 -2.7157  0.6389 -0.3591
  387MOL0     H52188  12.147   0.739  11.252 -2.0240  0.3249 -2.8959
  387MOL0     H52189  12.065   0.679  11.390 -0.3390  1.2552 -0.0297
  387MOL0     H52190  12.069   0.456  11.312 -0.5141 -0.7626 -0.4453
  387MOL0     H52191  12.135   0.492  11.148  0.5440 -2.3766  0.6931
  387MOL0     H52192  12.329   0.589  11.255 -1.2669  1.4406  1.7412
  387MOL0     H52193  12.311   0.402  11.251 -1.1097 -1.4464  1.8966
  387MOL0     H52194  12.279   0.612  11.461  4.3975  0.1551  1.9054
  387MOL0     H52195  12.203   0.452  11.500 -1.0508  2.8119  0.4908
  387MOL0     H52196  12.374   0.241  11.472  1.3235 -2.1411 -1.2153
  387MOL0     H52197  12.754   0.203  11.515  1.3969  1.0196 -1.9381
  387MOL0     H52198  12.611   0.099  11.475  1.3633 -1.2510 -0.4139
  387MOL0     H52199  12.594   0.148  11.265  0.6734 -0.5504 -1.5916
  387MOL0     H52200  12.706   0.280  11.274 -0.9002  0.2828  0.1661
  387MOL0     H52201  12.748  -0.014  11.326  1.2683 -0.7460  1.1485
  387MOL0     H52202  12.887   0.106  11.336 -0.2903  0.1660 -0.6267
  387MOL0     H52203  12.741  -0.000  11.108 -0.7773 -0.0399  0.3073
  387MOL0     H52204  12.912  -0.004  11.122  0.4311 -0.9984  2.5504
  387MOL0     H52205  12.747   0.261  10.816 -0.2550 -2.1062 -0.9924
  387MOL0     H52206  12.887   0.266  10.623  0.7795 -0.9567 -0.4884
  387MOL0     H52207  13.185   0.124  10.322 -1.2491  2.1569  1.4700
  387MOL0     H52208  13.341   0.120  10.128  0.6828  0.1431  0.0246
  387MOL0     H52209  13.566  -0.037  10.018  1.2776 -0.8964 -1.7454
  387MOL0     H52210  13.557   0.130   9.977 -0.4796 -2.4145 -2.5826
  387MOL0     H52211  13.751   0.034   9.857  3.6466  2.1642 -1.1511
  387MOL0     H52212  13.807   0.126   9.997  0.9367 -0.1152 -3.0404
  387MOL0     H52213  13.772  -0.136  10.092 -1.1580  1.9056  0.7172
  387MOL0     H52214  13.848  -0.159   9.934 -1.2237  1.4902 -1.9984
  387MOL0     H52215  13.954   0.022  10.151  1.1083 -2.2161  1.4628
  387MOL0     H52216  14.030  -0.009   9.996  2.0091 -1.3623  0.1785
  387MOL0     H52217  14.052  -0.233  10.033  2.4566 -0.6317  0.4286
  387MOL0     H52218  14.005  -0.227  10.207  0.8529 -2.4431 -1.7683
  387MOL0     H52219  14.258  -0.116  10.074  2.1665 -1.3364  1.6027
  387MOL0     H52220  14.182  -0.027  10.205 -0.3883 -2.6589  4.2970
  387MOL0     H52221  14.269  -0.311  10.228 -0.7237  0.2034 -1.5544
  387MOL0     H52222  14.191  -0.202  10.348 -1.5174  0.9085 -0.2376
  387MOL0     H52223  14.377  -0.035  10.335 -0.7574 -0.2668 -1.5646
  387MOL0     H52224  14.438  -0.186  10.390 -1.5384  1.9968  1.8271
  387MOL0     H52225  13.666   0.097  10.421 -0.6453 -2.2270  1.1792
  387MOL0     H52226  13.513   0.078  10.585 -1.0153  1.4724  0.4837
  387MOL0     H52227  13.216   0.095  10.824  0.4782  0.4922 -1.5494
  387MOL0     H52228  13.087   0.100  11.042  0.7952 -2.8572 -0.7611
  387MOL0     H52229  11.416   0.461  11.477 -0.3167 -2.8313  1.0149
  387MOL0     H52230  11.180   0.407  11.520 -1.8888  3.2340 -0.8560
  387MOL0     H52231  10.668   0.458  11.211  0.9456 -0.1849 -0.9489
  387MOL0     H52232  10.470   0.324  11.214 -0.2711  0.3762  0.4215
  387MOL0     H52233  10.294   0.224  11.258 -0.9567 -0.1901  0.5116
  387MOL0     H52234  10.229   0.059  11.271 -0.8605  1.1758 -0.4610
  387MOL0     H52235  10.317  -0.034  11.093  1.8286 -0.7378  2.1042
  387MOL0     H52236  10.426   0.095  11.060 -0.9959  0.3356 -1.0793
  387MOL0     H52237  10.228   0.246  10.999  0.6238 -0.7277 -0.5662
  387MOL0     H52238  10.106   0.134  11.043 -0.3051 -2.3401  1.7610
  387MOL0     H52239  10.164   0.140  10.792  1.1109  0.7335 -0.9159
  387MOL0     H52240  10.316   0.074  10.827 -1.1143  1.2985 -3.2974
  387MOL0     H52241  10.017  -0.242  10.862 -0.9587  0.4363 -3.2964
  387MOL0     H52242  10.644   0.002  11.425 -3.0783 -0.1624 -0.8314
  387MOL0     H52243  10.854  -0.002  11.452 -1.7250  0.4417 -0.1369
  387MOL0     H52244  10.970   0.110  11.376 -0.1248  1.3692 -0.5019
  387MOL0     H52245  10.918   0.148  11.544 -0.4695  3.4596 -0.5744
  388MOL0     O52246   0.035   1.066  10.573 -0.4223  0.4664  0.2239
  388MOL0     C52247  -0.010   1.173  10.535 -1.3688 -0.1650  0.5079
  388MOL0     O52248   0.025   1.289  10.592 -0.2506 -0.4353  0.3959
  388MOL0     C52249   0.141   1.309  10.659  0.8792  0.1870  0.0003
  388MOL0     C52250   0.187   1.233  10.767 -0.6854  0.0050  0.6995
  388MOL0     C52251   0.295   1.288  10.834 -0.0834  0.4115 -0.1260
  388MOL0     C52252   0.362   1.398  10.793  0.4035 -0.1038 -0.5822
  388MOL0     O52253   0.477   1.444  10.848  0.2918  0.2340  0.4604
  388MOL0     C52254   0.507   1.396  10.981 -1.0289  0.2109  0.7622
  388MOL0     C52255   0.608   1.484  11.037  0.1939 -0.4257 -0.4674
  388MOL0     C52256   0.654   1.445  11.178 -0.3589 -0.8050  0.7763
  388MOL0     C52257   0.800   1.487  11.191  0.1456  0.0223 -0.5220
  388MOL0     C52258   0.848   1.480  11.338  0.8706  0.4447  0.5042
  388MOL0     C52259   1.001   1.514  11.363  0.0901  0.0008 -0.3586
  388MOL0     C52260   1.102   1.417  11.314  0.9823 -0.3733  0.0594
  388MOL0     C52261   1.253   1.446  11.354  1.1497 -0.3578 -0.1557
  388MOL0     N52262   1.301   1.568  11.295  0.2375  0.3347 -0.8399
  388MOL0     C52263   1.284   1.606  11.165  0.9330  0.5596 -0.6447
  388MOL0     C52264   1.317   1.733  11.149 -0.5932 -0.1238  0.1037
  388MOL0     C52265   1.343   1.810  11.019 -0.0458  0.5418 -0.3824
  388MOL0     C52266   1.470   1.878  11.009  0.7931  0.2018 -0.2475
  388MOL0     C52267   1.577   1.774  11.025  0.1934 -0.0519  0.8682
  388MOL0     C52268   1.697   1.804  10.927 -0.3121  0.2241 -0.0935
  388MOL0     O52269   1.782   1.899  10.995 -0.7462 -0.5118 -0.7874
  388MOL0     C52270   1.903   1.938  10.945  0.9037 -0.0838  0.7510
  388MOL0     C52271   1.963   1.870  10.839 -0.4497  0.1699 -1.1741
  388MOL0     C52272   2.083   1.907  10.792 -0.1472  1.5558 -0.0675
  388MOL0     C52273   2.163   2.020  10.840  0.2499 -0.0073  0.4618
  388MOL0     C52274   2.274   2.069  10.773 -0.1204  0.5859 -0.1581
  388MOL0     O52275   2.288   2.040  10.628  0.1854  0.3209 -0.1832
  388MOL0     C52276   2.371   2.115  10.555  0.2151 -0.3745  0.1835
  388MOL0     C52277   2.495   2.059  10.507 -0.4642 -0.0272  0.4458
  388MOL0     C52278   2.580   2.125  10.425 -0.1663  0.0485  0.4584
  388MOL0     C52279   2.548   2.251  10.378  0.3796 -0.7246 -0.3720
  388MOL0     O52280   2.631   2.319  10.289  0.1068  0.3019 -0.0308
  388MOL0     C52281   2.634   2.460  10.288 -0.4298 -1.0679 -0.1619
  388MOL0     C52282   2.754   2.511  10.206 -0.0341 -0.3134  0.2904
  388MOL0     C52283   2.888   2.474  10.277  0.3161 -0.3238  0.2390
  388MOL0     C52284   2.988   2.587  10.258 -1.1427 -0.0120 -0.4329
  388MOL0     C52285   3.127   2.536  10.317  0.2027  0.4080 -0.3734
  388MOL0     C52286   3.222   2.647  10.285  0.4531 -0.1547  0.5134
  388MOL0     C52287   3.363   2.612  10.321 -0.0070  1.0337  0.6059
  388MOL0     C52288   3.451   2.738  10.339 -0.1555 -0.0912 -0.3248
  388MOL0    Cl52289   3.449   2.858  10.198  0.1160 -0.2596  0.5658
  388MOL0     C52290   2.420   2.312  10.420 -0.6499  0.1206  0.3817
  388MOL0     C52291   2.330   2.243  10.501 -0.3760  0.5368  0.3093
  388MOL0     O52292   2.349   2.132  10.843 -0.4549  0.0231  0.7853
  388MOL0     C52293   2.093   2.088  10.942  0.0998  0.2562  0.3234
  388MOL0     C52294   1.972   2.050  10.999 -0.1912  0.6615 -0.1213
  388MOL0     N52295   1.360   1.776  11.275  0.2486 -0.5677 -0.4002
  388MOL0     N52296   1.339   1.683  11.364 -0.1269 -0.2842 -0.4844
  388MOL0     C52297   0.317   1.471  10.686  0.7851 -0.0074 -0.5541
  388MOL0     C52298   0.201   1.426  10.625  0.6168  0.2198 -0.5372
  388MOL0     C52299  -0.094   1.174  10.416 -0.1468 -0.1952 -0.1099
  388MOL0     C52300  -0.064   1.269  10.317  0.9970 -0.7889 -0.0897
  388MOL0     C52301  -0.139   1.287  10.202 -0.6378  0.2706  0.5894
  388MOL0     C52302  -0.241   1.198  10.173  0.8289  0.3020 -0.4224
  388MOL0     O52303  -0.335   1.204  10.067  0.7159  0.2648 -0.2376
  388MOL0     C52304  -0.307   1.294   9.957 -0.5385  0.4499  0.1554
  388MOL0     C52305  -0.371   1.434   9.980 -0.3768  0.0361  0.0203
  388MOL0     C52306  -0.515   1.425   9.943  0.1195  0.7579 -0.1990
  388MOL0     C52307  -0.590   1.537  10.019  0.4471 -0.7157  0.1345
  388MOL0     C52308  -0.727   1.555   9.972 -0.2193  0.4606 -0.0971
  388MOL0     C52309  -0.831   1.554   9.915  0.4586  0.1765 -0.6645
  388MOL0     C52310  -0.263   1.091  10.260 -0.1882  0.6184  0.5609
  388MOL0     C52311  -0.200   1.080  10.382 -0.9360  0.7854 -0.0583
  388MOL0     C52312  -0.225   0.960  10.470  0.3906 -0.7227  0.8172
  388MOL0     H52313   0.135   1.139  10.785 -2.0738  0.6040 -0.0261
  388MOL0     H52314   0.319   1.234  10.925  1.0103  0.7619 -0.1924
  388MOL0     H52315   0.415   1.406  11.040 -1.1887 -1.5300  0.8578
  388MOL0     H52316   0.539   1.291  10.980  2.3297  1.1530  0.0138
  388MOL0     H52317   0.577   1.588  11.031 -2.6128 -1.2423 -2.3312
  388MOL0     H52318   0.695   1.479  10.970  0.9242  0.1613  0.4153
  388MOL0     H52319   0.641   1.337  11.193  0.7623 -1.1798 -0.6611
  388MOL0     H52320   0.589   1.500  11.246 -0.7928 -1.0055  0.5284
  388MOL0     H52321   0.864   1.426  11.127  1.2069  1.1802 -0.5977
  388MOL0     H52322   0.821   1.590  11.160 -3.4414  1.6288  1.6841
  388MOL0     H52323   0.795   1.563  11.387  1.7810 -0.1703  2.6761
  388MOL0     H52324   0.806   1.393  11.389  0.8940  0.4214  0.4837
  388MOL0     H52325   1.030   1.607  11.312 -1.6642  1.6312  1.4527
  388MOL0     H52326   1.014   1.533  11.469 -1.8722 -1.5789  0.2258
  388MOL0     H52327   1.086   1.402  11.207 -0.4550 -0.1110  0.2204
  388MOL0     H52328   1.077   1.323  11.364  0.3696  0.6788  1.8289
  388MOL0     H52329   1.261   1.446  11.464  1.7833 -0.3799 -0.1975
  388MOL0     H52330   1.319   1.364  11.325  1.3676 -0.2786  0.1086
  388MOL0     H52331   1.254   1.549  11.078 -2.2448  0.7837  0.1855
  388MOL0     H52332   1.321   1.746  10.933 -4.2196  1.2674 -0.0813
  388MOL0     H52333   1.269   1.891  11.016  0.0000  0.9788  3.7899
  388MOL0     H52334   1.472   1.931  10.912  0.3579  3.3945  1.3482
  388MOL0     H52335   1.471   1.952  11.089 -1.7310  0.4679 -0.3812
  388MOL0     H52336   1.540   1.677  10.993  0.9083 -1.1760  3.2173
  388MOL0     H52337   1.605   1.761  11.130  1.0819  0.5317  0.7208
  388MOL0     H52338   1.651   1.832  10.832 -3.2937 -0.3441  1.0562
  388MOL0     H52339   1.751   1.710  10.910 -0.4255  0.1926 -0.2897
  388MOL0     H52340   1.908   1.787  10.795 -0.8259  0.4813 -1.2951
  388MOL0     H52341   2.126   1.843  10.715 -1.2200 -1.8505  1.9808
  388MOL0     H52342   2.507   1.958  10.545 -3.2399 -0.7161 -0.2962
  388MOL0     H52343   2.677   2.083  10.400  1.3332  2.1097  2.3860
  388MOL0     H52344   2.550   2.511  10.239 -1.4611 -1.8728  0.7365
  388MOL0     H52345   2.637   2.500  10.389 -2.0318  2.4845 -1.3520
  388MOL0     H52346   2.745   2.456  10.112  0.2055  2.0107 -1.1522
  388MOL0     H52347   2.744   2.615  10.176  1.3935 -0.3586 -0.3994
  388MOL0     H52348   2.875   2.442  10.380  0.7401  0.8688  0.6795
  388MOL0     H52349   2.931   2.387  10.227  0.3982  0.0072 -0.2819
  388MOL0     H52350   2.950   2.676  10.310  2.0064  0.4397  1.3819
  388MOL0     H52351   2.999   2.600  10.150 -0.9385  0.1823 -0.3915
  388MOL0     H52352   3.164   2.450  10.260  1.1930  1.1881 -0.9562
  388MOL0     H52353   3.119   2.521  10.425 -1.2505  2.0570 -0.1951
  388MOL0     H52354   3.224   2.663  10.177 -1.9015  0.2246  0.4593
  388MOL0     H52355   3.181   2.732  10.342 -2.7267 -0.5370 -0.9760
  388MOL0     H52356   3.413   2.544  10.252  0.7329 -0.6803  2.7143
  388MOL0     H52357   3.369   2.559  10.416  0.0429 -0.8994 -0.4410
  388MOL0     H52358   3.429   2.784  10.436 -0.6288  0.9599 -0.9027
  388MOL0     H52359   3.554   2.702  10.345 -0.7190 -2.4728 -2.8671
  388MOL0     H52360   2.400   2.414  10.391  1.0279  0.7551  1.3190
  388MOL0     H52361   2.236   2.287  10.530 -0.1399  1.5493 -0.4009
  388MOL0     H52362   2.131   2.181  10.983 -3.6037  2.2800 -0.4880
  388MOL0     H52363   1.940   2.106  11.086 -0.4945  0.4697 -0.1078
  388MOL0     H52364   0.379   1.553  10.650 -1.1534  1.2321 -1.1917
  388MOL0     H52365   0.153   1.476  10.541 -2.0194 -2.5602 -0.8410
  388MOL0     H52366   0.012   1.343  10.337 -3.8857  4.0896  3.1033
  388MOL0     H52367  -0.119   1.368  10.133  0.7145 -1.8821 -1.7429
  388MOL0     H52368  -0.347   1.249   9.866  0.6912  0.3587 -0.3689
  388MOL0     H52369  -0.200   1.314   9.942 -1.2342  2.2875 -3.3605
  388MOL0     H52370  -0.320   1.515   9.927  0.6294 -0.6118 -0.0203
  388MOL0     H52371  -0.360   1.454  10.087 -0.3025  3.5205 -0.5251
  388MOL0     H52372  -0.564   1.329   9.960 -3.2864  2.5594  0.9566
  388MOL0     H52373  -0.516   1.452   9.837 -1.8317 -1.1097 -0.7184
  388MOL0     H52374  -0.588   1.506  10.124  1.1786  0.4017  0.4720
  388MOL0     H52375  -0.534   1.631  10.009 -0.9330  0.1862  0.5857
  388MOL0     H52376  -0.918   1.557   9.852  1.1048  2.6498 -1.5752
  388MOL0     H52377  -0.344   1.019  10.247  0.6913 -0.4834  1.0725
  388MOL0     H52378  -0.128   0.915  10.491  1.2508  0.1727 -1.0285
  388MOL0     H52379  -0.275   0.996  10.560 -4.7931  0.4538 -2.1259
  388MOL0     H52380  -0.282   0.891  10.408 -2.3897  2.6284 -0.7014
  389MOL0     O52381   8.524   1.908   9.818  1.2464 -0.8276  0.3379
  389MOL0     C52382   8.459   1.916   9.921  0.5702  0.1160 -0.2273
  389MOL0     O52383   8.318   1.928   9.931 -0.4271 -0.6189  0.2818
  389MOL0     C52384   8.257   1.911   9.808  0.5549 -0.7810  0.2568
  389MOL0     C52385   8.176   1.800   9.786  0.2016 -0.4095 -0.5765
  389MOL0     C52386   8.108   1.783   9.665  0.3270 -1.5930 -1.1164
  389MOL0     C52387   8.123   1.876   9.563 -0.6021 -0.2247  0.2749
  389MOL0     O52388   8.067   1.859   9.440  0.8644  0.9639  0.0367
  389MOL0     C52389   7.923   1.864   9.444  0.2521  0.9384 -0.1585
  389MOL0     C52390   7.870   1.942   9.326  0.0531  0.3173  0.1643
  389MOL0     C52391   7.869   1.859   9.199  0.0124 -0.4146 -0.0841
  389MOL0     C52392   7.755   1.909   9.110 -0.5901  0.3440 -0.2856
  389MOL0     C52393   7.766   1.845   8.969 -0.1690  0.3440  0.1155
  389MOL0     C52394   7.702   1.941   8.862 -0.3097 -0.1372  0.2360
  389MOL0     C52395   7.647   1.863   8.741 -0.1155 -0.7369  0.8010
  389MOL0     C52396   7.743   1.791   8.656  0.0618  0.3188  0.2192
  389MOL0     N52397   7.685   1.680   8.568  0.0955  0.2948 -0.0237
  389MOL0     C52398   7.593   1.673   8.468 -0.1946  0.1938 -0.9025
  389MOL0     C52399   7.599   1.546   8.425 -0.1880 -0.5354 -0.1391
  389MOL0     C52400   7.511   1.490   8.311 -0.3558  0.2402  1.1016
  389MOL0     C52401   7.586   1.499   8.179  0.0183 -0.1332 -1.0175
  389MOL0     C52402   7.706   1.413   8.162  0.2050  0.1192 -0.2511
  389MOL0     C52403   7.788   1.462   8.041  0.0764  0.8324 -0.6168
  389MOL0     O52404   7.878   1.357   8.004 -0.2584  1.4141  0.2854
  389MOL0     C52405   7.983   1.341   8.088  0.3569  0.9493  0.2385
  389MOL0     C52406   8.104   1.412   8.070  0.1656 -0.0410  0.4348
  389MOL0     C52407   8.207   1.391   8.155 -0.3225 -0.7995 -0.2622
  389MOL0     C52408   8.196   1.315   8.268  0.2202  0.4159  0.2810
  389MOL0     C52409   8.308   1.285   8.352  0.1591  0.7425  0.7354
  389MOL0     O52410   8.285   1.199   8.454 -0.3682 -0.4029  0.2102
  389MOL0     C52411   8.389   1.172   8.545 -0.4192 -0.6789  0.2680
  389MOL0     C52412   8.426   1.266   8.637  0.4739 -0.7925  0.1983
  389MOL0     C52413   8.531   1.232   8.721  0.2362 -0.4081  0.0647
  389MOL0     C52414   8.602   1.114   8.716  1.0564 -0.3167 -0.0625
  389MOL0     O52415   8.712   1.082   8.790  0.5067 -0.0528  0.0407
  389MOL0     C52416   8.740   1.154   8.905  0.0012 -0.2909 -0.7608
  389MOL0     C52417   8.848   1.090   8.986  0.1370  0.3622  0.2953
  389MOL0     C52418   8.866   1.158   9.126 -0.3107  0.0655 -0.7460
  389MOL0     C52419   8.926   1.298   9.108 -0.4442  0.1191  0.2308
  389MOL0     C52420   8.971   1.348   9.244  0.1130 -0.0157  1.2439
  389MOL0     C52421   9.103   1.281   9.299  0.2003 -0.0507  0.0511
  389MOL0     C52422   9.163   1.339   9.420  0.4270  0.1708 -0.1343
  389MOL0     C52423   9.264   1.445   9.388 -0.4603  0.1956 -0.3471
  389MOL0    Cl52424   9.408   1.373   9.303  0.0904  0.6857  0.0766
  389MOL0     C52425   8.561   1.023   8.621 -0.4981 -0.2960  0.0857
  389MOL0     C52426   8.462   1.059   8.525  0.1040 -0.6506 -0.7199
  389MOL0     O52427   8.416   1.334   8.319  0.2188 -0.0240 -0.2061
  389MOL0     C52428   8.075   1.244   8.287  0.2026 -0.0248 -0.2250
  389MOL0     C52429   7.971   1.252   8.196  0.0644  0.0371  0.3404
  389MOL0     N52430   7.702   1.486   8.496 -0.1221  0.4107  0.0587
  389MOL0     N52431   7.743   1.555   8.588 -0.3776  0.3219  0.3505
  389MOL0     C52432   8.216   1.979   9.578  0.7809 -0.1182  0.1424
  389MOL0     C52433   8.282   2.001   9.698  0.2922  0.2952  0.0661
  389MOL0     C52434   8.534   1.889  10.050 -0.3048 -0.8915  0.5241
  389MOL0     C52435   8.668   1.918  10.065  0.0310 -0.2263 -0.4138
  389MOL0     C52436   8.750   1.878  10.168 -0.1418  0.5172  0.4366
  389MOL0     C52437   8.685   1.809  10.274 -0.5242  0.1260  0.3833
  389MOL0     O52438   8.744   1.754  10.383  0.0824 -0.5346 -0.6550
  389MOL0     C52439   8.786   1.614  10.365 -0.4798 -0.1971  0.1631
  389MOL0     C52440   8.865   1.580  10.499 -0.0021  0.8859  0.2970
  389MOL0     C52441   8.984   1.678  10.512 -0.7735 -0.2098 -0.4568
  389MOL0     C52442   9.081   1.638  10.624  0.0293 -0.2446  0.1339
  389MOL0     C52443   9.176   1.753  10.644 -0.0218  0.3493 -0.5678
  389MOL0     C52444   9.249   1.851  10.650  0.4429  0.4493  0.5131
  389MOL0     C52445   8.552   1.780  10.270 -0.0098  0.4578 -0.1568
  389MOL0     C52446   8.473   1.819  10.159 -0.2056 -0.6364 -1.0141
  389MOL0     C52447   8.325   1.778  10.178  1.5660  0.7693 -0.1605
  389MOL0     H52448   8.164   1.716   9.853  0.3706 -1.2265 -1.5557
  389MOL0     H52449   8.055   1.689   9.654 -0.4049 -1.2563 -0.5069
  389MOL0     H52450   7.887   1.763   9.465  0.0637  1.0425  0.0278
  389MOL0     H52451   7.887   1.920   9.532 -0.7479 -0.1358  0.1340
  389MOL0     H52452   7.940   2.026   9.317 -0.2384  0.9354  2.7575
  389MOL0     H52453   7.769   1.974   9.351  0.2009 -1.2174  3.2504
  389MOL0     H52454   7.845   1.758   9.232  2.6046 -0.5146  1.8466
  389MOL0     H52455   7.968   1.860   9.153 -0.2845  0.1173 -0.7181
  389MOL0     H52456   7.656   1.890   9.154 -0.8998 -0.8527 -1.4205
  389MOL0     H52457   7.761   2.018   9.104  1.3371  0.3016  0.4830
  389MOL0     H52458   7.874   1.845   8.955 -0.2184  2.6515 -0.7687
  389MOL0     H52459   7.734   1.740   8.966  0.6094  0.0050  2.0671
  389MOL0     H52460   7.616   2.001   8.892 -0.2751  1.0062 -1.7136
  389MOL0     H52461   7.783   2.011   8.836 -1.3809 -0.2279 -4.2378
  389MOL0     H52462   7.586   1.919   8.670  2.3037  1.0648  0.0222
  389MOL0     H52463   7.585   1.784   8.785  0.8769 -2.5051 -0.7790
  389MOL0     H52464   7.782   1.860   8.581 -1.5166 -0.3648 -1.2814
  389MOL0     H52465   7.823   1.756   8.723 -1.1328  0.9046  2.0297
  389MOL0     H52466   7.550   1.755   8.411 -0.0557  0.5647 -0.4823
  389MOL0     H52467   7.487   1.384   8.326 -0.8416 -0.0626 -1.4188
  389MOL0     H52468   7.416   1.544   8.310 -1.9155 -2.3342  0.3299
  389MOL0     H52469   7.516   1.483   8.096  0.3752  1.4216 -1.6706
  389MOL0     H52470   7.622   1.602   8.171  0.9220 -0.2552  0.9794
  389MOL0     H52471   7.672   1.310   8.149 -0.4941  0.0448  1.7757
  389MOL0     H52472   7.778   1.424   8.244  1.5438 -0.5378 -1.2912
  389MOL0     H52473   7.844   1.553   8.062  2.0452  0.1134 -2.4271
  389MOL0     H52474   7.711   1.488   7.968 -1.3962  2.2841  1.3704
  389MOL0     H52475   8.095   1.478   7.984  0.3788 -3.0191 -2.0591
  389MOL0     H52476   8.296   1.447   8.131  0.5374 -1.2807  1.5813
  389MOL0     H52477   8.385   1.366   8.649  2.3646 -0.1253  1.7955
  389MOL0     H52478   8.558   1.315   8.786  0.6554  0.9287 -1.7485
  389MOL0     H52479   8.756   1.261   8.885  1.3799 -0.0356  1.3628
  389MOL0     H52480   8.655   1.146   8.973  1.2569 -1.1313  0.8033
  389MOL0     H52481   8.815   0.987   9.002  1.0534 -0.0937 -0.6362
  389MOL0     H52482   8.947   1.090   8.940  0.2688 -0.8163  0.5408
  389MOL0     H52483   8.773   1.154   9.183 -1.0261  3.3967 -1.4901
  389MOL0     H52484   8.942   1.105   9.185 -0.6595  0.9617  0.5504
  389MOL0     H52485   8.854   1.368   9.063  0.2685  0.3072 -0.6214
  389MOL0     H52486   9.014   1.295   9.044 -0.0519  1.3639  0.6696
  389MOL0     H52487   8.889   1.331   9.315 -2.1238  0.1434 -1.1827
  389MOL0     H52488   8.971   1.455   9.222 -0.8907 -0.4557 -1.2295
  389MOL0     H52489   9.086   1.174   9.314 -0.1168  0.0013  0.0642
  389MOL0     H52490   9.176   1.281   9.217 -0.0560 -3.4261 -0.3330
  389MOL0     H52491   9.203   1.253   9.474  0.5717 -1.8784 -3.2376
  389MOL0     H52492   9.085   1.382   9.484 -1.6467 -2.1778 -0.8861
  389MOL0     H52493   9.213   1.527   9.336  2.9249  1.2257 -2.3522
  389MOL0     H52494   9.294   1.474   9.489 -1.3056  0.9704 -0.3054
  389MOL0     H52495   8.615   0.929   8.610  0.4525  0.4033 -1.5974
  389MOL0     H52496   8.434   0.996   8.442 -1.7796 -2.2442  1.0176
  389MOL0     H52497   8.057   1.185   8.376  0.4194  1.9260  1.1891
  389MOL0     H52498   7.891   1.185   8.226  0.3711 -2.6606 -3.9980
  389MOL0     H52499   8.237   2.039   9.490 -2.6954  0.5525 -0.3866
  389MOL0     H52500   8.359   2.077   9.695 -1.8473  2.5483 -0.5414
  389MOL0     H52501   8.723   1.975   9.991  1.6347 -1.3236 -0.1155
  389MOL0     H52502   8.854   1.904  10.177 -0.1886  1.9073 -2.0130
  389MOL0     H52503   8.841   1.600  10.272  0.8826  6.3712 -0.5278
  389MOL0     H52504   8.694   1.557  10.357 -1.3672  1.0240  1.1510
  389MOL0     H52505   8.894   1.475  10.508 -1.6185  0.3598 -0.1977
  389MOL0     H52506   8.794   1.606  10.578 -0.1851 -0.8340  0.7424
  389MOL0     H52507   8.954   1.783  10.522  1.2644  0.5250 -1.4594
  389MOL0     H52508   9.042   1.668  10.420 -0.1372  0.3038 -0.1265
  389MOL0     H52509   9.024   1.609  10.713  3.0018  0.1590  2.3331
  389MOL0     H52510   9.144   1.554  10.595 -0.2005 -1.3181  2.4910
  389MOL0     H52511   9.313   1.936  10.655 -1.9301  2.3683 -0.1018
  389MOL0     H52512   8.510   1.722  10.352 -1.2240  0.0556 -1.0374
  389MOL0     H52513   8.259   1.852  10.133  0.0887 -0.7603 -0.6131
  389MOL0     H52514   8.319   1.688  10.116  0.7078  1.7462 -1.5563
  389MOL0     H52515   8.299   1.765  10.283  3.9135 -2.1253  0.2180
  390MOL0     O52516   4.399   3.625   5.354  0.3025 -0.2981  0.6645
  390MOL0     C52517   4.320   3.672   5.438 -0.3628 -0.1707 -0.1440
  390MOL0     O52518   4.361   3.742   5.546  0.4363 -0.5046  0.5198
  390MOL0     C52519   4.496   3.751   5.573 -0.6043  1.2781 -0.1936
  390MOL0     C52520   4.590   3.807   5.488 -0.5967  0.1346  0.6447
  390MOL0     C52521   4.714   3.835   5.530 -0.2318 -0.5353 -0.1059
  390MOL0     C52522   4.750   3.797   5.667  0.2335  0.2536  0.1968
  390MOL0     O52523   4.863   3.842   5.733  0.6256  0.0233  0.1182
  390MOL0     C52524   4.989   3.802   5.671  0.4678 -0.0627  0.0996
  390MOL0     C52525   5.089   3.779   5.783  1.0803  0.5126 -0.5359
  390MOL0     C52526   5.228   3.758   5.719  0.0631  0.4162 -0.3490
  390MOL0     C52527   5.325   3.731   5.827 -0.5380  0.4914  0.0983
  390MOL0     C52528   5.472   3.770   5.795  0.3086 -0.5832  0.4132
  390MOL0     C52529   5.525   3.682   5.668 -0.2057 -0.2667 -0.6952
  390MOL0     C52530   5.517   3.525   5.679  1.0304 -0.1518 -0.3537
  390MOL0     C52531   5.607   3.463   5.789 -0.0940  0.3774 -0.5851
  390MOL0     N52532   5.742   3.461   5.740  0.2051 -0.3105 -0.2504
  390MOL0     C52533   5.810   3.378   5.650  0.0904 -0.0341  0.1931
  390MOL0     C52534   5.925   3.452   5.631  0.3001  0.2047  0.4054
  390MOL0     C52535   6.015   3.410   5.514 -0.2040  0.1295  0.2737
  390MOL0     C52536   6.135   3.335   5.567 -0.1829  0.0992  0.2629
  390MOL0     C52537   6.250   3.335   5.467  0.3329 -0.3451 -0.2348
  390MOL0     C52538   6.359   3.255   5.519  0.1621  0.1148  0.5189
  390MOL0     O52539   6.482   3.288   5.454  0.8306  0.1423 -0.3746
  390MOL0     C52540   6.603   3.231   5.501 -0.2328  0.0147  0.2637
  390MOL0     C52541   6.619   3.128   5.600  0.2192  0.3310  0.0423
  390MOL0     C52542   6.745   3.100   5.656 -0.4092 -0.1593 -0.5089
  390MOL0     C52543   6.857   3.147   5.591  0.2117  0.0537  0.3877
  390MOL0     C52544   6.997   3.098   5.624  0.4957 -0.1999  0.0540
  390MOL0     O52545   7.103   3.180   5.603  0.0403 -0.8896  0.2451
  390MOL0     C52546   7.227   3.127   5.638 -0.1456  0.0916  0.4451
  390MOL0     C52547   7.307   3.077   5.531 -0.0768 -0.2292 -0.2476
  390MOL0     C52548   7.426   3.019   5.562  0.0416 -0.5043  0.5929
  390MOL0     C52549   7.472   3.005   5.690 -0.1245  0.6004  0.3390
  390MOL0     O52550   7.595   2.945   5.716  0.6451  0.1819 -0.6376
  390MOL0     C52551   7.646   2.855   5.614 -0.5732  0.3992  0.5719
  390MOL0     C52552   7.764   2.774   5.673  0.3311  0.1729 -0.8880
  390MOL0     C52553   7.844   2.702   5.563  0.2696  0.0461 -0.0773
  390MOL0     C52554   7.945   2.612   5.616  0.1820 -0.8294  0.2062
  390MOL0     C52555   7.941   2.480   5.554 -0.2985 -0.4255  0.3550
  390MOL0     C52556   8.072   2.398   5.587  0.1605  0.6695 -0.0267
  390MOL0     C52557   8.111   2.302   5.481  0.1263 -1.2233 -1.1751
  390MOL0     C52558   8.225   2.212   5.530  0.0360  0.1968 -0.0499
  390MOL0    Cl52559   8.307   2.131   5.385  0.2861  0.0810 -0.0544
  390MOL0     C52560   7.383   3.047   5.794  0.1214 -0.1877 -0.8642
  390MOL0     C52561   7.266   3.111   5.772 -0.2914 -0.0015 -0.1108
  390MOL0     O52562   7.003   2.988   5.674 -0.0002  0.8461  0.0732
  390MOL0     C52563   6.846   3.232   5.482  0.3154 -0.9527 -0.3560
  390MOL0     C52564   6.720   3.281   5.450 -1.1338 -0.7308  0.9536
  390MOL0     N52565   5.925   3.567   5.706 -0.4116 -0.0699 -0.2846
  390MOL0     N52566   5.827   3.561   5.776  0.8037 -0.4104 -0.0666
  390MOL0     C52567   4.664   3.722   5.741 -0.1011 -0.1760 -0.0488
  390MOL0     C52568   4.534   3.695   5.695  0.2456 -0.9402 -0.3032
  390MOL0     C52569   4.164   3.671   5.424  0.1991  0.0372 -0.9512
  390MOL0     C52570   4.091   3.660   5.545  1.0715 -0.3524 -0.9045
  390MOL0     C52571   3.953   3.636   5.547  0.4799 -0.3610 -0.2792
  390MOL0     C52572   3.881   3.645   5.423 -0.8534  1.1138 -0.0960
  390MOL0     O52573   3.744   3.634   5.412  0.4161  0.0268  0.0071
  390MOL0     C52574   3.661   3.662   5.527 -1.3255 -0.5590  0.2866
  390MOL0     C52575   3.625   3.813   5.511  0.4221 -0.4280 -0.0457
  390MOL0     C52576   3.730   3.901   5.583  0.4409 -0.6255  0.0989
  390MOL0     C52577   3.702   4.051   5.585 -0.4341 -0.1693  0.1357
  390MOL0     C52578   3.593   4.068   5.692 -0.4619  0.5209  0.0622
  390MOL0     C52579   3.511   4.080   5.779  0.3610  0.6246 -0.5188
  390MOL0     C52580   3.957   3.650   5.302  1.1739  0.3348 -0.4532
  390MOL0     C52581   4.099   3.658   5.302 -0.3512  0.2223  0.5343
  390MOL0     C52582   4.173   3.673   5.168 -0.7954 -0.2917  1.5294
  390MOL0     H52583   4.560   3.827   5.386  2.5172 -2.4692 -0.9641
  390MOL0     H52584   4.785   3.885   5.465 -1.7697  2.6479  0.4581
  390MOL0     H52585   4.961   3.713   5.614 -1.4397  0.2722  0.4702
  390MOL0     H52586   5.011   3.887   5.606 -0.6350  1.0187  1.1036
  390MOL0     H52587   5.060   3.697   5.849  0.5468 -0.2695 -1.7193
  390MOL0     H52588   5.094   3.877   5.832 -1.0311  0.0252  0.7742
  390MOL0     H52589   5.256   3.839   5.650 -2.4792  1.6597 -0.0510
  390MOL0     H52590   5.218   3.674   5.651  0.4281  0.0224  0.0762
  390MOL0     H52591   5.301   3.790   5.915  0.2913 -0.3938  0.9451
  390MOL0     H52592   5.323   3.627   5.862 -0.7078  0.7967  0.9975
  390MOL0     H52593   5.476   3.877   5.774 -0.7877 -0.4781  0.6720
  390MOL0     H52594   5.531   3.755   5.886  0.5621 -3.4739 -0.1262
  390MOL0     H52595   5.476   3.716   5.576  0.5499  4.1033  0.2965
  390MOL0     H52596   5.631   3.704   5.648 -0.2131 -0.3532 -0.8287
  390MOL0     H52597   5.521   3.473   5.583 -1.1416  0.2530 -0.7146
  390MOL0     H52598   5.418   3.501   5.720  0.8328  0.1668 -0.6399
  390MOL0     H52599   5.601   3.511   5.887 -1.4759  0.5639 -0.7392
  390MOL0     H52600   5.586   3.363   5.828  0.7232  0.4744  0.1459
  390MOL0     H52601   5.779   3.283   5.608  1.5946 -1.0188  1.2185
  390MOL0     H52602   5.961   3.353   5.439  1.0012 -0.5138 -0.1272
  390MOL0     H52603   6.050   3.501   5.463 -1.0837  0.3633  0.0735
  390MOL0     H52604   6.167   3.384   5.660 -1.6522  0.7805  0.4384
  390MOL0     H52605   6.109   3.230   5.584  0.0707  0.0966  0.6481
  390MOL0     H52606   6.282   3.438   5.448 -0.3594 -0.0587  0.0993
  390MOL0     H52607   6.203   3.282   5.384 -2.1931 -2.2618  2.2025
  390MOL0     H52608   6.326   3.150   5.518  0.4657 -0.0146  2.0939
  390MOL0     H52609   6.373   3.290   5.622 -3.2340  2.4096  0.3635
  390MOL0     H52610   6.531   3.082   5.645  0.1769  0.9026  0.5434
  390MOL0     H52611   6.776   3.032   5.735 -1.9996 -0.7117 -0.3280
  390MOL0     H52612   7.278   3.108   5.431  0.5202  2.1704  0.2506
  390MOL0     H52613   7.484   2.988   5.476 -2.8982 -3.0477 -0.6569
  390MOL0     H52614   7.568   2.786   5.579  0.2684 -0.6306  0.6887
  390MOL0     H52615   7.684   2.913   5.530  0.6927  1.1293  1.6207
  390MOL0     H52616   7.834   2.842   5.723  2.2710 -2.0229 -0.4542
  390MOL0     H52617   7.723   2.705   5.747  0.7916  0.8428  0.0151
  390MOL0     H52618   7.770   2.654   5.499 -1.1591  2.7355 -0.5894
  390MOL0     H52619   7.888   2.786   5.508 -2.0034  1.3840  0.0343
  390MOL0     H52620   7.924   2.600   5.723 -1.7090 -4.8010 -0.4308
  390MOL0     H52621   8.041   2.662   5.600 -0.3070  0.4714  1.1373
  390MOL0     H52622   7.943   2.491   5.445  0.6868  1.4504  0.5294
  390MOL0     H52623   7.852   2.425   5.585 -2.8756  0.9077 -3.8999
  390MOL0     H52624   8.159   2.463   5.591  2.3356 -1.9018 -2.0626
  390MOL0     H52625   8.056   2.351   5.684  2.5822  0.1158  0.1562
  390MOL0     H52626   8.134   2.364   5.394  1.9857  2.8196  1.8678
  390MOL0     H52627   8.034   2.228   5.453 -0.3907 -1.5078  0.8632
  390MOL0     H52628   8.295   2.285   5.573  1.1802 -0.1942 -1.1673
  390MOL0     H52629   8.199   2.137   5.604 -3.6899  0.3780 -0.9720
  390MOL0     H52630   7.424   3.029   5.892  1.7106  1.1172 -1.2366
  390MOL0     H52631   7.204   3.143   5.855  1.1266  2.0058  0.2465
  390MOL0     H52632   6.937   3.272   5.438 -0.1637 -1.1866 -1.5883
  390MOL0     H52633   6.710   3.359   5.375 -1.1906  0.5835  2.2894
  390MOL0     H52634   4.689   3.676   5.836 -0.4978 -0.6727 -0.1846
  390MOL0     H52635   4.449   3.655   5.748 -0.0365  0.7136  0.5718
  390MOL0     H52636   4.128   3.660   5.647 -1.2807  3.6624  0.1526
  390MOL0     H52637   3.907   3.603   5.640 -2.4051 -1.9792 -2.1434
  390MOL0     H52638   3.699   3.643   5.628 -0.4990  1.2670  0.3622
  390MOL0     H52639   3.574   3.598   5.512 -2.7294  1.1555  0.8809
  390MOL0     H52640   3.524   3.824   5.554 -1.5221  0.5346 -4.3284
  390MOL0     H52641   3.614   3.848   5.409  1.4650 -0.0978 -0.0523
  390MOL0     H52642   3.828   3.890   5.534 -0.5169  2.1041 -2.7191
  390MOL0     H52643   3.740   3.870   5.688  1.2840  0.4165  0.3438
  390MOL0     H52644   3.791   4.106   5.618 -2.5641  1.8096  3.0899
  390MOL0     H52645   3.672   4.098   5.491 -3.2329  0.1041  1.0612
  390MOL0     H52646   3.440   4.115   5.850  0.4301  1.6925 -0.9517
  390MOL0     H52647   3.898   3.653   5.211  0.6758 -1.7629 -0.2475
  390MOL0     H52648   4.250   3.751   5.162  1.4346 -2.3288  1.8105
  390MOL0     H52649   4.238   3.585   5.159  1.3744  1.3511  0.2353
  390MOL0     H52650   4.098   3.678   5.089 -2.5841 -0.8419  3.1146
  391MOL0     O52651   4.312   7.233   1.716 -0.0142 -0.3626  0.2712
  391MOL0     C52652   4.244   7.127   1.708 -0.2551  0.0183 -0.9178
  391MOL0     O52653   4.288   7.009   1.746  0.2415  0.4021 -0.2529
  391MOL0     C52654   4.417   6.999   1.785  0.0745  0.1256 -0.2218
  391MOL0     C52655   4.533   7.064   1.725  0.9702  0.5192 -0.3661
  391MOL0     C52656   4.653   7.046   1.792 -0.6628  0.1015 -0.0022
  391MOL0     C52657   4.671   6.974   1.910 -0.1384  0.7957 -0.8020
  391MOL0     O52658   4.792   6.938   1.958 -0.0659  0.1422 -0.6540
  391MOL0     C52659   4.886   7.042   1.966 -1.2051 -0.4812  0.3741
  391MOL0     C52660   5.020   6.960   1.974  0.1318 -1.9331 -0.0273
  391MOL0     C52661   5.145   7.053   1.955  0.3187  0.1644  0.1807
  391MOL0     C52662   5.266   6.966   1.958 -0.1994  0.1053 -0.2895
  391MOL0     C52663   5.394   7.053   1.925  0.2597  0.3851  0.8731
  391MOL0     C52664   5.403   7.097   1.774 -0.5505  0.3653 -0.0017
  391MOL0     C52665   5.537   7.163   1.743  0.2661 -0.6525  0.8208
  391MOL0     C52666   5.535   7.220   1.603 -0.0590  0.0041  0.2072
  391MOL0     N52667   5.643   7.328   1.596 -0.5712 -0.6060  1.4689
  391MOL0     C52668   5.781   7.307   1.614 -0.4929 -0.0965  0.7671
  391MOL0     C52669   5.840   7.420   1.577 -0.3936 -0.4784 -0.2940
  391MOL0     C52670   5.985   7.437   1.586  0.3643  0.3156 -0.1172
  391MOL0     C52671   6.066   7.332   1.511  0.4665 -0.4009 -0.0944
  391MOL0     C52672   6.208   7.328   1.567  0.2009  0.7434 -0.4219
  391MOL0     C52673   6.300   7.258   1.462  1.4602 -0.7535 -0.4455
  391MOL0     O52674   6.362   7.364   1.388  0.1723  0.4366  0.6157
  391MOL0     C52675   6.479   7.427   1.423  0.4474  0.5847  0.4439
  391MOL0     C52676   6.564   7.395   1.533 -0.1739 -0.5123  0.2818
  391MOL0     C52677   6.695   7.455   1.552  0.0004  0.2517 -0.2213
  391MOL0     C52678   6.728   7.561   1.472 -0.1939 -0.1045  0.3354
  391MOL0     C52679   6.869   7.629   1.488  1.1004 -0.7289  0.8092
  391MOL0     O52680   6.941   7.608   1.602  0.3828  0.0144  0.3281
  391MOL0     C52681   7.060   7.680   1.617 -0.1917  0.1135  0.0337
  391MOL0     C52682   7.166   7.677   1.512  0.3215 -0.5697 -0.8432
  391MOL0     C52683   7.288   7.738   1.537 -0.8707 -0.4083 -0.1501
  391MOL0     C52684   7.328   7.781   1.661 -0.3171 -0.3952 -0.6458
  391MOL0     O52685   7.455   7.828   1.694 -0.7953  0.2915 -0.2683
  391MOL0     C52686   7.552   7.844   1.593 -0.0740 -0.5113  0.2531
  391MOL0     C52687   7.676   7.924   1.646  0.2475 -0.0601 -0.0479
  391MOL0     C52688   7.757   7.839   1.745  0.2024  0.2021  0.2267
  391MOL0     C52689   7.833   7.920   1.848  0.0441  1.0892  0.8487
  391MOL0     C52690   7.909   7.819   1.936  0.1239  0.3791 -0.2801
  391MOL0     C52691   7.990   7.891   2.050  0.5828  1.0703 -0.1189
  391MOL0     C52692   8.102   7.799   2.109  0.6881  0.2588  0.2958
  391MOL0     C52693   8.043   7.690   2.193  0.0853 -0.2293 -0.5537
  391MOL0    Cl52694   7.986   7.776   2.339 -0.1990 -0.2881  0.2402
  391MOL0     C52695   7.228   7.781   1.765 -0.0153 -0.6752  0.2214
  391MOL0     C52696   7.096   7.731   1.743 -0.7187 -0.3737 -0.0607
  391MOL0     O52697   6.902   7.692   1.391  0.2672  0.8374 -0.0273
  391MOL0     C52698   6.638   7.595   1.365  0.0528 -1.1763  0.0733
  391MOL0     C52699   6.520   7.533   1.344  0.7075  0.2937  0.0539
  391MOL0     N52700   5.743   7.517   1.544 -0.7377  1.0381 -0.2115
  391MOL0     N52701   5.624   7.454   1.547 -0.5113 -0.1965 -0.4491
  391MOL0     C52702   4.554   6.921   1.967  0.1114 -0.1496 -0.2697
  391MOL0     C52703   4.434   6.939   1.908  0.3566  0.2628 -0.1630
  391MOL0     C52704   4.105   7.137   1.662  0.4244  0.8108  0.4128
  391MOL0     C52705   4.011   7.032   1.689 -0.0810  0.3989 -0.9007
  391MOL0     C52706   3.874   7.042   1.661 -0.2028  0.8962 -0.0437
  391MOL0     C52707   3.818   7.141   1.582  0.4127 -1.7551 -0.0967
  391MOL0     O52708   3.685   7.165   1.553  0.2606  0.1795 -0.2968
  391MOL0     C52709   3.594   7.054   1.576  0.0405 -0.7225 -0.2031
  391MOL0     C52710   3.529   7.063   1.710 -0.0972  0.1072  0.5522
  391MOL0     C52711   3.408   7.153   1.706 -0.3652  0.3464 -0.6727
  391MOL0     C52712   3.367   7.223   1.839  0.5852  0.7317  0.1111
  391MOL0     C52713   3.323   7.126   1.945 -0.0744  0.3413  0.0372
  391MOL0     C52714   3.298   7.037   2.026 -0.7447  0.4141 -0.2267
  391MOL0     C52715   3.920   7.232   1.536  0.0354 -0.0442  0.4786
  391MOL0     C52716   4.056   7.238   1.571 -0.7969 -0.4453  0.0882
  391MOL0     C52717   4.140   7.350   1.522  0.2408 -1.0597  0.2348
  391MOL0     H52718   4.503   7.103   1.629  1.6863  1.2805 -0.2921
  391MOL0     H52719   4.743   7.057   1.732 -0.2342 -0.8371  0.4566
  391MOL0     H52720   4.906   7.091   1.870  1.7940 -1.7344  0.2408
  391MOL0     H52721   4.876   7.114   2.047  0.2904  1.3394 -0.9997
  391MOL0     H52722   5.021   6.890   1.890  2.6677 -1.8062 -0.1959
  391MOL0     H52723   5.031   6.895   2.062 -0.5534 -2.6343 -0.4444
  391MOL0     H52724   5.135   7.122   2.039  1.0090 -0.7381  1.0307
  391MOL0     H52725   5.150   7.105   1.859  1.5633  0.3740  0.3479
  391MOL0     H52726   5.278   6.915   2.054 -0.5108 -0.7409 -0.6845
  391MOL0     H52727   5.267   6.897   1.873  0.3695  1.5585 -1.5249
  391MOL0     H52728   5.392   7.149   1.978  0.3295  1.0832 -0.3502
  391MOL0     H52729   5.483   6.989   1.929 -0.0502 -0.8661 -4.8587
  391MOL0     H52730   5.388   7.010   1.709 -0.8741  2.2029 -2.5121
  391MOL0     H52731   5.320   7.165   1.753  0.0085  1.6865  1.7476
  391MOL0     H52732   5.620   7.095   1.759 -0.0497 -1.6189 -1.3329
  391MOL0     H52733   5.546   7.246   1.813 -0.3525  2.2099 -2.2315
  391MOL0     H52734   5.546   7.146   1.523 -1.9295  0.5992 -0.6440
  391MOL0     H52735   5.440   7.271   1.583 -0.9843 -1.4948  0.6372
  391MOL0     H52736   5.826   7.218   1.657 -0.2897  0.7097  2.2913
  391MOL0     H52737   6.013   7.538   1.555 -1.1242  0.4347 -1.1474
  391MOL0     H52738   6.001   7.427   1.694  0.3588 -1.7607 -0.2712
  391MOL0     H52739   6.026   7.235   1.544 -1.7410  0.3682 -0.3305
  391MOL0     H52740   6.047   7.344   1.404 -1.5629 -2.6848 -0.0907
  391MOL0     H52741   6.197   7.270   1.659  2.4862 -3.0869 -2.3432
  391MOL0     H52742   6.243   7.429   1.591  0.5705  0.6499 -0.5647
  391MOL0     H52743   6.245   7.194   1.393 -0.2915 -1.4936  1.5236
  391MOL0     H52744   6.368   7.188   1.512  0.8936 -0.9420  0.0731
  391MOL0     H52745   6.521   7.321   1.600 -2.9390 -0.1012 -0.9220
  391MOL0     H52746   6.765   7.423   1.628  0.7756  2.6509  0.1389
  391MOL0     H52747   7.151   7.620   1.421 -2.2150 -0.8507 -0.3115
  391MOL0     H52748   7.365   7.730   1.461 -0.7792  1.6462 -0.3368
  391MOL0     H52749   7.600   7.750   1.565 -0.9451 -0.9892  0.3353
  391MOL0     H52750   7.508   7.901   1.511 -2.8585 -2.4072  0.3059
  391MOL0     H52751   7.740   7.963   1.567  1.2892 -0.3489  0.6410
  391MOL0     H52752   7.638   8.014   1.696  0.1324  0.9689 -1.8967
  391MOL0     H52753   7.695   7.773   1.806 -0.3087  0.6860  0.2351
  391MOL0     H52754   7.830   7.778   1.690  0.0029  0.1323  0.0371
  391MOL0     H52755   7.765   7.987   1.903 -1.8494  1.2318 -1.4674
  391MOL0     H52756   7.910   7.980   1.798  0.8209  0.8880  1.7736
  391MOL0     H52757   7.973   7.756   1.874 -0.8218  0.2865 -1.1948
  391MOL0     H52758   7.831   7.755   1.976 -2.2838  1.8214 -2.3580
  391MOL0     H52759   8.037   7.971   1.993 -1.0663  0.1598 -2.9759
  391MOL0     H52760   7.923   7.941   2.120  0.2142 -1.4271  1.4553
  391MOL0     H52761   8.170   7.859   2.170  1.6450 -0.9290  0.4347
  391MOL0     H52762   8.170   7.756   2.035  0.8218  1.1524 -0.1090
  391MOL0     H52763   7.966   7.637   2.137  0.8459 -1.0076 -0.8782
  391MOL0     H52764   8.125   7.620   2.210 -1.9013 -2.4479  0.4407
  391MOL0     H52765   7.264   7.813   1.862  0.5105 -1.6560  0.3624
  391MOL0     H52766   7.026   7.737   1.825 -1.1594  0.3516 -0.4771
  391MOL0     H52767   6.665   7.676   1.298  1.8582 -2.0951 -0.3875
  391MOL0     H52768   6.451   7.557   1.264  1.3556 -1.4788 -1.1195
  391MOL0     H52769   4.556   6.870   2.064 -0.6662  4.3509  2.3961
  391MOL0     H52770   4.341   6.898   1.946  0.8893 -1.4536 -0.6306
  391MOL0     H52771   4.045   6.957   1.759 -0.8999 -0.3045 -1.2359
  391MOL0     H52772   3.807   6.965   1.696 -1.7479  2.4474  0.5840
  391MOL0     H52773   3.647   6.958   1.572  2.9837  0.8506 -1.3210
  391MOL0     H52774   3.521   7.052   1.493  1.6467 -0.7778 -1.6726
  391MOL0     H52775   3.604   7.099   1.781  1.2155  0.9074 -1.1785
  391MOL0     H52776   3.490   6.964   1.737 -1.3159 -0.2990 -2.3671
  391MOL0     H52777   3.330   7.096   1.655  0.5489 -1.2639 -0.3376
  391MOL0     H52778   3.445   7.240   1.651 -0.0364  1.3847  1.1135
  391MOL0     H52779   3.445   7.283   1.886  0.7039  0.4156  0.3243
  391MOL0     H52780   3.284   7.289   1.813  1.2347  1.1164 -1.0910
  391MOL0     H52781   3.270   6.956   2.090  0.5097 -1.7517 -2.2469
  391MOL0     H52782   3.881   7.314   1.477  0.7286  0.5216  0.7926
  391MOL0     H52783   4.148   7.423   1.602 -0.4327  1.3191 -1.7508
  391MOL0     H52784   4.242   7.319   1.496  1.8278  3.3319  0.3317
  391MOL0     H52785   4.094   7.397   1.434 -0.3281 -1.8233  0.1125
  392MOL0     O52786   5.000  10.569  11.173 -0.3849  0.3473 -0.3722
  392MOL0     C52787   4.912  10.564  11.086 -0.7697  0.8557  0.1855
  392MOL0     O52788   4.930  10.542  10.949  0.1062 -0.0599 -0.3096
  392MOL0     C52789   5.059  10.541  10.897  0.4217 -0.6843 -0.2265
  392MOL0     C52790   5.094  10.434  10.816  0.1508  0.0122  0.0500
  392MOL0     C52791   5.222  10.436  10.755  0.2658  0.2648 -0.5877
  392MOL0     C52792   5.315  10.545  10.776  0.5957 -0.4818  0.2415
  392MOL0     O52793   5.429  10.564  10.699  0.7189  0.1517  0.0510
  392MOL0     C52794   5.519  10.453  10.708  0.2699 -0.2213 -0.4367
  392MOL0     C52795   5.645  10.513  10.642 -0.4883 -0.0525 -0.0769
  392MOL0     C52796   5.772  10.417  10.650 -0.3731 -0.3556  1.0551
  392MOL0     C52797   5.895  10.465  10.583  0.0771  0.1886 -0.1942
  392MOL0     C52798   6.002  10.365  10.607  0.3659 -0.1331  0.5361
  392MOL0     C52799   6.123  10.399  10.532  0.2080 -0.5629 -0.6922
  392MOL0     C52800   6.226  10.284  10.553  0.8602  0.4151 -0.3430
  392MOL0     C52801   6.337  10.286  10.439  0.3573  0.2837 -0.3858
  392MOL0     N52802   6.457  10.220  10.479  0.9562  0.6973 -0.6254
  392MOL0     C52803   6.525  10.241  10.595 -0.4842 -0.3554  1.5806
  392MOL0     C52804   6.616  10.149  10.593 -0.6331  0.6908  0.8582
  392MOL0     C52805   6.723  10.131  10.688 -0.3187 -0.0837 -0.8340
  392MOL0     C52806   6.694  10.004  10.769 -0.6669 -0.0232 -0.6950
  392MOL0     C52807   6.629  10.019  10.909 -0.6652 -0.0492  0.3976
  392MOL0     C52808   6.490  10.099  10.908 -0.3880 -0.1706  0.2901
  392MOL0     O52809   6.405  10.022  10.809  0.0197 -0.2679  0.2590
  392MOL0     C52810   6.273  10.046  10.802  0.3389 -0.6701  0.2635
  392MOL0     C52811   6.197   9.968  10.712 -0.9482  0.3926  0.8584
  392MOL0     C52812   6.059   9.988  10.708 -0.2060 -0.8526 -0.2802
  392MOL0     C52813   5.988  10.073  10.794 -0.5970 -0.4864  0.4255
  392MOL0     C52814   5.836  10.066  10.779  0.1327 -0.2379 -0.3957
  392MOL0     O52815   5.760  10.075  10.893  0.5440  0.2333  0.0020
  392MOL0     C52816   5.622  10.075  10.883  0.1761 -0.2565 -0.0467
  392MOL0     C52817   5.550  10.180  10.937  0.1039  0.5764  0.5348
  392MOL0     C52818   5.408  10.180  10.929 -0.5359 -1.1479  1.0419
  392MOL0     C52819   5.338  10.071  10.865  0.0632  0.2453  0.0158
  392MOL0     O52820   5.206  10.098  10.851 -0.7525 -0.0417 -0.0787
  392MOL0     C52821   5.137  10.026  10.752 -0.5837  0.6072  0.8811
  392MOL0     C52822   4.992  10.035  10.794 -0.7123  0.1865 -0.5899
  392MOL0     C52823   4.894   9.994  10.679 -0.6340 -0.1738  0.4904
  392MOL0     C52824   4.752   9.993  10.714  0.6976  0.8214 -0.6188
  392MOL0     C52825   4.660   9.954  10.592  0.1292  0.4295 -0.0761
  392MOL0     C52826   4.514   9.943  10.645  0.8081 -0.4694 -0.4758
  392MOL0     C52827   4.416   9.912  10.529  0.3963 -0.0249 -0.5438
  392MOL0     C52828   4.410   9.765  10.481 -0.7539 -0.0260 -0.3119
  392MOL0    Cl52829   4.238   9.725  10.452  0.4680 -0.2139 -0.7911
  392MOL0     C52830   5.416   9.968  10.817  0.2430  0.7815 -0.1912
  392MOL0     C52831   5.551   9.968  10.825  0.2444  0.5033 -0.3019
  392MOL0     O52832   5.794  10.051  10.665  0.0397  0.4235  0.7185
  392MOL0     C52833   6.065  10.169  10.868 -0.0004 -0.1106  0.6036
  392MOL0     C52834   6.202  10.144  10.878  0.7276  0.3375  0.6602
  392MOL0     N52835   6.602  10.072  10.473 -0.1799 -0.4557  0.0527
  392MOL0     N52836   6.499  10.114  10.404 -0.2365  0.2306 -0.1239
  392MOL0     C52837   5.281  10.632  10.873  0.4305 -0.2811 -1.1348
  392MOL0     C52838   5.154  10.637  10.929  0.1604  0.6792  1.2713
  392MOL0     C52839   4.778  10.555  11.139  0.6612  0.5962 -0.0461
  392MOL0     C52840   4.693  10.446  11.085 -0.7256 -0.1144  0.0250
  392MOL0     C52841   4.563  10.424  11.123  0.3046  0.1091 -1.0087
  392MOL0     C52842   4.509  10.508  11.224  0.5514 -0.1743 -0.3285
  392MOL0     O52843   4.389  10.494  11.279  0.0189  0.1370  0.0289
  392MOL0     C52844   4.308  10.381  11.236  0.6742 -0.1471  0.3299
  392MOL0     C52845   4.153  10.397  11.247 -0.7527  0.1412  0.2022
  392MOL0     C52846   4.091  10.502  11.151 -1.0063  0.3634  0.4207
  392MOL0     C52847   3.946  10.527  11.193 -0.2603 -0.0389 -0.1876
  392MOL0     C52848   3.938  10.600  11.323 -0.6468 -0.1567  0.8923
  392MOL0     C52849   3.928  10.649  11.432 -0.3975 -0.2090  0.6884
  392MOL0     C52850   4.580  10.617  11.270 -0.8583 -0.3870  0.3694
  392MOL0     C52851   4.711  10.639  11.235 -0.7939 -0.6774 -0.2048
  392MOL0     C52852   4.794  10.753  11.295  0.3287 -0.3569 -0.3207
  392MOL0     H52853   5.028  10.354  10.784  0.0660 -0.2258  0.8097
  392MOL0     H52854   5.235  10.365  10.675 -1.8664  1.2394 -1.8816
  392MOL0     H52855   5.520  10.418  10.811 -1.2205 -0.7779 -0.5819
  392MOL0     H52856   5.492  10.363  10.651 -0.8287 -0.6894  0.7630
  392MOL0     H52857   5.675  10.594  10.708  0.8609 -2.0009  1.8638
  392MOL0     H52858   5.630  10.546  10.539 -0.4319 -0.1534 -0.1188
  392MOL0     H52859   5.738  10.319  10.615 -0.6419  0.1667 -0.2113
  392MOL0     H52860   5.792  10.417  10.758 -0.9975 -1.3225  1.1814
  392MOL0     H52861   5.892  10.499  10.479 -0.4545 -0.1237 -0.2852
  392MOL0     H52862   5.929  10.554  10.637  0.6339 -1.2057  1.8985
  392MOL0     H52863   6.020  10.357  10.714  3.8265 -1.2528 -0.0174
  392MOL0     H52864   5.977  10.263  10.577  3.6307 -1.0636  0.5628
  392MOL0     H52865   6.104  10.408  10.425  3.2574 -2.2369 -1.4910
  392MOL0     H52866   6.163  10.499  10.550 -0.7101 -0.0720 -1.3434
  392MOL0     H52867   6.180  10.185  10.555  0.4291  0.6146 -0.2017
  392MOL0     H52868   6.265  10.298  10.654 -2.3151 -1.0372  1.2216
  392MOL0     H52869   6.304  10.235  10.349  1.7818 -2.4652  0.5433
  392MOL0     H52870   6.367  10.389  10.416 -1.1214  1.0280  0.8150
  392MOL0     H52871   6.514  10.313  10.675  1.1458 -1.3208  2.7392
  392MOL0     H52872   6.821  10.124  10.640 -0.1670 -1.5349 -0.3624
  392MOL0     H52873   6.727  10.217  10.755 -2.0571 -0.7478  0.1994
  392MOL0     H52874   6.650   9.931  10.701  2.8778 -1.6296 -1.5098
  392MOL0     H52875   6.787   9.949  10.787 -0.6039  0.5063  0.7887
  392MOL0     H52876   6.696  10.062  10.984  0.1424  2.6261 -1.7143
  392MOL0     H52877   6.612   9.916  10.943  1.9192 -1.1744 -1.3980
  392MOL0     H52878   6.507  10.202  10.875  1.2304 -0.1901  0.9642
  392MOL0     H52879   6.442  10.095  11.007  0.1899  0.1585  0.5889
  392MOL0     H52880   6.260   9.898  10.660 -0.6242  1.4485 -0.2090
  392MOL0     H52881   6.002   9.922  10.643  0.1210 -1.2233 -0.1938
  392MOL0     H52882   5.603  10.270  10.964  1.4258  0.3348 -1.0795
  392MOL0     H52883   5.351  10.254  10.985  0.0703  0.2209 -0.1088
  392MOL0     H52884   5.150  10.071  10.653 -0.5430 -0.6005  0.3132
  392MOL0     H52885   5.157   9.919  10.741 -2.2388  0.0520  2.7254
  392MOL0     H52886   4.990   9.955  10.868  0.6052  0.5488 -0.1317
  392MOL0     H52887   4.967  10.130  10.841 -2.1860 -0.6049  0.2781
  392MOL0     H52888   4.906  10.069  10.600 -2.0732  1.3064  1.6172
  392MOL0     H52889   4.920   9.900  10.629 -3.0866 -1.2828  1.1798
  392MOL0     H52890   4.717  10.083  10.764  0.0966  0.2670 -0.0356
  392MOL0     H52891   4.728   9.919  10.790 -0.4863  1.4411 -0.3683
  392MOL0     H52892   4.687   9.864  10.536 -0.7759  1.1897 -1.8054
  392MOL0     H52893   4.656  10.038  10.523 -0.0714  1.2314  0.8924
  392MOL0     H52894   4.505   9.863  10.720  0.8658 -0.0918 -0.0568
  392MOL0     H52895   4.491  10.042  10.686  3.5191 -0.3694  1.0529
  392MOL0     H52896   4.419   9.983  10.445  1.0646  1.6727  0.8665
  392MOL0     H52897   4.316   9.920  10.571  1.0534 -2.2404  1.6610
  392MOL0     H52898   4.461   9.751  10.385 -0.8256 -0.2240 -0.3203
  392MOL0     H52899   4.449   9.693  10.554 -0.2188 -1.1048 -1.6069
  392MOL0     H52900   5.374   9.874  10.782  1.5847  0.2347 -0.3944
  392MOL0     H52901   5.599   9.876  10.794 -0.5294  0.0842 -0.3019
  392MOL0     H52902   6.027  10.248  10.931 -0.8374 -0.3940  0.4562
  392MOL0     H52903   6.256  10.222  10.931  1.2723  3.2489 -3.6785
  392MOL0     H52904   5.343  10.719  10.893 -0.1176  0.5522 -2.8936
  392MOL0     H52905   5.127  10.715  11.000  0.0328  1.1055  0.7621
  392MOL0     H52906   4.742  10.367  11.029  0.5905  1.9561 -1.9239
  392MOL0     H52907   4.518  10.333  11.085  2.1626 -1.0522 -0.5514
  392MOL0     H52908   4.331  10.281  11.274 -2.8687 -0.8079  1.1073
  392MOL0     H52909   4.321  10.365  11.129 -0.7540 -1.5863  0.3283
  392MOL0     H52910   4.129  10.437  11.346  1.3248  3.2581 -0.4133
  392MOL0     H52911   4.106  10.300  11.231 -0.5708  0.3505 -2.0402
  392MOL0     H52912   4.095  10.463  11.049 -3.5758  0.2817  0.2896
  392MOL0     H52913   4.146  10.597  11.148 -1.6421  0.7121 -0.8993
  392MOL0     H52914   3.889  10.592  11.126 -1.3583  0.5787  1.2809
  392MOL0     H52915   3.905  10.426  11.183 -1.3423  0.5415 -1.8679
  392MOL0     H52916   3.940  10.681  11.534  0.8362  0.0402  0.4823
  392MOL0     H52917   4.536  10.682  11.345  3.1969  0.4972  2.2593
  392MOL0     H52918   4.742  10.815  11.369 -0.0357  0.3771 -1.1763
  392MOL0     H52919   4.895  10.728  11.331  0.9344 -2.1316 -2.9524
  392MOL0     H52920   4.832  10.822  11.219  2.9367  0.0618  1.2246
  393MOL0     O52921   8.467   7.111   2.922 -0.3946  0.4634  0.1489
  393MOL0     C52922   8.410   7.082   3.023  0.4296  0.3440 -0.6413
  393MOL0     O52923   8.472   7.048   3.137  0.5480 -0.5339 -0.0359
  393MOL0     C52924   8.591   7.107   3.166 -0.8502  0.3881 -0.3618
  393MOL0     C52925   8.605   7.199   3.278  0.1895 -0.2734  0.5090
  393MOL0     C52926   8.727   7.241   3.320 -0.1874  0.2696  1.4600
  393MOL0     C52927   8.845   7.197   3.249  0.0173  0.5330  0.2878
  393MOL0     O52928   8.962   7.235   3.301  0.1359  0.7911  0.4914
  393MOL0     C52929   9.076   7.140   3.289 -0.7693 -0.2704  0.2791
  393MOL0     C52930   9.184   7.183   3.384  0.2064  0.1930  0.4579
  393MOL0     C52931   9.320   7.173   3.330 -0.6699 -0.4517 -0.2692
  393MOL0     C52932   9.422   7.192   3.441  0.6151  0.1953  1.1678
  393MOL0     C52933   9.560   7.193   3.378  0.5191 -0.5699  0.3665
  393MOL0     C52934   9.674   7.172   3.486  0.0046 -0.3817  0.7377
  393MOL0     C52935   9.813   7.141   3.436 -0.3207  0.4505  0.6431
  393MOL0     C52936   9.911   7.142   3.554 -0.4226 -0.2051 -0.4542
  393MOL0     N52937  10.017   7.244   3.532  0.3760 -0.5418 -0.1899
  393MOL0     C52938   9.999   7.378   3.549  0.1994 -0.1877  0.5005
  393MOL0     C52939  10.125   7.423   3.516  0.2330 -0.2393 -0.6025
  393MOL0     C52940  10.167   7.564   3.535  0.3689  0.0425 -0.0132
  393MOL0     C52941  10.120   7.635   3.410 -0.2944  0.1530  0.3983
  393MOL0     C52942  10.207   7.762   3.392  0.7949 -0.4504  0.2013
  393MOL0     C52943  10.156   7.857   3.274  0.6917 -0.2823 -0.2829
  393MOL0     O52944  10.214   7.987   3.301  0.3571 -0.1802  0.7919
  393MOL0     C52945  10.348   8.013   3.292  0.4308  0.3833 -0.3562
  393MOL0     C52946  10.401   8.128   3.354  0.1598 -0.2899  0.2417
  393MOL0     C52947  10.536   8.165   3.341  0.4733  0.3491 -0.6970
  393MOL0     C52948  10.625   8.085   3.276 -1.1153  0.0696  0.6490
  393MOL0     C52949  10.769   8.130   3.254  0.2332  0.0475 -0.1611
  393MOL0     O52950  10.852   8.037   3.201  0.1557  0.8839 -1.3164
  393MOL0     C52951  10.972   8.078   3.152 -0.6271 -0.6823 -0.2305
  393MOL0     C52952  10.984   8.166   3.055 -0.0706  0.0857  0.1002
  393MOL0     C52953  11.103   8.200   2.997  0.0311 -0.2654  0.9210
  393MOL0     C52954  11.232   8.145   3.036  0.8759 -0.1702  0.6390
  393MOL0     O52955  11.354   8.173   2.987  0.2936  0.4819 -0.2223
  393MOL0     C52956  11.373   8.290   2.913  1.3848 -0.1600 -0.7399
  393MOL0     C52957  11.521   8.323   2.906  0.0626 -0.2704  0.4448
  393MOL0     C52958  11.594   8.392   3.025 -0.2752  0.4805 -0.3982
  393MOL0     C52959  11.731   8.437   2.974  1.0307  0.1271 -0.5543
  393MOL0     C52960  11.805   8.509   3.088 -0.0841  0.1569 -0.4614
  393MOL0     C52961  11.954   8.559   3.050 -0.4170 -0.8161 -0.7622
  393MOL0     C52962  12.019   8.633   3.164  1.6840  0.1761 -0.8247
  393MOL0     C52963  12.162   8.677   3.132  0.3403 -0.3335  0.2960
  393MOL0    Cl52964  12.240   8.798   3.247 -0.0006 -0.7503 -0.2115
  393MOL0     C52965  11.216   8.055   3.140 -0.1202 -0.3151 -0.1517
  393MOL0     C52966  11.096   8.018   3.199  0.4641  0.0851 -0.2095
  393MOL0     O52967  10.802   8.247   3.273  0.3003 -0.0164  0.8027
  393MOL0     C52968  10.579   7.959   3.228 -0.7108  0.6798 -0.2586
  393MOL0     C52969  10.444   7.933   3.236 -0.0542  0.3515  0.1299
  393MOL0     N52970  10.206   7.319   3.483  0.3003  0.0412 -0.2202
  393MOL0     N52971  10.143   7.208   3.487 -0.7838  0.4278  0.3187
  393MOL0     C52972   8.834   7.110   3.137 -0.2780 -0.2695  0.5131
  393MOL0     C52973   8.711   7.067   3.096  0.6664 -0.3736 -0.2561
  393MOL0     C52974   8.263   7.073   3.020 -0.0568 -0.2455  0.3238
  393MOL0     C52975   8.203   6.983   3.112  0.0195  1.3109  0.3140
  393MOL0     C52976   8.066   6.973   3.120  0.8788 -0.8660  0.5329
  393MOL0     C52977   7.981   7.043   3.036 -0.4169  0.0448  0.8311
  393MOL0     O52978   7.844   7.018   3.043  0.0097  0.3848  0.7630
  393MOL0     C52979   7.768   6.997   2.921 -0.4944  0.5911  0.1983
  393MOL0     C52980   7.633   6.923   2.946  0.2133 -0.2092 -0.0737
  393MOL0     C52981   7.542   6.940   2.821  0.1532 -0.3694  0.7502
  393MOL0     C52982   7.395   6.888   2.829  0.2965  0.0362  0.8190
  393MOL0     C52983   7.301   6.963   2.741  0.2429  0.8014  0.2105
  393MOL0     C52984   7.223   7.039   2.679 -0.0095  0.3398 -0.2705
  393MOL0     C52985   8.040   7.124   2.934  0.4422 -0.6845 -0.6808
  393MOL0     C52986   8.180   7.141   2.925 -0.1885 -0.2878  0.4842
  393MOL0     C52987   8.227   7.244   2.836 -0.1740 -0.2799 -0.1715
  393MOL0     H52988   8.510   7.218   3.326 -1.1290 -3.1659 -0.7156
  393MOL0     H52989   8.748   7.305   3.405  0.6678 -1.0865  2.3026
  393MOL0     H52990   9.042   7.037   3.303 -1.1138 -0.2329 -0.2521
  393MOL0     H52991   9.120   7.150   3.189 -0.9113  3.5584  0.4647
  393MOL0     H52992   9.182   7.124   3.476  1.0051  0.4198  0.6249
  393MOL0     H52993   9.163   7.285   3.418 -2.1099 -0.4570  1.2421
  393MOL0     H52994   9.337   7.254   3.258 -0.5584  0.3424  0.6216
  393MOL0     H52995   9.338   7.077   3.282 -0.4231 -0.2429 -0.6071
  393MOL0     H52996   9.391   7.289   3.480 -5.4373 -0.2950 -1.4212
  393MOL0     H52997   9.419   7.115   3.519 -1.1437 -0.0147  0.9195
  393MOL0     H52998   9.564   7.114   3.303  0.1287 -0.4132  0.1789
  393MOL0     H52999   9.570   7.288   3.323 -3.6388 -0.7146 -0.9393
  393MOL0     H53000   9.692   7.272   3.528 -0.6298  0.4947 -0.9774
  393MOL0     H53001   9.639   7.099   3.559 -0.3972 -2.6296 -1.5784
  393MOL0     H53002   9.831   7.213   3.356  0.0910 -0.1420  0.1906
  393MOL0     H53003   9.810   7.043   3.388  1.6917  1.0118 -0.7668
  393MOL0     H53004   9.853   7.160   3.645  0.5046 -0.3074  0.1679
  393MOL0     H53005   9.950   7.040   3.562 -1.9739 -1.0740 -2.8898
  393MOL0     H53006   9.910   7.424   3.591  1.6664  0.8858  2.5892
  393MOL0     H53007  10.111   7.611   3.617 -2.0061 -0.4070 -1.2742
  393MOL0     H53008  10.273   7.572   3.562 -0.4315  1.2790  3.2390
  393MOL0     H53009  10.133   7.580   3.316 -1.2203 -1.0475  0.9427
  393MOL0     H53010  10.015   7.664   3.417  0.1099  1.8994 -0.2007
  393MOL0     H53011  10.308   7.736   3.359  1.8665  1.3866  1.7802
  393MOL0     H53012  10.221   7.816   3.486  0.6988  2.6809 -1.4501
  393MOL0     H53013  10.047   7.863   3.273  0.5862 -1.6448 -2.1483
  393MOL0     H53014  10.196   7.820   3.179 -0.0350 -0.7778 -0.4031
  393MOL0     H53015  10.340   8.186   3.422  0.8616  2.1097 -1.0832
  393MOL0     H53016  10.563   8.264   3.375  0.1574 -0.8161  3.5818
  393MOL0     H53017  10.896   8.214   3.014 -1.2431 -1.9039  0.1793
  393MOL0     H53018  11.099   8.267   2.912 -2.3468 -2.6093 -0.9792
  393MOL0     H53019  11.331   8.267   2.815  2.0247 -0.7227 -0.8899
  393MOL0     H53020  11.324   8.376   2.959  2.3266  0.4689 -0.8772
  393MOL0     H53021  11.574   8.229   2.886 -3.1919 -1.7112 -2.5256
  393MOL0     H53022  11.528   8.388   2.818 -2.5927 -0.9318 -0.3300
  393MOL0     H53023  11.536   8.470   3.075  2.2020  2.0299  0.1930
  393MOL0     H53024  11.601   8.314   3.102 -2.1295 -0.0042 -0.6637
  393MOL0     H53025  11.721   8.507   2.890 -0.4324 -0.0755 -0.5760
  393MOL0     H53026  11.789   8.355   2.930 -1.0344 -0.1997 -2.8868
  393MOL0     H53027  11.813   8.441   3.174  3.1131 -0.6335 -1.2808
  393MOL0     H53028  11.744   8.588   3.133  1.0931  0.6011  0.4140
  393MOL0     H53029  12.010   8.473   3.012 -2.6472 -2.6455 -0.1671
  393MOL0     H53030  11.943   8.636   2.973 -2.5857  0.2396  0.5068
  393MOL0     H53031  12.010   8.569   3.253 -1.5169  1.1310 -0.3503
  393MOL0     H53032  11.962   8.723   3.187  0.7055 -0.8368  0.8853
  393MOL0     H53033  12.221   8.585   3.133 -1.2008 -1.3904 -0.8012
  393MOL0     H53034  12.163   8.721   3.032 -3.1659 -0.6342  0.0100
  393MOL0     H53035  11.301   7.989   3.160  0.0863  0.4733  1.8379
  393MOL0     H53036  11.092   7.928   3.259  2.5286 -2.1005 -3.0790
  393MOL0     H53037  10.646   7.890   3.177 -0.3941 -0.4537  1.6314
  393MOL0     H53038  10.403   7.842   3.194 -2.1239  1.3041 -0.0573
  393MOL0     H53039   8.923   7.073   3.088 -0.4193  0.5866 -0.4413
  393MOL0     H53040   8.707   7.006   3.007  0.2175  2.4934 -2.3619
  393MOL0     H53041   8.262   6.922   3.180  0.1230  2.4302  1.2570
  393MOL0     H53042   8.035   6.895   3.189  1.1257 -0.0005  1.6425
  393MOL0     H53043   7.828   6.938   2.851 -4.0268  0.1376 -2.7283
  393MOL0     H53044   7.752   7.096   2.877  1.5623  2.1297  2.6408
  393MOL0     H53045   7.572   6.961   3.028 -2.1527 -1.7656 -1.0174
  393MOL0     H53046   7.646   6.816   2.958 -1.5818 -0.7929 -2.5004
  393MOL0     H53047   7.586   6.884   2.738 -1.7870  0.1288 -0.6903
  393MOL0     H53048   7.543   7.049   2.810  3.7292 -0.3029  0.5904
  393MOL0     H53049   7.395   6.785   2.791  1.5285  0.3366 -0.0526
  393MOL0     H53050   7.369   6.903   2.934  0.9808  1.7390  0.7807
  393MOL0     H53051   7.155   7.106   2.631 -1.7298  1.8903  3.8180
  393MOL0     H53052   7.977   7.172   2.861  0.7868 -0.5453 -0.8895
  393MOL0     H53053   8.145   7.298   2.788 -1.3840 -1.0013  1.0178
  393MOL0     H53054   8.284   7.318   2.893 -0.7171  2.1476 -2.5488
  393MOL0     H53055   8.295   7.205   2.760  1.4819  0.0006  1.1018
  394MOL0     O53056   3.428   2.693   6.615 -0.0920  0.3358 -0.5272
  394MOL0     C53057   3.435   2.765   6.714 -0.6315  0.7659 -0.1800
  394MOL0     O53058   3.535   2.754   6.812  0.0985  0.5683  0.5260
  394MOL0     C53059   3.654   2.696   6.772 -0.8932 -0.0724 -0.6839
  394MOL0     C53060   3.723   2.631   6.874 -0.3854  1.1115  0.3428
  394MOL0     C53061   3.844   2.562   6.849  0.8576 -0.3159 -0.0255
  394MOL0     C53062   3.894   2.558   6.719 -0.2010  0.1055  0.7835
  394MOL0     O53063   4.011   2.489   6.696  0.4476 -0.7568 -0.2909
  394MOL0     C53064   4.042   2.449   6.555 -0.5543 -0.1227  0.0087
  394MOL0     C53065   4.155   2.347   6.555 -0.2884 -0.7343 -0.4292
  394MOL0     C53066   4.132   2.209   6.621 -1.3608 -0.0053 -0.9925
  394MOL0     C53067   4.227   2.094   6.564  0.1976  0.3061  0.5652
  394MOL0     C53068   4.166   1.956   6.602  0.2332  0.2459 -0.7020
  394MOL0     C53069   4.262   1.846   6.578  0.7471  0.5815 -0.1395
  394MOL0     C53070   4.290   1.810   6.428  0.5162 -0.9114 -0.1527
  394MOL0     C53071   4.413   1.724   6.424  0.3046 -0.4655 -0.4921
  394MOL0     N53072   4.435   1.650   6.293 -0.4036  0.5195 -0.5177
  394MOL0     C53073   4.535   1.561   6.272  0.6495  0.0918 -0.3342
  394MOL0     C53074   4.526   1.510   6.143  0.0926 -0.2275  1.0881
  394MOL0     C53075   4.611   1.404   6.071 -0.5344  0.9236  0.4352
  394MOL0     C53076   4.740   1.475   6.003 -0.5803  0.3001  0.2898
  394MOL0     C53077   4.852   1.477   6.111  1.1381 -0.4336 -0.1447
  394MOL0     C53078   4.979   1.530   6.056 -0.0665 -0.2066 -0.2606
  394MOL0     O53079   5.052   1.427   5.981  0.5691 -0.3308  0.5733
  394MOL0     C53080   5.180   1.460   5.966 -0.7148  0.2122  0.1425
  394MOL0     C53081   5.230   1.591   5.971  0.0815  1.0760 -0.7754
  394MOL0     C53082   5.367   1.614   5.958 -0.5202 -0.3843 -0.7767
  394MOL0     C53083   5.455   1.508   5.929 -0.1921 -0.9977  0.5392
  394MOL0     C53084   5.600   1.527   5.913  0.2945 -0.3033 -0.6424
  394MOL0     O53085   5.668   1.409   5.897  0.1678  0.6248 -0.9538
  394MOL0     C53086   5.805   1.392   5.857  0.3434 -0.4523 -0.4279
  394MOL0     C53087   5.841   1.257   5.848 -0.2783  0.4954 -0.2227
  394MOL0     C53088   5.982   1.220   5.818 -0.0116 -0.3505  0.1628
  394MOL0     C53089   6.076   1.318   5.790 -0.2884 -0.4182  0.1326
  394MOL0     O53090   6.212   1.284   5.760 -0.4212 -0.3918  0.2575
  394MOL0     C53091   6.284   1.373   5.683  0.5213 -0.5764 -0.1737
  394MOL0     C53092   6.420   1.300   5.653  0.0678  0.2487 -0.2496
  394MOL0     C53093   6.518   1.401   5.606 -0.6501 -0.1277  0.1093
  394MOL0     C53094   6.656   1.333   5.601  1.0411 -0.1710  0.3876
  394MOL0     C53095   6.767   1.428   5.538 -0.4305  0.7182 -0.0547
  394MOL0     C53096   6.902   1.350   5.523  0.3343 -0.8946 -0.7492
  394MOL0     C53097   7.007   1.440   5.459 -0.5832 -0.1044 -0.1898
  394MOL0     C53098   7.156   1.377   5.447  0.0024  0.6239 -0.4242
  394MOL0    Cl53099   7.283   1.502   5.407  0.0827  0.3417  0.6192
  394MOL0     C53100   6.024   1.447   5.797  0.4303 -1.0476 -0.6599
  394MOL0     C53101   5.896   1.488   5.837 -0.2828  0.4365  0.5458
  394MOL0     O53102   5.649   1.636   5.915 -0.2642 -0.3275  0.2575
  394MOL0     C53103   5.398   1.381   5.909 -0.5344  0.2462  0.0698
  394MOL0     C53104   5.266   1.352   5.931  0.5027  1.1618 -0.0926
  394MOL0     N53105   4.428   1.586   6.086  0.0127 -0.1079 -0.1752
  394MOL0     N53106   4.384   1.665   6.172  0.5687 -0.4197 -0.9349
  394MOL0     C53107   3.824   2.618   6.615  0.5469 -0.1275  0.3760
  394MOL0     C53108   3.708   2.695   6.638 -0.4089 -0.4946 -1.2680
  394MOL0     C53109   3.321   2.845   6.746  0.3299 -0.0784 -0.1797
  394MOL0     C53110   3.282   2.844   6.881  0.1840  0.9121  0.2079
  394MOL0     C53111   3.158   2.909   6.922 -0.5635 -0.4391  0.1077
  394MOL0     C53112   3.077   2.977   6.840 -0.4752  0.3775 -0.8645
  394MOL0     O53113   2.961   3.031   6.897 -0.3027 -0.2629 -0.2275
  394MOL0     C53114   2.854   3.097   6.818  0.2302  0.9023  0.1832
  394MOL0     C53115   2.891   3.245   6.789  1.2664  0.3556 -0.5197
  394MOL0     C53116   2.762   3.319   6.755 -0.0092 -0.7257  0.7091
  394MOL0     C53117   2.788   3.469   6.717  0.0431 -0.9873  0.4782
  394MOL0     C53118   2.872   3.543   6.814  0.1692 -0.3488 -0.9029
  394MOL0     C53119   2.931   3.608   6.898 -0.7936 -0.2266  0.3403
  394MOL0     C53120   3.133   2.993   6.710  0.8598 -0.1803 -0.7867
  394MOL0     C53121   3.240   2.921   6.657 -0.0999  0.6509 -0.1365
  394MOL0     C53122   3.270   2.946   6.508  0.1482  0.3180  0.7868
  394MOL0     H53123   3.673   2.628   6.970 -2.0790 -2.1227 -0.4976
  394MOL0     H53124   3.887   2.507   6.932  0.8721  0.5648  0.5635
  394MOL0     H53125   3.956   2.399   6.509 -0.7018  0.6760 -0.6063
  394MOL0     H53126   4.071   2.534   6.493  0.5872  0.6679  1.5679
  394MOL0     H53127   4.237   2.395   6.609 -1.0316 -0.3644  0.3995
  394MOL0     H53128   4.194   2.323   6.455  1.3930  1.2660 -0.3371
  394MOL0     H53129   4.027   2.179   6.608 -1.2447 -0.5480 -0.6945
  394MOL0     H53130   4.145   2.219   6.729 -2.1923 -1.5448 -0.7052
  394MOL0     H53131   4.226   2.102   6.455 -0.7111  2.4794  0.6783
  394MOL0     H53132   4.332   2.102   6.594  1.4908 -0.5441 -3.2617
  394MOL0     H53133   4.152   1.961   6.711  0.1425  1.8558 -0.7641
  394MOL0     H53134   4.067   1.937   6.560 -1.0344  0.2421  2.0175
  394MOL0     H53135   4.358   1.872   6.623  1.2197 -1.3625  0.0923
  394MOL0     H53136   4.229   1.753   6.626  1.1276 -0.8828 -2.5473
  394MOL0     H53137   4.300   1.902   6.370  1.3622  0.7690  2.4684
  394MOL0     H53138   4.197   1.757   6.406 -0.7731  0.4508  1.6317
  394MOL0     H53139   4.499   1.783   6.455  0.4819 -0.5742 -0.7646
  394MOL0     H53140   4.383   1.643   6.491 -0.9930 -2.1040 -2.8601
  394MOL0     H53141   4.599   1.528   6.353  0.2450  1.3138  0.5153
  394MOL0     H53142   4.643   1.326   6.141 -0.8592  1.1091  0.7998
  394MOL0     H53143   4.552   1.348   5.998  1.6448 -0.9489 -0.0138
  394MOL0     H53144   4.777   1.426   5.912  0.6363  3.7956 -1.2472
  394MOL0     H53145   4.710   1.578   5.983  1.4457  0.9119  0.1974
  394MOL0     H53146   4.863   1.375   6.148 -0.6778 -0.7185 -0.3254
  394MOL0     H53147   4.814   1.536   6.195 -1.3306 -1.5315 -0.4263
  394MOL0     H53148   5.045   1.556   6.140  1.7865 -1.3511 -1.2879
  394MOL0     H53149   4.958   1.624   6.005  0.3576  0.2973  0.4675
  394MOL0     H53150   5.170   1.679   5.994 -1.5228 -0.5053  1.6268
  394MOL0     H53151   5.404   1.714   5.978  2.3261 -1.3524 -0.7571
  394MOL0     H53152   5.775   1.178   5.883  0.7097  0.2602  1.1792
  394MOL0     H53153   6.014   1.117   5.827 -0.8370 -0.5556  0.9632
  394MOL0     H53154   6.230   1.391   5.589  1.3608 -2.0151 -0.9615
  394MOL0     H53155   6.296   1.461   5.748 -0.0226 -0.0433 -0.7782
  394MOL0     H53156   6.460   1.262   5.747 -0.5587  1.2326  0.4247
  394MOL0     H53157   6.403   1.221   5.579 -2.0424 -0.4644  0.9266
  394MOL0     H53158   6.492   1.448   5.511 -1.5568 -0.5145  0.1540
  394MOL0     H53159   6.526   1.477   5.685 -2.5830  1.6945 -1.3392
  394MOL0     H53160   6.643   1.246   5.537  0.5337 -0.4452  0.8589
  394MOL0     H53161   6.677   1.289   5.699 -0.0427 -1.9279 -0.1272
  394MOL0     H53162   6.768   1.524   5.591 -0.7972  1.6544 -1.6815
  394MOL0     H53163   6.743   1.465   5.438 -1.0220  0.4581 -0.0120
  394MOL0     H53164   6.936   1.314   5.620  3.3359 -1.0756 -1.7688
  394MOL0     H53165   6.888   1.254   5.472  1.1939 -1.1619 -0.4854
  394MOL0     H53166   7.019   1.532   5.516 -1.0187 -0.6480  0.8007
  394MOL0     H53167   6.975   1.472   5.360  0.2790  1.9232  0.1420
  394MOL0     H53168   7.183   1.333   5.543 -3.9532  1.7330  1.4313
  394MOL0     H53169   7.158   1.294   5.376  1.2178 -0.5153  0.9085
  394MOL0     H53170   6.084   1.531   5.764 -1.9126  0.9091 -0.1500
  394MOL0     H53171   5.877   1.595   5.830  0.5273  0.4762 -3.4592
  394MOL0     H53172   5.459   1.297   5.879 -1.0001 -0.1501  0.2176
  394MOL0     H53173   5.226   1.253   5.911  0.7907  1.0586 -0.1621
  394MOL0     H53174   3.869   2.630   6.517  1.2190 -1.2390  0.5233
  394MOL0     H53175   3.669   2.756   6.557  0.7166  0.6041 -1.0134
  394MOL0     H53176   3.347   2.795   6.953 -1.3566  2.1804  2.6030
  394MOL0     H53177   3.122   2.896   7.024 -1.9382  1.1420 -0.1458
  394MOL0     H53178   2.767   3.095   6.884 -0.6295 -0.5914 -0.9296
  394MOL0     H53179   2.835   3.034   6.731 -0.1776 -0.7359  1.3962
  394MOL0     H53180   2.963   3.263   6.708  1.3185  3.3551  0.0892
  394MOL0     H53181   2.952   3.286   6.870 -0.2067 -0.3392  0.9979
  394MOL0     H53182   2.708   3.312   6.849  2.9914  0.8676  2.7201
  394MOL0     H53183   2.698   3.274   6.678 -0.7518  1.9371 -0.3281
  394MOL0     H53184   2.837   3.482   6.620  0.6242 -0.6784  0.8078
  394MOL0     H53185   2.691   3.519   6.717 -1.2243 -3.2822  0.3300
  394MOL0     H53186   2.991   3.675   6.956  2.2896 -1.6683 -0.9791
  394MOL0     H53187   3.073   3.061   6.650  0.4755  0.2721  0.0886
  394MOL0     H53188   3.301   3.050   6.494 -0.3597  0.5470  1.3147
  394MOL0     H53189   3.350   2.883   6.468 -1.0755 -0.3793 -0.6593
  394MOL0     H53190   3.180   2.927   6.448 -0.7663 -0.9789  2.4779
  395MOL0     O53191   0.834  11.187   2.933 -0.2690 -0.1952  0.2049
  395MOL0     C53192   0.815  11.142   2.821  1.0270 -0.5982  0.3147
  395MOL0     O53193   0.909  11.123   2.723 -0.3130  0.1441 -0.3462
  395MOL0     C53194   1.042  11.153   2.742 -0.6208  0.7956 -0.8142
  395MOL0     C53195   1.129  11.043   2.747 -0.8069  0.7754  0.2982
  395MOL0     C53196   1.264  11.057   2.767  0.6168  0.8385 -0.5748
  395MOL0     C53197   1.313  11.189   2.782  0.6205  0.8528 -0.2295
  395MOL0     O53198   1.448  11.208   2.802 -0.4449  0.1804 -0.1033
  395MOL0     C53199   1.546  11.134   2.729 -0.6012  0.3159 -0.1390
  395MOL0     C53200   1.690  11.205   2.743  0.1458  0.4337 -0.0427
  395MOL0     C53201   1.690  11.352   2.693  0.0193  0.2539 -0.4925
  395MOL0     C53202   1.765  11.380   2.570 -0.2267  0.8335  1.2851
  395MOL0     C53203   1.919  11.383   2.587  0.2009  0.0891 -0.9009
  395MOL0     C53204   1.981  11.484   2.488  0.3366  0.1194  0.3128
  395MOL0     C53205   2.133  11.471   2.452 -0.0277  0.2464  0.8833
  395MOL0     C53206   2.162  11.558   2.330  0.1804 -0.9787 -0.3600
  395MOL0     N53207   2.303  11.556   2.303  0.1814  0.0280  0.3374
  395MOL0     C53208   2.411  11.635   2.343  0.0696  1.0063  0.8049
  395MOL0     C53209   2.518  11.575   2.287 -0.3887 -0.0524 -0.6914
  395MOL0     C53210   2.662  11.621   2.317  0.4577 -0.0838  0.3150
  395MOL0     C53211   2.682  11.757   2.243 -0.3388  0.4745 -0.3470
  395MOL0     C53212   2.811  11.838   2.285 -0.0690 -0.1592  0.0107
  395MOL0     C53213   2.852  11.947   2.190 -0.1953  0.0576 -0.4872
  395MOL0     O53214   2.991  11.982   2.210  0.7349  0.2477  0.1408
  395MOL0     C53215   3.054  12.070   2.121  1.1368  0.1740 -0.2007
  395MOL0     C53216   3.186  12.049   2.106  0.2975  0.0007 -0.9843
  395MOL0     C53217   3.260  12.119   2.014 -0.4435  0.7259  0.2285
  395MOL0     C53218   3.199  12.219   1.938  0.5673 -0.0200  0.1875
  395MOL0     C53219   3.286  12.304   1.856 -0.2103  0.4702  0.5862
  395MOL0     O53220   3.412  12.259   1.832 -0.0998  0.2115  0.2928
  395MOL0     C53221   3.489  12.350   1.756 -1.1132  0.5427 -0.2140
  395MOL0     C53222   3.481  12.369   1.615  1.2722  0.1129  0.1977
  395MOL0     C53223   3.550  12.468   1.551 -0.0065  0.0012 -0.4667
  395MOL0     C53224   3.632  12.548   1.623  0.3236 -0.1590  0.4879
  395MOL0     O53225   3.695  12.653   1.555  1.0661 -0.0895 -0.3159
  395MOL0     C53226   3.754  12.642   1.428 -0.4073  0.8541  0.2256
  395MOL0     C53227   3.846  12.758   1.418  0.1507 -0.4786 -0.0176
  395MOL0     C53228   3.935  12.767   1.290  0.1722  0.0119 -0.2194
  395MOL0     C53229   4.030  12.882   1.310 -0.0877  0.3227  0.2735
  395MOL0     C53230   4.138  12.903   1.192 -0.0987  0.5833 -0.1712
  395MOL0     C53231   4.240  12.785   1.181 -0.2651 -0.8130 -0.0778
  395MOL0     C53232   4.338  12.779   1.295  0.5031 -0.4967 -0.3646
  395MOL0     C53233   4.447  12.674   1.274  0.0626 -0.0171 -0.1512
  395MOL0    Cl53234   4.527  12.674   1.115 -0.7559 -0.1474 -0.1367
  395MOL0     C53235   3.645  12.536   1.754 -0.4014 -0.6043 -0.0976
  395MOL0     C53236   3.572  12.441   1.821 -0.3578 -0.2555 -0.4053
  395MOL0     O53237   3.241  12.409   1.803  0.2707 -0.4264 -0.4284
  395MOL0     C53238   3.061  12.245   1.953 -0.1312 -0.1970 -0.5291
  395MOL0     C53239   2.988  12.165   2.040  0.0761  0.8286  0.3277
  395MOL0     N53240   2.474  11.473   2.193 -0.2726 -0.1885 -0.2309
  395MOL0     N53241   2.348  11.458   2.214 -0.3415  0.4876 -0.5433
  395MOL0     C53242   1.225  11.297   2.794 -0.2077 -0.0006 -0.0973
  395MOL0     C53243   1.092  11.275   2.767  0.5086 -1.7328  0.5315
  395MOL0     C53244   0.669  11.106   2.793  0.6752 -0.0105 -0.3112
  395MOL0     C53245   0.570  11.153   2.884  0.0472  0.2915 -0.1211
  395MOL0     C53246   0.436  11.141   2.859 -0.1100  0.4307 -0.1040
  395MOL0     C53247   0.388  11.067   2.743 -0.2746  0.3577 -0.5604
  395MOL0     O53248   0.253  11.057   2.702 -0.3440  0.2831  0.9078
  395MOL0     C53249   0.151  11.103   2.792  0.2820 -0.4659 -0.6123
  395MOL0     C53250   0.020  11.079   2.715  0.6648 -0.5463 -0.1104
  395MOL0     C53251  -0.101  11.074   2.811  0.4083 -0.0729 -0.4487
  395MOL0     C53252  -0.225  11.020   2.742  0.3387  0.2131 -0.2840
  395MOL0     C53253  -0.340  11.029   2.839  0.2747 -0.0326 -0.0906
  395MOL0     C53254  -0.448  11.049   2.899 -1.0522 -0.4949 -0.6446
  395MOL0     C53255   0.490  11.011   2.661  1.1127 -0.7299 -0.1402
  395MOL0     C53256   0.627  11.035   2.679 -0.0342  0.5570 -0.6501
  395MOL0     C53257   0.717  10.988   2.566 -0.4947 -0.2800 -0.1603
  395MOL0     H53258   1.072  10.954   2.722 -0.3888  0.6643 -0.2693
  395MOL0     H53259   1.328  10.969   2.771 -0.3758  0.1176 -0.1456
  395MOL0     H53260   1.549  11.031   2.767 -1.6452  0.3412  0.0342
  395MOL0     H53261   1.520  11.125   2.623  1.7797 -1.4490 -0.6620
  395MOL0     H53262   1.767  11.148   2.690  0.3283 -2.8198  3.4104
  395MOL0     H53263   1.725  11.216   2.846 -1.6455  2.3696  0.4480
  395MOL0     H53264   1.740  11.413   2.768 -0.2740  0.8217 -0.7537
  395MOL0     H53265   1.587  11.389   2.691 -1.1557 -2.7302 -1.8026
  395MOL0     H53266   1.723  11.309   2.498 -0.4769  1.9655  0.2764
  395MOL0     H53267   1.737  11.481   2.537  0.4662  0.2370 -1.3521
  395MOL0     H53268   1.938  11.414   2.690 -1.4062  0.7420 -0.7767
  395MOL0     H53269   1.950  11.279   2.571  0.2537  0.0050 -0.2764
  395MOL0     H53270   1.918  11.500   2.400  1.5101  0.7788 -0.4293
  395MOL0     H53271   1.968  11.582   2.535 -1.1179  0.5169 -0.8569
  395MOL0     H53272   2.146  11.368   2.418 -0.9236 -0.5682  2.8651
  395MOL0     H53273   2.198  11.487   2.539 -1.8700 -2.6752  2.9748
  395MOL0     H53274   2.106  11.524   2.242 -0.7384  1.3170 -0.7541
  395MOL0     H53275   2.128  11.655   2.368 -0.5009 -0.9718 -0.9505
  395MOL0     H53276   2.408  11.720   2.410 -2.6743  2.0447 -0.4677
  395MOL0     H53277   2.653  11.639   2.424  0.8056  0.2991  0.2794
  395MOL0     H53278   2.734  11.541   2.296 -1.4159 -1.9465  0.5880
  395MOL0     H53279   2.687  11.731   2.136  0.5490 -2.0358  0.2418
  395MOL0     H53280   2.594  11.820   2.260  0.4802  1.6385 -0.2945
  395MOL0     H53281   2.895  11.769   2.289 -0.9121 -1.2789 -0.8439
  395MOL0     H53282   2.786  11.871   2.386  1.1872 -0.6894  0.5113
  395MOL0     H53283   2.793  12.037   2.207 -0.3579 -0.1188 -0.0966
  395MOL0     H53284   2.834  11.919   2.086  0.1846 -4.1479  0.3890
  395MOL0     H53285   3.241  11.973   2.162 -1.0143 -0.4365 -0.2402
  395MOL0     H53286   3.369  12.116   2.018 -0.2975  1.6200 -1.9670
  395MOL0     H53287   3.421  12.302   1.555  0.5125  1.1582 -0.2199
  395MOL0     H53288   3.529  12.480   1.445 -0.6507  2.1477 -0.1496
  395MOL0     H53289   3.812  12.551   1.408 -0.3129  0.5458  1.7676
  395MOL0     H53290   3.680  12.659   1.349  0.7537  1.2735 -0.7954
  395MOL0     H53291   3.782  12.846   1.427 -0.1274 -0.6237 -0.5688
  395MOL0     H53292   3.907  12.760   1.509  0.2668  1.9123 -0.1007
  395MOL0     H53293   3.995  12.676   1.274  0.7831  0.8151 -3.1355
  395MOL0     H53294   3.872  12.784   1.202  2.2732 -0.1882 -1.8535
  395MOL0     H53295   4.080  12.883   1.407  2.7249 -2.3962 -0.9683
  395MOL0     H53296   3.961  12.967   1.304 -2.1509 -1.3893 -2.8609
  395MOL0     H53297   4.201  12.991   1.205  0.1967  0.2268  0.9583
  395MOL0     H53298   4.092  12.918   1.094  0.3537  0.8308 -0.3452
  395MOL0     H53299   4.188  12.691   1.159 -1.2450 -0.2699 -0.1654
  395MOL0     H53300   4.299  12.816   1.095  1.0118 -2.2986  0.2221
  395MOL0     H53301   4.284  12.756   1.387 -0.6808 -0.9686 -1.1562
  395MOL0     H53302   4.372  12.880   1.322  2.3499 -0.3608 -2.8792
  395MOL0     H53303   4.524  12.674   1.351 -1.1001  2.6305  1.1228
  395MOL0     H53304   4.404  12.574   1.263  2.1239 -0.8644 -1.1472
  395MOL0     H53305   3.709  12.608   1.804 -0.1415 -1.5272  0.9426
  395MOL0     H53306   3.588  12.436   1.929  1.8691  0.7091 -0.6384
  395MOL0     H53307   3.022  12.319   1.884  0.3367  0.4225 -0.1361
  395MOL0     H53308   2.882  12.190   2.049  0.3195  2.8589 -1.5370
  395MOL0     H53309   1.260  11.400   2.805  0.8999 -0.4992  1.4990
  395MOL0     H53310   1.018  11.354   2.768 -0.7134 -2.6925 -2.6210
  395MOL0     H53311   0.594  11.207   2.975 -1.7259 -0.1579  0.6549
  395MOL0     H53312   0.381  11.197   2.934 -0.8384 -0.8209  0.3373
  395MOL0     H53313   0.157  11.208   2.823 -0.6183 -0.7679  0.6664
  395MOL0     H53314   0.136  11.035   2.876  1.3130  0.9162  0.7431
  395MOL0     H53315   0.034  10.977   2.676  2.6681  0.3639 -1.9924
  395MOL0     H53316   0.005  11.143   2.628  1.7861 -0.0039  0.0794
  395MOL0     H53317  -0.132  11.166   2.862  0.6644 -0.4140  0.3365
  395MOL0     H53318  -0.083  10.998   2.888 -1.0699 -0.6786 -0.6742
  395MOL0     H53319  -0.253  11.078   2.654  0.0351 -1.1553 -1.1234
  395MOL0     H53320  -0.220  10.917   2.705  0.5957 -1.5474  4.0324
  395MOL0     H53321  -0.545  11.056   2.944 -0.7155 -2.0030  0.3827
  395MOL0     H53322   0.449  10.958   2.577 -2.0941  0.1493  0.7385
  395MOL0     H53323   0.656  10.935   2.492 -1.1076  0.4286 -0.1594
  395MOL0     H53324   0.775  11.070   2.524 -1.1819 -0.1811 -0.9409
  395MOL0     H53325   0.784  10.915   2.613 -0.5804 -0.0066  0.3925
  396MOL0     O53326   4.833   8.138   6.079 -0.3079  0.2398 -0.4564
  396MOL0     C53327   4.794   8.144   6.195  0.9140  0.1624 -0.0556
  396MOL0     O53328   4.748   8.045   6.264  0.1037  0.1690 -0.4441
  396MOL0     C53329   4.764   7.915   6.220 -0.4225 -0.6339  0.4836
  396MOL0     C53330   4.896   7.861   6.200  0.3293  0.0734 -0.7488
  396MOL0     C53331   4.920   7.727   6.160  0.1039  0.1127 -0.8759
  396MOL0     C53332   4.810   7.649   6.116 -0.8069  0.4891  0.0189
  396MOL0     O53333   4.829   7.520   6.067 -0.1600 -0.0798  0.4790
  396MOL0     C53334   4.958   7.464   6.063  0.1146  0.0227 -0.3318
  396MOL0     C53335   4.943   7.327   5.998 -0.8628  0.2802 -0.1782
  396MOL0     C53336   5.076   7.247   5.988 -0.5469 -0.1508  0.3817
  396MOL0     C53337   5.064   7.134   5.884 -0.0288 -0.3982 -0.1804
  396MOL0     C53338   5.188   7.035   5.884  0.4931 -0.8235  0.0643
  396MOL0     C53339   5.317   7.072   5.805  0.1475 -0.5117 -0.4740
  396MOL0     C53340   5.424   6.971   5.826  0.0333 -0.0577 -1.7664
  396MOL0     C53341   5.545   7.022   5.755  0.5305 -0.6434  0.0115
  396MOL0     N53342   5.652   6.925   5.751 -0.5355 -0.2070 -0.2738
  396MOL0     C53343   5.747   6.901   5.846  0.7079  0.9138  0.6409
  396MOL0     C53344   5.842   6.818   5.785 -0.5581  0.1158 -0.3232
  396MOL0     C53345   5.979   6.759   5.842  0.3928 -0.3582  0.1834
  396MOL0     C53346   6.058   6.846   5.941 -0.0406 -0.1962  0.1234
  396MOL0     C53347   6.195   6.792   5.969  1.2121  0.3076 -0.2761
  396MOL0     C53348   6.272   6.903   6.050 -0.8691 -0.8293  0.6047
  396MOL0     O53349   6.358   6.989   5.972  0.1233  0.2831 -0.4108
  396MOL0     C53350   6.483   6.947   5.957 -0.1432 -0.0370  0.2172
  396MOL0     C53351   6.524   6.856   5.855  0.3217  0.4877 -0.4826
  396MOL0     C53352   6.662   6.828   5.835 -0.7063 -0.2407  0.4009
  396MOL0     C53353   6.763   6.887   5.910  0.4260  0.5761  0.0005
  396MOL0     C53354   6.904   6.847   5.900  0.3593 -0.0049  0.1006
  396MOL0     O53355   6.996   6.932   5.953  0.3085 -0.1836  0.5071
  396MOL0     C53356   7.128   6.915   5.923  0.1974 -1.2906 -0.1253
  396MOL0     C53357   7.202   6.852   6.020  0.7216 -0.4934  0.3227
  396MOL0     C53358   7.339   6.813   6.009  0.2297  0.5890 -0.2941
  396MOL0     C53359   7.394   6.833   5.882 -0.1071  0.3008  0.2002
  396MOL0     O53360   7.528   6.798   5.853  0.4028 -0.7224 -0.7012
  396MOL0     C53361   7.596   6.717   5.950 -0.6718 -0.5465 -0.2653
  396MOL0     C53362   7.724   6.658   5.889  0.4733  0.1296 -0.2905
  396MOL0     C53363   7.845   6.750   5.887  0.2741 -0.4732  0.2648
  396MOL0     C53364   7.974   6.686   5.816 -0.2672 -0.0654 -0.1317
  396MOL0     C53365   8.094   6.781   5.813  0.5530  0.2863  0.1435
  396MOL0     C53366   8.190   6.763   5.699  0.4405 -0.6062 -0.6440
  396MOL0     C53367   8.281   6.892   5.691  0.2830  0.3880 -0.0898
  396MOL0     C53368   8.373   6.899   5.570 -0.1066  0.0813 -0.3938
  396MOL0    Cl53369   8.270   6.932   5.434  0.3121  0.2078  0.4071
  396MOL0     C53370   7.326   6.902   5.781  0.9770 -0.4198  0.0699
  396MOL0     C53371   7.196   6.952   5.801  0.2244 -0.4267  0.1990
  396MOL0     O53372   6.930   6.751   5.827 -0.1035 -0.3524  0.2932
  396MOL0     C53373   6.721   6.983   6.004  0.4593 -0.7235 -0.0443
  396MOL0     C53374   6.585   7.009   6.031  0.2268  0.3189  0.2778
  396MOL0     N53375   5.794   6.790   5.653 -0.2654  0.1956 -0.4015
  396MOL0     N53376   5.677   6.845   5.639 -0.2355 -0.9156 -0.0258
  396MOL0     C53377   4.686   7.702   6.133  0.3223 -0.4575 -0.2495
  396MOL0     C53378   4.661   7.831   6.182 -0.7480  0.7507 -0.4433
  396MOL0     C53379   4.780   8.279   6.262  0.6103  0.1895  0.2326
  396MOL0     C53380   4.657   8.317   6.301  0.4813 -0.0508 -0.7701
  396MOL0     C53381   4.640   8.439   6.375  0.4044  0.5788 -0.0004
  396MOL0     C53382   4.747   8.526   6.403  0.1960 -0.9269  0.0534
  396MOL0     O53383   4.729   8.617   6.502 -0.3548  0.0249 -0.2290
  396MOL0     C53384   4.839   8.702   6.544  0.2752 -0.2287 -0.4402
  396MOL0     C53385   4.786   8.812   6.633 -0.2812 -0.0822  0.0325
  396MOL0     C53386   4.707   8.913   6.549  0.7754 -0.3802 -0.2962
  396MOL0     C53387   4.669   9.042   6.622  0.2751 -0.0977  0.1408
  396MOL0     C53388   4.578   9.136   6.550  0.1176  1.1175  0.6249
  396MOL0     C53389   4.513   9.219   6.488 -1.0585  0.1674 -1.0487
  396MOL0     C53390   4.874   8.490   6.340 -0.4310 -1.1289  0.3927
  396MOL0     C53391   4.891   8.364   6.279 -0.2809  0.0334 -0.4010
  396MOL0     C53392   5.022   8.320   6.237 -1.0150  0.1423  0.0709
  396MOL0     H53393   4.981   7.927   6.219  2.9560 -3.1438 -0.3685
  396MOL0     H53394   5.018   7.681   6.159  0.2604  0.3407  0.8308
  396MOL0     H53395   5.034   7.518   6.006  2.0621  0.3746  2.3988
  396MOL0     H53396   5.005   7.468   6.161  0.1002 -0.2328 -0.3108
  396MOL0     H53397   4.898   7.334   5.898  0.4301 -0.3120 -0.8400
  396MOL0     H53398   4.873   7.270   6.059 -2.0160  0.2877 -1.4377
  396MOL0     H53399   5.091   7.196   6.084  2.6099  1.8358  1.1201
  396MOL0     H53400   5.163   7.310   5.965 -0.7680  0.9702  2.3975
  396MOL0     H53401   4.981   7.068   5.910  1.2269 -1.8595  0.2354
  396MOL0     H53402   5.050   7.182   5.786  1.3503  2.4519  0.9052
  396MOL0     H53403   5.220   7.005   5.984 -0.0919 -1.6071  0.0279
  396MOL0     H53404   5.147   6.942   5.842 -0.5212 -1.5119  2.4346
  396MOL0     H53405   5.294   7.076   5.698  0.4284 -1.7284 -0.5892
  396MOL0     H53406   5.356   7.169   5.839  0.2540 -0.1151 -1.6658
  396MOL0     H53407   5.391   6.872   5.793 -1.4958 -0.4984  0.7317
  396MOL0     H53408   5.442   6.957   5.933 -2.4086 -0.2402 -1.3105
  396MOL0     H53409   5.516   7.061   5.657 -0.0297 -1.2167 -0.0597
  396MOL0     H53410   5.583   7.107   5.813  0.6961  0.0573 -1.0958
  396MOL0     H53411   5.759   6.925   5.951 -1.1730  0.8539  0.9006
  396MOL0     H53412   5.945   6.676   5.903 -1.6654 -0.3914 -0.9301
  396MOL0     H53413   6.040   6.729   5.756 -0.5551  0.5867 -0.8568
  396MOL0     H53414   6.053   6.954   5.922 -0.5843 -0.4877 -1.5131
  396MOL0     H53415   6.008   6.844   6.039 -2.3502  2.2276 -0.8816
  396MOL0     H53416   6.255   6.783   5.877  1.5979  1.1132 -0.1122
  396MOL0     H53417   6.181   6.697   6.021 -0.8174 -0.3083 -1.8086
  396MOL0     H53418   6.321   6.850   6.132  0.2792  2.5671  2.3358
  396MOL0     H53419   6.197   6.967   6.097 -1.9948  0.2400 -2.3990
  396MOL0     H53420   6.449   6.803   5.798 -0.4505 -1.2254  1.9569
  396MOL0     H53421   6.694   6.758   5.759  1.0014  0.3541  0.5115
  396MOL0     H53422   7.157   6.844   6.119  1.9430  0.7204  1.0163
  396MOL0     H53423   7.383   6.760   6.093 -0.5910  0.5599  0.1302
  396MOL0     H53424   7.625   6.787   6.028 -0.6843  1.4438 -1.9659
  396MOL0     H53425   7.545   6.638   6.005  0.8968 -2.6561 -1.6640
  396MOL0     H53426   7.752   6.573   5.952  1.0892  0.8057  0.3627
  396MOL0     H53427   7.696   6.631   5.787 -2.6566  1.4502  0.0925
  396MOL0     H53428   7.828   6.843   5.833 -0.8517 -1.4571 -1.1365
  396MOL0     H53429   7.879   6.787   5.984  1.5897 -1.1668  0.1082
  396MOL0     H53430   7.953   6.651   5.714 -3.0032  0.0608  0.2939
  396MOL0     H53431   8.015   6.595   5.859  2.4047  0.3251 -1.6569
  396MOL0     H53432   8.153   6.775   5.904  1.1273 -0.0207 -0.2432
  396MOL0     H53433   8.062   6.886   5.810  1.9007  0.9477  3.9561
  396MOL0     H53434   8.254   6.678   5.722  0.4730 -0.1181  1.1964
  396MOL0     H53435   8.133   6.754   5.605 -1.5743 -0.3348  0.4957
  396MOL0     H53436   8.340   6.897   5.784  2.2243 -0.1582 -1.2183
  396MOL0     H53437   8.221   6.983   5.696 -0.5552 -0.1824  0.5276
  396MOL0     H53438   8.452   6.973   5.585 -0.2795  0.1325  0.3175
  396MOL0     H53439   8.417   6.800   5.559  1.4105  0.6488  0.3311
  396MOL0     H53440   7.377   6.919   5.686 -0.4235 -0.4079 -0.7015
  396MOL0     H53441   7.133   7.000   5.726  1.7909 -0.1729 -1.0087
  396MOL0     H53442   6.793   7.045   6.055 -0.7088  1.6627 -1.1484
  396MOL0     H53443   6.548   7.085   6.100 -0.7489 -2.0096  2.4846
  396MOL0     H53444   4.596   7.649   6.104 -0.3714  0.5999 -0.0977
  396MOL0     H53445   4.565   7.875   6.207 -1.2468 -1.6539  2.4474
  396MOL0     H53446   4.581   8.242   6.286  0.1253 -0.3668  2.0976
  396MOL0     H53447   4.535   8.454   6.398 -1.0252 -3.7500 -2.4013
  396MOL0     H53448   4.892   8.744   6.459 -1.1386  3.0560  0.1564
  396MOL0     H53449   4.913   8.648   6.604 -2.2919  0.6139  3.9078
  396MOL0     H53450   4.877   8.858   6.672  0.9934 -2.0628 -0.4484
  396MOL0     H53451   4.728   8.764   6.712 -0.7507  0.4288  0.0055
  396MOL0     H53452   4.618   8.873   6.501  0.7102  0.1989 -0.6717
  396MOL0     H53453   4.771   8.940   6.463 -0.0954 -2.1647 -1.5636
  396MOL0     H53454   4.616   9.014   6.713  0.8642 -0.5818  0.3446
  396MOL0     H53455   4.756   9.103   6.646 -1.2038  1.5076  1.7531
  396MOL0     H53456   4.447   9.298   6.456 -0.1835  1.4096  0.1102
  396MOL0     H53457   4.965   8.550   6.341  0.8728 -2.9895 -0.4299
  396MOL0     H53458   5.056   8.220   6.268 -1.0959 -0.0518 -0.4580
  396MOL0     H53459   5.026   8.316   6.128 -2.2910  1.4365 -0.0474
  396MOL0     H53460   5.102   8.387   6.268 -2.5079  1.9343  0.2160
  397MOL0     O53461   0.391   9.127   3.453 -0.5431  0.9613 -0.3078
  397MOL0     C53462   0.348   9.097   3.564  0.2966  0.3369  0.4695
  397MOL0     O53463   0.410   9.123   3.684  0.6775 -0.4053  0.2731
  397MOL0     C53464   0.522   9.202   3.688 -0.3310 -0.0330  0.0755
  397MOL0     C53465   0.549   9.293   3.784 -0.4699 -0.3583 -0.3238
  397MOL0     C53466   0.654   9.387   3.781  0.4667 -0.0102  0.3962
  397MOL0     C53467   0.752   9.374   3.681 -0.6016 -0.1122  0.3602
  397MOL0     O53468   0.864   9.449   3.658 -0.3554 -0.2285 -0.3072
  397MOL0     C53469   0.914   9.515   3.774  0.6188 -0.5652  0.6191
  397MOL0     C53470   1.035   9.609   3.750 -0.0274 -0.7781 -0.3857
  397MOL0     C53471   1.176   9.543   3.721  0.6765 -0.5106  0.0074
  397MOL0     C53472   1.290   9.643   3.721  0.4921 -0.7916 -0.7351
  397MOL0     C53473   1.415   9.580   3.667  0.4265  0.2221  0.3224
  397MOL0     C53474   1.520   9.680   3.649 -0.7649 -0.1293 -0.5980
  397MOL0     C53475   1.659   9.626   3.603  0.0170 -0.7487  0.0265
  397MOL0     C53476   1.762   9.744   3.579 -0.2660 -0.3675 -0.0040
  397MOL0     N53477   1.898   9.692   3.546  0.3658 -0.0865 -1.0708
  397MOL0     C53478   1.988   9.645   3.639 -0.0064 -0.1169 -0.6923
  397MOL0     C53479   2.078   9.577   3.559 -0.1476  0.1814  0.2896
  397MOL0     C53480   2.204   9.494   3.599  0.8846  0.3688 -0.7649
  397MOL0     C53481   2.320   9.487   3.495  0.5023 -0.0971  0.4829
  397MOL0     C53482   2.438   9.416   3.548  0.1476  0.5999 -0.0230
  397MOL0     C53483   2.516   9.497   3.645 -0.4051  0.4170 -0.3819
  397MOL0     O53484   2.592   9.601   3.585 -0.7442 -1.0373  0.0221
  397MOL0     C53485   2.700   9.583   3.507  0.2443  0.3998  1.1415
  397MOL0     C53486   2.772   9.463   3.503  0.1146  0.5718  0.4111
  397MOL0     C53487   2.894   9.458   3.425  0.3582 -0.4816  0.0511
  397MOL0     C53488   2.935   9.577   3.365 -0.5342 -0.0672 -0.4224
  397MOL0     C53489   3.082   9.591   3.316  0.4836 -0.1277  0.1676
  397MOL0     O53490   3.104   9.673   3.209  1.1350 -0.3932  0.5848
  397MOL0     C53491   3.233   9.707   3.177 -0.1968 -0.4223 -1.1501
  397MOL0     C53492   3.261   9.844   3.183  0.0412 -1.4349  0.4963
  397MOL0     C53493   3.383   9.889   3.154 -0.8464  0.0079  0.3908
  397MOL0     C53494   3.486   9.807   3.114 -0.2749 -0.5102 -0.4719
  397MOL0     O53495   3.608   9.862   3.090 -0.2075 -0.5945  0.0267
  397MOL0     C53496   3.716   9.774   3.069  0.0303  0.5956  0.9848
  397MOL0     C53497   3.842   9.865   3.082  0.6792 -0.0148  0.0209
  397MOL0     C53498   3.951   9.808   3.005 -0.3353  0.0042  0.7298
  397MOL0     C53499   4.067   9.914   3.010  0.3893  0.8862 -0.3542
  397MOL0     C53500   4.164   9.905   3.133 -0.4374 -0.5532  0.6986
  397MOL0     C53501   4.253  10.021   3.136  0.5420  0.0822 -0.2959
  397MOL0     C53502   4.276  10.056   3.282  0.5909 -0.3168 -0.4440
  397MOL0     C53503   4.392  10.167   3.302 -0.0407 -0.8428  0.0076
  397MOL0    Cl53504   4.560  10.110   3.318 -0.4082 -0.0471 -0.2619
  397MOL0     C53505   3.458   9.669   3.104 -0.3149  0.6012 -0.4679
  397MOL0     C53506   3.332   9.616   3.135 -1.4081 -1.1129 -0.1429
  397MOL0     O53507   3.169   9.519   3.372  0.3121 -0.0914 -0.4104
  397MOL0     C53508   2.849   9.685   3.353  0.1158 -0.1615  1.0259
  397MOL0     C53509   2.736   9.692   3.428  0.6246 -0.5359 -0.4369
  397MOL0     N53510   2.040   9.595   3.423 -0.0591 -0.1293 -0.1682
  397MOL0     N53511   1.936   9.671   3.414 -0.1814  0.4258 -0.4752
  397MOL0     C53512   0.740   9.269   3.591  0.0068 -0.2621 -0.5136
  397MOL0     C53513   0.630   9.190   3.598  1.2081 -0.2197  0.4446
  397MOL0     C53514   0.216   9.029   3.581 -0.5098 -0.7327 -1.1179
  397MOL0     C53515   0.184   8.996   3.716 -0.7575  0.5007  0.6722
  397MOL0     C53516   0.075   8.914   3.737  0.3050 -0.2968  0.4068
  397MOL0     C53517  -0.007   8.868   3.633 -0.2066 -0.6044 -0.9062
  397MOL0     O53518  -0.126   8.809   3.673  0.6680 -0.4189 -0.1751
  397MOL0     C53519  -0.219   8.783   3.568  0.2422 -0.0915 -0.1752
  397MOL0     C53520  -0.354   8.734   3.634 -1.0124 -0.6664 -0.0878
  397MOL0     C53521  -0.461   8.676   3.544  0.0729 -0.7640 -0.4973
  397MOL0     C53522  -0.588   8.625   3.627 -0.4616 -1.5987  0.4316
  397MOL0     C53523  -0.558   8.501   3.707  0.2427 -0.0495 -0.2327
  397MOL0     C53524  -0.519   8.416   3.784 -0.5099 -0.2169  0.4795
  397MOL0     C53525   0.018   8.908   3.502 -0.6968  0.1464  0.5293
  397MOL0     C53526   0.139   8.973   3.472  0.3864 -0.8202 -0.3942
  397MOL0     C53527   0.173   8.998   3.331  0.4731  0.4696  0.6854
  397MOL0     H53528   0.474   9.309   3.861  1.9885  0.3071  2.0875
  397MOL0     H53529   0.653   9.463   3.859  0.6709  0.3756  0.0287
  397MOL0     H53530   0.833   9.585   3.798  1.2272  1.9495 -3.6530
  397MOL0     H53531   0.926   9.436   3.849 -2.3031 -0.5741  1.1987
  397MOL0     H53532   1.039   9.664   3.844  1.7316 -2.2758  0.4740
  397MOL0     H53533   1.004   9.677   3.670 -1.4332 -1.9136 -0.8331
  397MOL0     H53534   1.173   9.493   3.624 -3.0582 -0.0079 -0.2911
  397MOL0     H53535   1.196   9.466   3.796 -2.4825 -0.3215  1.1913
  397MOL0     H53536   1.267   9.731   3.660 -1.4373 -0.9594 -0.3169
  397MOL0     H53537   1.319   9.675   3.821 -0.4821 -0.2970 -0.6074
  397MOL0     H53538   1.444   9.496   3.731  0.9816 -0.3139 -0.6081
  397MOL0     H53539   1.387   9.543   3.568 -1.4046 -1.8317  1.5251
  397MOL0     H53540   1.483   9.750   3.574  3.4769 -0.0451 -2.8916
  397MOL0     H53541   1.543   9.735   3.741  2.2191 -0.4906 -1.0362
  397MOL0     H53542   1.633   9.558   3.522 -2.2179  0.4527 -0.3674
  397MOL0     H53543   1.716   9.572   3.678  1.2476  0.7719  0.2464
  397MOL0     H53544   1.733   9.816   3.502  1.8401 -0.6363 -1.0994
  397MOL0     H53545   1.782   9.793   3.674  4.4713 -1.0910 -0.3849
  397MOL0     H53546   2.007   9.646   3.745  1.7041  2.1880 -0.9403
  397MOL0     H53547   2.248   9.527   3.693 -1.0128 -0.4094  0.4574
  397MOL0     H53548   2.169   9.391   3.608  1.1933  0.4352  2.5809
  397MOL0     H53549   2.279   9.433   3.409 -0.2276  0.3193  0.5629
  397MOL0     H53550   2.348   9.585   3.456 -2.9152  0.8462  0.0559
  397MOL0     H53551   2.502   9.382   3.467  0.2615 -0.4667  0.4997
  397MOL0     H53552   2.408   9.323   3.598  1.0991  1.2391  1.8392
  397MOL0     H53553   2.582   9.429   3.701 -1.0424  0.5682  0.5696
  397MOL0     H53554   2.459   9.544   3.726  3.1456 -0.5023  3.0144
  397MOL0     H53555   2.738   9.374   3.556 -2.9859 -0.1124 -2.4216
  397MOL0     H53556   2.945   9.362   3.425 -1.2952 -1.4047 -1.4503
  397MOL0     H53557   3.179   9.910   3.211  0.5632 -0.7667  0.4824
  397MOL0     H53558   3.385   9.997   3.151 -3.3902  0.0989 -0.1317
  397MOL0     H53559   3.726   9.694   3.143  0.0064  0.4907  0.8739
  397MOL0     H53560   3.711   9.731   2.969  1.1720 -2.0655  1.9669
  397MOL0     H53561   3.822   9.964   3.039  0.0354 -0.2552 -0.2282
  397MOL0     H53562   3.864   9.875   3.189  0.7850  2.6839 -0.1682
  397MOL0     H53563   3.990   9.717   3.051  1.0080 -1.1039 -2.2987
  397MOL0     H53564   3.926   9.796   2.899 -2.6386 -0.6543  1.2987
  397MOL0     H53565   4.030  10.017   3.007  0.2849  0.8254 -1.5029
  397MOL0     H53566   4.132   9.894   2.924  0.9991 -2.5844  0.7654
  397MOL0     H53567   4.208   9.805   3.136  1.2046  0.1533  3.1759
  397MOL0     H53568   4.103   9.911   3.224 -1.0442 -1.7278  0.3866
  397MOL0     H53569   4.346   9.989   3.088  1.3064 -2.1277  2.4016
  397MOL0     H53570   4.204  10.107   3.089  1.1877  0.4749 -0.2554
  397MOL0     H53571   4.294   9.972   3.349 -1.5358  0.0861  0.7201
  397MOL0     H53572   4.182  10.099   3.318  1.3603 -0.0351  1.3572
  397MOL0     H53573   4.377  10.229   3.214 -4.0786 -2.9101 -1.0041
  397MOL0     H53574   4.370  10.214   3.399 -0.8717  1.4803 -1.2424
  397MOL0     H53575   3.534   9.601   3.068  1.4700  0.6891  2.7584
  397MOL0     H53576   3.316   9.509   3.132  1.8296 -1.7106  0.2274
  397MOL0     H53577   2.884   9.764   3.287  1.6326 -0.2230  1.7073
  397MOL0     H53578   2.677   9.783   3.430  2.6782  0.8782 -0.9562
  397MOL0     H53579   0.814   9.250   3.514  0.4094 -1.3272  0.1027
  397MOL0     H53580   0.627   9.106   3.529  0.3608 -0.0734  0.2970
  397MOL0     H53581   0.224   9.039   3.808  1.8147 -0.9030  0.3042
  397MOL0     H53582   0.038   8.888   3.836  1.6301 -1.3455  0.6544
  397MOL0     H53583  -0.189   8.711   3.492  1.7323  0.7125 -0.3882
  397MOL0     H53584  -0.246   8.876   3.516 -2.9545 -0.1210  1.2079
  397MOL0     H53585  -0.397   8.822   3.682 -2.0938 -1.3508  0.2321
  397MOL0     H53586  -0.321   8.668   3.714 -1.7568  1.3958  2.0225
  397MOL0     H53587  -0.417   8.594   3.486  2.5906  0.4881 -0.4686
  397MOL0     H53588  -0.493   8.743   3.463  0.8107 -0.4706 -0.5487
  397MOL0     H53589  -0.625   8.704   3.693 -0.9327 -0.6377 -0.9213
  397MOL0     H53590  -0.673   8.601   3.562  0.8638  0.9532 -2.5472
  397MOL0     H53591  -0.482   8.329   3.835 -1.5735 -1.8556 -1.3823
  397MOL0     H53592  -0.050   8.883   3.421 -0.8617  3.5949 -0.5495
  397MOL0     H53593   0.169   9.103   3.300 -2.1679 -0.2977 -1.9879
  397MOL0     H53594   0.275   8.962   3.313  0.4508 -0.4611  2.2995
  397MOL0     H53595   0.112   8.934   3.267  0.4089 -2.3115  3.3272
  398MOL0     O53596   3.270   8.041   7.249 -0.9716 -0.4545  0.1904
  398MOL0     C53597   3.164   8.078   7.208 -0.8781  0.0955 -0.6365
  398MOL0     O53598   3.132   8.200   7.154 -0.0113 -0.1274 -0.0798
  398MOL0     C53599   3.210   8.315   7.167  0.4475 -1.4539  0.1377
  398MOL0     C53600   3.162   8.432   7.100  0.2567  0.5002 -0.0289
  398MOL0     C53601   3.223   8.558   7.112  0.3298 -0.3360  0.3289
  398MOL0     C53602   3.331   8.576   7.204 -0.4080  0.7278  0.0146
  398MOL0     O53603   3.382   8.699   7.226  0.0724 -0.2679  0.0024
  398MOL0     C53604   3.525   8.716   7.229 -0.1866  0.5427 -0.5123
  398MOL0     C53605   3.561   8.854   7.170 -0.0323  0.8182 -0.0918
  398MOL0     C53606   3.713   8.891   7.158 -0.1948  0.1365 -0.3358
  398MOL0     C53607   3.776   8.910   7.299 -0.1353 -0.6107  0.5631
  398MOL0     C53608   3.922   8.950   7.284 -0.2583 -0.1265 -0.0031
  398MOL0     C53609   3.993   8.928   7.425  0.2069 -1.1518  0.4584
  398MOL0     C53610   4.144   8.956   7.402 -0.4567 -1.2127  0.2514
  398MOL0     C53611   4.225   8.932   7.530 -0.6151  1.1069  0.1497
  398MOL0     N53612   4.267   9.062   7.586 -0.9051  0.1217 -0.3663
  398MOL0     C53613   4.395   9.116   7.580  0.2651  0.7896 -0.2706
  398MOL0     C53614   4.394   9.233   7.638 -0.2235  0.3317 -0.1316
  398MOL0     C53615   4.500   9.335   7.646 -0.5498  0.3678  0.0352
  398MOL0     C53616   4.537   9.379   7.507  0.1035 -0.2782 -0.3640
  398MOL0     C53617   4.641   9.495   7.499  0.2969 -0.2861  0.0160
  398MOL0     C53618   4.779   9.470   7.562  0.1424 -0.0380 -0.3024
  398MOL0     O53619   4.820   9.353   7.497 -0.4531 -0.2759 -0.0687
  398MOL0     C53620   4.952   9.327   7.514  0.0547  0.2691  0.9170
  398MOL0     C53621   5.045   9.384   7.609  0.8898  0.5060 -0.4866
  398MOL0     C53622   5.184   9.356   7.596 -0.0510 -0.1729 -0.4688
  398MOL0     C53623   5.234   9.274   7.491 -0.1167  0.2540  0.1370
  398MOL0     C53624   5.372   9.223   7.497  0.3791 -0.0590  0.5713
  398MOL0     O53625   5.408   9.099   7.424 -0.7434 -0.8844  0.3895
  398MOL0     C53626   5.546   9.070   7.415 -0.2022 -0.5123 -0.3530
  398MOL0     C53627   5.575   8.933   7.437 -0.8747 -0.7353 -0.3384
  398MOL0     C53628   5.708   8.884   7.415  0.3870  0.0499 -0.3626
  398MOL0     C53629   5.808   8.980   7.390  0.8038  0.5908 -0.3902
  398MOL0     O53630   5.943   8.948   7.405  0.4040 -0.1777  0.5828
  398MOL0     C53631   5.982   8.812   7.424  0.6468 -0.4155  0.1152
  398MOL0     C53632   6.136   8.804   7.395  0.3417  0.3025  0.5486
  398MOL0     C53633   6.198   8.665   7.432  0.1502 -0.4103 -0.3447
  398MOL0     C53634   6.339   8.649   7.366 -0.3800 -0.3744  0.5892
  398MOL0     C53635   6.385   8.502   7.368 -0.8901 -0.4049 -0.4234
  398MOL0     C53636   6.508   8.473   7.282 -0.2854 -0.5329 -0.3380
  398MOL0     C53637   6.646   8.525   7.327  0.0793 -0.0639 -0.3517
  398MOL0     C53638   6.756   8.482   7.235 -0.8081  0.3982  0.1833
  398MOL0    Cl53639   6.768   8.305   7.205 -0.1432  0.0574  0.0205
  398MOL0     C53640   5.774   9.114   7.364  0.7438  1.1430 -0.2081
  398MOL0     C53641   5.641   9.155   7.378 -0.2969 -0.8282  0.3089
  398MOL0     O53642   5.453   9.299   7.554 -0.3840 -0.1378 -0.2629
  398MOL0     C53643   5.149   9.229   7.396  0.3863  0.1510  0.2591
  398MOL0     C53644   5.010   9.248   7.413  0.0640  0.0003 -0.8919
  398MOL0     N53645   4.262   9.255   7.681 -0.4997 -0.2084  0.1234
  398MOL0     N53646   4.186   9.155   7.637 -0.1134 -0.1422 -0.3951
  398MOL0     C53647   3.382   8.462   7.278  0.4427 -0.7622 -0.1523
  398MOL0     C53648   3.314   8.337   7.266  0.2513 -0.9519 -0.2051
  398MOL0     C53649   3.050   7.978   7.225 -0.2730  0.3116 -0.0698
  398MOL0     C53650   3.062   7.868   7.313  0.4631  0.8045 -0.3562
  398MOL0     C53651   2.964   7.775   7.326  0.2057  0.0178 -0.1860
  398MOL0     C53652   2.849   7.781   7.259 -0.0621  0.2002 -0.1414
  398MOL0     O53653   2.755   7.686   7.276  0.2135  0.5170 -0.3770
  398MOL0     C53654   2.628   7.724   7.336 -0.3459  0.0045  0.1975
  398MOL0     C53655   2.630   7.679   7.483  0.4271 -0.1318  0.4062
  398MOL0     C53656   2.501   7.703   7.568  0.3949  0.2684  0.6746
  398MOL0     C53657   2.373   7.651   7.512 -0.5164 -0.6944  1.1063
  398MOL0     C53658   2.314   7.723   7.397  0.5984  0.1677 -0.2368
  398MOL0     C53659   2.257   7.766   7.303  0.1769 -1.1165  0.6840
  398MOL0     C53660   2.827   7.884   7.173  0.2412 -0.7355  0.2562
  398MOL0     C53661   2.924   7.989   7.157  0.3809  0.3524  0.4757
  398MOL0     C53662   2.886   8.096   7.060  0.4990  0.3631 -0.3165
  398MOL0     H53663   3.068   8.423   7.046  0.3788 -0.2716 -0.1139
  398MOL0     H53664   3.176   8.634   7.050 -1.1709 -1.4082  0.0916
  398MOL0     H53665   3.579   8.712   7.324  0.2095  0.1298 -0.7528
  398MOL0     H53666   3.572   8.637   7.170 -0.1463  0.7131 -0.7099
  398MOL0     H53667   3.513   8.925   7.238 -1.0911 -0.2087  0.2664
  398MOL0     H53668   3.512   8.858   7.072 -2.5798 -3.0651  0.8241
  398MOL0     H53669   3.727   8.989   7.112  0.1417  0.8146  1.1374
  398MOL0     H53670   3.768   8.809   7.109  0.5585 -0.8024  1.9284
  398MOL0     H53671   3.723   8.984   7.359 -3.1696 -1.7717 -0.5173
  398MOL0     H53672   3.766   8.814   7.350 -0.5046 -0.7865  0.1676
  398MOL0     H53673   3.966   8.877   7.216 -1.6886 -0.9976 -0.0247
  398MOL0     H53674   3.947   9.047   7.240  4.4233  0.5963  3.5088
  398MOL0     H53675   3.956   9.010   7.487 -0.8576  0.2296 -1.8437
  398MOL0     H53676   3.970   8.830   7.466 -1.3153 -0.5851  1.0485
  398MOL0     H53677   4.178   9.050   7.356  1.1303 -2.0781 -0.4303
  398MOL0     H53678   4.169   8.871   7.338  1.1017 -1.3921  1.0740
  398MOL0     H53679   4.182   8.870   7.609  0.5024 -1.2141 -0.9850
  398MOL0     H53680   4.321   8.888   7.502  0.3232  2.6623  0.7716
  398MOL0     H53681   4.466   9.059   7.521 -2.0030  0.1521 -2.5986
  398MOL0     H53682   4.460   9.415   7.709 -0.7061 -1.1411  1.9336
  398MOL0     H53683   4.587   9.297   7.700  0.8045  1.2415 -1.4231
  398MOL0     H53684   4.579   9.292   7.454 -0.2834 -0.6072 -0.1292
  398MOL0     H53685   4.447   9.422   7.462  0.0195 -2.0077 -1.9906
  398MOL0     H53686   4.604   9.578   7.561 -0.9417 -0.1768 -0.8497
  398MOL0     H53687   4.646   9.521   7.393 -3.1546 -0.7231 -0.3524
  398MOL0     H53688   4.766   9.455   7.669  0.6450  0.5775 -0.1518
  398MOL0     H53689   4.847   9.555   7.548 -1.2291  0.8905 -1.6406
  398MOL0     H53690   5.012   9.452   7.686 -1.2295  1.3951 -2.0931
  398MOL0     H53691   5.252   9.398   7.670  0.1579  2.0413 -1.8327
  398MOL0     H53692   5.492   8.866   7.457 -1.6869 -0.6891 -3.1291
  398MOL0     H53693   5.719   8.776   7.425 -3.7424 -0.8492 -2.8554
  398MOL0     H53694   5.953   8.786   7.526 -0.1575 -1.0845 -0.2749
  398MOL0     H53695   5.929   8.739   7.363  0.3574 -0.2862  0.2126
  398MOL0     H53696   6.156   8.827   7.290  0.8204 -3.0464 -0.1928
  398MOL0     H53697   6.185   8.883   7.454 -0.1487  1.8148 -0.9929
  398MOL0     H53698   6.207   8.660   7.541  0.7027  0.6822 -0.3182
  398MOL0     H53699   6.135   8.582   7.401  2.0011 -1.0109 -2.7973
  398MOL0     H53700   6.411   8.716   7.413 -2.0869  2.9658 -1.2144
  398MOL0     H53701   6.352   8.681   7.263 -1.7150  0.9853  0.8033
  398MOL0     H53702   6.305   8.433   7.339 -0.4763 -0.5832 -1.1811
  398MOL0     H53703   6.415   8.482   7.471  1.5734 -1.3410 -1.2289
  398MOL0     H53704   6.530   8.366   7.278  2.1864 -0.1373  0.8769
  398MOL0     H53705   6.498   8.497   7.176  1.7738  1.2462 -0.2025
  398MOL0     H53706   6.660   8.499   7.433  1.2193 -1.0481 -0.7225
  398MOL0     H53707   6.652   8.634   7.325  2.7281 -0.1453 -1.3153
  398MOL0     H53708   6.735   8.530   7.139 -0.4047 -0.4713 -0.3563
  398MOL0     H53709   6.852   8.514   7.275 -1.0503  2.9440 -1.0891
  398MOL0     H53710   5.860   9.173   7.334  0.8339  0.2316 -1.8189
  398MOL0     H53711   5.618   9.260   7.366  0.4247 -0.4310  2.0513
  398MOL0     H53712   5.182   9.181   7.304  3.0664  1.7703  0.2691
  398MOL0     H53713   4.939   9.227   7.334 -4.2379 -0.8245  2.7743
  398MOL0     H53714   3.463   8.472   7.350  0.4542 -1.4430 -0.0626
  398MOL0     H53715   3.343   8.247   7.318 -0.6888 -1.3196 -0.2910
  398MOL0     H53716   3.157   7.862   7.366 -0.5828  2.5540  1.9358
  398MOL0     H53717   2.975   7.692   7.395  2.4839  0.6036  0.2484
  398MOL0     H53718   2.545   7.691   7.272 -1.2480  3.2336 -0.4926
  398MOL0     H53719   2.623   7.833   7.332 -1.2725 -0.0685 -1.7776
  398MOL0     H53720   2.711   7.723   7.542  2.1516 -1.1382 -1.1439
  398MOL0     H53721   2.651   7.572   7.491  2.7639  0.2537  0.1312
  398MOL0     H53722   2.489   7.809   7.591  1.9345  0.1714  2.0817
  398MOL0     H53723   2.519   7.639   7.655  2.7242 -0.5127 -0.3053
  398MOL0     H53724   2.380   7.547   7.478  1.2856 -0.4762  0.7040
  398MOL0     H53725   2.306   7.659   7.598  2.3748  0.8822  3.3820
  398MOL0     H53726   2.209   7.802   7.213 -0.0789 -3.2208 -0.0813
  398MOL0     H53727   2.731   7.901   7.124  1.2304  2.9044 -0.7777
  398MOL0     H53728   2.854   8.175   7.128  2.0301  0.7862 -0.0406
  398MOL0     H53729   2.968   8.129   6.995 -0.0647  1.0353 -0.6997
  398MOL0     H53730   2.798   8.063   7.004 -1.1588  2.1729  1.0750
  399MOL0     O53731   2.097   7.932   6.020 -0.1494  0.0950 -0.1525
  399MOL0     C53732   2.087   7.848   5.937 -0.3834  0.2961  0.1037
  399MOL0     O53733   2.177   7.815   5.839 -0.5823  0.0032  0.4644
  399MOL0     C53734   2.279   7.910   5.818 -0.0279  0.9304  0.5849
  399MOL0     C53735   2.412   7.889   5.849  0.0089  0.3785 -0.3542
  399MOL0     C53736   2.515   7.986   5.837 -0.7801 -0.3983  0.3540
  399MOL0     C53737   2.489   8.106   5.777  0.3887 -0.6391  0.5285
  399MOL0     O53738   2.579   8.211   5.747 -0.7879  0.7436  0.3367
  399MOL0     C53739   2.720   8.179   5.734 -0.4427 -0.1594  0.2683
  399MOL0     C53740   2.798   8.293   5.652  0.8312 -0.0941 -0.0553
  399MOL0     C53741   2.948   8.248   5.639 -0.0300 -0.7143 -0.0386
  399MOL0     C53742   3.025   8.330   5.520  0.2874  0.3272 -0.2924
  399MOL0     C53743   3.168   8.276   5.515 -0.4005  0.4257 -0.1109
  399MOL0     C53744   3.258   8.362   5.425 -0.5667  0.0852 -0.4941
  399MOL0     C53745   3.398   8.300   5.397  0.2548 -0.3580 -0.7413
  399MOL0     C53746   3.514   8.319   5.507 -0.5546 -0.5658 -0.2067
  399MOL0     N53747   3.647   8.274   5.456 -0.0495  0.9014  0.4412
  399MOL0     C53748   3.759   8.252   5.539  0.3156  0.3636  0.2792
  399MOL0     C53749   3.858   8.224   5.454  0.6765 -0.2812  0.4217
  399MOL0     C53750   3.994   8.205   5.518 -0.8125  0.4624 -0.5036
  399MOL0     C53751   4.111   8.299   5.483  0.1601  0.3106  0.2183
  399MOL0     C53752   4.141   8.301   5.326  0.3324  0.5783 -0.5907
  399MOL0     C53753   4.245   8.415   5.289  0.0248 -1.0110 -0.0507
  399MOL0     O53754   4.376   8.381   5.343 -0.2520  0.4140 -0.0750
  399MOL0     C53755   4.464   8.301   5.277  0.6322 -0.1814 -0.0695
  399MOL0     C53756   4.441   8.235   5.153  0.5183  0.1544  0.5651
  399MOL0     C53757   4.538   8.161   5.092 -0.8603 -0.5839  0.8309
  399MOL0     C53758   4.667   8.158   5.147  0.5539 -0.2097 -0.9512
  399MOL0     C53759   4.778   8.085   5.080 -0.7947 -0.9063  0.0365
  399MOL0     O53760   4.902   8.111   5.134 -0.0868 -0.0614  0.4195
  399MOL0     C53761   5.016   8.067   5.059  0.2086  0.2914 -1.9156
  399MOL0     C53762   5.020   8.091   4.917  0.6989  0.2735 -0.1395
  399MOL0     C53763   5.126   8.049   4.842 -0.7192 -0.0259 -1.2986
  399MOL0     C53764   5.233   7.986   4.909 -0.3768 -1.0388 -0.7165
  399MOL0     O53765   5.348   7.950   4.845 -0.4596 -0.2895  0.2589
  399MOL0     C53766   5.350   7.963   4.704  0.0585 -0.5046  0.4656
  399MOL0     C53767   5.487   7.929   4.648 -0.1011  0.0124 -0.1105
  399MOL0     C53768   5.521   7.781   4.671  0.1228 -0.5950  0.2312
  399MOL0     C53769   5.659   7.748   4.622 -0.4538  0.5723  0.2252
  399MOL0     C53770   5.690   7.593   4.615  0.4046  0.2236 -0.4470
  399MOL0     C53771   5.816   7.544   4.527 -0.3488 -0.2196 -0.0582
  399MOL0     C53772   5.946   7.592   4.596  0.7833  0.4762  0.6240
  399MOL0     C53773   6.051   7.488   4.588 -0.6492 -0.0226 -0.2895
  399MOL0    Cl53774   6.079   7.460   4.423 -0.3484  0.1919 -0.6209
  399MOL0     C53775   5.239   7.972   5.051  0.9607 -0.8412  0.9524
  399MOL0     C53776   5.131   8.029   5.125 -0.0143 -0.1696  0.2538
  399MOL0     O53777   4.758   7.995   5.001  0.1998 -0.4346  0.1050
  399MOL0     C53778   4.685   8.225   5.275  0.3084 -0.5627  0.6896
  399MOL0     C53779   4.582   8.294   5.340 -0.0460 -0.3459  0.0614
  399MOL0     N53780   3.809   8.216   5.321 -0.6088  0.8954 -0.2146
  399MOL0     N53781   3.686   8.253   5.330 -0.3099  0.3252 -0.3479
  399MOL0     C53782   2.350   8.131   5.743 -0.2797  1.1393 -0.0157
  399MOL0     C53783   2.247   8.034   5.765  0.2217  0.2585  0.1193
  399MOL0     C53784   1.975   7.747   5.944  0.1442 -0.5304  0.1638
  399MOL0     C53785   1.988   7.626   5.879  0.5002  0.4368  0.7845
  399MOL0     C53786   1.898   7.518   5.895 -0.0878 -0.2639 -0.1869
  399MOL0     C53787   1.789   7.532   5.975 -0.4686 -0.4697 -0.0592
  399MOL0     O53788   1.687   7.451   6.014 -0.0997  0.2474  0.6444
  399MOL0     C53789   1.707   7.308   6.001  0.0660 -0.1302  0.3012
  399MOL0     C53790   1.610   7.234   6.088  0.1338  0.5601  0.1638
  399MOL0     C53791   1.466   7.233   6.028  0.4158  0.8646  0.2770
  399MOL0     C53792   1.366   7.179   6.135 -0.4006 -1.0197 -0.3175
  399MOL0     C53793   1.230   7.232   6.120 -0.1619 -0.3349  0.1649
  399MOL0     C53794   1.114   7.277   6.110  0.0659  0.5134 -0.5050
  399MOL0     C53795   1.784   7.648   6.047 -0.8847 -0.4299 -0.0458
  399MOL0     C53796   1.862   7.766   6.028  0.3377 -0.7620 -0.7143
  399MOL0     C53797   1.839   7.890   6.114 -0.7025 -0.0460  0.1695
  399MOL0     H53798   2.443   7.792   5.886 -0.2010  0.1432 -0.7896
  399MOL0     H53799   2.616   7.969   5.872 -1.1018 -0.4155  1.2807
  399MOL0     H53800   2.765   8.174   5.833 -0.1986 -1.1082  0.1173
  399MOL0     H53801   2.741   8.086   5.680 -1.6124  0.4201 -1.2542
  399MOL0     H53802   2.792   8.389   5.703  0.6811 -0.4223  0.5576
  399MOL0     H53803   2.748   8.303   5.556 -3.0953 -0.1990  1.7690
  399MOL0     H53804   2.961   8.140   5.624  2.8265 -0.8533  2.4636
  399MOL0     H53805   3.011   8.272   5.725 -0.2138 -0.2528 -0.0331
  399MOL0     H53806   2.977   8.311   5.423 -1.0286  0.6168  0.2845
  399MOL0     H53807   3.028   8.438   5.533 -0.4751  0.6793 -2.5979
  399MOL0     H53808   3.217   8.271   5.612  1.2677 -1.3774 -0.9627
  399MOL0     H53809   3.157   8.174   5.477 -0.5707  0.3949  0.0207
  399MOL0     H53810   3.214   8.372   5.325  0.5044 -3.3452 -1.4455
  399MOL0     H53811   3.266   8.458   5.478  1.7994 -0.8630  1.0065
  399MOL0     H53812   3.442   8.334   5.304 -0.9367  0.8757 -0.8783
  399MOL0     H53813   3.376   8.194   5.379  0.9915 -0.4870 -0.9190
  399MOL0     H53814   3.529   8.422   5.540  0.1376 -0.4842 -0.7456
  399MOL0     H53815   3.495   8.261   5.598  0.6972  0.0829  0.5100
  399MOL0     H53816   3.774   8.289   5.640 -0.6794  2.0355 -0.1318
  399MOL0     H53817   3.993   8.218   5.627  3.6396  1.3460 -0.3683
  399MOL0     H53818   4.032   8.103   5.514  0.8156  0.9457  0.9226
  399MOL0     H53819   4.082   8.401   5.512 -1.0951 -0.2342  0.9800
  399MOL0     H53820   4.201   8.277   5.541 -1.2799 -0.2606  2.3771
  399MOL0     H53821   4.046   8.316   5.275 -1.1941 -1.0758  1.5484
  399MOL0     H53822   4.179   8.204   5.291  1.8265  0.8454  0.1891
  399MOL0     H53823   4.221   8.513   5.331  1.8254  0.6920 -2.6927
  399MOL0     H53824   4.261   8.414   5.181 -1.7986 -2.5648 -0.3626
  399MOL0     H53825   4.350   8.250   5.096  1.3104  2.9976 -0.1505
  399MOL0     H53826   4.526   8.103   5.001 -2.5233  0.2042  0.5162
  399MOL0     H53827   4.938   8.130   4.858  0.0501 -0.5637  0.1861
  399MOL0     H53828   5.116   8.068   4.736 -1.0419  1.0060 -1.0916
  399MOL0     H53829   5.274   7.892   4.672 -2.2454  1.3504  1.5180
  399MOL0     H53830   5.336   8.067   4.674 -2.1836 -0.4672  1.4597
  399MOL0     H53831   5.495   7.960   4.543  3.2148  1.7535  0.5401
  399MOL0     H53832   5.559   7.993   4.699 -0.7691  2.4476 -2.0094
  399MOL0     H53833   5.520   7.766   4.779 -0.1540 -1.4904  0.1125
  399MOL0     H53834   5.449   7.713   4.624 -1.7522  0.6565  1.1623
  399MOL0     H53835   5.741   7.797   4.675 -0.0019 -0.7391  0.7829
  399MOL0     H53836   5.666   7.785   4.519  2.0726 -1.1460 -0.3210
  399MOL0     H53837   5.598   7.543   4.583 -1.0578  0.9554  2.3363
  399MOL0     H53838   5.699   7.564   4.720  3.0035  0.6333 -0.4963
  399MOL0     H53839   5.813   7.436   4.515  1.6436 -0.3678  0.4495
  399MOL0     H53840   5.806   7.589   4.428 -4.0782  3.6852  1.7139
  399MOL0     H53841   5.935   7.614   4.702  0.6016  1.9369  0.3296
  399MOL0     H53842   5.982   7.684   4.550  2.6981  0.2742  1.6312
  399MOL0     H53843   6.142   7.527   4.634 -0.7785 -0.8640  0.7185
  399MOL0     H53844   6.017   7.398   4.639  1.4234 -0.9753 -0.4956
  399MOL0     H53845   5.333   7.935   5.089  1.6787 -2.8027 -2.2745
  399MOL0     H53846   5.133   8.019   5.233  1.3570 -1.0728  0.1735
  399MOL0     H53847   4.784   8.227   5.320  0.7695  1.0803 -0.3086
  399MOL0     H53848   4.585   8.337   5.440 -1.1649  2.5159 -1.0131
  399MOL0     H53849   2.320   8.228   5.707  0.1234 -0.2152 -4.5835
  399MOL0     H53850   2.140   8.054   5.754  0.4977  2.1952  0.5593
  399MOL0     H53851   2.071   7.600   5.814 -0.7036 -0.6207 -0.3803
  399MOL0     H53852   1.912   7.428   5.836  1.1227  1.7286 -3.1674
  399MOL0     H53853   1.808   7.283   6.034 -1.0833 -2.5161  2.2796
  399MOL0     H53854   1.697   7.274   5.897 -0.8675  1.0283 -0.0111
  399MOL0     H53855   1.621   7.267   6.192 -0.0975 -2.7889  1.3707
  399MOL0     H53856   1.633   7.127   6.096  0.7601  0.7331  0.8629
  399MOL0     H53857   1.474   7.161   5.945 -0.3767 -0.7049  1.5163
  399MOL0     H53858   1.446   7.333   5.989  2.2398  0.4583 -1.9340
  399MOL0     H53859   1.368   7.070   6.120 -0.3685 -0.6901 -3.6035
  399MOL0     H53860   1.393   7.217   6.234  0.4478  0.5863 -1.1216
  399MOL0     H53861   1.025   7.337   6.119 -0.7869 -0.8098  0.1753
  399MOL0     H53862   1.709   7.659   6.124  0.8261 -0.5809  1.7286
  399MOL0     H53863   1.818   7.981   6.058 -1.7477  1.4913  2.8293
  399MOL0     H53864   1.755   7.871   6.182  0.2061  2.2284  2.0944
  399MOL0     H53865   1.921   7.907   6.184 -0.6929  2.3317 -0.3407
  400MOL0     O53866   8.017   2.935   6.573 -0.0907  0.3054 -0.1337
  400MOL0     C53867   7.951   3.039   6.575  0.1185  1.2371  1.1851
  400MOL0     O53868   7.970   3.144   6.492  0.7748 -0.3732 -0.3198
  400MOL0     C53869   8.091   3.154   6.434 -0.4167 -0.1571  0.3559
  400MOL0     C53870   8.195   3.207   6.510 -0.1853  0.1255  0.1597
  400MOL0     C53871   8.321   3.212   6.460 -0.0260  0.6030  0.8463
  400MOL0     C53872   8.344   3.167   6.327  0.2134 -0.4413 -0.1481
  400MOL0     O53873   8.469   3.165   6.260  0.0495  0.1374  0.1844
  400MOL0     C53874   8.591   3.174   6.330 -0.0037  0.5329  0.1106
  400MOL0     C53875   8.609   3.047   6.417 -0.4967 -0.1949 -0.8218
  400MOL0     C53876   8.735   3.042   6.498  0.3738 -0.0205  0.2895
  400MOL0     C53877   8.733   3.130   6.623  0.1365 -0.1917 -0.0150
  400MOL0     C53878   8.877   3.120   6.695  0.7163 -0.6140  0.4071
  400MOL0     C53879   8.969   3.232   6.641  0.0074  0.2620  0.1024
  400MOL0     C53880   9.104   3.247   6.705 -0.4772  0.7201  0.2185
  400MOL0     C53881   9.186   3.341   6.619 -0.3563 -0.8219  0.4138
  400MOL0     N53882   9.324   3.329   6.655  0.1936  0.8744 -0.5290
  400MOL0     C53883   9.376   3.358   6.782  0.2146 -0.3542 -0.1655
  400MOL0     C53884   9.503   3.327   6.770 -0.4654  0.2858  0.2600
  400MOL0     C53885   9.597   3.349   6.891  0.3649  0.5560 -0.1870
  400MOL0     C53886   9.666   3.221   6.943  0.0678  0.9036  0.0392
  400MOL0     C53887   9.760   3.149   6.843 -0.1994 -0.5692  0.1157
  400MOL0     C53888   9.863   3.240   6.774 -0.3506  0.7374  0.8190
  400MOL0     O53889   9.932   3.315   6.874  0.1916 -0.0707  0.3330
  400MOL0     C53890  10.018   3.409   6.816 -0.6836 -0.5191 -0.5947
  400MOL0     C53891  10.139   3.374   6.765 -0.0937  0.6940 -0.7719
  400MOL0     C53892  10.232   3.460   6.717 -0.2793 -0.9235  0.5549
  400MOL0     C53893  10.209   3.598   6.731 -0.1540  0.7620 -0.9263
  400MOL0     C53894  10.311   3.697   6.693 -0.6319  1.1645  0.1134
  400MOL0     O53895  10.402   3.653   6.602 -0.3967 -0.6646  0.2130
  400MOL0     C53896  10.534   3.705   6.598  0.5426 -0.2051  0.6673
  400MOL0     C53897  10.626   3.690   6.706 -0.4302 -0.1067 -0.1227
  400MOL0     C53898  10.750   3.745   6.704 -0.5167  0.0118  0.1402
  400MOL0     C53899  10.800   3.795   6.587 -0.4185  0.2096  0.0356
  400MOL0     O53900  10.916   3.855   6.594 -0.2881  0.3315 -0.5500
  400MOL0     C53901  11.000   3.865   6.485 -0.2241 -0.5176 -0.0787
  400MOL0     C53902  11.112   3.945   6.545 -0.5544 -0.0268 -0.2847
  400MOL0     C53903  11.247   3.921   6.474 -0.4972 -0.1493 -0.5248
  400MOL0     C53904  11.349   4.030   6.515 -0.5151  0.3382 -0.1807
  400MOL0     C53905  11.499   4.010   6.466 -0.5449 -0.7771 -1.0887
  400MOL0     C53906  11.585   4.130   6.521  0.2007  0.7172 -0.6315
  400MOL0     C53907  11.727   4.136   6.468  0.2798 -0.1420  0.4207
  400MOL0     C53908  11.818   4.228   6.552  0.3495 -0.1259 -0.1372
  400MOL0    Cl53909  11.976   4.256   6.472  0.0853 -0.0387  0.3200
  400MOL0     C53910  10.716   3.805   6.475 -0.5126 -0.0259  0.2106
  400MOL0     C53911  10.583   3.760   6.475 -0.2804 -0.7948  0.2222
  400MOL0     O53912  10.321   3.801   6.752 -0.7070  0.5229 -0.6249
  400MOL0     C53913  10.085   3.644   6.781  0.3851 -0.1191  0.1064
  400MOL0     C53914   9.990   3.551   6.808  0.1412 -0.9009  0.8691
  400MOL0     N53915   9.528   3.266   6.646 -0.3312 -0.8291 -0.0694
  400MOL0     N53916   9.416   3.271   6.581 -0.3052  0.3899  0.1440
  400MOL0     C53917   8.243   3.106   6.256 -0.6292 -0.9499  0.2792
  400MOL0     C53918   8.115   3.117   6.303  0.9279 -0.6433 -0.4147
  400MOL0     C53919   7.814   3.016   6.641  0.0433 -0.5023  0.7090
  400MOL0     C53920   7.779   2.882   6.673  0.0607  0.0775 -0.2533
  400MOL0     C53921   7.642   2.851   6.716  0.5594  0.5662  0.1026
  400MOL0     C53922   7.539   2.943   6.709 -0.5415  0.2193  0.5258
  400MOL0     O53923   7.415   2.889   6.728  0.5943  0.2079 -0.0103
  400MOL0     C53924   7.304   2.974   6.714 -0.4219 -0.0392  0.3183
  400MOL0     C53925   7.177   2.899   6.721  0.0819 -0.2273 -0.4071
  400MOL0     C53926   7.059   2.996   6.722  0.9432 -0.4271  0.1895
  400MOL0     C53927   6.926   2.922   6.683 -0.5727 -0.2540  0.3662
  400MOL0     C53928   6.819   3.022   6.704  0.3128 -0.4564  0.3437
  400MOL0     C53929   6.744   3.117   6.709  0.2463 -0.3287 -0.8702
  400MOL0     C53930   7.568   3.071   6.671 -0.0054  0.4428 -0.0104
  400MOL0     C53931   7.698   3.111   6.634  0.3797 -0.6216  0.0883
  400MOL0     C53932   7.711   3.242   6.577  0.6962 -1.3477  0.1254
  400MOL0     H53933   8.187   3.235   6.615  2.5348  0.2316  0.4014
  400MOL0     H53934   8.400   3.257   6.519 -0.5070  3.6648 -0.6487
  400MOL0     H53935   8.671   3.173   6.255 -2.5451 -0.5224 -2.7944
  400MOL0     H53936   8.603   3.268   6.385  1.7952  0.3535  0.0962
  400MOL0     H53937   8.613   2.964   6.345 -1.6357  1.0627 -2.4278
  400MOL0     H53938   8.533   3.051   6.496  0.4808  2.3413  0.0958
  400MOL0     H53939   8.821   3.066   6.434  1.0924 -2.0562  0.4364
  400MOL0     H53940   8.748   2.941   6.537 -1.4482 -0.1871  0.5450
  400MOL0     H53941   8.696   3.230   6.600  0.1295  0.3812  2.3072
  400MOL0     H53942   8.663   3.097   6.701 -0.1715  0.9677  0.2110
  400MOL0     H53943   8.859   3.145   6.800 -2.8436  2.4179 -0.6916
  400MOL0     H53944   8.925   3.023   6.678  1.6260  0.1840 -1.8643
  400MOL0     H53945   8.994   3.211   6.536  1.5262  0.0427  0.4845
  400MOL0     H53946   8.912   3.325   6.634  1.1944  1.0897  1.0101
  400MOL0     H53947   9.160   3.154   6.701 -0.6327  0.5049  2.0727
  400MOL0     H53948   9.101   3.282   6.809 -2.7307 -0.6546  0.6656
  400MOL0     H53949   9.163   3.332   6.512 -0.2390 -0.4754  0.3575
  400MOL0     H53950   9.155   3.441   6.651 -0.1305 -0.1510 -1.3033
  400MOL0     H53951   9.327   3.414   6.861 -0.6737 -1.3252 -0.0101
  400MOL0     H53952   9.673   3.423   6.866  2.1294 -0.6941  1.1907
  400MOL0     H53953   9.540   3.381   6.979 -0.3106  2.4471 -1.2654
  400MOL0     H53954   9.717   3.243   7.037  1.8677 -0.4623 -0.5853
  400MOL0     H53955   9.588   3.146   6.961 -1.2122  1.7274 -1.8243
  400MOL0     H53956   9.696   3.102   6.768  0.0380  0.7414 -0.9427
  400MOL0     H53957   9.813   3.066   6.891 -0.0473 -0.2067  0.5853
  400MOL0     H53958   9.811   3.302   6.701 -1.5837 -0.9227  0.2399
  400MOL0     H53959   9.946   3.188   6.725  0.4672  1.5659  1.2951
  400MOL0     H53960  10.160   3.267   6.763  2.1147  1.0135  1.3232
  400MOL0     H53961  10.319   3.420   6.665 -0.4318  0.9752 -1.3163
  400MOL0     H53962  10.591   3.642   6.797  2.3231  1.5004  1.9382
  400MOL0     H53963  10.812   3.742   6.793  2.1077  0.4575 -1.5821
  400MOL0     H53964  11.034   3.765   6.458 -1.8227 -0.8937 -0.8526
  400MOL0     H53965  10.958   3.911   6.395 -1.5452 -0.1581  0.6942
  400MOL0     H53966  11.082   4.051   6.543 -1.8503 -0.3859 -0.5946
  400MOL0     H53967  11.138   3.918   6.648 -0.7045  1.2038  0.0947
  400MOL0     H53968  11.283   3.825   6.511  0.1810  0.3278  0.0908
  400MOL0     H53969  11.220   3.927   6.368  0.5425 -0.6338 -0.8297
  400MOL0     H53970  11.359   4.030   6.624 -1.3947 -2.9368  0.0076
  400MOL0     H53971  11.310   4.123   6.472 -0.8162  0.0631 -0.5168
  400MOL0     H53972  11.509   4.011   6.357  0.0273  0.3312 -1.0439
  400MOL0     H53973  11.552   3.923   6.504 -1.8808 -2.6342 -3.2186
  400MOL0     H53974  11.525   4.219   6.499 -2.4820 -0.5261  1.0680
  400MOL0     H53975  11.568   4.107   6.626 -0.5553 -2.3939 -1.3093
  400MOL0     H53976  11.719   4.160   6.362  2.4542  2.6922  0.7915
  400MOL0     H53977  11.761   4.033   6.478 -1.8022 -1.1670 -1.9714
  400MOL0     H53978  11.754   4.317   6.560 -0.7298 -0.8205 -0.7916
  400MOL0     H53979  11.824   4.187   6.653 -2.0446 -0.1365  0.0422
  400MOL0     H53980  10.748   3.853   6.383  1.0592 -0.2479  0.6011
  400MOL0     H53981  10.513   3.763   6.392 -0.2887  0.7628  0.2609
  400MOL0     H53982  10.056   3.747   6.797  0.0116 -0.3040  0.6640
  400MOL0     H53983   9.892   3.592   6.832  1.7232  2.6671  1.9305
  400MOL0     H53984   8.267   3.060   6.160  0.8214 -1.9608  1.0859
  400MOL0     H53985   8.025   3.091   6.247 -0.1473  0.6695  0.6191
  400MOL0     H53986   7.847   2.798   6.668 -1.4273 -1.4468  2.5359
  400MOL0     H53987   7.625   2.745   6.733 -0.9325  0.6889 -0.5268
  400MOL0     H53988   7.303   3.023   6.617 -2.5967 -3.3258 -1.5144
  400MOL0     H53989   7.311   3.045   6.797 -0.3004 -0.3813  0.6076
  400MOL0     H53990   7.186   2.834   6.808  0.9889  0.3788 -0.0365
  400MOL0     H53991   7.163   2.839   6.631  0.3828  0.3691 -0.8612
  400MOL0     H53992   7.087   3.075   6.652  0.7201  1.3174  1.9545
  400MOL0     H53993   7.035   3.043   6.818  1.1640 -1.8490  0.9604
  400MOL0     H53994   6.931   2.893   6.578  3.7958  1.6124 -0.1609
  400MOL0     H53995   6.912   2.839   6.754 -0.3525 -0.0338  0.6709
  400MOL0     H53996   6.681   3.203   6.692 -0.9901 -1.3850 -1.8361
  400MOL0     H53997   7.494   3.150   6.674 -0.6412 -0.0055  4.9757
  400MOL0     H53998   7.802   3.294   6.608 -1.0774  0.7802  2.2140
  400MOL0     H53999   7.695   3.250   6.469 -0.9341  2.0862  0.4707
  400MOL0     H54000   7.631   3.311   6.608 -1.4421 -2.2120 -2.9295
  401MOL0     O54001  10.104   8.370   6.619  0.4366  0.5561  0.5070
  401MOL0     C54002  10.033   8.473   6.627 -0.6392  0.6875  0.3135
  401MOL0     O54003  10.086   8.595   6.634  0.2342 -0.6553  0.2323
  401MOL0     C54004  10.219   8.624   6.669  0.3338  0.9559 -0.1111
  401MOL0     C54005  10.251   8.606   6.802 -0.1335 -0.2709  0.3185
  401MOL0     C54006  10.377   8.635   6.845 -0.5108  0.1066  0.1228
  401MOL0     C54007  10.476   8.693   6.759  0.7814 -0.3902 -0.0972
  401MOL0     O54008  10.600   8.724   6.811 -0.3086  0.1065  0.2825
  401MOL0     C54009  10.672   8.830   6.736  1.5472  0.0317  0.3635
  401MOL0     C54010  10.787   8.871   6.813 -0.2500  0.4558 -0.1444
  401MOL0     C54011  10.755   8.974   6.923 -0.0569 -0.2554 -0.1751
  401MOL0     C54012  10.866   9.078   6.947  0.7000  0.2895 -0.7643
  401MOL0     C54013  10.857   9.141   7.088  0.5306 -0.0321  0.6735
  401MOL0     C54014  10.965   9.245   7.115 -0.7457  0.4292 -0.3671
  401MOL0     C54015  10.955   9.334   7.244  0.1782 -0.0122 -0.1947
  401MOL0     C54016  10.939   9.244   7.373 -0.4265 -0.0679  0.8868
  401MOL0     N54017  11.061   9.205   7.444  0.0879 -0.3106 -0.3576
  401MOL0     C54018  11.147   9.116   7.397  0.8637 -0.2709  0.1811
  401MOL0     C54019  11.244   9.109   7.493 -0.4816 -0.3664 -0.1105
  401MOL0     C54020  11.371   9.025   7.494 -0.5170  0.2797 -0.7322
  401MOL0     C54021  11.499   9.104   7.534  0.4669  0.0999  0.9073
  401MOL0     C54022  11.602   9.026   7.613 -0.2265  0.1560  0.0766
  401MOL0     C54023  11.724   9.103   7.657 -0.4090 -0.4585  0.3085
  401MOL0     O54024  11.835   9.009   7.662 -0.6052  0.3689  0.2164
  401MOL0     C54025  11.968   9.053   7.683  0.9178  0.1374  0.6877
  401MOL0     C54026  12.063   8.953   7.670 -0.2576  0.2918  0.3234
  401MOL0     C54027  12.200   8.974   7.693 -0.0940  0.3142  0.2760
  401MOL0     C54028  12.235   9.107   7.732 -1.1402  0.4618 -0.6561
  401MOL0     C54029  12.385   9.146   7.757 -0.5270  0.2933  0.5429
  401MOL0     O54030  12.473   9.051   7.734 -0.3030 -0.6570 -0.0875
  401MOL0     C54031  12.598   9.063   7.783 -0.3972 -0.4258 -0.0337
  401MOL0     C54032  12.633   9.093   7.915 -0.0702 -0.1282  0.3309
  401MOL0     C54033  12.767   9.113   7.953 -0.3714 -0.3527 -0.1517
  401MOL0     C54034  12.861   9.114   7.850 -1.0051  0.1511  0.4242
  401MOL0     O54035  12.992   9.138   7.859  0.0280  0.0648  0.1950
  401MOL0     C54036  13.038   9.211   7.981  0.7265 -0.4883  0.3552
  401MOL0     C54037  13.174   9.285   7.972  0.2302 -0.5656 -0.7952
  401MOL0     C54038  13.288   9.185   7.938  0.7710 -0.0447  0.3260
  401MOL0     C54039  13.425   9.256   7.931  0.6825 -0.1767  0.2268
  401MOL0     C54040  13.509   9.265   8.056 -0.8546 -0.1996  0.5990
  401MOL0     C54041  13.655   9.289   8.015 -0.9387  0.9007  0.5227
  401MOL0     C54042  13.757   9.334   8.126  0.3711 -0.3109  0.0835
  401MOL0     C54043  13.893   9.373   8.080 -1.2851 -0.7173  0.5087
  401MOL0    Cl54044  13.999   9.430   8.214 -0.2127  0.0730  0.1401
  401MOL0     C54045  12.831   9.061   7.724 -0.6216 -1.0062 -0.0873
  401MOL0     C54046  12.699   9.052   7.687  0.5056  0.3825 -0.4932
  401MOL0     O54047  12.414   9.263   7.787 -0.3531 -0.2874  0.6917
  401MOL0     C54048  12.133   9.208   7.728  0.1229 -0.2495  0.6768
  401MOL0     C54049  11.999   9.178   7.706  0.7950 -0.0638 -0.5415
  401MOL0     N54050  11.217   9.202   7.596  0.3465 -0.2900  0.2627
  401MOL0     N54051  11.108   9.263   7.553 -0.0722  0.4052 -0.4029
  401MOL0     C54052  10.440   8.719   6.626 -0.2237 -0.1978  0.2950
  401MOL0     C54053  10.315   8.675   6.580 -0.4015 -0.3761 -0.9776
  401MOL0     C54054   9.894   8.460   6.610  0.6287 -0.4661 -0.6014
  401MOL0     C54055   9.825   8.552   6.529 -1.2717 -0.7782 -0.5482
  401MOL0     C54056   9.692   8.547   6.505 -0.2073  0.0317  0.1530
  401MOL0     C54057   9.617   8.433   6.540  0.2283 -0.6629 -0.4874
  401MOL0     O54058   9.487   8.410   6.495  0.3490  0.6956  0.1288
  401MOL0     C54059   9.432   8.500   6.398  0.2753 -0.4230  1.2939
  401MOL0     C54060   9.285   8.447   6.382 -0.1721 -0.4412  0.3527
  401MOL0     C54061   9.214   8.550   6.295 -0.1358  0.1454  0.6551
  401MOL0     C54062   9.061   8.514   6.293 -0.4922 -0.0324  0.6808
  401MOL0     C54063   8.984   8.615   6.221 -0.6133  0.0147 -0.7592
  401MOL0     C54064   8.923   8.701   6.158 -0.3878  0.5874  0.1046
  401MOL0     C54065   9.678   8.345   6.636 -0.8914  0.5304 -0.0161
  401MOL0     C54066   9.814   8.349   6.671  0.2921 -1.4631 -0.2478
  401MOL0     C54067   9.865   8.249   6.764  0.5597 -1.2116 -0.4666
  401MOL0     H54068  10.180   8.568   6.875 -1.7467  1.5678 -0.1960
  401MOL0     H54069  10.414   8.626   6.946  1.9050  1.8679 -0.5155
  401MOL0     H54070  10.699   8.796   6.636 -0.9044  0.5078 -0.5385
  401MOL0     H54071  10.611   8.918   6.713  0.9920 -0.5486 -0.4617
  401MOL0     H54072  10.860   8.909   6.742  0.4105 -0.9667 -0.2614
  401MOL0     H54073  10.832   8.788   6.868  0.2591  0.8215 -0.0122
  401MOL0     H54074  10.741   8.924   7.019  1.0883 -0.7262 -0.2391
  401MOL0     H54075  10.665   9.029   6.891 -2.9099 -3.1190  2.2769
  401MOL0     H54076  10.958   9.020   6.934  1.6522  1.3727  0.7927
  401MOL0     H54077  10.859   9.158   6.873  0.8154  0.0469 -1.0385
  401MOL0     H54078  10.757   9.185   7.092 -0.3842 -2.0371  1.2276
  401MOL0     H54079  10.869   9.060   7.160 -2.6143 -0.8060  0.4537
  401MOL0     H54080  11.059   9.189   7.120 -1.7223 -1.2786 -0.2969
  401MOL0     H54081  10.960   9.310   7.027 -1.4560  0.1349 -0.5504
  401MOL0     H54082  10.868   9.401   7.247 -0.2349 -0.5299  2.4907
  401MOL0     H54083  11.045   9.395   7.253  0.1433  0.1158 -0.7253
  401MOL0     H54084  10.869   9.297   7.438 -2.3479  3.6785 -3.6514
  401MOL0     H54085  10.884   9.152   7.351  1.6133 -1.4711  1.3451
  401MOL0     H54086  11.145   9.058   7.305  0.7815 -0.7401  0.4749
  401MOL0     H54087  11.359   8.952   7.574 -2.0638  1.2145 -0.0650
  401MOL0     H54088  11.374   8.974   7.397 -0.1927 -0.6148 -0.2583
  401MOL0     H54089  11.534   9.119   7.431  0.7407 -2.7071  0.5089
  401MOL0     H54090  11.473   9.197   7.585 -2.6010 -0.9904  1.5516
  401MOL0     H54091  11.634   8.948   7.543  1.8793 -0.7913  1.9817
  401MOL0     H54092  11.552   8.977   7.697 -5.2592  1.0676 -2.0003
  401MOL0     H54093  11.711   9.150   7.755  0.1876  0.8230 -0.2114
  401MOL0     H54094  11.749   9.182   7.586 -1.5172 -1.6904 -1.5508
  401MOL0     H54095  12.033   8.852   7.646  2.3932 -0.6613  0.6920
  401MOL0     H54096  12.279   8.902   7.677 -0.5000 -0.0037 -0.3242
  401MOL0     H54097  12.550   9.090   7.985  0.5062 -1.7502  1.0004
  401MOL0     H54098  12.795   9.140   8.055 -2.3579 -0.7230  0.5307
  401MOL0     H54099  12.958   9.283   8.002  1.2058  0.2166 -0.2066
  401MOL0     H54100  13.039   9.141   8.065  0.1001  0.6191  1.3178
  401MOL0     H54101  13.163   9.356   7.890  2.3543  1.6187  0.6829
  401MOL0     H54102  13.185   9.338   8.067  2.7101 -1.2413 -0.6232
  401MOL0     H54103  13.294   9.097   8.002 -2.0632 -2.8567 -2.8831
  401MOL0     H54104  13.270   9.148   7.837 -0.2643 -1.6260  1.0523
  401MOL0     H54105  13.404   9.357   7.895 -2.0936 -0.4690  0.8088
  401MOL0     H54106  13.473   9.199   7.851  1.3106  0.6688 -0.0063
  401MOL0     H54107  13.504   9.165   8.101  1.5834 -0.2673  0.8479
  401MOL0     H54108  13.471   9.345   8.119 -0.1348  3.1067 -2.8296
  401MOL0     H54109  13.690   9.201   7.961 -0.6495  0.4378  1.4447
  401MOL0     H54110  13.657   9.371   7.942 -3.0344 -0.5819 -1.3304
  401MOL0     H54111  13.771   9.248   8.192  0.6146 -0.9799 -0.8220
  401MOL0     H54112  13.722   9.419   8.185 -0.0864 -0.4707  0.0473
  401MOL0     H54113  13.943   9.288   8.034  0.0806 -0.1968  0.9863
  401MOL0     H54114  13.885   9.459   8.012  3.2829  2.6643  3.6602
  401MOL0     H54115  12.911   9.035   7.655  0.3016 -0.3088  0.6760
  401MOL0     H54116  12.677   9.025   7.585 -0.1048  1.3933 -0.6337
  401MOL0     H54117  12.156   9.314   7.739 -0.3772  0.1655 -1.6203
  401MOL0     H54118  11.929   9.261   7.704 -0.7818 -1.3123  0.4678
  401MOL0     H54119  10.513   8.775   6.568  0.2257  0.9137  1.8463
  401MOL0     H54120  10.280   8.691   6.479 -0.7684 -1.1163 -0.9726
  401MOL0     H54121   9.863   8.643   6.484 -0.7369 -1.8887 -2.4194
  401MOL0     H54122   9.645   8.624   6.445  0.2234 -0.7783 -1.2716
  401MOL0     H54123   9.484   8.508   6.302 -3.2580  0.1478 -0.7859
  401MOL0     H54124   9.437   8.603   6.436  1.6858  1.1127 -2.5478
  401MOL0     H54125   9.243   8.426   6.481 -3.7242 -0.4108 -1.0311
  401MOL0     H54126   9.286   8.355   6.323 -1.2301 -0.3755  0.2221
  401MOL0     H54127   9.247   8.559   6.191 -4.0434  0.4192 -0.7331
  401MOL0     H54128   9.228   8.651   6.336  1.5470  0.6476 -1.0087
  401MOL0     H54129   9.035   8.414   6.256  2.5506 -1.0379  0.9599
  401MOL0     H54130   9.031   8.520   6.398 -1.7903 -0.5426  0.3550
  401MOL0     H54131   8.861   8.775   6.111  0.4698  1.0987 -0.2594
  401MOL0     H54132   9.612   8.264   6.667 -0.6675  1.2197  2.4525
  401MOL0     H54133   9.938   8.298   6.829  1.6493 -3.3050 -0.0141
  401MOL0     H54134   9.792   8.211   6.835  3.3769 -3.3400  1.5116
  401MOL0     H54135   9.907   8.163   6.710  1.3989 -1.3201  0.3462
  402MOL0     O54136   1.091  10.509  10.387  0.0542  0.1542  0.7508
  402MOL0     C54137   0.991  10.472  10.333 -0.2490  0.3688  0.5079
  402MOL0     O54138   0.994  10.381  10.234  0.4997 -0.5351 -0.0379
  402MOL0     C54139   1.101  10.296  10.219 -0.3456 -1.3171 -0.3466
  402MOL0     C54140   1.189  10.240  10.322 -0.3785 -0.1305 -0.4367
  402MOL0     C54141   1.293  10.144  10.294  0.1075  0.5894 -0.0120
  402MOL0     C54142   1.310  10.095  10.166  0.4794  0.5467 -0.1572
  402MOL0     O54143   1.402   9.996  10.156 -0.4149 -0.0008  0.1072
  402MOL0     C54144   1.420   9.937  10.023  0.1977 -0.1212 -0.3477
  402MOL0     C54145   1.530   9.828  10.026  0.3855  0.3199  0.0368
  402MOL0     C54146   1.669   9.894  10.030 -0.1347  0.3555  0.2448
  402MOL0     C54147   1.785   9.784  10.014 -0.5111  0.4607 -0.0075
  402MOL0     C54148   1.919   9.861  10.032  0.9659 -0.7755 -0.4617
  402MOL0     C54149   2.032   9.762  10.053  0.2877  0.6489 -0.0919
  402MOL0     C54150   2.176   9.825  10.034  0.1382 -0.7569  0.1131
  402MOL0     C54151   2.289   9.707  10.022 -0.0237  0.3692 -0.0326
  402MOL0     N54152   2.417   9.759   9.959  0.5686 -0.3051 -0.9060
  402MOL0     C54153   2.492   9.843  10.028 -0.1921  0.7457 -0.0150
  402MOL0     C54154   2.582   9.888   9.942  0.3215 -0.7727  0.0570
  402MOL0     C54155   2.690   9.990   9.950 -0.8339  0.0408  0.3145
  402MOL0     C54156   2.815   9.971   9.861  0.4526  0.3456 -0.2356
  402MOL0     C54157   2.927  10.075   9.886  0.2167  0.5881  0.3410
  402MOL0     C54158   3.041  10.066   9.784  0.2688  0.1000 -0.4371
  402MOL0     O54159   3.166  10.123   9.829  0.0789  1.0118 -0.2267
  402MOL0     C54160   3.275  10.113   9.748  0.3687 -0.2217 -0.0551
  402MOL0     C54161   3.398  10.174   9.794  0.1262  0.1228 -0.3783
  402MOL0     C54162   3.510  10.177   9.709 -0.7307  0.3922  0.1222
  402MOL0     C54163   3.503  10.135   9.572 -0.0281 -0.3547 -0.2237
  402MOL0     C54164   3.614  10.143   9.475 -1.0826 -0.2146 -0.0157
  402MOL0     O54165   3.604  10.057   9.368 -0.9526  0.9537 -0.0531
  402MOL0     C54166   3.692  10.073   9.267  0.2914  0.0211 -0.4000
  402MOL0     C54167   3.701  10.190   9.196 -1.4363 -0.2873  0.4739
  402MOL0     C54168   3.784  10.200   9.088 -0.0206  0.0116  0.4520
  402MOL0     C54169   3.866  10.093   9.049  0.3988  0.9913  0.6797
  402MOL0     O54170   3.948  10.097   8.945 -0.4964  0.0745  0.0600
  402MOL0     C54171   4.075  10.160   8.977  0.2381 -0.2599 -0.2592
  402MOL0     C54172   4.186  10.096   8.890  0.7506 -0.5118 -0.3668
  402MOL0     C54173   4.311  10.193   8.887  1.0151 -0.5524 -0.3047
  402MOL0     C54174   4.433  10.130   8.820  0.1664  0.0805  0.4867
  402MOL0     C54175   4.555  10.217   8.850 -0.7424 -0.0488 -0.7308
  402MOL0     C54176   4.684  10.168   8.779  0.0904 -0.4654  0.8698
  402MOL0     C54177   4.807  10.231   8.844  1.0832  0.2046 -0.0906
  402MOL0     C54178   4.932  10.151   8.802 -0.2702  0.2789 -0.2716
  402MOL0    Cl54179   5.065  10.236   8.894 -0.0021 -0.2801  0.0829
  402MOL0     C54180   3.857   9.975   9.127 -0.0665 -0.3592 -0.1847
  402MOL0     C54181   3.775   9.972   9.240  0.8738 -0.3255  0.2805
  402MOL0     O54182   3.698  10.231   9.497  0.5831 -0.3176  0.0534
  402MOL0     C54183   3.382  10.073   9.535 -0.0996  1.2597 -0.0563
  402MOL0     C54184   3.275  10.065   9.621  0.3797  0.5256  0.2751
  402MOL0     N54185   2.558   9.827   9.826  0.4717 -0.4457 -0.1350
  402MOL0     N54186   2.468   9.740   9.838  0.1643  0.4535 -0.4946
  402MOL0     C54187   1.220  10.151  10.067 -0.0915 -0.1841  0.0218
  402MOL0     C54188   1.111  10.240  10.095  0.4154 -0.1290  0.2404
  402MOL0     C54189   0.854  10.532  10.353 -1.2155 -0.5211 -0.3135
  402MOL0     C54190   0.755  10.485  10.267 -0.7890  0.5601 -0.3106
  402MOL0     C54191   0.628  10.524  10.293  0.0521  0.2500  0.2363
  402MOL0     C54192   0.591  10.619  10.390 -0.1431  0.1815  0.2517
  402MOL0     O54193   0.462  10.671  10.408  0.1153  0.4172  0.3899
  402MOL0     C54194   0.358  10.631  10.307  0.6545 -0.2527 -0.0740
  402MOL0     C54195   0.230  10.706  10.354 -0.4303 -0.1269 -0.0161
  402MOL0     C54196   0.124  10.700  10.252 -0.2916  0.5064  0.3408
  402MOL0     C54197  -0.008  10.781  10.288 -1.0269  0.0045  0.1334
  402MOL0     C54198   0.011  10.920  10.250  0.3715 -0.1564  0.3923
  402MOL0     C54199   0.033  11.042  10.222  0.3364  0.3942 -0.1943
  402MOL0     C54200   0.690  10.657  10.478 -0.8073 -0.5057 -0.2877
  402MOL0     C54201   0.820  10.619  10.463 -0.4401  1.2596  0.1866
  402MOL0     C54202   0.926  10.672  10.559  0.8525 -0.6420 -0.4580
  402MOL0     H54203   1.177  10.274  10.425  0.2771  0.6149 -0.5972
  402MOL0     H54204   1.349  10.106  10.379  1.3990 -2.5618 -2.0984
  402MOL0     H54205   1.322   9.893  10.001  0.4526 -0.2876 -1.2270
  402MOL0     H54206   1.447  10.007   9.943  1.9931 -1.8492 -1.3537
  402MOL0     H54207   1.518   9.774   9.932 -0.2958  1.3441 -0.4730
  402MOL0     H54208   1.504   9.758  10.106  0.8234  0.3695  0.2240
  402MOL0     H54209   1.691   9.937  10.128 -1.0294 -1.3107  1.2081
  402MOL0     H54210   1.678   9.966   9.947 -0.0087 -0.4622 -0.4627
  402MOL0     H54211   1.769   9.701  10.083  0.5609 -1.6501 -2.1645
  402MOL0     H54212   1.769   9.731   9.920 -3.4207 -1.6894  1.5108
  402MOL0     H54213   1.933   9.918   9.939 -0.8557 -2.6532 -1.9882
  402MOL0     H54214   1.908   9.917  10.125 -2.9258 -2.2237  0.1421
  402MOL0     H54215   2.010   9.711  10.147  0.7256 -1.5532 -1.1299
  402MOL0     H54216   2.020   9.689   9.972 -2.5997  0.4996  0.3701
  402MOL0     H54217   2.188   9.896  10.117 -4.4624 -1.7240  1.9549
  402MOL0     H54218   2.179   9.877   9.939 -0.4213  0.0278  0.5170
  402MOL0     H54219   2.317   9.668  10.120 -0.9489 -2.4785 -0.8041
  402MOL0     H54220   2.251   9.626   9.959 -0.2108  0.7518 -0.4242
  402MOL0     H54221   2.482   9.879  10.130  2.7597 -0.1787  0.7137
  402MOL0     H54222   2.664  10.092   9.920  0.8990  0.3651 -0.1743
  402MOL0     H54223   2.719   9.987  10.055  0.7702 -2.5225 -0.1291
  402MOL0     H54224   2.850   9.872   9.892 -1.1856 -0.4469 -0.7873
  402MOL0     H54225   2.782   9.953   9.759  0.3602 -1.3326  0.0522
  402MOL0     H54226   2.962  10.054   9.987 -0.6376  0.9818  0.7299
  402MOL0     H54227   2.875  10.171   9.877 -2.0618 -0.6382 -0.4092
  402MOL0     H54228   3.019  10.122   9.693  2.1835  0.5195 -0.6887
  402MOL0     H54229   3.046   9.959   9.763 -1.8010  0.1061 -1.2005
  402MOL0     H54230   3.405  10.217   9.894  1.0352 -0.3104 -0.2407
  402MOL0     H54231   3.604  10.224   9.734 -0.9023  1.2431 -0.7833
  402MOL0     H54232   3.653  10.284   9.224  1.0991  1.2570 -0.0387
  402MOL0     H54233   3.802  10.297   9.042  2.3945  0.6476  2.4609
  402MOL0     H54234   4.072  10.262   8.939 -1.5474 -0.5424 -1.0143
  402MOL0     H54235   4.090  10.154   9.085  2.4061 -1.2912 -0.5659
  402MOL0     H54236   4.211   9.999   8.934  2.4533  0.4142  0.8039
  402MOL0     H54237   4.159  10.086   8.784  1.0586  1.0997 -0.6321
  402MOL0     H54238   4.285  10.289   8.841  3.2196 -0.4238 -1.3798
  402MOL0     H54239   4.350  10.211   8.987  3.2833 -0.7971 -1.0913
  402MOL0     H54240   4.423  10.128   8.711 -0.2975 -0.5415  0.5346
  402MOL0     H54241   4.457  10.032   8.863  1.4251 -0.0084 -0.3639
  402MOL0     H54242   4.586  10.206   8.955  0.5633 -1.0272 -1.1905
  402MOL0     H54243   4.539  10.323   8.829 -0.7795  0.1043  0.0425
  402MOL0     H54244   4.699  10.060   8.785  0.5144 -0.5704 -1.3302
  402MOL0     H54245   4.686  10.190   8.672 -0.2697 -2.3492  0.4291
  402MOL0     H54246   4.791  10.233   8.953  1.6784 -0.4970  0.0181
  402MOL0     H54247   4.814  10.337   8.821 -1.0819  0.4907  0.3490
  402MOL0     H54248   4.909  10.051   8.839  0.4970  0.5953  1.1248
  402MOL0     H54249   4.935  10.161   8.693 -0.6837 -0.2930 -0.3406
  402MOL0     H54250   3.921   9.890   9.108 -2.1456 -2.3646  1.2116
  402MOL0     H54251   3.780   9.884   9.304 -0.6729 -0.1747  0.6236
  402MOL0     H54252   3.382  10.026   9.437  3.6821  1.8990 -0.5246
  402MOL0     H54253   3.195  10.010   9.573  0.3502  2.2326 -1.8434
  402MOL0     H54254   1.224  10.104   9.970  2.0427  0.4618 -0.2483
  402MOL0     H54255   1.036  10.262  10.020  2.0971 -0.9623 -1.7904
  402MOL0     H54256   0.764  10.413  10.186 -1.5634  0.3091 -0.1762
  402MOL0     H54257   0.552  10.482  10.227 -0.7360  2.4645 -0.3853
  402MOL0     H54258   0.345  10.524  10.288  1.9467 -0.1581 -1.7323
  402MOL0     H54259   0.395  10.666  10.210  2.2625  0.1696  0.6518
  402MOL0     H54260   0.248  10.812  10.375 -0.9625 -0.0288 -0.0160
  402MOL0     H54261   0.194  10.652  10.442 -0.3395  0.7890  0.5944
  402MOL0     H54262   0.098  10.595  10.237 -2.3048  0.8838  0.8427
  402MOL0     H54263   0.160  10.723  10.151  2.9569 -4.5125 -0.0066
  402MOL0     H54264  -0.100  10.755  10.234  0.7318 -1.1875 -2.4603
  402MOL0     H54265  -0.031  10.781  10.395 -0.1878 -1.5615  0.3354
  402MOL0     H54266   0.063  11.142  10.199 -0.4217  0.8679  0.7882
  402MOL0     H54267   0.659  10.724  10.558 -2.0739  1.0432 -1.9787
  402MOL0     H54268   0.887  10.752  10.624  0.9510 -1.1758  0.2762
  402MOL0     H54269   0.963  10.601  10.634 -0.0160  0.0147  0.6272
  402MOL0     H54270   1.008  10.717  10.503  0.1021 -0.5221 -1.4784
  403MOL0     O54271   3.045   0.952   6.397  0.1874 -0.3999 -0.3750
  403MOL0     C54272   3.011   0.855   6.458  0.2172  0.0218 -0.7090
  403MOL0     O54273   3.089   0.790   6.549  0.0438 -0.0812 -1.2879
  403MOL0     C54274   3.208   0.838   6.599  0.6749 -0.0530 -0.1779
  403MOL0     C54275   3.307   0.879   6.509  0.6214 -0.3714  0.0099
  403MOL0     C54276   3.439   0.898   6.546  0.9696  0.1171  0.5477
  403MOL0     C54277   3.465   0.891   6.682  0.4327  0.4342  0.6791
  403MOL0     O54278   3.587   0.927   6.736  0.2949 -0.5213  0.1144
  403MOL0     C54279   3.687   0.993   6.664 -0.4492 -0.4051 -0.1548
  403MOL0     C54280   3.812   1.022   6.744 -0.2637 -0.0489 -0.5562
  403MOL0     C54281   3.789   1.080   6.884  0.1066 -0.1649  0.0232
  403MOL0     C54282   3.918   1.123   6.950 -0.1344  0.0614 -0.7567
  403MOL0     C54283   3.882   1.218   7.060  0.0461  0.1063  0.3511
  403MOL0     C54284   4.003   1.238   7.150  0.7956 -0.0992  0.2305
  403MOL0     C54285   3.971   1.308   7.279  0.7784  0.0456 -0.2238
  403MOL0     C54286   4.093   1.317   7.372 -0.2850  0.3625 -0.1964
  403MOL0     N54287   4.169   1.194   7.391  0.0479  0.8723 -0.0163
  403MOL0     C54288   4.290   1.160   7.340 -1.3619 -0.4591 -0.2249
  403MOL0     C54289   4.334   1.054   7.410 -0.1203 -0.2043 -0.9579
  403MOL0     C54290   4.460   0.990   7.386 -0.1140  0.5358 -0.0723
  403MOL0     C54291   4.552   0.999   7.508  0.0199  0.7257  0.1433
  403MOL0     C54292   4.672   0.905   7.501 -0.0646  0.2418 -0.1134
  403MOL0     C54293   4.753   0.892   7.632  0.5781  0.2362 -0.0743
  403MOL0     O54294   4.812   1.014   7.661  0.0922 -0.8682 -0.2410
  403MOL0     C54295   4.848   1.033   7.794 -0.1251  0.1601  0.0997
  403MOL0     C54296   4.814   0.955   7.909 -0.4223  0.1465  1.1405
  403MOL0     C54297   4.854   0.993   8.036  0.2329  0.6143  0.1990
  403MOL0     C54298   4.925   1.115   8.052 -0.0091  0.1100 -0.8245
  403MOL0     C54299   4.959   1.172   8.190  0.6150  0.2730  1.4022
  403MOL0     O54300   4.883   1.125   8.306 -1.0520 -0.2978  0.0234
  403MOL0     C54301   4.903   1.176   8.434 -0.0320 -0.4903 -0.2181
  403MOL0     C54302   5.001   1.266   8.488  0.3128  0.9944 -0.0171
  403MOL0     C54303   4.995   1.310   8.623  0.0689 -0.5556 -0.3214
  403MOL0     C54304   4.901   1.256   8.706  0.3458  0.3718 -0.2348
  403MOL0     O54305   4.893   1.287   8.839 -0.3478  0.2072 -0.7758
  403MOL0     C54306   4.944   1.411   8.888 -0.7526 -0.2890 -0.6433
  403MOL0     C54307   4.914   1.421   9.045 -0.2937  0.1322  0.2220
  403MOL0     C54308   4.959   1.569   9.086 -0.0070 -0.2425 -0.6586
  403MOL0     C54309   4.906   1.600   9.230  0.3595  0.3796 -0.1600
  403MOL0     C54310   4.949   1.744   9.265  0.1840  0.0924  0.3155
  403MOL0     C54311   4.897   1.851   9.165  0.7524  0.0849  1.0718
  403MOL0     C54312   4.879   1.996   9.233 -1.0228 -0.1462  0.0114
  403MOL0     C54313   4.881   2.099   9.125 -0.1093 -0.0569 -0.8065
  403MOL0    Cl54314   4.740   2.072   9.007  0.2578 -0.1994  0.2608
  403MOL0     C54315   4.813   1.156   8.654 -0.6899  0.2407 -0.0276
  403MOL0     C54316   4.813   1.120   8.523 -0.4594  0.5064 -0.9798
  403MOL0     O54317   5.050   1.256   8.190  0.5825 -0.7824  0.0658
  403MOL0     C54318   4.955   1.177   7.939 -0.0875  0.1827  1.3131
  403MOL0     C54319   4.927   1.138   7.804  0.9220 -0.2345 -0.6064
  403MOL0     N54320   4.235   1.033   7.513  0.3131 -0.9946  0.9062
  403MOL0     N54321   4.131   1.104   7.485 -0.1484 -1.0923 -0.5840
  403MOL0     C54322   3.369   0.838   6.768 -0.2532 -0.3152  0.5640
  403MOL0     C54323   3.240   0.816   6.729  0.5350  0.7389 -0.4692
  403MOL0     C54324   2.890   0.773   6.414 -0.1680 -0.7750  0.1151
  403MOL0     C54325   2.901   0.633   6.428 -0.0515  0.3462 -0.1265
  403MOL0     C54326   2.793   0.549   6.421 -0.3290 -0.0967  0.7583
  403MOL0     C54327   2.665   0.597   6.385  1.0636 -0.2376 -0.1724
  403MOL0     O54328   2.550   0.525   6.368 -0.6003 -0.5009  0.0208
  403MOL0     C54329   2.579   0.390   6.349  0.6736  0.5580  0.0365
  403MOL0     C54330   2.457   0.294   6.315  0.3670 -0.5339 -0.0374
  403MOL0     C54331   2.356   0.287   6.436 -0.0716  0.5605  0.4612
  403MOL0     C54332   2.243   0.193   6.409  0.5241 -0.2974  0.2529
  403MOL0     C54333   2.130   0.257   6.335 -0.2052  0.9773  0.0708
  403MOL0     C54334   2.041   0.313   6.272 -0.2577  0.6443 -0.1472
  403MOL0     C54335   2.659   0.740   6.370 -0.2129  1.0611 -0.3415
  403MOL0     C54336   2.771   0.825   6.375  0.5048 -0.3642 -0.0792
  403MOL0     C54337   2.741   0.977   6.354 -0.1042  0.0435 -0.7743
  403MOL0     H54338   3.289   0.884   6.402 -0.0526  1.0684  0.1661
  403MOL0     H54339   3.511   0.934   6.474  1.1348  2.9259  1.9884
  403MOL0     H54340   3.724   0.942   6.575  0.8738 -3.1488  1.8309
  403MOL0     H54341   3.649   1.087   6.622 -0.2882  0.0752  0.7465
  403MOL0     H54342   3.866   1.100   6.690  0.6754 -0.4174 -0.1733
  403MOL0     H54343   3.875   0.933   6.736 -0.8425 -0.6390  1.0567
  403MOL0     H54344   3.743   1.002   6.944 -2.3306  1.2378  0.1000
  403MOL0     H54345   3.708   1.153   6.873 -3.2134 -3.5652 -0.2183
  403MOL0     H54346   3.975   1.033   6.974  0.7997 -0.0562 -3.1065
  403MOL0     H54347   3.971   1.176   6.870  4.3874 -0.7217  1.3844
  403MOL0     H54348   3.860   1.316   7.016 -2.4978  0.0722  1.3573
  403MOL0     H54349   3.798   1.186   7.122  0.4595  1.3899  1.6461
  403MOL0     H54350   4.052   1.143   7.172  2.3485 -0.0903 -2.6856
  403MOL0     H54351   4.079   1.289   7.091  0.8802  0.1595  0.5632
  403MOL0     H54352   3.895   1.247   7.329  0.0783  0.3392 -0.9118
  403MOL0     H54353   3.923   1.406   7.273 -2.1286 -1.3395 -2.1511
  403MOL0     H54354   4.164   1.391   7.335  0.4504 -0.3323 -0.2201
  403MOL0     H54355   4.063   1.347   7.472 -1.7694  1.8949 -1.0680
  403MOL0     H54356   4.337   1.216   7.260 -1.1936  1.5583  1.2121
  403MOL0     H54357   4.452   0.884   7.362  1.4945  0.6144 -1.1128
  403MOL0     H54358   4.514   1.043   7.307 -1.6479  2.4840  0.1054
  403MOL0     H54359   4.588   1.101   7.524  1.1021  0.4226 -0.3071
  403MOL0     H54360   4.493   0.978   7.598  1.4919 -0.4059  0.8702
  403MOL0     H54361   4.744   0.930   7.423  1.4300  0.9805  1.4276
  403MOL0     H54362   4.640   0.803   7.477  0.6490  0.4819 -2.2700
  403MOL0     H54363   4.834   0.820   7.618  0.1043 -0.0478 -1.5603
  403MOL0     H54364   4.676   0.862   7.704  0.5426 -0.8962 -0.5713
  403MOL0     H54365   4.743   0.875   7.892 -0.2965  0.5704 -1.9165
  403MOL0     H54366   4.809   0.937   8.117 -1.9020  0.1084 -1.2361
  403MOL0     H54367   5.080   1.303   8.425  1.3279 -0.9077  0.0572
  403MOL0     H54368   5.062   1.382   8.668 -2.3093  1.8712 -0.3862
  403MOL0     H54369   5.047   1.422   8.853 -1.0326  0.4600 -1.2826
  403MOL0     H54370   4.890   1.492   8.837 -1.6110  0.2825  1.0727
  403MOL0     H54371   4.806   1.412   9.059 -0.0354 -0.9239  1.8868
  403MOL0     H54372   4.970   1.345   9.100 -2.1155 -0.2763  1.6374
  403MOL0     H54373   5.068   1.578   9.086 -0.0542  1.5243  2.2217
  403MOL0     H54374   4.915   1.639   9.014  0.4219 -0.3272 -1.0041
  403MOL0     H54375   4.934   1.536   9.315 -0.9456  2.7885  2.2351
  403MOL0     H54376   4.798   1.593   9.217  0.3882  1.2876 -0.9463
  403MOL0     H54377   5.058   1.751   9.272 -0.0098  2.1038  2.6924
  403MOL0     H54378   4.916   1.769   9.366 -2.5834  1.0731 -0.7287
  403MOL0     H54379   4.965   1.851   9.080  0.3063  0.8161  0.7087
  403MOL0     H54380   4.801   1.819   9.124  1.2131 -0.1331  0.1442
  403MOL0     H54381   4.967   2.012   9.296 -2.8626  1.6991  2.3139
  403MOL0     H54382   4.800   2.008   9.307  0.6658  1.1184  1.7277
  403MOL0     H54383   4.858   2.189   9.182 -1.2625 -0.3082 -0.8510
  403MOL0     H54384   4.972   2.109   9.064 -0.1568 -0.2758 -0.9136
  403MOL0     H54385   4.744   1.098   8.715  1.5375 -0.7918  1.6481
  403MOL0     H54386   4.748   1.042   8.485 -2.5762  0.9941  1.4093
  403MOL0     H54387   5.024   1.260   7.954  1.6198 -1.5703  3.8585
  403MOL0     H54388   4.958   1.190   7.715 -0.1446  2.0940  0.2937
  403MOL0     H54389   3.403   0.816   6.868  1.4216  0.4707  0.2017
  403MOL0     H54390   3.163   0.779   6.797 -0.1677  1.7066 -0.7176
  403MOL0     H54391   3.000   0.592   6.443  0.1413  0.9723  0.3659
  403MOL0     H54392   2.816   0.443   6.427  0.8800  0.0982 -0.0894
  403MOL0     H54393   2.628   0.342   6.434 -2.4869 -1.0389  1.1183
  403MOL0     H54394   2.638   0.368   6.259  2.4136 -0.2362  1.3109
  403MOL0     H54395   2.498   0.193   6.302 -0.5576 -0.7546 -1.4413
  403MOL0     H54396   2.396   0.320   6.228  0.1346  0.1715  0.3260
  403MOL0     H54397   2.315   0.386   6.455  0.3795  1.1541 -1.4481
  403MOL0     H54398   2.404   0.247   6.526 -4.2625 -1.7191  1.9685
  403MOL0     H54399   2.290   0.109   6.358  1.7308 -0.1214  1.0281
  403MOL0     H54400   2.203   0.157   6.504 -3.2775  0.6561 -0.8332
  403MOL0     H54401   1.959   0.356   6.219  0.0283  0.2210 -0.9447
  403MOL0     H54402   2.561   0.771   6.335  0.0157  1.8650 -0.2728
  403MOL0     H54403   2.638   0.995   6.324  0.2016  2.3156 -0.6310
  403MOL0     H54404   2.768   1.036   6.443 -0.7078 -1.5288  0.4949
  403MOL0     H54405   2.793   1.026   6.272  0.1267 -0.6710 -1.0610
  404MOL0     O54406   2.772   7.469   0.450  0.3221  0.3553  0.2171
  404MOL0     C54407   2.712   7.552   0.392  0.2022 -0.4450  0.5548
  404MOL0     O54408   2.769   7.662   0.322  0.1154 -0.1013 -0.2331
  404MOL0     C54409   2.902   7.644   0.278  0.2348  0.3243 -0.8608
  404MOL0     C54410   2.979   7.757   0.259  0.7881 -0.9785 -0.0812
  404MOL0     C54411   3.093   7.765   0.193  0.0431  1.0032 -0.3605
  404MOL0     C54412   3.148   7.650   0.135  0.7267  0.0402 -0.1999
  404MOL0     O54413   3.271   7.671   0.073 -0.0178  0.2419 -0.0603
  404MOL0     C54414   3.353   7.553   0.072 -0.5526 -1.1314 -1.2901
  404MOL0     C54415   3.480   7.595  -0.001 -0.3947 -0.4518 -0.3445
  404MOL0     C54416   3.593   7.505   0.012 -1.0467 -0.2105 -0.2989
  404MOL0     C54417   3.699   7.539  -0.086  0.4243 -0.3918 -0.9095
  404MOL0     C54418   3.793   7.425  -0.107  0.5628  0.3755  0.6907
  404MOL0     C54419   3.880   7.444  -0.232  0.3626 -0.0528  0.1992
  404MOL0     C54420   3.993   7.342  -0.243 -0.0748 -0.3326  0.5794
  404MOL0     C54421   3.946   7.205  -0.289 -0.5396 -0.2997  0.0327
  404MOL0     N54422   4.065   7.117  -0.273 -0.2253  0.2423 -1.0811
  404MOL0     C54423   4.175   7.114  -0.353  0.2401  0.4506 -0.7570
  404MOL0     C54424   4.256   7.016  -0.295  0.1890 -0.6182 -0.2900
  404MOL0     C54425   4.392   6.982  -0.354  0.0305  0.3381 -0.1662
  404MOL0     C54426   4.480   6.908  -0.252 -0.5658 -0.4345 -0.1278
  404MOL0     C54427   4.530   7.002  -0.143 -0.3954  0.3807  0.3757
  404MOL0     C54428   4.653   7.084  -0.199  0.1608  0.3379 -0.1040
  404MOL0     O54429   4.740   7.106  -0.096 -0.6811 -0.0131  0.0185
  404MOL0     C54430   4.849   7.193  -0.109 -0.9389  0.2270  1.4283
  404MOL0     C54431   4.889   7.244  -0.235 -0.5098  0.6890 -0.8125
  404MOL0     C54432   5.003   7.318  -0.242 -0.8530 -0.0661 -0.5157
  404MOL0     C54433   5.087   7.353  -0.130  0.2540 -0.1868  0.3023
  404MOL0     C54434   5.208   7.434  -0.135  0.7107 -0.9407 -0.1007
  404MOL0     O54435   5.247   7.499  -0.025 -0.2417  0.5315  0.0274
  404MOL0     C54436   5.363   7.568  -0.028 -0.9563 -0.4934  0.5288
  404MOL0     C54437   5.372   7.708  -0.043 -0.1117  0.8310 -0.1011
  404MOL0     C54438   5.498   7.771  -0.048 -0.5089 -0.3195 -0.9728
  404MOL0     C54439   5.617   7.694  -0.050 -1.0367 -0.0892  1.0788
  404MOL0     O54440   5.742   7.746  -0.068  0.2193  0.7758  0.0556
  404MOL0     C54441   5.764   7.885  -0.044 -0.1004  0.7077  0.3267
  404MOL0     C54442   5.909   7.917  -0.084  0.2648 -0.0013 -0.0488
  404MOL0     C54443   5.961   8.056  -0.039 -0.0577  1.1405 -0.1124
  404MOL0     C54444   6.105   8.067  -0.096 -0.6395 -0.3535  0.1096
  404MOL0     C54445   6.194   8.151  -0.008 -0.0414 -0.3946  0.1782
  404MOL0     C54446   6.330   8.196  -0.065  0.1077  0.6228  0.6192
  404MOL0     C54447   6.399   8.077  -0.137 -0.4660  0.3140  0.1495
  404MOL0     C54448   6.550   8.097  -0.123 -0.0215  0.1361  0.2124
  404MOL0    Cl54449   6.641   7.958  -0.184  0.1164  0.1419 -0.3232
  404MOL0     C54450   5.612   7.557  -0.049  0.7629  0.4550  0.0328
  404MOL0     C54451   5.485   7.489  -0.039 -0.2704  0.3326  0.1023
  404MOL0     O54452   5.273   7.429  -0.238  0.0228  0.2935  0.5058
  404MOL0     C54453   5.044   7.300  -0.007  0.6923 -0.3416  0.1547
  404MOL0     C54454   4.934   7.218   0.003 -0.3518 -0.2453  0.4397
  404MOL0     N54455   4.193   6.967  -0.178 -0.2221  0.0504 -0.6710
  404MOL0     N54456   4.075   7.022  -0.167  0.8487 -0.1615  0.7984
  404MOL0     C54457   3.075   7.530   0.145 -0.2896  0.0417 -0.7985
  404MOL0     C54458   2.956   7.533   0.217  0.8191  0.4957 -0.3516
  404MOL0     C54459   2.561   7.562   0.408  0.6857 -0.6217 -0.0485
  404MOL0     C54460   2.497   7.685   0.383 -0.6561 -0.6018 -0.0343
  404MOL0     C54461   2.369   7.713   0.401 -0.2758 -0.0192  1.0663
  404MOL0     C54462   2.283   7.612   0.452 -0.6259 -0.1403  0.1715
  404MOL0     O54463   2.148   7.633   0.474 -0.1703  0.6236  1.2083
  404MOL0     C54464   2.089   7.747   0.397 -0.3907 -0.7314 -0.6003
  404MOL0     C54465   1.937   7.747   0.409 -0.1742 -0.3607  0.0996
  404MOL0     C54466   1.858   7.864   0.341 -0.7321  0.4132 -0.6302
  404MOL0     C54467   1.881   7.995   0.419 -0.5811  0.7209  0.1464
  404MOL0     C54468   1.809   8.099   0.352  0.0255 -0.1458  0.2743
  404MOL0     C54469   1.742   8.185   0.288 -1.0835 -0.3081  0.8532
  404MOL0     C54470   2.339   7.483   0.478 -0.2804 -0.7308 -0.0182
  404MOL0     C54471   2.480   7.459   0.464 -0.0296 -0.6380  0.3338
  404MOL0     C54472   2.530   7.326   0.515 -0.5880  1.1267  0.6327
  404MOL0     H54473   2.937   7.850   0.295  0.0202 -1.8497  1.4038
  404MOL0     H54474   3.144   7.861   0.190  0.8421  0.5725 -1.3026
  404MOL0     H54475   3.377   7.533   0.177  2.4549 -2.6607 -2.1553
  404MOL0     H54476   3.300   7.469   0.027 -2.6634 -0.1412 -0.7636
  404MOL0     H54477   3.520   7.688   0.041  1.7151 -0.4865 -2.0603
  404MOL0     H54478   3.450   7.614  -0.105 -0.6659 -0.1629 -0.2143
  404MOL0     H54479   3.548   7.408  -0.010 -3.6338  1.2745 -2.1373
  404MOL0     H54480   3.629   7.507   0.115 -0.9889 -1.1693 -0.2913
  404MOL0     H54481   3.653   7.561  -0.183 -0.0773  3.4174  0.0411
  404MOL0     H54482   3.749   7.631  -0.056 -0.5849 -0.2746  0.4793
  404MOL0     H54483   3.855   7.428  -0.018  0.2722 -1.3788  0.9803
  404MOL0     H54484   3.737   7.331  -0.113 -0.7294  1.0486  1.5627
  404MOL0     H54485   3.803   7.445  -0.310 -1.5129 -1.6230  1.9069
  404MOL0     H54486   3.925   7.543  -0.233 -2.6926  1.4858  1.5058
  404MOL0     H54487   4.041   7.327  -0.146  2.7313 -0.7109 -0.7866
  404MOL0     H54488   4.070   7.381  -0.310  3.1220 -0.8499  3.6552
  404MOL0     H54489   3.863   7.161  -0.232  1.0054 -1.7842  1.2511
  404MOL0     H54490   3.917   7.202  -0.395  0.8577  0.0231 -0.3763
  404MOL0     H54491   4.173   7.154  -0.454 -2.2978 -1.1787 -1.4470
  404MOL0     H54492   4.382   6.911  -0.436  0.8643  1.1274 -0.9700
  404MOL0     H54493   4.449   7.067  -0.392  4.8190 -1.6712  1.7118
  404MOL0     H54494   4.431   6.823  -0.204  2.3287 -1.1590  1.7363
  404MOL0     H54495   4.572   6.866  -0.293  2.2378  2.5628  2.4604
  404MOL0     H54496   4.579   6.932  -0.074 -0.7987  0.6587  0.9527
  404MOL0     H54497   4.461   7.063  -0.084  2.5863  1.0653  3.4949
  404MOL0     H54498   4.621   7.178  -0.243  0.6766  1.4746  1.8514
  404MOL0     H54499   4.697   7.023  -0.279 -2.9209  1.6310 -3.0325
  404MOL0     H54500   4.836   7.218  -0.327 -2.6273 -0.8461  0.7567
  404MOL0     H54501   5.033   7.354  -0.340 -2.8830  3.2333 -0.0574
  404MOL0     H54502   5.277   7.761  -0.051 -0.7912 -0.4568 -0.7458
  404MOL0     H54503   5.503   7.879  -0.054 -0.5623 -0.1280  1.3412
  404MOL0     H54504   5.699   7.952  -0.101 -1.4066 -0.4563  0.3872
  404MOL0     H54505   5.756   7.893   0.065 -1.4805 -1.3947  0.4454
  404MOL0     H54506   5.977   7.849  -0.031  0.5470 -0.1953 -0.6438
  404MOL0     H54507   5.921   7.907  -0.192 -0.1957  0.4688 -0.1440
  404MOL0     H54508   5.897   8.139  -0.071 -1.3896 -0.5301 -2.0025
  404MOL0     H54509   5.972   8.052   0.070  1.5480 -0.2070 -0.2914
  404MOL0     H54510   6.109   8.114  -0.194 -0.2374  0.0412  0.3137
  404MOL0     H54511   6.157   7.970  -0.094 -0.0022 -0.0428 -0.9378
  404MOL0     H54512   6.214   8.086   0.078  4.0367 -1.3375 -1.2690
  404MOL0     H54513   6.134   8.237   0.023  1.4145 -0.4400  3.5218
  404MOL0     H54514   6.321   8.284  -0.129 -1.4152  0.0465 -0.0057
  404MOL0     H54515   6.385   8.224   0.026 -1.2347  4.2343  0.4884
  404MOL0     H54516   6.368   8.088  -0.241 -0.6404  0.5382  0.2257
  404MOL0     H54517   6.369   7.990  -0.077 -2.8817  2.0105  1.5814
  404MOL0     H54518   6.582   8.190  -0.170  0.8662 -0.8805 -1.2980
  404MOL0     H54519   6.571   8.109  -0.016  0.1361  0.5870  0.1348
  404MOL0     H54520   5.704   7.501  -0.037  1.1201  0.9924 -0.1851
  404MOL0     H54521   5.487   7.381  -0.040  1.6078  0.3299 -1.3784
  404MOL0     H54522   5.092   7.340   0.082 -0.8670  0.3824  0.6934
  404MOL0     H54523   4.921   7.193   0.107  2.3450  0.3392  1.0032
  404MOL0     H54524   3.097   7.428   0.116 -4.5357 -1.9668  1.9373
  404MOL0     H54525   2.915   7.434   0.234  3.8746 -0.7624  0.4369
  404MOL0     H54526   2.556   7.756   0.326  0.5108 -1.4591  0.0897
  404MOL0     H54527   2.341   7.814   0.376  2.7048  1.1790  2.1325
  404MOL0     H54528   2.119   7.737   0.292  2.5035  0.4773  0.0510
  404MOL0     H54529   2.128   7.834   0.449 -0.3997 -0.4269 -1.0946
  404MOL0     H54530   1.906   7.732   0.513 -1.1465 -0.3643 -0.1862
  404MOL0     H54531   1.901   7.653   0.367 -1.5309 -0.0590  0.5311
  404MOL0     H54532   1.750   7.844   0.340 -0.0783 -4.3198 -1.3630
  404MOL0     H54533   1.902   7.871   0.241  0.6386  0.7547 -0.0313
  404MOL0     H54534   1.845   7.984   0.522 -0.9542 -2.6891 -0.2267
  404MOL0     H54535   1.986   8.024   0.417 -0.7074  1.1579 -0.4178
  404MOL0     H54536   1.695   8.253   0.220  0.2659 -1.2228 -1.0937
  404MOL0     H54537   2.265   7.412   0.514  2.0265 -2.1792  2.1491
  404MOL0     H54538   2.585   7.287   0.429 -0.5992  1.3531  0.5207
  404MOL0     H54539   2.599   7.343   0.598  0.1633  2.3005 -0.1975
  404MOL0     H54540   2.455   7.260   0.559  0.0188 -0.4279 -0.5808
  405MOL0     O54541   5.221   3.310   2.759  0.2192 -0.2631  0.2422
  405MOL0     C54542   5.224   3.430   2.791  0.2332  0.1437 -0.6738
  405MOL0     O54543   5.314   3.518   2.748 -0.7901  0.5021 -0.0056
  405MOL0     C54544   5.443   3.475   2.708  0.6208 -0.5452 -0.2318
  405MOL0     C54545   5.514   3.398   2.799 -0.7785  0.7795  0.7267
  405MOL0     C54546   5.643   3.356   2.769  0.3259  0.1768 -0.4073
  405MOL0     C54547   5.715   3.396   2.659 -0.1615  0.4675 -0.2465
  405MOL0     O54548   5.845   3.362   2.638 -0.5653  0.9314  0.0255
  405MOL0     C54549   5.910   3.417   2.520 -0.7245 -0.1258 -0.2613
  405MOL0     C54550   6.047   3.335   2.516  0.2292 -0.4818 -0.4312
  405MOL0     C54551   6.129   3.378   2.397 -0.1752 -0.3882 -0.0113
  405MOL0     C54552   6.263   3.293   2.384 -0.0009 -0.8964  0.0772
  405MOL0     C54553   6.341   3.336   2.273  0.0902 -0.5158  0.2839
  405MOL0     C54554   6.440   3.222   2.241  0.2226  1.1889 -0.0286
  405MOL0     C54555   6.549   3.276   2.156 -0.4309  0.2363  0.5275
  405MOL0     C54556   6.505   3.350   2.024 -0.9384  0.3793 -0.0063
  405MOL0     N54557   6.623   3.372   1.939 -0.2973 -0.6758  0.1075
  405MOL0     C54558   6.700   3.284   1.873 -0.3008  0.4835 -0.3048
  405MOL0     C54559   6.781   3.364   1.808 -0.2874 -0.5160  0.6121
  405MOL0     C54560   6.875   3.330   1.696  0.7830  0.3684  0.3822
  405MOL0     C54561   7.022   3.307   1.741  0.5234 -0.2996  0.5533
  405MOL0     C54562   7.091   3.440   1.786 -1.2565  1.0879 -0.2467
  405MOL0     C54563   7.237   3.402   1.831  0.6546  0.4120  0.6187
  405MOL0     O54564   7.296   3.298   1.750  0.6993 -0.4184  0.0952
  405MOL0     C54565   7.417   3.251   1.782 -0.9561  0.3230 -0.2428
  405MOL0     C54566   7.447   3.119   1.789  0.9380  0.3762  0.0590
  405MOL0     C54567   7.580   3.075   1.800 -0.3937  0.9797 -0.7134
  405MOL0     C54568   7.691   3.164   1.797 -0.5517  0.4493  0.3095
  405MOL0     C54569   7.828   3.114   1.805  0.2613 -0.4594 -0.4352
  405MOL0     O54570   7.909   3.218   1.838  0.1396  0.0405 -0.0831
  405MOL0     C54571   8.047   3.201   1.848  0.0486  1.2250  0.0877
  405MOL0     C54572   8.108   3.306   1.928 -0.3972  0.4742  0.9732
  405MOL0     C54573   8.253   3.309   1.952  0.7344  0.5122  0.8468
  405MOL0     C54574   8.331   3.208   1.894 -0.0011 -0.3369 -0.3738
  405MOL0     O54575   8.464   3.223   1.910  0.3523 -0.1271  0.3896
  405MOL0     C54576   8.550   3.160   1.813 -0.1501 -0.8362  0.8041
  405MOL0     C54577   8.686   3.166   1.864 -0.1250  0.6763 -0.2438
  405MOL0     C54578   8.712   3.303   1.924  0.0436 -0.3610  0.6728
  405MOL0     C54579   8.867   3.325   1.942  0.2177 -0.5380  0.4119
  405MOL0     C54580   8.880   3.461   2.004 -0.1718 -0.9012 -0.3198
  405MOL0     C54581   8.864   3.449   2.161 -0.0549 -1.0751 -0.3432
  405MOL0     C54582   8.877   3.588   2.223  0.1713 -0.4659 -0.6867
  405MOL0     C54583   8.861   3.593   2.376 -0.8316 -0.3629 -0.5777
  405MOL0    Cl54584   9.032   3.555   2.452  0.2478  0.0777 -0.0332
  405MOL0     C54585   8.277   3.096   1.823  0.4384 -0.6876  1.0867
  405MOL0     C54586   8.133   3.094   1.804  0.5009  0.0656  0.0479
  405MOL0     O54587   7.850   2.997   1.784 -0.2771 -0.3292 -0.2224
  405MOL0     C54588   7.658   3.297   1.782  0.6130 -0.1561 -0.7132
  405MOL0     C54589   7.530   3.338   1.763 -0.5371 -0.0328  0.1243
  405MOL0     N54590   6.769   3.501   1.843  0.0632  0.4531  0.2254
  405MOL0     N54591   6.673   3.500   1.922  0.3322 -0.1477 -0.5415
  405MOL0     C54592   5.645   3.490   2.568 -0.6830  0.9339 -0.6132
  405MOL0     C54593   5.512   3.532   2.598 -0.8181 -0.4282 -0.9692
  405MOL0     C54594   5.094   3.474   2.853  0.1064  0.7594  0.4431
  405MOL0     C54595   5.035   3.390   2.959 -0.1125 -0.6992  0.9886
  405MOL0     C54596   4.925   3.438   3.031  0.8007 -0.3315 -0.0146
  405MOL0     C54597   4.866   3.556   2.992  0.1007 -0.3779 -1.1317
  405MOL0     O54598   4.756   3.599   3.057  0.4315  0.4065 -1.0117
  405MOL0     C54599   4.633   3.526   3.023 -0.7226  0.0725  0.3079
  405MOL0     C54600   4.511   3.611   3.041  0.1045 -0.5560 -0.2406
  405MOL0     C54601   4.377   3.530   3.045 -0.4050 -0.2019  0.6333
  405MOL0     C54602   4.249   3.597   3.086  0.3379 -1.0566  0.6414
  405MOL0     C54603   4.187   3.670   2.968  0.5650  0.8977  0.3705
  405MOL0     C54604   4.119   3.710   2.873 -0.4786  0.0605  0.4179
  405MOL0     C54605   4.912   3.635   2.893 -1.3005  0.1176  0.5849
  405MOL0     C54606   5.029   3.595   2.819 -0.7188  0.2230 -0.2510
  405MOL0     C54607   5.070   3.691   2.713  0.5357  0.0685 -0.4259
  405MOL0     H54608   5.463   3.356   2.885 -1.5499  0.4512  0.1192
  405MOL0     H54609   5.698   3.295   2.840 -2.9608 -2.8974 -0.2469
  405MOL0     H54610   5.855   3.393   2.428 -0.8960  0.1898 -0.2416
  405MOL0     H54611   5.938   3.522   2.531  4.7127 -1.2926  0.0740
  405MOL0     H54612   6.034   3.226   2.514  0.1579 -0.4904  0.4200
  405MOL0     H54613   6.108   3.366   2.601  1.3066 -2.4808 -0.4035
  405MOL0     H54614   6.144   3.486   2.401  0.6549 -0.4989 -0.0450
  405MOL0     H54615   6.079   3.351   2.304  0.9119 -0.1048 -0.6946
  405MOL0     H54616   6.323   3.304   2.474 -0.4811  2.2908  0.1205
  405MOL0     H54617   6.239   3.186   2.387  0.3023 -0.9369  2.1237
  405MOL0     H54618   6.273   3.355   2.189 -0.1979  0.9619  0.8115
  405MOL0     H54619   6.397   3.426   2.301  0.5784  0.1868 -2.5935
  405MOL0     H54620   6.485   3.180   2.332  2.6139  0.6930 -1.3388
  405MOL0     H54621   6.386   3.135   2.203  1.8742 -0.6279  1.4951
  405MOL0     H54622   6.606   3.186   2.128 -1.1065  0.4264 -1.6307
  405MOL0     H54623   6.617   3.332   2.221  0.4114  2.1466 -1.8374
  405MOL0     H54624   6.440   3.286   1.964  1.4529  0.6681 -3.1744
  405MOL0     H54625   6.453   3.445   2.042 -0.4498  0.8889 -1.1653
  405MOL0     H54626   6.682   3.177   1.881  1.9736  0.1238  1.3698
  405MOL0     H54627   6.841   3.235   1.654 -1.4006 -0.8067  4.3383
  405MOL0     H54628   6.881   3.410   1.622  1.4498 -0.2563 -0.2570
  405MOL0     H54629   7.014   3.246   1.832 -3.1252  3.7134  3.3427
  405MOL0     H54630   7.078   3.254   1.664  2.0450  0.2950  1.2038
  405MOL0     H54631   7.026   3.474   1.867  0.6328 -0.2063  1.8940
  405MOL0     H54632   7.090   3.514   1.705 -0.4818  1.3590 -0.0195
  405MOL0     H54633   7.252   3.367   1.933  1.9146  2.5471  1.2292
  405MOL0     H54634   7.292   3.497   1.825  0.5636  0.3845 -2.0659
  405MOL0     H54635   7.371   3.041   1.793  1.0311  0.1078 -2.2144
  405MOL0     H54636   7.587   2.968   1.813  0.4375  1.1240  0.0701
  405MOL0     H54637   8.044   3.384   1.966  0.9176  0.4194  3.4653
  405MOL0     H54638   8.297   3.388   2.012 -1.1671  1.1613  1.4414
  405MOL0     H54639   8.521   3.057   1.792  1.1441 -0.9357 -0.6365
  405MOL0     H54640   8.554   3.209   1.716  1.7707  2.2499  2.2696
  405MOL0     H54641   8.698   3.090   1.941 -0.4566  0.3525 -0.5106
  405MOL0     H54642   8.763   3.147   1.788 -0.1042 -1.0416  0.1746
  405MOL0     H54643   8.675   3.384   1.861 -2.8516 -1.1312  1.2025
  405MOL0     H54644   8.664   3.304   2.022  0.8083 -0.4478  1.0521
  405MOL0     H54645   8.911   3.333   1.842 -2.5968  1.4217 -0.8096
  405MOL0     H54646   8.921   3.243   1.989  2.7327  0.9192  0.2532
  405MOL0     H54647   8.814   3.534   1.957  1.7041  0.9535 -0.2025
  405MOL0     H54648   8.980   3.504   1.993  0.2410 -1.5579  0.6611
  405MOL0     H54649   8.761   3.418   2.178 -1.0302  1.9927 -0.0269
  405MOL0     H54650   8.930   3.371   2.200  0.9680 -0.4095 -0.7019
  405MOL0     H54651   8.799   3.649   2.177  0.2819  0.6717  0.5789
  405MOL0     H54652   8.964   3.649   2.195  1.0419 -0.7687  1.1789
  405MOL0     H54653   8.821   3.690   2.407 -2.5920 -0.6391 -1.8383
  405MOL0     H54654   8.795   3.516   2.416 -1.6655  1.3581  1.5584
  405MOL0     H54655   8.330   3.011   1.781 -0.3942 -0.5035 -0.4399
  405MOL0     H54656   8.082   3.016   1.748  3.4173 -0.6812 -1.7757
  405MOL0     H54657   7.734   3.374   1.771  2.3183 -1.6154  0.3327
  405MOL0     H54658   7.513   3.440   1.733 -1.8645 -1.2634 -3.9980
  405MOL0     H54659   5.694   3.537   2.483  0.0571 -1.5054 -1.6128
  405MOL0     H54660   5.464   3.611   2.542 -5.2355 -1.9445  0.2821
  405MOL0     H54661   5.075   3.293   2.983 -1.8722 -1.6615  0.2050
  405MOL0     H54662   4.875   3.371   3.100  0.5912 -1.7082 -1.4532
  405MOL0     H54663   4.627   3.436   3.086 -4.3176 -0.4112 -0.5035
  405MOL0     H54664   4.646   3.495   2.919 -1.9197 -1.0587  0.4732
  405MOL0     H54665   4.510   3.694   2.970  1.9570  1.6779  2.1687
  405MOL0     H54666   4.529   3.648   3.143  1.1071  2.6884 -1.4829
  405MOL0     H54667   4.387   3.454   3.123 -0.6198 -1.3962 -0.4833
  405MOL0     H54668   4.355   3.469   2.957 -0.2230 -2.9384  2.3749
  405MOL0     H54669   4.173   3.528   3.124 -3.5857  1.5573 -1.8102
  405MOL0     H54670   4.264   3.670   3.166 -3.5109  0.9415 -0.2191
  405MOL0     H54671   4.049   3.728   2.794  0.4752 -1.2589 -0.7831
  405MOL0     H54672   4.869   3.732   2.871  1.3870  1.9776  2.7116
  405MOL0     H54673   5.133   3.771   2.753 -0.6240  0.1316  1.4214
  405MOL0     H54674   5.136   3.643   2.640 -0.0286  0.4029 -1.1719
  405MOL0     H54675   4.981   3.732   2.664  1.4198  0.2944 -1.8694
  406MOL0     O54676   9.059   5.804  10.052 -0.1130 -0.6738  0.2744
  406MOL0     C54677   9.048   5.922  10.003  1.3018  0.0718 -0.5536
  406MOL0     O54678   9.121   5.974   9.907 -0.5184 -0.5006  0.0554
  406MOL0     C54679   9.225   5.893   9.865  0.3128  0.3699 -0.2560
  406MOL0     C54680   9.215   5.821   9.741  0.4544  0.4477 -0.1537
  406MOL0     C54681   9.308   5.724   9.701 -0.0627 -0.2754 -0.1244
  406MOL0     C54682   9.428   5.708   9.777  0.3052  0.5103 -0.3523
  406MOL0     O54683   9.527   5.621   9.748  0.8325  0.6015 -0.4206
  406MOL0     C54684   9.496   5.515   9.658  0.4081 -0.5858  0.2528
  406MOL0     C54685   9.601   5.406   9.673 -0.8796  0.4746 -0.0869
  406MOL0     C54686   9.748   5.442   9.667  0.3647 -0.2420  0.5424
  406MOL0     C54687   9.773   5.517   9.541 -0.8455  0.3082 -0.3746
  406MOL0     C54688   9.921   5.543   9.500 -0.2492  0.3157  0.2023
  406MOL0     C54689  10.010   5.427   9.457 -0.4455 -0.8576  0.5608
  406MOL0     C54690  10.151   5.464   9.406 -0.2008  0.0145 -0.1157
  406MOL0     C54691  10.257   5.487   9.523  0.2220 -0.3626  0.3151
  406MOL0     N54692  10.386   5.475   9.445  0.6770 -0.0062 -0.3560
  406MOL0     C54693  10.459   5.567   9.378 -1.0224  0.1633  0.3818
  406MOL0     C54694  10.556   5.495   9.318 -0.1341  0.0169 -0.8649
  406MOL0     C54695  10.672   5.538   9.232 -0.5617  0.1913  0.2351
  406MOL0     C54696  10.799   5.585   9.319 -0.0980  0.5603  0.2105
  406MOL0     C54697  10.827   5.496   9.430  0.4233  0.4071 -0.9577
  406MOL0     C54698  10.929   5.558   9.524 -0.0275  0.2009  0.4477
  406MOL0     O54699  11.052   5.553   9.456  0.4522  0.0534  0.0153
  406MOL0     C54700  11.162   5.612   9.506 -0.4430 -0.6307 -0.0878
  406MOL0     C54701  11.282   5.605   9.437  0.3926 -0.7408  0.3259
  406MOL0     C54702  11.400   5.666   9.483 -0.1832  0.5526  1.3141
  406MOL0     C54703  11.404   5.738   9.605 -0.7390  0.2808  0.4316
  406MOL0     C54704  11.532   5.810   9.635 -0.0831 -0.1206  0.1713
  406MOL0     O54705  11.625   5.819   9.536  0.0949 -0.2142  0.4618
  406MOL0     C54706  11.740   5.894   9.548 -0.0706 -0.0611  0.0895
  406MOL0     C54707  11.813   5.925   9.661 -0.2497  0.2890  0.0192
  406MOL0     C54708  11.943   5.980   9.655 -0.5206  0.1610  0.0098
  406MOL0     C54709  11.990   6.028   9.532 -0.7365  0.1618 -0.1655
  406MOL0     O54710  12.126   6.065   9.519  0.0715  0.1692  0.0880
  406MOL0     C54711  12.160   6.199   9.567  0.4930  0.2739  0.5148
  406MOL0     C54712  12.304   6.202   9.544 -0.5768  0.3156 -0.5125
  406MOL0     C54713  12.367   6.340   9.580  0.0063  0.2070 -0.4679
  406MOL0     C54714  12.508   6.342   9.517 -0.1369  0.5829  0.0840
  406MOL0     C54715  12.591   6.467   9.556  0.3358 -0.4214 -0.1623
  406MOL0     C54716  12.735   6.459   9.503  0.4236  0.4039 -0.6845
  406MOL0     C54717  12.822   6.366   9.587 -1.0274 -0.5932  0.2170
  406MOL0     C54718  12.967   6.394   9.535 -0.9625 -0.2045 -0.4021
  406MOL0    Cl54719  13.031   6.570   9.572 -0.3827 -0.3219 -0.0794
  406MOL0     C54720  11.914   6.001   9.417 -0.0684  0.2380 -0.0521
  406MOL0     C54721  11.787   5.937   9.429 -0.0758  0.2326  0.0123
  406MOL0     O54722  11.538   5.863   9.750  0.3896  0.2834 -0.2223
  406MOL0     C54723  11.281   5.743   9.685 -0.6397 -0.8448  0.3976
  406MOL0     C54724  11.166   5.673   9.638  0.9685 -0.5937  0.5549
  406MOL0     N54725  10.534   5.368   9.344 -0.1590  0.2351 -0.2135
  406MOL0     N54726  10.438   5.353   9.418 -0.1161 -0.2792  0.2961
  406MOL0     C54727   9.439   5.779   9.902 -0.2666 -0.2023  0.1357
  406MOL0     C54728   9.349   5.880   9.932  1.2091  0.0672 -0.4979
  406MOL0     C54729   8.937   6.011  10.059 -0.4116  0.0265  0.3319
  406MOL0     C54730   8.942   6.151  10.034  0.5118 -0.5681  0.4434
  406MOL0     C54731   8.849   6.234  10.092  0.7154 -0.0551 -0.4489
  406MOL0     C54732   8.755   6.198  10.179 -0.7460 -0.6990 -0.7854
  406MOL0     O54733   8.662   6.278  10.237 -0.4608 -0.3584 -0.4089
  406MOL0     C54734   8.658   6.416  10.189  0.9013  0.2805 -0.1671
  406MOL0     C54735   8.533   6.491  10.257 -0.8572 -0.3929  0.0402
  406MOL0     C54736   8.516   6.464  10.414 -0.3440 -0.0668  0.2259
  406MOL0     C54737   8.648   6.473  10.498  0.2871  0.0014  0.5978
  406MOL0     C54738   8.725   6.597  10.472 -0.3369  0.0316  0.1569
  406MOL0     C54739   8.771   6.705  10.451 -0.4689  0.4743  0.7809
  406MOL0     C54740   8.750   6.065  10.212 -0.0152 -0.6216  0.4095
  406MOL0     C54741   8.834   5.964  10.147 -0.0934 -0.0493  0.0007
  406MOL0     C54742   8.811   5.819  10.188  0.1443  0.0783 -0.7236
  406MOL0     H54743   9.116   5.835   9.699  0.4707 -0.8416 -0.6722
  406MOL0     H54744   9.284   5.676   9.607  0.8844 -0.2623 -0.3885
  406MOL0     H54745   9.401   5.465   9.677  0.6244 -2.0274 -2.0807
  406MOL0     H54746   9.492   5.559   9.558  0.6377  2.3181  1.4079
  406MOL0     H54747   9.577   5.331   9.597 -1.0322 -1.8815  2.1171
  406MOL0     H54748   9.600   5.352   9.769  1.9913  0.5112  0.0542
  406MOL0     H54749   9.810   5.355   9.692  0.7776  0.6258  2.8512
  406MOL0     H54750   9.774   5.517   9.743  2.6016 -0.2172 -0.1830
  406MOL0     H54751   9.727   5.470   9.454 -2.1862 -1.9429  1.4536
  406MOL0     H54752   9.735   5.619   9.556 -0.4357  0.6800 -1.7517
  406MOL0     H54753   9.916   5.610   9.414  0.8705 -0.0284 -0.1520
  406MOL0     H54754   9.970   5.592   9.585  0.1878 -1.4655  1.0240
  406MOL0     H54755  10.011   5.351   9.536  2.0520  0.0301  1.4764
  406MOL0     H54756   9.963   5.377   9.371 -2.3482  0.0999  0.9827
  406MOL0     H54757  10.149   5.551   9.340 -2.1699 -0.3064 -0.5375
  406MOL0     H54758  10.188   5.379   9.348  1.6487  0.8381 -0.2225
  406MOL0     H54759  10.254   5.580   9.580  1.3382 -1.5309  2.3933
  406MOL0     H54760  10.242   5.421   9.610 -3.4958 -2.4296 -1.6225
  406MOL0     H54761  10.439   5.673   9.388 -0.0489  0.1758  2.9152
  406MOL0     H54762  10.700   5.454   9.167 -2.9376  0.0877 -0.7538
  406MOL0     H54763  10.649   5.621   9.165  0.5280 -0.0093 -0.4101
  406MOL0     H54764  10.888   5.588   9.255 -1.0805 -2.9081 -1.5313
  406MOL0     H54765  10.772   5.682   9.362  0.1847  0.8010 -0.1450
  406MOL0     H54766  10.870   5.403   9.391  1.6436  0.6825 -0.3122
  406MOL0     H54767  10.745   5.491   9.503  1.8329  2.3256  0.8960
  406MOL0     H54768  10.929   5.484   9.605  0.0356 -0.3922 -0.0809
  406MOL0     H54769  10.908   5.661   9.554  2.0750  1.1176 -0.9739
  406MOL0     H54770  11.273   5.551   9.344  0.8640  1.0046 -0.7969
  406MOL0     H54771  11.488   5.656   9.421  0.4564  1.8668  1.9571
  406MOL0     H54772  11.774   5.892   9.757  1.4945 -2.7750 -0.1743
  406MOL0     H54773  11.995   6.005   9.747  0.0734 -0.0487 -0.2661
  406MOL0     H54774  12.113   6.280   9.511  3.8018  0.5055 -2.2679
  406MOL0     H54775  12.125   6.218   9.669 -0.2713 -0.5374  0.4100
  406MOL0     H54776  12.335   6.124   9.613  1.7221  0.2500 -1.5074
  406MOL0     H54777  12.332   6.164   9.445 -0.1122  0.1293 -0.3118
  406MOL0     H54778  12.295   6.412   9.540 -1.1037  0.8034  2.4005
  406MOL0     H54779  12.380   6.352   9.687 -3.6989 -0.7380  0.2297
  406MOL0     H54780  12.508   6.336   9.407  1.5370  0.1630  0.0773
  406MOL0     H54781  12.558   6.251   9.552  1.8377  1.9988  1.0952
  406MOL0     H54782  12.588   6.480   9.665 -0.7879  1.5945 -0.3816
  406MOL0     H54783  12.544   6.549   9.501  0.1784 -0.7904 -0.5821
  406MOL0     H54784  12.732   6.423   9.400  0.4735  1.6379 -1.1347
  406MOL0     H54785  12.787   6.556   9.508 -2.3380  1.9223  0.9779
  406MOL0     H54786  12.801   6.264   9.553 -0.1438 -1.7469  2.8643
  406MOL0     H54787  12.809   6.390   9.693  0.1959 -2.9804  0.9886
  406MOL0     H54788  13.031   6.323   9.588 -1.3373 -1.1288 -1.1571
  406MOL0     H54789  12.982   6.375   9.428 -0.0056  1.4202 -0.5979
  406MOL0     H54790  11.965   6.026   9.325  2.5008  1.5188  1.6047
  406MOL0     H54791  11.740   5.921   9.333 -2.2875  3.0953  0.4780
  406MOL0     H54792  11.271   5.797   9.779  2.4596  3.2519 -1.3149
  406MOL0     H54793  11.073   5.697   9.689  0.5726 -1.2704  0.1513
  406MOL0     H54794   9.515   5.755   9.976  0.2175  1.2611  0.1479
  406MOL0     H54795   9.353   5.935  10.025  0.2294  0.3578 -0.6126
  406MOL0     H54796   9.026   6.200   9.987 -1.0006  2.7370  0.8912
  406MOL0     H54797   8.866   6.336  10.060 -2.1615  1.2894  1.7332
  406MOL0     H54798   8.651   6.423  10.080  2.4183  2.1962 -0.2100
  406MOL0     H54799   8.747   6.470  10.222 -0.8396  2.2004  1.7052
  406MOL0     H54800   8.445   6.448  10.207 -2.1622  0.8121  1.2225
  406MOL0     H54801   8.535   6.598  10.234  0.6833 -0.4069 -0.0380
  406MOL0     H54802   8.478   6.363  10.431 -0.7625 -0.7813 -3.8620
  406MOL0     H54803   8.445   6.534  10.459  1.6146  1.9531  0.3727
  406MOL0     H54804   8.614   6.474  10.602 -0.1168  3.0903  0.5127
  406MOL0     H54805   8.715   6.386  10.489  1.9226  1.3855 -1.7120
  406MOL0     H54806   8.826   6.797  10.445  3.8021 -1.9130 -0.9118
  406MOL0     H54807   8.673   6.027  10.279  0.9792 -1.6029  1.0244
  406MOL0     H54808   8.886   5.794  10.264 -0.1094  0.6643 -0.2724
  406MOL0     H54809   8.706   5.813  10.219  0.8019  0.8455  1.8411
  406MOL0     H54810   8.825   5.743  10.110  1.6067 -3.3719  2.6086
  407MOL0     O54811   6.009   3.707   6.951  0.1973 -0.6520  0.2051
  407MOL0     C54812   5.955   3.606   6.904 -0.3358  0.3753  0.7469
  407MOL0     O54813   5.824   3.593   6.873  0.2200  0.2964  0.3779
  407MOL0     C54814   5.717   3.669   6.905  0.1805 -0.0132  0.3210
  407MOL0     C54815   5.598   3.611   6.877  0.0351  0.3679 -0.7565
  407MOL0     C54816   5.475   3.677   6.899 -0.8785  0.3967  0.4936
  407MOL0     C54817   5.478   3.809   6.942  0.6857  0.4095  0.1787
  407MOL0     O54818   5.378   3.890   6.966 -0.7464  0.0946 -0.0083
  407MOL0     C54819   5.236   3.855   6.946 -0.4075  0.9675  0.0959
  407MOL0     C54820   5.160   3.976   6.985  0.0579  0.2705  0.7469
  407MOL0     C54821   5.024   3.952   7.048  0.0719  0.3989  0.3949
  407MOL0     C54822   4.959   4.097   7.073 -0.0904  0.3818 -0.4356
  407MOL0     C54823   4.836   4.088   7.162 -0.6598  0.2385  0.5494
  407MOL0     C54824   4.744   4.208   7.157  0.9013  0.8120 -0.5986
  407MOL0     C54825   4.798   4.322   7.242  0.1502  0.4376  0.6584
  407MOL0     C54826   4.722   4.456   7.220 -0.0859 -0.2797 -1.3187
  407MOL0     N54827   4.750   4.545   7.334  0.5241 -0.7872 -0.6277
  407MOL0     C54828   4.844   4.540   7.427  0.1229  0.3042  0.1769
  407MOL0     C54829   4.842   4.650   7.501  0.2631 -0.6859  0.3853
  407MOL0     C54830   4.927   4.676   7.624  1.2088 -0.4379 -0.3134
  407MOL0     C54831   5.063   4.660   7.586 -0.7887 -0.3187 -0.2490
  407MOL0     C54832   5.157   4.719   7.690  0.2891 -0.4699 -0.1190
  407MOL0     C54833   5.306   4.692   7.669  0.9837  0.3700 -0.4756
  407MOL0     O54834   5.339   4.721   7.534 -0.3121  0.0114 -0.0976
  407MOL0     C54835   5.438   4.645   7.480 -0.1257  0.1672 -0.2535
  407MOL0     C54836   5.412   4.574   7.366 -1.1396 -0.3527 -0.1525
  407MOL0     C54837   5.512   4.500   7.304 -0.0979 -0.4274 -0.8787
  407MOL0     C54838   5.644   4.499   7.355 -0.3528 -0.2742  0.1532
  407MOL0     C54839   5.754   4.423   7.285  0.2190  0.1439  0.4434
  407MOL0     O54840   5.854   4.382   7.364 -0.2927  0.0378 -0.2961
  407MOL0     C54841   5.933   4.289   7.301 -0.5567 -0.0534 -0.3818
  407MOL0     C54842   5.878   4.167   7.265 -0.6483  0.6386  0.9599
  407MOL0     C54843   5.963   4.059   7.224 -0.3929  0.3436  0.0692
  407MOL0     C54844   6.104   4.081   7.220  0.8455  1.0593  0.6155
  407MOL0     O54845   6.172   3.967   7.177  0.2327 -0.3042  0.1929
  407MOL0     C54846   6.302   3.978   7.116  0.5797  0.2712  0.3317
  407MOL0     C54847   6.423   3.983   7.213 -0.1857  0.1949 -0.0260
  407MOL0     C54848   6.442   3.836   7.251  0.3211  0.0397  0.2763
  407MOL0     C54849   6.509   3.813   7.384 -0.3941 -0.5925 -0.2346
  407MOL0     C54850   6.508   3.663   7.412  0.1273 -0.1382 -0.3070
  407MOL0     C54851   6.583   3.619   7.539 -0.5304  0.0575  0.2357
  407MOL0     C54852   6.600   3.465   7.541  0.0823 -0.7917  0.1956
  407MOL0     C54853   6.710   3.399   7.462 -0.2865 -0.0016 -0.6224
  407MOL0    Cl54854   6.854   3.448   7.552 -0.1167 -0.3785 -0.2326
  407MOL0     C54855   6.158   4.209   7.246  0.7579 -0.2581 -0.4412
  407MOL0     C54856   6.072   4.312   7.283 -0.3686  0.0779 -0.2652
  407MOL0     O54857   5.726   4.389   7.169 -0.1591 -1.5479  0.1802
  407MOL0     C54858   5.664   4.562   7.476  0.4732 -0.5437  0.8798
  407MOL0     C54859   5.563   4.634   7.544 -0.2182  0.4047  0.2271
  407MOL0     N54860   4.742   4.730   7.446  0.1880  0.1434  0.3265
  407MOL0     N54861   4.689   4.673   7.347  0.0687  0.1588 -0.4394
  407MOL0     C54862   5.603   3.871   6.961 -0.3374 -0.2373 -0.8626
  407MOL0     C54863   5.722   3.800   6.944  0.1148 -0.0879 -0.1985
  407MOL0     C54864   6.053   3.498   6.873 -0.1196 -0.0881  0.7557
  407MOL0     C54865   6.032   3.359   6.912  0.2268  0.3911  0.2201
  407MOL0     C54866   6.128   3.259   6.890  1.1273 -0.0091 -0.4538
  407MOL0     C54867   6.252   3.287   6.827  0.4170 -0.3568  0.6652
  407MOL0     O54868   6.351   3.195   6.810  0.3176  0.6535  0.1016
  407MOL0     C54869   6.332   3.062   6.862  0.3350 -1.4743  0.0786
  407MOL0     C54870   6.468   2.990   6.855 -0.0495  0.4444 -0.3079
  407MOL0     C54871   6.471   2.847   6.920  0.3381  0.0719  0.5754
  407MOL0     C54872   6.618   2.798   6.924 -0.6851  0.8157 -0.1477
  407MOL0     C54873   6.660   2.735   6.798 -0.0123 -0.1935  0.4322
  407MOL0     C54874   6.692   2.677   6.699 -0.9465  0.2027  0.1393
  407MOL0     C54875   6.270   3.416   6.791  1.1352 -0.3129 -0.0480
  407MOL0     C54876   6.177   3.527   6.804  0.0605  1.0877 -0.0384
  407MOL0     C54877   6.222   3.663   6.747 -0.0179  0.3799  0.1868
  407MOL0     H54878   5.588   3.506   6.854 -1.5891  0.3264  0.0141
  407MOL0     H54879   5.389   3.612   6.885  0.5188 -1.7032  1.2635
  407MOL0     H54880   5.223   3.828   6.841  1.2829  0.6701 -0.0711
  407MOL0     H54881   5.211   3.770   7.011  0.9681 -0.0990 -0.7208
  407MOL0     H54882   5.141   4.035   6.895  0.2610 -1.1084 -0.2305
  407MOL0     H54883   5.207   4.034   7.065  0.2842  1.7315 -0.3924
  407MOL0     H54884   5.030   3.894   7.140  0.4986 -1.4004 -0.7070
  407MOL0     H54885   4.959   3.900   6.977  1.9393  0.0889 -1.1662
  407MOL0     H54886   5.027   4.165   7.125 -0.6378  2.0934 -1.8597
  407MOL0     H54887   4.940   4.146   6.977 -0.4014 -0.1758 -0.6650
  407MOL0     H54888   4.768   4.010   7.127 -1.4761  0.7592  0.9295
  407MOL0     H54889   4.854   4.060   7.266 -0.2571  1.0017  0.6929
  407MOL0     H54890   4.737   4.236   7.051  2.1260 -0.1320 -0.9537
  407MOL0     H54891   4.646   4.185   7.200  1.9697 -0.5386  1.2233
  407MOL0     H54892   4.899   4.330   7.199  0.7549 -3.0960  1.0980
  407MOL0     H54893   4.811   4.292   7.346  1.4468  1.1826  0.7356
  407MOL0     H54894   4.754   4.509   7.129 -1.1635 -0.6190 -1.9183
  407MOL0     H54895   4.614   4.444   7.212 -0.3837  0.8293  0.5113
  407MOL0     H54896   4.912   4.459   7.452  0.8334  1.2463  1.4731
  407MOL0     H54897   4.910   4.777   7.661  0.4248  0.4285 -2.8280
  407MOL0     H54898   4.895   4.602   7.698  0.7002 -0.4167 -0.5088
  407MOL0     H54899   5.093   4.556   7.571  1.9566 -0.3512  3.8412
  407MOL0     H54900   5.082   4.712   7.491  0.3780  0.6313  0.4630
  407MOL0     H54901   5.120   4.680   7.785 -2.7064  0.4156 -0.7914
  407MOL0     H54902   5.139   4.827   7.694  1.2420 -0.0657 -3.6288
  407MOL0     H54903   5.333   4.589   7.691 -1.8738 -0.1973  0.8178
  407MOL0     H54904   5.366   4.763   7.727 -0.8575  1.6839 -0.0815
  407MOL0     H54905   5.309   4.575   7.330 -1.8890  2.1349  1.7740
  407MOL0     H54906   5.489   4.445   7.213 -0.4886 -1.0668 -0.3979
  407MOL0     H54907   5.771   4.150   7.271 -0.5363  0.3135  3.3420
  407MOL0     H54908   5.930   3.960   7.197 -1.0242  0.0456  1.8061
  407MOL0     H54909   6.309   3.906   7.034 -1.5863  0.2366  0.1294
  407MOL0     H54910   6.301   4.076   7.068 -2.1322  2.3441  4.0687
  407MOL0     H54911   6.508   4.006   7.148  0.0158  0.9963  0.5049
  407MOL0     H54912   6.419   4.053   7.297  1.8049  1.2920 -0.7761
  407MOL0     H54913   6.353   3.773   7.252  0.8228 -0.7628 -1.7885
  407MOL0     H54914   6.494   3.790   7.167 -0.9821 -0.0798 -0.5067
  407MOL0     H54915   6.451   3.871   7.456 -1.3263  2.5116 -3.1988
  407MOL0     H54916   6.610   3.855   7.381 -0.1291 -1.2808 -1.4454
  407MOL0     H54917   6.539   3.605   7.325 -1.1443 -0.1955 -0.7462
  407MOL0     H54918   6.404   3.632   7.427  0.5473 -1.4030  0.0967
  407MOL0     H54919   6.672   3.683   7.540 -1.5720  1.5759  0.7215
  407MOL0     H54920   6.530   3.644   7.631 -0.7219 -0.8797  0.3894
  407MOL0     H54921   6.513   3.410   7.503 -0.5396  0.5492 -0.3997
  407MOL0     H54922   6.601   3.427   7.644  2.7623 -1.9105 -0.1876
  407MOL0     H54923   6.705   3.290   7.473  3.7022 -0.2858  0.1426
  407MOL0     H54924   6.721   3.424   7.356 -0.0226  0.8433 -0.4047
  407MOL0     H54925   6.265   4.228   7.242  0.3908  2.5606  0.7250
  407MOL0     H54926   6.111   4.411   7.306  0.5782 -0.0950 -1.1118
  407MOL0     H54927   5.765   4.555   7.516  0.7832  0.3774  0.2890
  407MOL0     H54928   5.598   4.676   7.639  2.8772 -1.6918  0.1790
  407MOL0     H54929   5.601   3.976   6.990  2.3159  0.1389 -1.7125
  407MOL0     H54930   5.816   3.852   6.956 -0.6684  2.0332 -2.4506
  407MOL0     H54931   5.938   3.337   6.961 -2.0669 -0.2459 -3.9336
  407MOL0     H54932   6.100   3.159   6.920 -0.6631 -0.0302 -2.0194
  407MOL0     H54933   6.254   3.025   6.796 -0.7689 -2.1495  1.6844
  407MOL0     H54934   6.295   3.063   6.965  0.8648 -0.6212  0.2675
  407MOL0     H54935   6.539   3.052   6.911 -0.3922  0.1657  0.4484
  407MOL0     H54936   6.507   2.982   6.753  1.6558 -3.0565  0.4452
  407MOL0     H54937   6.408   2.772   6.870 -0.0852 -0.1408  1.3912
  407MOL0     H54938   6.430   2.862   7.021 -1.9382 -0.0480 -0.2749
  407MOL0     H54939   6.688   2.879   6.946  1.6025 -0.8063 -1.0320
  407MOL0     H54940   6.641   2.727   7.005 -0.3873 -0.5217 -1.3599
  407MOL0     H54941   6.715   2.631   6.605 -1.2578  0.8511 -0.2572
  407MOL0     H54942   6.369   3.434   6.750  2.3475  0.9003  3.0927
  407MOL0     H54943   6.259   3.716   6.835 -0.0719 -1.6604  1.5340
  407MOL0     H54944   6.304   3.658   6.675 -0.9692 -0.2891 -0.8856
  407MOL0     H54945   6.131   3.702   6.701  1.0368  0.1224 -2.2499
  408MOL0     O54946   7.009   1.582  10.256  1.0967 -0.3158 -0.6848
  408MOL0     C54947   6.916   1.556  10.334  0.6268 -0.3557 -0.4650
  408MOL0     O54948   6.924   1.552  10.471 -0.6108  0.1438  0.9204
  408MOL0     C54949   7.053   1.550  10.517 -0.4872 -0.0971 -0.1400
  408MOL0     C54950   7.141   1.442  10.487 -0.2336  0.1331  0.9507
  408MOL0     C54951   7.270   1.432  10.539  0.0680  0.4953 -0.1486
  408MOL0     C54952   7.311   1.525  10.629 -0.9748 -0.4980 -0.3467
  408MOL0     O54953   7.437   1.514  10.685 -0.0023  0.3705  0.7457
  408MOL0     C54954   7.519   1.634  10.698 -0.2825  0.0063  0.4935
  408MOL0     C54955   7.663   1.619  10.646 -0.0022 -0.4668 -0.0524
  408MOL0     C54956   7.739   1.757  10.634  0.0657  0.3185 -0.2943
  408MOL0     C54957   7.890   1.730  10.595 -0.6688  0.4679 -0.5998
  408MOL0     C54958   7.979   1.840  10.603 -0.4815 -0.5451  0.1483
  408MOL0     C54959   8.127   1.794  10.592 -0.4985  0.0015 -0.4045
  408MOL0     C54960   8.228   1.903  10.626  0.5877 -0.2662 -0.3574
  408MOL0     C54961   8.238   2.010  10.527  0.4642 -0.3572 -0.1265
  408MOL0     N54962   8.367   2.074  10.549 -0.0639  0.2619  0.2338
  408MOL0     C54963   8.460   2.081  10.450 -0.3289 -0.0360 -0.0868
  408MOL0     C54964   8.552   2.164  10.510  0.5805 -0.0756  1.0705
  408MOL0     C54965   8.682   2.219  10.455 -0.1602  0.5840 -0.2912
  408MOL0     C54966   8.794   2.126  10.496 -0.1026  0.5240 -0.8954
  408MOL0     C54967   8.922   2.133  10.412 -0.0029  0.3221 -0.1570
  408MOL0     C54968   8.973   2.271  10.389  0.2969  0.3385  0.2789
  408MOL0     O54969   9.109   2.254  10.342 -0.2372 -0.1509  0.3483
  408MOL0     C54970   9.204   2.235  10.445 -0.0259  0.5340 -0.1679
  408MOL0     C54971   9.336   2.203  10.393  0.2949  0.0865  0.0684
  408MOL0     C54972   9.437   2.174  10.475 -0.6478  0.1987 -0.6809
  408MOL0     C54973   9.424   2.180  10.618 -1.6183  0.7855  0.2237
  408MOL0     C54974   9.527   2.121  10.708  0.0648  0.7988 -0.0910
  408MOL0     O54975   9.639   2.073  10.649 -0.4436 -0.5417  0.1330
  408MOL0     C54976   9.738   2.027  10.734  0.1739  0.4769  0.1589
  408MOL0     C54977   9.718   1.921  10.818  0.0289  0.1413 -1.3402
  408MOL0     C54978   9.814   1.882  10.919  0.3677  0.9190 -0.0346
  408MOL0     C54979   9.932   1.951  10.923 -1.2097  0.0139  0.0099
  408MOL0     O54980  10.038   1.919  11.002  0.7655 -0.2562 -0.1037
  408MOL0     C54981  10.069   2.008  11.101 -0.1633 -0.6532  0.3115
  408MOL0     C54982  10.201   1.962  11.163 -0.8832  0.0199  0.4834
  408MOL0     C54983  10.314   1.988  11.060  0.4842 -0.1918  0.0613
  408MOL0     C54984  10.444   1.955  11.104 -0.4165  0.7890  0.0588
  408MOL0     C54985  10.543   1.946  10.993 -0.2416  0.2083  0.1187
  408MOL0     C54986  10.690   1.964  11.054 -0.6809 -0.5491 -0.9418
  408MOL0     C54987  10.793   1.938  10.946 -0.2976 -0.0559  0.2650
  408MOL0     C54988  10.933   1.995  10.973 -0.7904  0.1563 -0.2799
  408MOL0    Cl54989  10.926   2.177  10.985 -0.0142 -0.0375  0.0135
  408MOL0     C54990   9.962   2.047  10.832 -0.0219 -0.2966  0.1859
  408MOL0     C54991   9.866   2.091  10.744 -0.7242 -0.8130  0.1492
  408MOL0     O54992   9.500   2.120  10.826 -0.4126  0.8981 -0.3709
  408MOL0     C54993   9.299   2.214  10.665  0.6591 -0.0076  0.1367
  408MOL0     C54994   9.190   2.242  10.583  0.4367  0.1419 -0.0614
  408MOL0     N54995   8.508   2.210  10.630 -0.2095 -0.1549  0.3433
  408MOL0     N54996   8.391   2.165  10.643 -0.0029 -0.1541  0.2578
  408MOL0     C54997   7.230   1.627  10.665 -0.2401 -0.5058  0.2907
  408MOL0     C54998   7.102   1.639  10.615  0.1786  0.0632  1.3312
  408MOL0     C54999   6.783   1.536  10.279 -1.2580 -0.1651  0.3152
  408MOL0     C55000   6.742   1.618  10.170 -0.1527  0.0617 -0.7789
  408MOL0     C55001   6.618   1.601  10.105 -0.2755 -0.6808 -0.4147
  408MOL0     C55002   6.543   1.486  10.136 -0.1532  0.0526 -0.1479
  408MOL0     O55003   6.417   1.466  10.085 -0.8429 -0.2993  0.1205
  408MOL0     C55004   6.320   1.553  10.140  0.2771 -0.0037 -0.8863
  408MOL0     C55005   6.235   1.473  10.240  0.0601  0.7782  0.2664
  408MOL0     C55006   6.124   1.390  10.166 -0.1243  0.3052 -0.7933
  408MOL0     C55007   6.005   1.356  10.265  0.8757 -0.4650 -0.2923
  408MOL0     C55008   5.948   1.224  10.234  1.2665 -0.7810 -0.4626
  408MOL0     C55009   5.901   1.122  10.204  0.9959  0.3859 -0.4856
  408MOL0     C55010   6.586   1.409  10.239  0.8755 -0.2898  0.5560
  408MOL0     C55011   6.703   1.422  10.307 -0.2213 -0.6681 -0.0763
  408MOL0     C55012   6.721   1.320  10.423 -0.4756 -0.4480 -0.7287
  408MOL0     H55013   7.115   1.364  10.416 -0.1959  0.8261  0.1563
  408MOL0     H55014   7.335   1.347  10.522  1.3937  1.5735 -0.6852
  408MOL0     H55015   7.475   1.717  10.642  0.1350 -0.0398  0.0919
  408MOL0     H55016   7.520   1.676  10.799 -0.6380  1.8284 -0.2235
  408MOL0     H55017   7.655   1.580  10.545 -1.9079  0.0944 -0.1470
  408MOL0     H55018   7.706   1.541  10.710 -1.7755 -0.3508  1.3495
  408MOL0     H55019   7.728   1.814  10.727  1.5061 -0.6248  0.4959
  408MOL0     H55020   7.693   1.820  10.557  1.8592 -0.9722 -2.5600
  408MOL0     H55021   7.925   1.642  10.649  1.7124  0.0576 -2.6236
  408MOL0     H55022   7.889   1.700  10.490  0.4850  2.1238 -1.1312
  408MOL0     H55023   7.959   1.913  10.524 -0.0270 -1.3301 -0.7040
  408MOL0     H55024   7.968   1.894  10.698 -0.5190  0.6952 -0.5294
  408MOL0     H55025   8.139   1.725  10.676 -1.7437  1.0451  0.6740
  408MOL0     H55026   8.147   1.746  10.496 -0.6814 -0.6156 -0.1374
  408MOL0     H55027   8.328   1.862  10.643  0.2108 -0.4494  1.6434
  408MOL0     H55028   8.206   1.940  10.726 -1.5520 -3.0736  0.3235
  408MOL0     H55029   8.227   1.963  10.428  3.3817  0.5679 -0.9764
  408MOL0     H55030   8.156   2.076  10.557 -0.0884 -1.5461  1.0914
  408MOL0     H55031   8.476   2.034  10.354 -0.3401 -0.1685 -0.0233
  408MOL0     H55032   8.664   2.217  10.347 -2.4121 -2.2417 -0.0003
  408MOL0     H55033   8.700   2.323  10.485  1.8133  0.2599 -0.2580
  408MOL0     H55034   8.830   2.145  10.598  0.7317 -1.1058 -0.8664
  408MOL0     H55035   8.756   2.024  10.502 -2.7089  1.3816 -1.7524
  408MOL0     H55036   8.908   2.083  10.316 -0.1952 -2.3751  1.1744
  408MOL0     H55037   8.996   2.072  10.464 -1.9454 -1.5672  0.5548
  408MOL0     H55038   8.945   2.321  10.482 -3.0071 -1.6894  0.5512
  408MOL0     H55039   8.923   2.322  10.306  1.4811 -0.1679 -0.7733
  408MOL0     H55040   9.348   2.197  10.285 -0.7627  1.4005 -0.1446
  408MOL0     H55041   9.528   2.139  10.426 -0.6573 -1.1560  0.2123
  408MOL0     H55042   9.628   1.861  10.827  0.7934 -0.7181  2.7508
  408MOL0     H55043   9.798   1.808  10.996  0.3673  2.4942  1.5499
  408MOL0     H55044  10.065   2.111  11.065  0.9870 -1.1166 -1.2355
  408MOL0     H55045   9.991   1.995  11.177 -1.0381  2.1703  0.0165
  408MOL0     H55046  10.234   2.019  11.250  4.0676 -0.5131 -0.7272
  408MOL0     H55047  10.182   1.857  11.187  1.4008 -0.1880  1.6022
  408MOL0     H55048  10.299   1.936  10.965 -1.3737  0.9209 -0.3016
  408MOL0     H55049  10.303   2.093  11.034  1.2680 -0.1441 -0.0909
  408MOL0     H55050  10.437   1.863  11.163  0.2499  1.6465  1.5118
  408MOL0     H55051  10.480   2.041  11.161  0.9230  1.2051 -1.3460
  408MOL0     H55052  10.529   2.028  10.921  2.5046  1.2503  0.6308
  408MOL0     H55053  10.530   1.854  10.936  0.7535 -0.7995  1.4601
  408MOL0     H55054  10.707   2.066  11.090  2.0458  0.1835 -3.9003
  408MOL0     H55055  10.698   1.891  11.134 -1.9242 -1.7656 -1.8797
  408MOL0     H55056  10.770   1.997  10.857 -1.7776  1.6926  1.7314
  408MOL0     H55057  10.816   1.832  10.933  0.7375 -0.0460  1.7461
  408MOL0     H55058  10.972   1.959  11.069 -4.3754 -1.7877  0.6161
  408MOL0     H55059  11.002   1.962  10.895  0.5845 -2.7497  1.9907
  408MOL0     H55060  10.062   2.087  10.845 -1.1604  3.1182 -0.5718
  408MOL0     H55061   9.888   2.168  10.671  0.2241 -1.9670 -0.8403
  408MOL0     H55062   9.278   2.217  10.772 -1.6402  2.6069 -0.2682
  408MOL0     H55063   9.095   2.271  10.625  0.3158  1.4555 -1.1699
  408MOL0     H55064   7.263   1.697  10.741  0.9511  0.6182 -1.1769
  408MOL0     H55065   7.038   1.713  10.661  0.2020  0.8408  0.1815
  408MOL0     H55066   6.803   1.704  10.142 -1.2453  1.7516  1.6683
  408MOL0     H55067   6.578   1.667  10.027 -2.9744 -0.7845  0.7609
  408MOL0     H55068   6.256   1.593  10.061  0.5619 -0.0279 -1.1273
  408MOL0     H55069   6.357   1.640  10.196  0.1729 -0.9919  0.7718
  408MOL0     H55070   6.200   1.544  10.316 -0.1217  1.2113 -0.2154
  408MOL0     H55071   6.292   1.405  10.303 -2.6764  2.2470  4.8357
  408MOL0     H55072   6.176   1.301  10.129  2.1100  1.0759  0.3437
  408MOL0     H55073   6.091   1.453  10.083  1.7806 -0.4025 -2.1574
  408MOL0     H55074   6.032   1.356  10.371  1.0236  3.6143 -0.1861
  408MOL0     H55075   5.936   1.440  10.255 -1.3194 -1.8174  2.2770
  408MOL0     H55076   5.863   1.028  10.170 -1.9856  1.1457  0.3526
  408MOL0     H55077   6.515   1.331  10.266  0.8408 -1.1252 -1.7468
  408MOL0     H55078   6.754   1.230  10.370  0.6218 -1.8722  2.1578
  408MOL0     H55079   6.782   1.356  10.507  0.2022  2.0034 -2.1802
  408MOL0     H55080   6.622   1.306  10.468  0.4167 -1.0735  1.1357
  409MOL0     O55081   2.437   3.203   3.558  0.4644 -0.1025  0.3019
  409MOL0     C55082   2.328   3.179   3.510  0.1130  0.1320  0.6270
  409MOL0     O55083   2.291   3.055   3.455  0.4991  0.0245  0.5654
  409MOL0     C55084   2.377   2.961   3.399  0.0685  0.3697  0.5185
  409MOL0     C55085   2.314   2.855   3.334 -0.5649  0.8031 -0.2490
  409MOL0     C55086   2.384   2.751   3.270  0.5326 -0.2345 -0.5893
  409MOL0     C55087   2.526   2.763   3.270 -0.3166  0.1940 -0.1138
  409MOL0     O55088   2.601   2.659   3.209  0.2773 -0.0823 -0.1911
  409MOL0     C55089   2.683   2.589   3.301 -0.1316 -0.9141 -0.8786
  409MOL0     C55090   2.760   2.465   3.252 -0.2753 -0.3500  0.9562
  409MOL0     C55091   2.877   2.513   3.163 -0.1551 -0.5217  0.1869
  409MOL0     C55092   2.968   2.394   3.106  0.2544 -0.6817 -0.3559
  409MOL0     C55093   3.113   2.433   3.071  0.0541  0.6833  0.1033
  409MOL0     C55094   3.192   2.304   3.043  0.6269 -0.1900  0.2136
  409MOL0     C55095   3.339   2.321   2.999 -0.1252  0.8344 -0.0446
  409MOL0     C55096   3.340   2.368   2.853  0.2419  0.3935 -0.6416
  409MOL0     N55097   3.477   2.357   2.817 -0.5770 -0.4596  0.3375
  409MOL0     C55098   3.541   2.241   2.798 -0.0177 -0.1033  1.0428
  409MOL0     C55099   3.671   2.280   2.797  0.3192 -0.4299 -0.6853
  409MOL0     C55100   3.794   2.201   2.793  0.0722 -0.1342 -0.2195
  409MOL0     C55101   3.849   2.174   2.652  0.1296 -0.4824  0.0526
  409MOL0     C55102   3.909   2.308   2.590 -0.1776 -0.6452  0.6762
  409MOL0     C55103   3.980   2.288   2.462 -0.3858 -0.4328  0.9431
  409MOL0     O55104   4.086   2.193   2.486  0.7752  0.3888  0.1574
  409MOL0     C55105   4.133   2.134   2.368 -0.0137 -0.3146 -0.4085
  409MOL0     C55106   4.196   2.204   2.264  0.5118 -0.5438  0.8933
  409MOL0     C55107   4.266   2.144   2.159  1.2159  0.3825  0.5763
  409MOL0     C55108   4.274   2.008   2.150 -0.8576  0.6925  0.1869
  409MOL0     C55109   4.355   1.949   2.041 -0.9737 -0.0274 -0.6344
  409MOL0     O55110   4.392   1.823   2.067  0.1543  0.3775 -0.4207
  409MOL0     C55111   4.481   1.763   1.984  0.7582  0.2135  0.2317
  409MOL0     C55112   4.604   1.726   2.037 -0.0142 -0.2784  1.4223
  409MOL0     C55113   4.694   1.667   1.943  0.2264 -0.5364 -0.8600
  409MOL0     C55114   4.657   1.648   1.810 -0.1400 -0.3302 -1.3989
  409MOL0     O55115   4.754   1.588   1.731  0.4923 -0.8483  0.0786
  409MOL0     C55116   4.748   1.450   1.723 -0.4930 -0.0258  0.5167
  409MOL0     C55117   4.702   1.399   1.587 -0.7018  0.2852  0.6768
  409MOL0     C55118   4.780   1.465   1.472  0.9863  0.4792 -0.2690
  409MOL0     C55119   4.722   1.602   1.420 -1.0169 -0.7246  0.1110
  409MOL0     C55120   4.809   1.670   1.308  0.0649  0.6008  0.9483
  409MOL0     C55121   4.964   1.678   1.336  0.6719  0.3561  0.6908
  409MOL0     C55122   5.000   1.747   1.468  0.2148 -0.3670 -0.6929
  409MOL0     C55123   5.138   1.808   1.471  0.0257  0.1090  0.4970
  409MOL0    Cl55124   5.142   1.950   1.361  0.3288  0.5988 -0.4509
  409MOL0     C55125   4.535   1.696   1.760 -0.4274 -0.5910  0.2344
  409MOL0     C55126   4.445   1.750   1.848 -0.2491  0.6887 -0.4480
  409MOL0     O55127   4.390   2.015   1.944 -0.9400  0.1603 -0.6643
  409MOL0     C55128   4.205   1.930   2.248  0.5839 -0.0328 -0.3094
  409MOL0     C55129   4.149   1.988   2.364  0.5070  0.1166  0.0481
  409MOL0     N55130   3.686   2.421   2.814  0.2895  0.5784 -0.7033
  409MOL0     N55131   3.563   2.462   2.824  0.7764 -0.4801 -0.5543
  409MOL0     C55132   2.591   2.876   3.330  0.3813  0.6374 -0.9907
  409MOL0     C55133   2.519   2.964   3.402  0.1616 -0.2555  0.6742
  409MOL0     C55134   2.210   3.279   3.521 -1.2446  0.3399  0.1364
  409MOL0     C55135   2.082   3.232   3.498 -0.2725 -0.0426  0.1608
  409MOL0     C55136   1.977   3.318   3.497 -0.0474 -0.1624  0.9673
  409MOL0     C55137   1.995   3.454   3.518  0.1348 -0.0317 -0.4781
  409MOL0     O55138   1.897   3.541   3.537 -0.2087  0.5507  0.0711
  409MOL0     C55139   1.760   3.503   3.513 -0.5586 -0.5319  0.0555
  409MOL0     C55140   1.679   3.631   3.488 -0.6143 -0.0510 -0.0414
  409MOL0     C55141   1.692   3.742   3.590  0.7152  0.4109 -0.6320
  409MOL0     C55142   1.636   3.711   3.731  0.1871 -0.7319  0.0321
  409MOL0     C55143   1.490   3.675   3.712 -0.5031 -0.5980  0.2451
  409MOL0     C55144   1.375   3.639   3.712 -0.0791 -0.1494 -0.2217
  409MOL0     C55145   2.125   3.504   3.538  0.6328 -0.6639  0.2260
  409MOL0     C55146   2.232   3.416   3.543 -0.8040  0.4547 -0.4189
  409MOL0     C55147   2.370   3.474   3.541 -0.1623 -0.0556 -0.2324
  409MOL0     H55148   2.206   2.842   3.328 -0.4270 -0.3105 -0.5904
  409MOL0     H55149   2.331   2.678   3.210 -1.6936  1.1719 -0.4233
  409MOL0     H55150   2.753   2.660   3.346 -5.1404  2.3720  2.7990
  409MOL0     H55151   2.613   2.558   3.378 -1.0800  5.1699  1.2835
  409MOL0     H55152   2.691   2.402   3.195  1.6622 -0.2433 -1.6745
  409MOL0     H55153   2.797   2.413   3.341  2.7951  1.1121  0.6589
  409MOL0     H55154   2.944   2.565   3.232  0.5429 -0.8013 -0.2693
  409MOL0     H55155   2.849   2.570   3.074  0.3923 -1.7103 -0.7663
  409MOL0     H55156   2.964   2.316   3.182 -0.8940 -0.6448 -0.3515
  409MOL0     H55157   2.920   2.355   3.016  0.4522 -1.8318  0.0183
  409MOL0     H55158   3.109   2.508   2.991  1.3917  0.0921 -0.5639
  409MOL0     H55159   3.159   2.471   3.162  2.4273  0.3963 -0.9009
  409MOL0     H55160   3.189   2.247   3.136 -0.4188  2.2162  1.7585
  409MOL0     H55161   3.145   2.242   2.966  0.5141  0.5668 -0.3382
  409MOL0     H55162   3.389   2.225   3.018  0.6012  1.2158  0.0040
  409MOL0     H55163   3.390   2.396   3.061  0.0669 -0.5294  1.5283
  409MOL0     H55164   3.265   2.309   2.798 -2.7889  2.2752  1.2107
  409MOL0     H55165   3.304   2.469   2.836  0.5541  0.3758 -1.4612
  409MOL0     H55166   3.495   2.143   2.797  0.3958 -0.3017 -0.5165
  409MOL0     H55167   3.868   2.243   2.862 -0.2471  1.6118 -0.8827
  409MOL0     H55168   3.763   2.104   2.834  2.4473 -0.6831  0.4244
  409MOL0     H55169   3.923   2.094   2.652 -0.0587 -0.6577  0.1873
  409MOL0     H55170   3.776   2.131   2.583 -0.6223  1.8010 -0.6657
  409MOL0     H55171   3.973   2.367   2.657  0.4687  2.4008 -2.3875
  409MOL0     H55172   3.826   2.373   2.560 -0.3989 -1.3803 -0.3386
  409MOL0     H55173   4.024   2.382   2.427  0.0177 -0.7303  0.6523
  409MOL0     H55174   3.902   2.258   2.391 -1.9949  3.4465  0.8301
  409MOL0     H55175   4.204   2.312   2.264  3.3180 -0.6607  2.0829
  409MOL0     H55176   4.319   2.210   2.091 -1.0365  1.6969  0.0079
  409MOL0     H55177   4.637   1.752   2.137  0.2849  5.3996  0.1919
  409MOL0     H55178   4.789   1.638   1.986 -0.4611  0.9227  1.8294
  409MOL0     H55179   4.849   1.411   1.736 -0.0320  0.8545 -0.3369
  409MOL0     H55180   4.682   1.416   1.804 -0.2709 -1.1110  0.2634
  409MOL0     H55181   4.717   1.290   1.587 -1.0547  0.2312 -0.2588
  409MOL0     H55182   4.595   1.422   1.577 -1.3384 -1.0406  3.3786
  409MOL0     H55183   4.888   1.472   1.493  1.1470 -0.1201 -0.8677
  409MOL0     H55184   4.773   1.391   1.392  0.7482  0.4879 -0.2557
  409MOL0     H55185   4.709   1.676   1.498 -4.2677 -2.2550  1.1892
  409MOL0     H55186   4.622   1.600   1.375 -0.4716 -1.6371 -1.1471
  409MOL0     H55187   4.765   1.768   1.293 -1.1768  0.0220  0.6836
  409MOL0     H55188   4.794   1.625   1.210 -1.2581  1.8619  0.5435
  409MOL0     H55189   5.006   1.577   1.340  0.5357  0.1213 -2.1193
  409MOL0     H55190   5.016   1.729   1.254  1.4835 -3.4628 -1.4050
  409MOL0     H55191   5.002   1.672   1.548  0.3394 -1.9007 -2.0875
  409MOL0     H55192   4.925   1.824   1.490 -0.4678 -0.7518 -1.5849
  409MOL0     H55193   5.174   1.831   1.572  0.1387 -3.3212  1.3730
  409MOL0     H55194   5.217   1.741   1.435  0.7185  0.4177  1.4140
  409MOL0     H55195   4.507   1.698   1.655 -0.7131 -0.0235  0.3150
  409MOL0     H55196   4.346   1.786   1.818 -0.9841  0.9125  1.9826
  409MOL0     H55197   4.207   1.822   2.244  0.2935 -0.0732  0.3781
  409MOL0     H55198   4.108   1.927   2.444 -0.1167  2.7719  1.8577
  409MOL0     H55199   2.700   2.876   3.329  0.3821 -0.0944 -2.1274
  409MOL0     H55200   2.579   3.042   3.448 -0.4385 -1.6064  4.0105
  409MOL0     H55201   2.055   3.130   3.472  1.3412 -0.8399  1.4434
  409MOL0     H55202   1.879   3.279   3.472  0.9607 -3.1563  1.3318
  409MOL0     H55203   1.711   3.452   3.596 -0.8729 -5.0663 -2.5802
  409MOL0     H55204   1.754   3.438   3.425  3.9768 -1.0101 -0.1371
  409MOL0     H55205   1.577   3.595   3.470  0.7589 -3.4054 -2.1084
  409MOL0     H55206   1.720   3.672   3.395  0.4055  1.1924  0.9256
  409MOL0     H55207   1.644   3.830   3.546 -0.4998  1.1354  1.9293
  409MOL0     H55208   1.797   3.768   3.607  1.6274 -2.0766 -1.9020
  409MOL0     H55209   1.697   3.637   3.782 -2.5224 -1.8277  1.9303
  409MOL0     H55210   1.648   3.803   3.788 -0.5141 -1.1375  0.8671
  409MOL0     H55211   1.272   3.610   3.717 -0.2436  0.1965 -1.3610
  409MOL0     H55212   2.123   3.606   3.573 -3.3470 -0.1468 -0.9906
  409MOL0     H55213   2.418   3.444   3.634 -0.2214  0.2008 -0.1200
  409MOL0     H55214   2.429   3.432   3.459 -3.7349 -4.4404 -0.9156
  409MOL0     H55215   2.359   3.582   3.529  0.8230 -0.0171 -0.9503
  410MOL0     O55216   9.106   5.375   5.303  0.6977  0.8615 -0.0612
  410MOL0     C55217   9.013   5.446   5.265 -0.6632  0.2462  0.5600
  410MOL0     O55218   8.880   5.410   5.272 -0.0909  0.2221 -0.4354
  410MOL0     C55219   8.845   5.276   5.275 -0.1543 -0.0238  0.1558
  410MOL0     C55220   8.813   5.208   5.162  0.6644 -1.3333 -0.2767
  410MOL0     C55221   8.754   5.081   5.165  0.2402  0.3653 -0.2634
  410MOL0     C55222   8.733   5.009   5.286  0.2693  0.9378 -1.2787
  410MOL0     O55223   8.670   4.884   5.300 -1.1649  0.4103 -0.5753
  410MOL0     C55224   8.647   4.827   5.426  0.2635 -0.5754 -0.5867
  410MOL0     C55225   8.767   4.752   5.494 -0.5829  0.8585  0.5054
  410MOL0     C55226   8.831   4.640   5.409 -0.5847 -1.1712 -0.8110
  410MOL0     C55227   8.723   4.537   5.368  0.4447  0.4543  0.1719
  410MOL0     C55228   8.647   4.483   5.491 -1.0319  0.4657  0.1432
  410MOL0     C55229   8.571   4.357   5.462  0.0639 -0.1488 -0.1856
  410MOL0     C55230   8.471   4.304   5.568  0.8896 -0.0594  0.5266
  410MOL0     C55231   8.529   4.204   5.671 -1.0809  0.0824 -0.1273
  410MOL0     N55232   8.648   4.263   5.730  0.1015  0.3435 -0.4424
  410MOL0     C55233   8.783   4.230   5.716  0.3694  0.4146  0.6018
  410MOL0     C55234   8.845   4.338   5.778  0.2859  0.1736 -0.4198
  410MOL0     C55235   8.993   4.345   5.807  0.3119  0.4560  0.1126
  410MOL0     C55236   9.059   4.468   5.738 -1.4163 -0.7013  0.8588
  410MOL0     C55237   9.016   4.611   5.793 -0.5935  0.9046 -0.0247
  410MOL0     C55238   9.028   4.614   5.943  0.0370 -0.3114  1.0047
  410MOL0     O55239   9.017   4.754   5.970  0.4741 -0.3736 -0.1699
  410MOL0     C55240   9.115   4.830   6.029 -0.6317 -0.4849 -0.0583
  410MOL0     C55241   9.253   4.804   6.025 -0.7733  0.2798  0.2594
  410MOL0     C55242   9.347   4.894   6.082 -0.2263  0.6407 -0.3642
  410MOL0     C55243   9.303   5.014   6.149 -0.0346 -0.3810  0.3503
  410MOL0     C55244   9.399   5.119   6.201  0.1011  0.2875  0.4714
  410MOL0     O55245   9.534   5.074   6.195  0.0880  0.0823 -0.1849
  410MOL0     C55246   9.636   5.162   6.221 -0.8111  0.6791  0.9341
  410MOL0     C55247   9.646   5.229   6.345 -0.3682  0.5119  0.5112
  410MOL0     C55248   9.773   5.290   6.375 -0.1021  0.3920 -0.3302
  410MOL0     C55249   9.880   5.281   6.294 -0.6459  0.1031 -0.1580
  410MOL0     O55250   9.997   5.336   6.339 -0.2485 -0.0428  0.0967
  410MOL0     C55251  10.082   5.413   6.247 -0.2975  0.3274 -0.9754
  410MOL0     C55252  10.209   5.433   6.329 -0.4694  0.4751  0.4129
  410MOL0     C55253  10.279   5.570   6.303  0.3214  0.7640 -0.0877
  410MOL0     C55254  10.380   5.599   6.419 -0.1656  0.0356  0.0625
  410MOL0     C55255  10.460   5.728   6.377 -0.3715 -0.4210  0.0161
  410MOL0     C55256  10.560   5.761   6.479  0.6987  0.8524  0.0585
  410MOL0     C55257  10.623   5.896   6.447  0.0502  0.9796 -0.0397
  410MOL0     C55258  10.710   5.909   6.320  0.0528 -0.1009  0.0974
  410MOL0    Cl55259  10.832   6.032   6.330  0.3149  0.0972  0.0896
  410MOL0     C55260   9.877   5.211   6.172 -0.0110  0.4852  0.1837
  410MOL0     C55261   9.755   5.146   6.142  0.2627  0.4365  0.0312
  410MOL0     O55262   9.360   5.230   6.229 -1.2324  0.2689  0.3346
  410MOL0     C55263   9.166   5.040   6.160 -0.3277  0.8445  0.6286
  410MOL0     C55264   9.080   4.950   6.093  0.1626  0.8742  0.3121
  410MOL0     N55265   8.749   4.417   5.835 -0.1255  0.5559 -1.0258
  410MOL0     N55266   8.631   4.364   5.819  0.4865 -0.3812 -0.1759
  410MOL0     C55267   8.779   5.087   5.401  0.5851  0.4318  0.2361
  410MOL0     C55268   8.826   5.216   5.398 -0.1949 -0.5687  0.2560
  410MOL0     C55269   9.055   5.587   5.244 -0.1443  0.2307  0.0901
  410MOL0     C55270   8.987   5.685   5.325 -0.5691  0.5792 -0.1927
  410MOL0     C55271   8.995   5.825   5.303  0.2104  1.1391 -0.3314
  410MOL0     C55272   9.062   5.876   5.190 -0.0608  0.9823  0.0916
  410MOL0     O55273   9.072   6.013   5.180  0.1279 -0.2809  0.6004
  410MOL0     C55274   9.196   6.062   5.121 -0.6439  0.0733 -0.6724
  410MOL0     C55275   9.232   6.200   5.176 -0.4456 -0.2764  0.5282
  410MOL0     C55276   9.237   6.210   5.326  0.6779  0.7633  0.1399
  410MOL0     C55277   9.269   6.348   5.377  0.3406 -0.5212 -0.3719
  410MOL0     C55278   9.150   6.435   5.355 -0.0901  0.8959 -0.0500
  410MOL0     C55279   9.071   6.510   5.306  0.5257  0.1968  0.2638
  410MOL0     C55280   9.130   5.780   5.110  1.0980  0.1825  0.5296
  410MOL0     C55281   9.134   5.634   5.137 -0.4820  0.1103 -0.0982
  410MOL0     C55282   9.198   5.533   5.044 -0.1892 -0.1599  1.1380
  410MOL0     H55283   8.824   5.266   5.071  0.2641  0.1133  0.5689
  410MOL0     H55284   8.729   5.035   5.070 -0.9878  2.6819 -1.1446
  410MOL0     H55285   8.611   4.896   5.503  2.2481  0.0481 -0.1458
  410MOL0     H55286   8.563   4.759   5.408  0.2850 -0.2585 -1.9556
  410MOL0     H55287   8.717   4.714   5.583 -2.1916  0.3202 -0.5717
  410MOL0     H55288   8.840   4.829   5.519  1.7516 -0.0501 -2.7727
  410MOL0     H55289   8.910   4.591   5.467  0.2836 -0.2157 -1.1534
  410MOL0     H55290   8.880   4.664   5.314  2.3928 -1.0163  0.6442
  410MOL0     H55291   8.646   4.575   5.301 -0.5871 -1.6584  0.0610
  410MOL0     H55292   8.777   4.455   5.319 -2.3117 -2.5014  1.7082
  410MOL0     H55293   8.724   4.451   5.560 -1.7770 -1.1689  0.2550
  410MOL0     H55294   8.586   4.566   5.528  1.5443  3.2226 -1.3386
  410MOL0     H55295   8.504   4.380   5.378 -0.0821 -1.1757 -0.3676
  410MOL0     H55296   8.651   4.285   5.439  0.8878  0.2327  1.3297
  410MOL0     H55297   8.387   4.251   5.523  0.4539  1.7291 -0.9202
  410MOL0     H55298   8.427   4.386   5.625  1.6890 -0.3707  1.6193
  410MOL0     H55299   8.457   4.191   5.752 -1.3062  3.7910  0.4403
  410MOL0     H55300   8.555   4.109   5.623  1.1748  0.0775  0.9648
  410MOL0     H55301   8.815   4.133   5.681 -1.5475 -0.5179  1.2808
  410MOL0     H55302   9.010   4.363   5.914  1.3931 -1.4210  0.2894
  410MOL0     H55303   9.052   4.258   5.780  0.6331  1.3894 -2.5184
  410MOL0     H55304   9.167   4.449   5.737 -1.0972  0.9444  2.1930
  410MOL0     H55305   9.029   4.461   5.632 -0.4471 -2.2586  0.6561
  410MOL0     H55306   8.916   4.633   5.754 -0.1947  0.4798 -1.3475
  410MOL0     H55307   9.080   4.691   5.754  1.3310 -0.1771  0.7758
  410MOL0     H55308   9.117   4.567   5.983  0.0657  0.5472  1.9804
  410MOL0     H55309   8.939   4.569   5.989  0.3599 -1.6962  0.3117
  410MOL0     H55310   9.290   4.717   5.972  0.9653  1.0388  0.1179
  410MOL0     H55311   9.454   4.876   6.088 -0.0358  1.1890 -1.6514
  410MOL0     H55312   9.563   5.234   6.413 -0.8476  1.1208 -0.1026
  410MOL0     H55313   9.796   5.347   6.464  0.8178 -1.2104  0.5139
  410MOL0     H55314  10.099   5.373   6.147 -0.3285 -0.5909 -0.6279
  410MOL0     H55315  10.011   5.495   6.244 -4.3659 -2.8429 -0.3501
  410MOL0     H55316  10.198   5.414   6.437  2.5869 -0.6274  0.6411
  410MOL0     H55317  10.278   5.355   6.293  0.0317  1.1580 -0.1319
  410MOL0     H55318  10.321   5.574   6.202 -1.9219 -0.0249 -1.1122
  410MOL0     H55319  10.207   5.652   6.295  0.6560  1.2648  1.4959
  410MOL0     H55320  10.453   5.518   6.426  0.2489  0.4028  0.0291
  410MOL0     H55321  10.332   5.601   6.517  1.2763 -3.8843  1.0260
  410MOL0     H55322  10.393   5.814   6.373  0.6663  0.5236  1.7582
  410MOL0     H55323  10.507   5.712   6.279  1.9343  0.0247  0.9776
  410MOL0     H55324  10.510   5.757   6.576 -3.4305 -3.7289 -1.8160
  410MOL0     H55325  10.640   5.686   6.482 -1.8829 -2.0723  0.2331
  410MOL0     H55326  10.692   5.913   6.530 -0.3599  1.1985  0.2580
  410MOL0     H55327  10.539   5.965   6.455  0.1244  0.9756  0.9013
  410MOL0     H55328  10.760   5.814   6.299  1.1756  0.9643 -2.5615
  410MOL0     H55329  10.649   5.939   6.234  1.9273 -0.5318 -1.4615
  410MOL0     H55330   9.963   5.200   6.106 -0.1191 -2.2032  0.3572
  410MOL0     H55331   9.754   5.066   6.069  4.2777 -1.9561  2.2813
  410MOL0     H55332   9.116   5.127   6.202  0.3134  2.4141 -1.6858
  410MOL0     H55333   8.972   4.962   6.093 -0.7413 -4.4156 -1.3235
  410MOL0     H55334   8.788   5.036   5.497  2.9522  0.5700  0.1370
  410MOL0     H55335   8.850   5.265   5.492 -2.3534 -0.1660  0.6414
  410MOL0     H55336   8.921   5.647   5.402  0.9602 -1.8131  0.0528
  410MOL0     H55337   8.941   5.887   5.374  0.8396  1.4009 -0.0762
  410MOL0     H55338   9.181   6.059   5.013  2.4835 -4.1790 -1.2240
  410MOL0     H55339   9.285   6.002   5.140  0.4310  1.3859 -1.3854
  410MOL0     H55340   9.168   6.282   5.143  0.0955  0.9217  2.2917
  410MOL0     H55341   9.331   6.213   5.131 -1.3287  0.6482 -1.2379
  410MOL0     H55342   9.308   6.132   5.356 -1.8434 -0.8849  2.3769
  410MOL0     H55343   9.138   6.186   5.368  0.2783 -0.2681 -1.3188
  410MOL0     H55344   9.306   6.345   5.480 -1.6423 -2.4643  0.3852
  410MOL0     H55345   9.345   6.393   5.314  1.7738  0.2616  1.8022
  410MOL0     H55346   8.977   6.556   5.283  1.0187  2.3169  2.1033
  410MOL0     H55347   9.185   5.807   5.020  1.1780 -3.3950 -0.6735
  410MOL0     H55348   9.264   5.572   4.966 -3.6254 -1.0359 -2.5950
  410MOL0     H55349   9.241   5.450   5.100 -0.6771 -3.0220 -2.3654
  410MOL0     H55350   9.116   5.494   4.982 -0.1690 -1.9959  2.2237
  411MOL0     O55351   2.969   4.509   5.377 -0.3423 -0.4398 -0.7680
  411MOL0     C55352   2.855   4.493   5.404  0.6446 -0.0763 -0.0964
  411MOL0     O55353   2.806   4.438   5.514 -1.7566  0.5743  0.3260
  411MOL0     C55354   2.900   4.373   5.595 -0.3555  0.2264 -0.6497
  411MOL0     C55355   2.902   4.396   5.734  0.8834 -0.8923  0.4383
  411MOL0     C55356   2.986   4.328   5.827 -0.3300  0.4453 -0.2399
  411MOL0     C55357   3.067   4.228   5.776 -0.5228  0.4956 -0.0016
  411MOL0     O55358   3.150   4.172   5.866 -0.4362 -0.4259  0.4634
  411MOL0     C55359   3.139   4.031   5.880  0.4880 -0.3926  0.1522
  411MOL0     C55360   3.195   3.993   6.013  0.3990 -0.8318 -0.1141
  411MOL0     C55361   3.179   3.848   6.051 -0.7675 -0.5369  0.0187
  411MOL0     C55362   3.209   3.740   5.937  0.1346 -0.2166  0.1770
  411MOL0     C55363   3.348   3.758   5.883  0.1432 -0.3039 -0.0817
  411MOL0     C55364   3.454   3.732   5.986  0.4667  0.0652  0.4373
  411MOL0     C55365   3.596   3.754   5.934 -0.2723 -0.0325 -0.2208
  411MOL0     C55366   3.718   3.726   6.029 -0.1230  0.4946 -0.0046
  411MOL0     N55367   3.845   3.763   5.969  0.1185  0.3123  0.7818
  411MOL0     C55368   3.880   3.887   5.937  0.2235 -0.2395  0.1523
  411MOL0     C55369   3.993   3.877   5.859 -0.4040 -0.6170  0.6841
  411MOL0     C55370   4.052   4.001   5.792  0.5606  0.5118  0.1804
  411MOL0     C55371   4.178   4.054   5.843  0.1656 -0.2432  0.3097
  411MOL0     C55372   4.292   3.966   5.793  0.5353 -0.3873  0.4300
  411MOL0     C55373   4.433   4.019   5.835 -1.3518  0.3822 -0.3745
  411MOL0     O55374   4.447   4.015   5.982  0.2695  0.1921 -0.3909
  411MOL0     C55375   4.572   4.009   6.038 -0.0525  1.3397  0.8110
  411MOL0     C55376   4.606   3.962   6.164 -0.6294  0.2337 -0.6075
  411MOL0     C55377   4.740   3.980   6.220  0.2021  0.2208  0.0848
  411MOL0     C55378   4.843   4.025   6.127  0.0481 -0.2887 -0.4897
  411MOL0     C55379   4.988   4.016   6.153 -0.2194  0.1503 -0.1475
  411MOL0     O55380   5.081   4.055   6.055  0.2750  0.4983  0.4492
  411MOL0     C55381   5.211   4.075   6.090 -0.2761  0.4130  0.8558
  411MOL0     C55382   5.256   4.137   6.199  0.3900  0.4356 -0.5986
  411MOL0     C55383   5.394   4.170   6.219 -0.0869  0.2207 -0.9041
  411MOL0     C55384   5.483   4.127   6.127 -1.0584  0.5223 -0.0218
  411MOL0     O55385   5.617   4.155   6.142 -0.2491  0.4397 -0.0611
  411MOL0     C55386   5.682   4.098   6.256 -0.0587  0.3614  0.9700
  411MOL0     C55387   5.792   4.202   6.287 -0.3713 -0.3653  0.0603
  411MOL0     C55388   5.740   4.342   6.329 -0.0050  0.0314 -0.2769
  411MOL0     C55389   5.859   4.428   6.378  0.7287 -0.5292  0.1580
  411MOL0     C55390   5.801   4.567   6.422  0.0857  0.9710  0.1472
  411MOL0     C55391   5.880   4.627   6.543  0.1429  0.2647  0.1679
  411MOL0     C55392   6.032   4.643   6.510  0.0774  0.3544 -0.1813
  411MOL0     C55393   6.071   4.707   6.368  0.5109  0.2495 -0.1004
  411MOL0    Cl55394   6.062   4.876   6.391 -0.1326 -0.0981  0.1256
  411MOL0     C55395   5.437   4.072   6.009  0.5576 -0.5111  0.4055
  411MOL0     C55396   5.305   4.043   5.987 -0.4244  0.1940  0.1693
  411MOL0     O55397   5.019   3.971   6.263 -0.0299 -0.0730  0.9037
  411MOL0     C55398   4.813   4.058   6.001  0.3213  0.0946  0.1151
  411MOL0     C55399   4.683   4.063   5.964 -0.1053  0.1243 -0.2195
  411MOL0     N55400   4.037   3.743   5.866 -0.1852  0.5268 -0.1629
  411MOL0     N55401   3.949   3.679   5.944 -0.0030 -0.5819  0.1537
  411MOL0     C55402   3.072   4.201   5.633 -0.0490 -0.5580 -0.8757
  411MOL0     C55403   2.994   4.276   5.537  0.8977 -0.2119  0.7214
  411MOL0     C55404   2.752   4.525   5.296  1.0534  0.7117 -0.5622
  411MOL0     C55405   2.617   4.501   5.323  0.1791 -0.3641  0.2640
  411MOL0     C55406   2.519   4.508   5.218 -0.3648 -0.2862 -0.9343
  411MOL0     C55407   2.550   4.539   5.089 -0.6851 -1.2221 -0.2955
  411MOL0     O55408   2.443   4.548   5.002  0.2794 -0.5129  0.7894
  411MOL0     C55409   2.467   4.607   4.870 -0.1209 -0.0570  0.7536
  411MOL0     C55410   2.507   4.749   4.888 -0.2107 -0.3556 -0.1102
  411MOL0     C55411   2.460   4.847   4.787 -0.4699 -0.1511 -0.3454
  411MOL0     C55412   2.489   4.995   4.827  0.6015  0.0708  0.2747
  411MOL0     C55413   2.627   5.038   4.833  0.4351  1.2183 -0.0611
  411MOL0     C55414   2.740   5.082   4.836  0.0252 -0.5959  0.2187
  411MOL0     C55415   2.690   4.552   5.054  1.0726  0.2935 -0.4100
  411MOL0     C55416   2.791   4.545   5.154  0.0058  0.7620  0.0650
  411MOL0     C55417   2.934   4.562   5.106 -0.0548  0.1514 -0.2967
  411MOL0     H55418   2.829   4.469   5.767  0.9541  0.7314 -2.6784
  411MOL0     H55419   3.000   4.352   5.932  2.7661 -2.1896  0.0980
  411MOL0     H55420   3.036   3.994   5.886  0.8763 -1.4186  0.6697
  411MOL0     H55421   3.192   3.981   5.800 -1.0381 -1.5733 -0.1736
  411MOL0     H55422   3.145   4.050   6.092 -0.5855  1.1930 -2.0835
  411MOL0     H55423   3.302   4.015   6.020  0.1502  1.2892 -1.7810
  411MOL0     H55424   3.070   3.838   6.053 -0.8759  0.6151  0.4838
  411MOL0     H55425   3.230   3.825   6.144 -1.0653 -0.0163  0.3170
  411MOL0     H55426   3.191   3.652   6.000 -2.2475  1.9688  2.8138
  411MOL0     H55427   3.135   3.731   5.857  0.2473  1.9770 -0.2415
  411MOL0     H55428   3.350   3.682   5.805 -1.1999  2.0672 -2.6234
  411MOL0     H55429   3.362   3.855   5.835  1.9177 -0.0207  0.9080
  411MOL0     H55430   3.428   3.800   6.068 -3.3437 -2.8055  1.9025
  411MOL0     H55431   3.437   3.633   6.029 -2.4855  0.2945  0.0374
  411MOL0     H55432   3.605   3.861   5.913  1.0811 -0.0642  0.0720
  411MOL0     H55433   3.623   3.689   5.850 -0.0775  0.7966 -0.8095
  411MOL0     H55434   3.709   3.800   6.109  0.8476  0.3879  0.2208
  411MOL0     H55435   3.725   3.621   6.059  3.1254  0.5725 -0.1140
  411MOL0     H55436   3.814   3.970   5.962 -1.3117 -0.7665 -1.8627
  411MOL0     H55437   4.058   3.987   5.684  1.3245  1.5184  0.0752
  411MOL0     H55438   3.976   4.078   5.802  0.7406  0.6883  0.1992
  411MOL0     H55439   4.197   4.156   5.806 -1.1619 -0.1099 -0.0358
  411MOL0     H55440   4.180   4.055   5.952  0.8853 -0.4175  0.3008
  411MOL0     H55441   4.295   3.965   5.683 -0.1241 -0.3239  0.4082
  411MOL0     H55442   4.272   3.866   5.832 -1.5430 -0.7481 -1.3545
  411MOL0     H55443   4.442   4.121   5.795  1.1927 -0.3658 -1.9247
  411MOL0     H55444   4.520   3.971   5.791 -1.1975  1.5503 -1.3974
  411MOL0     H55445   4.531   3.933   6.238  0.5893 -2.0808 -0.1851
  411MOL0     H55446   4.768   3.957   6.322  3.3734  0.5428 -0.5949
  411MOL0     H55447   5.178   4.169   6.267 -1.6400 -2.7625 -1.2082
  411MOL0     H55448   5.417   4.232   6.305  0.6298  0.4033 -1.2228
  411MOL0     H55449   5.623   4.089   6.348 -0.1874 -0.2427  0.8327
  411MOL0     H55450   5.711   3.996   6.231 -0.4006 -0.0535  2.2006
  411MOL0     H55451   5.847   4.153   6.368  1.1510 -2.4134 -2.0554
  411MOL0     H55452   5.871   4.208   6.211 -0.5423 -0.4546 -0.1269
  411MOL0     H55453   5.680   4.380   6.246  0.3135 -1.5691 -1.2963
  411MOL0     H55454   5.673   4.330   6.414 -0.7142 -0.0097 -0.8245
  411MOL0     H55455   5.919   4.457   6.291  0.3648 -4.0759 -1.4222
  411MOL0     H55456   5.929   4.383   6.449  3.6497  2.0102 -0.8533
  411MOL0     H55457   5.695   4.548   6.440  0.5265 -0.9806  1.0725
  411MOL0     H55458   5.809   4.646   6.348  4.9357 -0.6583 -1.4507
  411MOL0     H55459   5.838   4.728   6.545  2.2879  1.3297 -2.9698
  411MOL0     H55460   5.864   4.586   6.644 -0.3119 -2.0074 -0.7544
  411MOL0     H55461   6.081   4.546   6.518  1.2984  0.9752  0.1221
  411MOL0     H55462   6.076   4.707   6.587 -2.0641  0.0166  1.4086
  411MOL0     H55463   6.176   4.688   6.342  1.2803  3.5174  0.2273
  411MOL0     H55464   6.015   4.676   6.279  0.3333  0.1288  0.0532
  411MOL0     H55465   5.509   4.044   5.932 -2.2950 -0.7472 -2.3441
  411MOL0     H55466   5.265   4.004   5.894  1.8946 -1.6027 -0.1904
  411MOL0     H55467   4.891   4.080   5.928  2.5694 -3.4425  1.1976
  411MOL0     H55468   4.671   4.105   5.865 -1.4044  2.9803  1.0276
  411MOL0     H55469   3.117   4.111   5.592 -0.3436 -1.7821  1.3111
  411MOL0     H55470   2.995   4.248   5.432 -0.9878  0.7312  0.4262
  411MOL0     H55471   2.590   4.451   5.415 -0.1742  0.8638  0.8453
  411MOL0     H55472   2.418   4.492   5.256 -0.9115  3.5606 -0.3466
  411MOL0     H55473   2.375   4.601   4.811  1.5185 -1.1448 -1.8647
  411MOL0     H55474   2.544   4.556   4.812  0.4990 -1.0970  2.4089
  411MOL0     H55475   2.616   4.750   4.898 -0.2043  0.9030 -0.2039
  411MOL0     H55476   2.458   4.794   4.975  0.6235 -0.6611  0.5374
  411MOL0     H55477   2.352   4.834   4.770 -1.1169 -0.9313  3.3178
  411MOL0     H55478   2.516   4.830   4.696 -0.9083  0.7214 -0.7945
  411MOL0     H55479   2.447   5.063   4.752  2.0144  2.3522  1.4381
  411MOL0     H55480   2.426   5.027   4.911  0.5113 -2.7255  1.3491
  411MOL0     H55481   2.835   5.131   4.837 -1.1592  1.8830  0.6325
  411MOL0     H55482   2.714   4.578   4.952 -2.9996 -1.9449 -2.2050
  411MOL0     H55483   2.990   4.468   5.108  0.9429  0.7353 -0.2186
  411MOL0     H55484   2.936   4.597   5.002 -1.9895  1.7702  0.1557
  411MOL0     H55485   2.975   4.645   5.163  2.0268  0.9488 -2.7890
  412MOL0     O55486   0.961   5.985   2.789  0.5042  0.3251 -0.8881
  412MOL0     C55487   0.865   6.059   2.755 -0.4847  0.1124 -1.1106
  412MOL0     O55488   0.875   6.188   2.705 -0.0697 -0.2514  0.4067
  412MOL0     C55489   0.980   6.261   2.734  0.5968  0.0043 -0.5126
  412MOL0     C55490   1.035   6.270   2.867  0.8198  0.3617  0.0104
  412MOL0     C55491   1.149   6.346   2.887  0.3942  1.1373  0.0605
  412MOL0     C55492   1.216   6.398   2.776 -0.7941 -0.4355 -0.5026
  412MOL0     O55493   1.341   6.457   2.788  0.1869 -0.0541 -0.0089
  412MOL0     C55494   1.359   6.554   2.892 -1.4713 -1.0020  0.6893
  412MOL0     C55495   1.493   6.625   2.894 -0.3491  0.4723 -0.1040
  412MOL0     C55496   1.603   6.527   2.940  0.3509  0.7313 -0.1267
  412MOL0     C55497   1.744   6.571   2.958 -0.0688  0.7122 -0.0647
  412MOL0     C55498   1.846   6.459   2.960  0.3832 -0.0515 -1.1723
  412MOL0     C55499   1.989   6.500   3.004 -0.0484  0.2552 -0.2773
  412MOL0     C55500   2.090   6.388   2.992  1.1754  0.7836 -0.0261
  412MOL0     C55501   2.225   6.430   3.046  0.1576  0.2578 -0.5136
  412MOL0     N55502   2.303   6.305   3.062  0.0214 -0.5765  0.0145
  412MOL0     C55503   2.371   6.245   2.958 -0.4842  0.5076 -0.6355
  412MOL0     C55504   2.418   6.127   3.008 -0.5981 -0.0361 -0.1385
  412MOL0     C55505   2.505   6.024   2.933  0.0525  0.1753 -0.6650
  412MOL0     C55506   2.653   6.066   2.925  0.1617  0.1748  0.0109
  412MOL0     C55507   2.724   6.044   3.058 -0.2144 -0.1753  0.0358
  412MOL0     C55508   2.871   6.019   3.047  0.3059 -1.1334 -0.5444
  412MOL0     O55509   2.938   6.114   2.952  0.3877 -0.4523  0.2930
  412MOL0     C55510   3.073   6.094   2.919  0.5795  0.2305  0.5541
  412MOL0     C55511   3.117   6.194   2.833 -1.0832  0.7604 -0.2178
  412MOL0     C55512   3.254   6.196   2.789 -0.4126 -0.6073 -0.3553
  412MOL0     C55513   3.342   6.102   2.836 -0.6379 -0.7918  0.5771
  412MOL0     C55514   3.488   6.121   2.791  0.5147  0.5716  0.0593
  412MOL0     O55515   3.517   6.209   2.686  0.6578  0.3675 -0.9203
  412MOL0     C55516   3.643   6.234   2.656  0.2368 -0.3036 -0.6521
  412MOL0     C55517   3.700   6.352   2.686 -0.3269  0.6407 -0.1200
  412MOL0     C55518   3.837   6.373   2.686 -0.2038  0.1745 -0.0948
  412MOL0     C55519   3.927   6.286   2.621  0.6933  0.3617 -0.1022
  412MOL0     O55520   4.062   6.316   2.622 -0.4680  0.1708 -0.5939
  412MOL0     C55521   4.152   6.217   2.594  0.2037 -0.3884 -0.5214
  412MOL0     C55522   4.291   6.276   2.614 -0.3021 -0.0773 -0.5910
  412MOL0     C55523   4.400   6.189   2.547 -0.6737  0.0780 -0.0928
  412MOL0     C55524   4.536   6.243   2.591  0.2369 -0.4875  0.6134
  412MOL0     C55525   4.567   6.385   2.537  0.1501 -0.1359 -0.2529
  412MOL0     C55526   4.708   6.428   2.571  0.0424 -0.5563  0.6424
  412MOL0     C55527   4.815   6.348   2.495 -0.0007  0.7631 -0.4555
  412MOL0     C55528   4.949   6.415   2.503 -0.6634 -0.5107 -0.0472
  412MOL0    Cl55529   5.050   6.346   2.373  0.2539  0.0857  0.3682
  412MOL0     C55530   3.869   6.167   2.570 -1.4356  0.4067  0.1042
  412MOL0     C55531   3.733   6.142   2.595 -0.6645  0.2453 -0.1603
  412MOL0     O55532   3.569   6.054   2.855 -0.2946  0.6444 -0.0172
  412MOL0     C55533   3.296   6.003   2.934 -0.4540  0.0930 -0.6656
  412MOL0     C55534   3.158   5.998   2.957 -0.5545  0.2755 -1.1315
  412MOL0     N55535   2.384   6.120   3.144 -0.7156 -0.4972  0.0405
  412MOL0     N55536   2.309   6.223   3.170  0.5964 -0.4960 -0.3721
  412MOL0     C55537   1.173   6.377   2.652 -0.1702  0.1456  1.0944
  412MOL0     C55538   1.052   6.318   2.626  0.1433  0.1397 -0.1526
  412MOL0     C55539   0.732   6.007   2.765  0.7617 -0.1998  0.7059
  412MOL0     C55540   0.635   6.074   2.836  0.7181 -0.9179  0.4706
  412MOL0     C55541   0.501   6.037   2.849 -0.1655 -0.0077  0.5807
  412MOL0     C55542   0.453   5.923   2.783 -0.2454  0.2162  0.1415
  412MOL0     O55543   0.319   5.899   2.798 -0.1332  0.2392 -0.0720
  412MOL0     C55544   0.264   5.761   2.786 -0.3521  0.2048  0.2990
  412MOL0     C55545   0.125   5.750   2.840 -0.9048  0.1417  0.7011
  412MOL0     C55546   0.049   5.622   2.792 -0.6506  0.3944 -0.5091
  412MOL0     C55547  -0.088   5.624   2.853  0.3114 -0.0863 -0.5234
  412MOL0     C55548  -0.174   5.530   2.784 -0.1960 -0.5271  0.0391
  412MOL0     C55549  -0.242   5.443   2.737 -0.0941  0.1702 -0.1890
  412MOL0     C55550   0.555   5.849   2.716  0.4404 -0.6982 -0.2515
  412MOL0     C55551   0.687   5.888   2.707 -0.5255  0.1926 -0.5638
  412MOL0     C55552   0.782   5.794   2.641  0.0299 -0.4130 -0.6066
  412MOL0     H55553   0.980   6.226   2.949 -1.1933  1.3633 -0.7298
  412MOL0     H55554   1.181   6.356   2.990  0.7949 -0.1334  0.0779
  412MOL0     H55555   1.291   6.639   2.882 -1.5358 -1.2944 -2.6924
  412MOL0     H55556   1.337   6.513   2.991 -1.0605  0.0704  1.2430
  412MOL0     H55557   1.489   6.713   2.958  1.3486 -0.1678  0.9749
  412MOL0     H55558   1.523   6.663   2.796  0.7423  1.3807  0.5533
  412MOL0     H55559   1.604   6.448   2.863  0.2356  1.0810 -0.4902
  412MOL0     H55560   1.568   6.494   3.038 -1.2043 -0.4462 -1.0200
  412MOL0     H55561   1.774   6.629   2.870  0.9509 -0.9620 -0.8670
  412MOL0     H55562   1.757   6.633   3.047  1.4726 -0.0319  0.2610
  412MOL0     H55563   1.825   6.387   3.039  5.4661  0.5101  1.0767
  412MOL0     H55564   1.845   6.424   2.856  0.1806  2.4580 -2.0976
  412MOL0     H55565   2.028   6.586   2.948  1.1317  0.3142  0.6066
  412MOL0     H55566   1.985   6.541   3.105  2.3292  0.5424 -0.2341
  412MOL0     H55567   2.108   6.366   2.886  0.2231  0.3145 -0.1075
  412MOL0     H55568   2.057   6.299   3.047 -1.6350  1.8709  0.2269
  412MOL0     H55569   2.276   6.506   2.986 -0.5441  0.4234 -0.9027
  412MOL0     H55570   2.211   6.479   3.143 -2.7003 -1.4957  0.0615
  412MOL0     H55571   2.376   6.277   2.854  1.3964 -1.0536 -1.1060
  412MOL0     H55572   2.505   5.923   2.974  0.8931  1.0444  1.6697
  412MOL0     H55573   2.460   6.018   2.834 -1.7796 -1.0831  0.1907
  412MOL0     H55574   2.715   6.019   2.848  1.9287 -2.1665  2.6720
  412MOL0     H55575   2.656   6.174   2.906  0.5949  0.1818  0.0986
  412MOL0     H55576   2.695   5.952   3.110 -0.5766 -0.5365 -0.7836
  412MOL0     H55577   2.706   6.129   3.124 -2.1376  0.7175 -1.5530
  412MOL0     H55578   2.883   5.913   3.024 -0.7548 -0.6624 -3.8289
  412MOL0     H55579   2.913   6.027   3.147  2.7557 -1.2556 -1.4972
  412MOL0     H55580   3.039   6.264   2.804 -0.3861  0.9214 -1.7699
  412MOL0     H55581   3.285   6.277   2.724  0.2064  0.1463  0.8391
  412MOL0     H55582   3.640   6.428   2.735  1.5354  0.6499  2.2846
  412MOL0     H55583   3.876   6.461   2.735  2.9899  0.4524 -2.7734
  412MOL0     H55584   4.145   6.132   2.664 -2.4613  1.3356  1.5200
  412MOL0     H55585   4.139   6.181   2.492 -0.5855 -1.4968 -0.0587
  412MOL0     H55586   4.292   6.377   2.572  1.0685  1.6410  3.1435
  412MOL0     H55587   4.309   6.275   2.722 -1.3370 -0.0550 -0.4039
  412MOL0     H55588   4.390   6.088   2.586  1.3199  0.8455  2.7360
  412MOL0     H55589   4.403   6.199   2.438  2.7305 -2.0180 -0.3317
  412MOL0     H55590   4.606   6.168   2.553  0.3449  1.0693 -2.6040
  412MOL0     H55591   4.536   6.241   2.700 -3.1482  2.1191  0.8423
  412MOL0     H55592   4.506   6.467   2.575 -1.7768 -0.1492 -2.9856
  412MOL0     H55593   4.558   6.388   2.428 -0.2297 -0.7180 -0.2444
  412MOL0     H55594   4.728   6.534   2.552  0.8911 -0.8758 -0.4121
  412MOL0     H55595   4.734   6.419   2.677  1.5778 -0.1910  0.3337
  412MOL0     H55596   4.778   6.341   2.392 -0.7450 -1.9954 -0.0953
  412MOL0     H55597   4.823   6.246   2.535  0.9645 -0.1347 -2.7386
  412MOL0     H55598   4.940   6.522   2.481  0.4140 -0.0798  1.4876
  412MOL0     H55599   4.992   6.405   2.603 -2.4991  1.8199  1.0864
  412MOL0     H55600   3.940   6.104   2.516  0.9008  1.6393  1.5693
  412MOL0     H55601   3.691   6.043   2.586 -0.4731  0.0640  0.7857
  412MOL0     H55602   3.368   5.936   2.979  0.7042  2.6957  1.6293
  412MOL0     H55603   3.115   5.919   3.018 -2.6058  1.5322 -0.8711
  412MOL0     H55604   1.229   6.415   2.567 -2.3948  1.2534  0.0209
  412MOL0     H55605   1.024   6.316   2.521  0.1274  2.0687 -0.2235
  412MOL0     H55606   0.651   6.166   2.890 -3.1032 -0.7609  1.6584
  412MOL0     H55607   0.434   6.099   2.908 -1.5116 -1.8530  1.1199
  412MOL0     H55608   0.312   5.687   2.851 -2.6167  0.4024  2.3553
  412MOL0     H55609   0.276   5.716   2.687  2.8146 -2.0020  1.5102
  412MOL0     H55610   0.072   5.839   2.805  0.3613  0.1789 -1.3228
  412MOL0     H55611   0.134   5.759   2.949  1.2836 -0.3285  0.6141
  412MOL0     H55612   0.108   5.534   2.820 -0.5951  0.3370 -0.8017
  412MOL0     H55613   0.046   5.611   2.683 -0.1113 -1.6799 -0.3640
  412MOL0     H55614  -0.068   5.603   2.959  1.6307  2.3080 -0.2330
  412MOL0     H55615  -0.131   5.724   2.843 -4.1123 -1.7211 -0.0523
  412MOL0     H55616  -0.286   5.362   2.683 -0.5508 -0.3167  0.8984
  412MOL0     H55617   0.526   5.756   2.667  5.0896 -2.4455 -0.1769
  412MOL0     H55618   0.846   5.744   2.714  0.0044  0.3725 -0.0342
  412MOL0     H55619   0.715   5.717   2.602 -0.9800 -0.9132  1.9286
  412MOL0     H55620   0.835   5.851   2.564 -1.2583 -0.1901 -1.3697
  413MOL0     O55621   3.033   1.021  10.023 -0.6801  0.5105  0.2331
  413MOL0     C55622   2.969   0.921   9.983 -0.3031 -0.9734 -0.7853
  413MOL0     O55623   3.016   0.795   9.981 -0.1661 -0.3145 -0.2301
  413MOL0     C55624   3.147   0.778  10.030  0.3176 -0.2631 -0.1288
  413MOL0     C55625   3.177   0.768  10.165 -0.0851 -0.6237 -0.0055
  413MOL0     C55626   3.318   0.740  10.207  0.9897  0.9055 -0.7682
  413MOL0     C55627   3.424   0.738  10.119 -0.5629  0.4558  0.4901
  413MOL0     O55628   3.556   0.737  10.151 -0.1774 -0.1442  0.1132
  413MOL0     C55629   3.589   0.668  10.268 -0.2126  0.1643  0.3842
  413MOL0     C55630   3.743   0.645  10.293  0.2897 -0.1633  0.1330
  413MOL0     C55631   3.785   0.541  10.184 -0.4530  0.2939  0.1667
  413MOL0     C55632   3.910   0.468  10.231 -0.3695  0.7928  0.1682
  413MOL0     C55633   3.945   0.358  10.124  0.2850  0.3128  0.2487
  413MOL0     C55634   4.052   0.249  10.177  0.4203 -1.3879 -0.7758
  413MOL0     C55635   4.109   0.164  10.074  0.0553 -0.1119  0.2052
  413MOL0     C55636   4.024   0.035  10.055 -0.6292 -0.4451 -0.3449
  413MOL0     N55637   3.981  -0.033  10.182 -0.2534  0.3682 -1.0016
  413MOL0     C55638   4.050  -0.131  10.246  0.0879 -0.4205 -0.6632
  413MOL0     C55639   3.962  -0.194  10.334  0.1967  0.0515  0.6509
  413MOL0     C55640   3.988  -0.308  10.425  0.1511  0.0230 -0.1252
  413MOL0     C55641   4.003  -0.273  10.575 -0.2828 -0.3430  0.1676
  413MOL0     C55642   4.118  -0.177  10.603 -0.3535 -0.4599 -0.9558
  413MOL0     C55643   4.154  -0.161  10.757  1.1634  0.4039  0.4549
  413MOL0     O55644   4.242  -0.050  10.771  0.1497 -0.3958  0.3530
  413MOL0     C55645   4.377  -0.064  10.735 -0.2965  0.5912 -0.5419
  413MOL0     C55646   4.460   0.041  10.765 -0.5278  0.5681 -0.3348
  413MOL0     C55647   4.593   0.036  10.733  0.1127  0.3267 -0.0212
  413MOL0     C55648   4.652  -0.070  10.671  1.1630 -0.0156 -0.3777
  413MOL0     C55649   4.792  -0.064  10.624 -0.2573 -0.4653  0.0984
  413MOL0     O55650   4.860   0.054  10.632 -0.0531  0.0290  0.2049
  413MOL0     C55651   4.991   0.066  10.584 -0.3041  0.5858  0.3143
  413MOL0     C55652   5.091  -0.019  10.632 -0.0991  0.4994 -1.0066
  413MOL0     C55653   5.219  -0.020  10.577 -0.5892  0.3362  1.0125
  413MOL0     C55654   5.246   0.074  10.472 -0.1133  0.2178  0.5521
  413MOL0     O55655   5.372   0.080  10.412 -0.3209  0.1623 -0.0805
  413MOL0     C55656   5.394   0.185  10.325  0.0674 -0.4875  0.1973
  413MOL0     C55657   5.537   0.166  10.270  0.4373  0.1942  0.6401
  413MOL0     C55658   5.585   0.271  10.167  0.1234 -0.5476 -0.1878
  413MOL0     C55659   5.479   0.294  10.053 -0.5054 -0.6114  0.3133
  413MOL0     C55660   5.531   0.366   9.925  0.2883  0.4718  0.5401
  413MOL0     C55661   5.587   0.512   9.934  0.1268 -0.4595  0.3514
  413MOL0     C55662   5.491   0.620   9.996 -0.0624 -0.2038 -0.0002
  413MOL0     C55663   5.558   0.752   9.986 -0.0025 -0.7976 -0.4168
  413MOL0    Cl55664   5.501   0.856  10.121 -0.0811  0.0234  0.5640
  413MOL0     C55665   5.140   0.154  10.430  0.6075  0.6254  0.7946
  413MOL0     C55666   5.015   0.147  10.481  0.8132  0.1880 -0.4416
  413MOL0     O55667   4.830  -0.161  10.567 -0.5904 -0.1024  0.3256
  413MOL0     C55668   4.571  -0.181  10.640  0.9926  0.2514 -0.9148
  413MOL0     C55669   4.435  -0.174  10.667  0.1442 -0.1300  0.1488
  413MOL0     N55670   3.843  -0.138  10.319  0.7651  0.1112  0.1110
  413MOL0     N55671   3.852  -0.044  10.230  0.9465  0.7985 -0.3120
  413MOL0     C55672   3.390   0.768   9.986  0.0839 -0.7652 -0.4436
  413MOL0     C55673   3.257   0.782   9.940 -0.1679  0.8294 -0.0023
  413MOL0     C55674   2.826   0.949   9.951 -0.1060  0.3978 -0.4669
  413MOL0     C55675   2.787   1.061   9.865 -0.2153 -0.4233  0.0062
  413MOL0     C55676   2.657   1.082   9.821  0.6963  0.6376 -0.2752
  413MOL0     C55677   2.554   0.993   9.864 -0.0252  1.3808 -0.0439
  413MOL0     O55678   2.427   0.975   9.807 -0.3082  0.8684  0.5095
  413MOL0     C55679   2.404   1.037   9.673  0.1000  0.2645 -0.6917
  413MOL0     C55680   2.257   0.986   9.630  0.5830 -1.1351  0.1541
  413MOL0     C55681   2.215   1.001   9.479 -0.0004 -0.0913 -0.2623
  413MOL0     C55682   2.168   1.142   9.459  0.6288 -0.9333  0.0847
  413MOL0     C55683   2.118   1.162   9.321  0.5871 -0.9854 -0.3847
  413MOL0     C55684   2.083   1.179   9.208  0.1662  0.4638 -0.0620
  413MOL0     C55685   2.585   0.894   9.957  0.3061 -0.7828 -0.2710
  413MOL0     C55686   2.716   0.872  10.003 -0.0506  0.5042  0.1301
  413MOL0     C55687   2.750   0.753  10.094  0.1522 -0.4652 -0.1182
  413MOL0     H55688   3.090   0.779  10.228 -0.0304  2.7574 -0.3047
  413MOL0     H55689   3.343   0.729  10.312 -3.9254 -2.3569  0.3544
  413MOL0     H55690   3.551   0.705  10.365  0.7427  1.4680  0.2883
  413MOL0     H55691   3.544   0.569  10.258  2.2787 -1.2933  2.5630
  413MOL0     H55692   3.755   0.593  10.387  1.3767 -2.7498 -1.3454
  413MOL0     H55693   3.796   0.740  10.284 -3.9079  2.3022 -2.3967
  413MOL0     H55694   3.819   0.592  10.093 -2.9624 -0.0171 -1.0060
  413MOL0     H55695   3.704   0.474  10.157  0.9070 -0.9272 -1.0639
  413MOL0     H55696   3.998   0.532  10.245  0.4953 -0.5213  0.9820
  413MOL0     H55697   3.870   0.421  10.321  0.9244 -0.9394 -0.1026
  413MOL0     H55698   3.857   0.297  10.106  1.9065 -1.7744 -1.1322
  413MOL0     H55699   3.980   0.413  10.036  1.5405  1.9065  1.6640
  413MOL0     H55700   4.127   0.310  10.228 -0.8899  2.1229 -2.7093
  413MOL0     H55701   4.005   0.196  10.260  0.4284 -1.5040 -0.8446
  413MOL0     H55702   4.202   0.117  10.107  2.2063  1.4546 -3.0821
  413MOL0     H55703   4.132   0.216   9.980 -1.7361  3.3220  1.4823
  413MOL0     H55704   3.932   0.067  10.005 -0.3181  1.4173  0.2077
  413MOL0     H55705   4.065  -0.035   9.982  1.6166  0.9148 -0.4786
  413MOL0     H55706   4.158  -0.145  10.249 -0.0344 -1.5367 -1.2283
  413MOL0     H55707   3.917  -0.391  10.421 -0.6385  0.4819  2.3765
  413MOL0     H55708   4.085  -0.350  10.399  1.0367  1.3455  0.8893
  413MOL0     H55709   3.918  -0.221  10.621 -1.2734 -1.0968 -0.7460
  413MOL0     H55710   4.017  -0.362  10.637  0.4085  0.9042  1.8841
  413MOL0     H55711   4.079  -0.076  10.586 -1.6633 -0.0488  3.3166
  413MOL0     H55712   4.201  -0.195  10.534 -0.2753  0.9217 -1.2469
  413MOL0     H55713   4.198  -0.255  10.793 -0.9340 -1.2939 -1.1357
  413MOL0     H55714   4.054  -0.145  10.800  0.7345 -2.9502  1.0494
  413MOL0     H55715   4.419   0.139  10.788 -0.6999  0.5127 -0.4073
  413MOL0     H55716   4.654   0.122  10.757  0.8148 -0.1016 -0.2288
  413MOL0     H55717   5.064  -0.101  10.697 -2.9650  1.6711 -0.5656
  413MOL0     H55718   5.297  -0.087  10.611  1.1782  0.6040 -2.1026
  413MOL0     H55719   5.314   0.179  10.251 -2.1734 -2.3403  2.5955
  413MOL0     H55720   5.388   0.281  10.378 -0.0806 -0.8356  0.8135
  413MOL0     H55721   5.602   0.163  10.358  0.9856  2.7084  0.3811
  413MOL0     H55722   5.555   0.072  10.217 -0.7006  1.1169 -1.5074
  413MOL0     H55723   5.597   0.368  10.218  0.8722 -0.5283 -0.3804
  413MOL0     H55724   5.686   0.249  10.130  0.5528  2.8806 -1.4108
  413MOL0     H55725   5.405   0.364  10.091 -0.2859 -0.4356  0.4195
  413MOL0     H55726   5.431   0.199  10.028 -1.8643 -0.4737  2.2029
  413MOL0     H55727   5.446   0.369   9.857  0.7044  2.5034  0.0226
  413MOL0     H55728   5.610   0.306   9.879 -1.1400 -1.0919  0.0120
  413MOL0     H55729   5.674   0.511  10.001  0.5557 -0.1369 -0.1922
  413MOL0     H55730   5.626   0.546   9.838  0.2591 -1.0033  0.2041
  413MOL0     H55731   5.482   0.598  10.103  2.6786  5.3531  1.7768
  413MOL0     H55732   5.394   0.624   9.947  0.7190  1.0655 -1.5170
  413MOL0     H55733   5.667   0.750   9.982  0.2533  3.6590 -0.8892
  413MOL0     H55734   5.534   0.813   9.899  0.7116 -2.5570 -1.9109
  413MOL0     H55735   5.152   0.217  10.342 -2.5636 -1.2599 -1.1666
  413MOL0     H55736   4.932   0.205  10.440  1.2566  1.1138 -0.0583
  413MOL0     H55737   4.608  -0.270  10.589  0.0485 -0.1840 -0.8659
  413MOL0     H55738   4.370  -0.258  10.642 -2.0459  0.6990  2.6041
  413MOL0     H55739   3.458   0.780   9.902 -1.1268 -2.0535 -1.6673
  413MOL0     H55740   3.235   0.807   9.837 -0.9401  0.3254  0.0295
  413MOL0     H55741   2.857   1.142   9.844 -0.3124 -0.2404  0.3922
  413MOL0     H55742   2.624   1.155   9.748  0.1392  1.0552  0.3810
  413MOL0     H55743   2.478   1.015   9.595 -0.4945 -2.7799 -0.5195
  413MOL0     H55744   2.402   1.145   9.688  2.9852  0.0926  1.9133
  413MOL0     H55745   2.180   1.038   9.687 -0.2754  0.3448 -2.2047
  413MOL0     H55746   2.252   0.879   9.655  0.9875 -1.0178  0.7536
  413MOL0     H55747   2.124   0.940   9.467  1.0901 -1.4915 -1.9985
  413MOL0     H55748   2.291   0.973   9.406  2.9795 -1.2631  3.0303
  413MOL0     H55749   2.092   1.162   9.535 -1.2468  1.1614 -2.1358
  413MOL0     H55750   2.249   1.213   9.471  1.6587 -1.4713 -2.7875
  413MOL0     H55751   2.045   1.201   9.110 -0.0980  1.2302  0.2064
  413MOL0     H55752   2.511   0.818   9.980 -3.9580  2.9579 -0.2444
  413MOL0     H55753   2.655   0.724  10.140 -0.4919  0.3239 -0.9001
  413MOL0     H55754   2.793   0.672  10.034 -1.1951 -1.3459  0.0425
  413MOL0     H55755   2.815   0.787  10.174 -0.0298  1.2178 -0.6396
  414MOL0     O55756   2.523   2.220   5.309 -0.0542  0.1572 -0.2266
  414MOL0     C55757   2.496   2.121   5.240 -0.6791  0.3939  0.0087
  414MOL0     O55758   2.573   2.068   5.147 -0.0823  0.0545  0.0718
  414MOL0     C55759   2.701   2.118   5.128 -0.1473 -0.2346 -0.2391
  414MOL0     C55760   2.736   2.166   5.004 -0.8012 -0.2269 -0.3687
  414MOL0     C55761   2.874   2.190   4.971  0.3001  0.1713  0.5609
  414MOL0     C55762   2.968   2.171   5.067 -0.3575  0.1006 -0.5642
  414MOL0     O55763   3.100   2.200   5.028  0.1481  0.4384 -0.3454
  414MOL0     C55764   3.207   2.133   5.095 -0.3196  0.1560 -1.0160
  414MOL0     C55765   3.331   2.167   5.017 -0.5756  0.3821  0.7450
  414MOL0     C55766   3.462   2.103   5.063 -0.4696 -0.4799 -0.1403
  414MOL0     C55767   3.585   2.159   4.998 -0.0034 -0.9158  0.3521
  414MOL0     C55768   3.723   2.089   5.018  0.6316 -0.7906  0.6674
  414MOL0     C55769   3.761   1.988   4.907 -0.3657 -0.2625 -0.3291
  414MOL0     C55770   3.890   1.921   4.939 -0.2776  0.6999  0.6402
  414MOL0     C55771   3.932   1.831   4.820  0.9330  0.4322 -0.0909
  414MOL0     N55772   4.043   1.741   4.837  0.1916  0.0867  0.3523
  414MOL0     C55773   4.162   1.776   4.893 -0.3930  0.0406 -0.4179
  414MOL0     C55774   4.243   1.675   4.866 -0.3298  0.0020 -0.2050
  414MOL0     C55775   4.391   1.671   4.898  0.0578  0.3723 -0.2334
  414MOL0     C55776   4.466   1.756   4.798 -0.2492 -0.0033 -0.0079
  414MOL0     C55777   4.420   1.750   4.648  0.6183 -0.9676  0.7444
  414MOL0     C55778   4.468   1.616   4.587  1.2570  0.0496 -0.1182
  414MOL0     O55779   4.607   1.592   4.599  0.5819 -0.2806 -0.2853
  414MOL0     C55780   4.653   1.483   4.525  0.0047 -0.1513 -0.7119
  414MOL0     C55781   4.787   1.461   4.541  0.0037  1.1312 -0.1184
  414MOL0     C55782   4.863   1.366   4.468  0.0422 -0.2065 -0.0645
  414MOL0     C55783   4.798   1.286   4.374  0.2927 -0.5374  0.6516
  414MOL0     C55784   4.864   1.180   4.306 -0.2438  0.2215  0.5222
  414MOL0     O55785   5.004   1.210   4.277  0.3961  0.1912  0.3737
  414MOL0     C55786   5.091   1.136   4.192 -0.1299  0.1545  0.2086
  414MOL0     C55787   5.081   1.001   4.152  0.0630 -0.7330  1.1977
  414MOL0     C55788   5.189   0.929   4.090  1.0653 -0.5356  0.0767
  414MOL0     C55789   5.316   0.992   4.070  0.9344 -0.1917  0.2693
  414MOL0     O55790   5.430   0.918   4.046 -0.1689 -0.1298 -0.1824
  414MOL0     C55791   5.422   0.830   3.942 -0.0192  0.0274 -0.2814
  414MOL0     C55792   5.549   0.789   3.879 -1.1896 -0.1256 -0.3480
  414MOL0     C55793   5.529   0.715   3.743  0.4643  0.1291 -0.3236
  414MOL0     C55794   5.662   0.698   3.675 -0.5534 -0.0298  0.4481
  414MOL0     C55795   5.650   0.604   3.558 -0.3032  0.2078 -0.0218
  414MOL0     C55796   5.535   0.631   3.460  0.2086  0.6739  0.8068
  414MOL0     C55797   5.525   0.515   3.353 -0.5221  0.4848 -0.7707
  414MOL0     C55798   5.520   0.371   3.410  0.5781  0.5066 -0.1259
  414MOL0    Cl55799   5.538   0.266   3.267  0.3060  0.0905 -0.1093
  414MOL0     C55800   5.330   1.127   4.106  0.9949  0.4812 -0.1859
  414MOL0     C55801   5.219   1.200   4.170  0.6514  0.6952 -0.0019
  414MOL0     O55802   4.800   1.083   4.271 -0.1745 -0.0805 -0.3070
  414MOL0     C55803   4.655   1.313   4.356  0.6636  1.0965 -0.1344
  414MOL0     C55804   4.588   1.408   4.425 -0.3891  1.1864 -1.0700
  414MOL0     N55805   4.188   1.575   4.797 -0.1610 -0.8210  0.3123
  414MOL0     N55806   4.062   1.617   4.771  0.3710 -0.4203  0.0790
  414MOL0     C55807   2.933   2.128   5.191  0.4769 -0.2309  0.5528
  414MOL0     C55808   2.797   2.103   5.217 -0.1676  0.3031  0.3106
  414MOL0     C55809   2.351   2.078   5.233 -0.2483  0.9154 -0.1200
  414MOL0     C55810   2.312   2.017   5.113  0.0629 -0.0698  0.7399
  414MOL0     C55811   2.183   1.962   5.107 -0.0196 -0.3269  0.0758
  414MOL0     C55812   2.095   1.968   5.213  0.1015  0.1284 -0.3041
  414MOL0     O55813   1.980   1.900   5.194 -0.5083  0.1547 -0.4569
  414MOL0     C55814   1.884   1.902   5.297  0.5992  0.3692  0.5026
  414MOL0     C55815   1.771   1.798   5.265 -0.8779 -0.0652 -0.2510
  414MOL0     C55816   1.724   1.805   5.114  0.3853 -0.4617  0.8472
  414MOL0     C55817   1.625   1.688   5.080  0.3496 -0.2051 -0.5637
  414MOL0     C55818   1.563   1.732   4.960  0.3712  0.3214  0.0773
  414MOL0     C55819   1.499   1.776   4.860 -0.7007 -0.0294  0.1264
  414MOL0     C55820   2.136   2.039   5.333 -0.6400  0.2767 -0.0004
  414MOL0     C55821   2.260   2.095   5.338 -0.5383 -0.0274  0.2685
  414MOL0     C55822   2.297   2.183   5.464  0.3436 -0.5466  0.3013
  414MOL0     H55823   2.649   2.172   4.939 -1.7853  4.2998  1.0401
  414MOL0     H55824   2.906   2.220   4.871  1.4461  2.1257  1.4570
  414MOL0     H55825   3.225   2.171   5.196  3.2765  1.0819 -1.8895
  414MOL0     H55826   3.185   2.027   5.109 -0.8550  0.3860 -0.0033
  414MOL0     H55827   3.356   2.273   5.032  1.3151 -0.2245  2.2871
  414MOL0     H55828   3.300   2.153   4.913 -0.1259  1.0694  0.5087
  414MOL0     H55829   3.459   1.999   5.029 -2.6308 -0.8992  1.1664
  414MOL0     H55830   3.471   2.106   5.172  3.6219 -0.9415 -0.3123
  414MOL0     H55831   3.566   2.187   4.894  2.5942  0.0213  0.0552
  414MOL0     H55832   3.605   2.261   5.032  0.7921 -0.0577 -2.3539
  414MOL0     H55833   3.804   2.162   5.025 -0.1370  0.3331 -1.4370
  414MOL0     H55834   3.724   2.044   5.118 -1.0001  0.8683  1.4758
  414MOL0     H55835   3.677   1.918   4.903 -0.6219  0.0938 -2.2443
  414MOL0     H55836   3.765   2.044   4.813 -0.1509  1.7066  0.8111
  414MOL0     H55837   3.869   1.868   5.033 -0.8722 -1.2210 -0.5258
  414MOL0     H55838   3.967   1.997   4.960 -0.5186  0.8213  1.1025
  414MOL0     H55839   3.845   1.771   4.793  0.8276  0.0007  1.1193
  414MOL0     H55840   3.966   1.898   4.740  1.8920  1.8950  1.4632
  414MOL0     H55841   4.198   1.870   4.934  0.5671 -1.0565  1.4324
  414MOL0     H55842   4.409   1.701   5.002  2.3359  0.2226 -0.5343
  414MOL0     H55843   4.421   1.566   4.884 -0.9155  0.1192 -0.5040
  414MOL0     H55844   4.462   1.860   4.831 -1.6614 -0.1181  0.2407
  414MOL0     H55845   4.573   1.735   4.808 -0.3824 -0.6889  0.0174
  414MOL0     H55846   4.474   1.829   4.596 -1.0600 -0.0752  0.3118
  414MOL0     H55847   4.313   1.769   4.636  0.3358 -2.5014  0.6387
  414MOL0     H55848   4.438   1.602   4.483  0.2279 -0.4010  0.2336
  414MOL0     H55849   4.422   1.536   4.645  0.1723 -0.1287 -1.1846
  414MOL0     H55850   4.846   1.525   4.605  0.8913  0.7661 -0.5633
  414MOL0     H55851   4.970   1.355   4.479  0.1107 -1.3957 -1.5302
  414MOL0     H55852   4.994   0.938   4.170 -1.5600  0.9354 -0.3607
  414MOL0     H55853   5.166   0.827   4.062  2.6516 -0.8688 -0.0797
  414MOL0     H55854   5.383   0.738   3.987  0.4755  0.8146  1.8592
  414MOL0     H55855   5.353   0.876   3.871 -1.5599 -0.1107  1.0635
  414MOL0     H55856   5.611   0.878   3.864  1.4878 -1.7037  0.6765
  414MOL0     H55857   5.606   0.722   3.943 -0.8453  0.0693 -0.4491
  414MOL0     H55858   5.482   0.618   3.760 -0.0267  0.2901 -0.7351
  414MOL0     H55859   5.457   0.774   3.685  0.0121 -1.8189 -1.8493
  414MOL0     H55860   5.731   0.667   3.754  1.3152  1.3189 -0.5847
  414MOL0     H55861   5.703   0.791   3.635  0.8095 -1.2509 -1.1134
  414MOL0     H55862   5.634   0.504   3.600 -0.8563  0.6999  0.9859
  414MOL0     H55863   5.741   0.618   3.499 -1.6340  2.7714 -1.5920
  414MOL0     H55864   5.437   0.646   3.505  0.0769  2.4898 -0.0241
  414MOL0     H55865   5.548   0.726   3.409 -0.9371  0.0067 -0.8151
  414MOL0     H55866   5.616   0.513   3.292 -0.9452  0.2668 -1.4126
  414MOL0     H55867   5.437   0.528   3.289 -2.3114 -3.4887  0.5829
  414MOL0     H55868   5.604   0.344   3.474 -1.3625 -1.9887  1.5675
  414MOL0     H55869   5.429   0.346   3.466 -0.4834  1.7128 -1.2396
  414MOL0     H55870   5.425   1.175   4.083  2.0009 -1.9185 -1.2881
  414MOL0     H55871   5.249   1.298   4.205  1.2217  1.2646 -1.9886
  414MOL0     H55872   4.605   1.257   4.278  0.4676  0.3413  0.5162
  414MOL0     H55873   4.480   1.413   4.415 -0.5193  0.5723 -0.1232
  414MOL0     H55874   3.006   2.118   5.271  1.9000  0.9709 -0.5327
  414MOL0     H55875   2.779   2.078   5.321 -0.9208 -1.0981 -0.1203
  414MOL0     H55876   2.379   2.001   5.030  0.8255 -2.0731  1.6835
  414MOL0     H55877   2.155   1.904   5.020  0.4420 -2.1520  1.0748
  414MOL0     H55878   1.826   1.994   5.309  2.7687  1.4093  4.6953
  414MOL0     H55879   1.925   1.881   5.396 -0.2531  1.2204  1.0491
  414MOL0     H55880   1.682   1.809   5.329  0.2889 -2.1281  1.8938
  414MOL0     H55881   1.815   1.698   5.271 -0.5196 -0.2876 -4.1136
  414MOL0     H55882   1.807   1.813   5.043 -0.0834 -1.3889  0.1854
  414MOL0     H55883   1.681   1.906   5.111  1.8092  0.1946 -2.4324
  414MOL0     H55884   1.672   1.589   5.067 -1.5479 -1.1562 -0.5062
  414MOL0     H55885   1.550   1.672   5.158  2.6417 -1.6591  1.4799
  414MOL0     H55886   1.458   1.808   4.766 -0.5726  0.3522  0.2007
  414MOL0     H55887   2.077   2.051   5.423  0.4169  2.9524  0.4183
  414MOL0     H55888   2.200   2.206   5.507  0.1238 -2.0238  0.6650
  414MOL0     H55889   2.346   2.121   5.540 -0.5791  1.0123  2.2633
  414MOL0     H55890   2.357   2.274   5.456 -0.9990  0.3479  0.0932
  415MOL0     O55891   1.074   5.073  10.463 -0.0141  0.1450  0.5233
  415MOL0     C55892   1.063   5.024  10.580  0.6190  0.5503 -0.1573
  415MOL0     O55893   1.165   4.964  10.647 -0.2572 -0.1795 -0.3512
  415MOL0     C55894   1.287   4.948  10.582  0.3022  1.0792  0.5774
  415MOL0     C55895   1.321   4.931  10.444 -0.2276  0.4451  0.6716
  415MOL0     C55896   1.454   4.903  10.405 -0.5811  0.2738 -1.0178
  415MOL0     C55897   1.551   4.880  10.499 -1.0992  0.0477  0.6016
  415MOL0     O55898   1.686   4.847  10.467  0.3751 -0.3645 -0.0090
  415MOL0     C55899   1.731   4.874  10.339 -0.0150  0.2980 -0.0714
  415MOL0     C55900   1.883   4.831  10.327  0.2878 -0.4356  0.1496
  415MOL0     C55901   1.961   4.877  10.203  0.2799 -0.5947 -0.0015
  415MOL0     C55902   2.020   5.022  10.229 -0.6143 -0.7856 -0.2758
  415MOL0     C55903   2.172   5.035  10.208  0.2080 -0.3251  0.3243
  415MOL0     C55904   2.254   4.958  10.320  0.2895  0.2317  0.4094
  415MOL0     C55905   2.398   5.013  10.330  0.5634 -0.0594 -0.1615
  415MOL0     C55906   2.481   5.009  10.198  0.4943  0.1063  0.7349
  415MOL0     N55907   2.621   5.006  10.235  0.8699  0.1545  0.0086
  415MOL0     C55908   2.697   5.111  10.290 -0.3008  0.4832  0.0221
  415MOL0     C55909   2.820   5.074  10.277 -1.4542  0.5314  0.1192
  415MOL0     C55910   2.946   5.166  10.316 -0.7379  0.4808  0.0497
  415MOL0     C55911   3.038   5.082  10.411  0.2726  0.7584  0.3287
  415MOL0     C55912   3.150   5.173  10.468  0.6694  0.2781  0.2878
  415MOL0     C55913   3.212   5.073  10.576 -0.6523  0.3937 -1.1301
  415MOL0     O55914   3.331   5.138  10.633  0.2397  0.2027  0.5027
  415MOL0     C55915   3.424   5.070  10.702 -0.3092  0.1198  0.0140
  415MOL0     C55916   3.543   5.136  10.714  0.0072 -0.5107  0.0033
  415MOL0     C55917   3.643   5.078  10.796 -0.7115 -0.7244  1.0859
  415MOL0     C55918   3.638   4.947  10.842 -0.2387  0.0495 -0.9453
  415MOL0     C55919   3.746   4.889  10.933  0.2178  0.0601  1.0991
  415MOL0     O55920   3.732   4.761  10.948 -0.4166  0.0920 -0.0848
  415MOL0     C55921   3.809   4.707  11.054 -0.3666  0.4670 -0.2105
  415MOL0     C55922   3.753   4.708  11.185 -0.2006  0.3717 -0.4702
  415MOL0     C55923   3.839   4.679  11.293  0.4876 -0.1730 -1.1120
  415MOL0     C55924   3.971   4.642  11.272 -0.6070 -0.1384 -0.3496
  415MOL0     O55925   4.045   4.590  11.380  0.3437 -0.4656 -0.1748
  415MOL0     C55926   4.188   4.584  11.375  0.2654  0.7507 -0.1863
  415MOL0     C55927   4.234   4.565  11.525 -0.3299  0.6800 -0.3335
  415MOL0     C55928   4.168   4.444  11.593  0.1491 -0.1639 -0.5219
  415MOL0     C55929   4.229   4.423  11.734  0.5461 -0.0229  0.6911
  415MOL0     C55930   4.146   4.329  11.818  0.0575 -0.1838 -0.2604
  415MOL0     C55931   4.024   4.407  11.877 -0.5723  0.1643  0.6973
  415MOL0     C55932   3.952   4.316  11.977  0.5148  0.2688 -0.3217
  415MOL0     C55933   3.802   4.328  11.967 -0.8426 -0.6607 -0.2988
  415MOL0    Cl55934   3.773   4.499  12.018  0.1416  0.1517 -0.0392
  415MOL0     C55935   4.025   4.642  11.144 -0.4239 -0.0288  0.5416
  415MOL0     C55936   3.942   4.677  11.035  0.4150 -0.0548  0.7049
  415MOL0     O55937   3.827   4.967  10.990 -0.5573  0.0991 -0.3102
  415MOL0     C55938   3.518   4.882  10.822  0.0812 -0.5778 -0.6071
  415MOL0     C55939   3.411   4.939  10.751  0.4179  0.3432 -0.9045
  415MOL0     N55940   2.828   4.945  10.225 -0.5220 -0.6128 -0.2478
  415MOL0     N55941   2.710   4.906  10.199  0.7243 -0.1071  0.2674
  415MOL0     C55942   1.522   4.898  10.632 -0.7211  0.0804  0.1042
  415MOL0     C55943   1.392   4.932  10.676  0.3601 -0.4308  0.2417
  415MOL0     C55944   0.926   5.009  10.634  0.2163  0.4038 -0.4928
  415MOL0     C55945   0.834   5.114  10.607 -0.0749  0.1313  0.7875
  415MOL0     C55946   0.701   5.114  10.639 -0.2904 -0.0612  0.2275
  415MOL0     C55947   0.659   5.017  10.727  0.5708  0.5043 -0.2574
  415MOL0     O55948   0.524   5.024  10.751 -0.1135 -0.7627 -0.3873
  415MOL0     C55949   0.470   5.006  10.883 -0.3155 -0.2566 -0.7208
  415MOL0     C55950   0.370   5.112  10.896  0.6616 -0.2283  1.1033
  415MOL0     C55951   0.259   5.114  10.793 -0.8320 -0.0448 -0.0439
  415MOL0     C55952   0.161   5.221  10.816 -0.4380  0.3086 -0.1460
  415MOL0     C55953   0.018   5.188  10.783  0.4448  0.3760  0.3873
  415MOL0     C55954  -0.099   5.185  10.741  0.6700  0.4021  0.0244
  415MOL0     C55955   0.742   4.911  10.769 -1.0848  0.2293  0.3503
  415MOL0     C55956   0.878   4.917  10.732 -0.4682  0.0572  0.8799
  415MOL0     C55957   0.975   4.810  10.788 -0.2203  0.1095 -0.2503
  415MOL0     H55958   1.246   4.957  10.370 -0.0686 -2.1034 -0.5132
  415MOL0     H55959   1.479   4.897  10.300 -1.9876  1.9287 -1.4785
  415MOL0     H55960   1.673   4.819  10.264 -1.2003  0.9085  0.3849
  415MOL0     H55961   1.715   4.981  10.322  0.5708  0.7282  1.9115
  415MOL0     H55962   1.869   4.723  10.326  0.7967 -0.5652  2.3600
  415MOL0     H55963   1.944   4.858  10.414 -0.6058  0.9325  0.3997
  415MOL0     H55964   1.896   4.865  10.116 -1.7804  0.7579  1.2541
  415MOL0     H55965   2.049   4.814  10.188  2.3435  1.9286  0.6110
  415MOL0     H55966   1.965   5.088  10.161  2.4720  0.0639 -2.1372
  415MOL0     H55967   1.999   5.046  10.334 -1.0611 -3.0802  0.2259
  415MOL0     H55968   2.195   5.009  10.104  0.5105  0.9036  0.0710
  415MOL0     H55969   2.195   5.142  10.215 -0.0044 -0.0687 -2.0586
  415MOL0     H55970   2.198   4.976  10.412  0.3740  0.6955  0.3720
  415MOL0     H55971   2.262   4.851  10.296 -0.4628  0.8875 -3.4329
  415MOL0     H55972   2.451   4.941  10.393  0.7848  1.0387  0.9443
  415MOL0     H55973   2.403   5.115  10.370 -1.9420  0.6679 -1.4804
  415MOL0     H55974   2.452   4.913  10.156 -1.3516 -1.1021  4.3184
  415MOL0     H55975   2.457   5.092  10.130  0.1277  1.9037  2.9081
  415MOL0     H55976   2.665   5.207  10.330 -2.3780 -0.4347  0.6728
  415MOL0     H55977   2.994   5.193  10.221 -1.2199 -0.6694 -0.5397
  415MOL0     H55978   2.916   5.261  10.362 -1.0662  0.0764  0.6892
  415MOL0     H55979   2.969   5.033  10.481 -1.8966 -0.8787 -2.7416
  415MOL0     H55980   3.077   5.001  10.349 -1.9161 -1.1258  1.2669
  415MOL0     H55981   3.115   5.261  10.522 -0.8338  0.9236 -1.6300
  415MOL0     H55982   3.229   5.203  10.398 -0.7320 -1.6043 -2.2572
  415MOL0     H55983   3.233   4.976  10.531  1.3742  0.3706 -0.2164
  415MOL0     H55984   3.144   5.056  10.660  1.1273  0.3359  0.3693
  415MOL0     H55985   3.564   5.227  10.661  0.9145  0.5147  1.9978
  415MOL0     H55986   3.741   5.126  10.795  0.5844 -3.1364 -0.8882
  415MOL0     H55987   3.651   4.734  11.209 -0.9613 -1.7059 -1.2518
  415MOL0     H55988   3.812   4.669  11.398  2.3423  2.0484 -0.3423
  415MOL0     H55989   4.218   4.497  11.317  0.5512  0.9785 -0.3833
  415MOL0     H55990   4.223   4.680  11.336 -1.9760  1.5146 -0.4771
  415MOL0     H55991   4.342   4.556  11.536 -0.5958 -0.1588  2.4101
  415MOL0     H55992   4.199   4.650  11.584  1.4887  1.1230  0.1525
  415MOL0     H55993   4.061   4.464  11.600  0.2820 -0.0432  1.6447
  415MOL0     H55994   4.188   4.353  11.536  2.2761 -1.9189  2.7411
  415MOL0     H55995   4.232   4.523  11.778 -2.7483 -0.1377  1.4647
  415MOL0     H55996   4.333   4.393  11.722  0.7383  1.2928 -1.6146
  415MOL0     H55997   4.207   4.286  11.899  2.3739 -0.7424 -2.1724
  415MOL0     H55998   4.107   4.253  11.750  0.4718  1.6460 -2.6546
  415MOL0     H55999   4.058   4.488  11.943 -0.0750  0.4285  0.1252
  415MOL0     H56000   3.962   4.449  11.798  1.2839  1.0684 -0.3403
  415MOL0     H56001   3.975   4.327  12.083 -0.9592  1.4573 -0.0893
  415MOL0     H56002   3.980   4.212  11.958 -1.3303  0.0355 -2.1795
  415MOL0     H56003   3.771   4.296  11.867  0.3294 -0.8389 -0.6254
  415MOL0     H56004   3.748   4.265  12.037 -0.6780  1.4963  1.9195
  415MOL0     H56005   4.123   4.621  11.103 -0.6073  0.4252 -0.1373
  415MOL0     H56006   3.975   4.676  10.931 -1.8315 -1.3051 -0.0483
  415MOL0     H56007   3.505   4.782  10.862 -0.5265 -0.9050 -1.5718
  415MOL0     H56008   3.322   4.878  10.740 -0.3213  0.7756  1.9295
  415MOL0     H56009   1.605   4.886  10.702 -0.7864 -1.1011  0.0014
  415MOL0     H56010   1.370   4.953  10.780  1.4716 -0.2688  0.4560
  415MOL0     H56011   0.877   5.191  10.546  0.2125 -1.5478 -1.2275
  415MOL0     H56012   0.636   5.193  10.603  1.4073  2.4931  2.3653
  415MOL0     H56013   0.543   5.023  10.962  2.1642 -3.0224 -2.2025
  415MOL0     H56014   0.425   4.907  10.887  2.4517 -1.7495 -3.0608
  415MOL0     H56015   0.421   5.208  10.889 -0.6281  0.3772 -0.3132
  415MOL0     H56016   0.322   5.111  10.995 -1.6095 -3.5718  0.1244
  415MOL0     H56017   0.209   5.017  10.790 -1.8599  0.4881 -0.6210
  415MOL0     H56018   0.319   5.128  10.704  2.4165 -0.2364  1.9599
  415MOL0     H56019   0.157   5.250  10.921 -0.3736 -5.6785  1.9321
  415MOL0     H56020   0.186   5.312  10.761 -2.0002  0.4282 -0.7047
  415MOL0     H56021  -0.201   5.196  10.709 -0.3833 -3.6396  1.3549
  415MOL0     H56022   0.711   4.831  10.835 -0.3793 -3.1494 -3.0856
  415MOL0     H56023   1.047   4.860  10.854  0.5955  0.8928 -1.6712
  415MOL0     H56024   0.913   4.739  10.844 -0.9767  1.4576  0.7050
  415MOL0     H56025   1.016   4.754  10.704 -1.7874  2.0911 -2.4703
  416MOL0     O56026   2.487  10.837   0.258 -0.0904  0.0209 -0.1845
  416MOL0     C56027   2.408  10.895   0.183 -0.4201  0.1284 -0.2766
  416MOL0     O56028   2.438  11.014   0.120 -0.1161  0.5355 -0.2565
  416MOL0     C56029   2.568  11.058   0.128 -0.1841 -0.2872  0.4663
  416MOL0     C56030   2.582  11.200   0.126 -0.2584  0.0431  0.3711
  416MOL0     C56031   2.708  11.263   0.117  0.3754  0.1532 -0.2289
  416MOL0     C56032   2.818  11.186   0.100  0.1631  0.5805 -0.2809
  416MOL0     O56033   2.941  11.251   0.096 -0.2720 -0.2777  1.0723
  416MOL0     C56034   3.035  11.190   0.004 -0.2950 -0.2919  0.0789
  416MOL0     C56035   3.138  11.290  -0.054 -0.7123  0.6291 -0.5752
  416MOL0     C56036   3.258  11.199  -0.100 -0.3516  0.4744  0.8830
  416MOL0     C56037   3.355  11.275  -0.184 -0.3970  0.4989  0.5414
  416MOL0     C56038   3.466  11.181  -0.266  0.5959 -0.1010  0.0646
  416MOL0     C56039   3.555  11.265  -0.348 -0.1332 -0.5585  0.5801
  416MOL0     C56040   3.655  11.169  -0.419 -0.4959  0.3644  0.4726
  416MOL0     C56041   3.606  11.095  -0.547  0.7170  0.2842 -0.0934
  416MOL0     N56042   3.514  11.179  -0.626 -0.0635  0.4475 -0.3443
  416MOL0     C56043   3.553  11.268  -0.720  0.5109  0.1330 -0.8922
  416MOL0     C56044   3.446  11.339  -0.754  0.3589  0.0893  0.1486
  416MOL0     C56045   3.433  11.437  -0.873 -0.4071 -0.2032  0.3648
  416MOL0     C56046   3.538  11.399  -0.982  0.8111  0.6051 -0.7095
  416MOL0     C56047   3.554  11.503  -1.087 -0.0656 -0.4179  0.5026
  416MOL0     C56048   3.438  11.518  -1.185  0.1547  0.3936  0.9952
  416MOL0     O56049   3.458  11.629  -1.269  0.0655 -0.5208 -0.5719
  416MOL0     C56050   3.548  11.652  -1.370  0.2758  0.4299 -0.4028
  416MOL0     C56051   3.630  11.554  -1.427 -0.2748  0.0237 -0.0584
  416MOL0     C56052   3.721  11.598  -1.526 -0.9441  0.4123 -0.3663
  416MOL0     C56053   3.733  11.730  -1.578 -0.3891 -0.1513 -0.0677
  416MOL0     C56054   3.822  11.770  -1.695  0.1581  1.3139  0.8405
  416MOL0     O56055   3.783  11.876  -1.769 -0.5577  0.1637  0.4022
  416MOL0     C56056   3.870  11.941  -1.851  0.0218 -0.5851 -0.3557
  416MOL0     C56057   4.012  11.943  -1.856 -0.3825  0.1880  0.4297
  416MOL0     C56058   4.085  12.008  -1.958  0.1677  0.1795  0.0934
  416MOL0     C56059   4.015  12.092  -2.051 -1.1543 -0.1212 -0.2796
  416MOL0     O56060   4.072  12.157  -2.161 -0.0511 -0.1389 -0.4003
  416MOL0     C56061   4.179  12.082  -2.214 -0.0786  0.3619 -1.1285
  416MOL0     C56062   4.250  12.175  -2.307 -0.8748  1.0744  0.5509
  416MOL0     C56063   4.190  12.157  -2.451 -0.9572  0.3477 -0.2029
  416MOL0     C56064   4.234  12.024  -2.508  0.5885 -0.2350 -0.4307
  416MOL0     C56065   4.237  12.036  -2.653  0.1193 -1.2646  0.3220
  416MOL0     C56066   4.232  11.896  -2.723 -1.0683  0.1958 -0.6364
  416MOL0     C56067   4.205  11.919  -2.870  0.3368 -0.4649  0.3727
  416MOL0     C56068   4.133  11.807  -2.941 -0.3347 -0.2334 -0.0880
  416MOL0    Cl56069   4.241  11.667  -2.955  0.1957 -0.2072 -0.2730
  416MOL0     C56070   3.883  12.078  -2.052  0.5510  0.4810  0.4288
  416MOL0     C56071   3.818  12.025  -1.949 -0.2612 -0.0828 -0.3137
  416MOL0     O56072   3.918  11.698  -1.721 -0.1433 -0.9106  0.3945
  416MOL0     C56073   3.650  11.821  -1.517 -0.4660  0.1020 -0.4184
  416MOL0     C56074   3.558  11.780  -1.412 -0.2775 -0.2947 -0.6162
  416MOL0     N56075   3.338  11.288  -0.679  0.2426 -0.3432  0.6665
  416MOL0     N56076   3.381  11.191  -0.608  0.0116  0.5274  0.0054
  416MOL0     C56077   2.807  11.043   0.106 -0.0101 -0.1588  0.2036
  416MOL0     C56078   2.682  10.982   0.128 -0.7419  0.0825 -0.2187
  416MOL0     C56079   2.269  10.851   0.185 -0.1059  0.1774 -0.0601
  416MOL0     C56080   2.236  10.761   0.298  0.0055 -0.6729  0.8468
  416MOL0     C56081   2.099  10.722   0.316  0.5268 -0.5751 -0.1652
  416MOL0     C56082   2.004  10.761   0.219  0.4727  0.9603 -0.3351
  416MOL0     O56083   1.870  10.722   0.233  0.1445  0.2540 -0.8819
  416MOL0     C56084   1.811  10.668   0.350  0.5029 -0.3518 -0.1236
  416MOL0     C56085   1.656  10.665   0.355  0.3752 -0.4406  0.8927
  416MOL0     C56086   1.625  10.605   0.489 -0.6049  0.5509 -0.4166
  416MOL0     C56087   1.476  10.587   0.539 -0.2818 -0.4258  0.2295
  416MOL0     C56088   1.412  10.488   0.451 -0.1258 -0.5536  0.5137
  416MOL0     C56089   1.354  10.409   0.384 -0.0749  0.1348  0.5998
  416MOL0     C56090   2.041  10.837   0.109 -0.0890  0.6668  0.1578
  416MOL0     C56091   2.164  10.894   0.099 -0.0386  0.1145 -0.0499
  416MOL0     C56092   2.178  10.983  -0.022 -0.2110  0.4287 -0.0138
  416MOL0     H56093   2.486  11.249   0.119 -0.1032  0.1429 -1.5000
  416MOL0     H56094   2.716  11.371   0.115  0.3800  0.1612  0.1490
  416MOL0     H56095   3.086  11.109   0.058  3.9782  2.9868  1.4842
  416MOL0     H56096   2.981  11.139  -0.076  0.2566  0.5529 -0.8615
  416MOL0     H56097   3.169  11.356   0.027  0.8482 -0.5108 -0.1968
  416MOL0     H56098   3.092  11.350  -0.134  1.0426  1.0146 -1.3357
  416MOL0     H56099   3.225  11.116  -0.163  1.3254  1.6686 -1.7184
  416MOL0     H56100   3.304  11.153  -0.012 -0.1248  1.1958  1.1498
  416MOL0     H56101   3.301  11.334  -0.259  0.7853  0.6313 -0.2411
  416MOL0     H56102   3.403  11.345  -0.115  1.5378 -0.8947  0.6846
  416MOL0     H56103   3.525  11.121  -0.197  0.1659  1.0956  1.5205
  416MOL0     H56104   3.411  11.105  -0.322  1.4506  0.1465 -1.1537
  416MOL0     H56105   3.500  11.331  -0.416  0.6337 -0.4468  0.0573
  416MOL0     H56106   3.609  11.342  -0.293 -1.3299  2.4067 -2.0886
  416MOL0     H56107   3.679  11.093  -0.344 -0.3391  1.1520  1.2313
  416MOL0     H56108   3.750  11.216  -0.447  0.0751 -1.3926 -0.7837
  416MOL0     H56109   3.678  11.055  -0.618 -1.1220  1.4898 -2.8305
  416MOL0     H56110   3.545  11.007  -0.526  1.0192 -0.1967 -1.1945
  416MOL0     H56111   3.657  11.288  -0.744  0.7327  4.1287  2.2124
  416MOL0     H56112   3.332  11.453  -0.913  0.2104  0.3220 -1.0156
  416MOL0     H56113   3.455  11.540  -0.843  0.3914 -0.2234 -0.1480
  416MOL0     H56114   3.633  11.412  -0.928  1.5520  3.0402 -2.4336
  416MOL0     H56115   3.530  11.297  -1.019 -0.1884 -0.0731  1.2269
  416MOL0     H56116   3.648  11.480  -1.137  1.2926  3.8836  0.5997
  416MOL0     H56117   3.570  11.602  -1.041  1.7269 -0.0869 -0.7605
  416MOL0     H56118   3.345  11.518  -1.127  1.0359 -3.5151  2.6723
  416MOL0     H56119   3.426  11.434  -1.254  0.0192  2.1815 -1.3275
  416MOL0     H56120   3.635  11.450  -1.397  1.5860 -0.5321 -2.0604
  416MOL0     H56121   3.791  11.528  -1.571 -0.2479 -0.4189  1.8770
  416MOL0     H56122   4.069  11.889  -1.781  2.4574 -0.1022 -1.8086
  416MOL0     H56123   4.191  11.983  -1.956 -0.2147 -1.5420  1.7934
  416MOL0     H56124   4.254  12.048  -2.143 -1.2903 -3.8364 -1.6002
  416MOL0     H56125   4.150  11.985  -2.255 -0.7265 -0.4632  1.1579
  416MOL0     H56126   4.239  12.278  -2.272  2.0373  1.1805  1.3347
  416MOL0     H56127   4.355  12.147  -2.303 -0.4992  2.1689 -1.1114
  416MOL0     H56128   4.080  12.152  -2.452 -0.9470 -1.1808  1.5186
  416MOL0     H56129   4.223  12.243  -2.509 -0.3497  1.8994  2.2867
  416MOL0     H56130   4.171  11.947  -2.462 -0.6324  1.5259  1.0173
  416MOL0     H56131   4.334  12.000  -2.472  1.0507  1.1718 -0.7067
  416MOL0     H56132   4.329  12.089  -2.679 -1.2150  1.9358  1.6804
  416MOL0     H56133   4.151  12.095  -2.687  0.4169 -0.3865  1.0745
  416MOL0     H56134   4.324  11.837  -2.714 -0.8723  0.8402  3.0143
  416MOL0     H56135   4.153  11.835  -2.678 -2.3071  0.4260 -2.3846
  416MOL0     H56136   4.298  11.927  -2.926 -0.8741 -2.1975 -2.1012
  416MOL0     H56137   4.152  12.014  -2.880 -1.1296 -1.3523 -0.7723
  416MOL0     H56138   4.036  11.782  -2.897  0.3156 -2.6167  0.1299
  416MOL0     H56139   4.113  11.842  -3.043  0.3907  1.3913  0.2966
  416MOL0     H56140   3.817  12.122  -2.127 -3.3289 -2.0230  2.0707
  416MOL0     H56141   3.710  12.031  -1.951 -0.2486  0.4315  0.1220
  416MOL0     H56142   3.649  11.927  -1.542  1.3483  0.1153 -0.5811
  416MOL0     H56143   3.497  11.859  -1.369  1.6578  1.6315 -1.2255
  416MOL0     H56144   2.896  10.982   0.107  0.1491 -0.0324 -2.0862
  416MOL0     H56145   2.681  10.874   0.117 -1.3986  0.2194 -1.6626
  416MOL0     H56146   2.319  10.737   0.363  2.7656  3.1996 -0.8848
  416MOL0     H56147   2.067  10.651   0.391 -3.1095  0.4555 -0.5430
  416MOL0     H56148   1.839  10.731   0.435 -0.7401 -0.4563  0.3922
  416MOL0     H56149   1.842  10.565   0.368 -1.5594 -0.9493  0.3592
  416MOL0     H56150   1.620  10.600   0.274 -0.5922 -0.1303  1.0732
  416MOL0     H56151   1.616  10.766   0.355 -1.5482 -1.0564 -2.5049
  416MOL0     H56152   1.686  10.652   0.566  0.0090 -1.5380  0.4524
  416MOL0     H56153   1.661  10.502   0.497 -0.5377  0.7209  3.0362
  416MOL0     H56154   1.478  10.547   0.641 -0.7343 -1.4925 -0.1621
  416MOL0     H56155   1.419  10.680   0.544 -2.1213 -1.4509 -0.6323
  416MOL0     H56156   1.306  10.353   0.306 -0.8496  1.6381 -0.0572
  416MOL0     H56157   1.973  10.840   0.024  0.2309 -2.3453 -0.3101
  416MOL0     H56158   2.084  11.019  -0.062  0.3080  0.4864 -1.2300
  416MOL0     H56159   2.230  11.075   0.007  1.6866 -1.3704  2.9025
  416MOL0     H56160   2.238  10.930  -0.096  1.0583  1.0550  0.5232
  417MOL0     O56161   6.956   0.544   3.724 -0.8562 -0.6207  0.4570
  417MOL0     C56162   6.934   0.494   3.614 -0.1570 -0.0925 -0.2450
  417MOL0     O56163   7.034   0.462   3.529  0.0098  0.1636  0.7777
  417MOL0     C56164   7.169   0.474   3.547 -0.1050 -0.6620  0.3625
  417MOL0     C56165   7.231   0.458   3.674 -0.0636 -0.3135 -0.5396
  417MOL0     C56166   7.363   0.497   3.684 -0.1677 -0.6244  0.4776
  417MOL0     C56167   7.447   0.516   3.570  0.5283 -0.6973 -1.1529
  417MOL0     O56168   7.578   0.550   3.595 -0.0095  0.0563  0.1693
  417MOL0     C56169   7.639   0.550   3.728  0.7234  0.2263 -0.5828
  417MOL0     C56170   7.793   0.568   3.729  0.0713 -0.3640 -0.3296
  417MOL0     C56171   7.846   0.443   3.656 -0.1131  0.8011  0.0305
  417MOL0     C56172   7.982   0.410   3.702  0.0407  0.2251  0.4371
  417MOL0     C56173   8.035   0.294   3.619 -0.3713 -0.1270 -0.0005
  417MOL0     C56174   8.175   0.241   3.654 -0.1166  0.7735  0.3967
  417MOL0     C56175   8.204   0.143   3.545  0.2780 -0.3411  0.1324
  417MOL0     C56176   8.346   0.086   3.544 -0.4616  0.9602  0.2026
  417MOL0     N56177   8.455   0.182   3.521  0.3667 -0.1669  0.3811
  417MOL0     C56178   8.524   0.240   3.623 -0.2591  0.1941  0.9287
  417MOL0     C56179   8.631   0.304   3.573  0.3231 -0.2991  0.1968
  417MOL0     C56180   8.747   0.374   3.649  0.1835 -0.4370  0.0791
  417MOL0     C56181   8.855   0.280   3.684 -0.3630  0.2656 -0.6093
  417MOL0     C56182   8.982   0.340   3.745 -0.0830 -0.5563 -0.1660
  417MOL0     C56183   9.082   0.391   3.643 -0.1372 -0.0557 -0.2074
  417MOL0     O56184   9.181   0.477   3.700 -0.6816 -0.2819 -0.2076
  417MOL0     C56185   9.292   0.426   3.758  0.1569  0.3162 -0.6622
  417MOL0     C56186   9.309   0.289   3.794  0.1601 -0.9452  0.2744
  417MOL0     C56187   9.426   0.233   3.845 -0.7776 -0.1610  0.6960
  417MOL0     C56188   9.537   0.314   3.855  0.5002  0.5541 -0.1125
  417MOL0     C56189   9.663   0.255   3.883 -0.2769  1.0811 -0.2505
  417MOL0     O56190   9.766   0.328   3.897  0.5198  0.1067  0.0065
  417MOL0     C56191   9.891   0.275   3.916  0.1460 -0.3685  0.0602
  417MOL0     C56192   9.954   0.289   4.040  0.3267 -0.2136 -0.3558
  417MOL0     C56193  10.083   0.239   4.056  0.3048  0.0030 -0.5986
  417MOL0     C56194  10.149   0.167   3.960  0.1964 -0.0303  0.2622
  417MOL0     O56195  10.273   0.113   3.979  0.4170 -0.0640 -0.0249
  417MOL0     C56196  10.387   0.201   3.959 -0.3994 -1.1345 -0.2758
  417MOL0     C56197  10.513   0.125   3.982  0.0036 -0.5762 -0.0493
  417MOL0     C56198  10.615   0.234   4.016  0.3618 -0.4229 -0.0453
  417MOL0     C56199  10.747   0.170   4.042 -0.7134  0.1165 -0.4076
  417MOL0     C56200  10.846   0.286   4.027 -0.6005  0.2445  0.0017
  417MOL0     C56201  10.982   0.247   4.093  0.1509  0.5286  0.8868
  417MOL0     C56202  11.077   0.363   4.058 -0.0482  0.6565 -0.3953
  417MOL0     C56203  11.221   0.330   4.103 -0.3968 -0.0037  0.3138
  417MOL0    Cl56204  11.227   0.310   4.285  0.4651 -0.2394 -0.3452
  417MOL0     C56205  10.087   0.158   3.835 -1.1147  0.3645  0.5096
  417MOL0     C56206   9.958   0.208   3.812 -0.3251 -0.4417  0.1686
  417MOL0     O56207   9.672   0.131   3.906  0.3061 -0.1887 -0.8345
  417MOL0     C56208   9.521   0.453   3.830  0.5201 -0.2186 -0.0028
  417MOL0     C56209   9.404   0.508   3.782 -0.2287 -0.2121  0.4152
  417MOL0     N56210   8.623   0.297   3.433 -0.4350  0.3986  0.1747
  417MOL0     N56211   8.513   0.237   3.406 -0.5800  0.8043 -0.3287
  417MOL0     C56212   7.392   0.515   3.443 -0.1238 -0.2402 -0.0329
  417MOL0     C56213   7.248   0.495   3.428  0.1303 -0.2961 -0.1511
  417MOL0     C56214   6.793   0.482   3.574 -0.4353 -0.2750  0.1144
  417MOL0     C56215   6.685   0.512   3.666 -0.2548  1.2956 -0.7962
  417MOL0     C56216   6.554   0.512   3.627 -0.3645 -0.4001 -0.2931
  417MOL0     C56217   6.513   0.469   3.504 -0.4458  0.0870  0.4510
  417MOL0     O56218   6.378   0.491   3.465 -0.6327  0.5645  0.0698
  417MOL0     C56219   6.338   0.439   3.338 -0.1351  0.0500  0.6363
  417MOL0     C56220   6.201   0.500   3.300  0.1277 -0.5955 -0.5655
  417MOL0     C56221   6.095   0.488   3.407  0.1820  0.0534 -0.1416
  417MOL0     C56222   5.949   0.492   3.370 -0.1854 -0.6331 -0.5855
  417MOL0     C56223   5.924   0.622   3.309  0.4900  1.1590 -0.2493
  417MOL0     C56224   5.916   0.717   3.244 -0.3850 -0.1731  0.1681
  417MOL0     C56225   6.609   0.424   3.423 -0.6796 -0.8634 -0.6350
  417MOL0     C56226   6.746   0.434   3.451 -0.1631 -0.6063 -0.4992
  417MOL0     C56227   6.828   0.384   3.332 -0.5126 -0.0982  0.9789
  417MOL0     H56228   7.177   0.429   3.764 -0.4196  2.0727  0.0681
  417MOL0     H56229   7.405   0.492   3.784  1.1068  2.3059  0.2050
  417MOL0     H56230   7.583   0.621   3.790  0.5797 -0.6806  0.3718
  417MOL0     H56231   7.625   0.450   3.771 -0.7418  0.9064  0.6163
  417MOL0     H56232   7.837   0.574   3.829 -0.0624 -0.2868 -0.2751
  417MOL0     H56233   7.819   0.659   3.674 -1.0042 -0.0083 -0.2792
  417MOL0     H56234   7.847   0.456   3.547 -0.6352 -0.7285 -0.1702
  417MOL0     H56235   7.782   0.356   3.670 -1.3337  1.4893 -1.0847
  417MOL0     H56236   8.058   0.487   3.688  0.5542 -0.6301 -1.9465
  417MOL0     H56237   7.984   0.388   3.809  2.6472  2.3720  0.9391
  417MOL0     H56238   7.970   0.209   3.642 -0.8760  0.1742 -0.2985
  417MOL0     H56239   8.037   0.325   3.514 -1.7189 -0.6494 -0.2029
  417MOL0     H56240   8.251   0.319   3.654  4.3548 -3.0155  3.0138
  417MOL0     H56241   8.178   0.186   3.749  0.6539 -1.2212 -0.7220
  417MOL0     H56242   8.185   0.190   3.448 -1.3438 -0.3042  0.4477
  417MOL0     H56243   8.145   0.052   3.560  1.8788 -1.5318 -0.5373
  417MOL0     H56244   8.371   0.023   3.629  0.2393 -1.8694 -1.9230
  417MOL0     H56245   8.358   0.024   3.454  1.8812 -0.9726  1.7369
  417MOL0     H56246   8.503   0.237   3.729 -0.8976 -0.5976  0.7902
  417MOL0     H56247   8.781   0.459   3.590  3.4675 -0.1481  2.1156
  417MOL0     H56248   8.711   0.415   3.743  1.6196 -1.3517  1.0845
  417MOL0     H56249   8.823   0.206   3.758  2.2373 -1.4633 -1.0497
  417MOL0     H56250   8.890   0.229   3.593  2.0770 -0.3154  0.5747
  417MOL0     H56251   9.030   0.265   3.809 -0.3097 -0.0440  0.6217
  417MOL0     H56252   8.945   0.421   3.809  0.5961 -0.5280  0.2101
  417MOL0     H56253   9.033   0.453   3.567 -0.3372  2.4561  1.8263
  417MOL0     H56254   9.137   0.314   3.588  1.0494 -0.7652  1.8862
  417MOL0     H56255   9.223   0.226   3.775 -0.8501  0.7895 -1.1852
  417MOL0     H56256   9.426   0.125   3.856  0.4297 -0.2966 -0.3546
  417MOL0     H56257   9.907   0.333   4.127  0.6194  3.7195 -1.9362
  417MOL0     H56258  10.116   0.251   4.158  1.6194 -2.4745 -0.6626
  417MOL0     H56259  10.390   0.246   3.859 -1.9874  0.7614  0.4623
  417MOL0     H56260  10.385   0.278   4.036 -0.5011 -0.9325 -0.4792
  417MOL0     H56261  10.501   0.064   4.072 -1.2434 -0.0360  0.1721
  417MOL0     H56262  10.542   0.053   3.905  3.0066  0.8231 -0.3860
  417MOL0     H56263  10.622   0.309   3.935  0.2158  1.4021  1.5569
  417MOL0     H56264  10.584   0.281   4.109 -2.2115 -4.6252  1.4367
  417MOL0     H56265  10.768   0.094   3.967  0.4211  1.4403 -1.4967
  417MOL0     H56266  10.757   0.124   4.141 -0.1286 -1.2548 -1.0680
  417MOL0     H56267  10.808   0.381   4.066  3.0254  1.7873  0.1847
  417MOL0     H56268  10.844   0.310   3.920 -3.2688 -0.4940 -0.1653
  417MOL0     H56269  10.975   0.236   4.202 -1.7497 -3.3269  0.5579
  417MOL0     H56270  11.019   0.155   4.047 -0.5838 -1.4511  3.9356
  417MOL0     H56271  11.040   0.452   4.110 -2.0027  1.3236 -2.7540
  417MOL0     H56272  11.077   0.381   3.950  0.9815  0.2039 -0.4878
  417MOL0     H56273  11.254   0.239   4.052 -0.1296  0.4037 -0.2512
  417MOL0     H56274  11.292   0.406   4.071 -0.2715  0.4836  1.7106
  417MOL0     H56275  10.131   0.104   3.752  0.1674  1.1080  0.6762
  417MOL0     H56276   9.908   0.188   3.718  0.9516  1.5077 -1.0046
  417MOL0     H56277   9.596   0.531   3.831 -1.4020  1.7971 -1.8247
  417MOL0     H56278   9.410   0.614   3.759  3.1387 -0.3261  0.1905
  417MOL0     H56279   7.455   0.544   3.359  2.0626  2.9194  2.4404
  417MOL0     H56280   7.201   0.504   3.331 -0.9193  1.4080  0.4682
  417MOL0     H56281   6.710   0.538   3.768  1.0956 -3.6120  0.4046
  417MOL0     H56282   6.483   0.555   3.698  0.4719 -0.8226  0.8272
  417MOL0     H56283   6.331   0.329   3.336  1.6710 -0.0946 -1.0119
  417MOL0     H56284   6.411   0.463   3.260 -0.2155  0.4302  0.6766
  417MOL0     H56285   6.173   0.446   3.209 -1.2972  0.7545 -0.9655
  417MOL0     H56286   6.221   0.606   3.287  2.3938 -1.0558 -1.3242
  417MOL0     H56287   6.108   0.575   3.471 -0.4426  0.5744 -0.7137
  417MOL0     H56288   6.105   0.400   3.472 -2.0882  0.8839  1.4398
  417MOL0     H56289   5.928   0.408   3.302 -0.9653  0.5711 -1.9046
  417MOL0     H56290   5.896   0.472   3.463  1.2984  0.3035  0.5189
  417MOL0     H56291   5.912   0.799   3.176  0.1855  2.0993  2.6825
  417MOL0     H56292   6.586   0.374   3.330  1.3215 -0.0212 -1.6391
  417MOL0     H56293   6.923   0.332   3.346 -0.9521 -0.7609  1.5549
  417MOL0     H56294   6.769   0.309   3.278  0.6837 -2.7553  3.1205
  417MOL0     H56295   6.851   0.464   3.261 -0.3900 -1.6446 -0.8098
  418MOL0     O56296   0.554   7.424   8.789 -0.4043  0.0242  0.1029
  418MOL0     C56297   0.498   7.367   8.693  0.4470  0.1479 -0.2156
  418MOL0     O56298   0.556   7.330   8.575  0.5701 -0.9098  0.1511
  418MOL0     C56299   0.693   7.349   8.564 -0.2540 -0.4438  0.9777
  418MOL0     C56300   0.785   7.248   8.591  0.5572  0.8178  0.1899
  418MOL0     C56301   0.920   7.264   8.567  0.1704  0.7842 -0.1829
  418MOL0     C56302   0.971   7.385   8.518 -0.5383 -0.0709 -0.1207
  418MOL0     O56303   1.100   7.414   8.484  0.2772  0.9088  0.1702
  418MOL0     C56304   1.191   7.304   8.448  0.3538 -0.5936 -0.3772
  418MOL0     C56305   1.328   7.349   8.385  1.7763 -0.7544 -0.1646
  418MOL0     C56306   1.418   7.233   8.371 -0.0780  0.1944  0.1513
  418MOL0     C56307   1.521   7.217   8.494  0.8955  0.0381  0.3466
  418MOL0     C56308   1.636   7.114   8.463 -0.3801  0.5768  0.4116
  418MOL0     C56309   1.730   7.181   8.365  0.4998  0.4235 -0.4877
  418MOL0     C56310   1.867   7.109   8.355 -0.3841 -1.0501  0.2367
  418MOL0     C56311   1.983   7.207   8.322  0.1981  0.0638  0.5916
  418MOL0     N56312   2.119   7.146   8.285 -0.3903  0.3061 -0.1229
  418MOL0     C56313   2.207   7.065   8.361 -0.5294  1.0604  0.0677
  418MOL0     C56314   2.315   7.051   8.286 -0.1245  0.7664 -0.3471
  418MOL0     C56315   2.448   6.974   8.308  0.4743  0.0841 -0.1924
  418MOL0     C56316   2.543   7.066   8.391 -0.2282  1.0019  0.3948
  418MOL0     C56317   2.581   7.200   8.322 -0.8929 -0.0894 -0.5287
  418MOL0     C56318   2.672   7.193   8.198 -0.7281  0.4812 -0.3158
  418MOL0     O56319   2.803   7.133   8.233  0.2654 -0.0627 -0.1276
  418MOL0     C56320   2.893   7.123   8.141  0.1379  1.5795  0.3740
  418MOL0     C56321   2.885   7.147   8.007 -0.4130  0.1283 -0.4872
  418MOL0     C56322   2.998   7.108   7.923  0.3071  0.1914 -0.2432
  418MOL0     C56323   3.121   7.062   7.981  0.9424 -0.0358  0.5227
  418MOL0     C56324   3.232   7.006   7.897 -0.2617 -0.6506  0.1320
  418MOL0     O56325   3.303   6.894   7.935 -0.2239 -0.2936 -0.0713
  418MOL0     C56326   3.417   6.852   7.872  0.2507  0.7126 -0.1973
  418MOL0     C56327   3.504   6.925   7.785  0.0469 -0.2627  0.5096
  418MOL0     C56328   3.608   6.850   7.730  0.2299 -1.3483  0.6027
  418MOL0     C56329   3.641   6.725   7.759  0.5143  0.2096  0.1806
  418MOL0     O56330   3.752   6.665   7.700 -0.0891  0.5308  0.5401
  418MOL0     C56331   3.766   6.522   7.711 -0.4994 -0.1584  0.3125
  418MOL0     C56332   3.884   6.468   7.627 -1.7863  0.6447 -0.3275
  418MOL0     C56333   3.845   6.433   7.487  0.1865 -0.8907 -0.4058
  418MOL0     C56334   3.943   6.382   7.387 -0.7600 -0.0315 -0.1434
  418MOL0     C56335   4.052   6.485   7.348 -0.3454 -0.3250  0.4593
  418MOL0     C56336   4.146   6.442   7.233  0.2151 -0.5924  0.3703
  418MOL0     C56337   4.271   6.533   7.235 -0.1930 -0.0126  1.0614
  418MOL0     C56338   4.378   6.498   7.126 -0.0548 -0.6430  0.4452
  418MOL0    Cl56339   4.317   6.561   6.970 -0.1502 -0.3033  0.0114
  418MOL0     C56340   3.556   6.658   7.846  0.2559 -0.2920  0.0578
  418MOL0     C56341   3.450   6.723   7.906 -0.4354  0.1478  0.2190
  418MOL0     O56342   3.255   7.065   7.791  0.1206 -0.4735  0.4926
  418MOL0     C56343   3.116   7.034   8.115 -0.2145  0.7700 -1.2199
  418MOL0     C56344   3.007   7.065   8.193 -0.4136  0.4251  0.3068
  418MOL0     N56345   2.296   7.116   8.169  0.0627 -0.2434  0.5883
  418MOL0     N56346   2.180   7.167   8.166  0.7188 -0.7482  0.4436
  418MOL0     C56347   0.885   7.493   8.504  1.1231 -0.5013  0.5450
  418MOL0     C56348   0.742   7.473   8.526  0.2879 -0.4338 -0.1290
  418MOL0     C56349   0.361   7.307   8.731 -0.5526  0.9269  0.4867
  418MOL0     C56350   0.323   7.184   8.671 -0.5600 -0.9583  0.1645
  418MOL0     C56351   0.214   7.108   8.713  0.3581  0.6497 -0.2090
  418MOL0     C56352   0.119   7.167   8.792 -0.0912  0.0843 -0.5021
  418MOL0     O56353  -0.001   7.108   8.809  0.6952  0.8970 -0.6253
  418MOL0     C56354  -0.107   7.156   8.725 -0.1501 -0.5650  0.4228
  418MOL0     C56355  -0.097   7.155   8.578 -0.0800 -0.1051  0.2112
  418MOL0     C56356  -0.201   7.236   8.497  0.4073 -0.0494  0.0953
  418MOL0     C56357  -0.346   7.173   8.476  0.0978  0.4238 -0.1586
  418MOL0     C56358  -0.429   7.182   8.588 -0.3305  0.9176  0.4656
  418MOL0     C56359  -0.493   7.198   8.691 -0.6936 -0.2785  0.3250
  418MOL0     C56360   0.148   7.294   8.840 -0.2018  0.2762 -0.0783
  418MOL0     C56361   0.265   7.362   8.820  0.3711 -0.5090  0.3949
  418MOL0     C56362   0.283   7.499   8.881  0.1095  0.2715 -0.7968
  418MOL0     H56363   0.750   7.150   8.621  2.1793  0.0247 -0.3612
  418MOL0     H56364   0.994   7.187   8.585  0.4087  0.8612 -0.8006
  418MOL0     H56365   1.211   7.243   8.537  3.2586 -1.0942 -1.2636
  418MOL0     H56366   1.145   7.238   8.374  2.2094 -1.1001 -1.1266
  418MOL0     H56367   1.378   7.427   8.442 -1.5968  0.9523  0.7542
  418MOL0     H56368   1.309   7.387   8.284 -1.6633 -2.8603 -0.4800
  418MOL0     H56369   1.482   7.257   8.285  2.2177  1.0023  1.9759
  418MOL0     H56370   1.358   7.142   8.357  0.0080  0.0471  0.7272
  418MOL0     H56371   1.566   7.313   8.521  1.8606 -0.3166  0.0407
  418MOL0     H56372   1.457   7.183   8.576 -0.6553 -1.5482 -1.4043
  418MOL0     H56373   1.687   7.079   8.553 -3.6742  0.6287  2.4834
  418MOL0     H56374   1.600   7.028   8.407 -2.1803  0.7853  1.1896
  418MOL0     H56375   1.690   7.185   8.263  0.6155  4.3773 -0.5659
  418MOL0     H56376   1.756   7.281   8.401  1.3130 -0.2196  0.7773
  418MOL0     H56377   1.854   7.040   8.272 -3.0961 -0.7156  0.3083
  418MOL0     H56378   1.892   7.041   8.437  1.4251 -1.0272 -0.2432
  418MOL0     H56379   1.948   7.260   8.232 -0.9623  0.3746  1.2026
  418MOL0     H56380   1.988   7.281   8.402  1.4492 -2.3237  2.8566
  418MOL0     H56381   2.196   7.024   8.461  1.2409  0.1694 -0.0711
  418MOL0     H56382   2.439   6.881   8.366  0.8564  0.5933  0.7128
  418MOL0     H56383   2.489   6.954   8.209 -1.3325 -1.3051 -0.7184
  418MOL0     H56384   2.498   7.082   8.489 -0.1933 -1.2958  0.8397
  418MOL0     H56385   2.636   7.014   8.417 -0.6304  1.0540  2.1078
  418MOL0     H56386   2.636   7.263   8.392  0.1412  0.6271 -1.9213
  418MOL0     H56387   2.490   7.250   8.289  0.1731  3.2481  1.1226
  418MOL0     H56388   2.687   7.297   8.167  0.1886  0.3838 -0.2455
  418MOL0     H56389   2.629   7.129   8.121  1.0631 -1.9018  0.5351
  418MOL0     H56390   2.789   7.183   7.971 -1.9870 -1.4971  1.8105
  418MOL0     H56391   2.982   7.128   7.818 -1.0757  0.2222 -0.0376
  418MOL0     H56392   3.507   7.032   7.767 -0.6295 -0.3865 -0.3980
  418MOL0     H56393   3.678   6.889   7.657 -1.7715 -1.0273 -1.2564
  418MOL0     H56394   3.782   6.507   7.818  0.2992  1.5051  0.4640
  418MOL0     H56395   3.674   6.469   7.683 -0.9591  1.0816 -0.6314
  418MOL0     H56396   3.963   6.543   7.638 -2.7512  1.4027  2.4599
  418MOL0     H56397   3.931   6.379   7.672 -2.2685  0.0958 -0.8948
  418MOL0     H56398   3.759   6.366   7.483  1.0768 -2.0500 -0.7278
  418MOL0     H56399   3.807   6.525   7.440 -0.8391 -1.2088 -0.2280
  418MOL0     H56400   3.893   6.344   7.297 -1.9976  1.0535  0.0385
  418MOL0     H56401   3.983   6.289   7.428  2.3900  1.4565  0.3818
  418MOL0     H56402   4.107   6.505   7.441 -0.0818  1.0974  0.0169
  418MOL0     H56403   3.998   6.575   7.318  0.0557  0.1901  1.2479
  418MOL0     H56404   4.178   6.338   7.245 -1.5409 -1.4557 -1.7813
  418MOL0     H56405   4.087   6.460   7.142 -1.3629  0.1229  1.4905
  418MOL0     H56406   4.311   6.528   7.337  2.6273 -1.1568  0.0099
  418MOL0     H56407   4.240   6.637   7.224 -0.1043  0.0078  1.0049
  418MOL0     H56408   4.467   6.554   7.155 -0.7680  1.7348 -1.5992
  418MOL0     H56409   4.396   6.391   7.115  1.2989 -0.2842 -1.1911
  418MOL0     H56410   3.561   6.552   7.868 -1.5805 -0.9065 -2.0237
  418MOL0     H56411   3.387   6.677   7.980  1.8717 -2.0134  0.9667
  418MOL0     H56412   3.203   6.984   8.157 -0.2103 -0.6523 -2.7795
  418MOL0     H56413   3.024   7.043   8.297  1.5535 -0.5762 -0.1757
  418MOL0     H56414   0.933   7.582   8.465  2.0569 -0.2912  2.0872
  418MOL0     H56415   0.657   7.539   8.512  3.3243  3.8066 -0.5631
  418MOL0     H56416   0.395   7.144   8.599 -1.7312 -1.5307 -0.7231
  418MOL0     H56417   0.206   7.007   8.674 -1.0250 -0.0889  1.8139
  418MOL0     H56418  -0.115   7.257   8.766  1.7594 -0.6555  1.1300
  418MOL0     H56419  -0.194   7.097   8.752  1.5637 -4.0658 -1.0122
  418MOL0     H56420  -0.103   7.048   8.559  2.5528 -0.6565  1.9176
  418MOL0     H56421   0.005   7.186   8.553 -0.5289 -0.0504 -1.7207
  418MOL0     H56422  -0.149   7.253   8.403  0.3461 -1.2501 -0.1793
  418MOL0     H56423  -0.208   7.339   8.532  0.3888  0.7976 -2.2232
  418MOL0     H56424  -0.399   7.225   8.396 -3.9225 -2.7943  0.0999
  418MOL0     H56425  -0.334   7.069   8.442  2.8637  0.5311  0.2135
  418MOL0     H56426  -0.552   7.216   8.779 -0.3973 -1.8715  0.8639
  418MOL0     H56427   0.078   7.352   8.900  2.3844  1.9831  1.4913
  418MOL0     H56428   0.191   7.557   8.870  0.7068  0.9155 -3.1273
  418MOL0     H56429   0.310   7.493   8.986  0.0567  4.1124 -0.4032
  418MOL0     H56430   0.363   7.555   8.830 -1.6403  2.1816 -1.6158
  419MOL0     O56431   8.322   4.053  10.320  0.1082 -0.0356 -0.2174
  419MOL0     C56432   8.261   4.098  10.418  0.0641  0.7034 -0.1769
  419MOL0     O56433   8.297   4.207  10.489  0.2596  0.1918  0.1996
  419MOL0     C56434   8.421   4.251  10.462  0.1765  0.7697  0.0553
  419MOL0     C56435   8.460   4.340  10.361  0.3720 -0.5458 -0.3716
  419MOL0     C56436   8.598   4.366  10.338  0.8993 -1.0295 -0.4635
  419MOL0     C56437   8.690   4.323  10.440  0.5204  0.1919 -0.1408
  419MOL0     O56438   8.819   4.364  10.444 -0.4481 -0.4941 -0.2815
  419MOL0     C56439   8.892   4.398  10.319 -0.0142  0.9218  1.0368
  419MOL0     C56440   9.038   4.380  10.319 -0.2950  0.9969  0.2518
  419MOL0     C56441   9.117   4.470  10.411  0.3096 -0.2488 -0.1355
  419MOL0     C56442   9.271   4.467  10.406  0.0285 -0.2753  0.3740
  419MOL0     C56443   9.329   4.526  10.537 -0.0117 -0.2350  1.2631
  419MOL0     C56444   9.477   4.515  10.537 -0.2428 -0.1791 -0.3188
  419MOL0     C56445   9.512   4.583  10.678 -0.1044  0.1733 -0.1751
  419MOL0     C56446   9.670   4.559  10.704 -0.2105  0.2819  0.0942
  419MOL0     N56447   9.709   4.616  10.829 -1.4116  0.2385 -0.8981
  419MOL0     C56448   9.772   4.544  10.929  0.0568  0.5144  0.3707
  419MOL0     C56449   9.809   4.636  11.017 -0.2171 -0.6594 -0.4137
  419MOL0     C56450   9.896   4.627  11.141 -0.8524 -0.1588 -0.0700
  419MOL0     C56451  10.052   4.612  11.114 -0.2579  0.0378 -0.3603
  419MOL0     C56452  10.122   4.524  11.221  0.5117 -1.5514 -0.0499
  419MOL0     C56453  10.267   4.515  11.228 -0.4911 -0.2658  0.3094
  419MOL0     O56454  10.308   4.401  11.299  0.5627  0.2789  0.7795
  419MOL0     C56455  10.441   4.385  11.312 -0.5461  0.6381  0.6341
  419MOL0     C56456  10.485   4.266  11.263  0.3935  0.2046  0.3013
  419MOL0     C56457  10.619   4.219  11.280 -0.4328 -0.7254  0.0544
  419MOL0     C56458  10.712   4.311  11.333 -0.4781  1.2404  0.0912
  419MOL0     C56459  10.852   4.270  11.343 -0.3945  0.8843  0.2548
  419MOL0     O56460  10.867   4.141  11.308 -0.4960  0.1243  0.3617
  419MOL0     C56461  10.972   4.066  11.369  0.2656  0.1842 -0.2258
  419MOL0     C56462  11.010   3.951  11.299 -0.4752  0.3968 -0.1155
  419MOL0     C56463  11.113   3.860  11.351  0.2445  0.8655 -1.0443
  419MOL0     C56464  11.170   3.887  11.470  0.0221 -0.5078 -0.3146
  419MOL0     O56465  11.284   3.828  11.520 -0.5377 -0.0824 -0.2832
  419MOL0     C56466  11.397   3.830  11.442 -0.0018  0.0761  0.6535
  419MOL0     C56467  11.458   3.973  11.436  0.0945  0.8646 -0.0822
  419MOL0     C56468  11.593   3.973  11.345 -0.1879 -0.0800 -0.1599
  419MOL0     C56469  11.715   3.916  11.425  0.3286 -0.3496  0.0870
  419MOL0     C56470  11.846   3.938  11.343 -0.4466 -0.3198 -0.1612
  419MOL0     C56471  11.960   3.856  11.401 -0.4498 -0.0943 -0.4219
  419MOL0     C56472  11.998   3.904  11.539  1.0736  0.5942 -0.0991
  419MOL0     C56473  12.145   3.853  11.571  0.3310  0.4096  1.0066
  419MOL0    Cl56474  12.268   3.915  11.452 -0.3580 -0.0639 -0.1924
  419MOL0     C56475  11.122   3.998  11.543 -0.0970 -1.0785  0.0041
  419MOL0     C56476  11.020   4.078  11.503  0.2325 -0.3574 -0.0439
  419MOL0     O56477  10.943   4.346  11.378 -0.1334 -0.1451  0.3836
  419MOL0     C56478  10.663   4.433  11.380 -0.8266  0.7497 -0.9931
  419MOL0     C56479  10.529   4.474  11.375 -0.1062 -0.2067 -0.5959
  419MOL0     N56480   9.749   4.749  10.983 -0.3326  0.3162 -1.0119
  419MOL0     N56481   9.673   4.735  10.880 -0.4664  0.0028  0.2896
  419MOL0     C56482   8.652   4.235  10.538 -1.4182  0.2544  0.6473
  419MOL0     C56483   8.517   4.201  10.545 -0.4117  0.1596 -0.7110
  419MOL0     C56484   8.130   4.036  10.449  0.1179  1.2312 -0.6229
  419MOL0     C56485   8.110   3.893  10.434  0.8406 -0.0700 -0.0099
  419MOL0     C56486   7.995   3.830  10.480  0.3269  0.8504  0.2900
  419MOL0     C56487   7.887   3.893  10.534  0.2252  0.0066 -0.6909
  419MOL0     O56488   7.772   3.831  10.582  0.2473  0.0439  0.0170
  419MOL0     C56489   7.677   3.815  10.476 -0.0596 -0.0546  0.0063
  419MOL0     C56490   7.565   3.708  10.497  0.0606 -0.1570 -0.1707
  419MOL0     C56491   7.468   3.758  10.610 -0.4472  0.0930 -0.5977
  419MOL0     C56492   7.331   3.693  10.613  0.2075 -0.6634 -0.8128
  419MOL0     C56493   7.240   3.740  10.723  1.1480 -0.0697 -0.2508
  419MOL0     C56494   7.166   3.785  10.805 -0.7416 -0.0741  0.2187
  419MOL0     C56495   7.899   4.028  10.542 -0.2196 -0.4288  0.8115
  419MOL0     C56496   8.018   4.102  10.508 -0.0102 -0.0292 -0.0198
  419MOL0     C56497   8.000   4.251  10.538 -0.0463  0.3133  0.5666
  419MOL0     H56498   8.391   4.372  10.284 -0.6490 -0.2325  0.6567
  419MOL0     H56499   8.637   4.436  10.265 -1.2450  0.2881 -0.4386
  419MOL0     H56500   8.857   4.345  10.230  0.1350 -0.3635  1.7224
  419MOL0     H56501   8.874   4.503  10.291  1.6744  0.5524 -1.9210
  419MOL0     H56502   9.079   4.392  10.219  0.9906 -0.9155  0.4829
  419MOL0     H56503   9.049   4.273  10.340  0.2773  0.9015 -0.4986
  419MOL0     H56504   9.081   4.441  10.511 -1.3102 -1.7823 -1.0960
  419MOL0     H56505   9.079   4.572  10.407 -1.0108 -0.5829  1.8385
  419MOL0     H56506   9.305   4.364  10.403  1.4193  0.1915 -1.9604
  419MOL0     H56507   9.307   4.508  10.312  0.8884 -3.3856 -0.7446
  419MOL0     H56508   9.296   4.630  10.543  0.0486 -0.1624  0.3467
  419MOL0     H56509   9.288   4.465  10.619 -3.1232  0.4163  0.3023
  419MOL0     H56510   9.515   4.414  10.525 -1.1101 -0.4188 -1.1611
  419MOL0     H56511   9.516   4.578  10.457 -0.8351  1.3007  0.5109
  419MOL0     H56512   9.458   4.529  10.756  2.7926  0.0603  1.9034
  419MOL0     H56513   9.503   4.692  10.677  3.6293  0.6159 -1.3688
  419MOL0     H56514   9.692   4.452  10.715  0.3236  0.2869 -0.8087
  419MOL0     H56515   9.729   4.602  10.622 -1.0653 -0.9438 -1.2057
  419MOL0     H56516   9.799   4.439  10.936 -2.7451 -0.2949  0.3980
  419MOL0     H56517   9.876   4.715  11.203 -0.5549 -0.1297 -0.0111
  419MOL0     H56518   9.866   4.538  11.197  0.2390 -0.4551  0.0726
  419MOL0     H56519  10.068   4.581  11.011 -1.3793  1.2091 -0.9128
  419MOL0     H56520  10.103   4.708  11.126 -0.7517  0.0464  2.4512
  419MOL0     H56521  10.081   4.424  11.204  0.4369 -1.0537 -3.5611
  419MOL0     H56522  10.086   4.560  11.318 -2.8000  1.0083 -1.9938
  419MOL0     H56523  10.312   4.604  11.273 -0.1530 -0.7202  0.8752
  419MOL0     H56524  10.312   4.510  11.128 -1.7101  0.1591 -0.2846
  419MOL0     H56525  10.412   4.199  11.218 -1.1400  1.4466  0.8773
  419MOL0     H56526  10.638   4.119  11.244  1.5143 -1.1023  1.9136
  419MOL0     H56527  10.974   3.933  11.199 -1.6295 -0.3471  0.4175
  419MOL0     H56528  11.123   3.763  11.303 -1.7418  0.4291 -0.6595
  419MOL0     H56529  11.469   3.758  11.483  0.4501  0.0579 -0.1484
  419MOL0     H56530  11.382   3.785  11.343  1.2065 -0.8295  0.8589
  419MOL0     H56531  11.391   4.046  11.390 -2.2637 -0.6213  0.7686
  419MOL0     H56532  11.476   4.007  11.538  1.7327 -5.1806  2.0710
  419MOL0     H56533  11.568   3.926  11.249  1.6959 -1.0128 -0.2493
  419MOL0     H56534  11.607   4.080  11.330 -0.4466 -0.1454 -0.9296
  419MOL0     H56535  11.695   3.810  11.438 -2.2308  0.1622  0.8740
  419MOL0     H56536  11.726   3.961  11.524 -0.4144  2.7271 -1.1002
  419MOL0     H56537  11.871   4.045  11.341 -0.8037 -0.0971  2.6533
  419MOL0     H56538  11.823   3.916  11.239  4.1395  0.1503 -1.4713
  419MOL0     H56539  11.922   3.754  11.416 -2.1212  0.6300  0.5965
  419MOL0     H56540  12.045   3.861  11.332  1.7260 -0.1351  2.0911
  419MOL0     H56541  11.928   3.859  11.610 -0.0743  1.6859 -0.5007
  419MOL0     H56542  11.994   4.012  11.551 -0.4901  0.3901  1.6259
  419MOL0     H56543  12.180   3.885  11.669  1.8657  2.0691 -0.0162
  419MOL0     H56544  12.145   3.745  11.559  0.4578  0.4158  0.9496
  419MOL0     H56545  11.170   4.018  11.638  1.0976  1.8255 -1.0883
  419MOL0     H56546  10.978   4.153  11.569 -1.9106 -0.6429 -0.9898
  419MOL0     H56547  10.740   4.486  11.436  0.5174 -1.3802 -0.7179
  419MOL0     H56548  10.485   4.565  11.415  2.9420  0.9809  0.4222
  419MOL0     H56549   8.739   4.202  10.594 -0.2991 -3.7198 -2.9202
  419MOL0     H56550   8.498   4.120  10.615 -0.8346 -1.2161 -2.3704
  419MOL0     H56551   8.190   3.832  10.392  1.9174  1.5767 -0.4460
  419MOL0     H56552   7.988   3.723  10.471  1.0564  0.8207 -0.0237
  419MOL0     H56553   7.729   3.774  10.390 -0.1722  1.1834 -0.6772
  419MOL0     H56554   7.643   3.916  10.449  0.2562  0.1891  0.5056
  419MOL0     H56555   7.603   3.610  10.528  0.2114  0.0844  0.4195
  419MOL0     H56556   7.503   3.704  10.407 -1.9309 -0.4779  1.1575
  419MOL0     H56557   7.442   3.862  10.590 -0.4574  0.7477  2.3464
  419MOL0     H56558   7.514   3.748  10.709  0.8232  3.1016 -0.7876
  419MOL0     H56559   7.277   3.713  10.519 -1.4738  0.2582  0.2912
  419MOL0     H56560   7.349   3.585  10.622  0.3261 -0.5013  1.2686
  419MOL0     H56561   7.105   3.833  10.878 -1.3157 -0.2466 -0.1420
  419MOL0     H56562   7.814   4.087  10.574  0.7146  1.7384 -0.4813
  419MOL0     H56563   7.895   4.280  10.543 -0.6791 -1.8439  0.4382
  419MOL0     H56564   8.047   4.295  10.626 -0.2823  0.3153  0.6933
  419MOL0     H56565   8.053   4.301  10.456  0.0204 -1.6381 -0.6458
  420MOL0     O56566  10.205   5.970   3.481 -0.7764  0.8506 -0.2721
  420MOL0     C56567  10.256   5.867   3.435 -0.2474  0.5934  0.6075
  420MOL0     O56568  10.378   5.856   3.371  0.0877 -0.2197  0.4275
  420MOL0     C56569  10.449   5.966   3.345  0.1262  0.2543 -0.1653
  420MOL0     C56570  10.567   5.995   3.414  0.7263 -0.1944 -0.9402
  420MOL0     C56571  10.641   6.105   3.393  0.5516  0.0886  0.7277
  420MOL0     C56572  10.606   6.193   3.292  0.8356 -0.0547 -0.4929
  420MOL0     O56573  10.688   6.304   3.277  0.3532  0.3222 -0.2220
  420MOL0     C56574  10.622   6.427   3.265 -0.6226 -0.3359  0.1175
  420MOL0     C56575  10.716   6.529   3.312 -0.4118 -0.5265 -0.0165
  420MOL0     C56576  10.844   6.541   3.225  0.5127  0.5168  0.1192
  420MOL0     C56577  10.970   6.478   3.288 -0.4840  0.3010 -0.1656
  420MOL0     C56578  11.110   6.525   3.220  1.1383 -0.3328  0.1240
  420MOL0     C56579  11.220   6.490   3.321 -0.7590 -0.3209 -0.0790
  420MOL0     C56580  11.355   6.562   3.305 -0.2166  0.2735 -0.3702
  420MOL0     C56581  11.430   6.504   3.177  0.1696 -0.0230 -0.5463
  420MOL0     N56582  11.535   6.589   3.125  0.3963 -0.2186 -0.4268
  420MOL0     C56583  11.532   6.729   3.125  0.5958  0.7834 -0.8789
  420MOL0     C56584  11.663   6.765   3.112 -0.9688  0.3290 -0.1872
  420MOL0     C56585  11.708   6.908   3.101 -0.3796  0.4294  0.2226
  420MOL0     C56586  11.739   6.964   3.249  0.7212  0.5281  0.1407
  420MOL0     C56587  11.867   6.913   3.312  0.5557 -0.1455  0.1149
  420MOL0     C56588  11.988   6.976   3.248 -0.9912 -0.1293  0.4660
  420MOL0     O56589  12.094   6.950   3.341 -0.2341 -0.0579  1.1868
  420MOL0     C56590  12.210   7.028   3.320 -0.5000 -0.6713  0.2756
  420MOL0     C56591  12.302   7.047   3.427 -0.5494 -0.0851  0.6751
  420MOL0     C56592  12.411   7.135   3.422  0.3846 -0.5080  0.5742
  420MOL0     C56593  12.449   7.188   3.296  0.5026 -0.9498 -0.6277
  420MOL0     C56594  12.576   7.256   3.271  0.0061 -0.6454 -0.1284
  420MOL0     O56595  12.647   7.273   3.386  1.1364  0.1951  0.0883
  420MOL0     C56596  12.763   7.344   3.383 -0.9249  0.0596  1.0051
  420MOL0     C56597  12.775   7.464   3.447 -1.1430 -0.2959 -0.4577
  420MOL0     C56598  12.897   7.533   3.443 -0.5132  0.0713  0.0187
  420MOL0     C56599  13.002   7.482   3.363  0.1318  0.3406  0.1706
  420MOL0     O56600  13.126   7.538   3.379 -0.2995  0.5045  0.3157
  420MOL0     C56601  13.180   7.587   3.255 -0.1087  0.0406 -0.0658
  420MOL0     C56602  13.097   7.707   3.195 -0.5615 -0.4950  0.4186
  420MOL0     C56603  13.181   7.793   3.100 -0.0183  0.0327  0.0383
  420MOL0     C56604  13.305   7.856   3.160  0.1558  0.3312 -0.2970
  420MOL0     C56605  13.375   7.932   3.045 -0.5860  0.1241  0.5363
  420MOL0     C56606  13.476   8.030   3.101  0.6191 -0.6499  0.2233
  420MOL0     C56607  13.522   8.109   2.980  0.1593 -0.2021  0.0816
  420MOL0     C56608  13.639   8.198   3.019  0.1347  0.2461  0.5698
  420MOL0    Cl56609  13.590   8.303   3.149  0.0244  0.5180 -0.3548
  420MOL0     C56610  12.987   7.355   3.305 -0.4457  0.3501 -0.6769
  420MOL0     C56611  12.873   7.283   3.310  0.5518 -0.2166 -0.2439
  420MOL0     O56612  12.611   7.282   3.160  0.5667  0.5345  1.0329
  420MOL0     C56613  12.363   7.170   3.187 -0.0618 -0.3544 -0.2766
  420MOL0     C56614  12.248   7.093   3.196 -0.6003 -0.1773  0.5966
  420MOL0     N56615  11.745   6.651   3.110  1.4248 -0.5126  0.4769
  420MOL0     N56616  11.668   6.550   3.114  0.4269 -0.3230 -0.2958
  420MOL0     C56617  10.489   6.172   3.221 -0.1737 -0.0660 -0.7223
  420MOL0     C56618  10.415   6.058   3.247  0.2568  0.1931  0.4095
  420MOL0     C56619  10.170   5.744   3.444 -0.1537  0.2477 -0.7556
  420MOL0     C56620  10.119   5.699   3.568  0.0527 -0.7047 -0.9333
  420MOL0     C56621  10.038   5.592   3.567  0.5541  0.1265 -0.2576
  420MOL0     C56622  10.009   5.513   3.460 -0.2214  0.2450  0.4508
  420MOL0     O56623   9.939   5.402   3.487 -0.0610 -0.1247 -0.1472
  420MOL0     C56624   9.895   5.310   3.389 -0.5005  0.3100  0.7379
  420MOL0     C56625   9.748   5.333   3.356  0.1417  0.1700  0.4826
  420MOL0     C56626   9.695   5.237   3.252 -0.0991  0.0547  0.5018
  420MOL0     C56627   9.557   5.177   3.278 -0.6472 -0.1462  0.0057
  420MOL0     C56628   9.505   5.111   3.158  0.0846  0.2327 -0.4884
  420MOL0     C56629   9.467   5.043   3.067  0.3235  0.0895 -0.0521
  420MOL0     C56630  10.068   5.551   3.341 -0.5067  0.1977  0.8515
  420MOL0     C56631  10.151   5.665   3.332  0.6470 -0.2903  0.7756
  420MOL0     C56632  10.216   5.696   3.199  0.0345  0.2622  1.1322
  420MOL0     H56633  10.600   5.923   3.488 -0.9508 -1.7527 -1.6187
  420MOL0     H56634  10.723   6.116   3.464  0.2223 -0.0993  1.1463
  420MOL0     H56635  10.584   6.450   3.165 -1.6603 -0.9040  0.3671
  420MOL0     H56636  10.532   6.429   3.327 -1.9618  0.4389 -1.7492
  420MOL0     H56637  10.754   6.504   3.411  3.0871 -0.6095 -1.2168
  420MOL0     H56638  10.663   6.624   3.310  0.4482  0.0407 -3.6474
  420MOL0     H56639  10.880   6.644   3.213  0.4685  0.8663  2.5415
  420MOL0     H56640  10.829   6.490   3.129  0.7608  1.6572 -0.5423
  420MOL0     H56641  10.969   6.504   3.394 -1.5454 -0.8302  0.1314
  420MOL0     H56642  10.946   6.373   3.266 -0.6251  0.9234 -3.4497
  420MOL0     H56643  11.132   6.484   3.121  0.7831  1.0894 -0.5681
  420MOL0     H56644  11.114   6.634   3.209  0.0792 -0.4437 -1.7465
  420MOL0     H56645  11.181   6.525   3.417  0.8529  3.7844 -0.7270
  420MOL0     H56646  11.234   6.381   3.322  2.1682 -0.0618  2.0947
  420MOL0     H56647  11.409   6.541   3.397  0.8621  1.4668 -0.6996
  420MOL0     H56648  11.347   6.670   3.288 -0.0915 -0.0239 -2.6993
  420MOL0     H56649  11.468   6.403   3.198  0.4577  0.6116  2.4469
  420MOL0     H56650  11.359   6.488   3.095  0.2552 -0.2800 -0.5717
  420MOL0     H56651  11.446   6.794   3.138 -0.5109 -0.8265  0.2537
  420MOL0     H56652  11.798   6.904   3.040 -0.7771  1.5638 -0.4651
  420MOL0     H56653  11.621   6.958   3.056 -1.1423 -1.8776 -1.0279
  420MOL0     H56654  11.749   7.072   3.240  1.8637  0.3113 -1.7692
  420MOL0     H56655  11.662   6.935   3.321  0.4725  1.8526  0.4319
  420MOL0     H56656  11.873   6.805   3.297 -2.1649 -0.1821 -1.6108
  420MOL0     H56657  11.857   6.929   3.420 -2.6145 -1.8890  0.2241
  420MOL0     H56658  11.977   7.083   3.228 -1.4462 -0.6302 -2.3057
  420MOL0     H56659  11.997   6.934   3.147  1.8187 -0.3501  0.7174
  420MOL0     H56660  12.280   6.983   3.511 -4.4545 -0.9670 -0.8274
  420MOL0     H56661  12.473   7.146   3.511 -1.0231  1.0561  1.4222
  420MOL0     H56662  12.697   7.506   3.510 -0.3724  1.0450 -0.3553
  420MOL0     H56663  12.894   7.621   3.506 -2.7265 -1.2012  1.8963
  420MOL0     H56664  13.278   7.620   3.291  0.1438 -1.9627  1.2506
  420MOL0     H56665  13.186   7.511   3.176  1.6694  1.1824 -1.1036
  420MOL0     H56666  13.011   7.664   3.142 -0.4615 -0.6296  0.3632
  420MOL0     H56667  13.062   7.772   3.275 -0.7294  1.3604 -1.0854
  420MOL0     H56668  13.205   7.742   3.006 -0.0379  1.7533 -0.9394
  420MOL0     H56669  13.127   7.881   3.065  1.9182 -0.0782 -3.7009
  420MOL0     H56670  13.365   7.780   3.209  1.0438  1.3494  0.2514
  420MOL0     H56671  13.285   7.929   3.239 -0.3801 -2.0864  1.8950
  420MOL0     H56672  13.298   7.988   2.991 -0.2011 -1.5676 -1.8946
  420MOL0     H56673  13.417   7.866   2.969  0.8136  1.6251 -0.0504
  420MOL0     H56674  13.433   8.095   3.177  3.1405 -0.6023  1.7364
  420MOL0     H56675  13.548   7.965   3.153 -1.1687 -1.5325  1.6890
  420MOL0     H56676  13.441   8.171   2.939 -0.1993  0.6217  1.9528
  420MOL0     H56677  13.566   8.048   2.900  2.5189  2.5860 -0.9482
  420MOL0     H56678  13.724   8.143   3.060  2.0416  2.6651  0.0949
  420MOL0     H56679  13.675   8.260   2.937 -1.0815 -0.6589 -0.6998
  420MOL0     H56680  13.074   7.315   3.254 -0.2465  0.8196 -0.7068
  420MOL0     H56681  12.859   7.183   3.269 -2.4472  1.3149 -3.5164
  420MOL0     H56682  12.386   7.212   3.089  0.7204 -1.6915 -0.6923
  420MOL0     H56683  12.180   7.099   3.112  1.9107  0.7320 -1.5122
  420MOL0     H56684  10.448   6.249   3.156 -0.6054 -1.1378 -1.7429
  420MOL0     H56685  10.332   6.039   3.180  0.1736 -2.6609  1.1963
  420MOL0     H56686  10.127   5.748   3.664 -1.0787 -3.1371  0.5194
  420MOL0     H56687   9.998   5.564   3.664  2.1105  2.2814  1.1170
  420MOL0     H56688   9.910   5.207   3.423 -1.6032  0.5835  2.2036
  420MOL0     H56689   9.955   5.330   3.300  1.0180 -0.0508  1.6531
  420MOL0     H56690   9.740   5.436   3.319 -2.0877 -0.0732  0.1793
  420MOL0     H56691   9.684   5.317   3.444  0.2945  1.6714  0.9059
  420MOL0     H56692   9.762   5.151   3.245 -0.4717 -0.6117  3.5202
  420MOL0     H56693   9.684   5.294   3.160 -2.1201  0.2817  0.8236
  420MOL0     H56694   9.565   5.100   3.356  3.0343  2.1610  2.1931
  420MOL0     H56695   9.492   5.256   3.315  1.2508  0.9403  1.1765
  420MOL0     H56696   9.421   4.987   2.988 -0.5587  1.5300 -0.5992
  420MOL0     H56697  10.051   5.491   3.253  1.1647 -0.3275  0.8433
  420MOL0     H56698  10.179   5.793   3.164 -2.9379 -0.6529  1.4554
  420MOL0     H56699  10.323   5.697   3.220 -0.0048  0.4476  1.3303
  420MOL0     H56700  10.187   5.626   3.120 -1.2759  0.5467  1.3423
  421MOL0     O56701   0.192   0.904   3.409  0.3140  0.0136  0.2136
  421MOL0     C56702   0.214   0.940   3.290 -0.1169  0.0977 -0.7137
  421MOL0     O56703   0.344   0.948   3.240  0.7978 -0.3641  0.3526
  421MOL0     C56704   0.454   0.954   3.314 -0.6905 -0.4982  0.0432
  421MOL0     C56705   0.571   0.945   3.246  0.7253 -0.7793 -0.7849
  421MOL0     C56706   0.697   0.949   3.308  0.5662 -1.2896  0.2717
  421MOL0     C56707   0.714   0.950   3.446  0.0625 -0.4806 -0.0652
  421MOL0     O56708   0.843   0.937   3.493 -0.2138 -0.2170  0.3003
  421MOL0     C56709   0.858   0.894   3.628 -0.6822 -0.3974  0.3229
  421MOL0     C56710   1.010   0.874   3.653  0.3247 -0.8214  0.0367
  421MOL0     C56711   1.043   0.855   3.800  0.5630  0.2816 -0.0847
  421MOL0     C56712   1.190   0.902   3.807 -0.1761 -0.2181 -0.2974
  421MOL0     C56713   1.253   0.909   3.950 -1.1127 -0.1868  0.5702
  421MOL0     C56714   1.207   1.040   4.023 -0.0556  0.0999  0.5821
  421MOL0     C56715   1.283   1.048   4.154  0.4041  0.3882  0.1314
  421MOL0     C56716   1.250   1.166   4.245  0.0976 -0.7466 -0.2032
  421MOL0     N56717   1.331   1.159   4.366 -0.6858 -0.2471  0.8197
  421MOL0     C56718   1.287   1.095   4.481 -0.2269 -0.6996  0.4468
  421MOL0     C56719   1.400   1.077   4.548  0.2388  1.1312  0.0297
  421MOL0     C56720   1.416   1.001   4.678 -0.4636 -0.6348 -0.2706
  421MOL0     C56721   1.404   0.849   4.655 -0.2667 -0.5082 -0.9578
  421MOL0     C56722   1.448   0.787   4.787  0.7803  0.2777 -0.4304
  421MOL0     C56723   1.467   0.639   4.782  0.3134 -0.4825  0.0211
  421MOL0     O56724   1.504   0.578   4.906  0.0998  0.0674 -0.0239
  421MOL0     C56725   1.636   0.590   4.955  0.4005  0.2807 -0.3085
  421MOL0     C56726   1.678   0.520   5.067 -0.1196 -0.6473  0.0802
  421MOL0     C56727   1.812   0.531   5.106  0.3296 -0.2035 -1.0186
  421MOL0     C56728   1.906   0.589   5.025 -0.1574  0.6283  0.4112
  421MOL0     C56729   2.044   0.565   5.053 -0.5903  0.1773  0.0065
  421MOL0     O56730   2.083   0.544   5.184  0.0306  0.5459 -0.0066
  421MOL0     C56731   2.218   0.529   5.202  0.0036  0.2282 -0.0482
  421MOL0     C56732   2.262   0.396   5.206  0.2884 -0.3442 -0.5933
  421MOL0     C56733   2.399   0.374   5.241 -0.8442  0.7243 -0.1093
  421MOL0     C56734   2.480   0.483   5.258 -0.6541  0.7247 -0.9097
  421MOL0     O56735   2.614   0.476   5.298 -0.4759  0.5541  0.4041
  421MOL0     C56736   2.701   0.376   5.243  0.3793  0.2949 -0.4093
  421MOL0     C56737   2.839   0.392   5.296  0.3694 -0.7187  0.1098
  421MOL0     C56738   2.931   0.287   5.246  0.6864  0.1216 -0.6490
  421MOL0     C56739   3.073   0.349   5.244 -0.0136  0.7689  0.3865
  421MOL0     C56740   3.180   0.239   5.222  0.4006  0.0186  0.3789
  421MOL0     C56741   3.151   0.155   5.083 -0.2750  0.3980 -0.3114
  421MOL0     C56742   3.266   0.080   5.013 -0.2095  0.4186 -0.2106
  421MOL0     C56743   3.350   0.172   4.929  0.7446  0.0150 -0.2434
  421MOL0    Cl56744   3.470   0.263   5.020 -0.0323  0.2635 -0.1400
  421MOL0     C56745   2.424   0.608   5.271 -0.2503  0.1990  0.2539
  421MOL0     C56746   2.294   0.635   5.240  0.4427  0.4855 -0.3639
  421MOL0     O56747   2.123   0.584   4.962  0.3714 -0.0179 -0.1284
  421MOL0     C56748   1.862   0.668   4.916  0.0245  0.5218 -0.5722
  421MOL0     C56749   1.725   0.665   4.879  0.3389  0.6089 -0.1924
  421MOL0     N56750   1.508   1.134   4.484 -0.6377 -0.1756 -0.1233
  421MOL0     N56751   1.466   1.190   4.376 -0.0342 -0.4126  0.5490
  421MOL0     C56752   0.588   0.962   3.522 -0.4778 -0.5605 -0.5539
  421MOL0     C56753   0.463   0.968   3.459 -0.1287  0.5134  0.8661
  421MOL0     C56754   0.101   0.970   3.198  0.1592 -0.4484  1.3009
  421MOL0     C56755   0.133   0.987   3.064 -0.6761 -0.6499 -0.7025
  421MOL0     C56756   0.045   1.039   2.970 -0.8188  0.0232  0.1013
  421MOL0     C56757  -0.087   1.070   3.015 -0.5393 -0.5374 -0.1004
  421MOL0     O56758  -0.186   1.139   2.940 -0.4167  0.0935 -0.5426
  421MOL0     C56759  -0.141   1.215   2.832  0.2920 -0.1111  0.3747
  421MOL0     C56760  -0.246   1.333   2.808  0.5783  0.1100 -0.6702
  421MOL0     C56761  -0.284   1.419   2.927  0.5922 -0.0411  0.5594
  421MOL0     C56762  -0.164   1.501   2.971  0.1010 -0.6125 -0.4279
  421MOL0     C56763  -0.196   1.602   3.065  0.1168  0.8479 -1.2221
  421MOL0     C56764  -0.239   1.688   3.138 -0.9721 -0.0058  0.0458
  421MOL0     C56765  -0.125   1.031   3.144 -1.0713  0.6512 -0.7136
  421MOL0     C56766  -0.033   0.987   3.236  0.6062 -0.4488  0.0905
  421MOL0     C56767  -0.082   0.979   3.382  0.2209  0.0311 -0.7663
  421MOL0     H56768   0.577   0.943   3.138 -1.3310  0.2865 -0.9613
  421MOL0     H56769   0.792   0.962   3.256  0.9943  0.1691  1.3539
  421MOL0     H56770   0.825   0.971   3.699  1.7078  1.7527 -0.7180
  421MOL0     H56771   0.805   0.801   3.649  1.3212 -1.3627  1.3630
  421MOL0     H56772   1.045   0.972   3.619  1.2354 -0.7221  1.2002
  421MOL0     H56773   1.050   0.801   3.582 -0.1709 -0.1684 -0.9495
  421MOL0     H56774   1.039   0.747   3.818 -1.3179  0.4074  0.4449
  421MOL0     H56775   0.973   0.908   3.864  1.2895  0.6376  0.4354
  421MOL0     H56776   1.257   0.838   3.750  2.0911  0.6861  1.2188
  421MOL0     H56777   1.198   1.000   3.758  0.0297 -1.1259 -2.1680
  421MOL0     H56778   1.221   0.821   4.006 -2.1052 -0.0804  0.2008
  421MOL0     H56779   1.361   0.909   3.936 -1.4205 -1.1949 -2.5906
  421MOL0     H56780   1.228   1.130   3.964 -2.5665  1.5515  1.7563
  421MOL0     H56781   1.100   1.040   4.047  0.1930  1.8025  1.9512
  421MOL0     H56782   1.389   1.052   4.128  0.0441  0.6759 -1.3937
  421MOL0     H56783   1.254   0.956   4.205 -2.0248 -0.7116 -2.8999
  421MOL0     H56784   1.269   1.255   4.184 -0.0329 -1.0021 -0.6243
  421MOL0     H56785   1.146   1.186   4.273  0.3521  0.8104 -0.2770
  421MOL0     H56786   1.185   1.065   4.502 -0.4979 -1.8376 -2.1114
  421MOL0     H56787   1.514   1.020   4.722 -0.1652 -1.0533 -0.7474
  421MOL0     H56788   1.342   1.038   4.750  0.0887 -0.2897  0.1251
  421MOL0     H56789   1.298   0.831   4.638  0.1071 -4.2953 -0.2013
  421MOL0     H56790   1.467   0.801   4.579  0.6181 -1.4326  0.3150
  421MOL0     H56791   1.367   0.799   4.859 -0.4427 -0.1857 -1.6729
  421MOL0     H56792   1.541   0.831   4.822 -0.1441  1.7122  0.3124
  421MOL0     H56793   1.543   0.602   4.712  2.4285 -0.3883  2.1428
  421MOL0     H56794   1.369   0.596   4.762  0.0212  0.8099 -1.5256
  421MOL0     H56795   1.613   0.447   5.115  0.1340 -2.1082 -1.6657
  421MOL0     H56796   1.839   0.478   5.197  4.4612  1.7079 -0.8899
  421MOL0     H56797   2.187   0.318   5.197 -1.0673  0.3284  3.0902
  421MOL0     H56798   2.449   0.278   5.251  0.6507  1.2106 -2.1806
  421MOL0     H56799   2.672   0.272   5.254  1.8363  0.1078  2.4991
  421MOL0     H56800   2.706   0.394   5.135 -0.5785  1.0437 -0.3383
  421MOL0     H56801   2.873   0.494   5.272 -2.7982  0.3179 -0.4085
  421MOL0     H56802   2.842   0.387   5.405 -0.2850  2.4478  0.3833
  421MOL0     H56803   2.927   0.195   5.305 -0.0040 -1.7126 -3.3864
  421MOL0     H56804   2.889   0.254   5.151 -1.9201 -1.8250  1.0389
  421MOL0     H56805   3.097   0.399   5.339  0.2770  0.2439  0.5915
  421MOL0     H56806   3.082   0.409   5.153  0.3434 -2.3462 -1.7951
  421MOL0     H56807   3.176   0.168   5.305 -4.4276 -0.6223 -0.1470
  421MOL0     H56808   3.281   0.282   5.216  0.0263  1.1639  1.8509
  421MOL0     H56809   3.080   0.077   5.112  1.8759 -1.0669  1.3264
  421MOL0     H56810   3.102   0.225   5.016  1.0124  1.3810 -0.2642
  421MOL0     H56811   3.218   0.004   4.952 -1.6716  0.0753  1.2897
  421MOL0     H56812   3.330   0.031   5.087 -2.2436  1.2176  2.2384
  421MOL0     H56813   3.409   0.106   4.865  0.4959 -0.3333 -0.1145
  421MOL0     H56814   3.282   0.232   4.867  0.6721  0.2387  0.0537
  421MOL0     H56815   2.495   0.689   5.287 -0.5497  0.8093 -1.3607
  421MOL0     H56816   2.251   0.733   5.256  1.9299  1.8435 -3.7909
  421MOL0     H56817   1.930   0.721   4.851  0.7949  0.9278  0.5321
  421MOL0     H56818   1.717   0.712   4.782  0.7744 -1.3351 -1.2092
  421MOL0     H56819   0.599   0.977   3.629 -0.0399  0.7110 -0.7566
  421MOL0     H56820   0.378   0.983   3.524  0.2613  0.2557  1.4403
  421MOL0     H56821   0.231   0.965   3.021  0.3339  2.4327 -0.2058
  421MOL0     H56822   0.079   1.057   2.869 -0.9987 -2.1292 -0.3866
  421MOL0     H56823  -0.147   1.153   2.742  0.0507  1.5902 -0.8486
  421MOL0     H56824  -0.039   1.253   2.836  0.3954 -0.4749  1.8070
  421MOL0     H56825  -0.335   1.295   2.757  0.2575  1.0243 -0.8081
  421MOL0     H56826  -0.210   1.398   2.728 -1.3514  3.5276  1.0062
  421MOL0     H56827  -0.329   1.371   3.014 -1.4793 -0.6006 -0.7578
  421MOL0     H56828  -0.364   1.484   2.890 -0.6201 -1.6272  0.3101
  421MOL0     H56829  -0.083   1.434   3.002  1.5773  1.4199  0.3170
  421MOL0     H56830  -0.128   1.554   2.882  0.8928  0.0493  0.2702
  421MOL0     H56831  -0.282   1.762   3.201 -1.7684  0.0430 -0.5396
  421MOL0     H56832  -0.227   1.049   3.176 -1.0110 -0.8030  0.3692
  421MOL0     H56833  -0.168   1.045   3.393  0.1523 -0.2940  0.9651
  421MOL0     H56834  -0.120   0.877   3.389 -0.5481  0.3863  0.6592
  421MOL0     H56835  -0.004   1.013   3.452  0.0809 -0.8199 -0.1707
  422MOL0     O56836   9.677   9.927   7.852  0.1208  0.1511  0.7528
  422MOL0     C56837   9.609   9.942   7.947  0.1198  0.4423  0.1366
  422MOL0     O56838   9.618  10.039   8.033 -0.0406 -0.4058 -0.4292
  422MOL0     C56839   9.724  10.128   8.051 -0.5613 -0.7021 -0.3420
  422MOL0     C56840   9.854  10.108   7.996 -0.6607  0.3584  0.8034
  422MOL0     C56841   9.956  10.209   8.013 -0.2327  0.1761 -0.6230
  422MOL0     C56842   9.921  10.332   8.069  1.0814 -0.1273  0.3159
  422MOL0     O56843  10.006  10.434   8.063  0.0440  0.4857  0.4845
  422MOL0     C56844   9.977  10.554   8.143  0.0246  0.3399  0.5972
  422MOL0     C56845  10.095  10.643   8.151 -0.0658  0.0575  0.4358
  422MOL0     C56846  10.220  10.563   8.207 -0.2145 -0.4995  0.8738
  422MOL0     C56847  10.322  10.675   8.233  0.2089 -0.4278  1.0013
  422MOL0     C56848  10.446  10.612   8.291 -0.0858  0.2573 -0.2735
  422MOL0     C56849  10.567  10.702   8.279  0.5544 -0.3957 -0.1421
  422MOL0     C56850  10.691  10.672   8.368  0.4992 -0.1721 -0.0263
  422MOL0     C56851  10.726  10.529   8.352 -0.0226  0.6026  0.7075
  422MOL0     N56852  10.840  10.491   8.436  0.0075 -0.4534  0.0857
  422MOL0     C56853  10.960  10.454   8.381 -0.2943  0.0292 -0.6999
  422MOL0     C56854  11.047  10.447   8.492 -0.3807  0.2313 -0.4294
  422MOL0     C56855  11.188  10.402   8.492  0.0147 -0.2945  0.2778
  422MOL0     C56856  11.279  10.519   8.533  0.3986  0.4465  0.4550
  422MOL0     C56857  11.411  10.450   8.566 -0.3221  0.2765 -0.7390
  422MOL0     C56858  11.531  10.539   8.611 -0.7676  0.7046  0.7520
  422MOL0     O56859  11.644  10.456   8.642  0.1675  0.0122  0.7902
  422MOL0     C56860  11.755  10.535   8.675  0.3459  1.0032  0.8389
  422MOL0     C56861  11.762  10.671   8.715 -0.5352  0.4049 -0.0343
  422MOL0     C56862  11.887  10.735   8.747  0.9908 -0.4361 -0.3467
  422MOL0     C56863  12.002  10.664   8.727 -0.1989  0.0657  0.0825
  422MOL0     C56864  12.128  10.736   8.730 -0.2271  1.0466  0.3361
  422MOL0     O56865  12.221  10.704   8.629  0.4895 -0.3895  0.9475
  422MOL0     C56866  12.338  10.777   8.624  0.8036 -0.0849 -0.3989
  422MOL0     C56867  12.341  10.916   8.635  0.1828  0.0551  0.5013
  422MOL0     C56868  12.468  10.980   8.621 -0.1904 -0.0633 -0.2930
  422MOL0     C56869  12.592  10.909   8.624  1.2764 -0.1704 -0.3187
  422MOL0     O56870  12.707  10.977   8.637  0.2793 -0.5568 -0.1466
  422MOL0     C56871  12.818  10.912   8.697 -0.5306 -0.3075  0.0552
  422MOL0     C56872  12.938  11.003   8.660 -1.2091 -0.0149  0.3864
  422MOL0     C56873  13.062  10.933   8.718  0.6326  0.3080  0.0288
  422MOL0     C56874  13.189  10.944   8.625  0.0424 -0.1282  0.1124
  422MOL0     C56875  13.306  10.846   8.651  0.9562 -0.6848  0.1137
  422MOL0     C56876  13.360  10.874   8.788 -0.3016 -0.1098  0.4941
  422MOL0     C56877  13.500  10.809   8.797  0.2871 -0.3907 -0.0208
  422MOL0     C56878  13.530  10.757   8.944 -0.5002 -0.8808  0.3806
  422MOL0    Cl56879  13.682  10.655   8.936 -0.4533  0.4143  0.0396
  422MOL0     C56880  12.581  10.771   8.602 -0.1942 -0.6234 -0.5830
  422MOL0     C56881  12.455  10.705   8.606 -0.1813 -0.0316 -0.0952
  422MOL0     O56882  12.139  10.827   8.814  0.4519 -0.0309  0.5140
  422MOL0     C56883  11.999  10.530   8.693  0.1011 -0.0141  0.6606
  422MOL0     C56884  11.876  10.463   8.664 -0.0088 -0.5778  0.2192
  422MOL0     N56885  10.978  10.490   8.605 -0.1378 -0.1952 -0.4902
  422MOL0     N56886  10.853  10.509   8.572 -0.5428 -0.0367 -0.7040
  422MOL0     C56887   9.796  10.340   8.140  0.0981  0.4481  0.5561
  422MOL0     C56888   9.704  10.237   8.132 -0.1782 -0.3556  0.3962
  422MOL0     C56889   9.514   9.844   7.995  0.2256 -1.0390 -0.2933
  422MOL0     C56890   9.504   9.822   8.135  0.4017 -0.2569  0.2214
  422MOL0     C56891   9.408   9.730   8.188  0.1957 -0.8388  0.0649
  422MOL0     C56892   9.315   9.665   8.105 -0.2682  0.1877  0.6928
  422MOL0     O56893   9.231   9.571   8.154 -0.2929  0.2243 -0.0703
  422MOL0     C56894   9.104   9.568   8.097  0.1004 -0.6043  0.0577
  422MOL0     C56895   8.994   9.537   8.198 -0.0475  0.0152 -1.0477
  422MOL0     C56896   8.848   9.509   8.148  0.4553  0.3796 -0.0444
  422MOL0     C56897   8.783   9.620   8.071  0.0413  0.1740 -0.7945
  422MOL0     C56898   8.806   9.746   8.133 -0.0897 -0.2676 -0.4052
  422MOL0     C56899   8.810   9.854   8.183  0.5793 -0.0144 -0.2542
  422MOL0     C56900   9.324   9.686   7.967 -0.0025  0.1901 -0.5376
  422MOL0     C56901   9.418   9.774   7.905  0.1156  0.9092 -0.4007
  422MOL0     C56902   9.409   9.790   7.748  0.5079  0.6699  0.3689
  422MOL0     H56903   9.880  10.020   7.938  0.3261  1.3577 -0.3301
  422MOL0     H56904  10.060  10.207   7.982 -0.7018  2.1552 -2.6368
  422MOL0     H56905   9.892  10.603   8.095  1.3061  1.9994 -0.0647
  422MOL0     H56906   9.938  10.523   8.240 -4.1341 -2.2277 -1.6045
  422MOL0     H56907  10.071  10.737   8.203  0.0884 -0.3089  1.1875
  422MOL0     H56908  10.122  10.672   8.049  1.9122 -1.3126  0.4998
  422MOL0     H56909  10.269  10.492   8.141 -1.4967  1.0887 -1.9583
  422MOL0     H56910  10.205  10.522   8.307  0.5438  1.8630  2.0406
  422MOL0     H56911  10.341  10.726   8.139 -2.3529  1.5604  1.4540
  422MOL0     H56912  10.293  10.749   8.308 -1.7011 -1.2034  1.0903
  422MOL0     H56913  10.432  10.585   8.396  1.8870 -0.7023 -0.2184
  422MOL0     H56914  10.474  10.519   8.241 -3.3461 -0.6497 -0.6630
  422MOL0     H56915  10.587  10.709   8.172 -0.7582 -0.4293 -0.4041
  422MOL0     H56916  10.542  10.802   8.315 -0.6197 -1.1581  1.2646
  422MOL0     H56917  10.667  10.692   8.472  1.2136 -0.3658  0.1825
  422MOL0     H56918  10.779  10.735   8.351  0.5892 -0.1906  0.3620
  422MOL0     H56919  10.644  10.461   8.378  0.1800  0.4479  0.9457
  422MOL0     H56920  10.754  10.509   8.248  4.4222 -0.4596  1.8917
  422MOL0     H56921  10.987  10.425   8.280  4.1653 -2.0019  0.8467
  422MOL0     H56922  11.207  10.314   8.554  0.8219  1.5324  2.8244
  422MOL0     H56923  11.214  10.374   8.389 -2.6608 -0.4199 -0.4216
  422MOL0     H56924  11.295  10.582   8.445  1.3422  1.5767  1.3885
  422MOL0     H56925  11.233  10.579   8.612 -5.0650 -0.4994 -1.6300
  422MOL0     H56926  11.450  10.386   8.486  0.3171 -0.6902  0.3208
  422MOL0     H56927  11.397  10.382   8.650  3.0966 -1.5134 -1.4283
  422MOL0     H56928  11.503  10.591   8.703 -0.6617  0.8201  0.7203
  422MOL0     H56929  11.551  10.609   8.529 -2.0176 -1.7349 -1.7804
  422MOL0     H56930  11.682  10.743   8.728  0.3366  1.0541  2.3221
  422MOL0     H56931  11.890  10.837   8.784  0.5887 -0.5190 -0.0796
  422MOL0     H56932  12.252  10.977   8.649 -0.3605 -0.5780 -0.1877
  422MOL0     H56933  12.471  11.087   8.634  0.5277 -0.0709 -0.3835
  422MOL0     H56934  12.808  10.902   8.806 -0.1862  1.7983  0.3269
  422MOL0     H56935  12.825  10.811   8.654 -6.0028 -1.1143  0.3313
  422MOL0     H56936  12.944  11.011   8.551 -2.5997 -3.9537 -0.1385
  422MOL0     H56937  12.930  11.102   8.705  2.5311  0.2528  0.7883
  422MOL0     H56938  13.085  10.963   8.820 -1.5360 -1.0819  1.0050
  422MOL0     H56939  13.040  10.826   8.723 -0.2410  0.5469  1.9305
  422MOL0     H56940  13.238  11.042   8.634 -0.5324  0.3748 -1.6559
  422MOL0     H56941  13.171  10.922   8.519  2.9391 -0.2785 -0.4299
  422MOL0     H56942  13.382  10.858   8.573  1.5213  0.1811  0.7918
  422MOL0     H56943  13.260  10.747   8.645 -2.3220  0.7714 -1.0884
  422MOL0     H56944  13.368  10.982   8.805  0.7478 -0.1069  0.0768
  422MOL0     H56945  13.294  10.830   8.863  0.7919 -0.8184  1.0746
  422MOL0     H56946  13.573  10.889   8.779  2.1519 -2.5185 -2.8853
  422MOL0     H56947  13.497  10.720   8.734 -0.3362 -0.1012 -0.4165
  422MOL0     H56948  13.540  10.837   9.019  3.9040 -1.1229  0.3344
  422MOL0     H56949  13.450  10.695   8.984  0.1074  0.0744  3.3901
  422MOL0     H56950  12.665  10.703   8.593  0.4101 -0.0680  0.5846
  422MOL0     H56951  12.462  10.599   8.587  0.2695 -0.5065  2.3903
  422MOL0     H56952  12.088  10.472   8.673  0.3083  1.1573 -2.3734
  422MOL0     H56953  11.884  10.358   8.641 -2.1269 -1.1440  1.7550
  422MOL0     H56954   9.770  10.435   8.185 -1.1102 -0.3280  1.5552
  422MOL0     H56955   9.610  10.253   8.184  1.3310 -2.6807  4.2774
  422MOL0     H56956   9.577   9.862   8.205  1.9304 -1.4030 -0.6366
  422MOL0     H56957   9.406   9.698   8.292  0.6748 -0.3335  0.2343
  422MOL0     H56958   9.097   9.493   8.018 -0.2455 -0.1942 -0.2991
  422MOL0     H56959   9.069   9.661   8.053 -1.7507 -0.5635  1.4870
  422MOL0     H56960   8.997   9.616   8.274 -0.0279  1.7695 -2.7941
  422MOL0     H56961   9.027   9.446   8.248  0.0298 -0.7788 -2.4934
  422MOL0     H56962   8.784   9.491   8.234  1.3078 -2.1923  0.1283
  422MOL0     H56963   8.855   9.420   8.085 -0.1100 -0.6797  1.3422
  422MOL0     H56964   8.815   9.629   7.967  0.0258  2.7897 -0.6384
  422MOL0     H56965   8.677   9.592   8.074  0.5513 -1.9336 -0.8878
  422MOL0     H56966   8.802   9.952   8.225 -2.5862  0.3434 -1.4565
  422MOL0     H56967   9.247   9.628   7.917 -1.3274  1.1148  0.3642
  422MOL0     H56968   9.509   9.798   7.704  1.6416 -0.3775  2.5956
  422MOL0     H56969   9.353   9.707   7.703  0.2753  0.8150  0.3861
  422MOL0     H56970   9.360   9.882   7.714 -0.5588 -0.5408 -1.6181
  423MOL0     O56971   6.207   4.487   1.719  0.4571  0.2018  0.0897
  423MOL0     C56972   6.194   4.366   1.691  0.1383  1.2062 -0.0582
  423MOL0     O56973   6.295   4.285   1.659 -0.0851 -0.2535 -0.2839
  423MOL0     C56974   6.418   4.338   1.629 -0.5651 -0.2430 -1.1119
  423MOL0     C56975   6.536   4.298   1.702 -0.0820 -0.2702  0.2915
  423MOL0     C56976   6.666   4.344   1.670  0.1537 -0.1155  0.4538
  423MOL0     C56977   6.687   4.430   1.560 -0.4483 -0.1450  0.7772
  423MOL0     O56978   6.816   4.460   1.518 -0.3692 -0.3066  0.0141
  423MOL0     C56979   6.839   4.530   1.392  0.0043 -0.3319  0.0741
  423MOL0     C56980   6.983   4.496   1.343 -0.5951  0.3543  0.4382
  423MOL0     C56981   7.014   4.600   1.235  0.8472 -1.3425  0.3250
  423MOL0     C56982   7.170   4.598   1.198  0.6963  0.3475 -0.5620
  423MOL0     C56983   7.255   4.669   1.307  0.3358 -0.3263  0.5572
  423MOL0     C56984   7.407   4.651   1.262  0.2052  0.1175 -0.5679
  423MOL0     C56985   7.507   4.679   1.376  0.1083 -0.0688 -0.1423
  423MOL0     C56986   7.507   4.565   1.483  0.0475 -0.2015  0.2177
  423MOL0     N56987   7.600   4.599   1.593  0.2804 -0.4287  1.1601
  423MOL0     C56988   7.703   4.518   1.627 -0.3744 -0.7982 -0.3620
  423MOL0     C56989   7.754   4.586   1.737 -0.0631 -0.5304 -0.0124
  423MOL0     C56990   7.857   4.520   1.831  0.0097 -0.6958  0.2081
  423MOL0     C56991   7.949   4.422   1.755 -0.0890  0.3465  0.6340
  423MOL0     C56992   8.062   4.373   1.849  1.0729 -0.2946 -0.8344
  423MOL0     C56993   8.175   4.476   1.868  0.3289 -0.3306  0.2835
  423MOL0     O56994   8.302   4.411   1.858 -0.2852 -0.7417  0.1212
  423MOL0     C56995   8.414   4.492   1.854  0.6173  1.5851  0.5495
  423MOL0     C56996   8.529   4.421   1.869  0.3862  0.6591  0.4684
  423MOL0     C56997   8.646   4.489   1.861 -0.5123 -0.0325  0.1294
  423MOL0     C56998   8.645   4.629   1.848 -0.4705  0.5834 -0.2490
  423MOL0     C56999   8.769   4.709   1.866  0.8985  0.9916 -0.8667
  423MOL0     O57000   8.865   4.652   1.944 -0.4201  0.4856 -0.2421
  423MOL0     C57001   8.957   4.735   2.003  0.2879  0.9421 -0.0594
  423MOL0     C57002   8.933   4.864   2.055 -0.4283 -0.8814 -0.9350
  423MOL0     C57003   9.028   4.935   2.126 -0.4506 -0.0653  0.6910
  423MOL0     C57004   9.164   4.884   2.150  0.3641 -0.3025  0.1269
  423MOL0     O57005   9.265   4.951   2.212  0.1229  1.0009  0.8711
  423MOL0     C57006   9.241   5.088   2.226  0.1093  0.4937  0.0598
  423MOL0     C57007   9.363   5.153   2.301  0.0785  1.1549  0.9657
  423MOL0     C57008   9.481   5.173   2.209  0.2670  0.2487  0.2790
  423MOL0     C57009   9.579   5.267   2.274  0.3052  0.0844  0.6097
  423MOL0     C57010   9.535   5.408   2.259  0.0004  0.3140  0.5195
  423MOL0     C57011   9.643   5.504   2.300  0.1896  0.2671 -0.2013
  423MOL0     C57012   9.602   5.654   2.293  0.2438  0.4325  0.1243
  423MOL0     C57013   9.658   5.732   2.410 -0.5260  0.4222  0.7261
  423MOL0    Cl57014   9.827   5.699   2.438 -0.0329  0.2037  0.2454
  423MOL0     C57015   9.181   4.748   2.106 -0.3298  0.8091 -0.2732
  423MOL0     C57016   9.081   4.672   2.040 -0.4669  0.9523 -0.1725
  423MOL0     O57017   8.775   4.812   1.804 -0.2647  0.2735  0.1187
  423MOL0     C57018   8.531   4.709   1.849  0.5338 -0.3091  0.4584
  423MOL0     C57019   8.411   4.633   1.851 -0.5943 -0.7579 -0.0265
  423MOL0     N57020   7.673   4.698   1.770 -0.8422  0.3444  0.9037
  423MOL0     N57021   7.587   4.706   1.670  0.4979  0.1713  0.2993
  423MOL0     C57022   6.568   4.470   1.492  0.6161 -0.6838  0.3605
  423MOL0     C57023   6.439   4.421   1.523 -0.3880 -0.2072  0.1233
  423MOL0     C57024   6.057   4.307   1.690 -0.6335 -0.4796 -0.3038
  423MOL0     C57025   5.950   4.401   1.721 -0.0601  0.0590 -0.2395
  423MOL0     C57026   5.820   4.381   1.680 -0.0114 -0.4947 -0.4415
  423MOL0     C57027   5.788   4.256   1.620 -0.0851  0.0087 -0.5803
  423MOL0     O57028   5.664   4.221   1.571 -0.3682 -0.5365 -0.2345
  423MOL0     C57029   5.551   4.319   1.574 -0.0025 -1.1078  0.1234
  423MOL0     C57030   5.451   4.252   1.483  0.3811  0.0929 -0.7240
  423MOL0     C57031   5.312   4.328   1.476 -0.8020 -0.1122 -0.4928
  423MOL0     C57032   5.221   4.290   1.361  0.4394 -0.2030  0.5577
  423MOL0     C57033   5.082   4.321   1.394  0.0536 -0.6771 -0.6247
  423MOL0     C57034   4.968   4.346   1.428 -0.2804 -0.2819 -0.8114
  423MOL0     C57035   5.889   4.154   1.612  0.5854  0.1689 -0.7734
  423MOL0     C57036   6.023   4.174   1.631 -0.5915  0.2184  0.6563
  423MOL0     C57037   6.129   4.081   1.573  0.5757 -0.4905  0.5666
  423MOL0     H57038   6.530   4.233   1.789 -1.1825 -1.9435 -0.9731
  423MOL0     H57039   6.745   4.301   1.731 -0.0627 -0.7404  0.2942
  423MOL0     H57040   6.771   4.516   1.307 -0.1113  0.3613  0.0472
  423MOL0     H57041   6.829   4.637   1.407  0.5427 -0.2324 -0.2639
  423MOL0     H57042   6.988   4.394   1.303 -1.0549  0.7616 -0.6703
  423MOL0     H57043   7.058   4.501   1.422  1.4328  0.9441 -1.4374
  423MOL0     H57044   6.987   4.700   1.272  1.5138 -0.1557 -2.1466
  423MOL0     H57045   6.942   4.594   1.152 -1.4032  1.5169  1.8719
  423MOL0     H57046   7.205   4.494   1.197 -1.3588 -0.4153  0.9517
  423MOL0     H57047   7.174   4.650   1.101 -0.7808 -1.8695 -1.8920
  423MOL0     H57048   7.221   4.773   1.321 -0.5163 -0.6166  0.6956
  423MOL0     H57049   7.249   4.621   1.405 -1.0094 -4.5891 -1.4006
  423MOL0     H57050   7.419   4.548   1.229  1.2684  0.1173 -0.2170
  423MOL0     H57051   7.428   4.710   1.172  1.3446  0.1677 -0.2762
  423MOL0     H57052   7.497   4.776   1.425  3.9171  1.3974 -1.8617
  423MOL0     H57053   7.604   4.683   1.326  0.5207 -0.1378  0.6327
  423MOL0     H57054   7.412   4.555   1.535  0.9791 -1.9457  1.7099
  423MOL0     H57055   7.526   4.470   1.433  0.5565 -1.0340  1.9168
  423MOL0     H57056   7.742   4.418   1.612  1.5940 -0.5200  2.2212
  423MOL0     H57057   7.912   4.589   1.896  0.8659 -4.7987  4.3880
  423MOL0     H57058   7.805   4.455   1.902 -0.6705 -0.7080 -0.2896
  423MOL0     H57059   7.880   4.340   1.730 -0.3057 -0.0797  2.4463
  423MOL0     H57060   7.988   4.463   1.662 -1.8892  1.3093  0.2639
  423MOL0     H57061   8.111   4.285   1.806 -0.2104 -2.4024  1.7349
  423MOL0     H57062   8.029   4.344   1.949 -0.0319  1.2625 -0.7111
  423MOL0     H57063   8.169   4.537   1.959 -1.3973  1.1929 -0.7771
  423MOL0     H57064   8.159   4.543   1.783 -0.8036 -3.1183 -1.8729
  423MOL0     H57065   8.528   4.312   1.876 -0.3127  0.5841 -0.5059
  423MOL0     H57066   8.741   4.436   1.860 -1.2194 -1.3203 -1.2215
  423MOL0     H57067   8.836   4.910   2.040 -1.9335 -3.4061  0.3968
  423MOL0     H57068   9.002   5.037   2.154  2.0240  0.6052  0.8280
  423MOL0     H57069   9.221   5.139   2.132  0.0128 -0.5924 -0.5225
  423MOL0     H57070   9.156   5.096   2.295  0.3527  0.4408  0.3701
  423MOL0     H57071   9.317   5.247   2.334 -1.7229  0.9013 -0.6537
  423MOL0     H57072   9.383   5.085   2.384  1.0392  0.2367  0.0133
  423MOL0     H57073   9.523   5.073   2.193 -1.5521 -0.5840  0.5061
  423MOL0     H57074   9.451   5.217   2.114 -0.6231 -2.9620 -1.0372
  423MOL0     H57075   9.675   5.252   2.224 -0.1071  0.9502 -0.4827
  423MOL0     H57076   9.583   5.241   2.380  2.2087 -0.1443  0.5037
  423MOL0     H57077   9.445   5.430   2.317  2.2127  0.7813  4.0785
  423MOL0     H57078   9.524   5.420   2.150  0.6482 -2.4567  0.0667
  423MOL0     H57079   9.666   5.480   2.405 -0.7036 -0.4162 -0.1447
  423MOL0     H57080   9.730   5.495   2.234  0.0950  3.4055 -0.9129
  423MOL0     H57081   9.496   5.673   2.280 -0.2128 -0.5617  1.9957
  423MOL0     H57082   9.637   5.692   2.197 -0.7384 -0.4929 -0.6238
  423MOL0     H57083   9.653   5.838   2.382  1.2937  0.5867  0.8911
  423MOL0     H57084   9.610   5.714   2.506 -0.3389  3.9559  1.6444
  423MOL0     H57085   9.279   4.706   2.123 -1.9160 -4.5949 -2.4147
  423MOL0     H57086   9.096   4.570   2.006  0.1907  1.8730 -2.8561
  423MOL0     H57087   8.527   4.817   1.842  2.4880 -0.2372 -0.4776
  423MOL0     H57088   8.318   4.689   1.856  0.2846  0.6779  0.9278
  423MOL0     H57089   6.562   4.526   1.400  0.9951 -3.4376 -1.4664
  423MOL0     H57090   6.350   4.457   1.473  0.3246  1.2802 -0.1252
  423MOL0     H57091   5.966   4.492   1.778 -0.8555 -0.2160  0.4502
  423MOL0     H57092   5.747   4.458   1.703  0.2742  0.0954 -1.4572
  423MOL0     H57093   5.591   4.413   1.537  0.2777 -0.2193  2.5246
  423MOL0     H57094   5.508   4.339   1.673  0.2009  2.0174 -0.3334
  423MOL0     H57095   5.436   4.150   1.520  2.3967 -0.0013 -0.0602
  423MOL0     H57096   5.494   4.255   1.382 -0.5125  2.6315 -1.0975
  423MOL0     H57097   5.337   4.435   1.472 -2.2249  0.2434 -0.3851
  423MOL0     H57098   5.251   4.315   1.566 -0.6307  0.8178 -0.2283
  423MOL0     H57099   5.245   4.334   1.264 -1.3564  2.1439  1.0992
  423MOL0     H57100   5.223   4.181   1.363 -2.8287 -0.3391  1.7184
  423MOL0     H57101   4.864   4.359   1.446 -1.2216 -4.9821 -1.6771
  423MOL0     H57102   5.858   4.058   1.571  0.5668 -0.1901  0.0586
  423MOL0     H57103   6.177   4.110   1.479  0.0809 -2.3364 -0.2997
  423MOL0     H57104   6.209   4.072   1.648  1.9625 -0.5984 -0.8750
  423MOL0     H57105   6.094   3.978   1.559 -1.2952  0.3660 -1.6588
  424MOL0     O57106   0.357   0.731   4.346 -0.1767 -0.2040  0.3172
  424MOL0     C57107   0.292   0.783   4.257 -0.2476  0.7755 -0.5366
  424MOL0     O57108   0.268   0.718   4.140 -0.4354  0.4766  0.9708
  424MOL0     C57109   0.310   0.593   4.123 -0.5807 -0.7091  0.7686
  424MOL0     C57110   0.241   0.486   4.177 -0.2409  0.3710  0.6001
  424MOL0     C57111   0.300   0.359   4.157  0.6309  0.5919 -0.5604
  424MOL0     C57112   0.419   0.341   4.091  0.0507 -1.5955  0.6815
  424MOL0     O57113   0.473   0.221   4.088 -0.1997  0.2005  0.1046
  424MOL0     C57114   0.402   0.117   4.020 -0.2480 -0.3738  0.1969
  424MOL0     C57115   0.488   0.014   3.937  0.2620  0.1367  0.5758
  424MOL0     C57116   0.532  -0.107   4.017  0.2622  0.0314  0.1786
  424MOL0     C57117   0.659  -0.058   4.097  0.4123  0.3408  0.2243
  424MOL0     C57118   0.726  -0.158   4.183  0.0386 -0.2364  0.2121
  424MOL0     C57119   0.865  -0.097   4.222  0.5690 -0.2384  0.3260
  424MOL0     C57120   0.945  -0.188   4.324  0.2991 -0.1022 -0.4600
  424MOL0     C57121   1.005  -0.326   4.282 -0.2750  0.2071  0.0673
  424MOL0     N57122   1.110  -0.307   4.179  0.6082 -0.2778  0.7412
  424MOL0     C57123   1.090  -0.291   4.045  0.5389 -0.4169 -0.3006
  424MOL0     C57124   1.209  -0.242   3.999 -0.4639 -0.6229 -0.1381
  424MOL0     C57125   1.232  -0.225   3.852  0.0691 -0.5175 -0.0965
  424MOL0     C57126   1.216  -0.360   3.780  0.1158  0.4653 -0.2611
  424MOL0     C57127   1.251  -0.332   3.634  0.4906 -0.5644 -0.3463
  424MOL0     C57128   1.387  -0.281   3.610 -0.1026  0.2521 -0.1774
  424MOL0     O57129   1.486  -0.339   3.687  0.0738  0.8074 -0.2125
  424MOL0     C57130   1.616  -0.295   3.666  0.2738  0.1101 -0.1805
  424MOL0     C57131   1.696  -0.268   3.784  0.4251 -0.6202  0.6983
  424MOL0     C57132   1.831  -0.234   3.778  0.1398  0.3371  0.5985
  424MOL0     C57133   1.891  -0.227   3.647  0.0736  0.5045 -0.0786
  424MOL0     C57134   2.032  -0.186   3.643  0.1552  0.6373 -0.0648
  424MOL0     O57135   2.084  -0.148   3.758 -0.4033 -0.1850 -0.6555
  424MOL0     C57136   2.210  -0.085   3.765 -1.0716 -0.2675  0.5250
  424MOL0     C57137   2.280  -0.092   3.885 -0.4264 -0.1730 -0.8630
  424MOL0     C57138   2.406  -0.030   3.906  0.6146  0.0267  0.0916
  424MOL0     C57139   2.463   0.059   3.810  0.7304  0.2162 -0.8739
  424MOL0     O57140   2.579   0.133   3.830 -0.0671  0.7283  0.7451
  424MOL0     C57141   2.677   0.076   3.910 -0.4131 -0.0367  0.4231
  424MOL0     C57142   2.813   0.153   3.896 -0.0903 -0.1661  0.1071
  424MOL0     C57143   2.915   0.113   3.993  0.5913  0.5454 -0.0869
  424MOL0     C57144   3.053   0.182   3.959 -0.6124  0.8163  0.2662
  424MOL0     C57145   3.158   0.147   4.072 -0.4090  0.4878  0.1805
  424MOL0     C57146   3.299   0.220   4.056  0.5442  0.4112 -0.2042
  424MOL0     C57147   3.397   0.192   4.179 -1.1444  0.1557 -0.1644
  424MOL0     C57148   3.526   0.283   4.186  0.2508  0.4630  0.3947
  424MOL0    Cl57149   3.635   0.260   4.328  0.4865 -0.1975 -0.5479
  424MOL0     C57150   2.384   0.085   3.699 -0.6961  0.5618 -0.3922
  424MOL0     C57151   2.260   0.012   3.670 -0.4063 -0.5035  0.1233
  424MOL0     O57152   2.080  -0.176   3.530  0.1082 -0.0700 -0.5392
  424MOL0     C57153   1.820  -0.244   3.530 -0.1643 -0.0775  0.5703
  424MOL0     C57154   1.680  -0.272   3.542  0.6277  0.4761 -0.4357
  424MOL0     N57155   1.304  -0.250   4.106 -0.1754 -0.5510 -0.3241
  424MOL0     N57156   1.238  -0.283   4.210 -0.1912 -0.4732  0.6229
  424MOL0     C57157   0.483   0.449   4.040 -0.1678 -0.3199 -0.2370
  424MOL0     C57158   0.434   0.576   4.063 -0.7035  0.1132  0.1900
  424MOL0     C57159   0.255   0.928   4.258  0.3311  0.5027 -0.5474
  424MOL0     C57160   0.130   0.974   4.194  0.0568  0.2556 -0.8532
  424MOL0     C57161   0.089   1.106   4.206 -0.0240 -0.2008 -0.0344
  424MOL0     C57162   0.180   1.206   4.253  0.3243  0.5010 -0.1028
  424MOL0     O57163   0.144   1.333   4.239  0.4359 -0.9574  0.0766
  424MOL0     C57164   0.204   1.442   4.317 -0.3454  0.1063  0.2453
  424MOL0     C57165   0.144   1.577   4.286 -1.3160  0.4328 -0.0309
  424MOL0     C57166   0.196   1.632   4.147  0.0695 -0.1863 -0.5358
  424MOL0     C57167   0.153   1.776   4.116  0.2424 -0.6739 -0.6433
  424MOL0     C57168   0.018   1.788   4.073 -0.4960  0.0948  0.9936
  424MOL0     C57169  -0.097   1.805   4.025  0.2095 -0.6065  0.6434
  424MOL0     C57170   0.293   1.165   4.317  0.7580 -0.0240 -0.2755
  424MOL0     C57171   0.333   1.035   4.321 -0.2355 -0.3380  0.0966
  424MOL0     C57172   0.465   1.009   4.396  0.2919  0.0929 -0.5476
  424MOL0     H57173   0.147   0.496   4.230  0.1648  1.0643  1.2020
  424MOL0     H57174   0.244   0.274   4.194 -0.9104  1.7602 -0.0683
  424MOL0     H57175   0.340   0.062   4.091 -0.2398 -1.1120 -0.3582
  424MOL0     H57176   0.330   0.159   3.950 -0.6890  0.1931  0.9747
  424MOL0     H57177   0.576   0.057   3.889 -1.5598  2.1829 -1.1150
  424MOL0     H57178   0.425  -0.005   3.850  2.5808 -3.2364 -0.5849
  424MOL0     H57179   0.548  -0.189   3.947  0.0779  0.4867 -0.4070
  424MOL0     H57180   0.445  -0.136   4.077  1.5437 -2.4261  0.9688
  424MOL0     H57181   0.729  -0.015   4.025 -0.6452  0.0190 -1.0144
  424MOL0     H57182   0.622   0.029   4.154  0.1609 -0.2016  0.9078
  424MOL0     H57183   0.658  -0.178   4.266 -0.9503  1.6323 -0.0764
  424MOL0     H57184   0.744  -0.252   4.130  0.9375 -0.6218  1.1605
  424MOL0     H57185   0.932  -0.077   4.138 -0.2251 -0.2576 -0.3248
  424MOL0     H57186   0.840  -0.002   4.269  2.0180 -0.3553  1.3993
  424MOL0     H57187   0.887  -0.218   4.411  0.4435 -3.3508 -1.3541
  424MOL0     H57188   1.017  -0.121   4.372  0.8335 -1.2883  0.4500
  424MOL0     H57189   1.028  -0.393   4.365  0.5686  1.7580  1.1436
  424MOL0     H57190   0.915  -0.376   4.246 -0.0585 -0.4293  0.4024
  424MOL0     H57191   0.994  -0.300   3.996 -0.0108 -0.6101  0.7819
  424MOL0     H57192   1.151  -0.162   3.813  2.0134  1.7945 -0.6289
  424MOL0     H57193   1.321  -0.165   3.832 -0.8699  1.0870  0.3823
  424MOL0     H57194   1.280  -0.441   3.818 -1.3641 -0.5595  0.1272
  424MOL0     H57195   1.112  -0.391   3.793 -0.3782  2.6943  1.8487
  424MOL0     H57196   1.179  -0.256   3.603 -1.2202 -0.8748  2.4445
  424MOL0     H57197   1.247  -0.429   3.584  0.0601 -1.0935  0.6769
  424MOL0     H57198   1.391  -0.175   3.639  0.5285 -0.3575  2.1854
  424MOL0     H57199   1.413  -0.280   3.504  1.4978  0.8980  0.1865
  424MOL0     H57200   1.652  -0.293   3.880 -2.1328 -3.1923 -0.9876
  424MOL0     H57201   1.887  -0.218   3.869  0.9972 -3.0865  0.8117
  424MOL0     H57202   2.232  -0.154   3.961 -1.7634  0.9725 -0.7432
  424MOL0     H57203   2.472  -0.038   3.992  2.1562 -1.8474 -1.1760
  424MOL0     H57204   2.640   0.084   4.013 -0.3861 -2.1096  0.6397
  424MOL0     H57205   2.690  -0.032   3.903  3.3007  0.2642  0.7104
  424MOL0     H57206   2.851   0.135   3.795  0.8885 -1.0577  0.6212
  424MOL0     H57207   2.788   0.258   3.913 -2.5365 -0.7661  0.6631
  424MOL0     H57208   2.884   0.138   4.095  1.0516  3.6584 -0.6002
  424MOL0     H57209   2.931   0.005   3.986  0.2196  0.4018  1.0496
  424MOL0     H57210   3.046   0.291   3.949  1.4409  1.1872  2.0903
  424MOL0     H57211   3.079   0.140   3.862 -2.0423 -0.4772  0.4203
  424MOL0     H57212   3.186   0.041   4.065  1.2117  0.7663  1.6493
  424MOL0     H57213   3.117   0.166   4.172 -1.4106  0.8633 -0.2866
  424MOL0     H57214   3.346   0.195   3.961  4.1494 -0.8722  1.6950
  424MOL0     H57215   3.285   0.328   4.041  1.8560  0.1451 -5.0305
  424MOL0     H57216   3.432   0.089   4.192 -0.4825  0.4786  0.6957
  424MOL0     H57217   3.332   0.201   4.266 -0.1112 -3.3429  1.1664
  424MOL0     H57218   3.573   0.277   4.087  1.5208 -1.9707  1.0825
  424MOL0     H57219   3.495   0.388   4.192 -1.3760  0.1746 -1.7470
  424MOL0     H57220   2.419   0.159   3.627 -0.3021 -0.9723 -1.8584
  424MOL0     H57221   2.203   0.039   3.582 -3.0925  1.7811  2.3782
  424MOL0     H57222   1.864  -0.232   3.431 -2.6922 -3.8257 -1.2379
  424MOL0     H57223   1.626  -0.299   3.452 -0.1330 -0.6343  0.3168
  424MOL0     H57224   0.581   0.430   3.998  0.9049  0.8342  1.6234
  424MOL0     H57225   0.499   0.650   4.017  0.5264 -1.3925 -0.5634
  424MOL0     H57226   0.065   0.896   4.155  1.4823  0.4472 -3.9232
  424MOL0     H57227  -0.006   1.144   4.170  0.2592  1.0249  0.4554
  424MOL0     H57228   0.310   1.440   4.288 -0.2462  3.3568  0.0580
  424MOL0     H57229   0.200   1.430   4.426  0.8203  3.1236  0.7175
  424MOL0     H57230   0.176   1.642   4.369  2.7679 -1.1961 -0.0548
  424MOL0     H57231   0.035   1.575   4.281 -1.4410  0.3793  1.9047
  424MOL0     H57232   0.175   1.571   4.058  0.3902 -3.2502  1.3386
  424MOL0     H57233   0.303   1.651   4.156  0.6468 -1.2711 -3.8765
  424MOL0     H57234   0.159   1.838   4.206 -1.9410 -1.6472  0.2333
  424MOL0     H57235   0.222   1.817   4.041  3.0922 -1.3546  1.4280
  424MOL0     H57236  -0.197   1.813   3.989  0.4996  1.4478  0.1518
  424MOL0     H57237   0.356   1.245   4.353 -0.3036 -0.3506  2.4989
  424MOL0     H57238   0.548   0.984   4.330  0.7655  2.6135 -0.9878
  424MOL0     H57239   0.492   1.098   4.453  0.3687 -0.2420 -0.0497
  424MOL0     H57240   0.457   0.928   4.469  0.0290 -0.9009 -1.6529
  425MOL0     O57241  10.390   9.632   0.868 -0.4513 -0.4906  0.1655
  425MOL0     C57242  10.272   9.628   0.895 -0.7787 -0.3421  0.4382
  425MOL0     O57243  10.219   9.688   1.005 -0.3466  0.0835 -0.0953
  425MOL0     C57244  10.312   9.717   1.097  0.0736  0.5715  0.1949
  425MOL0     C57245  10.408   9.628   1.150 -0.2476  0.4184  0.6140
  425MOL0     C57246  10.507   9.678   1.235  0.3178 -0.4604 -0.3164
  425MOL0     C57247  10.515   9.819   1.266  0.0685  1.0280 -0.7773
  425MOL0     O57248  10.609   9.843   1.361 -0.6022  1.1421 -0.3382
  425MOL0     C57249  10.615   9.968   1.427  0.0716 -0.7598  0.2027
  425MOL0     C57250  10.727   9.953   1.528 -0.0537 -0.0401  0.0752
  425MOL0     C57251  10.769  10.069   1.613  0.8517 -0.3991  0.0360
  425MOL0     C57252  10.800  10.192   1.530 -0.2016 -1.1745  0.6338
  425MOL0     C57253  10.911  10.173   1.421 -0.2588 -1.0174 -0.4424
  425MOL0     C57254  11.046  10.164   1.483  0.1047 -0.7011  0.0596
  425MOL0     C57255  11.154  10.146   1.378 -0.1630  0.0656 -0.5970
  425MOL0     C57256  11.293  10.177   1.433  0.2107  0.6228  0.2885
  425MOL0     N57257  11.407  10.151   1.341 -0.5766 -0.4406  0.9770
  425MOL0     C57258  11.447  10.029   1.293  0.5560  0.2960  0.5538
  425MOL0     C57259  11.524  10.051   1.191 -0.4617 -0.3130 -0.7379
  425MOL0     C57260  11.605   9.941   1.113  0.0703 -0.2319 -1.0142
  425MOL0     C57261  11.756   9.941   1.135 -0.5459 -0.6448 -0.8020
  425MOL0     C57262  11.793   9.916   1.277 -0.1030  0.4760 -0.0914
  425MOL0     C57263  11.951   9.909   1.306  0.0929  0.1974  0.1801
  425MOL0     O57264  11.999  10.035   1.263 -0.6260 -0.2995  0.4989
  425MOL0     C57265  12.133  10.053   1.230 -0.9118 -0.3253 -0.2142
  425MOL0     C57266  12.171  10.171   1.157 -0.2621 -0.6683 -0.3568
  425MOL0     C57267  12.301  10.191   1.124 -0.0541 -0.2721 -0.5954
  425MOL0     C57268  12.405  10.113   1.161 -0.8393  0.4087  0.1206
  425MOL0     C57269  12.545  10.143   1.110 -0.5583  0.8797 -0.1013
  425MOL0     O57270  12.568  10.239   1.017 -0.0274 -0.0583  0.3768
  425MOL0     C57271  12.689  10.258   0.964 -0.6129 -0.0409 -0.1901
  425MOL0     C57272  12.760  10.381   0.958  0.3299  0.4339  0.2533
  425MOL0     C57273  12.877  10.397   0.886  0.0404  0.0717  0.1500
  425MOL0     C57274  12.918  10.294   0.804 -0.2614  0.3812  0.0713
  425MOL0     O57275  13.039  10.321   0.732  0.3762  0.2415 -0.8865
  425MOL0     C57276  13.110  10.213   0.673 -0.4504  0.0858  0.6648
  425MOL0     C57277  13.256  10.249   0.625  0.3866  1.2343 -0.2905
  425MOL0     C57278  13.263  10.348   0.507 -0.2040 -0.3665 -0.4382
  425MOL0     C57279  13.399  10.330   0.433  0.8822 -0.2861  0.3086
  425MOL0     C57280  13.512  10.387   0.520 -0.1036 -1.4777  0.5638
  425MOL0     C57281  13.649  10.377   0.455 -0.0228  0.1388 -0.1861
  425MOL0     C57282  13.698  10.231   0.440 -0.3161  0.3233  0.3117
  425MOL0     C57283  13.825  10.213   0.349  0.5671  0.4795 -0.6806
  425MOL0    Cl57284  13.821  10.040   0.305 -0.1336 -0.2587  0.5159
  425MOL0     C57285  12.846  10.173   0.795 -0.0247 -0.3892 -0.6178
  425MOL0     C57286  12.739  10.150   0.884  0.1712 -0.0936  0.3863
  425MOL0     O57287  12.636  10.063   1.135  0.1932 -0.2988 -0.0574
  425MOL0     C57288  12.368   9.991   1.221  0.0558  0.1834  0.0154
  425MOL0     C57289  12.235   9.964   1.259 -0.3007 -0.4193 -0.4772
  425MOL0     N57290  11.534  10.177   1.175  0.6540  0.2347  0.3514
  425MOL0     N57291  11.462  10.241   1.258  0.0766  0.1745 -0.3739
  425MOL0     C57292  10.410   9.897   1.221  0.3909  0.2135 -0.3595
  425MOL0     C57293  10.315   9.855   1.127  0.1030  0.6949  0.3455
  425MOL0     C57294  10.170   9.574   0.799 -0.0358 -0.5909 -0.6572
  425MOL0     C57295  10.032   9.558   0.842  0.1197  0.6489 -0.1959
  425MOL0     C57296   9.938   9.511   0.753 -0.9512 -0.2069 -0.1676
  425MOL0     C57297   9.964   9.463   0.629 -0.2245 -0.4713 -0.7093
  425MOL0     O57298   9.875   9.409   0.538 -0.3017 -0.4935 -0.7360
  425MOL0     C57299   9.741   9.423   0.561  0.6536 -0.1600 -1.1317
  425MOL0     C57300   9.694   9.296   0.624  0.4137  0.0409 -0.7044
  425MOL0     C57301   9.706   9.173   0.528 -0.3625  0.3578  0.0531
  425MOL0     C57302   9.700   9.047   0.614  0.3232  0.1192  0.0968
  425MOL0     C57303   9.582   9.035   0.702  0.0900  0.1516  0.1674
  425MOL0     C57304   9.505   9.014   0.799  0.0845 -0.7562 -0.0521
  425MOL0     C57305  10.101   9.468   0.594  0.1888  0.6592 -0.5455
  425MOL0     C57306  10.202   9.530   0.672  0.4235 -0.5054 -0.3118
  425MOL0     C57307  10.343   9.525   0.614  0.7178  0.0328  0.0762
  425MOL0     H57308  10.389   9.521   1.139 -3.7392  0.7275  2.0918
  425MOL0     H57309  10.578   9.607   1.274  0.4843 -0.6760 -1.0078
  425MOL0     H57310  10.656  10.038   1.353  0.8741 -0.0480  1.3008
  425MOL0     H57311  10.525  10.009   1.474  1.3166  1.5606  0.7302
  425MOL0     H57312  10.816   9.919   1.476  0.7469 -1.2438  2.0978
  425MOL0     H57313  10.689   9.877   1.597 -3.8257  2.9289  1.6708
  425MOL0     H57314  10.850  10.037   1.678  2.2605 -0.1294 -1.5040
  425MOL0     H57315  10.685  10.101   1.676  0.5448 -4.9156  2.2803
  425MOL0     H57316  10.709  10.225   1.478  0.7699  1.9834  0.6906
  425MOL0     H57317  10.826  10.278   1.593 -0.8190  0.4008 -1.1409
  425MOL0     H57318  10.892  10.089   1.354  0.0973 -2.5300  1.2683
  425MOL0     H57319  10.904  10.260   1.355 -2.5924 -1.0421 -0.3288
  425MOL0     H57320  11.051  10.246   1.555 -4.1186  0.4483 -0.7315
  425MOL0     H57321  11.057  10.072   1.541 -0.7056 -2.5975 -2.6050
  425MOL0     H57322  11.138  10.222   1.301 -1.4657 -0.8848 -1.3124
  425MOL0     H57323  11.148  10.049   1.328 -0.8765 -0.4685  0.4657
  425MOL0     H57324  11.294  10.282   1.462 -0.9950  0.5037  0.8394
  425MOL0     H57325  11.307  10.117   1.523 -2.3893  0.6330  0.7833
  425MOL0     H57326  11.432   9.930   1.335  2.9825  0.7515  2.7121
  425MOL0     H57327  11.575   9.842   1.148  2.3689 -0.5753  0.2347
  425MOL0     H57328  11.573   9.946   1.009 -1.1849 -0.7866 -0.6688
  425MOL0     H57329  11.811   9.869   1.074 -1.0416 -0.1812 -1.8100
  425MOL0     H57330  11.794  10.037   1.101  1.1532 -1.1080 -0.3099
  425MOL0     H57331  11.760   9.817   1.310 -0.1272  0.9689  1.4440
  425MOL0     H57332  11.745   9.989   1.343 -0.0391  1.3541 -0.9955
  425MOL0     H57333  11.994   9.825   1.250  0.6905  1.0948 -0.7219
  425MOL0     H57334  11.985   9.892   1.409  1.2974  2.5792  0.2410
  425MOL0     H57335  12.093  10.238   1.122  1.9329  1.4473 -1.4069
  425MOL0     H57336  12.318  10.271   1.054  0.5381 -1.0955 -1.4235
  425MOL0     H57337  12.712  10.467   1.006  1.4080  0.3749  1.4898
  425MOL0     H57338  12.921  10.496   0.887 -2.1420  1.1153 -0.1020
  425MOL0     H57339  13.103  10.126   0.739  0.7730 -0.3858  0.1896
  425MOL0     H57340  13.050  10.184   0.585  2.0340  0.3421 -1.2341
  425MOL0     H57341  13.308  10.300   0.707  0.9847  0.7732 -0.3794
  425MOL0     H57342  13.306  10.157   0.595 -0.5979  0.8428 -0.7838
  425MOL0     H57343  13.175  10.341   0.442 -1.0608  1.2777  0.4834
  425MOL0     H57344  13.271  10.447   0.552  0.7628 -0.8580  0.5331
  425MOL0     H57345  13.401  10.375   0.333  1.4551 -2.7389 -0.8820
  425MOL0     H57346  13.402  10.224   0.405 -1.5857  0.1013 -1.8797
  425MOL0     H57347  13.506  10.322   0.608  3.3305 -1.4153  0.9753
  425MOL0     H57348  13.500  10.491   0.551  3.2817 -1.4913  2.4870
  425MOL0     H57349  13.648  10.428   0.358 -1.3559 -0.8894 -0.7490
  425MOL0     H57350  13.714  10.425   0.528  0.4314  2.9320 -2.2574
  425MOL0     H57351  13.616  10.175   0.393 -0.9160  0.9770  0.5652
  425MOL0     H57352  13.710  10.185   0.538 -2.5441 -0.7572  0.1331
  425MOL0     H57353  13.825  10.282   0.264  1.8508  1.1171 -0.1913
  425MOL0     H57354  13.912  10.230   0.413 -0.9415  1.8761  1.1576
  425MOL0     H57355  12.888  10.093   0.735  2.4304 -0.4348  1.0230
  425MOL0     H57356  12.686  10.057   0.866 -0.1995 -0.0265  1.0891
  425MOL0     H57357  12.445   9.923   1.256 -1.0655 -1.3128 -0.3351
  425MOL0     H57358  12.223   9.875   1.320  0.7384  0.3167  0.8742
  425MOL0     H57359  10.405  10.000   1.256 -1.6159 -0.0786  0.3533
  425MOL0     H57360  10.243   9.928   1.091 -0.2811 -0.0572 -0.4287
  425MOL0     H57361   9.998   9.575   0.944 -1.4802  4.0497 -1.1518
  425MOL0     H57362   9.834   9.497   0.783 -0.1452 -1.3429  2.3361
  425MOL0     H57363   9.686   9.434   0.467 -1.0165 -0.8653 -0.2661
  425MOL0     H57364   9.717   9.512   0.620  2.5421 -0.4333  0.1325
  425MOL0     H57365   9.587   9.310   0.644  0.7048  0.4307  0.7222
  425MOL0     H57366   9.744   9.269   0.717 -0.5231 -1.1607 -0.5185
  425MOL0     H57367   9.791   9.160   0.461 -0.1621  1.4255  0.0910
  425MOL0     H57368   9.621   9.161   0.461  0.3703 -1.4007 -0.6318
  425MOL0     H57369   9.696   8.961   0.546  2.1214  0.2427 -0.2209
  425MOL0     H57370   9.793   9.048   0.671  0.2879 -0.0216  0.1571
  425MOL0     H57371   9.443   9.006   0.886 -0.1872  2.5605  0.1984
  425MOL0     H57372  10.127   9.420   0.500  2.5340 -0.4120  0.5698
  425MOL0     H57373  10.330   9.498   0.508  2.7461  2.1962 -0.8210
  425MOL0     H57374  10.385   9.626   0.615  1.6167 -0.3423  0.3165
  425MOL0     H57375  10.409   9.453   0.662  2.0245  1.5137  0.5814
  426MOL0     O57376   5.096   0.147   7.208 -0.1090 -0.2708  0.1747
  426MOL0     C57377   5.214   0.172   7.242 -0.0502  0.0260 -0.1041
  426MOL0     O57378   5.291   0.094   7.322  0.7898 -0.5283 -0.2344
  426MOL0     C57379   5.240  -0.032   7.339 -0.5893 -0.7926 -0.0569
  426MOL0     C57380   5.178  -0.063   7.455 -0.4623  0.2146 -0.2332
  426MOL0     C57381   5.146  -0.187   7.479  0.3028  0.0204 -0.5234
  426MOL0     C57382   5.168  -0.286   7.387  0.4081  0.5992 -0.9629
  426MOL0     O57383   5.130  -0.420   7.409  0.0010  0.0401  0.1733
  426MOL0     C57384   5.161  -0.470   7.539  0.0643 -0.8245 -0.2490
  426MOL0     C57385   5.156  -0.628   7.557  0.1712  0.1138  0.3381
  426MOL0     C57386   5.233  -0.683   7.681  0.7065  0.1871  0.2921
  426MOL0     C57387   5.380  -0.697   7.643  0.5156  0.6317  0.1091
  426MOL0     C57388   5.471  -0.739   7.762 -0.9973  0.4470 -0.0091
  426MOL0     C57389   5.624  -0.767   7.725  0.1268  0.5672  0.0849
  426MOL0     C57390   5.708  -0.796   7.854  1.2448 -0.4564 -0.1062
  426MOL0     C57391   5.849  -0.825   7.810 -0.2676 -0.1921  0.2280
  426MOL0     N57392   5.914  -0.708   7.750  0.0532 -0.2196 -0.4418
  426MOL0     C57393   5.934  -0.674   7.625  0.2266  1.1067 -0.9207
  426MOL0     C57394   6.014  -0.571   7.623 -1.3747 -0.8713 -0.3703
  426MOL0     C57395   6.048  -0.494   7.503  0.4857 -0.7808 -0.2764
  426MOL0     C57396   6.160  -0.565   7.437  0.0480 -0.3600 -0.4586
  426MOL0     C57397   6.214  -0.468   7.332  0.1796  0.7498 -0.7484
  426MOL0     C57398   6.333  -0.530   7.262 -0.0768 -0.3546  0.1423
  426MOL0     O57399   6.296  -0.642   7.179  0.2113 -0.5206 -0.3759
  426MOL0     C57400   6.393  -0.704   7.108  0.9323  0.3606  0.3863
  426MOL0     C57401   6.531  -0.710   7.124  0.1870 -0.5307 -1.1554
  426MOL0     C57402   6.608  -0.776   7.041 -0.0260 -0.0188 -0.5577
  426MOL0     C57403   6.559  -0.850   6.933 -0.7052 -0.3129 -0.5422
  426MOL0     C57404   6.645  -0.934   6.844  0.4444  0.0928 -0.0919
  426MOL0     O57405   6.588  -0.996   6.734  0.4682  0.1616 -0.5883
  426MOL0     C57406   6.674  -1.075   6.662 -0.4481 -0.5314 -0.4024
  426MOL0     C57407   6.752  -1.005   6.566  0.1934  0.5397  0.3049
  426MOL0     C57408   6.844  -1.068   6.478  0.5151  0.8546 -0.2611
  426MOL0     C57409   6.850  -1.215   6.485  0.2832 -0.9355 -0.2295
  426MOL0     O57410   6.946  -1.264   6.402 -0.7403  1.2009 -0.2859
  426MOL0     C57411   6.987  -1.393   6.429 -0.4639 -0.0402  0.5112
  426MOL0     C57412   7.078  -1.437   6.313  0.0987  0.5921  0.2045
  426MOL0     C57413   7.204  -1.352   6.316  0.2556 -0.7498  0.0437
  426MOL0     C57414   7.299  -1.396   6.199  0.4306  0.1630  0.4456
  426MOL0     C57415   7.443  -1.396   6.245 -0.3448  0.8977  0.5856
  426MOL0     C57416   7.529  -1.442   6.125 -0.1798 -0.3318 -0.4276
  426MOL0     C57417   7.678  -1.441   6.171 -0.5887 -0.0245  0.4474
  426MOL0     C57418   7.742  -1.582   6.178  0.5994  0.0498  0.5770
  426MOL0    Cl57419   7.667  -1.672   6.311 -0.1306  0.2150 -0.3523
  426MOL0     C57420   6.773  -1.282   6.581 -0.0469 -0.7036  0.7755
  426MOL0     C57421   6.682  -1.211   6.667  0.0152  0.1118  0.5550
  426MOL0     O57422   6.768  -0.935   6.872  0.0138 -0.1132  0.2001
  426MOL0     C57423   6.418  -0.859   6.916  0.3521 -0.2685 -0.8344
  426MOL0     C57424   6.339  -0.782   7.005  0.2415  0.1083  0.3656
  426MOL0     N57425   6.053  -0.542   7.750  0.3525  0.8518  0.0046
  426MOL0     N57426   5.992  -0.626   7.824  0.4511  0.1540  0.7734
  426MOL0     C57427   5.245  -0.257   7.273 -1.1769 -0.1701  0.6158
  426MOL0     C57428   5.282  -0.127   7.250  0.0044  0.6574 -0.0322
  426MOL0     C57429   5.271   0.305   7.216 -0.0196 -0.5919 -0.0767
  426MOL0     C57430   5.408   0.325   7.238  0.7402  0.1159  0.5313
  426MOL0     C57431   5.469   0.442   7.187  0.5900 -0.2831 -0.8813
  426MOL0     C57432   5.406   0.543   7.117  0.2703  0.1394 -0.2354
  426MOL0     O57433   5.473   0.649   7.070  0.4981 -0.5580  0.4344
  426MOL0     C57434   5.405   0.761   7.016 -0.5293 -0.2793  1.0644
  426MOL0     C57435   5.500   0.884   7.022 -0.3020 -0.1313  0.1160
  426MOL0     C57436   5.491   0.949   7.159 -0.6074  0.2828 -0.6660
  426MOL0     C57437   5.544   0.859   7.284 -0.6254 -0.1022 -0.2546
  426MOL0     C57438   5.567   0.941   7.405  0.2561 -0.1591 -0.3386
  426MOL0     C57439   5.585   1.010   7.506 -0.4122  0.6862  0.8688
  426MOL0     C57440   5.262   0.525   7.107 -0.7556 -1.2316  0.7537
  426MOL0     C57441   5.199   0.412   7.151  0.5028 -0.6477 -0.2623
  426MOL0     C57442   5.052   0.398   7.126  0.4958 -0.0163  0.0147
  426MOL0     H57443   5.157   0.008   7.534  0.8599  4.0906 -3.0324
  426MOL0     H57444   5.087  -0.211   7.568 -0.6019  1.9102 -0.5689
  426MOL0     H57445   5.261  -0.434   7.567 -0.4275  0.6649 -0.3269
  426MOL0     H57446   5.104  -0.420   7.618  1.6893  0.1320  0.3702
  426MOL0     H57447   5.202  -0.673   7.468  0.0513  0.6939 -0.0291
  426MOL0     H57448   5.051  -0.657   7.557  0.3505 -0.5853  1.6421
  426MOL0     H57449   5.196  -0.782   7.711 -1.1201  0.9057  0.4969
  426MOL0     H57450   5.214  -0.623   7.770 -4.4801 -0.0686 -0.3210
  426MOL0     H57451   5.400  -0.758   7.555  1.7465 -0.1287  0.8857
  426MOL0     H57452   5.407  -0.593   7.619  2.3514  0.4568  1.2561
  426MOL0     H57453   5.468  -0.668   7.846  1.9683 -0.5307  1.0379
  426MOL0     H57454   5.428  -0.829   7.806 -0.1324  0.1644  0.2854
  426MOL0     H57455   5.625  -0.853   7.656 -3.1726  1.6522 -1.5373
  426MOL0     H57456   5.659  -0.680   7.669  1.6151 -0.3818 -0.5260
  426MOL0     H57457   5.669  -0.887   7.900 -0.2546  1.4189  2.5673
  426MOL0     H57458   5.694  -0.722   7.932  0.5729 -1.0847  0.3765
  426MOL0     H57459   5.909  -0.859   7.895  3.8820 -0.5795 -2.5364
  426MOL0     H57460   5.851  -0.910   7.742  2.1711 -0.3344  0.3942
  426MOL0     H57461   5.901  -0.720   7.533 -1.1621  0.2883 -0.0474
  426MOL0     H57462   5.963  -0.473   7.437  1.4839  4.5717 -0.3379
  426MOL0     H57463   6.080  -0.395   7.538  1.0075 -1.0974  0.1515
  426MOL0     H57464   6.238  -0.594   7.508  0.3723 -3.0713 -1.7897
  426MOL0     H57465   6.129  -0.654   7.382  0.8838  0.7773 -2.9215
  426MOL0     H57466   6.234  -0.373   7.382  0.7054  2.0567 -3.2754
  426MOL0     H57467   6.132  -0.453   7.261 -0.9093 -1.4591 -0.0437
  426MOL0     H57468   6.409  -0.563   7.334 -0.4336 -2.1300 -0.2354
  426MOL0     H57469   6.379  -0.447   7.207 -3.2882  1.0393 -0.6361
  426MOL0     H57470   6.577  -0.651   7.203  3.0068 -2.1629 -1.4405
  426MOL0     H57471   6.715  -0.765   7.046 -0.1477  2.6993 -1.7289
  426MOL0     H57472   6.741  -0.900   6.541 -0.3294  0.6044  0.7804
  426MOL0     H57473   6.905  -1.009   6.411 -0.9875 -0.3046 -2.7989
  426MOL0     H57474   7.038  -1.385   6.525 -0.6729  0.1751  0.6056
  426MOL0     H57475   6.905  -1.465   6.439  1.4102 -1.9552  3.8068
  426MOL0     H57476   7.114  -1.539   6.330  3.0678  1.6766  1.0237
  426MOL0     H57477   7.026  -1.426   6.218 -1.1129 -0.8844  0.6553
  426MOL0     H57478   7.175  -1.247   6.306 -0.3810 -0.9504 -0.2514
  426MOL0     H57479   7.263  -1.381   6.404  0.8893 -0.4570 -0.2761
  426MOL0     H57480   7.283  -1.332   6.112  0.5990 -1.5386 -0.8836
  426MOL0     H57481   7.284  -1.497   6.162 -0.8700  1.0290 -1.5917
  426MOL0     H57482   7.452  -1.455   6.337  0.8324  0.1940  0.0362
  426MOL0     H57483   7.474  -1.293   6.264  2.5711 -0.0384  1.3839
  426MOL0     H57484   7.501  -1.544   6.096  0.0919 -1.8795  3.9753
  426MOL0     H57485   7.509  -1.378   6.039 -1.7946 -0.2414 -0.0080
  426MOL0     H57486   7.697  -1.390   6.266  1.3407 -0.8635  0.5588
  426MOL0     H57487   7.725  -1.375   6.098  1.5709 -2.2218 -0.2953
  426MOL0     H57488   7.718  -1.633   6.084 -1.0742  0.7543  0.5846
  426MOL0     H57489   7.851  -1.579   6.180  0.6577 -1.4728  0.8135
  426MOL0     H57490   6.755  -1.388   6.576 -0.3510 -0.6585  0.9076
  426MOL0     H57491   6.621  -1.276   6.728 -0.5527 -0.6427 -0.7528
  426MOL0     H57492   6.373  -0.909   6.831 -0.2239  0.2545 -0.8461
  426MOL0     H57493   6.231  -0.786   7.000  0.2984 -0.7059 -0.3189
  426MOL0     H57494   5.275  -0.335   7.204  2.6019  1.5866  0.0470
  426MOL0     H57495   5.345  -0.105   7.165  3.5736  1.0637  2.5108
  426MOL0     H57496   5.473   0.253   7.288  0.3195 -0.4528  0.2669
  426MOL0     H57497   5.577   0.451   7.196  0.5375 -1.5584  2.0933
  426MOL0     H57498   5.311   0.764   7.071 -2.7376 -2.8389 -2.1386
  426MOL0     H57499   5.380   0.749   6.910  0.2223 -0.0077  0.8486
  426MOL0     H57500   5.477   0.961   6.949 -2.0336 -0.2299  0.5093
  426MOL0     H57501   5.601   0.852   6.993 -0.7848 -2.7225  1.0072
  426MOL0     H57502   5.386   0.970   7.177 -0.3425  2.6827 -1.5750
  426MOL0     H57503   5.553   1.040   7.163  1.1634 -0.8600 -0.7525
  426MOL0     H57504   5.471   0.786   7.320 -0.3431 -0.5842 -0.6448
  426MOL0     H57505   5.640   0.814   7.258 -0.2362  1.2970 -1.4393
  426MOL0     H57506   5.582   1.062   7.599 -3.3390  0.6340  0.9156
  426MOL0     H57507   5.197   0.595   7.057 -1.8265 -2.6949  0.0521
  426MOL0     H57508   5.010   0.495   7.099 -1.4658  0.1791  3.3655
  426MOL0     H57509   5.035   0.321   7.050 -1.1482 -2.5046  2.7064
  426MOL0     H57510   4.997   0.369   7.215  1.1165 -0.9185  0.1160
  427MOL0     O57511   0.761   9.588   1.811 -0.3752  0.7081  0.3256
  427MOL0     C57512   0.717   9.474   1.832 -0.1211 -0.1098  0.2263
  427MOL0     O57513   0.795   9.365   1.851  0.1305  0.0275  0.2743
  427MOL0     C57514   0.932   9.383   1.835  0.2330  0.3048  0.5532
  427MOL0     C57515   0.988   9.382   1.711 -0.5345 -0.3416 -0.0869
  427MOL0     C57516   1.127   9.389   1.692 -0.5347 -0.4229 -0.2198
  427MOL0     C57517   1.217   9.406   1.803  0.1308  0.7930 -0.0060
  427MOL0     O57518   1.348   9.421   1.777  0.2578  0.1945 -0.3376
  427MOL0     C57519   1.444   9.447   1.878 -0.5438  0.5865 -0.0682
  427MOL0     C57520   1.464   9.574   1.953  0.0026 -0.3398 -0.2220
  427MOL0     C57521   1.465   9.692   1.859  1.1765 -0.5641  0.9705
  427MOL0     C57522   1.504   9.830   1.930  0.4831  0.7543  0.2465
  427MOL0     C57523   1.644   9.858   1.970  0.5161 -0.7326 -0.3923
  427MOL0     C57524   1.745   9.856   1.850 -0.0981  0.3794 -0.1383
  427MOL0     C57525   1.885   9.881   1.893 -0.5205  0.7494 -0.5544
  427MOL0     C57526   1.976   9.870   1.769 -0.0626  1.4961 -0.5697
  427MOL0     N57527   2.121   9.865   1.792 -0.2960  0.5652 -0.5227
  427MOL0     C57528   2.205   9.970   1.840  0.8542 -0.8013  0.7061
  427MOL0     C57529   2.326   9.933   1.831 -0.4254  0.0763  0.3513
  427MOL0     C57530   2.446  10.025   1.859  0.7078 -0.1189  0.2364
  427MOL0     C57531   2.583   9.959   1.822 -0.1762 -0.8109  0.1762
  427MOL0     C57532   2.696  10.023   1.902 -0.4017 -0.0091  0.0161
  427MOL0     C57533   2.832   9.999   1.857 -0.2749  0.6270 -0.1446
  427MOL0     O57534   2.921  10.082   1.938  0.1720  0.0854 -0.2937
  427MOL0     C57535   3.057  10.082   1.925 -0.1145  1.0798  0.1928
  427MOL0     C57536   3.134  10.160   2.017  0.1130 -0.5469  0.1256
  427MOL0     C57537   3.274  10.173   1.989  0.2076  0.0040 -0.6423
  427MOL0     C57538   3.338  10.109   1.885 -0.8494 -0.3264  0.1674
  427MOL0     C57539   3.487  10.127   1.853  0.5926  0.1020 -0.1305
  427MOL0     O57540   3.546  10.065   1.741  0.5453 -1.3188 -0.0611
  427MOL0     C57541   3.682  10.094   1.721 -0.2233  0.2936 -0.4633
  427MOL0     C57542   3.727  10.144   1.601  0.3658 -0.1945  0.5081
  427MOL0     C57543   3.867  10.160   1.571 -0.2493 -0.0524 -0.8987
  427MOL0     C57544   3.962  10.122   1.665  0.1421 -0.8246  0.2402
  427MOL0     O57545   4.090  10.127   1.627 -0.3941  0.5662 -0.5428
  427MOL0     C57546   4.195  10.086   1.724 -0.0720 -0.8009  0.5042
  427MOL0     C57547   4.316  10.032   1.646  0.4787  0.8266 -0.2088
  427MOL0     C57548   4.433  10.012   1.737  0.1614 -0.0934 -0.0038
  427MOL0     C57549   4.550   9.956   1.648 -0.8291 -0.3615 -0.3638
  427MOL0     C57550   4.691   9.966   1.720  0.2773  0.0173  0.2260
  427MOL0     C57551   4.691   9.883   1.851  0.7214  0.2558  0.2335
  427MOL0     C57552   4.825   9.878   1.924 -0.0072  0.5124  1.2628
  427MOL0     C57553   4.823   9.824   2.061 -0.1227  0.6061  0.9105
  427MOL0    Cl57554   4.723   9.678   2.065  0.0177  0.5879  0.0199
  427MOL0     C57555   3.913  10.086   1.794 -0.7545  0.8169 -0.0926
  427MOL0     C57556   3.777  10.063   1.810  0.4586  0.1650 -1.1800
  427MOL0     O57557   3.542  10.192   1.942  0.8155 -0.6799 -0.8700
  427MOL0     C57558   3.264  10.023   1.803 -0.8447 -0.9472  0.5451
  427MOL0     C57559   3.127  10.013   1.824 -0.1802  0.0784 -0.7342
  427MOL0     N57560   2.328   9.801   1.783  0.5157 -0.3048 -0.5154
  427MOL0     N57561   2.207   9.762   1.761 -0.2262  0.4612  0.1463
  427MOL0     C57562   1.150   9.403   1.931  0.1223 -0.3587 -0.4458
  427MOL0     C57563   1.011   9.396   1.945 -0.2964  0.5794 -0.4107
  427MOL0     C57564   0.574   9.437   1.848  0.9423 -0.1348 -0.4332
  427MOL0     C57565   0.534   9.301   1.869 -0.1386  0.1488 -0.4943
  427MOL0     C57566   0.406   9.258   1.888 -0.4399  0.0443  1.6379
  427MOL0     C57567   0.304   9.356   1.868 -0.7665 -0.7209 -0.1515
  427MOL0     O57568   0.178   9.321   1.846  0.1496 -0.1304 -0.3716
  427MOL0     C57569   0.134   9.184   1.852  0.5427 -0.0041  0.2863
  427MOL0     C57570  -0.013   9.183   1.805  0.0053  0.4644 -0.3749
  427MOL0     C57571  -0.101   9.248   1.913  0.2489  0.4992 -0.7496
  427MOL0     C57572  -0.136   9.159   2.040  0.9094 -0.1052 -1.0546
  427MOL0     C57573  -0.206   9.035   2.007 -0.1212 -0.3301 -0.1898
  427MOL0     C57574  -0.263   8.926   1.995 -0.0811 -0.7185  0.0519
  427MOL0     C57575   0.335   9.491   1.867 -0.5021  0.4605 -0.0892
  427MOL0     C57576   0.469   9.536   1.852 -0.1847  0.2123  0.0940
  427MOL0     C57577   0.500   9.689   1.848  0.4032 -0.2952  0.6588
  427MOL0     H57578   0.929   9.354   1.624  0.7090 -3.1702 -0.1508
  427MOL0     H57579   1.185   9.386   1.600  1.5998 -1.2838  1.0824
  427MOL0     H57580   1.423   9.375   1.957  2.5372  0.4807  0.7718
  427MOL0     H57581   1.540   9.416   1.837 -1.1207 -1.1829 -0.2053
  427MOL0     H57582   1.554   9.575   2.015  0.4457  1.6674 -0.8135
  427MOL0     H57583   1.371   9.592   2.009  0.1394 -0.5686  0.0789
  427MOL0     H57584   1.363   9.698   1.822 -0.4109 -0.4975  4.8598
  427MOL0     H57585   1.537   9.681   1.777  1.3483  2.5315  0.5933
  427MOL0     H57586   1.482   9.909   1.858  2.7779  0.8363 -0.4374
  427MOL0     H57587   1.436   9.861   2.010 -0.0364  0.1949  0.0286
  427MOL0     H57588   1.651   9.948   2.031  0.9556 -3.1636  3.4974
  427MOL0     H57589   1.679   9.785   2.044  0.4611 -1.1979 -0.8202
  427MOL0     H57590   1.729   9.757   1.806  2.1021  0.3746 -1.0508
  427MOL0     H57591   1.713   9.933   1.780 -0.9131 -0.3989 -0.6389
  427MOL0     H57592   1.923   9.804   1.961  1.5090  1.1428 -1.1879
  427MOL0     H57593   1.909   9.981   1.931  3.4590 -0.2120 -0.0758
  427MOL0     H57594   1.960   9.768   1.733 -3.1046  0.6071  2.7514
  427MOL0     H57595   1.957   9.944   1.690  0.0988  1.4760 -0.6289
  427MOL0     H57596   2.169  10.070   1.862  0.8804 -0.3606 -1.0994
  427MOL0     H57597   2.434  10.110   1.791  1.1089 -0.9571 -0.8939
  427MOL0     H57598   2.455  10.064   1.961  1.6395 -2.5940  1.1828
  427MOL0     H57599   2.581   9.853   1.848  1.4885 -0.8790  0.1601
  427MOL0     H57600   2.604   9.974   1.715 -0.1608  2.6564  0.5504
  427MOL0     H57601   2.672   9.990   2.004  0.0851  0.1837  0.1945
  427MOL0     H57602   2.690  10.131   1.891  1.9832  0.2425  0.6535
  427MOL0     H57603   2.854  10.025   1.753 -0.5632  1.4597 -0.0025
  427MOL0     H57604   2.849   9.893   1.878 -0.8088  0.5877  0.0915
  427MOL0     H57605   3.085  10.212   2.099 -3.6074 -2.1959 -0.8625
  427MOL0     H57606   3.331  10.241   2.052  0.7853 -0.1536 -0.9837
  427MOL0     H57607   3.647  10.176   1.535  0.9048  0.1652  0.0224
  427MOL0     H57608   3.906  10.191   1.474  2.4409  0.7861  0.3533
  427MOL0     H57609   4.225  10.159   1.800 -2.6843  2.0547 -0.9696
  427MOL0     H57610   4.155  10.004   1.785 -2.6532 -0.6211 -0.8188
  427MOL0     H57611   4.298   9.940   1.590 -0.7683 -0.8486  2.7284
  427MOL0     H57612   4.350  10.112   1.580  0.3478  2.0592  1.1449
  427MOL0     H57613   4.457  10.110   1.779  2.6325  0.3898 -2.3101
  427MOL0     H57614   4.415   9.941   1.819  2.3158 -2.0252 -1.1073
  427MOL0     H57615   4.551  10.010   1.552  2.5105 -3.3773 -2.2485
  427MOL0     H57616   4.528   9.850   1.633  0.7876 -0.8355  0.4216
  427MOL0     H57617   4.722  10.067   1.749 -1.4782 -0.0803  2.7313
  427MOL0     H57618   4.769   9.925   1.655 -0.5034 -2.2976  0.6703
  427MOL0     H57619   4.620   9.916   1.928 -0.8320  0.1671 -1.1170
  427MOL0     H57620   4.661   9.781   1.827 -1.5577  1.0298 -0.5153
  427MOL0     H57621   4.873   9.976   1.919 -1.2786  1.0636 -1.5627
  427MOL0     H57622   4.883   9.813   1.858  0.1140  2.3158 -0.4749
  427MOL0     H57623   4.920   9.792   2.100 -0.3418 -0.1255  0.8823
  427MOL0     H57624   4.777   9.899   2.127 -0.8633  1.0942 -0.1439
  427MOL0     H57625   3.979  10.073   1.879 -0.1961  2.2492 -0.2889
  427MOL0     H57626   3.749  10.013   1.902  0.1039  0.2654 -1.2294
  427MOL0     H57627   3.312   9.976   1.718  1.7002 -0.4599  1.6265
  427MOL0     H57628   3.070   9.950   1.756 -1.4463  0.2021  0.1748
  427MOL0     H57629   1.211   9.397   2.020 -0.1230  0.4109 -0.2177
  427MOL0     H57630   0.965   9.379   2.041  0.8761 -3.1820 -0.3712
  427MOL0     H57631   0.607   9.222   1.854  1.1714  1.6391 -2.2951
  427MOL0     H57632   0.394   9.150   1.887 -2.4607  0.1655 -1.1937
  427MOL0     H57633   0.151   9.138   1.950 -0.8028 -2.3362 -0.5061
  427MOL0     H57634   0.186   9.127   1.774  1.0951 -1.1249  1.4384
  427MOL0     H57635  -0.057   9.085   1.785 -0.6023  0.9504 -1.5104
  427MOL0     H57636  -0.010   9.240   1.712  1.9369  2.3960  0.7760
  427MOL0     H57637  -0.193   9.264   1.857  0.2736 -0.3794 -1.0521
  427MOL0     H57638  -0.051   9.343   1.937 -0.4602  1.0185 -1.2719
  427MOL0     H57639  -0.039   9.137   2.085  1.3893  0.2449 -1.8794
  427MOL0     H57640  -0.202   9.219   2.104  1.3686 -1.2282  0.5239
  427MOL0     H57641  -0.333   8.849   1.972 -3.1356  2.4861 -2.5588
  427MOL0     H57642   0.258   9.567   1.876  0.1543  1.0202  0.9335
  427MOL0     H57643   0.558   9.726   1.762 -0.7616  1.7834  0.7045
  427MOL0     H57644   0.406   9.744   1.846  0.3837 -0.3522 -0.6175
  427MOL0     H57645   0.554   9.713   1.940 -1.9624 -0.3513  2.1434
  428MOL0     O57646   3.117   3.521   4.787 -0.5904  0.4471  0.0036
  428MOL0     C57647   3.033   3.601   4.753  0.2338 -0.6359  0.4143
  428MOL0     O57648   3.024   3.659   4.637 -0.7492  0.7758 -0.0513
  428MOL0     C57649   3.103   3.605   4.529  0.5624  0.2830  0.1001
  428MOL0     C57650   3.166   3.690   4.432  0.0927  0.1847  0.1565
  428MOL0     C57651   3.229   3.631   4.317  0.2960  0.3309 -0.9271
  428MOL0     C57652   3.240   3.494   4.301  0.0136  0.3958 -0.8429
  428MOL0     O57653   3.306   3.448   4.184  0.1944 -0.4035 -0.6592
  428MOL0     C57654   3.313   3.311   4.173 -0.9088  0.4935 -0.4456
  428MOL0     C57655   3.374   3.267   4.045  0.6161  0.6733  0.7334
  428MOL0     C57656   3.393   3.114   4.048 -0.2245  0.0529  0.0517
  428MOL0     C57657   3.454   3.066   3.913  0.5609 -0.5795  0.4572
  428MOL0     C57658   3.497   2.922   3.920  0.2859  0.0534 -0.3870
  428MOL0     C57659   3.562   2.883   3.793 -0.5520 -0.1594  1.0654
  428MOL0     C57660   3.628   2.757   3.784 -0.0963  0.3564 -0.8353
  428MOL0     C57661   3.641   2.717   3.640  0.3250  0.2235  0.2998
  428MOL0     N57662   3.702   2.594   3.618 -0.1527  0.6730 -0.8117
  428MOL0     C57663   3.819   2.579   3.555  0.7355  1.7026  0.5812
  428MOL0     C57664   3.852   2.450   3.567 -0.2786 -0.1107 -0.3295
  428MOL0     C57665   3.969   2.382   3.526 -0.1968 -0.2433 -0.6752
  428MOL0     C57666   4.037   2.297   3.629  0.0258  0.1476 -0.0584
  428MOL0     C57667   4.085   2.384   3.750 -0.0550 -0.1733 -0.2775
  428MOL0     C57668   4.230   2.423   3.725  0.2249  0.3622  0.1535
  428MOL0     O57669   4.308   2.306   3.709 -0.4149  0.2236 -0.4418
  428MOL0     C57670   4.449   2.324   3.686  0.3958  0.3916 -0.1151
  428MOL0     C57671   4.543   2.216   3.709 -1.1122  0.1671 -0.2106
  428MOL0     C57672   4.677   2.229   3.665  0.5880  0.0145 -0.2404
  428MOL0     C57673   4.727   2.353   3.621 -0.6084  0.1268 -0.1015
  428MOL0     C57674   4.876   2.364   3.583  0.5468  0.1465  0.3570
  428MOL0     O57675   4.954   2.248   3.586  0.5050 -0.1207 -0.2695
  428MOL0     C57676   5.087   2.269   3.561  0.2237 -0.0827  0.1509
  428MOL0     C57677   5.180   2.325   3.649  1.1702 -0.9379  0.4320
  428MOL0     C57678   5.313   2.331   3.616 -0.3862  0.0317  0.0250
  428MOL0     C57679   5.353   2.269   3.496 -0.1717  0.2530  0.2977
  428MOL0     O57680   5.479   2.263   3.449 -0.4954  0.0859  0.0876
  428MOL0     C57681   5.580   2.314   3.539  0.2427  0.7514  0.3083
  428MOL0     C57682   5.724   2.301   3.472  0.9071  0.0693  0.0800
  428MOL0     C57683   5.771   2.160   3.452 -0.1879  0.4044 -0.1410
  428MOL0     C57684   5.900   2.130   3.530  1.0517 -0.1156  0.6109
  428MOL0     C57685   5.953   1.993   3.475 -0.0693 -0.1453 -0.4853
  428MOL0     C57686   5.997   1.993   3.324 -0.2392 -0.3991 -0.3251
  428MOL0     C57687   6.084   1.874   3.298 -0.4416 -0.1181  0.0557
  428MOL0     C57688   6.160   1.889   3.164  0.6932  1.1039  0.3991
  428MOL0    Cl57689   6.313   1.959   3.218 -0.0014 -0.1921 -0.4121
  428MOL0     C57690   5.265   2.220   3.407  0.1977 -0.1078 -0.1389
  428MOL0     C57691   5.132   2.212   3.441 -0.0272  0.4364  0.5896
  428MOL0     O57692   4.910   2.469   3.529  0.3494 -0.1103 -0.3358
  428MOL0     C57693   4.635   2.460   3.608 -0.2564 -0.0787  0.1028
  428MOL0     C57694   4.501   2.443   3.636  0.5028 -1.0508  0.2437
  428MOL0     N57695   3.752   2.381   3.632 -0.3811 -0.4194 -0.1416
  428MOL0     N57696   3.676   2.473   3.673 -0.1298 -0.4555 -0.4386
  428MOL0     C57697   3.181   3.420   4.397 -0.6443  0.7005  0.1521
  428MOL0     C57698   3.110   3.469   4.498  0.0056 -0.1425  0.8303
  428MOL0     C57699   2.931   3.637   4.858 -0.7313  1.4020  0.1134
  428MOL0     C57700   2.815   3.709   4.820 -0.1125 -0.1242 -0.2357
  428MOL0     C57701   2.713   3.740   4.910 -0.4655  0.6907  0.2819
  428MOL0     C57702   2.718   3.692   5.042  0.1001  0.1483 -0.2015
  428MOL0     O57703   2.601   3.716   5.112 -0.0433  0.2951 -0.1256
  428MOL0     C57704   2.590   3.693   5.253  0.3045  0.1211 -0.7856
  428MOL0     C57705   2.448   3.732   5.290  0.7799  0.2950 -0.1131
  428MOL0     C57706   2.453   3.744   5.439 -0.5859  0.1620  0.7144
  428MOL0     C57707   2.307   3.744   5.496 -0.3691  0.2651 -0.8351
  428MOL0     C57708   2.211   3.835   5.432  0.1497  0.5610  0.7061
  428MOL0     C57709   2.134   3.913   5.371 -0.1225  0.2521 -0.0085
  428MOL0     C57710   2.828   3.621   5.085 -0.8235 -0.3160 -0.4042
  428MOL0     C57711   2.938   3.587   4.998 -0.0676 -0.3641  0.6018
  428MOL0     C57712   3.053   3.514   5.058 -0.0574  0.2202 -0.0353
  428MOL0     H57713   3.156   3.798   4.426  1.6247  0.2622 -2.6585
  428MOL0     H57714   3.270   3.702   4.246  3.2034  1.6476  1.8048
  428MOL0     H57715   3.363   3.269   4.261  4.4971 -2.0139 -4.1291
  428MOL0     H57716   3.214   3.267   4.166 -0.3821 -0.9652  0.7927
  428MOL0     H57717   3.463   3.326   4.025  0.9733  0.9374  2.9336
  428MOL0     H57718   3.301   3.282   3.964 -0.2537 -1.8233  0.9467
  428MOL0     H57719   3.297   3.068   4.073  0.4876 -0.3777  2.1981
  428MOL0     H57720   3.449   3.082   4.137 -0.4849  0.7601  0.4742
  428MOL0     H57721   3.377   3.065   3.836  1.0069  0.9933 -0.0364
  428MOL0     H57722   3.540   3.125   3.882  0.1055 -0.2047 -0.1142
  428MOL0     H57723   3.569   2.906   4.001  0.4541 -0.3284 -0.6132
  428MOL0     H57724   3.415   2.853   3.939  1.7297 -1.2826  1.3038
  428MOL0     H57725   3.479   2.894   3.723  0.8996  1.6205 -0.4885
  428MOL0     H57726   3.641   2.953   3.764  0.8180 -1.4264  1.6441
  428MOL0     H57727   3.575   2.677   3.836  2.0821 -0.5805  0.0844
  428MOL0     H57728   3.727   2.760   3.830 -1.2447 -1.6203  2.0081
  428MOL0     H57729   3.548   2.713   3.583  0.3608  1.1675  0.1536
  428MOL0     H57730   3.699   2.798   3.594  2.4609 -2.3417 -1.8630
  428MOL0     H57731   3.874   2.660   3.507  2.2290 -0.2333 -1.1921
  428MOL0     H57732   3.926   2.319   3.447 -0.0663  1.4482 -2.1547
  428MOL0     H57733   4.040   2.451   3.479 -1.4848  1.5004 -0.1523
  428MOL0     H57734   3.971   2.214   3.654  0.9818 -0.4561  0.5167
  428MOL0     H57735   4.123   2.245   3.586  1.6717  1.8036  1.0952
  428MOL0     H57736   4.070   2.323   3.840  2.6732 -0.8143 -0.1746
  428MOL0     H57737   4.015   2.467   3.764  0.8506  0.2820  2.0220
  428MOL0     H57738   4.277   2.469   3.812  2.5806  0.5893 -1.1499
  428MOL0     H57739   4.234   2.489   3.638  1.8385  0.6484  0.4245
  428MOL0     H57740   4.509   2.126   3.758 -1.5666 -0.0240 -0.8793
  428MOL0     H57741   4.731   2.137   3.684 -1.9133 -1.0110  2.7232
  428MOL0     H57742   5.156   2.370   3.745 -0.6724 -0.8140 -0.0589
  428MOL0     H57743   5.368   2.397   3.683 -0.0436 -1.4597  1.2832
  428MOL0     H57744   5.562   2.421   3.553 -0.5083  0.6000  0.5615
  428MOL0     H57745   5.574   2.262   3.635  0.7024 -1.9496 -1.0345
  428MOL0     H57746   5.731   2.343   3.372  0.5035  0.4025  0.1884
  428MOL0     H57747   5.778   2.360   3.547  2.2339 -3.4150  2.1655
  428MOL0     H57748   5.683   2.101   3.481 -0.8582  1.8718  0.9580
  428MOL0     H57749   5.789   2.150   3.344 -1.5611  2.4986 -0.6326
  428MOL0     H57750   5.893   2.141   3.639 -1.0592  0.4831  0.4590
  428MOL0     H57751   5.975   2.206   3.507 -0.9319  1.6077 -0.5234
  428MOL0     H57752   5.876   1.916   3.486 -0.4709  0.3669  0.3579
  428MOL0     H57753   6.042   1.966   3.532 -0.4493  0.1835  0.2696
  428MOL0     H57754   5.908   1.999   3.261 -1.6839  2.6875  1.7857
  428MOL0     H57755   6.061   2.079   3.301  0.9586 -1.7852 -2.5493
  428MOL0     H57756   6.010   1.794   3.291 -0.8384  0.3364 -1.4057
  428MOL0     H57757   6.154   1.849   3.378 -0.4312  1.5937  0.6212
  428MOL0     H57758   6.172   1.786   3.130 -1.5501  0.9844 -0.2124
  428MOL0     H57759   6.106   1.949   3.091 -0.2622  1.7367  1.5753
  428MOL0     H57760   5.299   2.184   3.310 -0.0438 -0.1961 -0.1932
  428MOL0     H57761   5.064   2.164   3.371 -0.1737  0.1524  0.9267
  428MOL0     H57762   4.666   2.556   3.568  2.7890 -2.5672 -4.4937
  428MOL0     H57763   4.438   2.526   3.604  2.0988  0.8141  1.7400
  428MOL0     H57764   3.191   3.312   4.398  1.3026  0.8477 -0.4339
  428MOL0     H57765   3.074   3.391   4.564  2.6060 -1.9760  0.2206
  428MOL0     H57766   2.812   3.737   4.716  2.1066  0.3918 -0.2029
  428MOL0     H57767   2.628   3.798   4.876 -3.0321 -1.0099  3.3414
  428MOL0     H57768   2.667   3.755   5.301  0.5536 -0.2734 -0.6732
  428MOL0     H57769   2.615   3.588   5.269  0.8939  0.1143 -1.6416
  428MOL0     H57770   2.379   3.650   5.266 -0.7622  1.1894  1.0865
  428MOL0     H57771   2.416   3.826   5.244  0.9113 -0.5452 -2.0495
  428MOL0     H57772   2.505   3.838   5.456  0.7301 -0.0957 -1.4322
  428MOL0     H57773   2.505   3.660   5.486  1.3651  0.6700 -0.4471
  428MOL0     H57774   2.270   3.642   5.480 -0.1730 -0.0161  0.4081
  428MOL0     H57775   2.305   3.768   5.603  3.2574 -1.7039 -0.1633
  428MOL0     H57776   2.077   3.991   5.324  0.2335  1.3260  1.2921
  428MOL0     H57777   2.820   3.580   5.185 -1.9979 -2.8480 -1.4542
  428MOL0     H57778   3.142   3.576   5.072 -0.2864  0.6997 -0.6576
  428MOL0     H57779   3.036   3.471   5.158 -2.0715 -1.5151 -1.0435
  428MOL0     H57780   3.096   3.431   5.000 -1.2026  0.4201 -1.2185
  429MOL0     O57781   6.345   6.079   7.048 -0.4022  0.1494 -0.0834
  429MOL0     C57782   6.351   6.200   7.059 -0.0591 -0.1960 -0.3055
  429MOL0     O57783   6.440   6.274   6.994  0.1560  0.3821 -0.6284
  429MOL0     C57784   6.504   6.208   6.890 -0.3228 -0.7895  0.5119
  429MOL0     C57785   6.649   6.222   6.888  0.4436 -0.2496 -0.1733
  429MOL0     C57786   6.719   6.178   6.777  1.0785  0.5119  0.1875
  429MOL0     C57787   6.645   6.109   6.670 -1.1010  0.0999 -0.5300
  429MOL0     O57788   6.725   6.064   6.568  0.4381 -0.2573  0.6219
  429MOL0     C57789   6.661   6.023   6.448 -0.1679  0.1571 -0.5417
  429MOL0     C57790   6.777   6.022   6.346 -0.3852 -0.1329 -0.4866
  429MOL0     C57791   6.817   6.169   6.337 -0.3413  0.4791  0.7194
  429MOL0     C57792   6.926   6.178   6.235 -1.0318  0.8287  0.9058
  429MOL0     C57793   6.984   6.322   6.226  0.4241 -0.4552  0.7623
  429MOL0     C57794   7.112   6.328   6.132  0.0314  0.4596 -0.1436
  429MOL0     C57795   7.140   6.474   6.082  0.1039 -1.0811 -0.1441
  429MOL0     C57796   7.240   6.477   5.969 -0.2139  0.6829 -0.5033
  429MOL0     N57797   7.371   6.418   6.001  0.5025  0.2863 -0.0052
  429MOL0     C57798   7.460   6.356   5.914 -0.2669  0.2426  0.0976
  429MOL0     C57799   7.575   6.347   5.986 -0.9927  0.4742 -0.2885
  429MOL0     C57800   7.699   6.283   5.925 -0.0106  0.4968  0.0012
  429MOL0     C57801   7.802   6.199   6.021  0.2497  0.0752  0.3232
  429MOL0     C57802   7.887   6.287   6.113  0.2892  0.3371  0.2930
  429MOL0     C57803   8.018   6.220   6.144 -0.0430  0.4917 -0.3293
  429MOL0     O57804   7.988   6.103   6.217 -0.1659  0.0087  0.6253
  429MOL0     C57805   8.086   6.033   6.284  0.5652 -0.5864  0.2064
  429MOL0     C57806   8.027   5.933   6.363 -0.7237  0.6921 -0.5270
  429MOL0     C57807   8.108   5.852   6.449  0.1564  0.0033  0.6311
  429MOL0     C57808   8.244   5.884   6.469 -0.2482  0.5742  0.5514
  429MOL0     C57809   8.328   5.813   6.565  0.0258  1.1129 -0.1114
  429MOL0     O57810   8.457   5.869   6.579  0.3894  0.4428 -0.9211
  429MOL0     C57811   8.553   5.801   6.653  0.6737 -0.3792  0.3661
  429MOL0     C57812   8.566   5.666   6.666 -0.6692  0.6787 -0.3748
  429MOL0     C57813   8.679   5.606   6.729  0.7037 -0.0190  0.7294
  429MOL0     C57814   8.782   5.684   6.771 -0.4226 -0.1307  0.1442
  429MOL0     O57815   8.902   5.631   6.824  0.8512 -0.1742 -0.8427
  429MOL0     C57816   8.899   5.524   6.922 -0.1824  0.4141 -0.0868
  429MOL0     C57817   8.885   5.587   7.058 -0.2981 -0.4017 -0.3228
  429MOL0     C57818   9.015   5.642   7.127 -0.1662 -0.0085  0.1748
  429MOL0     C57819   9.083   5.542   7.218 -0.6340 -0.8045  0.9539
  429MOL0     C57820   9.200   5.603   7.307  0.4422 -0.0335  0.5489
  429MOL0     C57821   9.329   5.608   7.224 -0.0205 -0.0368  0.1037
  429MOL0     C57822   9.452   5.649   7.303 -0.4281  0.6615  0.2006
  429MOL0     C57823   9.580   5.618   7.221  0.6903  0.0804  0.3303
  429MOL0    Cl57824   9.583   5.725   7.086  0.2623 -0.1180  0.1839
  429MOL0     C57825   8.768   5.820   6.758 -0.5647  0.5937  0.0776
  429MOL0     C57826   8.663   5.884   6.693  0.7630 -0.4212 -0.2607
  429MOL0     O57827   8.282   5.719   6.620 -0.3913 -0.5555  0.2839
  429MOL0     C57828   8.297   5.994   6.394 -0.2516  0.0174  0.0766
  429MOL0     C57829   8.224   6.064   6.296  0.0607 -0.0307  1.4828
  429MOL0     N57830   7.547   6.385   6.114  0.5278 -0.1715 -0.3209
  429MOL0     N57831   7.435   6.433   6.123  0.0887 -0.5335  0.4109
  429MOL0     C57832   6.511   6.086   6.685  0.4357  0.7514  0.2871
  429MOL0     C57833   6.438   6.148   6.785  0.2603 -0.3019  0.1477
  429MOL0     C57834   6.262   6.285   7.139  0.0119  0.1557  0.0042
  429MOL0     C57835   6.261   6.424   7.113  1.1999 -0.5699 -0.0758
  429MOL0     C57836   6.158   6.507   7.175  0.2979 -0.1261 -0.0378
  429MOL0     C57837   6.069   6.443   7.258  0.1977  0.1148  0.5439
  429MOL0     O57838   5.944   6.492   7.306 -0.2238  0.1545  0.8405
  429MOL0     C57839   5.886   6.605   7.235  0.3241  0.6329  0.1645
  429MOL0     C57840   5.909   6.739   7.307  0.2518 -0.5676  0.7308
  429MOL0     C57841   5.817   6.761   7.428 -0.9178 -0.2489 -0.1717
  429MOL0     C57842   5.817   6.892   7.503 -0.4108 -0.5898 -0.7480
  429MOL0     C57843   5.909   6.912   7.616  0.1515  0.1272 -0.3050
  429MOL0     C57844   5.992   6.943   7.700  0.8772  0.2545  0.8386
  429MOL0     C57845   6.083   6.317   7.298 -1.2447 -0.1229  0.7714
  429MOL0     C57846   6.169   6.230   7.231 -1.5887  1.3981 -0.3127
  429MOL0     C57847   6.160   6.089   7.272  0.5207 -0.2634  0.7688
  429MOL0     H57848   6.696   6.277   6.969 -0.9294  1.0259 -0.1975
  429MOL0     H57849   6.827   6.189   6.769  1.3737 -1.4287  0.8262
  429MOL0     H57850   6.621   5.924   6.469  0.6278 -0.4370 -1.7176
  429MOL0     H57851   6.569   6.073   6.414 -0.1051  0.3648 -0.4055
  429MOL0     H57852   6.748   5.992   6.244  1.7927  0.4402 -1.3433
  429MOL0     H57853   6.859   5.967   6.394 -1.6808  0.5020  2.6521
  429MOL0     H57854   6.860   6.207   6.431  0.2222 -2.6539  1.8386
  429MOL0     H57855   6.731   6.226   6.302  0.0969  0.4093 -0.5150
  429MOL0     H57856   7.015   6.117   6.248 -1.2151 -0.3707 -2.4603
  429MOL0     H57857   6.874   6.163   6.140 -0.5519 -1.6703  0.9680
  429MOL0     H57858   6.912   6.393   6.187  0.7709 -0.1152  0.7394
  429MOL0     H57859   7.005   6.362   6.325 -2.1247  3.2968 -0.0412
  429MOL0     H57860   7.199   6.282   6.181 -0.2139  0.2525  0.0977
  429MOL0     H57861   7.082   6.273   6.043  1.3519  0.1783 -0.4439
  429MOL0     H57862   7.176   6.532   6.168 -0.3867 -0.2206 -0.5115
  429MOL0     H57863   7.048   6.530   6.067  0.3124 -0.3177  1.2142
  429MOL0     H57864   7.203   6.424   5.881  2.2508  0.7717 -1.6674
  429MOL0     H57865   7.250   6.580   5.934  1.0868  0.4805 -0.7864
  429MOL0     H57866   7.463   6.339   5.807 -0.0989  1.5861 -0.1264
  429MOL0     H57867   7.680   6.221   5.837  1.7984  1.4450 -1.1009
  429MOL0     H57868   7.753   6.361   5.871  0.7120  0.5707  0.8119
  429MOL0     H57869   7.738   6.130   6.075 -0.6178  0.5621 -0.0602
  429MOL0     H57870   7.862   6.136   5.955 -1.5730  0.7996 -2.1632
  429MOL0     H57871   7.825   6.320   6.197 -1.9032 -0.9807 -0.7260
  429MOL0     H57872   7.918   6.377   6.057  0.9510 -0.0984 -0.0612
  429MOL0     H57873   8.085   6.280   6.207 -0.3280  0.0487  0.4136
  429MOL0     H57874   8.059   6.200   6.045 -0.3613  0.4607 -0.4548
  429MOL0     H57875   7.919   5.920   6.363 -0.6275 -0.5009  1.7737
  429MOL0     H57876   8.060   5.772   6.505  0.2473  1.0174  2.2100
  429MOL0     H57877   8.497   5.589   6.632 -1.8045  1.0199  1.0898
  429MOL0     H57878   8.686   5.499   6.743 -2.6300 -0.5865 -0.8763
  429MOL0     H57879   8.815   5.455   6.911 -0.7672  1.1416 -0.2747
  429MOL0     H57880   8.985   5.456   6.920  0.0979  0.7532 -1.9118
  429MOL0     H57881   8.819   5.674   7.052 -1.0805 -0.8835  0.8801
  429MOL0     H57882   8.846   5.512   7.127 -2.2703  0.2977 -0.5900
  429MOL0     H57883   9.078   5.671   7.042 -0.1620 -0.3235  0.0679
  429MOL0     H57884   8.992   5.738   7.174  0.3260  1.5654 -2.5871
  429MOL0     H57885   9.118   5.468   7.146 -3.2427 -1.2146  0.0263
  429MOL0     H57886   9.015   5.495   7.289 -0.7408 -0.2055  1.2582
  429MOL0     H57887   9.213   5.528   7.386  0.2755 -1.2296 -0.5182
  429MOL0     H57888   9.172   5.700   7.348 -0.4973 -0.4599  0.9314
  429MOL0     H57889   9.349   5.509   7.183  1.4278 -0.2837  1.3177
  429MOL0     H57890   9.313   5.676   7.139 -1.9761  0.3703  0.7543
  429MOL0     H57891   9.446   5.585   7.392 -0.9526 -1.5352 -1.3317
  429MOL0     H57892   9.445   5.752   7.338  0.5176  2.2320 -3.7516
  429MOL0     H57893   9.667   5.616   7.288  0.3322  0.5750  0.8197
  429MOL0     H57894   9.572   5.514   7.186 -1.1734  0.7975 -1.5335
  429MOL0     H57895   8.850   5.876   6.800  0.9865 -1.4882 -0.0113
  429MOL0     H57896   8.656   5.992   6.683  0.1136 -0.3126  1.0979
  429MOL0     H57897   8.402   6.021   6.393 -0.1348 -0.4370 -0.3005
  429MOL0     H57898   8.279   6.144   6.247  0.2886 -0.0017  1.7872
  429MOL0     H57899   6.447   6.031   6.616 -3.2219  2.1468  2.2709
  429MOL0     H57900   6.330   6.132   6.785 -0.0190  1.3743  0.0582
  429MOL0     H57901   6.319   6.470   7.034 -1.4666  1.6441 -0.9355
  429MOL0     H57902   6.160   6.614   7.155 -3.3359  0.0419 -0.0597
  429MOL0     H57903   5.778   6.588   7.238  0.6303 -1.4413  1.4878
  429MOL0     H57904   5.914   6.611   7.129 -0.2809 -3.5319 -0.4241
  429MOL0     H57905   5.891   6.821   7.237  0.2961 -0.5838  0.7003
  429MOL0     H57906   6.013   6.759   7.335 -0.0597  3.6896 -0.4016
  429MOL0     H57907   5.834   6.685   7.505  0.1000  1.9783  1.9366
  429MOL0     H57908   5.717   6.756   7.385  0.1590 -2.4185 -2.6780
  429MOL0     H57909   5.840   6.974   7.434  2.2266 -2.0103 -1.7070
  429MOL0     H57910   5.720   6.908   7.552  0.0026  0.3937 -0.2216
  429MOL0     H57911   6.062   6.974   7.776 -0.3930  2.4236  1.2121
  429MOL0     H57912   6.017   6.272   7.371 -1.5451  0.7346  1.0465
  429MOL0     H57913   6.132   6.094   7.377  0.8311 -1.8976  0.9482
  429MOL0     H57914   6.097   6.028   7.206 -1.9110  1.5173  1.2896
  429MOL0     H57915   6.256   6.037   7.277  0.8687  0.5009  2.8071
  430MOL0     O57916   6.482   2.135   4.586 -0.3264 -0.2962 -0.1907
  430MOL0     C57917   6.510   2.105   4.702 -0.5723  0.3797  0.1021
  430MOL0     O57918   6.429   2.106   4.807  0.4602  0.0760 -0.1400
  430MOL0     C57919   6.306   2.141   4.772  0.3892 -0.2031  0.3225
  430MOL0     C57920   6.254   2.261   4.818  0.3929  0.4029 -0.9793
  430MOL0     C57921   6.118   2.302   4.807  0.6142  0.7282  0.3975
  430MOL0     C57922   6.028   2.213   4.746  0.5935 -0.5764  0.2667
  430MOL0     O57923   5.896   2.262   4.735 -0.1121  0.0239 -0.1195
  430MOL0     C57924   5.801   2.214   4.635 -0.5812  0.5860 -1.3706
  430MOL0     C57925   5.672   2.308   4.643  0.0644 -1.0998  0.9568
  430MOL0     C57926   5.613   2.326   4.787  0.1765  0.4527 -0.2932
  430MOL0     C57927   5.477   2.399   4.766  0.0057  0.7231 -0.1167
  430MOL0     C57928   5.390   2.390   4.894  0.9308  0.2259  0.3699
  430MOL0     C57929   5.246   2.422   4.861  0.0520  0.3667  0.1334
  430MOL0     C57930   5.234   2.576   4.872  0.3589  0.1504  0.4087
  430MOL0     C57931   5.088   2.614   4.833  0.4129  0.1427 -0.2603
  430MOL0     N57932   5.086   2.758   4.801 -0.6053  0.2108  0.8266
  430MOL0     C57933   5.149   2.806   4.688  0.1048  0.6273 -0.7141
  430MOL0     C57934   5.142   2.947   4.697 -1.0785 -0.6321 -0.0488
  430MOL0     C57935   5.191   3.047   4.602  0.1124  0.2822 -0.1180
  430MOL0     C57936   5.074   3.117   4.523 -0.6864 -0.7728 -0.0543
  430MOL0     C57937   5.125   3.246   4.448 -0.3114  0.7631 -0.1006
  430MOL0     C57938   5.231   3.202   4.349  1.1466  0.0702 -0.5687
  430MOL0     O57939   5.361   3.198   4.415  0.0834 -0.3630 -0.4884
  430MOL0     C57940   5.462   3.139   4.350 -0.1889  0.3616 -0.4695
  430MOL0     C57941   5.583   3.128   4.422  0.2535 -0.2070  0.7903
  430MOL0     C57942   5.698   3.092   4.352 -0.4903  0.6840 -0.0526
  430MOL0     C57943   5.690   3.053   4.214  0.6490  0.0798  0.3087
  430MOL0     C57944   5.815   3.006   4.154 -0.0458 -0.0981 -0.7779
  430MOL0     O57945   5.933   3.017   4.233 -0.2022 -0.8217  0.0080
  430MOL0     C57946   6.055   2.973   4.181 -1.0549  1.4400 -0.4766
  430MOL0     C57947   6.115   2.855   4.237 -0.7082  0.3934 -0.2815
  430MOL0     C57948   6.249   2.820   4.205 -0.3802 -0.3011 -0.6746
  430MOL0     C57949   6.321   2.902   4.113 -0.0315 -0.3312  0.4203
  430MOL0     O57950   6.456   2.879   4.082  0.4176 -0.1471  0.8939
  430MOL0     C57951   6.495   2.743   4.123  0.3163 -0.3616  0.0060
  430MOL0     C57952   6.648   2.728   4.091  0.5732  0.3337 -0.6288
  430MOL0     C57953   6.662   2.684   3.944  0.0312 -0.0462  0.7373
  430MOL0     C57954   6.809   2.698   3.910  0.2551 -0.4131  0.2008
  430MOL0     C57955   6.862   2.842   3.906 -0.2971 -0.3351  0.5372
  430MOL0     C57956   6.997   2.846   3.834  0.1638 -0.2573 -0.3939
  430MOL0     C57957   7.098   2.753   3.900 -0.3622 -0.3645  0.2108
  430MOL0     C57958   7.243   2.795   3.858  0.3834 -0.2973  0.0268
  430MOL0    Cl57959   7.286   2.740   3.684 -0.6147  0.1029  0.1962
  430MOL0     C57960   6.259   3.008   4.054 -0.7884 -0.8238 -0.2660
  430MOL0     C57961   6.126   3.049   4.090  0.2260  0.8491 -0.7761
  430MOL0     O57962   5.813   2.961   4.045  0.3217  0.2685 -0.1816
  430MOL0     C57963   5.567   3.049   4.147 -0.2064 -0.0574 -0.6983
  430MOL0     C57964   5.455   3.097   4.216 -0.4167  1.0977 -0.1611
  430MOL0     N57965   5.073   2.968   4.815 -0.0381  0.3848  0.0138
  430MOL0     N57966   5.045   2.858   4.873 -0.0883  0.5505 -0.8627
  430MOL0     C57967   6.079   2.094   4.690 -0.1242  0.1775 -0.3717
  430MOL0     C57968   6.219   2.062   4.698  0.5858 -0.3976 -0.0069
  430MOL0     C57969   6.650   2.053   4.720  0.3305 -0.1437  0.8664
  430MOL0     C57970   6.760   2.130   4.703 -0.3191 -0.4404 -0.3576
  430MOL0     C57971   6.890   2.076   4.712 -0.1496 -0.1341  0.2022
  430MOL0     C57972   6.914   1.952   4.764 -0.1577  0.8238  0.1681
  430MOL0     O57973   7.030   1.904   4.791  0.1944 -0.1074 -0.0572
  430MOL0     C57974   7.095   1.957   4.910 -0.2754  0.5319  0.5066
  430MOL0     C57975   7.056   1.866   5.033  0.8995  0.9040 -0.8246
  430MOL0     C57976   7.119   1.721   5.025 -0.0479  0.0943 -1.2868
  430MOL0     C57977   7.063   1.629   5.134  0.0559  0.4242 -0.1216
  430MOL0     C57978   6.930   1.580   5.100 -1.2539  0.1138 -0.5073
  430MOL0     C57979   6.813   1.571   5.072 -0.4376 -0.0178  0.8692
  430MOL0     C57980   6.804   1.880   4.804 -0.1783  0.4044 -0.6841
  430MOL0     C57981   6.678   1.917   4.770 -0.4102  0.4460  0.5454
  430MOL0     C57982   6.570   1.815   4.790 -1.1749 -0.0093  0.1259
  430MOL0     H57983   6.318   2.324   4.879  1.4353 -0.8727 -0.7090
  430MOL0     H57984   6.077   2.396   4.843  2.6631  2.0679 -0.5512
  430MOL0     H57985   5.837   2.225   4.532 -4.2981  0.8334 -2.8285
  430MOL0     H57986   5.796   2.106   4.650  5.3995 -0.1045 -2.1406
  430MOL0     H57987   5.598   2.273   4.571  1.1991 -0.5514 -0.5229
  430MOL0     H57988   5.708   2.403   4.602 -2.6935 -0.2617  0.2432
  430MOL0     H57989   5.686   2.381   4.847  1.2794 -2.2440  1.0426
  430MOL0     H57990   5.599   2.228   4.834 -2.4471  0.0449 -1.7400
  430MOL0     H57991   5.505   2.499   4.734 -0.3200  0.4997 -1.1461
  430MOL0     H57992   5.420   2.354   4.684  1.7469 -2.0541  0.0433
  430MOL0     H57993   5.384   2.293   4.944 -1.5258  0.7153  1.1407
  430MOL0     H57994   5.422   2.453   4.978  0.1870  0.1331  0.7303
  430MOL0     H57995   5.222   2.390   4.760  1.9012  0.9373 -0.5305
  430MOL0     H57996   5.192   2.364   4.937  1.1788  0.5253  1.0829
  430MOL0     H57997   5.302   2.619   4.799 -0.5873 -0.8408 -1.1129
  430MOL0     H57998   5.273   2.617   4.966  1.2797 -1.2820  0.6813
  430MOL0     H57999   5.047   2.561   4.746 -1.0402  1.0994 -0.1755
  430MOL0     H58000   5.017   2.587   4.911 -0.0000  0.5754 -0.4832
  430MOL0     H58001   5.197   2.756   4.605  0.6350 -0.5075  0.2539
  430MOL0     H58002   5.252   3.116   4.661  2.1146 -1.1059 -0.4520
  430MOL0     H58003   5.259   2.993   4.536  0.6919 -1.8589  2.1100
  430MOL0     H58004   5.022   3.049   4.455 -2.7919  0.9146 -0.2511
  430MOL0     H58005   4.992   3.148   4.589  1.0485  1.1790  1.3081
  430MOL0     H58006   5.165   3.328   4.508  1.0640 -1.2974  1.9319
  430MOL0     H58007   5.033   3.289   4.405 -0.9398  1.0407  1.4529
  430MOL0     H58008   5.234   3.273   4.265  2.0123  2.1736  1.1611
  430MOL0     H58009   5.204   3.101   4.315 -0.1350  0.5120 -0.9372
  430MOL0     H58010   5.586   3.138   4.530 -1.1832 -2.2834  1.0996
  430MOL0     H58011   5.791   3.090   4.409 -1.1501  0.3719  1.0468
  430MOL0     H58012   6.054   2.784   4.293 -0.4012 -0.1290 -0.6000
  430MOL0     H58013   6.290   2.727   4.244 -0.7833  0.7883  2.7369
  430MOL0     H58014   6.484   2.712   4.227 -1.1062 -0.6030 -0.1953
  430MOL0     H58015   6.430   2.674   4.068 -0.2040 -0.2746  0.5072
  430MOL0     H58016   6.689   2.826   4.116  0.8240  0.0215  0.2106
  430MOL0     H58017   6.694   2.662   4.164  0.8405  1.1436 -0.0505
  430MOL0     H58018   6.646   2.578   3.925  2.3447 -0.3295  0.1201
  430MOL0     H58019   6.591   2.751   3.893 -0.3130  1.1143  2.6240
  430MOL0     H58020   6.823   2.662   3.808  2.2290  2.7842 -0.7867
  430MOL0     H58021   6.867   2.640   3.983  2.2293 -0.3823 -1.2916
  430MOL0     H58022   6.874   2.874   4.010  0.5200 -1.4190  0.8021
  430MOL0     H58023   6.791   2.910   3.859  0.2420 -0.2786 -0.2325
  430MOL0     H58024   6.986   2.821   3.728  4.2059  1.9736 -1.5378
  430MOL0     H58025   7.030   2.950   3.837 -2.2288  0.7233 -2.9935
  430MOL0     H58026   7.080   2.649   3.874  0.1136 -1.0565  2.4686
  430MOL0     H58027   7.083   2.756   4.008  1.7745  0.0921  0.5409
  430MOL0     H58028   7.262   2.901   3.874  0.1799  0.0539 -1.8406
  430MOL0     H58029   7.319   2.740   3.914  0.0265 -2.2926 -1.3093
  430MOL0     H58030   6.313   3.062   3.977 -0.2015  1.6672  1.7797
  430MOL0     H58031   6.082   3.138   4.047 -1.2083 -1.2844 -4.0981
  430MOL0     H58032   5.564   3.014   4.045  0.1238  0.7066 -0.9746
  430MOL0     H58033   5.359   3.091   4.165  0.9834 -2.1976 -2.7242
  430MOL0     H58034   6.002   2.035   4.641 -0.0288 -1.3594  1.2510
  430MOL0     H58035   6.253   1.966   4.661  0.2237  0.2120 -2.0375
  430MOL0     H58036   6.750   2.232   4.667 -1.2928 -0.2255  0.4691
  430MOL0     H58037   6.975   2.137   4.683 -1.3577  1.7103  0.3679
  430MOL0     H58038   7.065   2.062   4.920  0.5370  0.7701  0.5122
  430MOL0     H58039   7.203   1.958   4.890 -0.3301 -0.5697  0.0734
  430MOL0     H58040   6.947   1.859   5.037  0.9070  0.9151  3.1962
  430MOL0     H58041   7.092   1.918   5.122 -0.4740 -0.8937  0.8616
  430MOL0     H58042   7.228   1.732   5.019 -0.0954 -0.0835 -5.4115
  430MOL0     H58043   7.096   1.674   4.929 -4.7192 -1.8297  0.5030
  430MOL0     H58044   7.113   1.534   5.156  1.3212  0.6756 -1.7214
  430MOL0     H58045   7.061   1.677   5.232  0.2283  0.4910 -0.1520
  430MOL0     H58046   6.707   1.562   5.057 -0.1240 -2.8098 -0.2975
  430MOL0     H58047   6.820   1.791   4.863  0.7085  2.6927  2.8265
  430MOL0     H58048   6.618   1.718   4.778 -2.1714 -0.6379  1.0893
  430MOL0     H58049   6.523   1.815   4.889  0.3054  0.8255  0.8620
  430MOL0     H58050   6.493   1.832   4.715 -1.2292 -0.4255  0.0881
  431MOL0     O58051   8.703  11.245   7.925 -0.6770 -0.1748  0.3232
  431MOL0     C58052   8.752  11.150   7.982  0.6376 -0.1372  0.6180
  431MOL0     O58053   8.883  11.141   8.023 -1.2362  0.2187 -1.1094
  431MOL0     C58054   8.978  11.239   8.000  0.2206  0.4727  0.0363
  431MOL0     C58055   8.971  11.348   7.911  0.0034  0.7673  0.0743
  431MOL0     C58056   9.080  11.433   7.902 -0.5290 -0.3983  0.4781
  431MOL0     C58057   9.198  11.417   7.967 -0.4343 -0.0659  1.0906
  431MOL0     O58058   9.288  11.515   7.954 -0.7827  0.3963  0.4984
  431MOL0     C58059   9.418  11.489   8.005 -0.6398  0.4855  0.3108
  431MOL0     C58060   9.491  11.616   7.950  0.4904 -0.3215 -0.0477
  431MOL0     C58061   9.514  11.622   7.799 -0.1005  0.1171 -0.1760
  431MOL0     C58062   9.631  11.531   7.749 -0.2415 -0.2867 -0.2876
  431MOL0     C58063   9.726  11.595   7.655 -1.1745 -0.0160 -0.0576
  431MOL0     C58064   9.832  11.496   7.615  0.6954 -0.5794 -0.0704
  431MOL0     C58065   9.916  11.531   7.497 -1.1481 -0.4102 -0.2682
  431MOL0     C58066  10.025  11.630   7.538  0.0893  0.4982  0.9635
  431MOL0     N58067  10.108  11.673   7.425 -0.3926 -0.7290  0.1767
  431MOL0     C58068  10.201  11.600   7.349 -0.4982  0.3912  0.1269
  431MOL0     C58069  10.230  11.686   7.244  0.3484  0.3073  0.4002
  431MOL0     C58070  10.310  11.644   7.133 -0.8251  0.3268 -0.0025
  431MOL0     C58071  10.460  11.641   7.169  0.2917  0.3433  0.7000
  431MOL0     C58072  10.503  11.524   7.253 -0.7389 -0.4328 -0.4539
  431MOL0     C58073  10.657  11.521   7.279  0.2565  0.1045  0.9161
  431MOL0     O58074  10.728  11.477   7.168 -0.6654 -0.4812 -0.7129
  431MOL0     C58075  10.862  11.499   7.161 -0.8999 -0.1756  0.8248
  431MOL0     C58076  10.937  11.481   7.045 -0.4438 -0.9254  0.3769
  431MOL0     C58077  11.072  11.513   7.030  0.4864 -0.9401  0.4731
  431MOL0     C58078  11.139  11.569   7.141  0.7318 -0.8147 -0.2693
  431MOL0     C58079  11.280  11.619   7.129  0.8898 -0.0466 -0.3481
  431MOL0     O58080  11.329  11.636   7.004  0.2531  0.2094  0.4957
  431MOL0     C58081  11.458  11.688   6.985  0.7535 -0.1531 -0.1606
  431MOL0     C58082  11.478  11.759   6.868 -0.3097 -0.0683  0.5298
  431MOL0     C58083  11.600  11.808   6.823  0.6743  0.1630  0.4591
  431MOL0     C58084  11.713  11.780   6.901  0.0530 -0.3078  0.3824
  431MOL0     O58085  11.836  11.815   6.868 -0.0808 -0.3344 -0.3680
  431MOL0     C58086  11.859  11.917   6.770  0.6471 -0.1514 -0.4556
  431MOL0     C58087  12.004  11.944   6.775  0.8034 -0.0717 -0.2476
  431MOL0     C58088  12.039  12.040   6.881  0.4513  0.5842  0.5418
  431MOL0     C58089  12.185  12.078   6.878  0.2517 -0.1026  0.2971
  431MOL0     C58090  12.224  12.175   6.759  0.1476  0.3729  0.7606
  431MOL0     C58091  12.370  12.222   6.766 -0.4025 -0.4676  0.5666
  431MOL0     C58092  12.398  12.350   6.857  0.6191  0.6699 -1.0091
  431MOL0     C58093  12.548  12.379   6.891 -0.5173  0.3282  0.1697
  431MOL0    Cl58094  12.633  12.459   6.749  0.1662  0.3200  0.0419
  431MOL0     C58095  11.696  11.713   7.021  0.1321  0.1311 -0.3171
  431MOL0     C58096  11.574  11.666   7.065  0.5797 -0.4717 -0.5807
  431MOL0     O58097  11.339  11.628   7.236  0.0852  0.4080 -0.1708
  431MOL0     C58098  11.073  11.589   7.262  0.5997  0.1623 -0.5724
  431MOL0     C58099  10.940  11.545   7.273 -0.3426 -0.0548  0.8437
  431MOL0     N58100  10.151  11.801   7.254  0.1878  0.7429 -0.6017
  431MOL0     N58101  10.080  11.793   7.359  0.0376  0.1398  0.1977
  431MOL0     C58102   9.202  11.307   8.056  0.0594 -0.0872 -0.3438
  431MOL0     C58103   9.094  11.216   8.073 -0.2293  0.6872  0.2596
  431MOL0     C58104   8.656  11.041   8.005 -0.8362 -0.3722 -0.6373
  431MOL0     C58105   8.520  11.076   8.031 -0.0397 -0.4509  0.3939
  431MOL0     C58106   8.425  10.981   8.061  0.7243  0.3495  0.9757
  431MOL0     C58107   8.460  10.847   8.070 -0.8202  0.3662 -1.1114
  431MOL0     O58108   8.361  10.757   8.081  0.2395  0.3476  0.4040
  431MOL0     C58109   8.330  10.674   7.960  1.0023  0.6640 -0.9885
  431MOL0     C58110   8.175  10.681   7.930 -0.1551  0.2850  0.1421
  431MOL0     C58111   8.123  10.818   7.904 -0.4514  0.3941 -0.1056
  431MOL0     C58112   8.058  10.877   8.026  0.6773 -0.2693  0.7758
  431MOL0     C58113   7.914  10.826   8.047  0.5445  0.0795 -0.2838
  431MOL0     C58114   7.797  10.786   8.036 -0.0653  0.0818  0.2355
  431MOL0     C58115   8.594  10.807   8.055 -0.1008 -0.1783  0.3999
  431MOL0     C58116   8.691  10.904   8.015  0.2532 -0.5548 -0.4581
  431MOL0     C58117   8.830  10.845   8.014  0.5206  0.1888  0.2821
  431MOL0     H58118   8.892  11.362   7.838  2.1990 -0.7274 -2.8180
  431MOL0     H58119   9.093  11.498   7.816  1.2182  2.6830  2.8355
  431MOL0     H58120   9.421  11.485   8.115  0.6170 -0.1969  0.2721
  431MOL0     H58121   9.459  11.396   7.966  0.6165 -0.0428  2.6660
  431MOL0     H58122   9.585  11.623   8.005  1.0646  0.4987 -1.1091
  431MOL0     H58123   9.434  11.705   7.978 -1.5311 -1.2763 -0.9314
  431MOL0     H58124   9.527  11.721   7.752 -1.1020 -0.5672 -2.0230
  431MOL0     H58125   9.420  11.595   7.750  1.4406 -1.8351 -2.2445
  431MOL0     H58126   9.680  11.502   7.843 -2.6204 -1.2758  0.7459
  431MOL0     H58127   9.592  11.438   7.706  0.3874 -0.8575  0.3346
  431MOL0     H58128   9.675  11.631   7.565 -1.7416 -1.9549 -0.5684
  431MOL0     H58129   9.776  11.682   7.699  0.2023 -0.8492  0.0596
  431MOL0     H58130   9.886  11.465   7.705 -0.7772  0.0660  1.0788
  431MOL0     H58131   9.781  11.404   7.586 -0.3231  0.5500 -2.0705
  431MOL0     H58132   9.852  11.576   7.421 -0.4380  2.0882  0.5197
  431MOL0     H58133   9.968  11.447   7.450  0.6105  1.4393 -1.7956
  431MOL0     H58134   9.980  11.720   7.582  1.0031  1.7932 -0.6323
  431MOL0     H58135  10.091  11.574   7.605  3.9440  1.5947 -1.5537
  431MOL0     H58136  10.227  11.496   7.364 -1.1908  0.1805 -0.0785
  431MOL0     H58137  10.292  11.540   7.106  3.2991 -0.3953 -0.6308
  431MOL0     H58138  10.298  11.706   7.044  1.0742  2.0498  0.8527
  431MOL0     H58139  10.516  11.620   7.078 -0.8978 -2.4127  0.5125
  431MOL0     H58140  10.488  11.733   7.221 -0.5489 -0.1900  2.1550
  431MOL0     H58141  10.473  11.431   7.204 -1.9712 -0.5917  0.5618
  431MOL0     H58142  10.444  11.538   7.344  1.2731 -0.1027  0.8759
  431MOL0     H58143  10.675  11.462   7.370 -1.6427 -2.4670 -0.2243
  431MOL0     H58144  10.694  11.622   7.300 -1.1111  1.6272 -3.0271
  431MOL0     H58145  10.877  11.445   6.962  0.5533 -1.6076 -0.0658
  431MOL0     H58146  11.113  11.507   6.930  0.1081 -1.1847  0.3299
  431MOL0     H58147  11.391  11.789   6.810 -0.6184 -1.6068  0.1553
  431MOL0     H58148  11.607  11.869   6.734  0.8807 -2.0172 -1.0886
  431MOL0     H58149  11.845  11.873   6.670 -1.0187 -2.0167  0.5310
  431MOL0     H58150  11.791  12.001   6.785 -1.6402 -1.6245 -1.8388
  431MOL0     H58151  12.064  11.854   6.789  0.4728 -0.0985  1.0876
  431MOL0     H58152  12.030  11.978   6.674 -0.8097 -2.5667 -1.6014
  431MOL0     H58153  11.978  12.130   6.866  1.4679  1.9070  3.5331
  431MOL0     H58154  12.017  12.000   6.980 -0.6979  0.7400  0.3560
  431MOL0     H58155  12.252  11.991   6.870 -0.5064 -0.5407 -3.8900
  431MOL0     H58156  12.205  12.139   6.966 -0.8628  1.3109 -0.3976
  431MOL0     H58157  12.161  12.263   6.742  2.6074  2.1899  0.4097
  431MOL0     H58158  12.216  12.120   6.665 -0.6853  3.0305 -0.8472
  431MOL0     H58159  12.430  12.139   6.801  1.0121  0.9349  1.5849
  431MOL0     H58160  12.403  12.243   6.664 -1.5947 -2.1067 -0.2074
  431MOL0     H58161  12.337  12.328   6.945 -0.1462  0.9377 -1.4553
  431MOL0     H58162  12.363  12.438   6.801  0.7872  1.0881 -0.4651
  431MOL0     H58163  12.565  12.446   6.976  0.6787 -0.8774  0.9190
  431MOL0     H58164  12.594  12.283   6.919 -1.5166 -0.2721 -0.1826
  431MOL0     H58165  11.788  11.706   7.078 -0.2556  1.9369  0.6056
  431MOL0     H58166  11.564  11.613   7.160 -0.2728 -3.1730 -2.0796
  431MOL0     H58167  11.125  11.631   7.348  2.5610  0.3208 -1.7667
  431MOL0     H58168  10.890  11.569   7.366  1.1071 -2.1238  2.2314
  431MOL0     H58169   9.281  11.290   8.129 -0.6891  0.4286  0.5908
  431MOL0     H58170   9.101  11.144   8.154  4.0444  1.4895  0.8323
  431MOL0     H58171   8.490  11.180   8.028  1.7032  0.0685 -0.3743
  431MOL0     H58172   8.324  11.009   8.088  0.1393 -1.6683  0.9634
  431MOL0     H58173   8.363  10.573   7.987  0.4371  0.3917 -1.2936
  431MOL0     H58174   8.391  10.711   7.877  0.8880 -0.9013 -1.7999
  431MOL0     H58175   8.116  10.613   7.993 -0.7865  0.4082 -0.2992
  431MOL0     H58176   8.165  10.627   7.836  0.0520 -2.5725  1.6522
  431MOL0     H58177   8.060  10.816   7.814 -0.5968 -0.8954  0.0070
  431MOL0     H58178   8.208  10.884   7.882 -1.5149  1.4133 -1.3731
  431MOL0     H58179   8.106  10.857   8.122 -2.8089 -0.0488  2.7479
  431MOL0     H58180   8.055  10.986   8.010  2.2357 -0.0443  1.7867
  431MOL0     H58181   7.698  10.745   8.032  0.9198 -2.3616 -0.8770
  431MOL0     H58182   8.613  10.701   8.071  1.4196 -0.3731 -2.1631
  431MOL0     H58183   8.896  10.872   7.931 -0.9231 -2.1921 -1.8047
  431MOL0     H58184   8.875  10.864   8.112  0.3930 -1.4531  0.6907
  431MOL0     H58185   8.830  10.736   7.998 -1.6319  0.3074 -0.7975
  432MOL0     O58186   3.200   0.753   4.048  0.0422  0.0831 -0.0399
  432MOL0     C58187   3.083   0.706   4.038 -0.1051 -0.6968 -0.1985
  432MOL0     O58188   3.012   0.642   4.142  0.5664  0.0751 -0.3621
  432MOL0     C58189   3.076   0.600   4.256 -0.5778 -0.5405 -0.8212
  432MOL0     C58190   3.201   0.542   4.255  0.5876 -0.0619 -0.5196
  432MOL0     C58191   3.272   0.510   4.368 -0.1832 -0.2851 -0.1764
  432MOL0     C58192   3.215   0.539   4.495  0.3561 -0.2173 -0.7783
  432MOL0     O58193   3.281   0.502   4.613  0.5723 -0.5645  0.9713
  432MOL0     C58194   3.393   0.590   4.643 -0.5572 -0.1445  0.3850
  432MOL0     C58195   3.453   0.564   4.782  0.4896 -0.3557 -0.8085
  432MOL0     C58196   3.576   0.647   4.829 -0.0779  0.3440 -0.5489
  432MOL0     C58197   3.702   0.614   4.747 -0.9316 -0.5382  0.3102
  432MOL0     C58198   3.772   0.478   4.776 -0.7835  0.1732  0.3335
  432MOL0     C58199   3.924   0.468   4.737 -0.2664 -0.3809 -0.5905
  432MOL0     C58200   4.012   0.542   4.826 -0.1859 -0.3208 -0.6669
  432MOL0     C58201   4.158   0.486   4.818  0.9626  0.5579  0.5314
  432MOL0     N58202   4.211   0.482   4.679  0.5821 -0.1626  0.1052
  432MOL0     C58203   4.223   0.590   4.599 -0.4008  0.3346  0.2101
  432MOL0     C58204   4.322   0.561   4.513  0.0926 -0.7632 -0.0284
  432MOL0     C58205   4.359   0.660   4.402 -0.4299 -0.0593  0.2778
  432MOL0     C58206   4.499   0.726   4.419  0.3240 -0.1123 -0.1022
  432MOL0     C58207   4.615   0.628   4.403  0.0781  0.1154  0.1399
  432MOL0     C58208   4.743   0.719   4.392  0.2798  0.9078  0.1079
  432MOL0     O58209   4.857   0.644   4.352  0.4661 -0.3755 -0.0871
  432MOL0     C58210   4.886   0.625   4.223 -0.0529 -0.4923  0.2322
  432MOL0     C58211   4.809   0.649   4.104  0.4145  0.0553 -0.4523
  432MOL0     C58212   4.863   0.622   3.972  0.3985  0.8650  0.7710
  432MOL0     C58213   4.999   0.578   3.961 -0.1322  0.3557 -0.1114
  432MOL0     C58214   5.070   0.566   3.835  0.2233 -0.4923 -0.5887
  432MOL0     O58215   4.994   0.560   3.725  0.0484 -0.1134  0.2139
  432MOL0     C58216   5.046   0.531   3.602  0.3541  0.5902  0.3830
  432MOL0     C58217   5.107   0.407   3.576  0.5072 -0.2418  0.6463
  432MOL0     C58218   5.152   0.372   3.452  0.1211 -0.2429 -0.1961
  432MOL0     C58219   5.134   0.456   3.341  0.0586  0.1438 -0.7410
  432MOL0     O58220   5.144   0.422   3.205  0.4583  0.0830 -1.1284
  432MOL0     C58221   5.080   0.299   3.169 -0.3558  0.1867 -0.1322
  432MOL0     C58222   5.115   0.259   3.026  0.1792 -0.4209  0.0227
  432MOL0     C58223   5.034   0.136   2.978 -0.2322 -0.4181 -0.8179
  432MOL0     C58224   5.059   0.100   2.839  0.2089  0.3995  0.3339
  432MOL0     C58225   4.944   0.020   2.772  0.2049 -0.1382  0.1467
  432MOL0     C58226   4.990  -0.025   2.631 -0.0686  0.0422  0.2346
  432MOL0     C58227   5.092  -0.143   2.639 -0.4724  0.0384 -0.0458
  432MOL0     C58228   5.174  -0.154   2.507  0.4879  0.1169  0.0553
  432MOL0    Cl58229   5.065  -0.181   2.367  0.0348  0.0521 -0.4238
  432MOL0     C58230   5.079   0.581   3.367 -0.1889 -0.1372  0.7534
  432MOL0     C58231   5.042   0.621   3.494 -0.1287 -0.2810 -1.3332
  432MOL0     O58232   5.195   0.567   3.828 -0.4032  0.0347  0.7298
  432MOL0     C58233   5.068   0.560   4.081 -0.3333 -0.2678 -0.0343
  432MOL0     C58234   5.017   0.590   4.205 -0.9828  0.1258  1.3451
  432MOL0     N58235   4.355   0.429   4.524  0.0982 -0.1425 -0.2276
  432MOL0     N58236   4.289   0.389   4.634 -0.5764  0.0849 -0.8018
  432MOL0     C58237   3.086   0.591   4.498  0.8358  0.1385  0.0838
  432MOL0     C58238   3.012   0.614   4.383  0.0828  0.0234 -0.0556
  432MOL0     C58239   3.015   0.704   3.908  0.1060 -0.3941 -0.7981
  432MOL0     C58240   2.923   0.604   3.886 -0.2052  0.3120  0.6732
  432MOL0     C58241   2.850   0.592   3.772  0.2149  0.4959  0.0936
  432MOL0     C58242   2.862   0.684   3.673 -0.1409 -0.0605  0.3550
  432MOL0     O58243   2.792   0.685   3.556 -0.4993  0.2638 -0.5636
  432MOL0     C58244   2.662   0.624   3.555 -1.1576 -0.0128 -0.4241
  432MOL0     C58245   2.668   0.486   3.492  0.5685 -0.8736  0.2118
  432MOL0     C58246   2.537   0.427   3.462 -0.3051 -0.4626  0.1709
  432MOL0     C58247   2.542   0.308   3.366  0.0845 -0.1989  0.3797
  432MOL0     C58248   2.404   0.256   3.364  0.1508 -0.0215  1.5617
  432MOL0     C58249   2.290   0.217   3.353 -0.5392  0.1003 -0.0004
  432MOL0     C58250   2.958   0.790   3.690 -0.1717  0.1021  0.9266
  432MOL0     C58251   3.037   0.805   3.808  0.3543 -0.7520  0.3108
  432MOL0     C58252   3.133   0.927   3.819  0.0967  0.4603 -0.1448
  432MOL0     H58253   3.259   0.537   4.163  2.4802 -0.3361  0.6360
  432MOL0     H58254   3.373   0.470   4.362 -0.3941 -0.6942 -1.3615
  432MOL0     H58255   3.475   0.572   4.573 -1.0884 -0.0140 -0.2900
  432MOL0     H58256   3.360   0.695   4.639 -1.9056 -0.5602 -0.1700
  432MOL0     H58257   3.474   0.457   4.793  0.1149 -0.6218 -2.4666
  432MOL0     H58258   3.373   0.587   4.852 -1.8791 -1.6471 -2.9520
  432MOL0     H58259   3.606   0.624   4.931 -1.7705 -0.4091 -0.1997
  432MOL0     H58260   3.543   0.751   4.826 -0.6939  0.2825  2.0097
  432MOL0     H58261   3.676   0.622   4.641 -0.3263 -1.4680  0.0744
  432MOL0     H58262   3.767   0.696   4.778 -1.9412  1.2819 -2.0075
  432MOL0     H58263   3.745   0.450   4.878 -2.1138  0.4420  0.0825
  432MOL0     H58264   3.721   0.396   4.725 -3.1048 -0.0757  2.8024
  432MOL0     H58265   3.946   0.361   4.730 -0.6180 -0.3653 -2.8004
  432MOL0     H58266   3.950   0.494   4.634 -0.4567  0.7843 -0.3556
  432MOL0     H58267   3.975   0.526   4.928 -2.1008 -1.4010 -1.4709
  432MOL0     H58268   4.012   0.646   4.794  0.5942 -0.6782 -1.8881
  432MOL0     H58269   4.223   0.538   4.889 -0.2984 -0.8162  2.8264
  432MOL0     H58270   4.156   0.384   4.856 -1.3197  0.5062  0.4053
  432MOL0     H58271   4.180   0.690   4.607  3.1923  2.1047 -0.5009
  432MOL0     H58272   4.359   0.609   4.306  1.2977  0.3294  0.0293
  432MOL0     H58273   4.287   0.741   4.388 -0.7729 -0.4597 -0.2779
  432MOL0     H58274   4.503   0.802   4.341  1.3410  0.2002  0.2451
  432MOL0     H58275   4.500   0.766   4.521 -0.5573  0.0869 -0.1665
  432MOL0     H58276   4.610   0.566   4.312  1.4471  0.0598  0.0855
  432MOL0     H58277   4.618   0.566   4.493 -2.7145  2.0464  1.6770
  432MOL0     H58278   4.761   0.763   4.490 -2.8369 -0.6243  1.4877
  432MOL0     H58279   4.729   0.798   4.317 -3.8912 -0.7116 -1.1159
  432MOL0     H58280   4.708   0.683   4.125  0.2516 -1.0797  0.7424
  432MOL0     H58281   4.813   0.633   3.876  0.9901 -4.0295 -0.3302
  432MOL0     H58282   5.120   0.329   3.650 -0.3499 -1.7450 -0.7135
  432MOL0     H58283   5.200   0.277   3.434  1.4449  0.4488 -0.4624
  432MOL0     H58284   5.094   0.214   3.236 -1.9445  2.1823  2.9480
  432MOL0     H58285   4.971   0.301   3.172 -0.4443 -1.6226 -0.7143
  432MOL0     H58286   5.096   0.346   2.962 -0.3079 -0.4776  0.0821
  432MOL0     H58287   5.222   0.246   3.007  0.1013  0.4876 -1.1421
  432MOL0     H58288   5.060   0.060   3.053  0.3275 -0.7908 -1.3867
  432MOL0     H58289   4.930   0.171   2.981  0.1487  0.7933 -0.9856
  432MOL0     H58290   5.151   0.041   2.833 -0.7078 -1.4747  2.7664
  432MOL0     H58291   5.059   0.194   2.783  2.4554  0.0036 -0.4384
  432MOL0     H58292   4.856   0.085   2.767  1.0755  1.0145 -1.1430
  432MOL0     H58293   4.916  -0.070   2.827 -2.8123 -1.2912 -2.9603
  432MOL0     H58294   4.901  -0.065   2.580  0.0204  0.8518 -0.5769
  432MOL0     H58295   5.029   0.064   2.581 -0.3340 -0.4750 -0.9505
  432MOL0     H58296   5.045  -0.239   2.663  0.3944 -0.1059  1.1231
  432MOL0     H58297   5.164  -0.126   2.719 -0.3574  1.9475 -0.5029
  432MOL0     H58298   5.238  -0.068   2.487 -0.1410  0.1069 -2.2464
  432MOL0     H58299   5.244  -0.238   2.505 -0.1385 -0.4081 -1.2587
  432MOL0     H58300   5.075   0.660   3.293 -0.3611  1.5130  2.4411
  432MOL0     H58301   5.036   0.723   3.529  1.2059 -0.1130 -1.5602
  432MOL0     H58302   5.171   0.529   4.070 -0.3671 -0.7128  0.8648
  432MOL0     H58303   5.084   0.575   4.289 -0.0247 -0.2878  0.5238
  432MOL0     H58304   3.043   0.615   4.595  0.7563  4.2155 -0.7629
  432MOL0     H58305   2.910   0.651   4.393  0.2482 -0.0186  2.0770
  432MOL0     H58306   2.894   0.544   3.971 -0.6050  0.5907  0.7334
  432MOL0     H58307   2.792   0.503   3.753  1.0856 -0.2464  0.8356
  432MOL0     H58308   2.596   0.687   3.496 -3.1086 -1.1767  0.4021
  432MOL0     H58309   2.619   0.605   3.654 -1.8406  0.8871 -0.5384
  432MOL0     H58310   2.719   0.420   3.562  1.6016  1.2882  1.6215
  432MOL0     H58311   2.726   0.488   3.399 -0.9195 -1.9723 -0.7803
  432MOL0     H58312   2.484   0.505   3.407 -4.4554 -2.3799  1.0207
  432MOL0     H58313   2.479   0.413   3.554 -1.9979  3.3493 -0.1116
  432MOL0     H58314   2.563   0.350   3.268 -1.5287 -0.4280 -0.0925
  432MOL0     H58315   2.610   0.228   3.396 -1.0192 -0.5373  2.1475
  432MOL0     H58316   2.189   0.190   3.333 -0.2357  0.5005 -2.4072
  432MOL0     H58317   2.957   0.866   3.613 -0.3212 -0.8286 -0.0175
  432MOL0     H58318   3.152   0.954   3.923 -0.9602  0.3148  0.0977
  432MOL0     H58319   3.226   0.905   3.765  0.9828 -0.6243  1.7364
  432MOL0     H58320   3.085   1.010   3.766  1.2947  0.1886 -1.7520
  433MOL0     O58321   3.229   8.642   8.487 -0.8874 -0.0214 -0.0720
  433MOL0     C58322   3.136   8.696   8.437  0.8378  0.2826 -1.1126
  433MOL0     O58323   3.145   8.800   8.341 -0.7711 -0.5241 -0.2832
  433MOL0     C58324   3.262   8.791   8.262 -0.0980 -0.2649 -0.6764
  433MOL0     C58325   3.241   8.792   8.128  0.3629  0.9290 -0.0303
  433MOL0     C58326   3.338   8.798   8.034 -0.2965 -0.0086  0.1504
  433MOL0     C58327   3.473   8.794   8.079  0.4410  0.1183  0.2927
  433MOL0     O58328   3.579   8.791   7.988 -0.4174 -0.1202 -0.1460
  433MOL0     C58329   3.658   8.678   8.015 -0.7010 -0.0985  0.3508
  433MOL0     C58330   3.747   8.643   7.896  0.0360  0.0928  0.6196
  433MOL0     C58331   3.862   8.736   7.853  0.5358  0.0744  0.1423
  433MOL0     C58332   3.961   8.758   7.960 -0.9854  0.0558 -0.2552
  433MOL0     C58333   4.072   8.841   7.897  0.5087  0.4009  0.7384
  433MOL0     C58334   4.188   8.852   7.984 -0.6854  0.5603 -1.2399
  433MOL0     C58335   4.300   8.937   7.923  0.8499  0.8847 -0.3522
  433MOL0     C58336   4.419   8.928   8.016 -0.4143 -0.5711  0.1513
  433MOL0     N58337   4.538   8.976   7.937  0.4009  0.9769 -0.3317
  433MOL0     C58338   4.627   9.076   7.958 -0.1916  0.0515 -0.2777
  433MOL0     C58339   4.711   9.088   7.849  0.6074  0.2281  0.4983
  433MOL0     C58340   4.809   9.196   7.827 -0.1507  0.8920 -0.0386
  433MOL0     C58341   4.946   9.132   7.853  0.1812  0.1375  0.4332
  433MOL0     C58342   4.954   9.083   7.993  0.3985  0.1209  0.2339
  433MOL0     C58343   5.089   9.043   8.029  0.7378 -0.4933  0.3085
  433MOL0     O58344   5.183   9.155   8.038  0.0994 -0.7374  0.5186
  433MOL0     C58345   5.318   9.129   8.030  0.1197  0.5678 -0.2872
  433MOL0     C58346   5.389   9.168   7.919  0.6864 -0.2272  0.2627
  433MOL0     C58347   5.526   9.130   7.905 -0.7266  0.3731  0.1788
  433MOL0     C58348   5.597   9.061   8.007 -0.8874  0.4490 -0.1283
  433MOL0     C58349   5.736   9.016   8.006 -1.0079  0.1415  0.7227
  433MOL0     O58350   5.796   9.011   7.890 -0.3399  0.7188  0.4708
  433MOL0     C58351   5.930   8.967   7.884  0.5320 -0.2669 -1.0703
  433MOL0     C58352   5.975   8.993   7.757 -0.7947  0.9277  0.9650
  433MOL0     C58353   6.104   8.959   7.723 -0.6239  0.2744 -0.8042
  433MOL0     C58354   6.187   8.895   7.814  0.0280 -0.7096  0.5596
  433MOL0     O58355   6.316   8.878   7.778 -0.1668 -0.4930 -0.8279
  433MOL0     C58356   6.406   8.800   7.860 -0.3419 -0.6947  0.1350
  433MOL0     C58357   6.395   8.655   7.829  1.1100  0.0644  0.2482
  433MOL0     C58358   6.513   8.582   7.899  0.1154  0.1877 -0.2301
  433MOL0     C58359   6.536   8.435   7.848  0.0851 -0.2593  0.2335
  433MOL0     C58360   6.645   8.354   7.896  0.2996  0.3495 -0.2755
  433MOL0     C58361   6.779   8.358   7.805 -0.3917 -0.4091 -0.0337
  433MOL0     C58362   6.851   8.492   7.802 -0.2895 -0.3774  0.4140
  433MOL0     C58363   6.955   8.491   7.695 -0.7233  0.1497 -0.5834
  433MOL0    Cl58364   7.013   8.666   7.657 -0.2132  0.0172  0.5107
  433MOL0     C58365   6.137   8.854   7.936 -0.2324  0.2879 -0.4214
  433MOL0     C58366   6.004   8.887   7.977  0.4007 -0.4779 -0.0528
  433MOL0     O58367   5.790   9.003   8.114 -0.1061  0.1135 -0.9513
  433MOL0     C58368   5.520   9.030   8.121 -0.3876 -0.4047  0.2600
  433MOL0     C58369   5.388   9.064   8.127  1.1608 -0.2134 -0.2424
  433MOL0     N58370   4.671   8.992   7.758 -0.2887  0.2836  0.9209
  433MOL0     N58371   4.577   8.923   7.818 -0.3293 -0.1430  0.5438
  433MOL0     C58372   3.504   8.793   8.215  0.1177 -0.0887 -0.4955
  433MOL0     C58373   3.392   8.779   8.304 -0.1350 -0.0649  0.1835
  433MOL0     C58374   2.998   8.680   8.498 -0.9719 -0.4296  0.8268
  433MOL0     C58375   2.887   8.720   8.411 -0.3630  0.4623  0.2575
  433MOL0     C58376   2.756   8.720   8.453  1.1110 -0.4017  0.6721
  433MOL0     C58377   2.731   8.674   8.585 -0.1048 -0.1899  0.0855
  433MOL0     O58378   2.608   8.668   8.644 -0.7470 -0.0160 -0.2061
  433MOL0     C58379   2.557   8.793   8.689 -0.1752 -1.2885 -0.0376
  433MOL0     C58380   2.412   8.794   8.727  0.4671  0.2517 -0.3392
  433MOL0     C58381   2.319   8.734   8.620  0.4068 -0.2676 -0.4463
  433MOL0     C58382   2.175   8.722   8.661 -0.2759  0.4827  0.0547
  433MOL0     C58383   2.117   8.844   8.718 -0.1074  0.1577  0.3977
  433MOL0     C58384   2.082   8.943   8.777 -0.2255  0.0914 -0.3979
  433MOL0     C58385   2.832   8.645   8.675  0.0321  0.9849  0.6704
  433MOL0     C58386   2.959   8.640   8.627 -0.3647 -0.6512 -0.9067
  433MOL0     C58387   3.061   8.580   8.727 -0.2486  0.1824  0.5071
  433MOL0     H58388   3.137   8.800   8.097  0.4453  4.1799  0.1392
  433MOL0     H58389   3.308   8.786   7.930  1.5285 -1.0274 -0.3164
  433MOL0     H58390   3.730   8.676   8.097  1.1791 -0.3549 -1.2251
  433MOL0     H58391   3.588   8.594   8.019 -0.9264  0.0142 -0.8690
  433MOL0     H58392   3.691   8.626   7.804 -2.6391 -0.5876  2.2556
  433MOL0     H58393   3.789   8.545   7.923  1.6976 -0.0013 -2.0074
  433MOL0     H58394   3.804   8.823   7.821 -0.3324 -1.0017 -1.3068
  433MOL0     H58395   3.905   8.698   7.760  0.9279 -0.0085  0.3563
  433MOL0     H58396   3.916   8.806   8.048  0.4442  0.7996  0.0952
  433MOL0     H58397   3.990   8.655   7.980 -0.1742 -0.0021 -1.6210
  433MOL0     H58398   4.097   8.791   7.803  2.3286  1.1924  0.7511
  433MOL0     H58399   4.036   8.942   7.878  2.1651  1.0724  0.9697
  433MOL0     H58400   4.162   8.905   8.076  0.0306 -2.1472  0.6079
  433MOL0     H58401   4.211   8.748   8.005 -0.8182  0.3214 -2.2216
  433MOL0     H58402   4.263   9.039   7.910 -1.0031  0.5312  1.4989
  433MOL0     H58403   4.317   8.895   7.824 -0.8116 -1.8005  0.3864
  433MOL0     H58404   4.397   8.992   8.102 -3.0352 -1.9057  0.6016
  433MOL0     H58405   4.432   8.825   8.052  2.9477 -1.1536 -2.2715
  433MOL0     H58406   4.628   9.145   8.042 -1.1082  2.4756 -2.1242
  433MOL0     H58407   4.801   9.232   7.724 -0.6604  3.0196  0.6981
  433MOL0     H58408   4.790   9.281   7.893 -2.5721  1.3637 -1.2308
  433MOL0     H58409   4.968   9.056   7.778  2.9846  2.2077 -1.0397
  433MOL0     H58410   5.019   9.212   7.837  0.8556 -0.7169 -0.8929
  433MOL0     H58411   4.897   8.990   8.005  1.2900 -0.6846 -1.3756
  433MOL0     H58412   4.908   9.147   8.068 -1.3555 -0.4011 -0.3276
  433MOL0     H58413   5.124   8.983   7.945 -0.7492  2.3386 -2.5524
  433MOL0     H58414   5.097   8.974   8.114  0.6716 -0.3241  0.4523
  433MOL0     H58415   5.342   9.210   7.830  1.6389  0.1704 -0.0697
  433MOL0     H58416   5.578   9.154   7.812 -0.3731  1.9473  0.7352
  433MOL0     H58417   5.914   9.041   7.681 -0.3415 -0.9917 -0.7001
  433MOL0     H58418   6.143   9.012   7.636 -2.5888  2.4643 -0.4731
  433MOL0     H58419   6.505   8.834   7.828 -0.5370 -1.6387 -1.6089
  433MOL0     H58420   6.387   8.825   7.965 -2.8864 -0.6433 -0.2816
  433MOL0     H58421   6.301   8.615   7.868  1.7580  1.3949  3.5050
  433MOL0     H58422   6.403   8.634   7.722 -1.0374 -2.2392  0.4562
  433MOL0     H58423   6.596   8.650   7.874  0.0839  0.6427  0.8512
  433MOL0     H58424   6.510   8.586   8.008  1.2286  1.7230 -0.2116
  433MOL0     H58425   6.541   8.442   7.739 -1.2932 -2.3136 -0.0076
  433MOL0     H58426   6.437   8.397   7.876  0.5387 -0.9003  0.9896
  433MOL0     H58427   6.612   8.250   7.886  2.1420 -0.2857 -0.1410
  433MOL0     H58428   6.663   8.377   8.001 -0.2254 -0.8433  0.0914
  433MOL0     H58429   6.849   8.284   7.845  0.4004 -0.4439 -1.3952
  433MOL0     H58430   6.740   8.337   7.704  1.0466  0.9186 -0.9141
  433MOL0     H58431   6.907   8.502   7.895  0.6779  0.7106 -0.2610
  433MOL0     H58432   6.790   8.582   7.796  1.1097  0.7968  2.5938
  433MOL0     H58433   7.046   8.441   7.731  0.2789  0.8870 -1.9886
  433MOL0     H58434   6.924   8.441   7.603  1.1407  0.3127 -1.3522
  433MOL0     H58435   6.197   8.826   8.022 -0.9948  0.4085  0.1624
  433MOL0     H58436   5.965   8.859   8.074 -0.0450  1.5212  0.3888
  433MOL0     H58437   5.557   8.972   8.205 -0.5581  2.6911  2.6204
  433MOL0     H58438   5.327   9.035   8.213 -0.1139 -0.8965 -1.3307
  433MOL0     H58439   3.606   8.817   8.243 -0.4624  0.6507  1.1135
  433MOL0     H58440   3.410   8.783   8.411 -3.1036 -2.4254  0.8968
  433MOL0     H58441   2.895   8.748   8.306 -1.8363 -0.5113 -0.1447
  433MOL0     H58442   2.680   8.758   8.385 -0.2327 -0.6903  1.9456
  433MOL0     H58443   2.575   8.867   8.610 -1.1184 -0.8678  0.1274
  433MOL0     H58444   2.607   8.835   8.776  0.2742  1.1785 -1.3944
  433MOL0     H58445   2.392   8.900   8.747  4.1524  0.6103  2.7288
  433MOL0     H58446   2.411   8.727   8.813  3.0084  1.3080  0.6250
  433MOL0     H58447   2.354   8.636   8.585 -0.2090 -0.5538 -0.2700
  433MOL0     H58448   2.318   8.804   8.536 -1.1379 -0.0628 -0.2720
  433MOL0     H58449   2.122   8.687   8.572  1.9235 -0.2463 -1.0211
  433MOL0     H58450   2.172   8.645   8.738  1.8498  2.3209  2.1494
  433MOL0     H58451   2.023   9.013   8.833 -1.4317 -1.6470  0.6174
  433MOL0     H58452   2.805   8.605   8.772  3.6186  0.3059  1.5069
  433MOL0     H58453   3.021   8.548   8.824  1.6414  2.3385  2.1145
  433MOL0     H58454   3.103   8.496   8.671 -1.3426 -2.3651  3.2548
  433MOL0     H58455   3.134   8.658   8.752 -0.0684  0.7158 -1.4970
  434MOL0     O58456   0.232   1.775   8.678 -0.0383 -0.1737 -0.0161
  434MOL0     C58457   0.246   1.889   8.631  0.1135  0.7144  1.0808
  434MOL0     O58458   0.349   1.974   8.667 -0.0986 -0.1521  0.2048
  434MOL0     C58459   0.397   1.960   8.796  0.0532 -0.2793  0.3313
  434MOL0     C58460   0.506   1.866   8.825  0.3081 -0.2126  0.7666
  434MOL0     C58461   0.555   1.856   8.955 -0.2817 -0.0544 -0.8383
  434MOL0     C58462   0.490   1.929   9.055  0.1889  0.5704 -0.9977
  434MOL0     O58463   0.534   1.927   9.189 -0.2909 -0.2199  0.3786
  434MOL0     C58464   0.665   1.914   9.227 -0.4958 -0.3431  0.2898
  434MOL0     C58465   0.675   1.913   9.372 -0.3291 -0.1661 -0.6276
  434MOL0     C58466   0.812   1.874   9.419 -0.4338 -0.8724  0.0165
  434MOL0     C58467   0.842   1.924   9.556  1.0323 -0.0080 -0.9685
  434MOL0     C58468   0.982   1.880   9.606  0.0891  0.1520  0.1540
  434MOL0     C58469   0.992   1.891   9.761 -0.1269 -0.4011  0.3209
  434MOL0     C58470   1.138   1.926   9.814  0.2864  0.1456  0.7506
  434MOL0     C58471   1.242   1.808   9.805  0.7172 -0.3608  0.5234
  434MOL0     N58472   1.325   1.800   9.920 -0.6596  0.3257  0.5900
  434MOL0     C58473   1.411   1.890   9.977 -0.2218 -0.3638  0.4675
  434MOL0     C58474   1.488   1.821  10.067  0.1558 -1.0551 -0.1557
  434MOL0     C58475   1.592   1.870  10.156  0.2555  0.7433  0.8156
  434MOL0     C58476   1.684   1.957  10.069  0.8106 -0.1191 -0.1005
  434MOL0     C58477   1.794   2.022  10.153  0.3512  0.1823  0.3294
  434MOL0     C58478   1.877   2.135  10.079 -0.3070  0.1768 -0.6030
  434MOL0     O58479   1.964   2.194  10.170 -0.1425 -0.0670  0.4026
  434MOL0     C58480   2.052   2.282  10.103 -0.1476 -0.6599  0.5055
  434MOL0     C58481   2.032   2.336   9.977 -0.2451  0.3437 -0.2463
  434MOL0     C58482   2.128   2.413   9.912  0.0791 -0.4704  0.8156
  434MOL0     C58483   2.247   2.446   9.971 -0.7488 -0.4867 -0.1533
  434MOL0     C58484   2.353   2.533   9.903 -0.7480  0.4430  0.2031
  434MOL0     O58485   2.464   2.572   9.970  0.1318 -0.2478 -0.1100
  434MOL0     C58486   2.563   2.645   9.907  0.3807  0.3521  0.3079
  434MOL0     C58487   2.668   2.570   9.852  0.9877 -0.5491  0.1728
  434MOL0     C58488   2.783   2.637   9.805  0.6227 -0.1100 -0.8226
  434MOL0     C58489   2.802   2.766   9.825  0.5152  0.3588 -0.2918
  434MOL0     O58490   2.919   2.815   9.782 -0.7538 -0.4806 -0.2571
  434MOL0     C58491   3.023   2.845   9.887  0.1425 -0.0148  0.5531
  434MOL0     C58492   3.151   2.880   9.814 -0.0664 -1.3116  0.0327
  434MOL0     C58493   3.174   3.027   9.786  0.0138 -0.7036  0.4279
  434MOL0     C58494   3.292   3.060   9.690  0.4820  0.4875  0.0814
  434MOL0     C58495   3.432   3.012   9.748  0.1901 -0.0324 -0.0164
  434MOL0     C58496   3.532   3.062   9.641  0.6120 -0.4540  0.3238
  434MOL0     C58497   3.681   3.049   9.693 -0.2215 -0.1351 -0.4359
  434MOL0     C58498   3.779   3.066   9.573  0.0218  0.5170 -0.0908
  434MOL0    Cl58499   3.748   3.220   9.472 -0.2420  0.6367  0.3870
  434MOL0     C58500   2.700   2.841   9.886  0.6169 -0.4217  0.2757
  434MOL0     C58501   2.584   2.780   9.932 -0.0756  0.0189  0.0841
  434MOL0     O58502   2.332   2.570   9.790 -0.0931 -0.0237 -0.2328
  434MOL0     C58503   2.264   2.396  10.099  0.6147  0.0439  0.2034
  434MOL0     C58504   2.166   2.324  10.162 -0.4690  0.2040 -0.6105
  434MOL0     N58505   1.450   1.686  10.062 -0.2763 -0.1398  0.1048
  434MOL0     N58506   1.357   1.683   9.974  0.3991  0.0106 -0.3648
  434MOL0     C58507   0.377   2.009   9.024 -0.2863  0.9219 -1.3751
  434MOL0     C58508   0.325   2.017   8.900 -0.0279 -0.4290  0.2052
  434MOL0     C58509   0.146   1.931   8.522  0.0992 -0.4916 -0.0714
  434MOL0     C58510   0.067   1.826   8.465  0.4721  0.2030 -0.8134
  434MOL0     C58511  -0.037   1.846   8.382 -0.1768 -0.2173  0.1401
  434MOL0     C58512  -0.062   1.977   8.339  0.4910 -0.1105  0.6385
  434MOL0     O58513  -0.163   2.013   8.250 -0.0210 -0.8869 -0.0403
  434MOL0     C58514  -0.246   1.917   8.195 -0.2298  0.3867  0.5959
  434MOL0     C58515  -0.349   1.987   8.098  0.2677  0.2995 -0.4783
  434MOL0     C58516  -0.472   2.051   8.161  0.4342  0.1840  0.1720
  434MOL0     C58517  -0.584   1.946   8.195  1.4080  0.1775 -0.2324
  434MOL0     C58518  -0.721   2.006   8.227  0.1974 -0.4612 -0.4085
  434MOL0     C58519  -0.832   2.046   8.253  0.7057 -0.2612 -0.5783
  434MOL0     C58520   0.020   2.082   8.378  0.9093  0.3450  0.8521
  434MOL0     C58521   0.124   2.060   8.470  0.7674 -0.4580 -0.2593
  434MOL0     C58522   0.206   2.178   8.514 -0.4348 -0.4204 -0.1591
  434MOL0     H58523   0.559   1.835   8.735  2.5136  3.7904  0.4681
  434MOL0     H58524   0.645   1.799   8.974 -0.8180 -0.2753  1.2396
  434MOL0     H58525   0.706   1.821   9.187 -3.0271 -1.5299  0.3135
  434MOL0     H58526   0.726   1.990   9.178 -1.8473 -0.2172 -1.2828
  434MOL0     H58527   0.608   1.839   9.417  1.3426 -0.4070  1.6206
  434MOL0     H58528   0.649   2.014   9.404  1.6521  0.6103 -1.3554
  434MOL0     H58529   0.886   1.926   9.357 -1.7914  0.8012 -0.2835
  434MOL0     H58530   0.824   1.766   9.408 -1.5144 -0.9507 -0.5571
  434MOL0     H58531   0.846   2.033   9.550  0.7198  0.3134  2.7432
  434MOL0     H58532   0.758   1.900   9.621 -1.5228  1.4381 -3.4657
  434MOL0     H58533   0.997   1.778   9.570  0.5731 -0.3080  1.6029
  434MOL0     H58534   1.046   1.941   9.541 -0.3631  0.8354  0.3293
  434MOL0     H58535   0.925   1.972   9.792  0.7386  0.5730 -0.2598
  434MOL0     H58536   0.945   1.804   9.806 -0.1932 -1.2415 -1.2958
  434MOL0     H58537   1.133   1.951   9.920 -1.0659  0.6797  0.5865
  434MOL0     H58538   1.179   2.011   9.759  1.6780 -1.3387 -0.6249
  434MOL0     H58539   1.178   1.719   9.803 -2.0679  1.5373  0.7101
  434MOL0     H58540   1.292   1.817   9.708  2.0580  1.2477  1.3128
  434MOL0     H58541   1.426   1.994   9.949 -1.7459  0.3309  2.0885
  434MOL0     H58542   1.549   1.918  10.244  1.2022  0.5330  1.4121
  434MOL0     H58543   1.654   1.791  10.199  0.9355  1.3936  1.0516
  434MOL0     H58544   1.727   1.895   9.990  0.5391 -0.6138  0.1368
  434MOL0     H58545   1.621   2.028  10.014 -1.4530 -1.7155  0.2776
  434MOL0     H58546   1.860   1.939  10.182 -1.6033 -1.1214  1.2388
  434MOL0     H58547   1.751   2.069  10.242  1.0239  1.4007  0.0392
  434MOL0     H58548   1.804   2.208  10.043 -2.7168 -1.5903  0.4485
  434MOL0     H58549   1.932   2.098   9.992  1.2438 -0.0808  0.4526
  434MOL0     H58550   1.943   2.329   9.915  0.0098 -0.4515 -0.5399
  434MOL0     H58551   2.112   2.468   9.821  3.8728 -0.5353 -0.0453
  434MOL0     H58552   2.656   2.462   9.844 -0.0349 -0.4838  0.6114
  434MOL0     H58553   2.864   2.585   9.755 -0.6301 -0.2921 -2.8225
  434MOL0     H58554   2.997   2.919   9.963 -2.8389 -0.1184 -0.2426
  434MOL0     H58555   3.033   2.752   9.944  0.2313  1.4612  3.0789
  434MOL0     H58556   3.230   2.834   9.873 -1.9699 -0.8411  3.2075
  434MOL0     H58557   3.152   2.829   9.718 -0.6876 -1.8071  0.2867
  434MOL0     H58558   3.092   3.083   9.740 -1.1570 -1.4135  1.5719
  434MOL0     H58559   3.197   3.066   9.885 -3.5860 -2.7976  2.2776
  434MOL0     H58560   3.295   3.169   9.683  0.7439  0.5875  1.5008
  434MOL0     H58561   3.280   3.021   9.589  0.7809  1.2264 -0.2479
  434MOL0     H58562   3.445   2.904   9.756  1.5560 -0.0655 -1.8585
  434MOL0     H58563   3.442   3.056   9.847 -3.7678 -1.7638  1.3654
  434MOL0     H58564   3.517   3.000   9.553 -1.6168  0.4655 -0.0332
  434MOL0     H58565   3.515   3.169   9.624  0.5614 -0.2140  1.6976
  434MOL0     H58566   3.705   2.947   9.725  1.0709  0.1693 -0.3677
  434MOL0     H58567   3.693   3.118   9.778 -1.2980 -0.6169  0.1207
  434MOL0     H58568   3.876   3.081   9.621  0.0726  0.5131 -0.1944
  434MOL0     H58569   3.784   2.983   9.503 -0.1856  1.0948 -0.8068
  434MOL0     H58570   2.711   2.944   9.918 -0.7896 -0.0536 -0.3515
  434MOL0     H58571   2.508   2.834   9.988  0.1272  0.8666 -0.4426
  434MOL0     H58572   2.361   2.421  10.140  1.6946 -1.2504 -1.4445
  434MOL0     H58573   2.189   2.282  10.259  2.6768 -1.0214 -1.7609
  434MOL0     H58574   0.340   2.054   9.115  1.5738 -2.9995  1.5976
  434MOL0     H58575   0.247   2.089   8.874  0.9739 -0.3942 -3.1328
  434MOL0     H58576   0.078   1.724   8.501 -0.9762 -0.1041 -1.1779
  434MOL0     H58577  -0.106   1.763   8.365 -1.9509  1.3594 -0.6521
  434MOL0     H58578  -0.300   1.854   8.265  1.1466 -1.5320  0.0067
  434MOL0     H58579  -0.186   1.856   8.127  0.9435  1.1468  0.9122
  434MOL0     H58580  -0.392   1.917   8.025  1.0379 -1.3846  0.6330
  434MOL0     H58581  -0.303   2.066   8.038 -3.4057  2.4686 -0.7695
  434MOL0     H58582  -0.514   2.118   8.086  0.0520  0.2717  0.4632
  434MOL0     H58583  -0.437   2.110   8.246 -2.5678 -1.2532  2.6099
  434MOL0     H58584  -0.595   1.871   8.117 -0.8920  1.8476 -1.6252
  434MOL0     H58585  -0.555   1.902   8.291 -2.5172  1.3580  1.7223
  434MOL0     H58586  -0.934   2.069   8.278  1.2858  2.1428 -0.1628
  434MOL0     H58587   0.005   2.178   8.329  0.5622 -1.0747 -2.0646
  434MOL0     H58588   0.206   2.177   8.623 -2.1018 -0.6237 -0.1371
  434MOL0     H58589   0.308   2.174   8.474 -0.8539  2.0111 -1.6332
  434MOL0     H58590   0.160   2.269   8.476 -0.3792 -1.2141 -2.2570
  435MOL0     O58591   0.748   9.212   8.875  0.2238 -0.1665 -0.0163
  435MOL0     C58592   0.758   9.273   8.982 -0.1782 -0.0486  0.4612
  435MOL0     O58593   0.872   9.293   9.049 -0.6344 -0.0530 -0.6318
  435MOL0     C58594   0.990   9.227   9.006  1.4305 -0.0713  0.4935
  435MOL0     C58595   1.058   9.238   8.891 -0.3878  0.1461  0.3202
  435MOL0     C58596   1.184   9.173   8.871  0.8059  0.4665  0.2148
  435MOL0     C58597   1.232   9.092   8.971  0.1381  0.7489 -0.8272
  435MOL0     O58598   1.344   9.009   8.952 -0.2807 -0.2421 -0.5340
  435MOL0     C58599   1.437   8.992   9.061  1.0022  0.3109 -0.1038
  435MOL0     C58600   1.565   9.052   9.017  0.1614 -0.0198  0.4425
  435MOL0     C58601   1.676   8.956   8.973  0.4831  0.2916 -0.1558
  435MOL0     C58602   1.633   8.887   8.841 -1.2135  0.3309 -0.0810
  435MOL0     C58603   1.709   8.754   8.832  1.1076  0.1109 -0.6311
  435MOL0     C58604   1.648   8.666   8.732  0.2697  0.1310 -0.4674
  435MOL0     C58605   1.756   8.574   8.670  0.2774 -0.3197 -0.3881
  435MOL0     C58606   1.797   8.456   8.756  0.5452 -0.1297 -0.3348
  435MOL0     N58607   1.899   8.375   8.682 -0.5558  0.0076  0.0232
  435MOL0     C58608   1.876   8.256   8.617 -0.5880  0.0824  0.5906
  435MOL0     C58609   1.986   8.233   8.541  0.7936  0.1465 -0.4956
  435MOL0     C58610   1.997   8.118   8.446  0.3233 -0.0034 -0.4564
  435MOL0     C58611   2.147   8.093   8.420 -0.0687 -1.1006  0.0211
  435MOL0     C58612   2.192   8.190   8.305 -0.5208 -0.5434  0.3740
  435MOL0     C58613   2.352   8.207   8.305  0.0524  0.3727 -0.4962
  435MOL0     O58614   2.425   8.090   8.356 -0.1835 -0.0544 -0.3375
  435MOL0     C58615   2.562   8.086   8.355 -0.1008 -0.5633  0.5162
  435MOL0     C58616   2.648   8.181   8.294 -0.5601  0.1162 -0.0899
  435MOL0     C58617   2.790   8.164   8.280  0.5040  0.6853  0.1202
  435MOL0     C58618   2.853   8.049   8.332  1.2787  0.0665 -0.7935
  435MOL0     C58619   2.996   8.029   8.325 -0.0357 -0.1754  0.4673
  435MOL0     O58620   3.070   8.121   8.265  0.0464 -0.1716  0.0235
  435MOL0     C58621   3.191   8.076   8.212 -0.6990 -0.0796 -0.5300
  435MOL0     C58622   3.197   8.054   8.079  0.5787  0.3489 -1.0734
  435MOL0     C58623   3.318   8.015   8.022  0.1072  0.0316  1.1618
  435MOL0     C58624   3.436   8.012   8.098  0.9150 -0.4095  0.4311
  435MOL0     O58625   3.560   7.964   8.058  0.4021 -0.4924  0.0971
  435MOL0     C58626   3.537   7.841   7.984 -0.3420  0.0448  0.0149
  435MOL0     C58627   3.665   7.764   7.963 -0.3078 -0.4496 -0.0514
  435MOL0     C58628   3.780   7.864   7.919 -0.7396  0.6702  0.1957
  435MOL0     C58629   3.898   7.785   7.853  0.7953  0.8875  0.7712
  435MOL0     C58630   3.980   7.881   7.768  0.0422  0.1353 -0.2371
  435MOL0     C58631   4.113   7.817   7.741 -0.3084 -1.1243  0.2103
  435MOL0     C58632   4.113   7.735   7.615 -0.7026  0.4962  0.1683
  435MOL0     C58633   4.049   7.606   7.630 -0.0292 -0.6065  0.4289
  435MOL0    Cl58634   4.119   7.504   7.490  0.1590  0.1903 -0.0793
  435MOL0     C58635   3.429   8.053   8.227 -0.8087 -0.4489 -0.3344
  435MOL0     C58636   3.302   8.078   8.284 -0.2725 -0.9198 -0.6290
  435MOL0     O58637   3.037   7.925   8.374  0.3973 -0.1552 -0.3035
  435MOL0     C58638   2.771   7.956   8.399  0.1547  0.9842  0.1670
  435MOL0     C58639   2.625   7.971   8.403 -0.6228  0.0732  0.1477
  435MOL0     N58640   2.076   8.337   8.562 -0.0664  0.1709  0.6333
  435MOL0     N58641   2.019   8.420   8.643  0.1152 -0.1023  0.5223
  435MOL0     C58642   1.159   9.074   9.087  0.0168  0.3305 -0.2784
  435MOL0     C58643   1.042   9.145   9.105  0.0625  0.7870 -0.5341
  435MOL0     C58644   0.640   9.352   9.040 -0.3207 -0.1916 -0.0651
  435MOL0     C58645   0.523   9.279   9.046  1.0201 -0.1925 -0.7574
  435MOL0     C58646   0.412   9.336   9.109 -0.1879  1.3130 -0.2565
  435MOL0     C58647   0.414   9.466   9.161  0.7978  0.6408  0.0884
  435MOL0     O58648   0.315   9.534   9.229 -0.2733 -0.0068  0.5460
  435MOL0     C58649   0.195   9.468   9.272  0.9585  0.0427  0.5352
  435MOL0     C58650   0.072   9.507   9.183 -0.7689  0.0947 -0.0197
  435MOL0     C58651  -0.053   9.428   9.209 -0.4720 -0.1792 -0.4076
  435MOL0     C58652  -0.177   9.499   9.170  0.6692 -0.7392  0.7139
  435MOL0     C58653  -0.190   9.513   9.027  0.1823 -0.8425 -0.5916
  435MOL0     C58654  -0.198   9.520   8.906 -0.3051 -0.3553  0.0723
  435MOL0     C58655   0.533   9.534   9.150  0.5730  0.4450  0.5646
  435MOL0     C58656   0.649   9.484   9.084  0.0098  0.1856  0.1470
  435MOL0     C58657   0.765   9.575   9.075 -0.8501  0.5595  0.2287
  435MOL0     H58658   1.020   9.304   8.814  0.9061  2.6108  1.6545
  435MOL0     H58659   1.243   9.177   8.781  3.8061  1.0208  2.0664
  435MOL0     H58660   1.399   9.038   9.152 -2.1183 -1.2010 -0.5100
  435MOL0     H58661   1.444   8.888   9.093  1.1152  0.7857  1.5060
  435MOL0     H58662   1.605   9.112   9.099 -0.7161 -0.4404  1.1927
  435MOL0     H58663   1.546   9.121   8.934  1.5457 -0.6633 -0.4322
  435MOL0     H58664   1.707   8.887   9.051  0.3045  1.1299  0.6756
  435MOL0     H58665   1.763   9.019   8.952  0.2654  0.1468 -1.6060
  435MOL0     H58666   1.525   8.868   8.843 -1.1811 -0.4609 -2.6203
  435MOL0     H58667   1.651   8.950   8.753 -0.7025  0.1988 -0.0761
  435MOL0     H58668   1.816   8.775   8.820  2.1117 -3.0772  1.3653
  435MOL0     H58669   1.703   8.708   8.931 -2.2111  1.6928  0.0450
  435MOL0     H58670   1.568   8.605   8.775 -1.2322  2.9737  1.0757
  435MOL0     H58671   1.606   8.727   8.651  0.9364  1.4603  0.1466
  435MOL0     H58672   1.839   8.640   8.643 -0.9670  1.5632  0.1796
  435MOL0     H58673   1.713   8.539   8.576  2.1229  2.9217 -2.6661
  435MOL0     H58674   1.830   8.485   8.856  0.1486  0.1543 -0.2886
  435MOL0     H58675   1.711   8.391   8.772  1.0741 -0.2736  2.3545
  435MOL0     H58676   1.783   8.201   8.615 -0.6894  0.2641 -1.0263
  435MOL0     H58677   1.960   8.020   8.480 -3.0794  0.3735 -2.6383
  435MOL0     H58678   1.953   8.150   8.351 -2.2723  3.0393  1.5682
  435MOL0     H58679   2.196   8.108   8.516 -0.9268 -1.6669  0.5615
  435MOL0     H58680   2.168   7.989   8.394  1.1730 -0.7883 -0.2761
  435MOL0     H58681   2.147   8.289   8.314 -0.9072 -0.7194  0.3936
  435MOL0     H58682   2.160   8.142   8.211  0.3476  0.5731 -0.5282
  435MOL0     H58683   2.353   8.293   8.373 -6.0177  0.6288 -0.1449
  435MOL0     H58684   2.391   8.244   8.210 -0.2502  0.4855 -0.5802
  435MOL0     H58685   2.609   8.276   8.261  2.4491  1.1304 -1.0258
  435MOL0     H58686   2.839   8.245   8.226 -0.4992  1.6737  0.6401
  435MOL0     H58687   3.114   8.064   8.009  2.4118 -0.0223 -3.4368
  435MOL0     H58688   3.319   7.980   7.920 -0.9303 -0.5796  1.3503
  435MOL0     H58689   3.462   7.785   8.041  0.1699  1.1324  1.8400
  435MOL0     H58690   3.493   7.860   7.885  0.1321  1.1979  0.0014
  435MOL0     H58691   3.703   7.696   8.040  0.2509 -0.6353 -0.4785
  435MOL0     H58692   3.650   7.694   7.880 -2.4043 -0.8155  0.5965
  435MOL0     H58693   3.738   7.940   7.852 -0.3425  1.0862  0.4139
  435MOL0     H58694   3.825   7.913   8.005  0.4703  1.0421 -0.6254
  435MOL0     H58695   3.842   7.705   7.803 -0.6530  1.1205  1.9542
  435MOL0     H58696   3.955   7.728   7.927  2.0198  1.2360  0.1355
  435MOL0     H58697   4.007   7.971   7.824 -1.8048  0.8922 -0.5126
  435MOL0     H58698   3.923   7.909   7.679  0.3134 -0.1670 -0.5128
  435MOL0     H58699   4.181   7.902   7.729 -0.2071 -1.4278 -1.6359
  435MOL0     H58700   4.139   7.755   7.827  0.8755 -1.7107 -0.5503
  435MOL0     H58701   4.214   7.707   7.583 -1.7087 -0.8896 -1.9781
  435MOL0     H58702   4.062   7.789   7.535  1.2987  3.3689  0.6543
  435MOL0     H58703   4.067   7.564   7.729  2.9237  2.5922  1.4527
  435MOL0     H58704   3.942   7.621   7.617 -0.5574 -2.4024  2.2426
  435MOL0     H58705   3.519   8.060   8.288 -0.2872 -1.6907 -0.9335
  435MOL0     H58706   3.290   8.131   8.377  2.7153 -0.3414 -0.4738
  435MOL0     H58707   2.807   7.868   8.451 -1.5062 -0.1680 -0.5379
  435MOL0     H58708   2.564   7.898   8.455  0.6154 -0.7037  0.5461
  435MOL0     H58709   1.198   9.006   9.162 -0.1873  0.6928  0.1571
  435MOL0     H58710   0.980   9.132   9.193  0.3567 -1.1939 -0.5743
  435MOL0     H58711   0.515   9.179   9.005 -2.7303  0.0826 -1.0530
  435MOL0     H58712   0.322   9.275   9.112  1.8240 -1.8387  0.5191
  435MOL0     H58713   0.168   9.503   9.372 -0.9517  2.1190 -0.6161
  435MOL0     H58714   0.200   9.359   9.282  0.7213 -0.0653 -0.3812
  435MOL0     H58715   0.107   9.481   9.083 -0.3717 -3.2170  0.8687
  435MOL0     H58716   0.053   9.611   9.212  0.3006 -0.5122  3.3342
  435MOL0     H58717  -0.065   9.403   9.315 -2.1132 -3.4141 -1.2055
  435MOL0     H58718  -0.035   9.334   9.156  1.7292  0.4238 -0.8288
  435MOL0     H58719  -0.261   9.441   9.209  0.8586 -1.4510  0.0715
  435MOL0     H58720  -0.166   9.595   9.222  0.8669 -0.9514  1.0718
  435MOL0     H58721  -0.211   9.546   8.802 -3.2509  1.3970  0.7449
  435MOL0     H58722   0.538   9.637   9.183  0.8322  1.5101 -2.5035
  435MOL0     H58723   0.830   9.555   8.989 -1.0901  0.9535 -0.0495
  435MOL0     H58724   0.716   9.673   9.073 -2.9261 -0.4091  0.6181
  435MOL0     H58725   0.824   9.566   9.166 -1.0938 -0.4534  0.2990
  436MOL0     O58726   0.982   9.230   5.326  0.4687  0.2634  0.3765
  436MOL0     C58727   0.971   9.119   5.373  0.4149 -0.1363  0.1450
  436MOL0     O58728   1.071   9.039   5.407 -0.1041 -0.6237  0.1686
  436MOL0     C58729   1.200   9.088   5.396 -0.0395 -0.1472 -0.5175
  436MOL0     C58730   1.258   9.154   5.509 -0.2508  0.6329 -0.1935
  436MOL0     C58731   1.376   9.214   5.483  0.3716 -0.7433 -0.2354
  436MOL0     C58732   1.453   9.206   5.365  0.3921  0.0808 -0.6226
  436MOL0     O58733   1.575   9.278   5.335  0.3603  0.0674  0.4294
  436MOL0     C58734   1.597   9.392   5.418 -0.3859 -1.0049  0.9432
  436MOL0     C58735   1.689   9.493   5.333  0.2990  0.0704 -0.7837
  436MOL0     C58736   1.749   9.611   5.414  0.2439 -0.7395  0.3620
  436MOL0     C58737   1.869   9.566   5.502  0.2132 -0.4920  0.0059
  436MOL0     C58738   1.978   9.670   5.474 -0.2432 -0.7963  0.0870
  436MOL0     C58739   2.089   9.644   5.569 -0.4502  1.3684 -0.5150
  436MOL0     C58740   2.180   9.767   5.593 -0.6003 -0.0534 -0.0787
  436MOL0     C58741   2.111   9.867   5.680 -0.7085  0.3695 -0.4935
  436MOL0     N58742   2.178   9.994   5.685 -1.0411 -0.1476  0.4592
  436MOL0     C58743   2.236  10.059   5.576  0.4694 -0.1414 -0.3203
  436MOL0     C58744   2.307  10.162   5.629 -0.1429  0.5507 -0.1266
  436MOL0     C58745   2.385  10.280   5.569 -0.4613  1.2089 -0.1635
  436MOL0     C58746   2.533  10.239   5.557  1.0652 -0.5413  0.4868
  436MOL0     C58747   2.639  10.344   5.507 -0.2356  0.4623  0.0484
  436MOL0     C58748   2.640  10.355   5.352  0.8738 -0.1539  0.2675
  436MOL0     O58749   2.686  10.486   5.332 -0.1869 -0.1182 -0.3436
  436MOL0     C58750   2.818  10.505   5.322  0.2532  0.1133 -0.1495
  436MOL0     C58751   2.877  10.474   5.196 -0.1964 -0.0546  0.1574
  436MOL0     C58752   3.023  10.477   5.201  0.3061  1.2577  0.6676
  436MOL0     C58753   3.105  10.511   5.311 -0.5664  0.4248  0.3467
  436MOL0     C58754   3.249  10.530   5.295 -0.5484  0.1699 -0.4798
  436MOL0     O58755   3.318  10.625   5.370  0.3048  0.6764  0.3727
  436MOL0     C58756   3.458  10.640   5.348 -0.3551 -1.1944  0.8838
  436MOL0     C58757   3.519  10.656   5.224 -0.1402 -0.6239 -0.0271
  436MOL0     C58758   3.656  10.683   5.213 -0.8401 -0.9130  0.7024
  436MOL0     C58759   3.733  10.690   5.324  0.2478 -0.6333  0.8167
  436MOL0     O58760   3.869  10.705   5.295 -0.2124  0.0684  0.9791
  436MOL0     C58761   3.960  10.702   5.408  0.1295 -0.0616  0.3348
  436MOL0     C58762   4.097  10.742   5.353  0.0746  0.1182  0.0806
  436MOL0     C58763   4.111  10.893   5.321  0.9218 -0.1984 -0.5835
  436MOL0     C58764   4.249  10.945   5.290  0.7812 -0.0109  0.4547
  436MOL0     C58765   4.236  11.084   5.217  1.2875 -0.6526  0.1132
  436MOL0     C58766   4.371  11.162   5.188 -0.0696  0.5256 -0.5897
  436MOL0     C58767   4.471  11.083   5.109 -0.3333 -0.9151 -0.4411
  436MOL0     C58768   4.594  11.166   5.087 -0.0410  0.4122  0.1074
  436MOL0    Cl58769   4.682  11.078   4.970 -0.0878  0.0548 -0.6159
  436MOL0     C58770   3.672  10.675   5.451  0.6746 -0.6852 -0.5543
  436MOL0     C58771   3.534  10.649   5.463 -0.3034 -0.0945 -0.6529
  436MOL0     O58772   3.307  10.444   5.227  0.5579 -0.1377 -0.0927
  436MOL0     C58773   3.041  10.540   5.428  0.7826  0.4861 -0.2671
  436MOL0     C58774   2.901  10.536   5.427 -0.1779 -0.2494  0.4275
  436MOL0     N58775   2.295  10.155   5.764 -1.1825  0.2358 -0.5888
  436MOL0     N58776   2.222  10.061   5.797  0.0554  0.1332  0.1292
  436MOL0     C58777   1.401   9.113   5.270  0.2575 -0.3692  0.4721
  436MOL0     C58778   1.276   9.065   5.280  0.1335 -0.0497  0.0798
  436MOL0     C58779   0.832   9.058   5.394  0.2146  0.7851 -0.1209
  436MOL0     C58780   0.822   8.919   5.383 -0.9570 -0.6128  0.7686
  436MOL0     C58781   0.708   8.845   5.392  0.4485  0.3639  1.3032
  436MOL0     C58782   0.587   8.910   5.394  0.2934  0.3241  0.0224
  436MOL0     O58783   0.466   8.844   5.404  0.6069  0.8756 -0.1513
  436MOL0     C58784   0.458   8.706   5.391  0.8753 -0.3764 -0.2535
  436MOL0     C58785   0.306   8.675   5.389 -0.4674  0.2408 -0.3667
  436MOL0     C58786   0.253   8.549   5.324 -0.4236 -0.2997  0.1358
  436MOL0     C58787   0.275   8.447   5.423 -0.6340  0.6443  0.0141
  436MOL0     C58788   0.164   8.444   5.517  0.2602  0.3455  0.5297
  436MOL0     C58789   0.071   8.420   5.588  0.1873  0.5687 -0.5576
  436MOL0     C58790   0.581   9.051   5.400 -0.5854 -0.4415 -0.0617
  436MOL0     C58791   0.703   9.122   5.393  0.3009 -0.7351 -0.2002
  436MOL0     C58792   0.684   9.273   5.391 -0.4189 -1.1439  0.4899
  436MOL0     H58793   1.204   9.168   5.602  1.4701  1.7729  0.6890
  436MOL0     H58794   1.420   9.270   5.565  0.2835 -2.4027  0.9939
  436MOL0     H58795   1.506   9.450   5.438  0.2538  0.9646 -1.3017
  436MOL0     H58796   1.647   9.362   5.510  1.6148  2.5450  1.1993
  436MOL0     H58797   1.621   9.541   5.262 -0.2777  1.5266  0.6974
  436MOL0     H58798   1.763   9.439   5.273 -0.0388 -0.3560 -0.8281
  436MOL0     H58799   1.676   9.642   5.489  0.0172  1.2986 -0.6092
  436MOL0     H58800   1.769   9.697   5.348 -1.1261  0.9200  2.0201
  436MOL0     H58801   1.839   9.563   5.607  1.5525 -0.0451  0.4276
  436MOL0     H58802   1.903   9.468   5.469 -0.8190 -1.1241  0.7729
  436MOL0     H58803   2.009   9.672   5.369 -1.5620  3.5078 -0.4065
  436MOL0     H58804   1.940   9.772   5.481  2.1390  0.1403  0.2475
  436MOL0     H58805   2.054   9.615   5.668  0.5152 -0.5956 -0.6873
  436MOL0     H58806   2.149   9.559   5.534 -0.2341 -0.2709  3.3376
  436MOL0     H58807   2.203   9.815   5.498 -0.7041  0.7835  0.3133
  436MOL0     H58808   2.280   9.747   5.633 -0.2601  2.6350  0.5941
  436MOL0     H58809   2.008   9.884   5.650 -1.5573 -1.7548  0.9875
  436MOL0     H58810   2.114   9.824   5.780  1.0207  0.8991 -0.2836
  436MOL0     H58811   2.219  10.026   5.474  0.4928 -3.6941  0.7104
  436MOL0     H58812   2.347  10.289   5.467 -0.7126  1.3575 -0.0564
  436MOL0     H58813   2.359  10.370   5.625  0.4146  0.0927  2.2111
  436MOL0     H58814   2.561  10.209   5.659  0.4142  1.8320  1.4167
  436MOL0     H58815   2.529  10.157   5.484 -1.2283 -0.5456  0.5399
  436MOL0     H58816   2.735  10.311   5.546 -0.8264 -0.1367  1.0330
  436MOL0     H58817   2.612  10.440   5.552 -0.5793 -0.4100  1.7903
  436MOL0     H58818   2.543  10.329   5.308  0.7720 -0.8689  0.8926
  436MOL0     H58819   2.712  10.283   5.313 -0.3539 -0.0363 -2.4233
  436MOL0     H58820   2.809  10.450   5.114 -1.1723  2.2530  0.2168
  436MOL0     H58821   3.081  10.447   5.114 -0.0011 -0.8573  1.1385
  436MOL0     H58822   3.464  10.663   5.131  3.2081  1.9203 -2.0606
  436MOL0     H58823   3.703  10.693   5.115 -0.8307 -2.9648  0.4652
  436MOL0     H58824   3.931  10.756   5.498 -3.3764 -1.5863  0.2591
  436MOL0     H58825   3.973  10.598   5.440  2.0524 -0.2706 -0.8980
  436MOL0     H58826   4.162  10.713   5.436  1.3670 -0.3265 -1.0581
  436MOL0     H58827   4.125  10.686   5.263  0.9879 -0.4044  0.6713
  436MOL0     H58828   4.046  10.916   5.236 -0.3251 -5.8992 -1.5244
  436MOL0     H58829   4.085  10.951   5.411  1.5719 -2.5275  1.1988
  436MOL0     H58830   4.295  10.878   5.217 -0.2025  0.8969 -1.0436
  436MOL0     H58831   4.302  10.955   5.385 -0.8872 -0.5158  1.4689
  436MOL0     H58832   4.160  11.146   5.267 -0.6962 -1.0665 -2.1987
  436MOL0     H58833   4.183  11.072   5.122 -1.1245 -2.2745  1.5361
  436MOL0     H58834   4.339  11.246   5.126 -1.7235  0.2400 -0.1647
  436MOL0     H58835   4.422  11.209   5.273 -0.9626 -3.7196  2.6296
  436MOL0     H58836   4.427  11.051   5.015 -0.0271 -0.4047 -0.7626
  436MOL0     H58837   4.496  10.999   5.174 -0.4405 -1.5736 -1.2375
  436MOL0     H58838   4.570  11.268   5.055  1.4119  1.4257  2.0274
  436MOL0     H58839   4.659  11.171   5.175 -1.2684  0.3649  1.0421
  436MOL0     H58840   3.735  10.707   5.534  0.5437  0.9077 -1.0330
  436MOL0     H58841   3.488  10.640   5.561 -0.5425 -1.2461 -0.8544
  436MOL0     H58842   3.103  10.568   5.513 -1.0905 -2.1702  2.1504
  436MOL0     H58843   2.861  10.562   5.525 -1.4178 -0.7974  0.0836
  436MOL0     H58844   1.456   9.094   5.178 -1.8284 -3.8128 -0.2375
  436MOL0     H58845   1.225   9.008   5.203  1.3529 -0.9237 -0.1103
  436MOL0     H58846   0.911   8.863   5.359 -1.1276  0.0137 -1.6908
  436MOL0     H58847   0.714   8.738   5.376 -0.7505  0.3572  0.8003
  436MOL0     H58848   0.510   8.650   5.469  1.4611 -0.1832 -0.5034
  436MOL0     H58849   0.506   8.672   5.298  2.8074 -1.4126  1.0485
  436MOL0     H58850   0.261   8.760   5.335  1.9113  0.2645 -2.4927
  436MOL0     H58851   0.261   8.689   5.488 -0.6383 -1.1754 -0.2293
  436MOL0     H58852   0.300   8.522   5.229  0.8004  1.2534  0.2696
  436MOL0     H58853   0.147   8.567   5.304 -0.7861 -1.8452  0.5205
  436MOL0     H58854   0.256   8.349   5.378  1.1770  0.8687 -1.3810
  436MOL0     H58855   0.373   8.450   5.470 -0.5380  0.9837 -0.2037
  436MOL0     H58856  -0.024   8.414   5.636 -0.4776  2.6121 -1.5177
  436MOL0     H58857   0.483   9.098   5.401 -0.2949  0.3827  3.5637
  436MOL0     H58858   0.585   9.318   5.382 -0.0041 -0.5271 -1.5290
  436MOL0     H58859   0.739   9.311   5.477 -0.1787 -0.9532  0.2544
  436MOL0     H58860   0.742   9.310   5.306 -1.9044 -3.5012 -1.6846
  437MOL0     O58861   8.854   7.074   8.410  0.0016  0.2252  0.0307
  437MOL0     C58862   8.789   7.049   8.510  0.1722 -0.4881  0.3326
  437MOL0     O58863   8.839   7.005   8.627 -0.3494 -0.2058 -0.0952
  437MOL0     C58864   8.961   7.039   8.673  0.1484 -0.9382 -0.1775
  437MOL0     C58865   9.057   6.944   8.696  0.5813 -0.4812 -0.1006
  437MOL0     C58866   9.191   6.989   8.723 -0.3013  0.2240 -0.2141
  437MOL0     C58867   9.233   7.123   8.725 -0.5524 -0.3516  0.8575
  437MOL0     O58868   9.363   7.142   8.757  0.6804  0.9861 -0.3795
  437MOL0     C58869   9.409   7.273   8.799  0.7328  0.4526  0.8664
  437MOL0     C58870   9.509   7.265   8.913  0.7329  0.5598 -0.0408
  437MOL0     C58871   9.646   7.227   8.861  0.0254  0.7273 -0.1409
  437MOL0     C58872   9.751   7.207   8.969  0.2077  0.8871  0.1726
  437MOL0     C58873   9.890   7.226   8.912  0.8485 -0.0516  1.0421
  437MOL0     C58874   9.933   7.370   8.963 -0.6791 -1.0213  0.8409
  437MOL0     C58875  10.066   7.403   8.885  0.4054  1.0665  0.4095
  437MOL0     C58876  10.144   7.529   8.942  0.4480  0.2695 -0.1544
  437MOL0     N58877  10.239   7.584   8.847  0.2066 -0.9212  0.1977
  437MOL0     C58878  10.348   7.521   8.789 -0.2988 -0.5178 -0.1932
  437MOL0     C58879  10.396   7.624   8.713  0.3649  0.0035  0.3061
  437MOL0     C58880  10.494   7.623   8.602 -0.5283 -0.4414 -0.1226
  437MOL0     C58881  10.640   7.616   8.649  0.2426  0.0779 -0.2599
  437MOL0     C58882  10.689   7.741   8.711 -0.7655 -0.7049  0.2620
  437MOL0     C58883  10.829   7.775   8.682 -0.1190 -0.6760  0.0226
  437MOL0     O58884  10.920   7.680   8.741 -0.0335 -0.0470  0.2181
  437MOL0     C58885  11.050   7.683   8.684 -0.4297  0.5485  0.2145
  437MOL0     C58886  11.130   7.575   8.728 -0.2704  0.3243  0.5115
  437MOL0     C58887  11.263   7.566   8.679 -0.4265 -0.6058  0.3331
  437MOL0     C58888  11.323   7.677   8.614  0.4803 -0.3355 -0.4614
  437MOL0     C58889  11.462   7.673   8.564 -0.5827 -0.7718  0.7018
  437MOL0     O58890  11.505   7.772   8.477 -0.8034  0.3879  0.0694
  437MOL0     C58891  11.637   7.792   8.443  0.5952 -0.1279 -0.8041
  437MOL0     C58892  11.721   7.692   8.402  0.2011  0.3346 -0.0970
  437MOL0     C58893  11.848   7.718   8.346 -0.9209 -0.7030 -0.5108
  437MOL0     C58894  11.892   7.855   8.333  0.9383  0.0551  0.1624
  437MOL0     O58895  12.014   7.884   8.280  0.4399 -0.3522  0.1770
  437MOL0     C58896  12.075   8.016   8.299  0.1630  0.0061 -0.4677
  437MOL0     C58897  12.229   8.014   8.289  0.0415 -0.4347 -0.0825
  437MOL0     C58898  12.287   7.923   8.392  0.3017  0.0948  0.3894
  437MOL0     C58899  12.433   7.975   8.435  0.7292 -0.1053  0.3180
  437MOL0     C58900  12.494   7.847   8.499  0.4004  0.2015  0.0213
  437MOL0     C58901  12.644   7.862   8.538  0.9276 -0.9283 -0.1737
  437MOL0     C58902  12.724   7.960   8.440  0.0036 -0.7779  0.0340
  437MOL0     C58903  12.870   7.982   8.474  0.9041 -0.2576  0.1251
  437MOL0    Cl58904  12.908   7.968   8.649  0.2560  0.1972 -0.3460
  437MOL0     C58905  11.801   7.955   8.380  0.2954 -0.3025 -0.0843
  437MOL0     C58906  11.676   7.920   8.432 -0.1159 -0.2644  0.3213
  437MOL0     O58907  11.528   7.579   8.595 -0.1684  0.0527  0.3445
  437MOL0     C58908  11.239   7.783   8.571  0.8163 -0.3310 -0.3977
  437MOL0     C58909  11.100   7.781   8.595  0.4747 -0.7501  0.5597
  437MOL0     N58910  10.318   7.741   8.722  0.5470  0.2044  0.2428
  437MOL0     N58911  10.236   7.712   8.815  0.9364  0.3076 -0.0148
  437MOL0     C58912   9.132   7.220   8.708 -0.0408 -0.5735 -0.5443
  437MOL0     C58913   8.998   7.174   8.691 -0.2386  0.2971 -0.5326
  437MOL0     C58914   8.638   7.048   8.499  0.5629 -0.1355  1.1078
  437MOL0     C58915   8.565   6.990   8.603 -0.4394  0.1543  0.3089
  437MOL0     C58916   8.429   6.986   8.613 -1.3132 -0.9597 -0.5555
  437MOL0     C58917   8.351   7.037   8.507  0.5413 -0.2147  0.5257
  437MOL0     O58918   8.212   7.041   8.522 -0.4345  0.3025  0.5876
  437MOL0     C58919   8.126   7.006   8.412 -0.6395  0.2930  0.1401
  437MOL0     C58920   7.984   6.971   8.444  0.0167  0.0685  0.1464
  437MOL0     C58921   7.894   6.966   8.323 -0.2810 -0.5621  1.0949
  437MOL0     C58922   7.790   6.859   8.354 -0.2100  0.1110  0.3250
  437MOL0     C58923   7.706   6.846   8.241  0.3509  0.1234  0.3732
  437MOL0     C58924   7.634   6.836   8.137 -0.5158 -0.5639 -0.0708
  437MOL0     C58925   8.417   7.087   8.394  0.3049  0.1215  0.0049
  437MOL0     C58926   8.557   7.095   8.387 -0.8761  0.9563 -0.8205
  437MOL0     C58927   8.623   7.163   8.261  0.7949  0.7545 -1.0560
  437MOL0     H58928   9.039   6.838   8.682 -0.9014 -0.2086 -0.3885
  437MOL0     H58929   9.269   6.918   8.746  2.5342  3.4702  0.9994
  437MOL0     H58930   9.451   7.318   8.709  0.3343 -0.1492  0.3743
  437MOL0     H58931   9.322   7.335   8.822  1.1414  0.6192  2.0516
  437MOL0     H58932   9.473   7.195   8.989  2.1929  0.4333  0.5669
  437MOL0     H58933   9.510   7.360   8.967 -0.5000 -0.0494  1.1081
  437MOL0     H58934   9.669   7.319   8.808  1.1678  1.6554  1.8266
  437MOL0     H58935   9.641   7.140   8.795  1.6354  0.1832  0.4050
  437MOL0     H58936   9.731   7.281   9.047 -2.7848  1.5662 -1.0865
  437MOL0     H58937   9.735   7.110   9.016 -0.5312  1.2195  0.6284
  437MOL0     H58938   9.957   7.149   8.950 -0.5468 -1.2112  1.2162
  437MOL0     H58939   9.900   7.218   8.803  0.4149 -0.4082  1.0273
  437MOL0     H58940   9.856   7.447   8.952  1.4524  1.1431 -0.0073
  437MOL0     H58941   9.943   7.365   9.071 -1.4597 -3.0320  0.8523
  437MOL0     H58942  10.039   7.411   8.779 -1.6789 -0.2887  0.7742
  437MOL0     H58943  10.124   7.313   8.906 -0.4675  1.1259  3.5630
  437MOL0     H58944  10.065   7.600   8.969  0.0142 -1.2982  3.3442
  437MOL0     H58945  10.191   7.523   9.041 -0.4749 -3.5302  0.2098
  437MOL0     H58946  10.382   7.418   8.785 -1.1719 -0.7772 -1.9082
  437MOL0     H58947  10.463   7.535   8.545  2.3796 -1.1940 -0.6983
  437MOL0     H58948  10.473   7.715   8.546 -0.0823  0.9748  1.9389
  437MOL0     H58949  10.651   7.537   8.724 -0.8063 -1.0200 -1.2280
  437MOL0     H58950  10.696   7.586   8.560 -2.7914 -2.0670 -1.6204
  437MOL0     H58951  10.675   7.738   8.820 -3.3502  1.1982  0.0544
  437MOL0     H58952  10.630   7.823   8.670 -0.1639 -0.8985 -1.0209
  437MOL0     H58953  10.858   7.872   8.723  1.0180 -1.1287  0.3261
  437MOL0     H58954  10.851   7.777   8.575  0.5984  0.3208  0.1714
  437MOL0     H58955  11.082   7.491   8.778  2.2617 -1.2973  0.3993
  437MOL0     H58956  11.329   7.488   8.715 -0.3755 -1.2435 -1.0868
  437MOL0     H58957  11.690   7.590   8.421  1.5685 -0.5366 -2.1746
  437MOL0     H58958  11.923   7.645   8.317 -0.4143 -0.0497 -0.8721
  437MOL0     H58959  12.024   8.076   8.222  1.5618  0.0661 -1.3667
  437MOL0     H58960  12.052   8.051   8.400  1.7712 -0.1851 -0.0123
  437MOL0     H58961  12.263   7.979   8.191  3.1207 -1.7218  1.3212
  437MOL0     H58962  12.279   8.110   8.305  0.9364 -0.6922 -1.2550
  437MOL0     H58963  12.219   7.925   8.478 -0.9506  2.8725 -0.5304
  437MOL0     H58964  12.294   7.821   8.353 -2.7885 -1.0235  2.4168
  437MOL0     H58965  12.432   8.054   8.511  0.1322  0.6427 -0.4483
  437MOL0     H58966  12.480   8.013   8.345 -3.2352  2.3081 -0.9628
  437MOL0     H58967  12.489   7.761   8.432  1.9125  0.3345 -0.3000
  437MOL0     H58968  12.428   7.817   8.581 -0.2012 -0.8961 -0.8308
  437MOL0     H58969  12.641   7.898   8.641 -3.7100  1.5513 -0.8701
  437MOL0     H58970  12.693   7.766   8.525  0.9599 -0.7791 -1.2140
  437MOL0     H58971  12.683   8.061   8.437  1.4322 -0.1803  0.1264
  437MOL0     H58972  12.719   7.917   8.339 -0.4455 -1.5592  0.3765
  437MOL0     H58973  12.927   7.902   8.426 -1.2976 -1.2523 -0.9954
  437MOL0     H58974  12.908   8.078   8.440  1.2445  0.1807  1.6939
  437MOL0     H58975  11.819   8.062   8.371 -2.4682  0.2178 -0.2791
  437MOL0     H58976  11.614   7.999   8.472  0.8095 -1.1850  3.9162
  437MOL0     H58977  11.281   7.869   8.520  0.2631  1.2709  1.6914
  437MOL0     H58978  11.033   7.860   8.565  0.0824 -1.1151  0.4724
  437MOL0     H58979   9.154   7.326   8.719 -2.6111  0.0498 -0.6822
  437MOL0     H58980   8.918   7.249   8.690 -0.3552  0.1738 -1.5096
  437MOL0     H58981   8.613   6.944   8.688  1.8532  1.5483 -0.1554
  437MOL0     H58982   8.386   6.937   8.700  0.5725 -2.5306 -0.4519
  437MOL0     H58983   8.164   6.913   8.368  0.3426 -0.6413  2.7610
  437MOL0     H58984   8.134   7.075   8.328  1.5799 -1.1959 -0.9733
  437MOL0     H58985   7.946   7.049   8.510  0.5774  0.8616 -0.4313
  437MOL0     H58986   7.990   6.879   8.502 -1.3251  0.2556  0.6080
  437MOL0     H58987   7.958   6.935   8.240 -0.8107 -1.5871  1.0553
  437MOL0     H58988   7.855   7.066   8.305  1.7848 -0.0920 -1.3169
  437MOL0     H58989   7.826   6.761   8.388 -0.1068  0.2754  0.7015
  437MOL0     H58990   7.728   6.903   8.433 -0.5290  0.7109 -0.2489
  437MOL0     H58991   7.576   6.827   8.047 -1.6404  0.9991  0.4426
  437MOL0     H58992   8.363   7.123   8.307 -0.8750 -2.6630 -0.5377
  437MOL0     H58993   8.716   7.216   8.280 -0.3379  1.8648  1.9232
  437MOL0     H58994   8.658   7.084   8.194  0.1014  0.9878 -1.7140
  437MOL0     H58995   8.549   7.228   8.213 -0.3167 -1.1154 -1.9851
  438MOL0     O58996   3.922   3.004   3.983 -0.0694 -0.1317  0.1863
  438MOL0     C58997   3.894   3.108   4.028  0.4279 -0.8651  0.2637
  438MOL0     O58998   3.935   3.227   3.982 -0.2059 -0.1623  0.1095
  438MOL0     C58999   4.028   3.250   3.884  0.3729 -0.9684 -0.4495
  438MOL0     C59000   4.039   3.380   3.832 -0.3873 -0.7873  0.4775
  438MOL0     C59001   4.137   3.416   3.735  0.1069  0.3393 -0.9317
  438MOL0     C59002   4.235   3.327   3.702  0.1557 -0.1337 -0.3345
  438MOL0     O59003   4.322   3.372   3.609 -0.1357 -0.3970  0.3608
  438MOL0     C59004   4.358   3.273   3.507  0.0751  0.1957 -0.4216
  438MOL0     C59005   4.444   3.344   3.408  0.0939  0.8445  0.4379
  438MOL0     C59006   4.588   3.351   3.463 -0.5678  0.3010  0.1667
  438MOL0     C59007   4.680   3.414   3.356  0.0616  0.1301 -0.7698
  438MOL0     C59008   4.823   3.463   3.409 -0.1743 -0.1269  0.2715
  438MOL0     C59009   4.908   3.346   3.476 -0.1542  0.5552 -0.5289
  438MOL0     C59010   5.051   3.370   3.429 -1.2317 -0.1557  0.1211
  438MOL0     C59011   5.146   3.254   3.436  0.2403  0.1341  0.1177
  438MOL0     N59012   5.267   3.274   3.354  0.6776  0.1432 -0.5368
  438MOL0     C59013   5.395   3.272   3.402 -0.2438  0.4935  0.4988
  438MOL0     C59014   5.469   3.308   3.294  0.6785 -0.8461 -0.4478
  438MOL0     C59015   5.621   3.322   3.278  0.2440 -0.9732 -0.1586
  438MOL0     C59016   5.693   3.182   3.263  0.3940  0.2209  0.5095
  438MOL0     C59017   5.629   3.102   3.148  1.0009  0.9269 -0.1712
  438MOL0     C59018   5.730   2.998   3.095  0.7724  0.2869  0.5920
  438MOL0     O59019   5.810   3.063   2.997  0.2001 -0.2680  0.7427
  438MOL0     C59020   5.872   2.992   2.899  0.1757  0.9956  0.5184
  438MOL0     C59021   5.941   2.868   2.938  0.2010 -0.5143  0.3306
  438MOL0     C59022   6.015   2.801   2.843  0.3589  0.7090 -0.3544
  438MOL0     C59023   6.048   2.851   2.722  0.6480 -0.8730  0.3826
  438MOL0     C59024   6.140   2.785   2.625 -0.2800  0.2026 -0.1457
  438MOL0     O59025   6.174   2.859   2.518 -0.8176  0.0049 -0.4438
  438MOL0     C59026   6.285   2.831   2.449 -0.0985 -0.5293  0.7475
  438MOL0     C59027   6.410   2.797   2.498 -0.1384  0.6854  0.6752
  438MOL0     C59028   6.528   2.801   2.419 -0.2859  1.3428  0.7131
  438MOL0     C59029   6.514   2.821   2.281  0.4112 -0.8139 -0.1028
  438MOL0     O59030   6.625   2.807   2.205  0.0645  0.5543  0.0697
  438MOL0     C59031   6.618   2.824   2.062  0.0780  0.6751  0.5723
  438MOL0     C59032   6.753   2.801   2.011 -0.2947  0.4763 -0.0667
  438MOL0     C59033   6.782   2.863   1.881 -0.2454  0.5441 -0.4240
  438MOL0     C59034   6.920   2.823   1.831 -0.5942 -0.3600  0.2778
  438MOL0     C59035   6.955   2.896   1.705  0.3391 -0.2381  0.5056
  438MOL0     C59036   7.102   2.889   1.688  0.4164 -0.2771  0.1741
  438MOL0     C59037   7.149   2.959   1.560 -0.1591 -1.0111 -0.1451
  438MOL0     C59038   7.289   2.906   1.523  0.5466  0.7809 -0.0563
  438MOL0    Cl59039   7.378   3.037   1.433  0.1165 -0.2741  0.0683
  438MOL0     C59040   6.387   2.842   2.230  0.5388  0.1089 -0.1010
  438MOL0     C59041   6.276   2.851   2.312  0.4271  0.0364  0.1614
  438MOL0     O59042   6.185   2.678   2.656 -0.1064  0.2060 -0.3082
  438MOL0     C59043   5.994   2.977   2.686  0.0747 -0.0488 -0.6568
  438MOL0     C59044   5.900   3.035   2.767  0.4789 -0.8257  0.5211
  438MOL0     N59045   5.383   3.334   3.189 -0.7758 -0.3065  0.0347
  438MOL0     N59046   5.265   3.301   3.222 -0.3084 -0.0303 -0.5566
  438MOL0     C59047   4.232   3.204   3.758 -0.4012 -0.2628  0.6473
  438MOL0     C59048   4.127   3.162   3.838 -0.2367 -0.0547  0.2472
  438MOL0     C59049   3.815   3.116   4.149 -0.5786 -0.3762 -1.4035
  438MOL0     C59050   3.764   3.242   4.187  0.3442 -0.3445  0.8104
  438MOL0     C59051   3.681   3.260   4.305  0.4893 -0.0836 -0.2260
  438MOL0     C59052   3.638   3.154   4.380  0.6738 -0.4539  0.3676
  438MOL0     O59053   3.556   3.183   4.482  0.2777 -0.2389 -0.0105
  438MOL0     C59054   3.544   3.077   4.582  0.0579 -0.2880  0.3747
  438MOL0     C59055   3.474   3.156   4.697 -0.8451  0.5030 -0.1608
  438MOL0     C59056   3.473   3.072   4.824 -0.4070  0.2915  1.3855
  438MOL0     C59057   3.407   2.933   4.809  0.2230 -0.5284 -0.2753
  438MOL0     C59058   3.332   2.910   4.938 -0.5260  0.5834  0.7316
  438MOL0     C59059   3.274   2.895   5.042  0.1788 -0.8810  0.3698
  438MOL0     C59060   3.694   3.027   4.349  0.2779  0.2255 -1.0820
  438MOL0     C59061   3.779   3.013   4.237  0.8407 -0.7112  0.2451
  438MOL0     C59062   3.839   2.879   4.213  0.2131 -0.0224  0.2804
  438MOL0     H59063   3.960   3.451   3.857  0.2942 -0.4552  1.7696
  438MOL0     H59064   4.137   3.518   3.697  0.0551  1.2740  1.4464
  438MOL0     H59065   4.408   3.184   3.545 -1.0288  0.2065  1.1834
  438MOL0     H59066   4.270   3.232   3.457  0.1917  0.6342 -1.0018
  438MOL0     H59067   4.412   3.447   3.389 -2.4228 -0.0158 -0.3958
  438MOL0     H59068   4.445   3.300   3.308  2.2581 -1.1516  1.2211
  438MOL0     H59069   4.630   3.253   3.489  0.8073  0.0098 -2.8270
  438MOL0     H59070   4.589   3.417   3.551  0.2621  0.1381  0.2851
  438MOL0     H59071   4.690   3.342   3.274 -1.5958  1.7805 -2.4912
  438MOL0     H59072   4.623   3.497   3.316  0.4436  2.2897  2.7526
  438MOL0     H59073   4.875   3.511   3.326  1.4925  1.8104  2.3186
  438MOL0     H59074   4.810   3.540   3.486  0.8884  0.2915  0.0410
  438MOL0     H59075   4.907   3.358   3.585 -0.7211  1.2347 -0.5961
  438MOL0     H59076   4.871   3.247   3.449  1.6586 -0.0287 -1.0050
  438MOL0     H59077   5.091   3.464   3.469  1.6636 -0.9078 -0.7888
  438MOL0     H59078   5.040   3.391   3.322  0.9977  1.3318  0.1125
  438MOL0     H59079   5.175   3.234   3.540 -0.2836  0.2454  0.2929
  438MOL0     H59080   5.095   3.164   3.399  1.9530 -0.9290  0.2380
  438MOL0     H59081   5.441   3.257   3.499  0.6443 -2.1126 -0.2565
  438MOL0     H59082   5.646   3.380   3.189  0.4767 -0.1225  0.4531
  438MOL0     H59083   5.656   3.368   3.370 -1.8306 -2.3673  1.4275
  438MOL0     H59084   5.797   3.209   3.240  0.4221  2.3281  2.6938
  438MOL0     H59085   5.688   3.130   3.359  0.7022  0.0478  0.4326
  438MOL0     H59086   5.589   3.166   3.069 -1.7270  2.6664  2.3936
  438MOL0     H59087   5.541   3.050   3.188  1.4780 -0.5353 -0.9373
  438MOL0     H59088   5.685   2.909   3.049  0.3185 -0.4297  2.3314
  438MOL0     H59089   5.781   2.959   3.184  0.6679  1.9393  1.3936
  438MOL0     H59090   5.928   2.818   3.033  2.3824 -0.5779  0.6568
  438MOL0     H59091   6.056   2.709   2.883  0.1851  0.8376  0.1308
  438MOL0     H59092   6.409   2.784   2.605 -1.6230  0.1144  0.6082
  438MOL0     H59093   6.625   2.783   2.463 -0.8203  2.2439  2.3296
  438MOL0     H59094   6.552   2.751   2.015  1.5615  0.4340 -1.2512
  438MOL0     H59095   6.588   2.927   2.040  0.2675  1.0373  1.9090
  438MOL0     H59096   6.822   2.848   2.081 -0.9934 -2.2314  2.7030
  438MOL0     H59097   6.769   2.693   2.004  2.0272  0.8753 -2.3618
  438MOL0     H59098   6.705   2.837   1.808 -2.0427  1.6629  0.9660
  438MOL0     H59099   6.766   2.971   1.889  0.4188  0.5811  0.5016
  438MOL0     H59100   6.932   2.715   1.815  2.9535 -0.0088 -0.3478
  438MOL0     H59101   6.998   2.847   1.905 -0.3771 -2.6569  0.8902
  438MOL0     H59102   6.927   3.001   1.708  0.4113 -0.1262 -1.3984
  438MOL0     H59103   6.917   2.849   1.614 -0.0187 -1.0806  1.0776
  438MOL0     H59104   7.144   2.948   1.770 -2.7960 -0.4105  2.0742
  438MOL0     H59105   7.132   2.784   1.688 -0.7870 -0.6786 -1.7585
  438MOL0     H59106   7.166   3.066   1.578 -0.0524 -0.7949 -1.3804
  438MOL0     H59107   7.093   2.965   1.466 -1.0097  3.7196  0.3979
  438MOL0     H59108   7.340   2.892   1.619 -3.4531  0.4384  2.2195
  438MOL0     H59109   7.272   2.818   1.460 -0.1380 -0.6191  1.9865
  438MOL0     H59110   6.375   2.871   2.126  0.5448  3.2892  0.6892
  438MOL0     H59111   6.172   2.857   2.281  0.6439 -4.0392 -1.9837
  438MOL0     H59112   6.021   3.029   2.595 -0.7952  1.9689  0.1721
  438MOL0     H59113   5.855   3.127   2.731  2.7767  0.4331  0.6967
  438MOL0     H59114   4.307   3.134   3.725 -1.7370 -0.2595 -2.7563
  438MOL0     H59115   4.118   3.057   3.865  0.3926 -0.1132  0.2319
  438MOL0     H59116   3.781   3.336   4.135 -0.6226 -0.7705 -0.3141
  438MOL0     H59117   3.650   3.362   4.327  2.5792  0.7825 -1.0020
  438MOL0     H59118   3.644   3.046   4.615  1.0082 -0.8524 -2.6845
  438MOL0     H59119   3.485   2.992   4.545 -3.5133 -0.2768  5.1680
  438MOL0     H59120   3.373   3.190   4.672 -1.4200 -0.9141  0.1543
  438MOL0     H59121   3.531   3.248   4.710  2.8925 -0.9452 -3.8954
  438MOL0     H59122   3.415   3.138   4.889  3.3204  4.0393  1.3326
  438MOL0     H59123   3.576   3.064   4.862 -0.2622 -0.6973  0.8277
  438MOL0     H59124   3.330   2.940   4.732 -1.9944  0.8859  1.9300
  438MOL0     H59125   3.476   2.848   4.804  0.2441 -0.7438  2.3383
  438MOL0     H59126   3.218   2.890   5.133 -1.8086  0.6773 -0.7042
  438MOL0     H59127   3.678   2.943   4.416  1.8595  2.0072  1.7505
  438MOL0     H59128   3.798   2.808   4.284 -2.5631 -0.8701 -1.9621
  438MOL0     H59129   3.810   2.837   4.116 -1.8488 -0.9615  1.2480
  438MOL0     H59130   3.948   2.883   4.224  0.1364 -0.4716  1.2218
  439MOL0     O59131   1.465   7.867   6.143  0.2021  0.0577  0.1553
  439MOL0     C59132   1.367   7.939   6.164  0.0538  0.1481  0.0258
  439MOL0     O59133   1.373   8.068   6.205 -0.4400 -0.0490 -0.1234
  439MOL0     C59134   1.504   8.119   6.210  0.0852 -0.2858 -0.0680
  439MOL0     C59135   1.555   8.126   6.344  0.6128  1.0704  0.3736
  439MOL0     C59136   1.683   8.179   6.360 -0.0020  0.3321  0.0055
  439MOL0     C59137   1.767   8.212   6.257 -0.1877 -0.0466  0.7233
  439MOL0     O59138   1.893   8.248   6.269  0.2035 -0.8532  0.2417
  439MOL0     C59139   1.974   8.143   6.328  0.1593 -0.1024  0.6187
  439MOL0     C59140   2.035   8.184   6.459  1.0380  0.5162  0.0843
  439MOL0     C59141   2.073   8.332   6.470 -0.4801  0.8512  0.0026
  439MOL0     C59142   2.194   8.376   6.384  0.3130 -0.1037 -0.9483
  439MOL0     C59143   2.242   8.526   6.394  0.3967  0.9006 -0.3253
  439MOL0     C59144   2.149   8.624   6.344  0.8513 -0.0735 -0.6160
  439MOL0     C59145   2.207   8.766   6.366  0.3196 -0.1201 -0.8585
  439MOL0     C59146   2.307   8.809   6.265  0.0206  0.0696  0.6392
  439MOL0     N59147   2.322   8.958   6.238 -0.3215 -0.0010  0.8438
  439MOL0     C59148   2.223   9.047   6.198 -0.3164 -0.4897  0.2014
  439MOL0     C59149   2.286   9.166   6.186  0.2276  0.0466  0.0358
  439MOL0     C59150   2.209   9.292   6.148 -0.6656  1.3060 -0.6224
  439MOL0     C59151   2.060   9.295   6.186  0.0484 -0.0293 -0.0676
  439MOL0     C59152   2.045   9.285   6.339  0.4018 -0.1738 -0.2646
  439MOL0     C59153   1.905   9.256   6.395 -0.1029 -0.5171 -0.1389
  439MOL0     O59154   1.859   9.125   6.361 -0.1601 -0.0736  0.8831
  439MOL0     C59155   1.727   9.096   6.371 -0.2124  0.8295 -0.4487
  439MOL0     C59156   1.629   9.179   6.435 -0.1688  0.6296  0.1736
  439MOL0     C59157   1.494   9.146   6.444  0.2426  0.7222  0.4843
  439MOL0     C59158   1.448   9.024   6.383 -0.7280  0.7909  0.8284
  439MOL0     C59159   1.311   8.979   6.384 -0.0189 -0.7193  0.4726
  439MOL0     O59160   1.277   8.846   6.391 -0.5508 -0.2229  0.3694
  439MOL0     C59161   1.145   8.812   6.380  0.4448  0.7175  0.2564
  439MOL0     C59162   1.092   8.803   6.248 -0.4588  0.4668  0.3693
  439MOL0     C59163   0.955   8.780   6.238  0.7612  0.2667 -0.1000
  439MOL0     C59164   0.872   8.740   6.343  0.2886  0.1363  1.0324
  439MOL0     O59165   0.739   8.710   6.330  0.6185  0.1970 -0.1219
  439MOL0     C59166   0.649   8.823   6.306  0.0476  0.0625 -0.2333
  439MOL0     C59167   0.625   8.918   6.426 -0.3013 -0.2414 -0.1852
  439MOL0     C59168   0.494   8.987   6.406  0.0822 -0.1021  0.3841
  439MOL0     C59169   0.398   8.979   6.530 -0.6426 -0.4598 -0.8702
  439MOL0     C59170   0.278   9.073   6.513  0.5145  0.5887 -0.3236
  439MOL0     C59171   0.179   9.049   6.630 -0.7669  0.1445 -0.4421
  439MOL0     C59172   0.084   8.930   6.599 -1.0780 -0.5678 -0.1057
  439MOL0     C59173  -0.003   8.890   6.720  0.5545 -0.6205  0.2689
  439MOL0    Cl59174  -0.116   9.017   6.758  0.3646 -0.3962 -0.0083
  439MOL0     C59175   0.930   8.749   6.465 -0.4032  0.3904  0.2033
  439MOL0     C59176   1.064   8.790   6.486  0.4965 -0.0677  0.0981
  439MOL0     O59177   1.222   9.070   6.367  0.0789  0.3971  0.0790
  439MOL0     C59178   1.544   8.945   6.305 -0.3171  0.3888  0.0665
  439MOL0     C59179   1.679   8.981   6.300 -0.0378 -0.3873 -0.1749
  439MOL0     N59180   2.417   9.144   6.212  0.2057 -0.7576  0.6462
  439MOL0     N59181   2.442   9.026   6.249  0.1272  0.3516 -0.2037
  439MOL0     C59182   1.714   8.203   6.126 -0.0481  0.6025  0.6569
  439MOL0     C59183   1.587   8.156   6.101 -0.6215  0.6510  0.4819
  439MOL0     C59184   1.229   7.885   6.156 -0.7492 -0.0377  0.5038
  439MOL0     C59185   1.127   7.957   6.217  0.0141  0.9132  0.2590
  439MOL0     C59186   1.002   7.893   6.233 -0.2994  0.0878  0.8296
  439MOL0     C59187   0.969   7.767   6.183 -0.0084 -1.0252  0.3589
  439MOL0     O59188   0.838   7.723   6.204 -0.5437 -0.4081  0.1746
  439MOL0     C59189   0.823   7.579   6.181  0.6858 -0.2074 -0.0125
  439MOL0     C59190   0.700   7.522   6.254 -0.0519  0.3784 -0.2696
  439MOL0     C59191   0.569   7.600   6.236 -1.8190  0.0737  0.0414
  439MOL0     C59192   0.449   7.520   6.285  0.2022  0.2951  0.6298
  439MOL0     C59193   0.423   7.402   6.194 -1.0302  0.7043 -0.6516
  439MOL0     C59194   0.394   7.299   6.142 -0.5973  0.0305 -0.5123
  439MOL0     C59195   1.069   7.708   6.107  0.3319  0.3804  0.8693
  439MOL0     C59196   1.199   7.753   6.099 -0.4095  0.1576 -0.3044
  439MOL0     C59197   1.297   7.666   6.014  0.5209  0.1262 -0.2153
  439MOL0     H59198   1.499   8.091   6.431 -0.2008 -1.6330 -1.1109
  439MOL0     H59199   1.734   8.207   6.452  0.8194  0.6686 -0.5463
  439MOL0     H59200   1.917   8.050   6.338 -1.7371  0.7757 -1.2518
  439MOL0     H59201   2.042   8.105   6.252 -0.9759  0.3379 -0.6676
  439MOL0     H59202   2.114   8.108   6.468 -0.0302 -1.4095 -4.0978
  439MOL0     H59203   1.963   8.164   6.539 -0.4303  1.8161 -0.8565
  439MOL0     H59204   2.091   8.358   6.575 -0.8228  2.5754 -0.3369
  439MOL0     H59205   1.990   8.397   6.441 -1.0067 -0.9694 -2.9598
  439MOL0     H59206   2.281   8.311   6.401 -0.3430 -0.7788 -0.0854
  439MOL0     H59207   2.164   8.349   6.282 -0.2369 -2.0358 -0.3217
  439MOL0     H59208   2.260   8.541   6.501 -1.3456 -1.2149  0.3485
  439MOL0     H59209   2.339   8.541   6.347  0.0274  0.4477 -1.2601
  439MOL0     H59210   2.118   8.609   6.240 -2.5075  3.2467 -0.3008
  439MOL0     H59211   2.053   8.617   6.396  0.1524  0.9918 -1.6816
  439MOL0     H59212   2.247   8.773   6.468 -1.2504 -3.8932  0.1853
  439MOL0     H59213   2.126   8.840   6.364 -0.3486 -0.8587 -2.1469
  439MOL0     H59214   2.403   8.764   6.291  0.0428 -0.3457 -0.1296
  439MOL0     H59215   2.276   8.761   6.171 -1.2218  1.9279  0.0190
  439MOL0     H59216   2.120   9.019   6.178  0.3172 -2.2839 -0.8095
  439MOL0     H59217   2.253   9.382   6.194  4.1766 -0.5371 -1.0820
  439MOL0     H59218   2.212   9.294   6.039 -1.2523 -2.3100 -0.8162
  439MOL0     H59219   2.007   9.380   6.142 -0.6000 -1.3336 -1.9239
  439MOL0     H59220   2.016   9.203   6.146  0.1234  0.2218 -0.7507
  439MOL0     H59221   2.052   9.388   6.376 -2.1078 -0.9465  2.8088
  439MOL0     H59222   2.121   9.222   6.385  1.3686 -0.7837 -2.5513
  439MOL0     H59223   1.841   9.333   6.351  2.6819  0.9254 -1.9526
  439MOL0     H59224   1.897   9.268   6.503 -2.8225  0.8881 -0.4104
  439MOL0     H59225   1.649   9.267   6.496  1.5251  1.0979 -0.9704
  439MOL0     H59226   1.432   9.224   6.489 -1.1777  0.8833 -1.5848
  439MOL0     H59227   1.155   8.828   6.163 -1.2435  0.0152 -0.3498
  439MOL0     H59228   0.915   8.794   6.138  2.8219  2.5118 -0.7103
  439MOL0     H59229   0.682   8.868   6.212 -3.2936 -0.6227 -1.8727
  439MOL0     H59230   0.547   8.785   6.297 -1.2162  3.3420 -1.2205
  439MOL0     H59231   0.625   8.865   6.522 -1.7882 -0.0313 -0.0444
  439MOL0     H59232   0.712   8.984   6.421 -0.8674  0.5491  0.2749
  439MOL0     H59233   0.508   9.095   6.391 -0.4911  0.3902  2.8542
  439MOL0     H59234   0.438   8.939   6.326  0.7474  0.3021 -0.3343
  439MOL0     H59235   0.467   9.014   6.607 -3.2125  1.9519  0.5077
  439MOL0     H59236   0.368   8.875   6.545 -0.1239 -0.4241  0.5360
  439MOL0     H59237   0.224   9.053   6.419 -0.4202 -2.4499  0.7285
  439MOL0     H59238   0.311   9.176   6.506  2.1652  0.1408  0.5194
  439MOL0     H59239   0.234   9.029   6.723 -0.1892 -1.5710 -1.1145
  439MOL0     H59240   0.126   9.145   6.635 -3.8228 -1.4705  1.5092
  439MOL0     H59241   0.146   8.846   6.566  1.1885  1.2296 -0.6352
  439MOL0     H59242   0.020   8.955   6.514 -1.8330 -0.5239  0.4620
  439MOL0     H59243  -0.058   8.796   6.704  0.6866 -0.9878  1.8680
  439MOL0     H59244   0.069   8.859   6.796 -0.3700 -2.0002  0.6324
  439MOL0     H59245   0.868   8.725   6.551 -0.2026 -0.5598  0.0992
  439MOL0     H59246   1.099   8.795   6.589 -3.2850  2.0141  1.5246
  439MOL0     H59247   1.516   8.850   6.263 -0.4364  0.1032  0.7806
  439MOL0     H59248   1.749   8.918   6.246  0.0142 -0.8884  0.4629
  439MOL0     H59249   1.770   8.230   6.038 -1.5909 -1.9943 -1.2681
  439MOL0     H59250   1.559   8.143   5.997 -0.5741 -1.3966  0.6860
  439MOL0     H59251   1.145   8.059   6.248  0.4004  1.0460 -0.3938
  439MOL0     H59252   0.932   7.961   6.279 -1.5322 -1.8090  1.9180
  439MOL0     H59253   0.912   7.525   6.217  0.8142  0.8294  1.3468
  439MOL0     H59254   0.813   7.553   6.076 -2.3917 -4.9676  1.1278
  439MOL0     H59255   0.727   7.519   6.360  1.9616  3.3449 -0.5599
  439MOL0     H59256   0.686   7.422   6.213 -0.1695  0.5691 -0.7102
  439MOL0     H59257   0.561   7.618   6.128  0.2981  1.4190  0.0515
  439MOL0     H59258   0.573   7.692   6.294 -1.4611  0.0621  0.0391
  439MOL0     H59259   0.453   7.492   6.391 -1.6759  2.2133  1.2785
  439MOL0     H59260   0.364   7.588   6.281  1.1503  1.4870 -2.4481
  439MOL0     H59261   0.375   7.208   6.089 -0.8369  0.3321 -0.9483
  439MOL0     H59262   1.050   7.609   6.068  0.0600  0.5442  0.5894
  439MOL0     H59263   1.250   7.576   5.973 -0.2378  0.4123  0.0186
  439MOL0     H59264   1.333   7.730   5.934 -1.2336  2.1118  0.4853
  439MOL0     H59265   1.368   7.625   6.087 -1.7709 -1.4324  1.2871
  440MOL0     O59266   4.185   8.360  10.252  0.2618  0.2893  0.9386
  440MOL0     C59267   4.189   8.317  10.135 -0.1843 -0.2039 -0.7187
  440MOL0     O59268   4.313   8.293  10.065 -0.1586  0.7665 -0.0906
  440MOL0     C59269   4.426   8.321  10.129  0.7710  0.3383  0.1444
  440MOL0     C59270   4.489   8.229  10.212  0.0123 -0.4596  0.4627
  440MOL0     C59271   4.595   8.270  10.287 -0.5722 -0.4807  0.2823
  440MOL0     C59272   4.641   8.402  10.280  0.6201 -0.1412 -0.1809
  440MOL0     O59273   4.737   8.436  10.361  0.1205  0.2433  0.0581
  440MOL0     C59274   4.767   8.572  10.388 -0.1230  0.2141 -0.3136
  440MOL0     C59275   4.865   8.576  10.512 -0.0097  0.0656  0.2731
  440MOL0     C59276   4.907   8.724  10.532  0.9550  0.9369  0.2410
  440MOL0     C59277   5.000   8.734  10.659  0.4152 -0.0675 -0.1836
  440MOL0     C59278   5.047   8.876  10.694  0.5971  0.2331 -0.5903
  440MOL0     C59279   5.156   8.923  10.597  0.1851  0.5797  0.0574
  440MOL0     C59280   5.212   9.059  10.631  0.1675  0.2602 -0.6889
  440MOL0     C59281   5.308   9.108  10.520 -0.1148 -0.7659 -0.1050
  440MOL0     N59282   5.406   9.016  10.483 -0.3366  0.7055 -1.1135
  440MOL0     C59283   5.511   8.981  10.566  0.4082 -0.6760 -1.2741
  440MOL0     C59284   5.596   8.911  10.501  0.1984 -0.2545  0.5104
  440MOL0     C59285   5.718   8.847  10.565  0.0861 -0.4312  0.2494
  440MOL0     C59286   5.847   8.900  10.505  0.3153  0.4518  0.7694
  440MOL0     C59287   5.962   8.817  10.551  0.6007 -0.8716  1.0787
  440MOL0     C59288   6.094   8.865  10.499  0.3074 -0.1895  0.1334
  440MOL0     O59289   6.186   8.762  10.551  0.3066 -0.9418  0.2152
  440MOL0     C59290   6.315   8.777  10.512 -0.2542  0.1419  0.3524
  440MOL0     C59291   6.402   8.671  10.553 -0.2165 -0.1936  0.9607
  440MOL0     C59292   6.542   8.674  10.521 -0.7309  0.8034 -1.0725
  440MOL0     C59293   6.602   8.773  10.443 -0.2319 -0.6043 -1.0701
  440MOL0     C59294   6.746   8.778  10.415  0.1049 -0.6614  0.7398
  440MOL0     O59295   6.808   8.664  10.449 -0.7487  0.6364  0.2401
  440MOL0     C59296   6.936   8.656  10.407  0.2075 -0.8871  0.1684
  440MOL0     C59297   7.030   8.720  10.489  0.5425 -0.3511 -0.2008
  440MOL0     C59298   7.161   8.720  10.443 -0.3852 -0.4251 -0.5517
  440MOL0     C59299   7.207   8.666  10.324 -0.1662  0.2583  0.0392
  440MOL0     O59300   7.340   8.689  10.285 -0.4906  0.7067  0.1450
  440MOL0     C59301   7.397   8.587  10.198  0.0805  0.4783 -0.3006
  440MOL0     C59302   7.544   8.575  10.235 -0.5159  0.1207  0.3387
  440MOL0     C59303   7.612   8.713  10.230  0.0039  0.1888 -0.0822
  440MOL0     C59304   7.762   8.702  10.261 -0.1839  0.2470  0.1298
  440MOL0     C59305   7.840   8.821  10.208  0.2106 -0.6263 -0.1639
  440MOL0     C59306   7.987   8.804  10.212  0.2889 -0.1999 -0.4480
  440MOL0     C59307   8.048   8.936  10.160  0.4206  0.1431  0.1279
  440MOL0     C59308   8.199   8.933  10.174 -0.1455 -0.4522 -0.4201
  440MOL0    Cl59309   8.244   8.957  10.342 -0.5550  0.3108 -0.3678
  440MOL0     C59310   7.112   8.588  10.251  0.1690 -0.1605  0.0310
  440MOL0     C59311   6.975   8.589  10.294 -0.5563  0.4273 -0.0830
  440MOL0     O59312   6.798   8.878  10.374 -0.6052 -0.2426 -0.4165
  440MOL0     C59313   6.516   8.878  10.395  0.6505 -0.2658  0.1522
  440MOL0     C59314   6.377   8.881  10.436  0.3732 -0.6248 -0.1811
  440MOL0     N59315   5.534   8.891  10.368 -0.1353  0.1480  0.0535
  440MOL0     N59316   5.427   8.955  10.362  0.8267 -0.1651 -0.3228
  440MOL0     C59317   4.578   8.492  10.194 -0.6470 -0.2909 -0.6682
  440MOL0     C59318   4.476   8.450  10.119  0.5830  0.1691  0.4440
  440MOL0     C59319   4.065   8.309  10.050 -0.9733  0.0508 -0.3908
  440MOL0     C59320   4.087   8.330   9.912  0.4166 -0.0036  0.3176
  440MOL0     C59321   3.981   8.318   9.825 -0.4833 -0.5477  0.4069
  440MOL0     C59322   3.853   8.292   9.872  0.6779  0.4090 -0.5957
  440MOL0     O59323   3.762   8.271   9.775  0.8469 -0.2699 -0.0976
  440MOL0     C59324   3.624   8.251   9.814 -0.1884 -0.1818 -0.1936
  440MOL0     C59325   3.544   8.161   9.719 -0.5041 -0.1634  0.3250
  440MOL0     C59326   3.407   8.232   9.701  0.1854 -0.5888  0.4069
  440MOL0     C59327   3.322   8.144   9.618 -0.4710 -0.8305 -0.3174
  440MOL0     C59328   3.174   8.155   9.638  0.1268 -0.7880 -0.4585
  440MOL0     C59329   3.060   8.187   9.670 -0.4271  0.5760 -0.1676
  440MOL0     C59330   3.830   8.280  10.016  0.3872  0.4379  0.7838
  440MOL0     C59331   3.935   8.284  10.103 -0.1970 -0.0883  0.2570
  440MOL0     C59332   3.904   8.267  10.250  0.1594  0.0912  0.3548
  440MOL0     H59333   4.469   8.126  10.236 -1.4093 -0.2602  0.1897
  440MOL0     H59334   4.649   8.199  10.350 -0.6738 -0.4489  0.4056
  440MOL0     H59335   4.829   8.600  10.303  0.4341 -1.2315 -0.4078
  440MOL0     H59336   4.687   8.647  10.395 -0.7395 -0.5527  1.2912
  440MOL0     H59337   4.960   8.525  10.494  0.4806  1.7052 -2.4959
  440MOL0     H59338   4.814   8.539  10.602 -1.7269  1.1319 -0.2144
  440MOL0     H59339   4.814   8.779  10.550 -0.3106 -0.8898 -0.4320
  440MOL0     H59340   4.966   8.754  10.444  0.9943 -0.5636 -0.2596
  440MOL0     H59341   4.941   8.701  10.744  1.5978  2.5801  1.8015
  440MOL0     H59342   5.091   8.674  10.648 -0.4080 -1.6703  1.2561
  440MOL0     H59343   4.958   8.940  10.703  1.3122  0.9773  2.0622
  440MOL0     H59344   5.090   8.880  10.794  0.6325  0.9258 -0.6259
  440MOL0     H59345   5.244   8.859  10.603 -0.1966  0.2201  3.2461
  440MOL0     H59346   5.112   8.925  10.496 -2.4427  2.4488  1.1129
  440MOL0     H59347   5.262   9.057  10.728 -3.9990  0.6955  1.7165
  440MOL0     H59348   5.123   9.124  10.636 -0.4267 -0.6232  1.6916
  440MOL0     H59349   5.248   9.131  10.432 -0.7633  1.6160  0.8727
  440MOL0     H59350   5.352   9.206  10.542 -1.8784  0.0592 -0.1488
  440MOL0     H59351   5.508   9.017  10.668 -1.1076  2.8644 -2.3743
  440MOL0     H59352   5.720   8.859  10.674  0.1248 -0.2082  0.2258
  440MOL0     H59353   5.702   8.740  10.552 -3.3383 -0.0549  0.4004
  440MOL0     H59354   5.837   8.911  10.396 -3.6001 -0.4142  0.8757
  440MOL0     H59355   5.864   9.002  10.542 -3.2153  2.8163 -3.1411
  440MOL0     H59356   5.952   8.712  10.520  0.8209 -0.4003 -0.7111
  440MOL0     H59357   5.958   8.802  10.659 -1.0793 -3.1142  0.7810
  440MOL0     H59358   6.116   8.959  10.551 -0.2174  1.6971 -2.8715
  440MOL0     H59359   6.082   8.870  10.391  0.1661 -1.4302  0.0688
  440MOL0     H59360   6.366   8.586  10.609 -2.0754  1.4820  2.4616
  440MOL0     H59361   6.609   8.597  10.559 -0.6241  1.6473  0.5372
  440MOL0     H59362   6.995   8.771  10.578 -1.3014  1.3827 -1.8141
  440MOL0     H59363   7.229   8.777  10.504 -1.4456  2.7648 -2.0975
  440MOL0     H59364   7.349   8.490  10.214 -1.7382  1.2697 -0.7341
  440MOL0     H59365   7.371   8.611  10.095 -0.1581 -1.6951 -0.7917
  440MOL0     H59366   7.557   8.548  10.340  2.7073  2.1221  0.5939
  440MOL0     H59367   7.599   8.504  10.173  0.4898  1.4400 -0.3109
  440MOL0     H59368   7.588   8.769  10.139  2.8142  0.6964 -0.5779
  440MOL0     H59369   7.564   8.780  10.303 -1.8152  1.2923 -2.1736
  440MOL0     H59370   7.794   8.611  10.209 -0.3805 -0.7033  1.5911
  440MOL0     H59371   7.767   8.687  10.370 -1.0477  0.3587  0.1868
  440MOL0     H59372   7.810   8.901  10.276 -1.0178 -3.5362  2.9765
  440MOL0     H59373   7.803   8.849  10.109 -1.6636  2.6703  1.3102
  440MOL0     H59374   8.023   8.787  10.314 -0.8494 -0.2982 -0.0481
  440MOL0     H59375   8.013   8.727  10.139  1.5583  0.5138 -0.7705
  440MOL0     H59376   7.999   9.022  10.207 -2.0840 -1.4527  0.6505
  440MOL0     H59377   8.030   8.941  10.053 -0.3233 -2.9329  0.0263
  440MOL0     H59378   8.244   8.836  10.150  2.0491  0.6583 -1.0476
  440MOL0     H59379   8.241   9.020  10.121 -1.6261  0.6967  0.2304
  440MOL0     H59380   7.141   8.522  10.170 -4.5746 -1.6336 -0.8184
  440MOL0     H59381   6.905   8.523  10.244 -0.1663  0.4046 -0.6168
  440MOL0     H59382   6.563   8.956  10.335  3.2991 -0.6014  1.6686
  440MOL0     H59383   6.313   8.965  10.413  1.6892  0.9442  1.5276
  440MOL0     H59384   4.613   8.593  10.177  0.4249 -0.4450  0.4420
  440MOL0     H59385   4.418   8.524  10.064 -1.2094 -1.0148  0.6551
  440MOL0     H59386   4.186   8.350   9.873 -0.3260 -0.1983 -1.7749
  440MOL0     H59387   4.002   8.335   9.720 -2.8459  0.5061  0.0341
  440MOL0     H59388   3.580   8.351   9.805 -1.1617 -0.7549 -2.4315
  440MOL0     H59389   3.611   8.207   9.913 -0.8329  1.8713  0.6795
  440MOL0     H59390   3.534   8.058   9.752  0.6024 -1.4445 -2.9564
  440MOL0     H59391   3.593   8.161   9.620 -2.8418  1.5349 -0.9395
  440MOL0     H59392   3.415   8.335   9.666  0.0240 -0.3424  1.0847
  440MOL0     H59393   3.361   8.246   9.799 -3.2822  1.1300 -1.2644
  440MOL0     H59394   3.343   8.168   9.514  0.5297 -1.4307 -0.2635
  440MOL0     H59395   3.349   8.040   9.635 -0.5890 -0.7712  0.2663
  440MOL0     H59396   2.956   8.206   9.687  0.0911  2.1355  1.6794
  440MOL0     H59397   3.734   8.275  10.067 -0.3281  0.3100 -0.5218
  440MOL0     H59398   3.911   8.359  10.308  1.3822  0.8710 -0.9519
  440MOL0     H59399   3.800   8.235  10.264  0.4096 -0.4167  1.0876
  440MOL0     H59400   3.974   8.190  10.282  3.0831  2.1949 -0.6223
  441MOL0     O59401   9.784   1.282   7.851  0.2348  0.0142 -1.1930
  441MOL0     C59402   9.689   1.257   7.927 -0.7795  0.0977 -0.4176
  441MOL0     O59403   9.684   1.296   8.063 -0.2166 -0.2973  0.2446
  441MOL0     C59404   9.801   1.344   8.127  0.4837  0.1986  0.9152
  441MOL0     C59405   9.940   1.310   8.092  0.1153  0.0671 -0.4307
  441MOL0     C59406  10.042   1.347   8.178  0.4408  0.2795 -0.2283
  441MOL0     C59407  10.018   1.420   8.297  0.1470  0.2153 -0.3527
  441MOL0     O59408  10.134   1.457   8.370  0.0899  0.3386  0.5979
  441MOL0     C59409  10.136   1.581   8.444  0.3157 -0.0932  0.7119
  441MOL0     C59410  10.255   1.665   8.414  0.1656 -0.1715  0.4132
  441MOL0     C59411  10.373   1.598   8.458 -0.1928  0.1000  0.5541
  441MOL0     C59412  10.497   1.683   8.424  0.9236 -0.3130  0.6769
  441MOL0     C59413  10.630   1.660   8.513  0.1495  0.1857  0.0486
  441MOL0     C59414  10.693   1.528   8.462 -0.3296 -0.0588  0.5514
  441MOL0     C59415  10.822   1.502   8.524 -0.0876  0.6780  0.4523
  441MOL0     C59416  10.899   1.394   8.446  0.1664 -0.3954  0.3823
  441MOL0     N59417  10.864   1.253   8.476  0.2437 -0.3068 -0.4437
  441MOL0     C59418  10.916   1.188   8.579  0.4426 -0.1138  0.6608
  441MOL0     C59419  10.841   1.073   8.582  0.2180 -0.2508 -1.1687
  441MOL0     C59420  10.850   0.969   8.685  0.0373  0.0115  0.5294
  441MOL0     C59421  10.986   0.891   8.693 -0.7154  0.6049  0.0530
  441MOL0     C59422  10.973   0.792   8.806  0.0137  0.4936 -0.5929
  441MOL0     C59423  11.095   0.704   8.821  0.6331 -0.4760  0.9472
  441MOL0     O59424  11.201   0.781   8.882  0.6452  0.3524 -0.1298
  441MOL0     C59425  11.335   0.743   8.857  0.3300 -0.5043 -0.5890
  441MOL0     C59426  11.372   0.616   8.805  0.3772 -0.2198  0.3794
  441MOL0     C59427  11.508   0.587   8.793  0.2698  0.4563  0.5658
  441MOL0     C59428  11.606   0.674   8.831 -0.0734 -0.6432  0.0884
  441MOL0     C59429  11.753   0.648   8.810 -0.5159  0.2389  0.0211
  441MOL0     O59430  11.848   0.758   8.816 -0.4875  0.1968  0.5238
  441MOL0     C59431  11.980   0.729   8.781 -0.5323 -0.3254  0.1446
  441MOL0     C59432  12.070   0.746   8.889 -0.4897 -0.1573  0.0603
  441MOL0     C59433  12.212   0.707   8.870  0.5972  0.0923 -0.1621
  441MOL0     C59434  12.247   0.644   8.744 -0.2336 -0.5526  0.1250
  441MOL0     O59435  12.370   0.592   8.720  0.9303 -0.1749  0.6483
  441MOL0     C59436  12.481   0.606   8.807 -0.6190 -0.5477  0.3455
  441MOL0     C59437  12.604   0.557   8.724  0.3183 -0.7552 -0.5850
  441MOL0     C59438  12.744   0.588   8.790  0.4960 -0.5850  0.0912
  441MOL0     C59439  12.775   0.488   8.902 -0.1568 -0.6499  0.4165
  441MOL0     C59440  12.925   0.517   8.949 -0.6827 -0.8637  0.8433
  441MOL0     C59441  12.964   0.431   9.068  0.2712  0.0555 -0.7317
  441MOL0     C59442  13.108   0.456   9.095 -0.0620 -0.0060  0.9693
  441MOL0     C59443  13.157   0.369   9.209 -0.0739 -0.6228  0.1164
  441MOL0    Cl59444  13.125   0.193   9.153  0.7103  0.3744  0.2477
  441MOL0     C59445  12.147   0.615   8.651  0.3216  0.0542 -0.7622
  441MOL0     C59446  12.016   0.655   8.665 -0.2797  0.1333 -0.0601
  441MOL0     O59447  11.784   0.527   8.810  0.1511  0.4952 -0.0468
  441MOL0     C59448  11.568   0.800   8.886 -0.4162 -0.2145 -0.5672
  441MOL0     C59449  11.437   0.827   8.905  0.4686 -0.0015 -0.7903
  441MOL0     N59450  10.751   1.070   8.486  0.0833 -0.3682  0.0988
  441MOL0     N59451  10.764   1.185   8.419  0.3427  0.1238  0.0786
  441MOL0     C59452   9.880   1.447   8.327 -0.1732 -0.2311 -1.2055
  441MOL0     C59453   9.772   1.409   8.246  0.2669  0.0570 -0.4183
  441MOL0     C59454   9.567   1.196   7.873 -0.5908  0.0322  0.0246
  441MOL0     C59455   9.447   1.221   7.949 -0.5955  1.2222  0.5155
  441MOL0     C59456   9.323   1.161   7.908 -0.5168 -0.0971 -0.3554
  441MOL0     C59457   9.318   1.086   7.785  0.4512  0.0295 -0.9710
  441MOL0     O59458   9.196   1.047   7.735  0.2828  0.0954 -0.3310
  441MOL0     C59459   9.184   0.913   7.683 -0.8599 -0.3314 -0.3641
  441MOL0     C59460   9.208   0.802   7.777 -0.1341  0.7528  0.9061
  441MOL0     C59461   9.169   0.667   7.727 -0.2647 -1.1004  0.5490
  441MOL0     C59462   9.283   0.578   7.661  0.3737 -0.9848  0.0620
  441MOL0     C59463   9.230   0.444   7.612  0.3992 -0.4719  0.0658
  441MOL0     C59464   9.175   0.348   7.573 -0.4041 -0.0593  0.6136
  441MOL0     C59465   9.438   1.058   7.719  0.7316  0.4181 -0.0105
  441MOL0     C59466   9.558   1.110   7.763 -0.0962  0.2430  1.3685
  441MOL0     C59467   9.677   1.087   7.670  0.3658  1.0077  0.5384
  441MOL0     H59468   9.978   1.251   8.010  1.9656 -1.1044  1.1693
  441MOL0     H59469  10.143   1.322   8.150  0.3881  0.2461 -0.3898
  441MOL0     H59470  10.043   1.635   8.422 -0.0453 -0.9426  0.1287
  441MOL0     H59471  10.141   1.563   8.552  0.6138 -3.9788  0.1709
  441MOL0     H59472  10.235   1.758   8.468 -1.3400 -0.7537  0.9204
  441MOL0     H59473  10.272   1.696   8.311  4.7991 -1.7786  0.4599
  441MOL0     H59474  10.383   1.495   8.425 -1.3517  0.2184 -0.2369
  441MOL0     H59475  10.366   1.596   8.567  0.8497 -1.0456  0.6212
  441MOL0     H59476  10.521   1.646   8.324  0.3162 -1.7259  1.0359
  441MOL0     H59477  10.474   1.790   8.423  3.0079  0.3120  3.6929
  441MOL0     H59478  10.699   1.743   8.494  3.1241 -2.0642  0.2064
  441MOL0     H59479  10.605   1.670   8.619  1.6324 -2.4551  0.7380
  441MOL0     H59480  10.619   1.449   8.476  0.2532 -0.5552  0.8851
  441MOL0     H59481  10.709   1.537   8.354 -0.8283  1.3953  0.5657
  441MOL0     H59482  10.820   1.478   8.631  0.9630  1.0753  0.5689
  441MOL0     H59483  10.890   1.586   8.511 -0.9861  1.7534  2.2025
  441MOL0     H59484  10.891   1.420   8.340 -0.0617 -0.8111  0.2976
  441MOL0     H59485  11.004   1.409   8.472  0.6608 -0.0672 -1.6309
  441MOL0     H59486  10.993   1.215   8.651 -2.1175  2.9450  2.4747
  441MOL0     H59487  10.813   1.004   8.781  2.1249  0.4839  1.1972
  441MOL0     H59488  10.777   0.893   8.653  0.6409 -0.7708  0.9857
  441MOL0     H59489  10.995   0.832   8.601 -1.7044 -0.8092  0.8236
  441MOL0     H59490  11.073   0.958   8.697 -0.7950  0.8411 -1.5134
  441MOL0     H59491  10.883   0.731   8.791 -1.6993  2.4278  1.1571
  441MOL0     H59492  10.960   0.824   8.910  1.2506 -2.6761  0.6769
  441MOL0     H59493  11.130   0.659   8.727  1.0594  0.5530  0.5970
  441MOL0     H59494  11.066   0.619   8.883  1.0870 -1.7487 -0.5105
  441MOL0     H59495  11.300   0.544   8.767  1.6529  0.2569 -3.2622
  441MOL0     H59496  11.546   0.489   8.765  0.4824  0.1003  2.0405
  441MOL0     H59497  12.030   0.780   8.984 -1.3103  0.4929 -0.5013
  441MOL0     H59498  12.290   0.719   8.945  1.2806  0.1017 -0.8585
  441MOL0     H59499  12.494   0.707   8.847 -2.7139  1.9870 -4.4301
  441MOL0     H59500  12.464   0.538   8.890  0.6414 -0.7959  0.4090
  441MOL0     H59501  12.593   0.451   8.698 -2.2596 -0.7027  0.1111
  441MOL0     H59502  12.605   0.625   8.639 -0.4738  2.0815  1.5435
  441MOL0     H59503  12.820   0.584   8.711  3.0592 -0.2680  2.3730
  441MOL0     H59504  12.753   0.690   8.830  0.0329 -0.0915 -1.0332
  441MOL0     H59505  12.764   0.382   8.877 -1.2015 -0.4293 -0.1142
  441MOL0     H59506  12.696   0.496   8.976 -1.3795  2.0280 -1.0471
  441MOL0     H59507  12.933   0.626   8.962 -0.1569 -0.8313  0.3341
  441MOL0     H59508  12.992   0.503   8.863 -1.0762  2.7461 -0.2334
  441MOL0     H59509  12.904   0.455   9.156 -1.1358 -1.1857 -1.2947
  441MOL0     H59510  12.940   0.325   9.058  2.3146 -0.8472  2.3910
  441MOL0     H59511  13.133   0.561   9.114  0.1391 -0.1497  1.5162
  441MOL0     H59512  13.167   0.410   9.016 -0.5411  0.7803  0.1370
  441MOL0     H59513  13.265   0.381   9.216 -0.1907  1.6586 -1.0901
  441MOL0     H59514  13.112   0.377   9.309 -0.3162 -1.2662  0.0647
  441MOL0     H59515  12.175   0.561   8.562 -2.8712 -0.2788 -1.6829
  441MOL0     H59516  11.942   0.624   8.591  0.3373 -0.4387 -0.4540
  441MOL0     H59517  11.639   0.878   8.910 -2.3407  1.3296  0.3826
  441MOL0     H59518  11.407   0.923   8.945  0.9343 -0.3940  0.5531
  441MOL0     H59519   9.862   1.494   8.424 -2.5845 -0.4760 -1.4730
  441MOL0     H59520   9.669   1.433   8.266  0.8257  0.8027  1.8473
  441MOL0     H59521   9.452   1.284   8.037  1.5623 -1.3105  2.3779
  441MOL0     H59522   9.227   1.186   7.953 -1.5689  1.3127 -3.0959
  441MOL0     H59523   9.256   0.891   7.603  0.2227  1.5774  0.0258
  441MOL0     H59524   9.089   0.912   7.629  0.1181 -0.7315 -2.1669
  441MOL0     H59525   9.145   0.814   7.866  0.3961  2.8563  1.0484
  441MOL0     H59526   9.314   0.795   7.803 -0.1604  0.2408  0.8944
  441MOL0     H59527   9.083   0.679   7.660 -0.5894  1.5972  1.3446
  441MOL0     H59528   9.127   0.613   7.813 -0.5673 -1.1436  0.3739
  441MOL0     H59529   9.319   0.630   7.572 -0.7105 -1.1810 -0.5088
  441MOL0     H59530   9.356   0.565   7.741 -2.1618 -2.4242  2.2893
  441MOL0     H59531   9.125   0.260   7.539  1.4425 -0.6815 -0.6503
  441MOL0     H59532   9.429   1.008   7.623  1.2422 -1.2513  0.7645
  441MOL0     H59533   9.707   1.179   7.619  2.2259  0.9184  1.3683
  441MOL0     H59534   9.756   1.048   7.735 -3.0221 -2.6057  2.9148
  441MOL0     H59535   9.661   1.003   7.603  2.4479  0.8345  0.1868
  442MOL0     O59536   8.816  10.484   0.537 -0.1846 -0.2140  0.3794
  442MOL0     C59537   8.797  10.588   0.474 -0.1078 -0.2904 -1.0445
  442MOL0     O59538   8.879  10.705   0.488 -0.5399 -0.6528  0.0517
  442MOL0     C59539   8.969  10.722   0.588  0.1577  0.3956 -0.6062
  442MOL0     C59540   8.983  10.841   0.666  0.0327  0.5206  0.0144
  442MOL0     C59541   9.095  10.861   0.746 -0.4347  0.5392 -0.5416
  442MOL0     C59542   9.184  10.757   0.762  0.0108 -0.5459 -0.4275
  442MOL0     O59543   9.307  10.772   0.818  0.3136  0.3405 -0.0296
  442MOL0     C59544   9.351  10.888   0.888  0.4224  0.3922  0.7262
  442MOL0     C59545   9.501  10.884   0.903  0.3876  1.1028 -0.1757
  442MOL0     C59546   9.576  10.893   0.772  0.9801  0.3162 -0.2884
  442MOL0     C59547   9.551  11.021   0.687  0.1083  0.0897  0.5197
  442MOL0     C59548   9.627  11.016   0.550  0.2725 -0.3881  0.5178
  442MOL0     C59549   9.597  11.151   0.489  0.7052  0.0955  1.0133
  442MOL0     C59550   9.675  11.180   0.356 -0.2767 -0.1866  0.4140
  442MOL0     C59551   9.611  11.291   0.268  0.4924  0.1257 -0.1260
  442MOL0     N59552   9.595  11.431   0.331 -0.2639 -0.2950 -0.0079
  442MOL0     C59553   9.601  11.553   0.264 -0.3003 -0.2204 -1.1533
  442MOL0     C59554   9.597  11.647   0.361 -0.0456  0.5940  0.0215
  442MOL0     C59555   9.621  11.787   0.334 -0.3663 -0.8776  0.5332
  442MOL0     C59556   9.772  11.820   0.294  0.4095 -0.2710  0.2316
  442MOL0     C59557   9.868  11.796   0.418  0.6302 -0.2726  0.6940
  442MOL0     C59558   9.991  11.889   0.403 -0.8279  0.0950  0.0130
  442MOL0     O59559  10.079  11.851   0.292 -0.4537  0.3482  0.4839
  442MOL0     C59560  10.214  11.893   0.274  0.1794  0.3255  0.1144
  442MOL0     C59561  10.276  11.990   0.355 -0.1052  0.2383 -0.4810
  442MOL0     C59562  10.412  12.033   0.339  0.1324 -0.6354  0.1356
  442MOL0     C59563  10.487  11.976   0.230  0.1602 -0.1225  0.3871
  442MOL0     C59564  10.616  12.038   0.196  0.3575  0.0552 -0.5364
  442MOL0     O59565  10.666  12.123   0.290  0.2255 -0.5833  0.1549
  442MOL0     C59566  10.794  12.172   0.274  0.1323  0.5142 -0.3679
  442MOL0     C59567  10.881  12.145   0.379  0.4314  0.7039 -0.1509
  442MOL0     C59568  11.022  12.169   0.377  0.4308 -0.8016 -0.0690
  442MOL0     C59569  11.062  12.240   0.263 -0.4721  0.2417  0.3287
  442MOL0     O59570  11.192  12.271   0.248  0.3761 -0.1716 -0.0796
  442MOL0     C59571  11.232  12.381   0.326  0.4259  0.4471  0.3387
  442MOL0     C59572  11.364  12.436   0.259 -0.1279  0.6964  0.5563
  442MOL0     C59573  11.429  12.524   0.352  0.1640 -0.4050  0.3726
  442MOL0     C59574  11.568  12.574   0.303 -0.3322  0.0885 -0.8504
  442MOL0     C59575  11.635  12.678   0.398  0.2554 -0.1970 -0.6743
  442MOL0     C59576  11.774  12.718   0.351 -0.6395  0.1955 -0.7280
  442MOL0     C59577  11.839  12.813   0.457 -0.4833  0.1494 -0.1803
  442MOL0     C59578  11.914  12.926   0.395 -0.7055 -0.2752  0.1235
  442MOL0    Cl59579  12.014  12.992   0.522  0.1132 -0.0957  0.1922
  442MOL0     C59580  10.981  12.280   0.159 -0.0628 -0.5247 -0.4798
  442MOL0     C59581  10.850  12.254   0.173  0.5296  0.5525 -0.1936
  442MOL0     O59582  10.659  12.011   0.085  0.1337 -0.3143 -0.1697
  442MOL0     C59583  10.429  11.868   0.165  0.4568  0.3071 -0.3085
  442MOL0     C59584  10.298  11.826   0.185  0.6633  0.7191 -0.5486
  442MOL0     N59585   9.584  11.594   0.489 -0.3685  0.1946  1.4759
  442MOL0     N59586   9.586  11.467   0.464 -0.7974  0.7585 -0.5947
  442MOL0     C59587   9.178  10.638   0.694 -0.1608 -0.2872 -0.6528
  442MOL0     C59588   9.070  10.621   0.607  0.9719 -0.0559  1.5131
  442MOL0     C59589   8.691  10.585   0.369  0.0669 -0.3151 -0.3420
  442MOL0     C59590   8.689  10.701   0.280 -0.0788  0.7579  0.1861
  442MOL0     C59591   8.592  10.702   0.187  0.4035 -0.5560  1.0014
  442MOL0     C59592   8.519  10.583   0.153 -0.5095  1.0681 -0.6735
  442MOL0     O59593   8.442  10.592   0.045  1.2577 -0.1869 -0.1620
  442MOL0     C59594   8.352  10.490   0.005  0.1657 -0.8923 -0.0267
  442MOL0     C59595   8.240  10.557  -0.076 -0.2167  0.5756  0.4257
  442MOL0     C59596   8.132  10.619   0.010  0.4998  0.0833 -0.7888
  442MOL0     C59597   8.005  10.661  -0.064 -0.4274  0.0883 -0.6912
  442MOL0     C59598   7.919  10.746   0.027 -0.0719  0.2643  0.5699
  442MOL0     C59599   7.850  10.799   0.114 -0.7456  0.9956  0.7824
  442MOL0     C59600   8.520  10.475   0.234 -0.4722 -0.0586  0.0004
  442MOL0     C59601   8.605  10.475   0.348  0.5579 -0.4442 -0.3366
  442MOL0     C59602   8.593  10.351   0.439  0.0317 -0.2138 -0.1228
  442MOL0     H59603   8.917  10.927   0.651  1.1636  1.3200 -0.5797
  442MOL0     H59604   9.111  10.954   0.800  2.9885  2.2291 -4.0126
  442MOL0     H59605   9.322  10.978   0.832 -0.6891  0.0189  0.6892
  442MOL0     H59606   9.293  10.887   0.981 -0.4592  0.1304  0.1850
  442MOL0     H59607   9.523  10.788   0.950 -0.1347  0.3173 -1.4588
  442MOL0     H59608   9.530  10.961   0.974  0.1349  0.3976  0.7122
  442MOL0     H59609   9.542  10.798   0.731 -1.9169  0.7691  0.7652
  442MOL0     H59610   9.684  10.879   0.784  1.0067  1.1376  0.6496
  442MOL0     H59611   9.446  11.022   0.656  0.1577  0.3618  0.3477
  442MOL0     H59612   9.566  11.110   0.749  0.6733 -1.9767  3.5481
  442MOL0     H59613   9.735  11.005   0.554  0.4119 -0.4063 -1.7588
  442MOL0     H59614   9.600  10.933   0.484 -0.5107  0.6756 -0.5383
  442MOL0     H59615   9.490  11.160   0.467  0.1672 -2.5134  2.0807
  442MOL0     H59616   9.620  11.236   0.553  0.4868  0.0003  1.2223
  442MOL0     H59617   9.696  11.091   0.296  0.3571 -0.4861  1.0614
  442MOL0     H59618   9.769  11.218   0.398  0.6711  0.0621 -1.8210
  442MOL0     H59619   9.673  11.311   0.181  0.9846  2.5383  0.7060
  442MOL0     H59620   9.508  11.262   0.242  1.2642 -2.0353 -0.9911
  442MOL0     H59621   9.619  11.558   0.157 -0.4553 -0.2207 -1.1799
  442MOL0     H59622   9.571  11.824   0.244  1.9124  0.2209 -0.3774
  442MOL0     H59623   9.579  11.852   0.412  0.3568  2.0694 -1.3569
  442MOL0     H59624   9.809  11.766   0.206 -2.5366  0.0049 -1.3263
  442MOL0     H59625   9.771  11.927   0.270 -0.2097  0.2447  2.3685
  442MOL0     H59626   9.904  11.693   0.414 -0.0928 -0.5131 -0.1265
  442MOL0     H59627   9.806  11.826   0.503 -3.0405 -0.5975 -1.6383
  442MOL0     H59628  10.047  11.883   0.496 -1.5797 -1.3742  0.4050
  442MOL0     H59629   9.944  11.987   0.394 -1.5258 -0.3631 -1.6548
  442MOL0     H59630  10.207  12.028   0.429 -1.5593 -3.0976  0.0440
  442MOL0     H59631  10.441  12.126   0.387 -2.1429  0.2881 -0.1898
  442MOL0     H59632  10.823  12.088   0.452 -0.3401 -4.1858 -4.0137
  442MOL0     H59633  11.089  12.136   0.456  0.8092  1.1707  0.4867
  442MOL0     H59634  11.155  12.459   0.332 -0.4972 -0.5488  2.9187
  442MOL0     H59635  11.243  12.364   0.433 -2.5842  3.2832  1.2688
  442MOL0     H59636  11.436  12.355   0.250  0.4040  1.2779 -0.6273
  442MOL0     H59637  11.351  12.488   0.164  2.1161  1.7345  0.7526
  442MOL0     H59638  11.360  12.608   0.351 -0.6836 -1.0929  0.0775
  442MOL0     H59639  11.424  12.468   0.446 -4.1178 -3.0471 -1.1407
  442MOL0     H59640  11.560  12.622   0.206 -2.5774  3.7052  0.9300
  442MOL0     H59641  11.638  12.489   0.299  0.1458  0.3828  0.5004
  442MOL0     H59642  11.637  12.646   0.502  0.2932  0.1197 -0.5768
  442MOL0     H59643  11.564  12.762   0.397  2.8343  2.1602 -0.2483
  442MOL0     H59644  11.833  12.629   0.324  0.6918  0.1508  1.9553
  442MOL0     H59645  11.773  12.769   0.255  3.2838 -0.9559 -1.5850
  442MOL0     H59646  11.913  12.758   0.516 -1.1161 -1.2182 -0.6396
  442MOL0     H59647  11.751  12.847   0.513 -1.0075  0.6943 -1.3000
  442MOL0     H59648  11.976  12.883   0.316  0.7662 -0.7128  1.4765
  442MOL0     H59649  11.841  12.994   0.351  1.4064  3.4239  1.8532
  442MOL0     H59650  11.024  12.322   0.068  3.6818 -0.2847  1.2174
  442MOL0     H59651  10.778  12.289   0.100 -0.5638 -1.2920 -0.0680
  442MOL0     H59652  10.470  11.827   0.073  1.8471 -0.6236  0.6905
  442MOL0     H59653  10.253  11.750   0.122 -1.5264  1.3924  0.1077
  442MOL0     H59654   9.253  10.560   0.707 -0.5933 -1.0281 -2.3825
  442MOL0     H59655   9.065  10.530   0.549 -0.7147 -0.2412  1.9164
  442MOL0     H59656   8.757  10.785   0.290  1.5599 -0.2397 -1.6972
  442MOL0     H59657   8.589  10.793   0.128 -1.8312 -1.3855 -0.3158
  442MOL0     H59658   8.311  10.432   0.088 -1.0052 -1.0432 -0.6839
  442MOL0     H59659   8.413  10.416  -0.048 -0.2565 -1.5808  0.4344
  442MOL0     H59660   8.191  10.483  -0.141  1.6286 -0.2225 -0.1164
  442MOL0     H59661   8.295  10.624  -0.142  0.0616  0.9975  1.0826
  442MOL0     H59662   8.191  10.703   0.047  3.2803 -0.6137 -3.2590
  442MOL0     H59663   8.109  10.541   0.083  2.2399 -3.0416 -3.3140
  442MOL0     H59664   8.030  10.728  -0.147  1.0651 -0.2178 -0.5154
  442MOL0     H59665   7.965  10.562  -0.091 -1.2255 -0.6444  2.6234
  442MOL0     H59666   7.804  10.838   0.203  0.6539  1.1775  1.4538
  442MOL0     H59667   8.457  10.386   0.229  0.7116 -0.9002 -4.6176
  442MOL0     H59668   8.562  10.387   0.537 -0.2306  0.8777 -0.5837
  442MOL0     H59669   8.516  10.283   0.402 -0.2370  0.3668 -0.6513
  442MOL0     H59670   8.687  10.297   0.450  0.9058  1.7166  3.3208
  443MOL0     O59671   2.269   2.629   6.003 -0.3721 -0.1503 -0.3213
  443MOL0     C59672   2.250   2.539   5.927  0.6665 -0.0733  0.0414
  443MOL0     O59673   2.333   2.435   5.905  0.3238  0.2727  0.0910
  443MOL0     C59674   2.450   2.429   5.971 -0.8914 -1.0267 -0.1539
  443MOL0     C59675   2.572   2.438   5.897 -0.6410 -1.2797  0.4531
  443MOL0     C59676   2.697   2.427   5.959  0.6815 -0.2162 -0.2150
  443MOL0     C59677   2.706   2.405   6.093  0.3601  0.8813  0.1461
  443MOL0     O59678   2.836   2.423   6.135  0.7041 -0.4719 -0.2036
  443MOL0     C59679   2.851   2.397   6.274  0.0582  0.0797 -0.1560
  443MOL0     C59680   2.976   2.476   6.319 -0.7705  0.5197 -1.1217
  443MOL0     C59681   3.101   2.421   6.257 -0.8089 -0.6036 -0.4873
  443MOL0     C59682   3.227   2.479   6.315 -0.4397  0.5256  0.3469
  443MOL0     C59683   3.341   2.454   6.221 -0.0933  0.3125  0.2014
  443MOL0     C59684   3.474   2.510   6.280 -0.0823 -0.3235  0.0133
  443MOL0     C59685   3.583   2.464   6.181  0.0003 -0.2945 -0.0802
  443MOL0     C59686   3.705   2.539   6.224 -0.0868  0.0294 -0.1620
  443MOL0     N59687   3.829   2.474   6.197 -0.4860  0.0110  0.7375
  443MOL0     C59688   3.857   2.333   6.203  0.5175  0.1244  0.3371
  443MOL0     C59689   3.990   2.320   6.198  0.0203 -0.0513  0.3394
  443MOL0     C59690   4.064   2.190   6.199  0.8140  0.8059 -0.3220
  443MOL0     C59691   4.216   2.193   6.155  0.9060  0.0225 -0.4987
  443MOL0     C59692   4.271   2.056   6.113  0.2144 -1.0218  0.1839
  443MOL0     C59693   4.419   2.057   6.112 -0.3359 -0.4558 -0.6898
  443MOL0     O59694   4.474   2.143   6.018 -0.2617  0.4996  0.3571
  443MOL0     C59695   4.618   2.145   6.013  1.2280  0.5141 -0.0137
  443MOL0     C59696   4.684   2.227   5.916 -0.2132 -0.2016  0.0710
  443MOL0     C59697   4.827   2.205   5.899  1.1236 -0.6092  0.4418
  443MOL0     C59698   4.897   2.118   5.977  0.8263 -0.5061  1.0828
  443MOL0     C59699   5.048   2.111   5.962 -0.2929 -0.1302  0.4304
  443MOL0     O59700   5.117   2.007   6.029  0.0795 -1.1282  0.0580
  443MOL0     C59701   5.256   2.015   6.002  0.1733  0.5132 -0.0111
  443MOL0     C59702   5.336   2.104   6.086  0.2072  0.6589  0.1641
  443MOL0     C59703   5.471   2.112   6.059  1.0661 -0.9564  0.1177
  443MOL0     C59704   5.533   2.055   5.951  0.0908 -0.0515  0.1882
  443MOL0     O59705   5.672   2.075   5.948  0.0589  0.1388  0.1711
  443MOL0     C59706   5.744   2.027   5.836  1.1978  0.2886  0.5686
  443MOL0     C59707   5.888   2.081   5.845  0.3271  0.0404  0.0714
  443MOL0     C59708   5.970   2.028   5.732  0.4426 -0.1552  0.1465
  443MOL0     C59709   6.099   2.105   5.719  0.2003  0.4148 -0.1009
  443MOL0     C59710   6.162   2.072   5.585  0.9895 -0.2539 -0.9046
  443MOL0     C59711   6.278   2.161   5.563 -0.0840 -0.0456  0.5394
  443MOL0     C59712   6.361   2.109   5.442 -0.2407 -0.9065  0.3099
  443MOL0     C59713   6.465   2.214   5.400 -0.5123  0.7622  0.5585
  443MOL0    Cl59714   6.581   2.225   5.520 -0.1938  0.2140 -0.4317
  443MOL0     C59715   5.456   1.972   5.868  0.2965  0.0046 -0.5497
  443MOL0     C59716   5.320   1.948   5.893  0.3260  0.0598  0.0589
  443MOL0     O59717   5.100   2.191   5.888 -0.2176  0.6899  0.4701
  443MOL0     C59718   4.831   2.042   6.069  0.6819  0.5066 -0.7813
  443MOL0     C59719   4.696   2.054   6.095  0.2414 -0.4134  0.1034
  443MOL0     N59720   4.042   2.450   6.187  0.4620 -0.4172  0.1597
  443MOL0     N59721   3.949   2.533   6.198  0.0924 -0.1495  0.5669
  443MOL0     C59722   2.586   2.378   6.168 -0.7159  0.1519  0.0466
  443MOL0     C59723   2.467   2.376   6.100  0.2381  0.1989 -0.2270
  443MOL0     C59724   2.127   2.546   5.837  1.0019 -0.2727  0.3760
  443MOL0     C59725   2.000   2.568   5.897  0.2759 -0.1782  0.2649
  443MOL0     C59726   1.886   2.548   5.818  0.5729 -0.3530  0.3549
  443MOL0     C59727   1.894   2.518   5.675 -0.5601 -0.2370 -1.1435
  443MOL0     O59728   1.782   2.487   5.605  0.4751  0.1527  0.3721
  443MOL0     C59729   1.789   2.354   5.548 -0.4201  0.2859  0.6490
  443MOL0     C59730   1.773   2.240   5.651  0.2629  0.2212  0.9384
  443MOL0     C59731   1.713   2.114   5.580 -0.5446  0.1545 -0.1993
  443MOL0     C59732   1.665   2.020   5.687  0.3136  0.0939 -0.5563
  443MOL0     C59733   1.618   1.896   5.631 -0.8295  1.4328  0.6077
  443MOL0     C59734   1.577   1.794   5.566 -0.9554 -0.3137 -0.7847
  443MOL0     C59735   2.022   2.499   5.626 -0.0846  0.5327 -0.0601
  443MOL0     C59736   2.133   2.520   5.703  0.2915  0.6939 -0.4528
  443MOL0     C59737   2.265   2.512   5.634 -0.6712  0.8875  1.1968
  443MOL0     H59738   2.579   2.456   5.791  2.2902  0.2889  0.8025
  443MOL0     H59739   2.777   2.441   5.887 -0.9754  2.0837 -1.7309
  443MOL0     H59740   2.762   2.430   6.328 -0.3547  1.0094 -1.3758
  443MOL0     H59741   2.869   2.290   6.287  0.9840  0.4323  1.9726
  443MOL0     H59742   2.989   2.464   6.427 -1.7323  0.7660 -0.9752
  443MOL0     H59743   2.958   2.581   6.297  0.8413  1.5394  1.7716
  443MOL0     H59744   3.096   2.437   6.149 -1.2306 -0.8666 -0.5075
  443MOL0     H59745   3.095   2.313   6.273 -0.8796 -0.3520  1.4330
  443MOL0     H59746   3.208   2.585   6.335 -0.7173  0.0287  3.2218
  443MOL0     H59747   3.258   2.427   6.406  0.2162 -0.8618 -0.6464
  443MOL0     H59748   3.341   2.345   6.207  0.2665  0.6088 -2.6619
  443MOL0     H59749   3.327   2.485   6.117 -0.5486 -0.0416  0.1540
  443MOL0     H59750   3.470   2.619   6.293 -1.2922 -0.2216 -0.9780
  443MOL0     H59751   3.486   2.462   6.377 -0.4873  1.4868  1.0120
  443MOL0     H59752   3.565   2.493   6.077  3.0501 -0.2259 -0.6977
  443MOL0     H59753   3.574   2.356   6.187  0.6486 -0.3387  0.2193
  443MOL0     H59754   3.713   2.634   6.170 -3.7016  0.4396 -0.1686
  443MOL0     H59755   3.706   2.562   6.331 -0.3044  0.4211 -0.2427
  443MOL0     H59756   3.781   2.257   6.193 -1.4888  2.2687 -2.3187
  443MOL0     H59757   4.058   2.141   6.297  0.9754  2.8797  0.7702
  443MOL0     H59758   4.023   2.128   6.119  3.2297  0.7480 -1.5902
  443MOL0     H59759   4.229   2.263   6.072  0.7299  0.2104 -0.3652
  443MOL0     H59760   4.275   2.234   6.237  0.9545 -1.0083  0.0019
  443MOL0     H59761   4.243   2.017   6.014 -1.6864  0.0087  0.2781
  443MOL0     H59762   4.236   1.990   6.193  0.2931 -1.1339  0.1267
  443MOL0     H59763   4.444   1.954   6.087 -2.5496 -0.8787 -1.3460
  443MOL0     H59764   4.445   2.081   6.216 -1.1885  3.0437 -1.1565
  443MOL0     H59765   4.643   2.295   5.842  0.3191  1.0043  0.8539
  443MOL0     H59766   4.877   2.259   5.819  0.1362 -1.3233 -0.7009
  443MOL0     H59767   5.279   2.151   6.165 -0.5916  0.2714 -0.1655
  443MOL0     H59768   5.539   2.164   6.127  0.0965 -1.2492  1.3464
  443MOL0     H59769   5.740   1.918   5.838 -1.4373  0.3231  1.8326
  443MOL0     H59770   5.694   2.055   5.743 -1.4359  0.2389  1.8605
  443MOL0     H59771   5.880   2.190   5.842  1.6458  0.1734  0.8439
  443MOL0     H59772   5.931   2.048   5.940  1.9890  1.8426 -0.0030
  443MOL0     H59773   5.991   1.927   5.767 -0.8585  0.5411  3.3504
  443MOL0     H59774   5.922   2.023   5.634 -1.0862 -1.6434  0.9235
  443MOL0     H59775   6.171   2.075   5.796 -0.3836 -0.4208  0.1347
  443MOL0     H59776   6.082   2.213   5.730 -2.0482  0.0754  0.1649
  443MOL0     H59777   6.094   2.073   5.499 -2.8138 -1.8110  1.8332
  443MOL0     H59778   6.207   1.972   5.586  1.8007  0.1073 -0.2905
  443MOL0     H59779   6.234   2.259   5.541 -0.7602 -0.6650 -1.0513
  443MOL0     H59780   6.334   2.153   5.656  1.1353 -3.1483 -0.3397
  443MOL0     H59781   6.305   2.105   5.348  0.6789  1.7317 -0.4455
  443MOL0     H59782   6.402   2.013   5.475  1.1092  0.3512  2.5428
  443MOL0     H59783   6.525   2.179   5.316 -0.6602 -0.4572  0.9364
  443MOL0     H59784   6.415   2.311   5.386 -0.5363  0.5509 -0.9933
  443MOL0     H59785   5.511   1.933   5.783  1.4826  0.1099  0.1591
  443MOL0     H59786   5.253   1.881   5.839  0.9231  0.9359 -1.8743
  443MOL0     H59787   4.883   1.969   6.130 -1.9336 -2.1573 -1.5330
  443MOL0     H59788   4.648   1.994   6.172 -3.2519  4.8923  2.6164
  443MOL0     H59789   2.586   2.358   6.275 -0.4154  1.0156  0.2224
  443MOL0     H59790   2.371   2.360   6.149 -0.2863  1.2634 -0.8532
  443MOL0     H59791   1.991   2.594   6.002  0.3693 -0.8255  0.4327
  443MOL0     H59792   1.787   2.543   5.864  1.0850 -0.5429  1.4710
  443MOL0     H59793   1.886   2.333   5.504 -0.9135 -3.2467  1.0024
  443MOL0     H59794   1.714   2.345   5.469  2.1899 -2.3798 -1.7343
  443MOL0     H59795   1.711   2.284   5.730  0.7402 -2.2750  2.8040
  443MOL0     H59796   1.872   2.218   5.692  1.2283 -0.6006 -1.5985
  443MOL0     H59797   1.795   2.062   5.530  1.0428  1.3002  1.1134
  443MOL0     H59798   1.633   2.144   5.512 -1.1343 -0.8852  0.0224
  443MOL0     H59799   1.748   1.994   5.755  0.8423 -0.3996 -1.3736
  443MOL0     H59800   1.588   2.064   5.751 -1.4601 -2.2389 -0.9605
  443MOL0     H59801   1.541   1.703   5.522  1.2584 -0.2359 -3.0537
  443MOL0     H59802   2.036   2.470   5.522  0.6288 -2.1881  0.7272
  443MOL0     H59803   2.336   2.580   5.682 -0.8455  0.9370  1.3843
  443MOL0     H59804   2.305   2.411   5.626 -1.3386  0.5725  1.6933
  443MOL0     H59805   2.254   2.538   5.528 -0.4896  1.6566  1.3576
  444MOL0     O59806   2.626  11.257   6.235  0.4284  0.7222 -0.2936
  444MOL0     C59807   2.655  11.139   6.265  0.5411  0.0529 -0.4729
  444MOL0     O59808   2.719  11.095   6.376  0.3066 -0.1451 -0.2244
  444MOL0     C59809   2.773  11.198   6.454 -0.3441 -0.1043  0.6956
  444MOL0     C59810   2.697  11.254   6.558 -0.8619  0.5473  0.7037
  444MOL0     C59811   2.748  11.353   6.639  0.0101 -0.5081  0.1400
  444MOL0     C59812   2.872  11.399   6.613  0.0605  0.5216  0.1145
  444MOL0     O59813   2.940  11.493   6.693  0.0045 -0.3648 -0.2300
  444MOL0     C59814   2.867  11.586   6.781  0.6568  0.5830 -0.7749
  444MOL0     C59815   2.911  11.727   6.765  0.9604 -0.8728  0.5240
  444MOL0     C59816   3.051  11.768   6.802  0.7257 -1.0171 -0.1287
  444MOL0     C59817   3.161  11.758   6.690  0.5886 -0.4559 -0.2242
  444MOL0     C59818   3.299  11.801   6.757 -0.0914 -0.4797  0.7903
  444MOL0     C59819   3.399  11.813   6.643  0.0127  0.3186 -0.1001
  444MOL0     C59820   3.545  11.849   6.685 -0.3593 -0.1601  0.2962
  444MOL0     C59821   3.638  11.874   6.559 -0.2792  0.2041 -0.7234
  444MOL0     N59822   3.783  11.886   6.598 -0.6871  0.3128  0.4301
  444MOL0     C59823   3.862  11.996   6.574 -0.6660 -0.1565 -0.2807
  444MOL0     C59824   3.983  11.951   6.618  0.1566 -0.6567  0.1666
  444MOL0     C59825   4.105  12.037   6.601 -0.4960 -0.0239 -0.6027
  444MOL0     C59826   4.142  12.041   6.447 -0.7944  0.2627 -0.0347
  444MOL0     C59827   4.231  12.157   6.406 -0.4458  0.6526 -0.0484
  444MOL0     C59828   4.381  12.131   6.415 -0.9276 -0.8366  0.3847
  444MOL0     O59829   4.415  12.011   6.342 -0.0485 -0.6509  0.2677
  444MOL0     C59830   4.552  11.989   6.346  0.2267  0.2159 -0.9337
  444MOL0     C59831   4.632  11.996   6.230  0.0222 -0.6337 -0.5596
  444MOL0     C59832   4.775  11.978   6.245  0.8760  0.4099  0.1000
  444MOL0     C59833   4.840  11.942   6.361  0.1140 -0.6504 -0.7740
  444MOL0     C59834   4.986  11.910   6.378 -0.6335  0.2578  0.7981
  444MOL0     O59835   5.045  11.883   6.252  1.0312 -0.3707 -0.7049
  444MOL0     C59836   5.174  11.858   6.241 -0.2622  0.3800 -0.1088
  444MOL0     C59837   5.210  11.737   6.187 -0.2616  0.7467  0.8831
  444MOL0     C59838   5.347  11.705   6.168  0.6523  0.2999 -0.0816
  444MOL0     C59839   5.444  11.795   6.216 -0.9015  0.2434  0.3181
  444MOL0     O59840   5.577  11.770   6.208 -0.4358  0.0538  0.0865
  444MOL0     C59841   5.632  11.641   6.183 -0.0336 -0.8712 -0.2502
  444MOL0     C59842   5.776  11.657   6.194  0.0765  1.4666  0.6062
  444MOL0     C59843   5.848  11.748   6.085  0.6642  0.2474  0.1608
  444MOL0     C59844   6.003  11.728   6.074  0.3117 -0.7401 -0.6240
  444MOL0     C59845   6.080  11.847   6.007  0.1515 -0.0102  0.8579
  444MOL0     C59846   6.227  11.816   5.971  0.1723 -0.2171  0.4910
  444MOL0     C59847   6.281  11.922   5.892  0.2123 -1.1714  0.0161
  444MOL0     C59848   6.415  11.890   5.829  0.4730  0.5845  1.0808
  444MOL0    Cl59849   6.526  11.873   5.960  0.0078  0.0967  0.2471
  444MOL0     C59850   5.402  11.910   6.269 -0.0648 -0.3139 -0.2377
  444MOL0     C59851   5.270  11.948   6.275 -0.4297 -0.0007  0.3012
  444MOL0     O59852   5.038  11.900   6.485 -0.7202 -0.8242  0.0564
  444MOL0     C59853   4.758  11.937   6.479 -0.3872  0.3015  0.3519
  444MOL0     C59854   4.618  11.962   6.468  0.1142  0.0266  0.9930
  444MOL0     N59855   3.965  11.832   6.686 -0.2271 -0.4651 -0.1688
  444MOL0     N59856   3.851  11.784   6.659 -0.0982  0.2815  0.3241
  444MOL0     C59857   2.945  11.353   6.503 -0.5325  0.4673  0.4588
  444MOL0     C59858   2.897  11.253   6.416 -0.4215 -0.8421  0.2171
  444MOL0     C59859   2.587  11.039   6.185  0.5796 -0.3351  0.3421
  444MOL0     C59860   2.663  10.963   6.084  0.2635  0.7387  0.0448
  444MOL0     C59861   2.600  10.865   6.010 -0.7536 -0.8443  0.3880
  444MOL0     C59862   2.470  10.834   6.021  0.2301  0.6770 -0.0893
  444MOL0     O59863   2.400  10.733   5.946  0.3784 -0.6215 -0.7179
  444MOL0     C59864   2.323  10.628   6.023 -0.7418 -1.0213  0.2594
  444MOL0     C59865   2.182  10.620   5.966 -1.4089  0.3241  1.3419
  444MOL0     C59866   2.095  10.754   5.964 -0.5576  0.8753  0.6784
  444MOL0     C59867   2.137  10.840   5.851 -0.0291 -0.1149  0.0291
  444MOL0     C59868   2.033  10.943   5.842  0.5442  0.4405  0.1494
  444MOL0     C59869   1.936  11.019   5.827 -0.1948  0.4822  0.6236
  444MOL0     C59870   2.396  10.907   6.118  0.1097  0.0201  0.7643
  444MOL0     C59871   2.450  11.009   6.204 -0.1648 -0.7661  0.2510
  444MOL0     C59872   2.363  11.081   6.303 -0.4931  0.2058 -0.4174
  444MOL0     H59873   2.594  11.220   6.560 -0.2968 -1.2261  0.5261
  444MOL0     H59874   2.691  11.385   6.725 -0.6388  0.9412 -0.7901
  444MOL0     H59875   2.761  11.583   6.755  0.9939  0.3401 -2.2248
  444MOL0     H59876   2.879  11.544   6.881 -2.8515 -2.5141 -1.4303
  444MOL0     H59877   2.842  11.789   6.823 -0.1241  0.9916 -2.5039
  444MOL0     H59878   2.887  11.766   6.665 -0.7064  2.8859  2.1674
  444MOL0     H59879   3.081  11.717   6.894 -2.2161 -0.6767  1.1351
  444MOL0     H59880   3.045  11.871   6.836 -2.0531 -1.4243  0.8308
  444MOL0     H59881   3.159  11.655   6.651 -0.6597 -0.7578  0.5710
  444MOL0     H59882   3.140  11.832   6.612  1.6150 -0.2981 -0.3612
  444MOL0     H59883   3.295  11.898   6.807 -0.5852 -0.1831  0.1965
  444MOL0     H59884   3.335  11.732   6.833  1.1351  0.0695  0.7283
  444MOL0     H59885   3.397  11.711   6.605  1.4023  0.2673 -0.0991
  444MOL0     H59886   3.369  11.885   6.567  2.1111  1.7411  0.3036
  444MOL0     H59887   3.589  11.764   6.738  1.5312  0.8901  0.5190
  444MOL0     H59888   3.545  11.937   6.749  0.8890  0.3978 -0.4392
  444MOL0     H59889   3.617  11.786   6.497  0.4207 -0.3681 -0.1598
  444MOL0     H59890   3.596  11.957   6.500  0.5379  0.7406 -0.5629
  444MOL0     H59891   3.834  12.086   6.520  1.0036  0.1613 -0.6795
  444MOL0     H59892   4.095  12.142   6.629 -2.3205 -0.0524 -1.0205
  444MOL0     H59893   4.186  11.991   6.658 -1.5727  1.9052  2.7624
  444MOL0     H59894   4.201  11.954   6.416  0.6138  1.0203  0.4581
  444MOL0     H59895   4.046  12.046   6.396  0.5592 -1.1787 -2.9878
  444MOL0     H59896   4.211  12.243   6.470  0.3726  2.3141 -1.9044
  444MOL0     H59897   4.216  12.185   6.301 -0.3603  0.7254 -0.0414
  444MOL0     H59898   4.402  12.122   6.522 -2.0544  0.0988  0.7116
  444MOL0     H59899   4.437  12.222   6.391  1.7733 -2.7630 -1.0131
  444MOL0     H59900   4.583  12.005   6.133 -2.0155  0.7442  0.5391
  444MOL0     H59901   4.839  11.985   6.158 -2.2648  1.1417 -2.3128
  444MOL0     H59902   5.135  11.669   6.148 -0.7118  1.0200  1.2732
  444MOL0     H59903   5.374  11.619   6.108  1.5624  1.4356 -1.3553
  444MOL0     H59904   5.603  11.577   6.267  2.6582  0.2064  1.6386
  444MOL0     H59905   5.601  11.588   6.093  2.2722 -1.6950 -0.6337
  444MOL0     H59906   5.797  11.707   6.289 -1.7913  1.1697  1.2284
  444MOL0     H59907   5.830  11.562   6.198 -0.2166  1.2920  0.4730
  444MOL0     H59908   5.804  11.725   5.988  1.3003  0.1003 -0.0993
  444MOL0     H59909   5.834  11.850   6.120  0.5864  0.1324  0.4687
  444MOL0     H59910   6.030  11.633   6.026 -1.0021 -1.9983  0.9842
  444MOL0     H59911   6.028  11.730   6.181 -1.1030 -0.1884 -0.2831
  444MOL0     H59912   6.074  11.933   6.074  1.5322  0.1684  0.7804
  444MOL0     H59913   6.017  11.874   5.921 -1.9753 -2.3577  1.5361
  444MOL0     H59914   6.285  11.785   6.058 -1.4940 -1.8870  1.0819
  444MOL0     H59915   6.238  11.732   5.901  0.6973  2.0270 -2.2988
  444MOL0     H59916   6.294  12.011   5.954 -0.0652 -1.3049  0.2701
  444MOL0     H59917   6.219  11.949   5.806  1.2218  0.2919 -0.2768
  444MOL0     H59918   6.403  11.797   5.773 -1.5579  0.4713  1.6271
  444MOL0     H59919   6.447  11.972   5.764 -2.1730  0.4531 -0.5429
  444MOL0     H59920   5.477  11.979   6.306 -0.8528  1.6233 -2.0607
  444MOL0     H59921   5.253  12.033   6.341 -0.2810 -0.7607  1.3415
  444MOL0     H59922   4.808  11.912   6.572  3.7198 -1.9613 -2.1130
  444MOL0     H59923   4.555  11.961   6.556 -0.5363 -0.8897  0.5268
  444MOL0     H59924   3.043  11.390   6.474 -0.2788 -0.3432  0.2725
  444MOL0     H59925   2.950  11.219   6.328  1.6627 -0.1814  1.1484
  444MOL0     H59926   2.770  10.973   6.068  0.3622  1.2032  0.9486
  444MOL0     H59927   2.663  10.823   5.933  0.8420 -1.1846  1.8312
  444MOL0     H59928   2.311  10.652   6.130  1.2566  0.3304  0.2346
  444MOL0     H59929   2.381  10.535   6.021 -0.9733 -1.1554 -0.2545
  444MOL0     H59930   2.135  10.557   6.042  1.7605  1.5505  4.6671
  444MOL0     H59931   2.178  10.572   5.868 -0.1361  2.0016  0.3868
  444MOL0     H59932   2.097  10.813   6.056 -0.4274  2.4784 -0.3087
  444MOL0     H59933   1.992  10.720   5.969  0.0463 -1.1959  0.1517
  444MOL0     H59934   2.231  10.884   5.885 -2.2669  2.3548  3.6541
  444MOL0     H59935   2.158  10.794   5.754  1.5659  2.0051 -0.7185
  444MOL0     H59936   1.851  11.083   5.815 -0.1584  0.0526 -3.5822
  444MOL0     H59937   2.290  10.883   6.128 -0.3242  0.8817 -1.1529
  444MOL0     H59938   2.369  11.189   6.288  0.1955 -0.0464 -2.2759
  444MOL0     H59939   2.261  11.044   6.291 -0.2653 -0.2819 -0.8884
  444MOL0     H59940   2.397  11.050   6.402 -0.1746  0.7687 -0.3456
  445MOL0     O59941   9.322  10.351   3.882  0.1938 -0.0517  0.9060
  445MOL0     C59942   9.229  10.272   3.910  0.5107 -0.0462 -0.6652
  445MOL0     O59943   9.239  10.138   3.916  0.2770  0.3802 -0.5710
  445MOL0     C59944   9.365  10.086   3.909  0.4008 -0.7058  0.2749
  445MOL0     C59945   9.394   9.972   3.829  0.2906  0.0967  0.1000
  445MOL0     C59946   9.519   9.912   3.818 -0.5226  0.1727 -0.2652
  445MOL0     C59947   9.627   9.971   3.887  0.5654  0.3445 -0.0955
  445MOL0     O59948   9.752   9.918   3.890  0.0924 -0.3136  0.0115
  445MOL0     C59949   9.818   9.885   3.768  0.5652  1.4392 -0.4379
  445MOL0     C59950   9.877  10.015   3.700  0.1845 -0.2989 -0.1254
  445MOL0     C59951   9.987  10.090   3.774 -0.9209 -0.6273  0.3477
  445MOL0     C59952  10.126  10.039   3.760 -0.4359 -0.3481 -1.1143
  445MOL0     C59953  10.232  10.145   3.785 -0.5539  0.0820  0.1005
  445MOL0     C59954  10.372  10.089   3.765  0.0316 -0.4547 -0.7894
  445MOL0     C59955  10.461  10.209   3.737  0.5232 -0.4354 -0.2320
  445MOL0     C59956  10.603  10.151   3.718 -0.4344 -1.0501 -0.4962
  445MOL0     N59957  10.670  10.108   3.842  0.1267  0.0180 -0.9707
  445MOL0     C59958  10.707  10.193   3.947 -0.8709  0.6266 -0.0248
  445MOL0     C59959  10.751  10.109   4.045  0.7235 -0.4273 -0.3175
  445MOL0     C59960  10.800  10.146   4.180  0.7128 -0.1043 -0.3125
  445MOL0     C59961  10.896  10.265   4.179  0.2581 -0.7395 -0.7439
  445MOL0     C59962  10.938  10.303   4.323 -0.4840  0.1326  0.2587
  445MOL0     C59963  11.085  10.356   4.329  0.9563 -0.2656  0.0129
  445MOL0     O59964  11.098  10.406   4.468 -0.3688  0.0827 -0.2359
  445MOL0     C59965  11.222  10.441   4.512 -0.3195 -0.6043 -0.2478
  445MOL0     C59966  11.339  10.436   4.432  0.6488  0.5590 -0.1086
  445MOL0     C59967  11.471  10.448   4.492  0.1856  0.9037  1.0852
  445MOL0     C59968  11.481  10.480   4.628 -0.0916 -0.2860  0.5419
  445MOL0     C59969  11.603  10.490   4.699 -0.4167  0.7934  0.2386
  445MOL0     O59970  11.598  10.522   4.832 -0.3028  0.5003 -0.9858
  445MOL0     C59971  11.715  10.560   4.907 -0.8130 -0.1967 -0.0846
  445MOL0     C59972  11.808  10.642   4.855  0.5149 -0.7830  0.5112
  445MOL0     C59973  11.917  10.674   4.929 -0.4675 -0.0347 -0.4453
  445MOL0     C59974  11.942  10.621   5.056 -0.4120 -0.6438 -0.1895
  445MOL0     O59975  12.039  10.670   5.146  0.2965  0.0971  0.4080
  445MOL0     C59976  12.153  10.744   5.094 -0.4036  0.2795  0.2152
  445MOL0     C59977  12.248  10.645   5.008 -0.1724 -0.4434  0.3787
  445MOL0     C59978  12.390  10.704   4.979 -1.0555  0.3115  0.0953
  445MOL0     C59979  12.472  10.594   4.914  0.8977 -0.2323 -0.2102
  445MOL0     C59980  12.602  10.655   4.867 -0.5516 -0.6952  0.3168
  445MOL0     C59981  12.704  10.561   4.815 -0.3250  0.6502 -0.2613
  445MOL0     C59982  12.809  10.638   4.736  0.0212 -1.7634 -0.8873
  445MOL0     C59983  12.922  10.557   4.690 -0.2261 -0.0838  0.0437
  445MOL0    Cl59984  12.877  10.404   4.600  0.0565  0.1981  0.2608
  445MOL0     C59985  11.848  10.532   5.100  0.3070 -0.6063 -0.4689
  445MOL0     C59986  11.740  10.499   5.027 -0.6851  0.0431 -0.0926
  445MOL0     O59987  11.706  10.481   4.632  0.2711  0.3605  0.1135
  445MOL0     C59988  11.359  10.495   4.697  0.0109  0.4456  0.0479
  445MOL0     C59989  11.232  10.477   4.644 -0.1621 -0.2735  0.6830
  445MOL0     N59990  10.749   9.980   3.991 -0.1676  0.5798 -0.2213
  445MOL0     N59991  10.701   9.981   3.877 -0.0791 -0.2492  0.8005
  445MOL0     C59992   9.600  10.090   3.957  0.3980  0.3183 -0.9408
  445MOL0     C59993   9.471  10.148   3.979  0.2029 -0.0215 -1.1521
  445MOL0     C59994   9.097  10.338   3.921 -0.5027 -0.6093  0.2081
  445MOL0     C59995   9.070  10.450   3.839 -0.0404  0.2731  0.0810
  445MOL0     C59996   8.945  10.502   3.834  0.2979 -0.3271 -0.0150
  445MOL0     C59997   8.849  10.459   3.916  1.2847  0.1574  0.8331
  445MOL0     O59998   8.725  10.518   3.896 -0.4200 -0.6682 -0.1629
  445MOL0     C59999   8.605  10.464   3.954 -0.0498 -0.1095 -0.2802
  445MOL0     C60000   8.475  10.557   3.934 -0.5345 -0.2607 -0.3671
  445MOL0     C60001   8.346  10.475   3.941 -0.2435  0.1414  0.2438
  445MOL0     C60002   8.233  10.570   3.920 -0.2123  0.0401  0.1746
  445MOL0     C60003   8.100  10.510   3.935  0.7659  0.3181  0.1807
  445MOL0     C60004   7.995  10.459   3.969 -0.0828 -0.7787  0.1513
  445MOL0     C60005   8.872  10.348   3.997 -0.3212  0.5969  0.6488
  445MOL0     C60006   8.998  10.287   4.003 -0.5897 -0.1531  0.1287
  445MOL0     C60007   9.014  10.167   4.092 -0.2644  0.4551  0.0692
  445MOL0     H60008   9.309   9.947   3.767 -2.5071  1.0269  3.2852
  445MOL0     H60009   9.537   9.825   3.755  0.2756 -1.1300  1.6331
  445MOL0     H60010   9.900   9.814   3.778  0.3180  0.7562 -2.6276
  445MOL0     H60011   9.748   9.835   3.700  0.9552  1.1417 -0.6206
  445MOL0     H60012   9.789  10.080   3.693  0.2818  0.0265  1.3571
  445MOL0     H60013   9.904  10.002   3.595 -2.1470  1.5800 -1.0631
  445MOL0     H60014   9.961  10.113   3.878  0.4457 -0.4010  0.6691
  445MOL0     H60015   9.989  10.186   3.721  1.8986 -0.9682 -0.3315
  445MOL0     H60016  10.128   9.956   3.831 -0.8431 -0.1351 -0.8538
  445MOL0     H60017  10.144  10.008   3.656 -1.1191 -0.4909 -1.1945
  445MOL0     H60018  10.210  10.227   3.715  0.8052  0.1443 -0.2736
  445MOL0     H60019  10.223  10.176   3.890  1.1622 -0.1230  0.3241
  445MOL0     H60020  10.395  10.040   3.860 -0.5994  0.0319 -0.3807
  445MOL0     H60021  10.376  10.016   3.684 -3.0284 -0.7209 -0.8277
  445MOL0     H60022  10.459  10.286   3.814 -1.0627  0.7176 -1.3640
  445MOL0     H60023  10.425  10.259   3.647 -0.5090  2.3036  1.5719
  445MOL0     H60024  10.601  10.067   3.648 -1.0840  0.8402 -2.8990
  445MOL0     H60025  10.675  10.223   3.678 -0.4066 -0.0221  1.2670
  445MOL0     H60026  10.716  10.300   3.964  3.4066  0.3556  0.5845
  445MOL0     H60027  10.718  10.163   4.251  0.4282 -1.5965 -0.2613
  445MOL0     H60028  10.850  10.056   4.219 -1.4016 -2.0824 -1.9182
  445MOL0     H60029  10.985  10.239   4.120  0.4908  2.2273 -1.8294
  445MOL0     H60030  10.860  10.353   4.126  1.1914  0.3856  0.4326
  445MOL0     H60031  10.931  10.213   4.385 -2.2088 -0.4166 -0.6736
  445MOL0     H60032  10.871  10.381   4.360 -1.4916 -0.9366  0.7586
  445MOL0     H60033  11.099  10.434   4.253  3.6311  1.2443  1.9069
  445MOL0     H60034  11.150  10.270   4.308  0.8388 -0.2740 -0.3260
  445MOL0     H60035  11.325  10.424   4.325 -3.7432  2.6284 -0.0033
  445MOL0     H60036  11.555  10.445   4.424 -0.7104  1.8123 -0.1185
  445MOL0     H60037  11.797  10.687   4.756  1.3156  2.0666  1.6114
  445MOL0     H60038  11.991  10.734   4.878 -1.6344  0.6968 -1.3105
  445MOL0     H60039  12.127  10.824   5.025  1.2464  1.2662  0.6761
  445MOL0     H60040  12.197  10.781   5.187 -3.6351  2.7580  0.9338
  445MOL0     H60041  12.270  10.551   5.060 -1.1800 -1.5242 -1.0897
  445MOL0     H60042  12.193  10.632   4.915 -0.2214  1.6005  0.0718
  445MOL0     H60043  12.385  10.792   4.915 -0.4533 -0.5862 -1.2404
  445MOL0     H60044  12.441  10.737   5.070  2.1550  0.1568 -1.5355
  445MOL0     H60045  12.420  10.552   4.827  0.3826  0.8405 -0.4384
  445MOL0     H60046  12.480  10.516   4.990 -0.9072  1.0320  1.3752
  445MOL0     H60047  12.654  10.708   4.948 -0.7737 -1.4862  0.9932
  445MOL0     H60048  12.564  10.730   4.797 -0.5777 -0.8423  0.1725
  445MOL0     H60049  12.757  10.511   4.897  0.8809 -1.5100 -2.2558
  445MOL0     H60050  12.650  10.487   4.756 -0.2919  0.0370  0.4651
  445MOL0     H60051  12.856  10.719   4.794  1.8094 -3.3875  0.0317
  445MOL0     H60052  12.762  10.689   4.652  1.0864  0.9579  0.0620
  445MOL0     H60053  12.997  10.614   4.634  0.4228  0.1238  1.0705
  445MOL0     H60054  12.983  10.524   4.775 -0.3104  0.6021  0.3783
  445MOL0     H60055  11.854  10.493   5.201 -0.7822 -1.3871 -0.6960
  445MOL0     H60056  11.668  10.433   5.075  0.6606 -3.6565 -2.6420
  445MOL0     H60057  11.366  10.531   4.799 -1.3372  1.9088 -0.3374
  445MOL0     H60058  11.144  10.499   4.703 -0.7068  1.7174 -0.7480
  445MOL0     H60059   9.685  10.137   4.005  1.2165 -1.9003 -0.0608
  445MOL0     H60060   9.448  10.237   4.036 -0.3545  2.7409 -5.2338
  445MOL0     H60061   9.151  10.495   3.782  2.2668  0.8815  3.5126
  445MOL0     H60062   8.927  10.585   3.766  1.0334  0.2439  0.4749
  445MOL0     H60063   8.622  10.447   4.061 -1.8616 -0.9327 -0.0955
  445MOL0     H60064   8.582  10.366   3.909  0.9775 -1.4040  1.8277
  445MOL0     H60065   8.474  10.604   3.835  0.3251 -0.3802 -0.4408
  445MOL0     H60066   8.470  10.634   4.011 -1.0077 -0.1896 -0.4673
  445MOL0     H60067   8.328  10.428   4.038 -0.2257 -2.0746 -0.7722
  445MOL0     H60068   8.355  10.401   3.861  0.7645  1.0454 -0.5047
  445MOL0     H60069   8.245  10.644   4.000  2.0572 -0.4765  0.3597
  445MOL0     H60070   8.239  10.616   3.821 -1.5838  2.0971  0.9606
  445MOL0     H60071   7.914  10.406   4.016 -2.2623  1.5483 -0.8116
  445MOL0     H60072   8.792  10.307   4.058  1.7768 -1.7414  2.0457
  445MOL0     H60073   8.938  10.159   4.171  1.8426  0.0530  2.1527
  445MOL0     H60074   9.015  10.072   4.037 -1.9741 -1.5333  3.1928
  445MOL0     H60075   9.104  10.177   4.153  0.3580 -2.6539 -0.1998
  446MOL0     O60076   3.540   2.139   8.336  0.7208  0.0693 -0.1044
  446MOL0     C60077   3.527   2.073   8.230 -0.7455 -0.5012  0.2989
  446MOL0     O60078   3.618   1.972   8.194 -0.0026 -0.3332  0.1915
  446MOL0     C60079   3.746   1.972   8.249  0.4487 -0.2511  0.3393
  446MOL0     C60080   3.822   2.089   8.256 -0.4390  0.4761 -0.6109
  446MOL0     C60081   3.966   2.087   8.280  0.0237  0.0177  0.3025
  446MOL0     C60082   4.022   1.958   8.301 -0.0932  0.7639 -0.3091
  446MOL0     O60083   4.161   1.963   8.316  0.5930 -0.8427 -0.1708
  446MOL0     C60084   4.227   1.841   8.340 -0.9418  0.6539  0.2580
  446MOL0     C60085   4.376   1.857   8.372 -0.4736  0.7974  1.1530
  446MOL0     C60086   4.456   1.724   8.370 -0.3624  0.1788 -0.1149
  446MOL0     C60087   4.603   1.754   8.346  0.9671  0.5351 -0.2362
  446MOL0     C60088   4.687   1.640   8.396 -0.7074 -0.1637 -0.2165
  446MOL0     C60089   4.830   1.661   8.336  0.1584 -1.1059  0.4207
  446MOL0     C60090   4.909   1.789   8.398 -0.4415 -0.3122 -0.1536
  446MOL0     C60091   5.048   1.813   8.349 -0.3599  0.2792 -0.5631
  446MOL0     N60092   5.134   1.699   8.376 -0.1017  0.0839 -0.5398
  446MOL0     C60093   5.164   1.606   8.283 -0.3906  0.3304  0.4580
  446MOL0     C60094   5.263   1.534   8.333 -0.4052  1.0135  0.3831
  446MOL0     C60095   5.343   1.422   8.270  0.3918 -0.0359  0.4206
  446MOL0     C60096   5.494   1.445   8.256  0.2253  0.6658 -0.7037
  446MOL0     C60097   5.529   1.572   8.172  0.5612  0.2494  0.5390
  446MOL0     C60098   5.675   1.610   8.211 -0.3784 -0.1245  0.2571
  446MOL0     O60099   5.759   1.492   8.213 -0.2981 -0.3317  0.6572
  446MOL0     C60100   5.895   1.513   8.228  0.2564 -0.9907  0.0970
  446MOL0     C60101   5.980   1.396   8.226 -0.3957 -0.2530 -0.0833
  446MOL0     C60102   6.124   1.409   8.232  0.1947  0.4029  0.0405
  446MOL0     C60103   6.178   1.538   8.269 -0.5636  0.4943 -0.0446
  446MOL0     C60104   6.326   1.542   8.297  0.2494 -0.0069 -0.2737
  446MOL0     O60105   6.391   1.421   8.271  0.3529  0.0340  0.2912
  446MOL0     C60106   6.528   1.413   8.290  0.2126 -0.3905  0.6969
  446MOL0     C60107   6.609   1.379   8.184 -0.6265 -0.4757 -0.5480
  446MOL0     C60108   6.752   1.391   8.192  0.2195  0.2083 -0.5349
  446MOL0     C60109   6.812   1.426   8.313 -0.8975 -0.3879  0.4248
  446MOL0     O60110   6.946   1.414   8.347  0.5907 -0.6329  0.2203
  446MOL0     C60111   7.007   1.307   8.270 -0.5436  0.1430 -0.3707
  446MOL0     C60112   7.145   1.281   8.338 -1.0431 -0.2021  0.0902
  446MOL0     C60113   7.209   1.159   8.270 -0.1146 -0.2004  0.1303
  446MOL0     C60114   7.265   1.199   8.131  0.1057 -0.3924  0.2216
  446MOL0     C60115   7.372   1.110   8.080  0.3581 -0.3113  0.1522
  446MOL0     C60116   7.438   1.164   7.951 -0.3661  0.0819 -0.0717
  446MOL0     C60117   7.558   1.082   7.891 -1.0461 -0.3192 -0.2838
  446MOL0     C60118   7.665   1.037   7.990 -0.2186 -0.4348 -0.5399
  446MOL0    Cl60119   7.803   0.949   7.910  0.0050 -0.4226 -0.4455
  446MOL0     C60120   6.725   1.456   8.416  0.6747 -0.3070 -0.3530
  446MOL0     C60121   6.587   1.459   8.405  0.7779 -0.7122  0.4294
  446MOL0     O60122   6.367   1.636   8.372  0.2871 -0.0785  0.2892
  446MOL0     C60123   6.091   1.652   8.282  0.5999  0.4290  0.0467
  446MOL0     C60124   5.957   1.639   8.256 -0.4418 -0.6654  0.2668
  446MOL0     N60125   5.295   1.583   8.458  0.1251 -0.1039 -0.1167
  446MOL0     N60126   5.209   1.677   8.485 -0.6658 -0.4638  0.1735
  446MOL0     C60127   3.943   1.841   8.301 -0.0889 -0.1681 -0.3700
  446MOL0     C60128   3.810   1.849   8.268  0.2434 -0.4623 -0.5460
  446MOL0     C60129   3.416   2.097   8.137 -0.0889 -0.0389 -0.2977
  446MOL0     C60130   3.288   2.142   8.190  0.0172  0.8341 -0.3544
  446MOL0     C60131   3.167   2.156   8.113 -0.1615  0.5248 -1.2730
  446MOL0     C60132   3.178   2.128   7.977  0.0744  1.1073 -0.0090
  446MOL0     O60133   3.072   2.140   7.891 -0.3154 -0.7748 -0.7242
  446MOL0     C60134   2.939   2.147   7.949  0.2100  0.9850  0.5559
  446MOL0     C60135   2.828   2.123   7.851 -0.0034  0.6741 -0.0883
  446MOL0     C60136   2.852   2.001   7.760 -0.2153 -0.4347 -0.2827
  446MOL0     C60137   2.807   1.876   7.833  0.3027 -0.7501 -0.9693
  446MOL0     C60138   2.900   1.768   7.810 -0.4765  0.1001  0.2037
  446MOL0     C60139   2.980   1.686   7.767  0.4860  0.8568 -0.8163
  446MOL0     C60140   3.302   2.086   7.925  0.0635 -0.7999 -0.3626
  446MOL0     C60141   3.419   2.077   7.998 -0.2931  0.0000  0.4398
  446MOL0     C60142   3.541   2.058   7.914 -0.2136  0.0878 -0.4260
  446MOL0     H60143   3.780   2.184   8.224 -0.6905  1.3012  1.9389
  446MOL0     H60144   4.015   2.183   8.293  2.4761 -1.1257 -0.0501
  446MOL0     H60145   4.191   1.795   8.433  0.3908 -1.4098 -0.1592
  446MOL0     H60146   4.217   1.771   8.256 -0.0427 -0.0404  0.7031
  446MOL0     H60147   4.385   1.910   8.468 -0.6926  2.0416  0.5080
  446MOL0     H60148   4.423   1.925   8.300  0.9226 -2.9816 -1.8196
  446MOL0     H60149   4.413   1.659   8.294 -3.0107  0.6738  0.8714
  446MOL0     H60150   4.448   1.686   8.472 -2.7387  0.8701  0.0022
  446MOL0     H60151   4.622   1.756   8.238  0.4918 -3.0789 -0.4955
  446MOL0     H60152   4.628   1.843   8.404  0.8660  0.1420  0.4183
  446MOL0     H60153   4.690   1.645   8.505 -1.5782  1.2654 -0.2357
  446MOL0     H60154   4.651   1.540   8.372 -0.7547 -0.5795  1.5041
  446MOL0     H60155   4.869   1.562   8.360 -1.5753 -1.7383  0.7416
  446MOL0     H60156   4.829   1.677   8.228 -2.3591 -1.9475  0.2732
  446MOL0     H60157   4.913   1.763   8.504  0.1753 -2.4423 -0.6578
  446MOL0     H60158   4.841   1.872   8.374  0.7583  0.7303 -0.0724
  446MOL0     H60159   5.048   1.829   8.241  0.4910 -2.0701 -0.9775
  446MOL0     H60160   5.106   1.894   8.395  0.1059 -1.4591  2.1540
  446MOL0     H60161   5.114   1.600   8.187 -1.7171  2.6693  0.9389
  446MOL0     H60162   5.331   1.332   8.332  2.5967  1.0439  2.6090
  446MOL0     H60163   5.298   1.419   8.170 -1.9251  3.2716  1.1951
  446MOL0     H60164   5.527   1.452   8.361  0.4783 -2.3277 -0.5109
  446MOL0     H60165   5.544   1.356   8.218 -0.5832  0.2959 -0.9124
  446MOL0     H60166   5.463   1.657   8.193  1.9107  1.8059 -1.2271
  446MOL0     H60167   5.515   1.538   8.069 -0.1936 -2.5152  1.4566
  446MOL0     H60168   5.686   1.661   8.307  1.0742 -0.1388  0.1248
  446MOL0     H60169   5.716   1.683   8.141  3.6531 -1.8744  0.5113
  446MOL0     H60170   5.933   1.300   8.207 -2.5288  0.3580  1.7078
  446MOL0     H60171   6.183   1.317   8.233  1.7279  1.3522  1.7344
  446MOL0     H60172   6.562   1.343   8.093  1.0719 -0.1998 -1.5666
  446MOL0     H60173   6.811   1.358   8.107  1.4353 -0.3153  0.4760
  446MOL0     H60174   6.940   1.221   8.266 -2.4680  1.6276 -2.0109
  446MOL0     H60175   7.029   1.341   8.168  2.8786 -1.0974 -0.1780
  446MOL0     H60176   7.207   1.371   8.333  0.2443 -1.1031 -0.3881
  446MOL0     H60177   7.129   1.257   8.444  1.0185 -0.7245  0.3181
  446MOL0     H60178   7.288   1.137   8.342 -1.1353 -0.4644  1.1986
  446MOL0     H60179   7.138   1.077   8.258 -3.3655  2.4417 -0.5822
  446MOL0     H60180   7.303   1.302   8.135  1.7517 -1.0218  2.9367
  446MOL0     H60181   7.181   1.199   8.061  0.3310  0.7235 -0.0789
  446MOL0     H60182   7.323   1.015   8.056  3.3254 -2.5131  2.1106
  446MOL0     H60183   7.445   1.100   8.161 -0.0913 -0.5742  0.5326
  446MOL0     H60184   7.362   1.169   7.873  1.4841  0.9778 -1.8994
  446MOL0     H60185   7.483   1.262   7.971  1.7328 -1.2930  2.7394
  446MOL0     H60186   7.609   1.139   7.813 -0.3235 -0.9095 -0.2577
  446MOL0     H60187   7.518   0.996   7.835 -1.1693 -0.7928  0.5181
  446MOL0     H60188   7.695   1.122   8.052  2.0765 -1.2971 -0.3455
  446MOL0     H60189   7.601   0.971   8.050 -1.7122  0.4059 -1.1622
  446MOL0     H60190   6.764   1.491   8.511 -4.9849  0.1933  2.1908
  446MOL0     H60191   6.531   1.492   8.492 -0.7724  0.3700 -0.9425
  446MOL0     H60192   6.126   1.750   8.312  1.0774  0.0670  0.7036
  446MOL0     H60193   5.902   1.732   8.259  2.2497  1.0965 -1.1643
  446MOL0     H60194   3.989   1.745   8.322 -2.5658 -1.1128  1.2549
  446MOL0     H60195   3.748   1.760   8.267  0.8272 -0.9945  2.0502
  446MOL0     H60196   3.278   2.150   8.297 -1.3909 -2.8366 -0.0503
  446MOL0     H60197   3.088   2.185   8.183  0.2684 -1.9616  0.3748
  446MOL0     H60198   2.928   2.240   8.006 -0.4925 -1.1204  4.1291
  446MOL0     H60199   2.919   2.071   8.024 -0.8639  0.9255  0.2220
  446MOL0     H60200   2.824   2.215   7.792 -1.3907  0.9265  0.3598
  446MOL0     H60201   2.729   2.122   7.898  0.1394  2.3664  0.3098
  446MOL0     H60202   2.958   1.992   7.733  0.5711 -0.2290  2.4311
  446MOL0     H60203   2.797   2.004   7.666 -1.2851  0.4699  0.3524
  446MOL0     H60204   2.802   1.890   7.941 -1.7173 -0.8278 -1.0113
  446MOL0     H60205   2.706   1.846   7.802 -0.8953  0.0973  1.8450
  446MOL0     H60206   3.041   1.605   7.731  1.0742  0.9274 -0.0110
  446MOL0     H60207   3.295   2.071   7.818 -1.6711 -2.5289 -0.0545
  446MOL0     H60208   3.635   2.068   7.970  1.3510  2.0425 -3.1594
  446MOL0     H60209   3.537   1.960   7.865 -1.7155  0.4515 -1.0726
  446MOL0     H60210   3.534   2.129   7.832 -3.0340 -0.1896 -0.5275
  447MOL0     O60211   0.962   4.552   8.828  0.2285  0.4410  0.1733
  447MOL0     C60212   0.914   4.519   8.936 -0.2471 -0.0959 -0.9729
  447MOL0     O60213   0.991   4.498   9.048  0.8678  0.7631 -0.5646
  447MOL0     C60214   1.117   4.534   9.062 -0.3983  0.7388  0.3331
  447MOL0     C60215   1.167   4.646   9.004 -0.0009 -0.6484 -0.1130
  447MOL0     C60216   1.305   4.678   9.013 -0.4812  0.1755 -0.4964
  447MOL0     C60217   1.397   4.591   9.068 -0.3779 -0.3523 -0.4117
  447MOL0     O60218   1.538   4.617   9.075  0.5930  0.5173  0.6246
  447MOL0     C60219   1.569   4.745   9.031  0.0595  0.5676 -0.1730
  447MOL0     C60220   1.715   4.782   9.059  0.3399 -0.3745  0.3069
  447MOL0     C60221   1.818   4.703   8.994  0.2674  0.0130  0.6237
  447MOL0     C60222   1.961   4.759   8.994 -0.9876  0.2819  0.7879
  447MOL0     C60223   2.047   4.647   8.930 -0.0626  0.0433  0.0187
  447MOL0     C60224   2.199   4.686   8.921  0.0795 -0.6600 -0.4675
  447MOL0     C60225   2.208   4.770   8.793 -0.2427  0.2708  0.2537
  447MOL0     C60226   2.349   4.808   8.768 -0.4933  0.2245 -0.1477
  447MOL0     N60227   2.445   4.702   8.786  0.0088  0.0379  0.2725
  447MOL0     C60228   2.527   4.696   8.893  0.1475  0.6258 -0.1626
  447MOL0     C60229   2.617   4.596   8.871 -0.3552 -0.4204  0.5090
  447MOL0     C60230   2.746   4.559   8.947  0.2742 -0.1924  0.3801
  447MOL0     C60231   2.837   4.682   8.974  0.1190  0.4077 -0.3102
  447MOL0     C60232   2.874   4.755   8.841 -0.4307 -0.0439  0.0904
  447MOL0     C60233   2.955   4.877   8.873 -0.7995 -0.4000 -0.2616
  447MOL0     O60234   3.006   4.948   8.757  0.1042  0.3816  0.0909
  447MOL0     C60235   3.117   5.024   8.783  0.0592 -0.8287  0.3653
  447MOL0     C60236   3.218   5.032   8.683  0.1920  0.4443  0.4121
  447MOL0     C60237   3.331   5.091   8.715  0.5091 -0.3018  0.0343
  447MOL0     C60238   3.354   5.162   8.834  0.3503  0.5317 -1.0262
  447MOL0     C60239   3.468   5.245   8.869  0.0253 -0.8412 -0.2304
  447MOL0     O60240   3.458   5.308   8.987  1.1780 -0.3269  0.2452
  447MOL0     C60241   3.567   5.379   9.032 -0.7052 -0.1425 -0.5290
  447MOL0     C60242   3.540   5.499   9.085 -0.3077 -0.3383  0.3540
  447MOL0     C60243   3.641   5.576   9.156 -0.2751  0.7324 -0.6167
  447MOL0     C60244   3.771   5.532   9.164 -0.0394 -0.9301  0.0030
  447MOL0     O60245   3.861   5.616   9.216  0.2148  1.0803  0.2818
  447MOL0     C60246   3.997   5.568   9.232  0.0312  0.1791 -0.3028
  447MOL0     C60247   4.078   5.659   9.323  0.3950 -0.6624 -1.1404
  447MOL0     C60248   4.127   5.786   9.255 -0.0923 -0.5536 -0.2672
  447MOL0     C60249   4.239   5.855   9.334 -0.5832 -0.4070 -0.4174
  447MOL0     C60250   4.203   5.907   9.482 -0.5728  0.6346  0.0226
  447MOL0     C60251   4.329   5.963   9.540 -0.3375  0.6773  0.5871
  447MOL0     C60252   4.307   6.027   9.681  0.3731 -0.1198  0.4282
  447MOL0     C60253   4.420   6.110   9.726 -0.3513  0.2846 -0.8752
  447MOL0    Cl60254   4.566   6.017   9.751  0.2850 -0.0150  0.3940
  447MOL0     C60255   3.801   5.399   9.114 -0.0483 -0.0804 -0.0476
  447MOL0     C60256   3.700   5.335   9.034  0.7140  1.0947 -0.2065
  447MOL0     O60257   3.555   5.262   8.780 -0.3045  0.3350 -0.6015
  447MOL0     C60258   3.244   5.168   8.923  0.1460 -0.0659  0.6767
  447MOL0     C60259   3.129   5.099   8.897  0.2674 -0.5087 -0.8676
  447MOL0     N60260   2.581   4.540   8.743  0.0835 -0.0618 -0.2903
  447MOL0     N60261   2.484   4.608   8.696 -0.2160  0.4445  0.7522
  447MOL0     C60262   1.346   4.483   9.139 -0.0424  0.1306  0.2463
  447MOL0     C60263   1.210   4.448   9.134  0.1368  0.1720  0.5718
  447MOL0     C60264   0.777   4.468   8.937  0.7186  0.1157  0.2470
  447MOL0     C60265   0.739   4.382   9.043  0.0834 -0.7367 -0.8731
  447MOL0     C60266   0.611   4.328   9.054 -0.5553  0.2094  0.3477
  447MOL0     C60267   0.513   4.358   8.964 -0.7009 -0.9068 -1.1175
  447MOL0     O60268   0.396   4.305   9.001 -0.5514  0.4018 -0.2625
  447MOL0     C60269   0.291   4.326   8.910 -0.4572  0.8748 -0.5268
  447MOL0     C60270   0.197   4.216   8.959 -0.0091 -0.3448 -0.0080
  447MOL0     C60271   0.096   4.173   8.852 -0.0516 -0.5631  0.3057
  447MOL0     C60272  -0.005   4.287   8.804  0.5646  0.1728 -1.3370
  447MOL0     C60273  -0.109   4.293   8.901  0.3053 -0.6747  0.7340
  447MOL0     C60274  -0.193   4.291   8.989 -0.0674 -0.3173 -0.2998
  447MOL0     C60275   0.542   4.441   8.859  0.6580 -0.6312 -0.0066
  447MOL0     C60276   0.676   4.497   8.844 -0.1968 -0.7079 -0.6581
  447MOL0     C60277   0.701   4.581   8.722 -0.2155 -0.4809 -0.4715
  447MOL0     H60278   1.116   4.720   8.945 -0.9651 -1.4489 -0.3117
  447MOL0     H60279   1.329   4.771   8.962 -2.3626  1.7977  1.3613
  447MOL0     H60280   1.542   4.748   8.925 -0.7281 -0.1466 -0.0016
  447MOL0     H60281   1.508   4.820   9.083 -1.2008 -1.4967  1.4601
  447MOL0     H60282   1.749   4.791   9.163 -1.3129  3.8639  0.6897
  447MOL0     H60283   1.722   4.884   9.020 -0.7935 -0.5986 -0.5206
  447MOL0     H60284   1.780   4.672   8.896  2.8005 -1.3824 -0.0237
  447MOL0     H60285   1.823   4.604   9.041  0.2037 -0.4067 -0.2415
  447MOL0     H60286   1.967   4.854   8.941 -1.4819  0.4367  1.0034
  447MOL0     H60287   1.993   4.782   9.096 -1.4928  0.5724  0.8829
  447MOL0     H60288   2.047   4.559   8.994 -0.2719 -0.3458 -0.5083
  447MOL0     H60289   2.010   4.624   8.830 -1.2940  1.1548  0.1833
  447MOL0     H60290   2.223   4.741   9.013 -0.8424 -0.9963 -0.0171
  447MOL0     H60291   2.256   4.593   8.916  2.7816  0.8111  0.7636
  447MOL0     H60292   2.136   4.851   8.783 -0.7934 -0.4082 -1.8100
  447MOL0     H60293   2.188   4.700   8.711 -1.6812 -0.3262  1.0760
  447MOL0     H60294   2.362   4.855   8.670  1.8583  1.8986  0.8512
  447MOL0     H60295   2.389   4.891   8.827  3.9343  0.1529 -2.5921
  447MOL0     H60296   2.529   4.758   8.981  1.5107 -1.5322  1.4339
  447MOL0     H60297   2.717   4.512   9.041  2.3321  0.7080  1.5265
  447MOL0     H60298   2.807   4.487   8.893 -1.5171  0.6793 -3.1139
  447MOL0     H60299   2.799   4.756   9.045  1.1657 -1.9373  2.9098
  447MOL0     H60300   2.926   4.645   9.025 -0.8600  0.2615  1.3798
  447MOL0     H60301   2.783   4.782   8.786  1.6372  4.6965 -1.4674
  447MOL0     H60302   2.937   4.696   8.774  2.5420  5.0431 -2.1178
  447MOL0     H60303   3.037   4.847   8.939 -0.8286  0.6547  0.2892
  447MOL0     H60304   2.896   4.944   8.937  1.6129 -0.1330  1.8590
  447MOL0     H60305   3.211   4.976   8.590 -0.3280  1.8432 -0.4296
  447MOL0     H60306   3.410   5.108   8.643 -1.2341  1.5805 -1.5596
  447MOL0     H60307   3.447   5.554   9.075 -0.4337  0.0052  2.8508
  447MOL0     H60308   3.621   5.678   9.187  0.2802  0.0267  2.3764
  447MOL0     H60309   4.000   5.467   9.274 -0.2861 -0.0948 -0.9180
  447MOL0     H60310   4.045   5.558   9.134  1.5493 -1.0198  0.5199
  447MOL0     H60311   4.016   5.673   9.412 -0.6130  0.7576 -2.0283
  447MOL0     H60312   4.156   5.597   9.368 -1.6601 -2.1059  0.6724
  447MOL0     H60313   4.165   5.757   9.156  3.0608 -0.8326  0.8999
  447MOL0     H60314   4.042   5.853   9.241 -0.7904 -1.2838  0.3143
  447MOL0     H60315   4.278   5.937   9.272  2.1187 -1.3241 -0.0970
  447MOL0     H60316   4.321   5.783   9.343 -0.3603 -0.3230 -1.5862
  447MOL0     H60317   4.182   5.824   9.550  1.1156 -1.8353 -2.2882
  447MOL0     H60318   4.128   5.987   9.481 -0.2386  0.9433 -0.9151
  447MOL0     H60319   4.395   5.878   9.559  0.1628  1.3957  2.2980
  447MOL0     H60320   4.375   6.033   9.470  1.8631 -0.4211  0.8666
  447MOL0     H60321   4.280   5.953   9.757 -0.1967 -0.9214 -0.5227
  447MOL0     H60322   4.218   6.091   9.674 -0.9716 -1.5223  3.2325
  447MOL0     H60323   4.445   6.191   9.658  0.8185 -0.2251 -1.0871
  447MOL0     H60324   4.395   6.151   9.825  3.2741 -0.3748  0.4629
  447MOL0     H60325   3.898   5.353   9.127 -0.3386 -1.0768 -1.1524
  447MOL0     H60326   3.713   5.243   8.980  0.0483  2.0489 -2.0881
  447MOL0     H60327   3.256   5.227   9.014  2.6244  0.0979  0.3213
  447MOL0     H60328   3.051   5.105   8.973  1.3579  1.6038  0.1583
  447MOL0     H60329   1.412   4.422   9.201 -1.3311  0.3111  1.8538
  447MOL0     H60330   1.189   4.352   9.181  2.4611  0.4342  2.2966
  447MOL0     H60331   0.805   4.358   9.126 -0.7368  0.4598  0.1614
  447MOL0     H60332   0.592   4.260   9.137  2.1870  0.2973  1.1531
  447MOL0     H60333   0.316   4.298   8.808 -1.3114  0.8881 -0.7459
  447MOL0     H60334   0.263   4.431   8.913  2.0814  1.7492 -3.0970
  447MOL0     H60335   0.142   4.259   9.043  0.3197 -0.0450  0.0569
  447MOL0     H60336   0.248   4.124   8.989  0.6953 -0.2432 -0.8381
  447MOL0     H60337   0.040   4.089   8.893  1.6449 -1.1239  1.6079
  447MOL0     H60338   0.148   4.137   8.763  0.7674 -3.4132  1.7941
  447MOL0     H60339   0.052   4.380   8.795  0.6643  0.1463 -0.9715
  447MOL0     H60340  -0.067   4.267   8.716 -2.4367 -1.3453  0.9262
  447MOL0     H60341  -0.253   4.286   9.077  1.1121  1.4231  0.6630
  447MOL0     H60342   0.475   4.469   8.778  0.2739 -2.3250 -0.3126
  447MOL0     H60343   0.728   4.684   8.743 -1.9755 -0.2068  0.6427
  447MOL0     H60344   0.781   4.534   8.665  1.7977 -0.4675  2.1417
  447MOL0     H60345   0.614   4.590   8.656  0.7844  0.6604 -1.6746
  448MOL0     O60346   6.819   5.684   5.490 -0.1966 -0.3669  0.0009
  448MOL0     C60347   6.815   5.620   5.595  0.6087  0.1372  0.7958
  448MOL0     O60348   6.919   5.560   5.648 -0.5306  0.0320  0.0597
  448MOL0     C60349   7.039   5.564   5.576  0.6505 -0.7951  0.6108
  448MOL0     C60350   7.060   5.468   5.471  0.5715 -0.2534  0.6651
  448MOL0     C60351   7.159   5.484   5.388 -0.7550  0.8071  0.3101
  448MOL0     C60352   7.237   5.599   5.394  0.7133 -0.4982 -0.6039
  448MOL0     O60353   7.336   5.625   5.306  0.6838  0.0155  0.1948
  448MOL0     C60354   7.334   5.544   5.181 -0.3376 -0.3111  0.2771
  448MOL0     C60355   7.441   5.601   5.096 -0.8605  0.1698  0.5664
  448MOL0     C60356   7.584   5.576   5.140  0.3537  0.5263 -0.7297
  448MOL0     C60357   7.639   5.675   5.248  0.5292  0.2330 -0.2449
  448MOL0     C60358   7.764   5.622   5.304 -0.1301  0.7616 -0.3821
  448MOL0     C60359   7.829   5.724   5.403 -0.0421  0.2883 -0.1000
  448MOL0     C60360   7.984   5.720   5.417  0.4313 -0.2517 -0.5263
  448MOL0     C60361   8.055   5.800   5.305  0.0638 -0.4119 -0.6092
  448MOL0     N60362   8.116   5.916   5.359  0.0881 -0.2911  1.1167
  448MOL0     C60363   8.043   6.014   5.427 -0.3739 -0.2427  0.1678
  448MOL0     C60364   8.144   6.077   5.493  0.3007  0.7975 -0.4614
  448MOL0     C60365   8.118   6.194   5.581  0.2379 -0.8687  0.1854
  448MOL0     C60366   8.152   6.179   5.733 -0.0466  0.1365 -0.1354
  448MOL0     C60367   8.297   6.156   5.741 -0.3965  0.0252 -0.3234
  448MOL0     C60368   8.346   6.152   5.889 -0.3159 -0.2199  0.1749
  448MOL0     O60369   8.324   6.269   5.956 -0.3664 -0.1581  0.1837
  448MOL0     C60370   8.395   6.388   5.935  0.1602 -0.3035 -0.1397
  448MOL0     C60371   8.334   6.501   5.999  0.0404 -0.1307 -0.2527
  448MOL0     C60372   8.395   6.630   5.983 -0.1397  0.3740  0.0236
  448MOL0     C60373   8.519   6.648   5.922 -0.1930 -0.0602  0.0153
  448MOL0     C60374   8.578   6.782   5.919 -0.9121 -0.0102 -0.7727
  448MOL0     O60375   8.715   6.771   5.882 -0.4509 -0.1230  0.2339
  448MOL0     C60376   8.787   6.888   5.860 -0.2726 -1.1005  0.0538
  448MOL0     C60377   8.733   7.006   5.813 -0.9750 -0.3072 -0.2509
  448MOL0     C60378   8.814   7.128   5.803  0.5426 -0.6583 -0.0381
  448MOL0     C60379   8.955   7.123   5.820  0.2083  0.3472 -0.3094
  448MOL0     O60380   9.025   7.242   5.792 -0.1207 -0.7087 -0.9314
  448MOL0     C60381   9.162   7.250   5.817 -0.5429 -0.4960 -0.9060
  448MOL0     C60382   9.189   7.404   5.808  0.3579 -0.3459  0.8027
  448MOL0     C60383   9.327   7.451   5.848  0.4697  0.9603  0.0169
  448MOL0     C60384   9.431   7.343   5.838 -0.6679  0.1025 -0.5979
  448MOL0     C60385   9.573   7.392   5.864  0.6986  0.0738 -0.3159
  448MOL0     C60386   9.631   7.467   5.746 -0.6152  0.0134  1.0237
  448MOL0     C60387   9.782   7.504   5.749 -0.8969  0.4099 -0.6882
  448MOL0     C60388   9.814   7.594   5.874  0.1696  0.1942  0.5655
  448MOL0    Cl60389   9.982   7.628   5.882  0.2747 -0.0369  0.2876
  448MOL0     C60390   9.008   6.994   5.848  0.4191 -0.2043 -0.2174
  448MOL0     C60391   8.925   6.885   5.881  0.4560 -0.2946  0.7817
  448MOL0     O60392   8.525   6.881   5.973  0.5767  0.3217  0.7451
  448MOL0     C60393   8.573   6.531   5.860  0.1173 -0.9205  0.5885
  448MOL0     C60394   8.513   6.401   5.862  0.0560 -0.7824  0.6718
  448MOL0     N60395   8.272   6.028   5.457  0.1091 -0.2764 -0.3051
  448MOL0     N60396   8.244   5.936   5.379 -0.0311 -0.7721 -0.4243
  448MOL0     C60397   7.229   5.689   5.503  0.5269  0.2645  0.0178
  448MOL0     C60398   7.127   5.673   5.596 -0.0364  0.0488  0.6686
  448MOL0     C60399   6.684   5.584   5.648  0.3316 -0.9212 -0.5267
  448MOL0     C60400   6.681   5.530   5.778  0.4390 -0.0627  0.1226
  448MOL0     C60401   6.558   5.487   5.845 -0.8324 -0.7171  0.2243
  448MOL0     C60402   6.440   5.505   5.775  0.3214 -0.1401 -0.0354
  448MOL0     O60403   6.324   5.467   5.845  0.2702 -0.1364 -0.4572
  448MOL0     C60404   6.210   5.549   5.804  0.2917  0.1615 -0.5842
  448MOL0     C60405   6.089   5.534   5.910  0.4094  0.0880  0.1071
  448MOL0     C60406   6.135   5.570   6.050 -0.5636  0.6583 -0.7892
  448MOL0     C60407   6.013   5.569   6.141 -0.7538 -0.1889 -0.7498
  448MOL0     C60408   6.030   5.659   6.258  0.5932  0.2110 -0.9030
  448MOL0     C60409   6.056   5.738   6.346 -0.7331  0.4958  0.0783
  448MOL0     C60410   6.439   5.558   5.644  0.5916  0.1318 -0.0145
  448MOL0     C60411   6.556   5.598   5.583 -0.6780  0.3294  0.3267
  448MOL0     C60412   6.540   5.630   5.435 -0.1543  0.1832 -0.5854
  448MOL0     H60413   6.994   5.382   5.461 -2.2137  1.4245  2.9594
  448MOL0     H60414   7.179   5.402   5.319 -2.4165  1.9618 -1.6784
  448MOL0     H60415   7.349   5.438   5.205  0.2105 -0.3826 -0.3468
  448MOL0     H60416   7.243   5.565   5.124 -0.6229  0.8711  1.1337
  448MOL0     H60417   7.420   5.707   5.085  0.9325  0.4279 -0.7996
  448MOL0     H60418   7.444   5.561   4.994  1.5547  0.2859  0.5431
  448MOL0     H60419   7.649   5.568   5.053  2.3596 -0.3801  0.7677
  448MOL0     H60420   7.580   5.481   5.194 -0.5129  1.7083  1.4339
  448MOL0     H60421   7.658   5.773   5.204  0.0796  0.1612 -0.6027
  448MOL0     H60422   7.564   5.692   5.326  1.2345  3.6391 -0.1124
  448MOL0     H60423   7.745   5.536   5.368  0.4134  0.5506 -0.4965
  448MOL0     H60424   7.836   5.596   5.225  0.1546  1.7227 -0.4549
  448MOL0     H60425   7.808   5.830   5.388  2.2643  1.0407  1.4813
  448MOL0     H60426   7.798   5.699   5.505  0.8643 -1.5697 -0.2324
  448MOL0     H60427   8.018   5.616   5.415  1.9794 -0.0407  3.7323
  448MOL0     H60428   8.012   5.761   5.514  0.1294 -0.7093 -0.2457
  448MOL0     H60429   8.130   5.744   5.248 -0.0954  0.3116 -1.5694
  448MOL0     H60430   7.975   5.836   5.238 -0.5364 -0.3050  0.1565
  448MOL0     H60431   7.940   6.044   5.413  0.4505  1.9085 -2.2580
  448MOL0     H60432   8.187   6.268   5.540  0.7051 -0.1449  2.1499
  448MOL0     H60433   8.014   6.221   5.560  0.5897  0.9857  0.6088
  448MOL0     H60434   8.116   6.268   5.785 -0.3965 -1.0801  1.8216
  448MOL0     H60435   8.099   6.092   5.772  0.0601  0.2501  0.2736
  448MOL0     H60436   8.362   6.231   5.696  2.5271 -2.2226 -0.1571
  448MOL0     H60437   8.338   6.065   5.697  3.3815  1.8650 -1.0335
  448MOL0     H60438   8.452   6.125   5.896 -0.5934 -1.0627  1.4002
  448MOL0     H60439   8.288   6.077   5.944  0.4201 -0.8498  0.1143
  448MOL0     H60440   8.250   6.485   6.066  1.8258 -0.3955  2.0528
  448MOL0     H60441   8.337   6.706   6.036 -2.3934 -1.5429  0.4717
  448MOL0     H60442   8.626   7.008   5.795 -0.9184 -0.9362 -0.7249
  448MOL0     H60443   8.772   7.225   5.775 -0.9297 -1.6893 -1.5644
  448MOL0     H60444   9.186   7.214   5.918  0.5830 -0.1577 -1.0437
  448MOL0     H60445   9.228   7.200   5.747  1.6987  1.0891 -0.0435
  448MOL0     H60446   9.185   7.422   5.700  4.4678 -1.1622  0.3202
  448MOL0     H60447   9.107   7.460   5.853  0.5388  0.0942  0.5859
  448MOL0     H60448   9.360   7.534   5.784  2.6307 -0.4552 -0.8262
  448MOL0     H60449   9.322   7.500   5.945  0.5459 -0.0137  0.5222
  448MOL0     H60450   9.429   7.302   5.737  2.7879  0.2518 -0.8543
  448MOL0     H60451   9.412   7.271   5.919  0.8832  0.5902  0.2369
  448MOL0     H60452   9.638   7.305   5.877  0.4369  0.0194  0.6904
  448MOL0     H60453   9.566   7.461   5.948 -0.8419 -0.1316 -0.2459
  448MOL0     H60454   9.616   7.407   5.656  5.0120  2.2473 -1.9213
  448MOL0     H60455   9.570   7.554   5.719  0.4480  0.0365 -1.5189
  448MOL0     H60456   9.805   7.572   5.666  1.6743 -3.5171 -3.5481
  448MOL0     H60457   9.848   7.418   5.736  2.2771  2.8172 -1.7992
  448MOL0     H60458   9.749   7.682   5.866 -3.2276 -2.1174  0.6441
  448MOL0     H60459   9.780   7.552   5.969 -6.1720 -0.4705 -1.5036
  448MOL0     H60460   9.116   6.984   5.857  0.4644  0.3270 -0.1205
  448MOL0     H60461   8.970   6.789   5.904  1.0706 -1.4851 -4.2352
  448MOL0     H60462   8.666   6.540   5.804 -0.0016 -0.8824  0.3967
  448MOL0     H60463   8.555   6.315   5.810  2.6867  0.4501  0.6435
  448MOL0     H60464   7.291   5.776   5.521  1.0357  0.1407 -1.0351
  448MOL0     H60465   7.098   5.753   5.663 -0.6249  0.5534 -0.1729
  448MOL0     H60466   6.776   5.517   5.830 -0.4579 -1.3528  1.5279
  448MOL0     H60467   6.559   5.448   5.946  0.1869  0.4934  0.7124
  448MOL0     H60468   6.166   5.531   5.706 -1.9873  0.1960  0.3499
  448MOL0     H60469   6.235   5.655   5.810 -2.9690  1.0165  0.1511
  448MOL0     H60470   6.053   5.433   5.893  0.3355  0.2097 -0.4905
  448MOL0     H60471   6.010   5.603   5.879 -0.5895 -0.1675  1.9331
  448MOL0     H60472   6.176   5.672   6.046  1.4085 -0.0413  0.2928
  448MOL0     H60473   6.211   5.498   6.082 -0.1745  0.3338 -2.3748
  448MOL0     H60474   5.931   5.609   6.081  0.2567  2.8598 -0.3041
  448MOL0     H60475   5.985   5.471   6.181 -1.4699  0.3240  0.0468
  448MOL0     H60476   6.080   5.810   6.421  2.4455 -0.5501  0.2319
  448MOL0     H60477   6.345   5.572   5.593  1.0759  4.1671 -0.0861
  448MOL0     H60478   6.435   5.612   5.409 -0.4158 -1.5178  1.3847
  448MOL0     H60479   6.564   5.734   5.410  1.0142  0.2150  0.5732
  448MOL0     H60480   6.601   5.558   5.379 -4.0932 -1.5869 -3.1132
  449MOL0     O60481   0.029   6.747   4.136  0.1558 -0.1043 -0.0637
  449MOL0     C60482  -0.076   6.810   4.153 -0.1172 -0.3027 -0.7175
  449MOL0     O60483  -0.079   6.944   4.196  0.2215  0.2794 -0.1428
  449MOL0     C60484   0.035   7.008   4.245  0.7629  0.1943  0.4283
  449MOL0     C60485   0.058   7.138   4.193 -0.3891 -0.0941 -0.6693
  449MOL0     C60486   0.168   7.212   4.238  0.1309  0.6279  0.2364
  449MOL0     C60487   0.266   7.155   4.312  0.2234  0.1818  0.1117
  449MOL0     O60488   0.366   7.239   4.357  0.3667 -0.1598 -0.2684
  449MOL0     C60489   0.476   7.243   4.274  0.3351  0.2224  0.0802
  449MOL0     C60490   0.595   7.297   4.354 -0.4579 -0.3378 -0.3396
  449MOL0     C60491   0.563   7.435   4.415 -0.0354 -0.1841  0.7932
  449MOL0     C60492   0.688   7.493   4.497  0.1021 -0.2420 -0.3995
  449MOL0     C60493   0.654   7.637   4.546 -0.3551  0.4301 -0.0709
  449MOL0     C60494   0.639   7.632   4.700  0.0708 -0.7346  1.0462
  449MOL0     C60495   0.771   7.610   4.779 -0.4419 -0.0280 -0.5279
  449MOL0     C60496   0.896   7.701   4.742  0.3943 -0.0980  0.1471
  449MOL0     N60497   1.022   7.680   4.824  0.2461  0.1515 -0.0484
  449MOL0     C60498   1.029   7.662   4.957 -1.0477  0.5711 -0.2764
  449MOL0     C60499   1.167   7.653   4.982  0.3625 -0.5849  0.5258
  449MOL0     C60500   1.212   7.626   5.118 -0.4985 -0.2055 -0.0321
  449MOL0     C60501   1.336   7.535   5.115 -0.0884 -0.6127  0.5422
  449MOL0     C60502   1.362   7.493   5.264  0.3575  0.7233  1.0521
  449MOL0     C60503   1.495   7.430   5.299 -0.0836  0.4972  0.5343
  449MOL0     O60504   1.604   7.498   5.238 -0.6663  0.0733  0.4663
  449MOL0     C60505   1.727   7.446   5.254  0.7787 -0.4805  0.2191
  449MOL0     C60506   1.828   7.537   5.209 -0.1403 -0.4067 -0.1140
  449MOL0     C60507   1.960   7.490   5.193  0.7785 -0.3188  0.4770
  449MOL0     C60508   1.996   7.364   5.234 -0.0847  0.1187 -0.4547
  449MOL0     C60509   2.138   7.320   5.230 -1.2000 -0.2612  0.7694
  449MOL0     O60510   2.229   7.418   5.175  0.2677  0.0974  0.3844
  449MOL0     C60511   2.363   7.390   5.149 -0.1131 -0.8501 -0.4540
  449MOL0     C60512   2.404   7.255   5.117 -0.1396 -1.3683 -0.0835
  449MOL0     C60513   2.535   7.232   5.083  0.0171  0.9551 -0.0757
  449MOL0     C60514   2.626   7.329   5.074  0.2621  0.1908  0.1886
  449MOL0     O60515   2.759   7.312   5.027  0.2969 -0.2543  0.1117
  449MOL0     C60516   2.801   7.186   4.974  0.1817 -0.7008 -0.3682
  449MOL0     C60517   2.865   7.095   5.078 -0.6116 -0.0692 -0.8500
  449MOL0     C60518   2.913   6.971   5.004  0.5784  0.4318 -0.0136
  449MOL0     C60519   2.995   6.876   5.095 -0.5237  0.6539 -0.0910
  449MOL0     C60520   3.003   6.734   5.031 -0.5333  0.4592 -0.0154
  449MOL0     C60521   3.058   6.734   4.879 -0.1110  0.5005 -0.3990
  449MOL0     C60522   3.061   6.586   4.827 -0.3077  0.1142 -0.6010
  449MOL0     C60523   3.097   6.570   4.685  0.2682 -0.7071  1.3746
  449MOL0    Cl60524   3.265   6.643   4.644 -0.1674  0.2685 -0.0637
  449MOL0     C60525   2.600   7.463   5.119  0.1123  1.0924  0.5352
  449MOL0     C60526   2.461   7.488   5.155 -0.2047 -0.2940 -0.1412
  449MOL0     O60527   2.172   7.210   5.278 -0.0900 -1.1105 -0.6784
  449MOL0     C60528   1.895   7.286   5.296  0.2283 -0.2747  0.3446
  449MOL0     C60529   1.766   7.323   5.304 -0.3688  0.1960 -0.9633
  449MOL0     N60530   1.233   7.679   4.863  0.4694 -0.2883  0.2543
  449MOL0     N60531   1.144   7.686   4.769  0.8448 -0.3495  0.4244
  449MOL0     C60532   0.258   7.020   4.336  0.3247 -0.5936  0.1856
  449MOL0     C60533   0.136   6.951   4.314 -1.2898 -0.1704 -0.4590
  449MOL0     C60534  -0.214   6.749   4.130 -0.2994 -0.3819  1.1647
  449MOL0     C60535  -0.318   6.828   4.077 -0.2274 -0.3470  0.1062
  449MOL0     C60536  -0.447   6.782   4.053  0.7001  0.3125  0.3430
  449MOL0     C60537  -0.482   6.650   4.079 -0.3641  1.0047 -0.8536
  449MOL0     O60538  -0.614   6.607   4.063 -0.1865 -0.2875 -0.1703
  449MOL0     C60539  -0.665   6.504   4.156 -0.4763  0.0994 -0.0404
  449MOL0     C60540  -0.804   6.475   4.122 -0.1073 -0.5172  0.0399
  449MOL0     C60541  -0.896   6.598   4.129 -0.4024  0.5969 -0.8354
  449MOL0     C60542  -1.033   6.548   4.097  0.4668  0.1081  0.6926
  449MOL0     C60543  -1.125   6.654   4.108  0.1816 -0.6381 -0.3070
  449MOL0     C60544  -1.204   6.748   4.120 -0.1928  0.2915  0.0479
  449MOL0     C60545  -0.374   6.569   4.118 -0.1306  1.0576 -0.9886
  449MOL0     C60546  -0.243   6.616   4.146 -0.8082 -0.1857 -0.0805
  449MOL0     C60547  -0.151   6.517   4.208 -0.6532  0.3779 -0.2493
  449MOL0     H60548  -0.020   7.182   4.131 -1.4100  0.4255  0.9254
  449MOL0     H60549   0.184   7.315   4.209  4.2357  0.5355  1.4748
  449MOL0     H60550   0.497   7.144   4.231  0.2259  0.5691 -0.8024
  449MOL0     H60551   0.447   7.317   4.199  0.3045  0.1739  0.0439
  449MOL0     H60552   0.686   7.296   4.293  0.5604  0.5081  1.1088
  449MOL0     H60553   0.617   7.227   4.436 -2.0105  0.0337  0.4151
  449MOL0     H60554   0.474   7.427   4.477 -0.1735  1.4745  0.8672
  449MOL0     H60555   0.533   7.501   4.332  0.3595 -1.0627 -0.0667
  449MOL0     H60556   0.715   7.427   4.580 -0.4607 -0.1477 -0.1309
  449MOL0     H60557   0.778   7.503   4.437  0.2193 -1.2417 -0.4158
  449MOL0     H60558   0.734   7.706   4.520  0.1399  0.7227  2.0629
  449MOL0     H60559   0.558   7.665   4.501 -1.3319  0.6677  2.0135
  449MOL0     H60560   0.605   7.731   4.732 -0.5684  0.0818 -1.8632
  449MOL0     H60561   0.567   7.551   4.715 -0.3444 -0.8172 -1.0661
  449MOL0     H60562   0.794   7.505   4.757 -0.3038  0.4410 -2.8916
  449MOL0     H60563   0.751   7.617   4.886  0.5444 -1.9395 -0.1566
  449MOL0     H60564   0.921   7.694   4.636  0.8985  2.4856  0.0305
  449MOL0     H60565   0.862   7.803   4.758 -4.7230 -1.6994  1.4747
  449MOL0     H60566   0.952   7.655   5.033  0.6008 -0.2089  1.3960
  449MOL0     H60567   1.248   7.712   5.176  2.2702 -0.4304 -1.2438
  449MOL0     H60568   1.134   7.579   5.179  0.2004  0.2207  1.2318
  449MOL0     H60569   1.314   7.441   5.063 -0.2823 -1.2689  1.7757
  449MOL0     H60570   1.424   7.581   5.070 -1.3067  1.8881  0.5743
  449MOL0     H60571   1.286   7.420   5.295  1.6003 -1.8457 -1.4337
  449MOL0     H60572   1.356   7.583   5.326  1.0031  0.3911  1.6158
  449MOL0     H60573   1.488   7.332   5.251 -0.7542  2.4583 -3.8703
  449MOL0     H60574   1.507   7.433   5.408 -0.1908  3.4739  0.5522
  449MOL0     H60575   1.794   7.640   5.201  0.3794 -0.2820 -0.8023
  449MOL0     H60576   2.038   7.562   5.170  0.7360  0.0008  1.2915
  449MOL0     H60577   2.327   7.180   5.104 -2.5454  0.9808 -0.1709
  449MOL0     H60578   2.550   7.129   5.050  0.2239  1.0621 -0.3160
  449MOL0     H60579   2.710   7.136   4.939 -0.8655  0.7597  0.1897
  449MOL0     H60580   2.864   7.213   4.888  1.3010  2.1882  1.2142
  449MOL0     H60581   2.947   7.148   5.127 -1.8326 -0.7396  2.1289
  449MOL0     H60582   2.785   7.083   5.152  0.4140 -0.2798  0.2541
  449MOL0     H60583   2.825   6.919   4.966  1.0092 -1.6956  1.7329
  449MOL0     H60584   2.964   7.001   4.912  0.4283 -0.8037 -0.5072
  449MOL0     H60585   2.959   6.867   5.198  0.5130 -0.4420  0.1973
  449MOL0     H60586   3.095   6.916   5.116 -1.1766  0.2451  4.8611
  449MOL0     H60587   2.904   6.688   5.033 -0.6159  0.5148 -1.5501
  449MOL0     H60588   3.067   6.671   5.093 -2.5824 -0.7793  0.9441
  449MOL0     H60589   2.994   6.803   4.823  0.9272  3.1966  1.5523
  449MOL0     H60590   3.152   6.789   4.876  1.1260 -1.1727  2.8009
  449MOL0     H60591   2.967   6.531   4.833 -0.6807  0.7436 -0.6159
  449MOL0     H60592   3.146   6.540   4.877 -0.3943  2.0365  1.4724
  449MOL0     H60593   3.102   6.462   4.665 -0.9593 -0.8644  1.7969
  449MOL0     H60594   3.016   6.612   4.625  0.5179  0.9846  2.1770
  449MOL0     H60595   2.674   7.541   5.138 -0.8303  1.3431  3.9164
  449MOL0     H60596   2.432   7.588   5.186 -0.0787 -0.0090 -0.9209
  449MOL0     H60597   1.918   7.196   5.353 -1.8193 -1.0646  0.0199
  449MOL0     H60598   1.704   7.244   5.346  3.6851 -2.1430  1.2123
  449MOL0     H60599   0.340   6.973   4.388 -0.7120 -0.0834  2.4278
  449MOL0     H60600   0.131   6.849   4.352 -0.3495 -1.0431 -2.5239
  449MOL0     H60601  -0.291   6.930   4.048 -1.4733 -0.2984 -0.9546
  449MOL0     H60602  -0.524   6.852   4.023 -2.8325 -1.7943  3.4450
  449MOL0     H60603  -0.656   6.541   4.259  0.0328  3.0434 -1.0407
  449MOL0     H60604  -0.617   6.406   4.148  1.0564  0.9120 -1.5147
  449MOL0     H60605  -0.844   6.398   4.189  1.2671  0.6369  2.3161
  449MOL0     H60606  -0.808   6.425   4.025 -3.4168 -2.1184  0.8525
  449MOL0     H60607  -0.872   6.681   4.062 -1.5167  1.5359 -0.1147
  449MOL0     H60608  -0.897   6.630   4.233 -1.3852  2.5644 -1.3882
  449MOL0     H60609  -1.033   6.501   3.998 -1.3611  2.8375 -0.7274
  449MOL0     H60610  -1.071   6.474   4.169 -0.4631  1.2017  1.3640
  449MOL0     H60611  -1.283   6.820   4.119 -0.3627  0.2717  3.4380
  449MOL0     H60612  -0.396   6.464   4.134  1.0024  1.2349  2.5036
  449MOL0     H60613  -0.121   6.566   4.300 -0.9412 -1.3235  0.7896
  449MOL0     H60614  -0.212   6.430   4.236 -2.4143  1.6897  0.2196
  449MOL0     H60615  -0.070   6.487   4.142 -2.9803 -2.4369 -2.1230
  450MOL0     O60616   7.998   3.409   8.593  0.3271  0.2667 -0.1900
  450MOL0     C60617   7.963   3.462   8.488 -0.0491 -0.1631  0.2799
  450MOL0     O60618   8.017   3.425   8.368 -0.2346 -0.2888  0.1423
  450MOL0     C60619   8.142   3.359   8.372 -0.1373  0.3821  0.6248
  450MOL0     C60620   8.163   3.236   8.310 -0.7381 -0.4990 -0.9616
  450MOL0     C60621   8.294   3.187   8.309  0.4734 -0.5795  0.2341
  450MOL0     C60622   8.399   3.254   8.364  0.5571 -0.1788 -0.1910
  450MOL0     O60623   8.525   3.194   8.379 -0.2389 -0.1238  0.6602
  450MOL0     C60624   8.542   3.125   8.502 -0.1876 -0.7808 -0.0957
  450MOL0     C60625   8.601   3.216   8.617 -0.0335  0.6455 -0.3190
  450MOL0     C60626   8.651   3.132   8.740  0.2321 -0.5161  0.5637
  450MOL0     C60627   8.766   3.194   8.816 -0.0592 -0.5666  0.0834
  450MOL0     C60628   8.825   3.106   8.931  0.0290 -0.6590 -0.0941
  450MOL0     C60629   8.962   3.153   8.992 -0.5264  0.9138  0.3675
  450MOL0     C60630   8.979   3.300   9.035 -0.7252  0.2674 -0.6603
  450MOL0     C60631   8.901   3.324   9.166  0.6553  0.0160 -0.0585
  450MOL0     N60632   8.925   3.457   9.224 -0.3257  0.0126 -0.3670
  450MOL0     C60633   8.977   3.481   9.356 -0.5858 -0.2946  0.5787
  450MOL0     C60634   8.948   3.613   9.368 -1.2755 -0.2444  1.1461
  450MOL0     C60635   8.979   3.711   9.483 -0.5181 -0.7259 -0.3774
  450MOL0     C60636   9.105   3.666   9.564 -0.4279 -0.5418  0.4041
  450MOL0     C60637   9.130   3.767   9.677 -0.0746  0.8520 -0.2295
  450MOL0     C60638   9.247   3.738   9.767  0.8189  0.8048  0.2452
  450MOL0     O60639   9.357   3.728   9.669 -0.7761  0.4073 -0.1087
  450MOL0     C60640   9.479   3.692   9.720  0.3168 -0.0751 -0.1138
  450MOL0     C60641   9.575   3.640   9.636  0.1629 -0.1563  0.7736
  450MOL0     C60642   9.700   3.608   9.682  0.4785 -0.3633 -0.7944
  450MOL0     C60643   9.745   3.621   9.813 -0.2141  0.2440  0.0851
  450MOL0     C60644   9.885   3.589   9.852  1.5478 -0.6870  0.1622
  450MOL0     O60645   9.926   3.655   9.972  1.1866  0.1893  0.0615
  450MOL0     C60646  10.055   3.646  10.007 -0.1017 -0.1267 -0.4676
  450MOL0     C60647  10.139   3.747   9.961  0.5635  0.2070  0.0276
  450MOL0     C60648  10.278   3.732   9.962 -0.4279  0.0984 -0.3935
  450MOL0     C60649  10.330   3.616  10.019  0.5752  0.1795  0.2062
  450MOL0     O60650  10.464   3.606  10.026 -0.4382  0.3609 -0.0567
  450MOL0     C60651  10.540   3.567  10.145 -1.2267  0.7997  0.0663
  450MOL0     C60652  10.693   3.569  10.120 -0.9105  0.2406 -0.9174
  450MOL0     C60653  10.750   3.713  10.113 -0.3136  0.2281 -1.0521
  450MOL0     C60654  10.900   3.712  10.077 -0.2175 -0.9146  0.4426
  450MOL0     C60655  10.944   3.857  10.083  0.4563 -0.6370 -0.2987
  450MOL0     C60656  11.093   3.876  10.070 -0.9566  0.1736 -0.3886
  450MOL0     C60657  11.136   4.014  10.037  0.0933 -0.4416 -0.3638
  450MOL0     C60658  11.285   4.028  10.074 -0.7695 -0.4151 -0.0332
  450MOL0    Cl60659  11.382   3.903   9.960 -0.3230 -0.6076  0.1055
  450MOL0     C60660  10.243   3.517  10.084 -0.0105 -0.9494 -0.2541
  450MOL0     C60661  10.112   3.535  10.075 -0.0013  0.0708 -0.1703
  450MOL0     O60662   9.962   3.529   9.775  0.0475  0.0833 -0.0813
  450MOL0     C60663   9.651   3.681   9.896 -0.3968  0.5399  0.4044
  450MOL0     C60664   9.514   3.689   9.855  0.8302 -0.6723 -0.1705
  450MOL0     N60665   8.896   3.661   9.251  0.3972  0.2754 -0.5749
  450MOL0     N60666   8.876   3.567   9.172  0.1606 -0.0282  0.2578
  450MOL0     C60667   8.375   3.377   8.414 -0.1841  0.3124 -0.4033
  450MOL0     C60668   8.250   3.432   8.418  0.1415 -0.0534  0.0766
  450MOL0     C60669   7.848   3.553   8.494  0.2231 -1.0031 -0.0198
  450MOL0     C60670   7.781   3.583   8.373  0.5232  0.0165 -0.8408
  450MOL0     C60671   7.673   3.672   8.367  0.8156  0.2237  0.2899
  450MOL0     C60672   7.616   3.728   8.480  0.1992  0.7922 -0.4804
  450MOL0     O60673   7.515   3.818   8.465  0.5402 -0.6219 -0.2890
  450MOL0     C60674   7.392   3.762   8.410 -0.8500  0.3465 -0.0422
  450MOL0     C60675   7.319   3.706   8.539  0.2076  0.4107  0.4678
  450MOL0     C60676   7.295   3.807   8.654  0.4685 -0.1398 -0.1102
  450MOL0     C60677   7.201   3.753   8.761 -0.5677 -0.8490 -0.0348
  450MOL0     C60678   7.229   3.615   8.810 -0.3090 -0.4107  0.6064
  450MOL0     C60679   7.253   3.500   8.832  0.4174 -0.4799  0.2478
  450MOL0     C60680   7.673   3.690   8.604  0.1712  0.2285 -0.1956
  450MOL0     C60681   7.781   3.607   8.612 -0.3471  0.1591 -0.6605
  450MOL0     C60682   7.832   3.556   8.753 -0.2575 -0.2858 -1.3167
  450MOL0     H60683   8.074   3.189   8.270 -2.4019  1.8079 -0.1695
  450MOL0     H60684   8.305   3.087   8.269  1.7038 -0.4730  0.2668
  450MOL0     H60685   8.455   3.064   8.529 -0.2293 -2.2179 -3.0858
  450MOL0     H60686   8.622   3.056   8.474 -0.2228 -0.1489 -1.8796
  450MOL0     H60687   8.531   3.294   8.647 -0.2754  0.1231  0.5153
  450MOL0     H60688   8.689   3.271   8.581  0.6267 -0.2013 -0.0409
  450MOL0     H60689   8.694   3.042   8.694  3.8770  1.9690 -1.3649
  450MOL0     H60690   8.569   3.108   8.809 -1.0118 -0.9917 -1.0131
  450MOL0     H60691   8.843   3.220   8.743 -1.3209 -1.2669 -1.5652
  450MOL0     H60692   8.736   3.293   8.851 -1.0540 -0.4082 -1.1714
  450MOL0     H60693   8.755   3.104   9.014  0.2890  0.3445  0.1624
  450MOL0     H60694   8.829   3.006   8.886  0.8511 -0.1146 -1.3041
  450MOL0     H60695   8.995   3.088   9.074 -0.6952 -0.7809 -0.8588
  450MOL0     H60696   9.030   3.131   8.910 -2.7559  1.3399 -1.7043
  450MOL0     H60697   8.957   3.370   8.954 -2.0654  2.6078  1.5609
  450MOL0     H60698   9.083   3.318   9.065 -0.9108 -0.6518  0.6003
  450MOL0     H60699   8.795   3.301   9.147 -0.4617  2.5306  2.4211
  450MOL0     H60700   8.940   3.256   9.242  2.9394  3.1151  1.7558
  450MOL0     H60701   9.022   3.403   9.416  2.1019  1.1659  0.6164
  450MOL0     H60702   8.998   3.811   9.444  2.2120 -1.3628 -0.9259
  450MOL0     H60703   8.897   3.724   9.554  0.7695  1.0265  0.8603
  450MOL0     H60704   9.104   3.567   9.612  4.0867 -1.4812 -0.8897
  450MOL0     H60705   9.199   3.656   9.509  0.1273 -1.4110  1.4512
  450MOL0     H60706   9.041   3.779   9.739 -1.1768 -0.4047 -1.4925
  450MOL0     H60707   9.158   3.864   9.634 -0.9063  2.1040  1.9126
  450MOL0     H60708   9.233   3.653   9.835 -1.0688  1.2596  0.4857
  450MOL0     H60709   9.259   3.824   9.833 -3.0116  1.1340  0.7542
  450MOL0     H60710   9.542   3.629   9.533  0.3146 -0.8834  0.7931
  450MOL0     H60711   9.765   3.580   9.599  0.8280  0.7602 -0.9237
  450MOL0     H60712  10.086   3.826   9.909 -1.0312  0.2311  1.5922
  450MOL0     H60713  10.351   3.807   9.934  0.4857 -0.1484  1.2058
  450MOL0     H60714  10.522   3.630  10.233  1.8497  2.2693 -0.2529
  450MOL0     H60715  10.522   3.462  10.171  0.6930 -0.1832 -2.1858
  450MOL0     H60716  10.741   3.497  10.186 -0.4147  1.2497 -0.1502
  450MOL0     H60717  10.712   3.520  10.024  1.0981  0.5761 -0.7306
  450MOL0     H60718  10.693   3.776  10.044 -2.1752  0.7368  0.8775
  450MOL0     H60719  10.731   3.747  10.215 -2.2725 -0.8957 -0.9941
  450MOL0     H60720  10.915   3.684   9.972  2.1619  1.6288 -0.0297
  450MOL0     H60721  10.967   3.648  10.134  3.3030 -0.3353 -2.6824
  450MOL0     H60722  10.915   3.905  10.177  1.4873  0.4382 -0.5063
  450MOL0     H60723  10.905   3.918  10.001  4.0423  0.1440 -1.6147
  450MOL0     H60724  11.128   3.843  10.168 -0.5217  1.0804 -0.2325
  450MOL0     H60725  11.127   3.810   9.990 -0.5303  0.2974 -0.3101
  450MOL0     H60726  11.081   4.088  10.096  1.7551 -1.3924  2.6048
  450MOL0     H60727  11.120   4.025   9.929  1.4621 -2.5292 -0.8301
  450MOL0     H60728  11.326   4.126  10.049  0.9724 -0.6350  1.7042
  450MOL0     H60729  11.294   4.000  10.179 -2.1646  0.6820  0.4079
  450MOL0     H60730  10.278   3.428  10.136  1.2329  1.1325  2.7444
  450MOL0     H60731  10.042   3.457  10.101  1.1955 -1.1721 -0.5898
  450MOL0     H60732   9.669   3.696  10.002 -1.6284 -1.7771  1.0037
  450MOL0     H60733   9.442   3.712   9.933  0.4227 -1.1929 -0.3869
  450MOL0     H60734   8.458   3.435   8.453  1.8905 -2.4468 -0.4626
  450MOL0     H60735   8.253   3.539   8.438  1.3552 -0.1296  0.3615
  450MOL0     H60736   7.822   3.545   8.279 -0.6902  0.4569 -1.5708
  450MOL0     H60737   7.633   3.691   8.268 -0.0885  0.2963  0.6576
  450MOL0     H60738   7.420   3.675   8.349  0.3161 -0.4723  1.5482
  450MOL0     H60739   7.333   3.827   8.345 -0.1984 -1.1285 -2.2359
  450MOL0     H60740   7.379   3.619   8.570 -0.5288  0.0972  1.0499
  450MOL0     H60741   7.227   3.660   8.501  1.5730 -1.4203 -0.8242
  450MOL0     H60742   7.257   3.903   8.618 -1.1491 -0.0723  1.6273
  450MOL0     H60743   7.394   3.826   8.696  1.2931  0.3574 -2.1348
  450MOL0     H60744   7.210   3.827   8.842 -1.0442 -0.2434 -0.5312
  450MOL0     H60745   7.106   3.760   8.709 -0.3592  0.0966 -0.2987
  450MOL0     H60746   7.271   3.394   8.830 -0.6457 -0.6791 -2.5642
  450MOL0     H60747   7.636   3.743   8.691  1.2809  0.1747  0.3197
  450MOL0     H60748   7.932   3.597   8.771 -0.4020  1.6943 -4.3248
  450MOL0     H60749   7.780   3.609   8.834  0.3025  1.2405 -1.9122
  450MOL0     H60750   7.834   3.448   8.768  1.9486 -0.1028  0.1731
  451MOL0     O60751   0.425  10.089   7.777  0.6094  0.1383  1.1431
  451MOL0     C60752   0.342  10.053   7.858 -0.2678 -0.3571  0.7338
  451MOL0     O60753   0.365  10.011   7.980 -0.2304  0.5170 -0.7358
  451MOL0     C60754   0.503   9.989   7.999 -0.3592 -0.3873 -0.2964
  451MOL0     C60755   0.589  10.087   8.053  0.3954  0.0823  0.1785
  451MOL0     C60756   0.725  10.062   8.067  0.8567 -0.2321 -0.8171
  451MOL0     C60757   0.781   9.943   8.004  0.6132 -0.1397 -0.3315
  451MOL0     O60758   0.917   9.917   8.000  0.0289 -0.6149 -0.7133
  451MOL0     C60759   0.979   9.846   7.887 -0.6829 -0.0982  0.4046
  451MOL0     C60760   1.132   9.837   7.894  0.4998  0.0451 -0.0061
  451MOL0     C60761   1.192   9.975   7.865  0.6178  0.0638  0.2141
  451MOL0     C60762   1.330   9.971   7.913 -0.6530 -0.3659  0.0521
  451MOL0     C60763   1.397  10.110   7.921  0.4426  0.0763  0.5165
  451MOL0     C60764   1.547  10.101   7.936 -0.2222 -0.7201 -0.8114
  451MOL0     C60765   1.613  10.243   7.939 -0.3982 -0.9557 -0.7490
  451MOL0     C60766   1.766  10.233   7.925 -0.0358  0.5817  0.9921
  451MOL0     N60767   1.813  10.196   7.791 -0.0030  0.9954 -0.2532
  451MOL0     C60768   1.847  10.072   7.750  0.2316  0.2043 -0.3026
  451MOL0     C60769   1.894  10.093   7.625 -0.5819 -0.5543  0.4016
  451MOL0     C60770   1.959   9.989   7.544 -0.5030  0.3931  0.1229
  451MOL0     C60771   2.104   9.986   7.552 -0.2954 -0.9766 -0.1055
  451MOL0     C60772   2.158  10.104   7.458  0.2966 -0.4398  0.0453
  451MOL0     C60773   2.307  10.140   7.487  0.3249  0.7097 -0.0932
  451MOL0     O60774   2.397  10.030   7.464  0.6471 -0.2728 -0.9211
  451MOL0     C60775   2.531  10.042   7.501  0.0582  0.1104  0.2599
  451MOL0     C60776   2.596  10.161   7.525 -0.7641 -0.2994 -0.2804
  451MOL0     C60777   2.741  10.162   7.531 -1.1929 -0.7421 -0.2635
  451MOL0     C60778   2.821  10.046   7.505  0.9010 -0.5996 -0.2540
  451MOL0     C60779   2.965  10.049   7.503  0.2896 -0.1602  0.5983
  451MOL0     O60780   3.043   9.944   7.467  0.5193  0.1168  0.1450
  451MOL0     C60781   3.172   9.966   7.494  0.1886 -0.0976  0.3685
  451MOL0     C60782   3.241   9.937   7.610 -0.1806 -0.4360  0.5023
  451MOL0     C60783   3.382   9.945   7.615 -0.1810  0.1158  0.2350
  451MOL0     C60784   3.460   9.990   7.508  0.7005 -0.4039  0.2077
  451MOL0     O60785   3.598   9.982   7.507 -0.3653 -0.4773 -0.1128
  451MOL0     C60786   3.661   9.941   7.625  0.4021  0.1170 -0.1546
  451MOL0     C60787   3.814   9.959   7.611  0.1721  0.4327 -0.4388
  451MOL0     C60788   3.882   9.823   7.593 -0.4995  0.1001 -0.0988
  451MOL0     C60789   4.011   9.855   7.517  0.2362  0.1146 -0.4415
  451MOL0     C60790   4.105   9.738   7.503 -0.6834 -0.2844  0.5865
  451MOL0     C60791   4.213   9.781   7.405 -0.1307 -0.6506 -1.1875
  451MOL0     C60792   4.300   9.657   7.378 -0.7306  0.2952 -0.0699
  451MOL0     C60793   4.376   9.669   7.237 -0.1812  0.3741  0.3556
  451MOL0    Cl60794   4.488   9.800   7.253 -0.3601  0.0086 -0.1200
  451MOL0     C60795   3.387  10.016   7.391 -0.4035  0.5554 -0.4065
  451MOL0     C60796   3.251  10.005   7.383  0.4625  0.9931 -0.0412
  451MOL0     O60797   3.009  10.156   7.537 -0.1900  0.4944 -0.5519
  451MOL0     C60798   2.738   9.927   7.487 -0.7532 -0.1258  0.0969
  451MOL0     C60799   2.599   9.933   7.476 -0.0986  1.1407 -0.4746
  451MOL0     N60800   1.880  10.226   7.590 -0.2746  0.0021  1.3510
  451MOL0     N60801   1.836  10.288   7.694 -0.5410  0.3450  0.6284
  451MOL0     C60802   0.688   9.849   7.942 -0.1970  0.1491  0.6294
  451MOL0     C60803   0.551   9.868   7.954 -0.3347 -0.1155 -0.0063
  451MOL0     C60804   0.199  10.048   7.825  0.3755  0.8491  0.6953
  451MOL0     C60805   0.107   9.971   7.904 -0.4975 -0.1556 -0.6746
  451MOL0     C60806  -0.027   9.952   7.868  0.1768 -1.2544 -0.1014
  451MOL0     C60807  -0.073  10.006   7.752 -0.6196 -0.5324 -0.9428
  451MOL0     O60808  -0.196   9.992   7.702  0.4450  0.0309  0.8551
  451MOL0     C60809  -0.299   9.917   7.777  0.3765  0.0633 -0.1325
  451MOL0     C60810  -0.436   9.943   7.715  0.2357 -0.4069 -0.4476
  451MOL0     C60811  -0.479  10.085   7.706 -0.4023 -0.7675 -0.6914
  451MOL0     C60812  -0.611  10.097   7.638  0.6398  0.3558 -0.2871
  451MOL0     C60813  -0.722  10.043   7.719  0.1520 -0.2044  0.1052
  451MOL0     C60814  -0.811  10.000   7.788 -0.5107  0.1629  1.2081
  451MOL0     C60815   0.004  10.087   7.675  0.6835 -0.6663  0.0407
  451MOL0     C60816   0.142  10.112   7.709  0.2898 -1.1674  0.2194
  451MOL0     C60817   0.207  10.211   7.614 -0.7378  0.4435 -0.0558
  451MOL0     H60818   0.538  10.178   8.084  1.6562  0.6203  0.7324
  451MOL0     H60819   0.790  10.135   8.115  1.7780 -1.5164 -0.0528
  451MOL0     H60820   0.939   9.744   7.880 -1.2686  0.2396 -1.7466
  451MOL0     H60821   0.943   9.898   7.798  0.3770 -3.0852 -1.9331
  451MOL0     H60822   1.167   9.755   7.831  0.5469  0.8534 -1.0687
  451MOL0     H60823   1.153   9.807   7.997  0.0487  3.2336  1.1092
  451MOL0     H60824   1.130  10.059   7.896 -0.1323 -0.7235  0.9033
  451MOL0     H60825   1.199  10.001   7.759 -2.4435 -2.7497 -0.8726
  451MOL0     H60826   1.340   9.924   8.012  2.7937  0.4601  0.2313
  451MOL0     H60827   1.386   9.908   7.844 -0.5888 -1.0316  0.6962
  451MOL0     H60828   1.370  10.177   7.839 -1.8469  0.2111  1.3086
  451MOL0     H60829   1.352  10.163   8.006 -1.4439 -1.2391  0.3941
  451MOL0     H60830   1.575  10.051   8.030  1.4516 -0.5614 -1.1955
  451MOL0     H60831   1.597  10.040   7.861  0.2915 -2.1916  0.6764
  451MOL0     H60832   1.586  10.283   8.037 -2.2156  1.1201 -2.0115
  451MOL0     H60833   1.581  10.318   7.867 -3.9421  0.3056  1.8577
  451MOL0     H60834   1.811  10.331   7.942  2.9505 -0.6100  0.5550
  451MOL0     H60835   1.803  10.158   7.996 -1.6084 -1.9027 -0.6376
  451MOL0     H60836   1.839   9.987   7.817  0.1536  1.7913  1.8061
  451MOL0     H60837   1.923   9.887   7.555  0.3882 -0.1428 -1.5672
  451MOL0     H60838   1.932  10.006   7.439 -0.4889 -3.4315 -0.6353
  451MOL0     H60839   2.131  10.020   7.652  0.6934  1.0433 -1.0024
  451MOL0     H60840   2.134   9.888   7.515 -1.8253 -1.1395 -1.0217
  451MOL0     H60841   2.106  10.200   7.467  1.0194 -0.1060  0.8485
  451MOL0     H60842   2.141  10.079   7.353  2.5648 -1.7057 -0.0768
  451MOL0     H60843   2.324  10.174   7.590  1.8844  0.5318 -0.2635
  451MOL0     H60844   2.343  10.217   7.418  1.0299  0.5898  0.1309
  451MOL0     H60845   2.555  10.257   7.555 -0.5030 -0.8910  2.2062
  451MOL0     H60846   2.792  10.257   7.547  0.3858 -1.2586 -1.8623
  451MOL0     H60847   3.185   9.896   7.693  0.9523  1.7462  2.4514
  451MOL0     H60848   3.437   9.923   7.706 -0.4582 -1.3676  0.0739
  451MOL0     H60849   3.629  10.001   7.710  1.8406  2.3496 -1.1005
  451MOL0     H60850   3.632   9.836   7.630 -0.0668 -0.0456 -3.6430
  451MOL0     H60851   3.844  10.032   7.534  0.9329  4.4029  3.2467
  451MOL0     H60852   3.852   9.986   7.710 -1.2370 -1.0917  0.5523
  451MOL0     H60853   3.892   9.790   7.697 -1.4275 -0.0440 -0.0447
  451MOL0     H60854   3.830   9.750   7.531  1.8415 -0.5005 -1.4691
  451MOL0     H60855   4.055   9.943   7.565  0.2916  0.0416 -0.3603
  451MOL0     H60856   3.985   9.890   7.416  0.2823  0.1565 -0.4392
  451MOL0     H60857   4.051   9.653   7.460  0.7478 -1.2170  0.5897
  451MOL0     H60858   4.155   9.697   7.592 -0.2089 -1.9881 -0.4235
  451MOL0     H60859   4.166   9.810   7.310 -0.5624  2.5925 -0.1261
  451MOL0     H60860   4.263   9.870   7.443 -0.8336 -0.7588  0.0394
  451MOL0     H60861   4.231   9.572   7.383 -1.2096  0.6880  0.1191
  451MOL0     H60862   4.380   9.658   7.453  0.5109 -0.4174 -1.3330
  451MOL0     H60863   4.442   9.584   7.217 -1.9357 -0.8082 -0.6957
  451MOL0     H60864   4.309   9.683   7.152 -0.4460 -0.3009  0.4480
  451MOL0     H60865   3.448  10.045   7.307 -0.2402 -1.8741 -1.2220
  451MOL0     H60866   3.204  10.025   7.288  1.0716  0.4756 -0.4630
  451MOL0     H60867   2.772   9.828   7.458  3.0598  1.0378  0.0443
  451MOL0     H60868   2.554   9.837   7.454  3.2885 -0.4031 -1.3659
  451MOL0     H60869   0.715   9.750   7.906 -0.8770 -0.7809  2.5304
  451MOL0     H60870   0.487   9.792   7.911  2.1782 -1.3337 -1.8720
  451MOL0     H60871   0.138   9.927   7.999 -2.2126  2.0277  0.9999
  451MOL0     H60872  -0.086   9.903   7.944  1.0163 -1.7047  0.2710
  451MOL0     H60873  -0.296   9.962   7.877 -1.2956  2.1245 -0.9093
  451MOL0     H60874  -0.285   9.809   7.787 -1.8172 -0.1721  0.9945
  451MOL0     H60875  -0.504   9.886   7.779  1.0236  0.1865  0.9803
  451MOL0     H60876  -0.434   9.885   7.622 -1.3628  0.1772 -0.8663
  451MOL0     H60877  -0.408  10.143   7.645  0.0589  0.3704  0.8627
  451MOL0     H60878  -0.475  10.128   7.806  3.3609 -1.7377 -0.2725
  451MOL0     H60879  -0.619  10.200   7.603 -0.9397 -0.2260 -1.7560
  451MOL0     H60880  -0.599  10.033   7.550  2.7126 -1.2599  1.0768
  451MOL0     H60881  -0.900   9.984   7.844 -0.7611  1.6529  1.2941
  451MOL0     H60882  -0.048  10.136   7.594  0.9427  0.9671  0.8222
  451MOL0     H60883   0.235  10.149   7.528  3.3740  0.3871  1.1064
  451MOL0     H60884   0.138  10.290   7.584 -1.8426 -1.5274 -3.2010
  451MOL0     H60885   0.309  10.235   7.647  0.6243 -0.6301 -3.0604
  452MOL0     O60886  10.086   7.579   8.082 -0.0509  0.0707 -0.1377
  452MOL0     C60887  10.106   7.666   8.171 -0.6845  0.3265  0.4767
  452MOL0     O60888  10.214   7.752   8.165  0.5790 -0.3482  0.0673
  452MOL0     C60889  10.300   7.737   8.064  0.4511 -0.5390  0.3590
  452MOL0     C60890  10.382   7.633   8.053  0.1410 -0.3600 -0.1044
  452MOL0     C60891  10.475   7.618   7.946  1.5177 -0.9903 -0.2296
  452MOL0     C60892  10.479   7.721   7.846  0.2679 -0.8365 -0.6370
  452MOL0     O60893  10.582   7.723   7.751  0.3951  0.7065 -0.5563
  452MOL0     C60894  10.711   7.718   7.817 -0.6401  0.1576  0.1815
  452MOL0     C60895  10.817   7.755   7.708 -0.1201  0.2198 -0.9316
  452MOL0     C60896  10.965   7.723   7.740 -0.1087  0.2442  0.3440
  452MOL0     C60897  11.059   7.732   7.614  0.3437 -0.6694  0.0739
  452MOL0     C60898  11.198   7.736   7.658 -0.1689 -0.7437  0.0343
  452MOL0     C60899  11.297   7.729   7.541  0.6127  0.5465  0.3093
  452MOL0     C60900  11.433   7.683   7.592  0.3929  0.5084 -0.2680
  452MOL0     C60901  11.523   7.618   7.490 -0.4809 -0.0249 -0.2760
  452MOL0     N60902  11.664   7.608   7.531  0.3103  0.4144 -0.3067
  452MOL0     C60903  11.749   7.707   7.504 -0.0176 -0.7084 -0.2827
  452MOL0     C60904  11.871   7.644   7.514 -0.4731  0.7468  0.1694
  452MOL0     C60905  12.000   7.714   7.474 -0.3000  0.4603  0.0326
  452MOL0     C60906  12.125   7.630   7.509  0.1706  0.4096  0.6690
  452MOL0     C60907  12.238   7.673   7.415 -0.8142 -0.2123 -0.2472
  452MOL0     C60908  12.377   7.605   7.439 -1.4431  0.2257 -0.2257
  452MOL0     O60909  12.422   7.611   7.577 -0.3823 -0.3148  0.5781
  452MOL0     C60910  12.553   7.659   7.587 -1.2304  0.5047 -0.0598
  452MOL0     C60911  12.609   7.772   7.533 -0.2141  0.0576  0.0306
  452MOL0     C60912  12.743   7.816   7.569 -0.3301  0.6723 -0.4526
  452MOL0     C60913  12.825   7.741   7.653  0.2083  0.7672 -0.2714
  452MOL0     C60914  12.956   7.788   7.702  0.4638  0.5118 -0.5001
  452MOL0     O60915  13.040   7.701   7.762 -0.1787  0.0817 -0.4844
  452MOL0     C60916  13.158   7.739   7.814  0.3884  0.3786  0.5047
  452MOL0     C60917  13.278   7.673   7.782  0.1518 -0.3020 -0.6766
  452MOL0     C60918  13.404   7.707   7.831  0.9655 -0.5141 -0.5682
  452MOL0     C60919  13.409   7.824   7.916 -0.2908  1.3451 -0.2396
  452MOL0     O60920  13.532   7.888   7.951 -0.5496  0.4921  0.0707
  452MOL0     C60921  13.631   7.901   7.849  0.2154 -0.3115  0.2904
  452MOL0     C60922  13.744   7.992   7.906  0.4041  0.1538 -0.2616
  452MOL0     C60923  13.847   8.016   7.793 -0.0455  0.4266  0.5494
  452MOL0     C60924  13.972   8.085   7.851  0.6328 -0.1825 -0.3356
  452MOL0     C60925  14.081   8.076   7.736  0.7135 -0.2475 -0.3289
  452MOL0     C60926  14.219   8.127   7.779  0.8835 -0.1134  0.1192
  452MOL0     C60927  14.321   8.039   7.714  0.2769  0.2847 -0.1949
  452MOL0     C60928  14.350   8.093   7.577  0.0559 -0.1416 -0.0141
  452MOL0    Cl60929  14.406   8.262   7.569 -0.2959 -0.0296  0.4896
  452MOL0     C60930  13.284   7.878   7.961 -0.1308  0.8007  0.7231
  452MOL0     C60931  13.158   7.838   7.905  0.0860 -0.2518 -0.1756
  452MOL0     O60932  12.977   7.905   7.689  0.4692 -0.7935  0.1387
  452MOL0     C60933  12.768   7.620   7.700 -0.3690 -0.0665 -0.0811
  452MOL0     C60934  12.640   7.583   7.663 -0.0719  0.4004 -0.1610
  452MOL0     N60935  11.861   7.506   7.552 -0.0019  0.4282  0.1757
  452MOL0     N60936  11.731   7.490   7.561  0.4061  0.4974  0.5580
  452MOL0     C60937  10.388   7.823   7.849  0.4135 -0.3576  0.0890
  452MOL0     C60938  10.294   7.829   7.954 -0.3499  0.1772  0.0661
  452MOL0     C60939  10.018   7.690   8.285  0.0441  0.1457 -0.1842
  452MOL0     C60940  10.068   7.760   8.395 -0.0540 -0.4166 -0.1126
  452MOL0     C60941   9.984   7.802   8.502  0.2919 -0.6074 -0.0145
  452MOL0     C60942   9.851   7.769   8.508 -0.2830  0.7492 -0.3664
  452MOL0     O60943   9.777   7.793   8.618 -0.0834  0.3578  0.4361
  452MOL0     C60944   9.807   7.708   8.724 -0.0290 -0.0735 -0.2824
  452MOL0     C60945   9.679   7.630   8.746  0.1158  0.1739  0.0581
  452MOL0     C60946   9.550   7.720   8.761 -0.6879  0.4235 -0.7258
  452MOL0     C60947   9.458   7.667   8.876 -0.7261  0.1552 -0.0498
  452MOL0     C60948   9.521   7.647   9.005  0.7564  0.3110 -0.2809
  452MOL0     C60949   9.574   7.610   9.106  0.1490 -0.0069 -0.1136
  452MOL0     C60950   9.795   7.704   8.397  0.3392 -0.1976  0.4272
  452MOL0     C60951   9.876   7.659   8.291 -0.3749  0.2645  0.1371
  452MOL0     C60952   9.803   7.586   8.181  0.3580  0.4164  0.5055
  452MOL0     H60953  10.387   7.548   8.120  1.0919 -1.6890 -1.7572
  452MOL0     H60954  10.541   7.533   7.940 -1.4846 -4.0339  3.8279
  452MOL0     H60955  10.725   7.787   7.901  0.7812  0.6385 -0.4217
  452MOL0     H60956  10.733   7.617   7.854 -0.7534  0.8207  2.2022
  452MOL0     H60957  10.812   7.864   7.694  1.1912  0.6911  1.6417
  452MOL0     H60958  10.791   7.697   7.619  0.1550 -1.5633  0.1103
  452MOL0     H60959  10.974   7.627   7.790  1.3667 -0.8800 -1.9180
  452MOL0     H60960  10.998   7.793   7.817 -1.3729  1.0718  0.1631
  452MOL0     H60961  11.029   7.654   7.543 -1.8543  1.6436 -1.7183
  452MOL0     H60962  11.034   7.822   7.556 -2.8707 -1.3453  0.2235
  452MOL0     H60963  11.233   7.823   7.714  2.3057 -0.6217 -1.5547
  452MOL0     H60964  11.202   7.651   7.726 -1.7230 -2.2453 -1.6476
  452MOL0     H60965  11.256   7.654   7.473 -1.6989  1.2362  0.8269
  452MOL0     H60966  11.304   7.823   7.484  1.0197 -0.8905 -2.1753
  452MOL0     H60967  11.428   7.608   7.671 -1.0285 -0.4990 -1.2600
  452MOL0     H60968  11.482   7.774   7.627  2.2073  0.3645 -2.2551
  452MOL0     H60969  11.488   7.519   7.459  0.5759  0.1589 -2.2563
  452MOL0     H60970  11.513   7.678   7.399  1.1140 -0.6740 -0.9112
  452MOL0     H60971  11.728   7.813   7.496  0.1287 -0.4836  1.7775
  452MOL0     H60972  11.991   7.733   7.367 -0.1338 -1.7791 -0.4424
  452MOL0     H60973  12.016   7.812   7.520 -0.6331 -0.3110  1.8822
  452MOL0     H60974  12.149   7.656   7.612 -2.8015 -1.0839  1.8530
  452MOL0     H60975  12.097   7.526   7.489 -0.5093  0.8688 -0.9467
  452MOL0     H60976  12.258   7.781   7.413  3.5281 -0.8092  0.9778
  452MOL0     H60977  12.222   7.647   7.310  1.1673 -0.4417 -0.5267
  452MOL0     H60978  12.447   7.647   7.366  2.4879 -1.3085  2.2905
  452MOL0     H60979  12.378   7.500   7.408 -2.7059  0.4492 -1.0544
  452MOL0     H60980  12.550   7.821   7.456  1.7727  1.4992 -0.6757
  452MOL0     H60981  12.793   7.905   7.533  2.9061 -1.2042 -1.0106
  452MOL0     H60982  13.285   7.596   7.706  1.7484 -1.0754  0.2063
  452MOL0     H60983  13.493   7.658   7.794  0.7436  1.3072 -3.8884
  452MOL0     H60984  13.674   7.803   7.831 -0.6974 -0.2340 -2.7738
  452MOL0     H60985  13.591   7.948   7.759 -0.3600  2.7726  1.9955
  452MOL0     H60986  13.711   8.089   7.945  0.7900  1.2503 -2.4782
  452MOL0     H60987  13.783   7.924   7.982 -0.6914  1.2414  1.3437
  452MOL0     H60988  13.876   7.919   7.752 -2.6386 -0.3282  0.3512
  452MOL0     H60989  13.801   8.067   7.708  0.0099 -1.6430 -0.7905
  452MOL0     H60990  14.006   8.040   7.945 -0.2889 -1.7752 -0.7411
  452MOL0     H60991  13.949   8.190   7.871  0.9141 -0.4677  1.7361
  452MOL0     H60992  14.046   8.133   7.650  1.5227 -0.4804 -0.8251
  452MOL0     H60993  14.088   7.971   7.708  2.0365 -0.5050  0.8338
  452MOL0     H60994  14.229   8.234   7.756 -0.0966 -0.4953 -2.4136
  452MOL0     H60995  14.219   8.116   7.888 -1.0885 -2.7786 -0.0636
  452MOL0     H60996  14.300   7.932   7.708  1.3316  0.1482 -2.3113
  452MOL0     H60997  14.407   8.052   7.781 -1.3964  0.0981  2.1220
  452MOL0     H60998  14.431   8.038   7.528 -1.0182  1.2906 -3.7124
  452MOL0     H60999  14.264   8.088   7.511 -0.5733  0.7339  0.7030
  452MOL0     H61000  13.295   7.966   8.023  0.7218  1.1822  0.0536
  452MOL0     H61001  13.064   7.877   7.942  1.5877 -0.3393  4.4382
  452MOL0     H61002  12.815   7.573   7.786  0.9757  0.0568 -0.7191
  452MOL0     H61003  12.603   7.502   7.725  3.1360  0.8131  2.6038
  452MOL0     H61004  10.381   7.891   7.765  0.8015 -2.0968 -1.4063
  452MOL0     H61005  10.236   7.920   7.947  2.3190  2.0364  0.5261
  452MOL0     H61006  10.169   7.795   8.414 -0.3329  0.2471  0.1727
  452MOL0     H61007  10.027   7.843   8.592  0.7984 -1.4165  0.1222
  452MOL0     H61008   9.823   7.759   8.820 -1.7284 -3.7932  2.2169
  452MOL0     H61009   9.895   7.643   8.713  1.1075  0.6843  3.0521
  452MOL0     H61010   9.698   7.570   8.836  1.4037 -0.3132 -0.5153
  452MOL0     H61011   9.654   7.553   8.673 -1.3085  1.2584 -0.6434
  452MOL0     H61012   9.499   7.733   8.665 -0.6360  4.2004 -0.3785
  452MOL0     H61013   9.582   7.821   8.785  1.3918 -0.5293  0.7772
  452MOL0     H61014   9.386   7.750   8.881 -0.7984  0.0708  0.3482
  452MOL0     H61015   9.409   7.578   8.836 -1.8158  0.8808 -0.3797
  452MOL0     H61016   9.606   7.574   9.202  1.7809 -0.3110 -0.7498
  452MOL0     H61017   9.690   7.675   8.397 -0.1865  1.5236 -1.4582
  452MOL0     H61018   9.794   7.647   8.091 -2.8994  0.4150  0.7107
  452MOL0     H61019   9.843   7.486   8.161  1.0399  0.2736  2.3287
  452MOL0     H61020   9.701   7.563   8.215  0.2347  1.7691  1.1169
  453MOL0     O61021   2.239   0.310   8.002  0.2405 -0.6095 -0.0206
  453MOL0     C61022   2.236   0.209   7.933  0.3287 -0.0235  0.2436
  453MOL0     O61023   2.346   0.125   7.923  0.1226 -0.1125 -0.4596
  453MOL0     C61024   2.451   0.140   8.014 -0.0450  0.4574  0.3318
  453MOL0     C61025   2.581   0.187   7.982 -0.0592  0.2435 -0.5960
  453MOL0     C61026   2.671   0.201   8.091 -0.8991 -0.3291 -1.2102
  453MOL0     C61027   2.648   0.153   8.219  0.0851 -0.2627 -0.0585
  453MOL0     O61028   2.751   0.153   8.308 -0.1444 -0.3803 -0.1830
  453MOL0     C61029   2.741   0.105   8.443 -0.8746  0.1081 -0.3391
  453MOL0     C61030   2.872   0.106   8.523 -0.9075 -0.7361 -0.1376
  453MOL0     C61031   2.846   0.037   8.659 -0.5991  0.0387  0.1743
  453MOL0     C61032   2.978   0.031   8.733 -0.1556  0.4266  0.0059
  453MOL0     C61033   2.951  -0.005   8.876 -0.3349  0.4060  0.4296
  453MOL0     C61034   3.089  -0.012   8.944 -0.9875 -0.4883  0.2245
  453MOL0     C61035   3.197   0.096   8.916  0.0347 -1.3334  0.8163
  453MOL0     C61036   3.314   0.096   9.018 -0.1121  0.1925  0.3132
  453MOL0     N61037   3.378   0.235   9.020  0.5061  0.4395 -0.0107
  453MOL0     C61038   3.337   0.346   9.096 -0.8506  0.0204  0.5829
  453MOL0     C61039   3.412   0.447   9.049  0.5841  0.2795 -0.0824
  453MOL0     C61040   3.422   0.585   9.107  0.6131  1.0113  0.0448
  453MOL0     C61041   3.565   0.636   9.117  0.3200 -0.2880  0.0567
  453MOL0     C61042   3.632   0.670   8.980 -0.3804  0.0871  0.6899
  453MOL0     C61043   3.771   0.588   8.961 -0.1182  0.2723  0.0723
  453MOL0     O61044   3.851   0.608   8.843  0.6759  0.5256  0.4542
  453MOL0     C61045   3.793   0.549   8.733  0.4873  0.1368 -0.2876
  453MOL0     C61046   3.720   0.425   8.727  0.1942 -0.1251 -0.0043
  453MOL0     C61047   3.680   0.379   8.606  0.4297  0.5631 -0.2028
  453MOL0     C61048   3.724   0.442   8.486 -0.3183 -0.9917 -0.6850
  453MOL0     C61049   3.702   0.376   8.354  0.5351  0.2312 -0.5109
  453MOL0     O61050   3.797   0.398   8.263  1.0242  0.1020  0.2432
  453MOL0     C61051   3.772   0.354   8.124  0.5996 -0.4318  0.2727
  453MOL0     C61052   3.858   0.262   8.073  0.5215 -0.3112  0.4840
  453MOL0     C61053   3.826   0.212   7.946  0.8452 -0.0882 -0.0239
  453MOL0     C61054   3.713   0.251   7.872  0.1099 -0.8656 -0.4894
  453MOL0     O61055   3.694   0.193   7.746 -1.1243  0.1179 -0.1441
  453MOL0     C61056   3.590   0.232   7.650 -0.1532 -0.7250 -1.3011
  453MOL0     C61057   3.594   0.160   7.509 -0.1321 -0.6264 -0.1114
  453MOL0     C61058   3.477   0.187   7.420 -0.3748 -0.5013 -1.0571
  453MOL0     C61059   3.482   0.108   7.286 -0.2980 -0.0813  0.9488
  453MOL0     C61060   3.377   0.147   7.186  0.0755  0.3489  0.3373
  453MOL0     C61061   3.395   0.086   7.052  0.8043 -0.2856 -1.0740
  453MOL0     C61062   3.312   0.142   6.941  0.4063 -0.3939  0.3164
  453MOL0     C61063   3.203   0.051   6.890 -0.4580  0.3799 -0.0671
  453MOL0    Cl61064   3.066   0.062   7.006 -0.3107  0.2910 -0.4980
  453MOL0     C61065   3.629   0.343   7.931 -0.0696  1.1098 -0.8800
  453MOL0     C61066   3.657   0.402   8.055 -0.0730 -0.9843  0.4186
  453MOL0     O61067   3.598   0.309   8.338 -0.0794 -0.2778 -0.6995
  453MOL0     C61068   3.797   0.565   8.490  0.2605  0.4020 -0.0075
  453MOL0     C61069   3.835   0.612   8.617 -0.6856  0.0794 -0.4349
  453MOL0     N61070   3.492   0.392   8.952 -0.9786 -0.5891 -0.2870
  453MOL0     N61071   3.485   0.263   8.937  0.2698 -0.3719 -0.0860
  453MOL0     C61072   2.518   0.113   8.245  0.1118  0.3549 -0.4766
  453MOL0     C61073   2.421   0.107   8.147  1.8467  1.4718 -0.1586
  453MOL0     C61074   2.105   0.197   7.856 -0.1736  0.2334 -0.2619
  453MOL0     C61075   2.033   0.310   7.803  0.4223 -0.0194 -0.1476
  453MOL0     C61076   1.919   0.301   7.722  0.3475  0.8484 -0.4725
  453MOL0     C61077   1.879   0.169   7.683  0.5260 -0.0504 -1.1148
  453MOL0     O61078   1.772   0.160   7.597 -0.1511 -0.0959  0.3170
  453MOL0     C61079   1.714   0.035   7.557  0.6527  0.1940 -0.0191
  453MOL0     C61080   1.603  -0.005   7.653 -0.0999 -0.7038 -0.8197
  453MOL0     C61081   1.528  -0.137   7.626  0.3715  0.5585 -0.2998
  453MOL0     C61082   1.424  -0.117   7.512  0.4156  0.2859 -0.0082
  453MOL0     C61083   1.298  -0.052   7.560  0.5894 -0.3104  0.0359
  453MOL0     C61084   1.191  -0.007   7.598  0.1820 -0.3152  0.0062
  453MOL0     C61085   1.943   0.057   7.740  0.0551 -0.0199  0.3394
  453MOL0     C61086   2.046   0.078   7.829 -0.1187  0.1637 -0.3269
  453MOL0     C61087   2.097  -0.045   7.884 -0.0691 -0.6286 -0.3198
  453MOL0     H61088   2.602   0.206   7.877  1.6960 -0.3883 -0.3926
  453MOL0     H61089   2.768   0.239   8.061 -2.2817  2.8145 -2.1215
  453MOL0     H61090   2.676   0.171   8.501 -2.3156 -0.7962 -0.8535
  453MOL0     H61091   2.709   0.000   8.444  1.3816 -0.6629 -1.8623
  453MOL0     H61092   2.909   0.208   8.539 -1.7686 -0.5612  0.8693
  453MOL0     H61093   2.951   0.058   8.466  2.2589  2.7235  0.9830
  453MOL0     H61094   2.820  -0.068   8.642  0.7477 -0.1243 -1.0868
  453MOL0     H61095   2.773   0.088   8.723 -1.3228 -2.6986  1.6767
  453MOL0     H61096   3.033  -0.051   8.685 -0.5717  0.2175 -0.1098
  453MOL0     H61097   3.032   0.127   8.730  0.5192  0.0369 -0.8017
  453MOL0     H61098   2.883   0.064   8.927 -0.4456  1.0284 -0.5392
  453MOL0     H61099   2.900  -0.103   8.877  1.6674 -0.6847  1.1470
  453MOL0     H61100   3.085  -0.031   9.051  0.6219 -3.0642 -0.0702
  453MOL0     H61101   3.141  -0.105   8.917  0.8314  0.1456  1.3508
  453MOL0     H61102   3.141   0.190   8.922  1.3534 -0.3955 -0.6383
  453MOL0     H61103   3.239   0.083   8.815  1.3138 -0.5595  1.2256
  453MOL0     H61104   3.293   0.063   9.120 -0.0468 -1.4785 -0.1895
  453MOL0     H61105   3.389   0.027   8.977  0.5148  0.5089  0.9018
  453MOL0     H61106   3.261   0.342   9.174  0.3707  1.1370  1.8782
  453MOL0     H61107   3.367   0.661   9.052  0.4224  0.8043 -0.0531
  453MOL0     H61108   3.378   0.576   9.207  0.7762 -1.5846 -0.0339
  453MOL0     H61109   3.558   0.728   9.175  1.9798  0.8509 -1.4441
  453MOL0     H61110   3.623   0.564   9.175  0.3494 -0.6279 -0.3841
  453MOL0     H61111   3.649   0.778   8.972  2.4086 -0.3407 -0.1217
  453MOL0     H61112   3.566   0.635   8.899 -0.6437  1.6403  0.2027
  453MOL0     H61113   3.752   0.483   8.987  0.2920  0.1152 -0.2601
  453MOL0     H61114   3.829   0.618   9.049  1.2294 -3.3255  0.5655
  453MOL0     H61115   3.693   0.381   8.823 -1.2652  1.7222  0.4741
  453MOL0     H61116   3.623   0.287   8.609 -0.6215  1.2220  0.6590
  453MOL0     H61117   3.954   0.254   8.123  1.6337  0.8010 -1.3793
  453MOL0     H61118   3.899   0.157   7.889  0.8729  1.2084 -1.2883
  453MOL0     H61119   3.496   0.218   7.704  0.1739 -0.1736 -0.5695
  453MOL0     H61120   3.599   0.338   7.624  0.1557 -0.5872 -0.6662
  453MOL0     H61121   3.681   0.197   7.454 -0.2251 -1.2993 -0.7262
  453MOL0     H61122   3.608   0.052   7.519  2.4646 -0.2700  0.7059
  453MOL0     H61123   3.379   0.168   7.464 -1.0572  2.0412 -1.3281
  453MOL0     H61124   3.482   0.293   7.395 -0.2332 -0.1002  0.5963
  453MOL0     H61125   3.480  -0.001   7.288  2.3867 -0.2430 -0.8104
  453MOL0     H61126   3.581   0.127   7.244  0.1627  0.7870  2.3390
  453MOL0     H61127   3.375   0.256   7.181  0.9984  0.2964 -2.4104
  453MOL0     H61128   3.286   0.110   7.235  0.1801  2.1512  2.0313
  453MOL0     H61129   3.495   0.103   7.012  0.0775  1.0845 -2.4495
  453MOL0     H61130   3.381  -0.023   7.052  0.0569 -0.1967 -0.8394
  453MOL0     H61131   3.375   0.156   6.853  2.0480 -1.9007  1.1756
  453MOL0     H61132   3.267   0.237   6.973 -1.4783 -1.0345 -0.3101
  453MOL0     H61133   3.184   0.099   6.793  1.4042 -0.0748 -0.7047
  453MOL0     H61134   3.229  -0.055   6.882  0.8483  0.5585  1.4261
  453MOL0     H61135   3.544   0.374   7.872 -1.4189 -3.2006 -1.5079
  453MOL0     H61136   3.602   0.483   8.102 -3.0941 -3.6709  1.9705
  453MOL0     H61137   3.832   0.599   8.393 -1.0946  0.2716 -0.5644
  453MOL0     H61138   3.897   0.701   8.622 -0.6984  0.1850 -1.7604
  453MOL0     H61139   2.501   0.066   8.342 -4.0077  1.1987 -0.6187
  453MOL0     H61140   2.328   0.054   8.165  1.1299  2.1710 -1.7049
  453MOL0     H61141   2.065   0.413   7.815 -0.2149  0.1679 -0.0057
  453MOL0     H61142   1.876   0.391   7.680 -2.2790 -0.0007  0.2083
  453MOL0     H61143   1.782  -0.051   7.560 -1.5933 -1.6940  0.5230
  453MOL0     H61144   1.680   0.033   7.453 -0.0231 -1.4272  0.1858
  453MOL0     H61145   1.532   0.079   7.657  0.0250 -0.5173 -2.0056
  453MOL0     H61146   1.649  -0.005   7.752  0.7603  1.2072 -1.1810
  453MOL0     H61147   1.486  -0.174   7.720  0.3845 -0.6844 -0.7713
  453MOL0     H61148   1.600  -0.208   7.586  2.9593  3.6971 -1.6388
  453MOL0     H61149   1.452  -0.062   7.422 -1.2643  0.8965 -0.1779
  453MOL0     H61150   1.390  -0.219   7.490 -1.9756  1.2956 -1.3703
  453MOL0     H61151   1.098   0.035   7.630  0.5030 -0.8525  1.7513
  453MOL0     H61152   1.919  -0.041   7.703  0.4904 -0.8243  2.0583
  453MOL0     H61153   2.161  -0.091   7.808  0.5104 -2.8212  1.3893
  453MOL0     H61154   2.159  -0.034   7.974  0.6361  0.8002 -0.9566
  453MOL0     H61155   2.013  -0.114   7.896 -0.5830 -0.2916 -1.8047
  454MOL0     O61156   0.074   0.722   6.719  0.0539 -0.4942 -0.1981
  454MOL0     C61157   0.036   0.820   6.655  0.2842 -0.4123 -0.6854
  454MOL0     O61158   0.125   0.899   6.583  0.2993  0.3447 -0.4416
  454MOL0     C61159   0.237   0.841   6.535 -0.5426 -0.2182  0.3334
  454MOL0     C61160   0.347   0.926   6.530 -0.5721 -0.3717 -0.1167
  454MOL0     C61161   0.474   0.871   6.502  0.2686  0.6914 -0.5826
  454MOL0     C61162   0.478   0.734   6.446  0.5032 -0.0859 -0.3092
  454MOL0     O61163   0.583   0.670   6.406 -0.1200 -0.6473  0.3417
  454MOL0     C61164   0.705   0.743   6.393 -0.0141  0.1592  0.2198
  454MOL0     C61165   0.711   0.823   6.259 -0.2139  0.4712 -0.4160
  454MOL0     C61166   0.844   0.897   6.264 -0.0089  0.2780 -0.3301
  454MOL0     C61167   0.960   0.806   6.236  0.5844  0.1937 -0.2038
  454MOL0     C61168   1.084   0.883   6.179  1.0708  0.1696 -0.0628
  454MOL0     C61169   1.127   0.988   6.267  0.1230 -0.6087 -0.2519
  454MOL0     C61170   1.258   1.059   6.227 -0.5675  0.5383  0.4335
  454MOL0     C61171   1.241   1.147   6.098 -0.5557 -0.0287  1.0632
  454MOL0     N61172   1.171   1.274   6.120 -0.7388 -0.4764  0.0463
  454MOL0     C61173   1.041   1.295   6.085  0.0426  0.4627 -0.0906
  454MOL0     C61174   1.020   1.418   6.136  0.3712  0.3208  0.7518
  454MOL0     C61175   0.907   1.508   6.102  0.1247 -0.8700  0.3607
  454MOL0     C61176   0.804   1.421   6.021 -0.0390 -0.6357  1.0972
  454MOL0     C61177   0.676   1.498   5.993  0.7052  0.0676  0.2356
  454MOL0     C61178   0.565   1.422   5.932 -0.2453  1.5517 -0.4438
  454MOL0     O61179   0.448   1.503   5.887  0.2135  0.3114 -0.2995
  454MOL0     C61180   0.328   1.434   5.871  0.3427 -0.2558 -0.1394
  454MOL0     C61181   0.319   1.301   5.835 -0.8245 -0.5924  0.1752
  454MOL0     C61182   0.195   1.242   5.812 -0.0706 -0.3160 -0.2582
  454MOL0     C61183   0.082   1.326   5.826  0.1259  0.2856 -0.9020
  454MOL0     C61184  -0.054   1.267   5.817  0.0674  0.2502  0.3914
  454MOL0     O61185  -0.155   1.346   5.803  0.1087 -0.3876  0.0817
  454MOL0     C61186  -0.283   1.294   5.796 -0.3219 -0.0828 -0.7423
  454MOL0     C61187  -0.330   1.206   5.894 -0.1772  0.3422  0.5956
  454MOL0     C61188  -0.463   1.164   5.897 -0.1958  0.1476 -0.2038
  454MOL0     C61189  -0.548   1.203   5.799 -0.3582 -0.1159  0.2801
  454MOL0     O61190  -0.672   1.154   5.804  0.2511  0.6580 -0.4399
  454MOL0     C61191  -0.746   1.156   5.681  0.0027 -0.1053  0.1577
  454MOL0     C61192  -0.854   1.041   5.690 -0.3503 -0.4465  1.0311
  454MOL0     C61193  -0.949   1.057   5.575 -0.2976  0.5939 -0.8740
  454MOL0     C61194  -1.088   0.998   5.617  0.4188  0.1987  0.2205
  454MOL0     C61195  -1.083   0.837   5.636  0.1869 -0.3405 -0.6571
  454MOL0     C61196  -1.212   0.765   5.680  0.6235 -0.3764  0.4206
  454MOL0     C61197  -1.194   0.608   5.666 -0.3147 -0.1476 -0.1613
  454MOL0     C61198  -1.323   0.532   5.697  0.1580 -0.1156 -0.3753
  454MOL0    Cl61199  -1.387   0.574   5.866 -0.9738  0.0854  0.3723
  454MOL0     C61200  -0.503   1.296   5.702  0.9815  0.0579  0.3472
  454MOL0     C61201  -0.370   1.338   5.704 -0.5972  0.1105 -0.0573
  454MOL0     O61202  -0.060   1.143   5.808  0.0078  0.0142  0.6604
  454MOL0     C61203   0.090   1.456   5.866 -0.4224  0.0367 -0.7614
  454MOL0     C61204   0.217   1.511   5.891  0.0212 -0.4319  0.5339
  454MOL0     N61205   1.123   1.457   6.219  0.3528 -0.1391 -0.4782
  454MOL0     N61206   1.218   1.371   6.204  0.6095 -0.1364 -0.2504
  454MOL0     C61207   0.358   0.660   6.434 -0.3662  0.6327 -0.8766
  454MOL0     C61208   0.238   0.710   6.478  0.1319 -0.2545 -0.4501
  454MOL0     C61209  -0.089   0.889   6.696 -0.3435 -0.0068  0.3106
  454MOL0     C61210  -0.100   1.028   6.702  0.4525 -0.1683 -0.3639
  454MOL0     C61211  -0.225   1.080   6.733 -0.0003 -0.3385  0.1704
  454MOL0     C61212  -0.334   1.010   6.758  0.5013  0.4608  0.4084
  454MOL0     O61213  -0.444   1.085   6.799  0.0839  0.0259  0.4276
  454MOL0     C61214  -0.557   1.033   6.871  0.6414  0.8609 -0.5461
  454MOL0     C61215  -0.519   0.973   7.008 -0.4034 -0.1118 -0.3718
  454MOL0     C61216  -0.643   0.977   7.110 -0.6108  0.8632  0.1794
  454MOL0     C61217  -0.609   0.963   7.263  0.6307  0.9698  0.4555
  454MOL0     C61218  -0.540   1.080   7.302  0.2835  0.1992 -0.7018
  454MOL0     C61219  -0.495   1.188   7.331  0.6356  1.0779 -0.0183
  454MOL0     C61220  -0.328   0.866   6.754 -0.8583 -0.7267  0.7182
  454MOL0     C61221  -0.207   0.806   6.717 -0.5161  0.5531  0.0716
  454MOL0     C61222  -0.198   0.652   6.711 -0.4031 -0.4946  0.4639
  454MOL0     H61223   0.354   1.031   6.557 -1.6467 -0.3218 -0.0013
  454MOL0     H61224   0.561   0.933   6.517 -0.6134  1.9817 -0.6958
  454MOL0     H61225   0.733   0.811   6.474  1.0988  4.0626 -3.1000
  454MOL0     H61226   0.783   0.666   6.393 -0.0039  0.1061  2.5145
  454MOL0     H61227   0.621   0.885   6.254 -1.1239 -0.5394  1.9493
  454MOL0     H61228   0.701   0.760   6.170  0.0912 -0.2610  0.0591
  454MOL0     H61229   0.850   0.955   6.356 -1.6896 -2.7841  1.9123
  454MOL0     H61230   0.834   0.966   6.180 -2.2371  0.2960 -0.1060
  454MOL0     H61231   0.983   0.746   6.325 -1.8292 -2.7633 -1.4105
  454MOL0     H61232   0.923   0.730   6.166 -0.3356  1.5081 -1.1873
  454MOL0     H61233   1.167   0.812   6.169  0.0010 -1.1607  0.2632
  454MOL0     H61234   1.056   0.933   6.086  0.0525  1.1660  0.7453
  454MOL0     H61235   1.042   1.055   6.284  0.3738 -0.2373 -0.4505
  454MOL0     H61236   1.140   0.937   6.363  1.6287 -0.4370 -0.3376
  454MOL0     H61237   1.340   0.987   6.214 -0.8870 -0.0369  1.5021
  454MOL0     H61238   1.290   1.122   6.310  3.1283 -2.0351  1.2154
  454MOL0     H61239   1.344   1.170   6.067 -0.1665 -2.1620  0.6581
  454MOL0     H61240   1.195   1.083   6.023  0.7565  0.2948 -0.0587
  454MOL0     H61241   0.982   1.242   6.011  1.2310 -3.3830  1.4767
  454MOL0     H61242   0.864   1.531   6.200 -2.6557 -0.5108 -0.8645
  454MOL0     H61243   0.931   1.603   6.053  1.4488 -0.8130  1.0885
  454MOL0     H61244   0.851   1.392   5.926  0.7131  2.5436  0.3707
  454MOL0     H61245   0.765   1.333   6.072 -1.4547 -0.2886  0.6550
  454MOL0     H61246   0.711   1.584   5.935  4.7141 -1.8154 -0.5069
  454MOL0     H61247   0.634   1.534   6.087 -1.2273 -3.6188  0.9576
  454MOL0     H61248   0.535   1.349   6.008  1.0506 -1.7723 -2.9123
  454MOL0     H61249   0.608   1.369   5.847  2.8456 -0.4014  2.1217
  454MOL0     H61250   0.410   1.241   5.826 -0.7873 -0.3638 -1.2300
  454MOL0     H61251   0.194   1.139   5.778 -0.5633 -0.3970  0.0012
  454MOL0     H61252  -0.260   1.172   5.970  0.2730 -2.4398 -0.9297
  454MOL0     H61253  -0.508   1.099   5.971  0.3084  3.4185  3.2836
  454MOL0     H61254  -0.789   1.256   5.667 -1.0024 -0.5617 -0.0921
  454MOL0     H61255  -0.686   1.128   5.595 -0.2300 -2.5401  0.7084
  454MOL0     H61256  -0.808   0.942   5.681  2.7148  1.0114 -1.0541
  454MOL0     H61257  -0.904   1.056   5.786 -0.8134 -1.1845  0.9144
  454MOL0     H61258  -0.965   1.158   5.536 -2.2120  0.1605 -1.3304
  454MOL0     H61259  -0.917   0.995   5.490 -0.5831 -2.2946  0.9971
  454MOL0     H61260  -1.158   1.018   5.535  0.3317  0.6209  0.3938
  454MOL0     H61261  -1.126   1.051   5.705  3.9153  0.6814  1.5780
  454MOL0     H61262  -1.014   0.809   5.717  0.1134 -1.4917 -0.9736
  454MOL0     H61263  -1.038   0.787   5.550  0.7398  0.3392 -0.7738
  454MOL0     H61264  -1.228   0.799   5.783  3.7717  3.1486 -0.0427
  454MOL0     H61265  -1.293   0.805   5.620  1.0689  2.9653  1.8340
  454MOL0     H61266  -1.108   0.572   5.724  0.0652 -1.1978 -1.3328
  454MOL0     H61267  -1.172   0.579   5.563  0.4543 -0.9449  0.2168
  454MOL0     H61268  -1.398   0.565   5.625 -0.1230 -0.8414 -0.4244
  454MOL0     H61269  -1.301   0.425   5.693  1.2128 -0.1353  2.8761
  454MOL0     H61270  -0.571   1.342   5.631  1.1445  0.1524  0.2513
  454MOL0     H61271  -0.344   1.417   5.634 -1.4280 -1.4376 -2.2035
  454MOL0     H61272   0.010   1.527   5.879  2.0930  2.9184  0.2973
  454MOL0     H61273   0.229   1.609   5.936  1.4635  0.0703 -0.8549
  454MOL0     H61274   0.356   0.559   6.395  0.7959  0.6442 -0.9740
  454MOL0     H61275   0.154   0.644   6.455  0.5148 -0.6901 -0.6177
  454MOL0     H61276  -0.011   1.089   6.693  1.1513 -1.3622 -2.5206
  454MOL0     H61277  -0.239   1.188   6.739  0.0520 -0.2143 -1.4947
  454MOL0     H61278  -0.607   0.956   6.811  2.4251 -1.5378  0.8591
  454MOL0     H61279  -0.635   1.109   6.886  1.5074  1.6879 -0.0992
  454MOL0     H61280  -0.439   1.028   7.058  0.5505 -2.9952  1.5556
  454MOL0     H61281  -0.474   0.875   6.988 -0.2833  0.0022 -0.6696
  454MOL0     H61282  -0.713   0.903   7.070  1.7581  0.0615 -2.8825
  454MOL0     H61283  -0.695   1.072   7.107 -4.1037 -0.8461  1.0841
  454MOL0     H61284  -0.697   0.967   7.326  0.9699 -1.5050  1.1901
  454MOL0     H61285  -0.550   0.872   7.275 -1.2867 -0.3801  0.1539
  454MOL0     H61286  -0.464   1.286   7.361 -0.5213  1.7016 -0.8113
  454MOL0     H61287  -0.417   0.811   6.780 -1.6486  0.7878  1.3731
  454MOL0     H61288  -0.149   0.626   6.617  0.7074 -1.6876  1.3370
  454MOL0     H61289  -0.147   0.601   6.793 -0.8052 -4.4231 -1.4927
  454MOL0     H61290  -0.299   0.611   6.723 -0.6097  0.1803  1.0453
  455MOL0     O61291   4.603   9.403   2.526 -0.5799 -0.9182 -0.0583
  455MOL0     C61292   4.524   9.357   2.605  0.1646 -0.5292 -0.4992
  455MOL0     O61293   4.537   9.351   2.733  0.2673 -0.4736  0.0465
  455MOL0     C61294   4.666   9.371   2.780 -0.5964  0.8398 -0.4964
  455MOL0     C61295   4.733   9.493   2.776 -0.5003  0.1242  0.1986
  455MOL0     C61296   4.866   9.498   2.816 -0.8861 -0.0734 -0.5409
  455MOL0     C61297   4.935   9.379   2.863  0.6524  0.0773  0.5112
  455MOL0     O61298   5.067   9.379   2.903  0.6503  0.2851  0.1388
  455MOL0     C61299   5.139   9.500   2.905  1.2197 -0.8303 -0.3013
  455MOL0     C61300   5.271   9.495   2.983  0.7877 -0.5524 -0.7515
  455MOL0     C61301   5.367   9.402   2.925 -0.5417  0.7005 -0.2581
  455MOL0     C61302   5.477   9.372   3.028 -0.7955 -0.6250  0.2350
  455MOL0     C61303   5.599   9.285   2.974 -0.1432 -0.7163 -0.2511
  455MOL0     C61304   5.711   9.292   3.078 -0.7956 -0.4273  1.1341
  455MOL0     C61305   5.819   9.205   3.038 -0.0799 -0.0295  0.1637
  455MOL0     C61306   5.931   9.208   3.139  0.4122 -0.1186  0.0935
  455MOL0     N61307   6.050   9.129   3.103  0.1138  0.3217 -0.5117
  455MOL0     C61308   6.067   8.995   3.120 -0.0401  0.7358  0.5382
  455MOL0     C61309   6.191   8.972   3.078 -0.0132  0.3767  1.2435
  455MOL0     C61310   6.241   8.831   3.067  0.1095  0.7091  0.2234
  455MOL0     C61311   6.385   8.816   3.089  0.3651  0.4645 -0.0124
  455MOL0     C61312   6.424   8.672   3.083 -0.3527 -0.2449 -0.7466
  455MOL0     C61313   6.574   8.660   3.032  0.1189  0.0687  0.1874
  455MOL0     O61314   6.617   8.525   3.046 -0.1116 -0.1600  0.2530
  455MOL0     C61315   6.751   8.510   3.032 -0.4905  0.8092  0.3204
  455MOL0     C61316   6.816   8.509   2.908 -0.2738 -0.3375  0.6437
  455MOL0     C61317   6.958   8.481   2.895 -1.3847 -0.4792  0.0382
  455MOL0     C61318   7.020   8.434   3.010 -0.0672 -0.3577  0.4875
  455MOL0     C61319   7.169   8.399   3.011  0.4810 -1.0340  0.0141
  455MOL0     O61320   7.229   8.417   3.134  0.8434 -0.3460 -0.3068
  455MOL0     C61321   7.362   8.441   3.151  0.0523 -0.0004  0.2808
  455MOL0     C61322   7.412   8.402   3.275 -0.5687  1.1925 -0.0053
  455MOL0     C61323   7.548   8.429   3.309 -0.1633  0.3683  0.1888
  455MOL0     C61324   7.625   8.498   3.219 -0.0081 -0.5151  0.7840
  455MOL0     O61325   7.761   8.538   3.243 -0.0620 -0.1031  0.6729
  455MOL0     C61326   7.826   8.483   3.360 -0.0175 -0.0492 -0.1077
  455MOL0     C61327   7.948   8.565   3.385 -0.1385  0.1886 -0.1266
  455MOL0     C61328   8.044   8.554   3.255 -0.3220  0.0377 -0.3602
  455MOL0     C61329   8.119   8.421   3.249 -0.5465  0.5470 -0.2959
  455MOL0     C61330   8.233   8.406   3.359  0.3355 -0.5064 -0.5351
  455MOL0     C61331   8.335   8.509   3.351 -0.8909  0.1187 -0.6102
  455MOL0     C61332   8.453   8.480   3.448  0.5352 -0.2981  0.3354
  455MOL0     C61333   8.559   8.598   3.452  1.0003 -0.1009 -0.0404
  455MOL0    Cl61334   8.708   8.558   3.531 -0.3376 -0.0994 -0.2128
  455MOL0     C61335   7.578   8.531   3.094  0.3073 -0.7926 -0.2174
  455MOL0     C61336   7.446   8.517   3.069  0.1056  0.4169 -0.4031
  455MOL0     O61337   7.234   8.382   2.909  0.5214 -0.7175 -0.1754
  455MOL0     C61338   6.956   8.436   3.135 -0.0107 -0.4696 -0.6625
  455MOL0     C61339   6.821   8.472   3.148  0.1478 -0.5414 -0.5882
  455MOL0     N61340   6.255   9.094   3.053  0.1090 -0.9726  0.4170
  455MOL0     N61341   6.165   9.186   3.061 -0.3666 -0.3169 -0.3831
  455MOL0     C61342   4.866   9.258   2.878  0.4932 -0.8640  0.3485
  455MOL0     C61343   4.729   9.258   2.853  0.3170  0.1601  0.7552
  455MOL0     C61344   4.396   9.308   2.547  0.0083 -0.0694  0.0056
  455MOL0     C61345   4.284   9.303   2.628  0.4180 -0.0489 -0.1557
  455MOL0     C61346   4.159   9.264   2.588  1.0471  0.2502 -0.4397
  455MOL0     C61347   4.130   9.231   2.452 -0.5005 -0.4117  0.0116
  455MOL0     O61348   4.003   9.200   2.409 -0.4213  0.5956 -0.6960
  455MOL0     C61349   3.899   9.166   2.509  0.8964 -0.1383  0.0611
  455MOL0     C61350   3.765   9.107   2.431 -0.3853 -0.3457  0.2037
  455MOL0     C61351   3.705   9.221   2.350  0.6141 -1.0021 -0.4737
  455MOL0     C61352   3.565   9.187   2.309  0.7353  0.8461  0.3120
  455MOL0     C61353   3.557   9.062   2.227 -0.2828  0.3474  0.0177
  455MOL0     C61354   3.564   8.963   2.164 -0.2883  0.2575  0.2482
  455MOL0     C61355   4.247   9.237   2.368 -0.7332 -1.4181  1.2565
  455MOL0     C61356   4.375   9.265   2.413  0.0658  0.2068 -0.1453
  455MOL0     C61357   4.481   9.267   2.310 -0.4839 -0.1161 -0.3136
  455MOL0     H61358   4.700   9.587   2.734  0.5943  0.7450  0.6838
  455MOL0     H61359   4.925   9.586   2.792 -0.1639  0.0089  1.3822
  455MOL0     H61360   5.147   9.541   2.803 -1.2014 -0.8129 -0.5375
  455MOL0     H61361   5.086   9.582   2.954 -1.9410 -1.5221 -2.2633
  455MOL0     H61362   5.254   9.469   3.088  3.0253  1.5348  0.2516
  455MOL0     H61363   5.312   9.596   2.988  3.8606 -1.7516  1.0244
  455MOL0     H61364   5.402   9.442   2.830  0.9447 -0.9770 -0.4687
  455MOL0     H61365   5.321   9.305   2.907 -0.9612  1.1460 -1.6671
  455MOL0     H61366   5.521   9.467   3.059  0.7584 -0.4734 -2.1782
  455MOL0     H61367   5.444   9.328   3.123 -0.4092  0.8205  1.0718
  455MOL0     H61368   5.573   9.181   2.953 -0.6248 -0.2135 -2.4348
  455MOL0     H61369   5.630   9.319   2.874 -0.7358  0.2122 -0.1237
  455MOL0     H61370   5.745   9.391   3.109  3.5164 -0.8283 -1.5493
  455MOL0     H61371   5.680   9.248   3.173 -0.7288  2.2526  2.4987
  455MOL0     H61372   5.849   9.230   2.936  0.4547 -1.7575 -0.1298
  455MOL0     H61373   5.781   9.103   3.041  0.4697 -0.2100  1.6475
  455MOL0     H61374   5.968   9.311   3.147 -1.3525  0.4860  1.0538
  455MOL0     H61375   5.900   9.175   3.238 -1.1060  3.1582  0.8463
  455MOL0     H61376   5.989   8.925   3.148  1.2173 -1.2979 -0.8315
  455MOL0     H61377   6.190   8.776   3.147  0.4090 -0.8924 -0.6549
  455MOL0     H61378   6.210   8.794   2.969 -0.2178 -0.8668  0.8799
  455MOL0     H61379   6.440   8.870   3.012 -0.6533  0.4967 -0.7451
  455MOL0     H61380   6.426   8.859   3.180  0.5691 -1.5562  0.9070
  455MOL0     H61381   6.362   8.625   3.007  0.5159 -1.7413 -0.5803
  455MOL0     H61382   6.415   8.617   3.177  1.8545 -0.8813 -0.8514
  455MOL0     H61383   6.643   8.728   3.082  0.7627 -2.8631  3.6604
  455MOL0     H61384   6.577   8.693   2.928 -2.2853 -0.3544 -0.0775
  455MOL0     H61385   6.767   8.539   2.816 -1.5925 -5.0167 -0.4518
  455MOL0     H61386   7.013   8.486   2.801 -0.8558  0.7152  0.3937
  455MOL0     H61387   7.346   8.352   3.345 -1.7150  2.1646 -0.3586
  455MOL0     H61388   7.594   8.395   3.401  0.9038 -0.7929 -0.7423
  455MOL0     H61389   7.760   8.505   3.444 -0.2757  1.5532 -0.6951
  455MOL0     H61390   7.864   8.381   3.356 -0.8133 -0.3148 -2.4969
  455MOL0     H61391   7.919   8.669   3.401 -3.0812 -0.7289  1.2817
  455MOL0     H61392   7.997   8.529   3.476 -0.8974  1.9788  1.0511
  455MOL0     H61393   7.976   8.556   3.169  0.2730  1.0952 -0.8208
  455MOL0     H61394   8.110   8.640   3.243  1.7576 -1.4475 -0.2028
  455MOL0     H61395   8.168   8.416   3.152 -0.4789 -2.1494 -0.1904
  455MOL0     H61396   8.041   8.344   3.243  1.3876 -1.5560  0.2873
  455MOL0     H61397   8.278   8.310   3.331  2.9983  0.3028  0.6699
  455MOL0     H61398   8.196   8.402   3.462  3.2010  1.6842  0.7070
  455MOL0     H61399   8.368   8.518   3.247  0.1586  0.4817 -0.2520
  455MOL0     H61400   8.291   8.604   3.380  1.4494  1.1668 -0.2824
  455MOL0     H61401   8.507   8.395   3.404  0.7364  0.5060 -1.0439
  455MOL0     H61402   8.402   8.456   3.541  0.0740  0.4269  0.2754
  455MOL0     H61403   8.582   8.619   3.347 -1.1351 -0.2297 -0.5753
  455MOL0     H61404   8.509   8.687   3.492 -1.4778 -1.9587  1.2447
  455MOL0     H61405   7.645   8.578   3.024  1.8105 -3.7435 -0.9090
  455MOL0     H61406   7.412   8.547   2.971  1.1025 -0.7002 -1.1150
  455MOL0     H61407   7.011   8.404   3.223 -0.2420  2.4897  0.6957
  455MOL0     H61408   6.770   8.473   3.244  2.4702 -0.1783  0.7066
  455MOL0     H61409   4.921   9.166   2.891  1.7164 -0.2536 -0.2496
  455MOL0     H61410   4.665   9.174   2.873 -3.5222  1.8778 -2.8180
  455MOL0     H61411   4.301   9.325   2.733  2.0094 -0.7161 -0.2539
  455MOL0     H61412   4.075   9.255   2.656  0.2953 -0.7915 -1.4514
  455MOL0     H61413   3.876   9.251   2.573  3.2486 -0.2952  1.2415
  455MOL0     H61414   3.934   9.081   2.568 -0.8453  0.1398  1.5541
  455MOL0     H61415   3.694   9.072   2.506 -5.0022  1.7667 -2.7722
  455MOL0     H61416   3.802   9.024   2.369 -1.3295 -0.8173  0.2577
  455MOL0     H61417   3.773   9.257   2.272 -1.3412 -0.5752 -2.0671
  455MOL0     H61418   3.696   9.302   2.422  1.0730 -0.2219 -1.2680
  455MOL0     H61419   3.501   9.171   2.397 -1.9129 -2.2666 -1.9522
  455MOL0     H61420   3.522   9.265   2.246  0.4955 -0.0344 -0.6450
  455MOL0     H61421   3.572   8.876   2.101  2.9888  0.9275 -0.4501
  455MOL0     H61422   4.219   9.223   2.264  1.2565  3.6535 -0.2704
  455MOL0     H61423   4.506   9.368   2.277 -1.7963  1.1763  2.3758
  455MOL0     H61424   4.568   9.223   2.360  0.1384 -0.4302 -1.6155
  455MOL0     H61425   4.468   9.203   2.222  0.3541  0.9237 -1.2074
  456MOL0     O61426   1.249   5.759   4.390 -0.3400  0.1127  0.4268
  456MOL0     C61427   1.306   5.782   4.284 -0.7341  0.1370  0.0274
  456MOL0     O61428   1.249   5.775   4.162 -0.5124 -0.1201  0.0607
  456MOL0     C61429   1.117   5.748   4.146  0.3277 -0.3149  0.8510
  456MOL0     C61430   1.014   5.813   4.215  0.3121 -0.3120  0.0333
  456MOL0     C61431   0.881   5.766   4.195  0.1070  0.4426 -0.0152
  456MOL0     C61432   0.849   5.656   4.110 -0.3650  0.3331 -1.0682
  456MOL0     O61433   0.727   5.596   4.090 -0.4751  0.6427  0.2651
  456MOL0     C61434   0.622   5.673   4.141 -0.4693 -1.4949 -0.3937
  456MOL0     C61435   0.492   5.619   4.107 -0.1622  0.2609 -0.1149
  456MOL0     C61436   0.379   5.655   4.204  0.0088 -0.2763  0.0065
  456MOL0     C61437   0.366   5.806   4.247  0.7493  0.2557 -0.0106
  456MOL0     C61438   0.219   5.842   4.289 -0.7871  0.0475 -0.7166
  456MOL0     C61439   0.208   5.992   4.303 -0.2612 -0.5301 -0.2187
  456MOL0     C61440   0.283   6.064   4.417  1.0969 -0.6758 -0.3776
  456MOL0     C61441   0.267   6.216   4.436  0.0989  0.8886 -0.7037
  456MOL0     N61442   0.324   6.271   4.558 -0.0155 -0.1969  0.1850
  456MOL0     C61443   0.398   6.208   4.650 -0.0133 -0.3714  0.1380
  456MOL0     C61444   0.433   6.305   4.744  0.1704  0.1022 -0.1857
  456MOL0     C61445   0.516   6.314   4.873 -0.1436 -0.5208  0.8302
  456MOL0     C61446   0.675   6.309   4.842  0.7659  0.0703 -0.5614
  456MOL0     C61447   0.754   6.270   4.971  0.5206 -0.2467  0.0290
  456MOL0     C61448   0.900   6.296   4.956 -0.8213  0.1442 -0.4559
  456MOL0     O61449   0.930   6.436   4.952  0.1860  0.2310  0.3121
  456MOL0     C61450   1.066   6.479   4.958 -0.3603  0.5997  0.1738
  456MOL0     C61451   1.092   6.620   4.932 -0.1127  1.0347 -1.0410
  456MOL0     C61452   1.225   6.666   4.952  1.1812 -0.7875  0.2529
  456MOL0     C61453   1.331   6.576   4.964  0.3770 -0.4784 -0.1183
  456MOL0     C61454   1.465   6.623   4.974  0.0225  0.4341 -0.4194
  456MOL0     O61455   1.476   6.753   5.029 -0.8226  0.1502  0.0093
  456MOL0     C61456   1.606   6.798   5.071 -0.2241 -0.5725  0.2190
  456MOL0     C61457   1.646   6.928   5.037 -0.1601  0.0013 -0.3773
  456MOL0     C61458   1.775   6.972   5.071  0.1399 -0.5090 -0.3415
  456MOL0     C61459   1.865   6.889   5.141 -0.4041 -0.9829  0.4607
  456MOL0     O61460   1.989   6.948   5.148 -0.2160 -0.0903 -0.0859
  456MOL0     C61461   2.074   6.921   5.264  0.1969 -0.0232  0.7858
  456MOL0     C61462   2.219   6.907   5.219  0.2885  0.0200  1.4544
  456MOL0     C61463   2.253   6.816   5.102 -0.5822  0.9170  0.5686
  456MOL0     C61464   2.198   6.672   5.140 -0.5905  0.3947  0.4128
  456MOL0     C61465   2.255   6.553   5.046  0.2574  0.3990 -0.5928
  456MOL0     C61466   2.402   6.532   5.031 -0.2316  0.0982  0.0022
  456MOL0     C61467   2.481   6.510   5.163  0.5079 -0.2378  0.0684
  456MOL0     C61468   2.621   6.463   5.138  0.4780  1.1658  0.2947
  456MOL0    Cl61469   2.616   6.304   5.049 -0.1152 -0.3950 -0.0124
  456MOL0     C61470   1.824   6.761   5.181 -0.4938  0.1742  0.3392
  456MOL0     C61471   1.696   6.721   5.143 -1.2114 -0.3688  0.3292
  456MOL0     O61472   1.559   6.552   4.939 -1.0242 -0.0863 -0.3608
  456MOL0     C61473   1.308   6.437   4.967  0.0036 -0.7151  0.7262
  456MOL0     C61474   1.173   6.394   4.974 -0.2168  0.5015 -0.0004
  456MOL0     N61475   0.379   6.413   4.688 -0.6760 -0.3567  0.2051
  456MOL0     N61476   0.318   6.401   4.581 -0.0768 -0.0368 -0.1347
  456MOL0     C61477   0.954   5.600   4.046  0.4524  0.2403 -0.7057
  456MOL0     C61478   1.085   5.644   4.063 -0.3375  0.0545 -0.3711
  456MOL0     C61479   1.454   5.808   4.281  0.2336  0.1979 -0.5313
  456MOL0     C61480   1.527   5.735   4.185  0.6420  1.1491 -0.8831
  456MOL0     C61481   1.667   5.744   4.176 -0.7960  0.1602 -0.3780
  456MOL0     C61482   1.737   5.837   4.257  0.8459  0.9622  0.4418
  456MOL0     O61483   1.874   5.858   4.260  0.1616  0.0676 -0.3399
  456MOL0     C61484   1.964   5.790   4.165  0.1972 -0.3122  0.0382
  456MOL0     C61485   1.959   5.855   4.021 -0.6296 -0.0518 -0.3004
  456MOL0     C61486   2.062   5.800   3.924  0.6689 -0.4540  0.7304
  456MOL0     C61487   2.107   5.903   3.821  0.6298  0.2818 -0.3630
  456MOL0     C61488   1.985   5.958   3.751  0.2085 -0.2484 -0.3406
  456MOL0     C61489   1.903   5.994   3.676 -0.8971 -0.2503  0.4060
  456MOL0     C61490   1.662   5.893   4.355  0.2677 -0.0742 -0.0557
  456MOL0     C61491   1.526   5.884   4.373 -0.2504 -0.0718  1.0837
  456MOL0     C61492   1.456   5.949   4.487  0.5620  0.4378  0.2015
  456MOL0     H61493   1.033   5.894   4.285 -1.1365 -1.1067  1.4018
  456MOL0     H61494   0.809   5.816   4.259  2.1361  1.5245  1.5593
  456MOL0     H61495   0.632   5.680   4.250 -2.7622 -1.0638 -0.1625
  456MOL0     H61496   0.629   5.769   4.090  2.0912 -1.2581  0.2594
  456MOL0     H61497   0.496   5.510   4.093  3.3909  0.5350 -2.6530
  456MOL0     H61498   0.454   5.662   4.014 -0.8619  1.1060  0.5399
  456MOL0     H61499   0.371   5.590   4.292 -3.4738  0.1245  0.0936
  456MOL0     H61500   0.283   5.632   4.157 -1.6215  0.7085  2.6506
  456MOL0     H61501   0.437   5.817   4.330 -0.6169 -0.0666  1.2387
  456MOL0     H61502   0.399   5.878   4.171  2.9533 -0.3335  0.3047
  456MOL0     H61503   0.148   5.795   4.220 -0.0364 -4.4126  1.2171
  456MOL0     H61504   0.193   5.796   4.384 -1.4940  1.1648 -0.3440
  456MOL0     H61505   0.240   6.032   4.206  0.1199 -0.4635 -0.0671
  456MOL0     H61506   0.102   6.020   4.308  0.2808  1.4870  1.4125
  456MOL0     H61507   0.390   6.051   4.398  0.9937  0.3956 -1.7898
  456MOL0     H61508   0.258   6.013   4.511 -2.7597  3.0036  0.9290
  456MOL0     H61509   0.316   6.266   4.352 -1.4930  2.2058 -0.9064
  456MOL0     H61510   0.163   6.248   4.428 -0.5117 -1.3252 -2.5703
  456MOL0     H61511   0.428   6.103   4.647 -3.3177 -1.4024 -1.0092
  456MOL0     H61512   0.504   6.415   4.911  0.8851  1.4755 -3.5449
  456MOL0     H61513   0.492   6.236   4.946  3.0827 -1.5041  1.0014
  456MOL0     H61514   0.699   6.243   4.759 -0.0622  0.5205 -1.1835
  456MOL0     H61515   0.716   6.404   4.806 -0.8094  0.0113 -2.7224
  456MOL0     H61516   0.741   6.161   4.973 -1.1122 -0.2314 -3.2214
  456MOL0     H61517   0.719   6.323   5.060 -0.5316 -3.8931  1.9827
  456MOL0     H61518   0.938   6.251   4.863  0.7903 -2.2728  1.2502
  456MOL0     H61519   0.961   6.246   5.032 -0.2361 -0.1774 -1.1130
  456MOL0     H61520   1.006   6.682   4.912 -1.1729  0.5578  1.6953
  456MOL0     H61521   1.246   6.772   4.953  0.2980 -0.6033  1.3147
  456MOL0     H61522   1.573   6.998   4.998 -0.0793  0.4818  0.3221
  456MOL0     H61523   1.814   7.072   5.053 -2.9898  1.1351  1.1522
  456MOL0     H61524   2.072   6.999   5.340  3.1879  2.0857 -1.0560
  456MOL0     H61525   2.043   6.826   5.309 -0.4069 -0.1127  0.1962
  456MOL0     H61526   2.235   7.008   5.182 -2.1107  0.7884  2.3496
  456MOL0     H61527   2.293   6.881   5.296  0.1360 -1.1939  1.2110
  456MOL0     H61528   2.205   6.858   5.013  0.3245 -2.3521 -1.6907
  456MOL0     H61529   2.358   6.818   5.072 -0.5447  2.8019  0.6940
  456MOL0     H61530   2.089   6.680   5.147 -0.6890 -0.7206  0.2047
  456MOL0     H61531   2.232   6.638   5.238  2.7003  2.0925  0.0196
  456MOL0     H61532   2.216   6.581   4.947 -2.5980  1.2090  0.6403
  456MOL0     H61533   2.203   6.461   5.073 -0.9112  1.5949  1.5215
  456MOL0     H61534   2.413   6.443   4.968  2.1608  0.5020 -0.2633
  456MOL0     H61535   2.445   6.619   4.982 -4.0677  2.2998  0.2058
  456MOL0     H61536   2.431   6.429   5.217  0.4189 -0.6554 -0.6276
  456MOL0     H61537   2.471   6.595   5.232 -1.9249 -0.0130 -0.4838
  456MOL0     H61538   2.674   6.544   5.088  1.3292  1.6293  1.8541
  456MOL0     H61539   2.675   6.449   5.232 -1.6071 -1.7079  1.2207
  456MOL0     H61540   1.889   6.689   5.231  0.5513 -0.4276 -1.7553
  456MOL0     H61541   1.655   6.620   5.152  0.5367 -1.3640 -1.9363
  456MOL0     H61542   1.392   6.368   4.971 -0.0325 -0.7056  2.5077
  456MOL0     H61543   1.162   6.287   4.961  0.3283  0.5545 -1.0473
  456MOL0     H61544   0.935   5.510   3.989  0.7930 -1.1619  1.2869
  456MOL0     H61545   1.169   5.603   4.006 -2.0672 -2.2667 -1.4348
  456MOL0     H61546   1.480   5.674   4.109 -1.2946  0.4817  0.7957
  456MOL0     H61547   1.719   5.689   4.099  0.5427  1.6154 -0.5539
  456MOL0     H61548   1.951   5.683   4.148 -0.0485 -0.0744 -1.3180
  456MOL0     H61549   2.066   5.796   4.204 -0.8642 -1.1350  3.2326
  456MOL0     H61550   1.981   5.959   4.049 -1.0279  0.5543 -2.1166
  456MOL0     H61551   1.864   5.852   3.968 -0.8151  0.0089  0.0254
  456MOL0     H61552   2.012   5.708   3.892  0.1366 -0.1870  0.7918
  456MOL0     H61553   2.158   5.780   3.973  1.5899  0.5517 -0.5904
  456MOL0     H61554   2.161   5.982   3.874  1.0267  1.2882 -2.1914
  456MOL0     H61555   2.177   5.859   3.749  1.5431 -1.1305  1.2999
  456MOL0     H61556   1.836   6.007   3.594 -0.9127  2.4245  0.7372
  456MOL0     H61557   1.713   5.958   4.426 -3.7538  2.2503  1.0014
  456MOL0     H61558   1.363   5.994   4.452 -0.3934 -0.3203  1.6683
  456MOL0     H61559   1.420   5.881   4.565 -0.2464 -0.3424 -0.8338
  456MOL0     H61560   1.523   6.022   4.535 -2.7477  3.6376  0.4136
  457MOL0     O61561  10.762   5.742   1.211  0.3808  0.2335  0.4607
  457MOL0     C61562  10.832   5.762   1.112 -0.1357  0.6483 -0.7505
  457MOL0     O61563  10.804   5.728   0.983 -0.5456  0.5096 -0.6251
  457MOL0     C61564  10.681   5.667   0.949 -0.2504 -0.3847 -0.5649
  457MOL0     C61565  10.557   5.711   0.990 -0.7229  0.1516 -0.4258
  457MOL0     C61566  10.446   5.631   0.951  0.1648 -0.7399  0.0912
  457MOL0     C61567  10.456   5.523   0.864 -0.5290  0.2082  0.6879
  457MOL0     O61568  10.345   5.463   0.807  0.0839 -0.3340 -0.0861
  457MOL0     C61569  10.229   5.548   0.788 -0.9577  0.0811  0.3220
  457MOL0     C61570  10.142   5.474   0.689  0.0682 -0.7205  0.3143
  457MOL0     C61571  10.017   5.563   0.661 -0.9933  0.2821 -0.0295
  457MOL0     C61572   9.941   5.474   0.562  0.4237  0.6509  0.4865
  457MOL0     C61573   9.803   5.526   0.518  0.1901  0.2205  0.0151
  457MOL0     C61574   9.689   5.528   0.627 -0.3785 -0.6916  0.0656
  457MOL0     C61575   9.656   5.398   0.687  0.2933  0.1558  0.3194
  457MOL0     C61576   9.552   5.399   0.799 -0.5883 -0.9281 -0.0525
  457MOL0     N61577   9.533   5.267   0.868 -0.2005  0.3022  0.3391
  457MOL0     C61578   9.599   5.154   0.844 -0.6478 -0.2435  0.4249
  457MOL0     C61579   9.556   5.074   0.946  0.3215  0.6141 -0.1135
  457MOL0     C61580   9.589   4.930   0.964  0.0404  0.1508  0.4776
  457MOL0     C61581   9.673   4.910   1.093 -0.4030  1.1949  0.2326
  457MOL0     C61582   9.734   4.767   1.075 -0.9626 -0.0045 -0.3397
  457MOL0     C61583   9.843   4.737   1.172  0.4354 -0.4418  0.2702
  457MOL0     O61584   9.961   4.809   1.135  0.2885 -0.4005  0.3228
  457MOL0     C61585  10.078   4.792   1.208 -0.0605 -0.2271 -0.7498
  457MOL0     C61586  10.199   4.845   1.169 -1.1081  0.1773 -0.5447
  457MOL0     C61587  10.318   4.841   1.245  0.9533  0.0043  0.0217
  457MOL0     C61588  10.324   4.772   1.365 -0.2515 -0.0475 -0.2226
  457MOL0     C61589  10.438   4.774   1.462 -0.2723 -0.6042  0.3656
  457MOL0     O61590  10.505   4.895   1.459  0.4024  1.0006  0.3804
  457MOL0     C61591  10.613   4.924   1.535 -0.2550 -0.4349 -0.1646
  457MOL0     C61592  10.607   4.920   1.675  0.1242  0.4125 -0.3899
  457MOL0     C61593  10.720   4.945   1.754  0.1057 -0.4087 -0.1460
  457MOL0     C61594  10.839   4.979   1.696 -0.5973  1.0118  0.0026
  457MOL0     O61595  10.943   4.989   1.791 -0.5031  0.3339 -0.5460
  457MOL0     C61596  11.062   5.061   1.756  0.2267  0.6518 -0.0822
  457MOL0     C61597  11.171   5.016   1.849 -0.2415 -0.2225  0.3393
  457MOL0     C61598  11.304   5.049   1.785 -0.4037 -0.7966 -0.0997
  457MOL0     C61599  11.409   5.043   1.884 -0.8279 -0.2353 -0.0353
  457MOL0     C61600  11.545   5.082   1.829  0.6414 -0.5587 -0.6406
  457MOL0     C61601  11.618   4.978   1.741  0.0518 -0.0013 -0.5464
  457MOL0     C61602  11.762   5.023   1.703 -0.4356  0.0845 -0.7369
  457MOL0     C61603  11.842   4.890   1.664 -0.0278 -0.1671 -0.3658
  457MOL0    Cl61604  12.004   4.936   1.635 -0.4250  0.1401 -0.3975
  457MOL0     C61605  10.852   4.986   1.557  0.0720  0.6280 -0.5048
  457MOL0     C61606  10.740   4.962   1.475  0.0524  0.0318  0.5500
  457MOL0     O61607  10.473   4.672   1.524  0.7517 -0.2780 -0.4338
  457MOL0     C61608  10.203   4.711   1.407 -0.4992 -0.4270  1.0784
  457MOL0     C61609  10.083   4.729   1.339  0.5038  0.4777  0.9121
  457MOL0     N61610   9.460   5.137   1.018  0.0939 -0.9597 -0.3794
  457MOL0     N61611   9.451   5.265   0.979 -0.0645 -1.0501 -0.2145
  457MOL0     C61612  10.582   5.491   0.815 -0.4333 -0.8715 -0.1973
  457MOL0     C61613  10.692   5.554   0.872 -0.2187 -0.6100  0.0813
  457MOL0     C61614  10.970   5.819   1.127 -0.3294  0.5349 -0.1534
  457MOL0     C61615  11.057   5.825   1.009 -0.1381 -0.0789 -0.7899
  457MOL0     C61616  11.174   5.888   1.012 -0.9930  0.0008 -0.1285
  457MOL0     C61617  11.233   5.939   1.128  0.5435 -0.4478 -1.2156
  457MOL0     O61618  11.354   5.995   1.138  0.3052 -0.2943 -0.0182
  457MOL0     C61619  11.453   5.992   1.029 -0.5932  1.2909 -0.7564
  457MOL0     C61620  11.600   6.012   1.090 -0.1251 -0.4716  0.0427
  457MOL0     C61621  11.617   5.946   1.229  0.1449  0.3298 -0.0443
  457MOL0     C61622  11.756   5.933   1.278  0.1500 -0.5561  0.3075
  457MOL0     C61623  11.839   6.062   1.262  0.2038  0.5171 -0.4322
  457MOL0     C61624  11.924   6.148   1.248  0.9882 -0.5265 -0.1396
  457MOL0     C61625  11.155   5.917   1.244  0.1481 -0.4242 -0.0432
  457MOL0     C61626  11.026   5.866   1.244  0.1673  0.4968 -0.4541
  457MOL0     C61627  10.950   5.859   1.379 -0.7342  0.2677  0.2467
  457MOL0     H61628  10.554   5.793   1.061  3.7913 -2.1156  2.8827
  457MOL0     H61629  10.352   5.655   0.999  0.1184  2.1602 -1.2462
  457MOL0     H61630  10.184   5.572   0.885  0.6260  1.1775  0.8327
  457MOL0     H61631  10.261   5.645   0.748 -0.4765  0.3875  1.4073
  457MOL0     H61632  10.113   5.379   0.734  1.3336 -2.2174 -1.8423
  457MOL0     H61633  10.198   5.457   0.597 -1.6473  0.2077 -0.9699
  457MOL0     H61634  10.040   5.660   0.617 -3.8863  1.1916  0.2422
  457MOL0     H61635   9.955   5.576   0.750 -0.5590  0.7699  0.2057
  457MOL0     H61636  10.005   5.463   0.474  2.0529  1.0200  1.5923
  457MOL0     H61637   9.930   5.370   0.594 -1.5971  1.1119  1.4599
  457MOL0     H61638   9.825   5.623   0.472  2.8940 -0.0544  0.6077
  457MOL0     H61639   9.778   5.463   0.432  2.3591 -1.9188  0.8405
  457MOL0     H61640   9.683   5.608   0.702 -3.1567  2.0427 -2.7791
  457MOL0     H61641   9.593   5.557   0.583 -3.5430 -2.7515  4.7687
  457MOL0     H61642   9.748   5.346   0.716 -0.3420 -0.2175  1.7742
  457MOL0     H61643   9.609   5.333   0.613 -1.2440 -0.1643  1.5193
  457MOL0     H61644   9.582   5.474   0.873 -3.0380 -1.1604  1.2957
  457MOL0     H61645   9.453   5.423   0.758 -0.1651 -1.0420 -1.1739
  457MOL0     H61646   9.661   5.135   0.758  1.1931  1.4710  1.2966
  457MOL0     H61647   9.493   4.878   0.974  0.0547 -0.2008 -0.9328
  457MOL0     H61648   9.646   4.888   0.881 -1.5170 -1.8287  0.3005
  457MOL0     H61649   9.754   4.984   1.101  1.4554 -0.5926 -0.9065
  457MOL0     H61650   9.616   4.910   1.186  2.5452  1.9568  2.1936
  457MOL0     H61651   9.773   4.740   0.977  1.2676 -1.1930  0.7973
  457MOL0     H61652   9.654   4.697   1.099  0.3754 -1.2763  0.5764
  457MOL0     H61653   9.873   4.632   1.171 -0.1625 -0.7034  2.6322
  457MOL0     H61654   9.818   4.746   1.278  2.5696  2.8040  0.6349
  457MOL0     H61655  10.205   4.895   1.073  0.3959  1.0180 -0.0376
  457MOL0     H61656  10.398   4.907   1.213  0.8352  1.2143  2.0632
  457MOL0     H61657  10.515   4.875   1.711 -2.5565  0.7982 -5.6877
  457MOL0     H61658  10.716   4.941   1.863  0.0843  1.3110 -0.0524
  457MOL0     H61659  11.085   5.043   1.651 -0.3075  2.4745 -0.5492
  457MOL0     H61660  11.055   5.170   1.766  4.1901  0.8869  3.3318
  457MOL0     H61661  11.155   5.061   1.947 -0.0636  0.6616 -0.0359
  457MOL0     H61662  11.174   4.906   1.854  3.0342 -0.1894  1.7652
  457MOL0     H61663  11.315   4.987   1.695 -2.7652 -1.0504 -0.2674
  457MOL0     H61664  11.314   5.155   1.760  0.6528 -0.5687  1.1865
  457MOL0     H61665  11.418   4.937   1.910  0.5386 -0.1638 -0.1095
  457MOL0     H61666  11.398   5.099   1.977  1.3849  0.9562 -0.4300
  457MOL0     H61667  11.603   5.087   1.922  1.0480  0.7730 -0.9388
  457MOL0     H61668  11.534   5.174   1.771 -1.1613 -0.8753 -0.8553
  457MOL0     H61669  11.621   4.882   1.792 -0.0372 -0.4528 -1.3700
  457MOL0     H61670  11.562   4.955   1.649 -0.3936 -0.8680 -0.0749
  457MOL0     H61671  11.822   5.068   1.781 -1.0495  1.2343 -0.9043
  457MOL0     H61672  11.759   5.104   1.629 -1.5554  2.3473  1.6330
  457MOL0     H61673  11.823   4.806   1.732 -0.0714 -0.1648 -0.3751
  457MOL0     H61674  11.806   4.848   1.570 -1.1015 -0.6895  0.2532
  457MOL0     H61675  10.942   5.019   1.506  0.1439 -1.4238 -1.7910
  457MOL0     H61676  10.740   4.967   1.366 -0.8546  1.7859  0.6079
  457MOL0     H61677  10.203   4.656   1.501  3.3700 -2.5335  0.0540
  457MOL0     H61678   9.989   4.692   1.379 -1.2296  1.7846 -1.5942
  457MOL0     H61679  10.607   5.409   0.748  1.0152 -0.4967 -0.1440
  457MOL0     H61680  10.791   5.520   0.842 -1.2481 -1.5524 -2.5173
  457MOL0     H61681  11.018   5.785   0.916 -2.9501  1.0695 -0.1995
  457MOL0     H61682  11.229   5.897   0.919  1.4918  1.2090  1.3525
  457MOL0     H61683  11.434   6.067   0.952 -3.7783  0.8554 -0.5131
  457MOL0     H61684  11.454   5.894   0.981  0.2620  1.2498 -0.6769
  457MOL0     H61685  11.610   6.120   1.107 -0.0970  0.4442 -4.5876
  457MOL0     H61686  11.673   5.977   1.017 -0.4412  0.9528 -1.0257
  457MOL0     H61687  11.570   5.848   1.219  0.4130  0.2142 -0.1998
  457MOL0     H61688  11.556   6.009   1.294  1.9992  2.3663 -0.1439
  457MOL0     H61689  11.750   5.910   1.384 -1.1805 -0.4587  0.2737
  457MOL0     H61690  11.796   5.853   1.214 -1.8223 -0.7763 -0.7411
  457MOL0     H61691  11.988   6.228   1.217 -0.3221 -0.3379 -2.6388
  457MOL0     H61692  11.196   5.959   1.335 -1.0410  2.9004 -0.8708
  457MOL0     H61693  10.859   5.919   1.377 -0.0850  1.2853 -2.0614
  457MOL0     H61694  10.936   5.752   1.397  1.1505  0.2642  2.1624
  457MOL0     H61695  11.012   5.891   1.463  1.4876 -0.5318 -0.9960
  458MOL0     O61696   9.709  10.950   8.080  0.0271  0.4150  0.2936
  458MOL0     C61697   9.601  10.999   8.041  0.6725  1.2033 -0.5106
  458MOL0     O61698   9.578  11.127   8.010  0.3060  0.3447 -0.2543
  458MOL0     C61699   9.681  11.213   8.021  0.8970  0.2329 -0.3670
  458MOL0     C61700   9.790  11.206   7.928  0.4359 -0.4627  0.7104
  458MOL0     C61701   9.882  11.313   7.927  0.1108  0.1840  0.3106
  458MOL0     C61702   9.886  11.406   8.032  0.1709 -0.5161  0.7388
  458MOL0     O61703   9.983  11.502   8.039 -0.1800 -0.2110  1.0894
  458MOL0     C61704   9.929  11.633   8.017  0.1961 -0.0116 -0.5428
  458MOL0     C61705  10.044  11.741   8.015 -0.2287 -0.4067 -0.6928
  458MOL0     C61706  10.136  11.721   7.895  0.4599 -0.3572  0.6897
  458MOL0     C61707  10.221  11.847   7.878 -0.2938 -0.4527  0.8250
  458MOL0     C61708  10.338  11.809   7.787 -0.8624  0.2609 -0.0384
  458MOL0     C61709  10.424  11.923   7.745  0.3604 -0.7592  0.2564
  458MOL0     C61710  10.388  11.970   7.602 -0.8657 -0.7251  0.0230
  458MOL0     C61711  10.494  12.048   7.526  0.1998  0.0023 -0.9637
  458MOL0     N61712  10.619  11.976   7.507  0.8206  0.5400  0.0026
  458MOL0     C61713  10.749  12.023   7.524  0.0015  0.2329  0.4534
  458MOL0     C61714  10.831  11.932   7.469  0.4039  0.7146  0.0276
  458MOL0     C61715  10.983  11.930   7.487 -0.6658 -0.0961 -0.4521
  458MOL0     C61716  11.032  11.891   7.626  0.2599 -0.0439 -0.4043
  458MOL0     C61717  11.170  11.949   7.658 -0.2038  0.5117  0.4699
  458MOL0     C61718  11.276  11.904   7.562 -0.1022  0.5319  0.0051
  458MOL0     O61719  11.393  11.985   7.610  0.1457  0.0507 -0.1738
  458MOL0     C61720  11.515  11.958   7.550 -1.0978  0.1200  0.2662
  458MOL0     C61721  11.557  11.829   7.517  0.2872 -0.2237  0.5234
  458MOL0     C61722  11.681  11.812   7.463  0.6529 -0.4792  0.2347
  458MOL0     C61723  11.758  11.925   7.431 -0.2640  0.3934 -0.0857
  458MOL0     C61724  11.881  11.900   7.364 -0.0229  0.2798 -0.5826
  458MOL0     O61725  11.947  11.791   7.411  0.6636 -0.0318  0.3727
  458MOL0     C61726  12.048  11.731   7.342 -0.1738  0.4580 -0.1875
  458MOL0     C61727  12.078  11.746   7.203  0.1305  0.4181  0.6559
  458MOL0     C61728  12.179  11.668   7.137  0.6688  1.1084  0.5365
  458MOL0     C61729  12.262  11.583   7.213 -0.3121  0.1786 -0.2032
  458MOL0     O61730  12.358  11.502   7.156 -0.2292  0.3619 -0.4170
  458MOL0     C61731  12.392  11.513   7.018 -0.9432  0.1970 -0.8488
  458MOL0     C61732  12.530  11.440   6.994  0.7906 -0.3002 -0.2306
  458MOL0     C61733  12.578  11.430   6.851  0.1526 -0.1026 -0.0543
  458MOL0     C61734  12.520  11.307   6.775 -0.6552 -0.0956 -0.0015
  458MOL0     C61735  12.573  11.316   6.626 -0.3095  0.7840 -0.0434
  458MOL0     C61736  12.503  11.206   6.541 -0.9114 -0.6548  0.6482
  458MOL0     C61737  12.491  11.070   6.601 -0.6278 -0.2631  0.3481
  458MOL0     C61738  12.406  10.975   6.522 -0.2099 -0.9688  0.5970
  458MOL0    Cl61739  12.254  11.029   6.438  0.1930  0.5185 -0.3211
  458MOL0     C61740  12.241  11.584   7.357 -0.5344 -0.2048  0.6249
  458MOL0     C61741  12.134  11.653   7.418 -1.9880  0.5933 -1.1254
  458MOL0     O61742  11.910  11.973   7.269 -0.2808 -0.4486 -0.1955
  458MOL0     C61743  11.721  12.055   7.465 -0.2046 -0.0660  0.6875
  458MOL0     C61744  11.604  12.071   7.526 -1.2002  0.1592 -0.0679
  458MOL0     N61745  10.758  11.823   7.422 -0.0670  0.0532 -0.2759
  458MOL0     N61746  10.634  11.849   7.449  0.2589 -0.4211  0.6141
  458MOL0     C61747   9.781  11.405   8.130  0.0138  0.4310  0.1445
  458MOL0     C61748   9.680  11.309   8.116  0.2466  0.6138  0.2910
  458MOL0     C61749   9.485  10.904   8.016  1.0434 -0.3093 -0.5554
  458MOL0     C61750   9.368  10.952   7.962  0.9081  0.0877  0.5835
  458MOL0     C61751   9.246  10.879   7.939  0.2840 -0.3474 -0.4628
  458MOL0     C61752   9.239  10.746   7.975 -0.1381  0.0740  0.3865
  458MOL0     O61753   9.124  10.673   7.959  0.1189  0.1615  0.4777
  458MOL0     C61754   9.140  10.533   7.976 -0.1319  0.5104  0.3508
  458MOL0     C61755   9.015  10.463   7.944 -0.2807  0.2567 -0.4086
  458MOL0     C61756   9.011  10.430   7.793  0.8872 -0.0841 -0.2933
  458MOL0     C61757   8.908  10.322   7.774 -0.4904 -0.3047  0.5056
  458MOL0     C61758   8.775  10.342   7.837  0.0039 -0.4851 -0.2607
  458MOL0     C61759   8.662  10.340   7.887  0.0489  0.5265  0.7354
  458MOL0     C61760   9.357  10.695   8.039  0.2351 -0.2665  0.3753
  458MOL0     C61761   9.479  10.770   8.054  0.1941 -0.6205 -0.3765
  458MOL0     C61762   9.588  10.700   8.140 -0.1300  0.4602 -0.4278
  458MOL0     H61763   9.792  11.127   7.854 -1.1994 -1.0577  1.2562
  458MOL0     H61764   9.963  11.319   7.855  0.3306  3.5672  0.6893
  458MOL0     H61765   9.874  11.648   7.923 -0.0866 -1.7593 -0.6784
  458MOL0     H61766   9.855  11.655   8.095 -0.6827 -0.0687 -1.3358
  458MOL0     H61767  10.099  11.735   8.109 -0.8932  0.3797 -0.2373
  458MOL0     H61768  10.005  11.844   8.015 -1.3533 -0.7699  1.7727
  458MOL0     H61769  10.067  11.715   7.809  0.8344  1.6959  0.2076
  458MOL0     H61770  10.203  11.635   7.904  0.3118 -0.4904  0.5351
  458MOL0     H61771  10.169  11.935   7.838  0.2002 -0.6483 -0.3020
  458MOL0     H61772  10.267  11.861   7.976  0.8176 -0.8208  0.3702
  458MOL0     H61773  10.395  11.735   7.844 -0.8473  0.2115 -0.1166
  458MOL0     H61774  10.300  11.752   7.701 -0.6638 -2.1986  1.3853
  458MOL0     H61775  10.424  12.011   7.810  1.8165 -0.4180 -0.1586
  458MOL0     H61776  10.530  11.893   7.744  1.1355  1.7012 -1.5832
  458MOL0     H61777  10.298  12.031   7.605 -1.4832 -1.6017 -0.0591
  458MOL0     H61778  10.362  11.883   7.540 -2.0986 -1.3724  1.3694
  458MOL0     H61779  10.457  12.076   7.427  0.1217 -1.9845 -1.5510
  458MOL0     H61780  10.517  12.146   7.569  1.8787  0.4798 -2.8133
  458MOL0     H61781  10.774  12.118   7.570  2.3830  0.1897 -0.6289
  458MOL0     H61782  11.025  11.864   7.411 -0.4047  1.7234 -1.9467
  458MOL0     H61783  11.021  12.028   7.457  1.1598 -1.1490 -1.7799
  458MOL0     H61784  10.968  11.945   7.696  1.9213  1.7784 -0.1774
  458MOL0     H61785  11.020  11.783   7.633  0.5122  0.0342  1.9360
  458MOL0     H61786  11.201  11.918   7.759 -0.3118  0.4184  0.4748
  458MOL0     H61787  11.167  12.058   7.653  0.5419  0.7491  3.1545
  458MOL0     H61788  11.261  11.924   7.456  2.5578  1.3307 -0.2915
  458MOL0     H61789  11.292  11.797   7.580  1.3016  1.1051  2.9064
  458MOL0     H61790  11.485  11.751   7.539  1.0771 -1.1450 -0.0318
  458MOL0     H61791  11.726  11.718   7.429  3.2502  0.7783 -0.0907
  458MOL0     H61792  12.011  11.802   7.138  0.4298 -0.7307 -0.6920
  458MOL0     H61793  12.180  11.668   7.029 -3.3988 -1.9982  0.2694
  458MOL0     H61794  12.315  11.463   6.959  0.5523  0.2401 -2.9612
  458MOL0     H61795  12.401  11.617   6.985 -1.4508  1.6483  3.0826
  458MOL0     H61796  12.602  11.497   7.054 -0.6831  0.1191  1.2346
  458MOL0     H61797  12.509  11.343   7.042 -0.0181  0.7698  1.7091
  458MOL0     H61798  12.542  11.523   6.806  2.5745  0.6766 -0.5367
  458MOL0     H61799  12.686  11.439   6.845  0.0412  0.9109 -0.7103
  458MOL0     H61800  12.411  11.306   6.781 -0.8225  4.0904  0.2732
  458MOL0     H61801  12.570  11.226   6.829  3.0896  2.6070  1.0094
  458MOL0     H61802  12.680  11.292   6.620 -0.2460  0.8724  0.7000
  458MOL0     H61803  12.555  11.418   6.589 -1.3447  0.5479 -0.2292
  458MOL0     H61804  12.399  11.237   6.529 -1.4554 -2.1814  1.2135
  458MOL0     H61805  12.553  11.197   6.444  0.3434 -3.3062  1.4462
  458MOL0     H61806  12.443  11.072   6.700 -1.5912 -0.8355 -0.0910
  458MOL0     H61807  12.591  11.028   6.616  0.2374  1.3135 -0.7307
  458MOL0     H61808  12.468  10.933   6.444  0.5808  0.5704  0.3517
  458MOL0     H61809  12.386  10.892   6.590 -1.4595 -0.5300  0.8046
  458MOL0     H61810  12.300  11.519   7.420  0.2034  0.3408  0.5100
  458MOL0     H61811  12.115  11.635   7.524  0.2384  0.5053 -0.6924
  458MOL0     H61812  11.788  12.137   7.441 -0.6879 -0.3423 -1.8956
  458MOL0     H61813  11.578  12.171   7.558  0.2685  0.0937  1.4901
  458MOL0     H61814   9.780  11.480   8.209  2.7071 -0.2753  0.9351
  458MOL0     H61815   9.598  11.312   8.187  1.5415 -1.4561  2.0015
  458MOL0     H61816   9.355  11.058   7.942  0.2824 -0.4480 -2.2706
  458MOL0     H61817   9.158  10.929   7.900  0.4807  0.7361  0.4103
  458MOL0     H61818   9.155  10.528   8.084  2.1745 -0.8554  0.0375
  458MOL0     H61819   9.231  10.492   7.932  0.1316  1.2876  0.1410
  458MOL0     H61820   8.930  10.522   7.978 -2.1005 -1.6300 -1.3989
  458MOL0     H61821   9.024  10.373   8.006 -0.4473  0.1173 -0.5836
  458MOL0     H61822   9.108  10.394   7.758  0.9440  0.1029 -0.3243
  458MOL0     H61823   8.962  10.509   7.735  0.8955  1.0638  1.1998
  458MOL0     H61824   8.894  10.332   7.666  4.9523 -0.2333 -0.4957
  458MOL0     H61825   8.944  10.221   7.796  2.4644  0.3225 -0.9514
  458MOL0     H61826   8.559  10.331   7.916  0.3138 -1.6158  1.1970
  458MOL0     H61827   9.367  10.592   8.073 -1.4890 -0.7249 -0.3861
  458MOL0     H61828   9.589  10.733   8.244 -0.1909 -0.2966 -0.1773
  458MOL0     H61829   9.566  10.593   8.140  0.3058  0.3691  0.0792
  458MOL0     H61830   9.689  10.715   8.100 -0.0290  3.7773  0.8062
  459MOL0     O61831   7.156   5.500   1.732 -0.1522 -0.4129  0.2041
  459MOL0     C61832   7.118   5.612   1.708 -0.2711 -0.4495 -0.1623
  459MOL0     O61833   7.205   5.715   1.681 -0.1533 -0.2128  0.1668
  459MOL0     C61834   7.331   5.699   1.618 -0.2936 -0.3551 -0.2148
  459MOL0     C61835   7.360   5.603   1.526 -0.0239  1.1410  0.5120
  459MOL0     C61836   7.476   5.613   1.452 -0.6928  0.1865  0.4509
  459MOL0     C61837   7.577   5.710   1.470  0.5075 -0.3207 -0.0080
  459MOL0     O61838   7.690   5.714   1.396  0.1326  0.6024 -0.0616
  459MOL0     C61839   7.807   5.766   1.456 -0.1615 -0.6376  0.5502
  459MOL0     C61840   7.929   5.733   1.368  1.1560  0.6175  0.8776
  459MOL0     C61841   7.971   5.586   1.376  0.0787  0.6826 -0.0718
  459MOL0     C61842   8.082   5.547   1.281 -0.0764  0.5376  0.3155
  459MOL0     C61843   8.210   5.610   1.326 -0.9262  0.5338 -0.6118
  459MOL0     C61844   8.269   5.548   1.452 -0.1436  1.2189  0.2718
  459MOL0     C61845   8.421   5.579   1.470  0.5060 -0.2580  0.5659
  459MOL0     C61846   8.503   5.481   1.386 -0.1900 -0.6884  0.9542
  459MOL0     N61847   8.650   5.509   1.393  0.2847 -0.4929  0.1474
  459MOL0     C61848   8.729   5.519   1.498 -0.1427 -0.0181 -0.0792
  459MOL0     C61849   8.847   5.536   1.443 -0.0716  0.2087  0.0323
  459MOL0     C61850   8.980   5.537   1.509 -0.6917 -0.0561  0.2469
  459MOL0     C61851   9.072   5.646   1.446  0.0462 -0.8103  0.3757
  459MOL0     C61852   9.012   5.792   1.485  0.1906 -0.3133 -0.5725
  459MOL0     C61853   9.056   5.904   1.387  0.1902  0.0318  0.1125
  459MOL0     O61854   9.002   6.033   1.437  0.2833 -0.0273  0.2668
  459MOL0     C61855   9.096   6.132   1.457  1.2204 -0.1264  0.0511
  459MOL0     C61856   9.230   6.111   1.498  0.1892  0.2989 -0.2411
  459MOL0     C61857   9.323   6.219   1.512 -0.0778 -0.3249 -0.8061
  459MOL0     C61858   9.290   6.343   1.460 -0.8628 -0.4823  0.8284
  459MOL0     C61859   9.388   6.447   1.455 -0.9101 -0.1152  1.0802
  459MOL0     O61860   9.514   6.413   1.501  0.2200 -0.3090 -0.0425
  459MOL0     C61861   9.613   6.492   1.484 -0.5863 -0.2347  0.4582
  459MOL0     C61862   9.657   6.578   1.585 -1.0375  0.0285  0.0082
  459MOL0     C61863   9.768   6.675   1.571 -0.4155 -0.4659  0.2654
  459MOL0     C61864   9.845   6.673   1.449  0.1861  0.2632 -0.5737
  459MOL0     O61865   9.958   6.753   1.425 -0.3380  1.0593 -0.3598
  459MOL0     C61866   9.948   6.889   1.455 -0.3368  0.0236  0.0428
  459MOL0     C61867  10.021   6.956   1.340 -0.7251 -0.4508 -0.9498
  459MOL0     C61868  10.168   6.906   1.317  0.3693  0.7475 -0.5545
  459MOL0     C61869  10.244   6.980   1.207  0.9618  0.0570 -0.3026
  459MOL0     C61870  10.290   7.117   1.251  0.0351 -0.0531  0.1151
  459MOL0     C61871  10.391   7.106   1.370  0.3406 -0.1625 -0.3892
  459MOL0     C61872  10.402   7.249   1.433  0.1443 -0.3000 -1.0415
  459MOL0     C61873  10.501   7.252   1.550 -0.0661 -0.1179 -0.4702
  459MOL0    Cl61874  10.658   7.206   1.477 -0.0710 -0.6576  0.3896
  459MOL0     C61875   9.797   6.593   1.354  0.2823 -0.2931  0.0342
  459MOL0     C61876   9.685   6.500   1.369 -0.1095 -0.2761  0.8229
  459MOL0     O61877   9.358   6.555   1.400  0.6747  0.1910  0.7274
  459MOL0     C61878   9.152   6.368   1.422  0.0078  0.9234  0.7458
  459MOL0     C61879   9.054   6.263   1.439  0.0876  0.1422  0.7535
  459MOL0     N61880   8.833   5.533   1.311  0.4232  0.0698  0.0444
  459MOL0     N61881   8.716   5.533   1.282 -0.6907 -0.5025  0.3283
  459MOL0     C61882   7.543   5.802   1.564  0.0282  0.2405 -0.5922
  459MOL0     C61883   7.429   5.797   1.636  0.8970 -0.6731 -0.4392
  459MOL0     C61884   6.978   5.641   1.703  0.0295 -0.0943 -0.0506
  459MOL0     C61885   6.941   5.773   1.663  0.5423  0.2700 -0.2543
  459MOL0     C61886   6.805   5.811   1.673 -0.0645 -0.4400  0.0869
  459MOL0     C61887   6.706   5.733   1.698 -1.2220  0.0578  1.0309
  459MOL0     O61888   6.583   5.785   1.679  0.4278 -0.1630  0.1826
  459MOL0     C61889   6.473   5.702   1.636 -0.7035 -0.7885 -0.2477
  459MOL0     C61890   6.349   5.784   1.586 -0.3202 -0.6216  0.1530
  459MOL0     C61891   6.303   5.882   1.689  0.6763  0.5989  0.3591
  459MOL0     C61892   6.151   5.916   1.675 -0.5464 -0.3070  0.4650
  459MOL0     C61893   6.118   6.005   1.783 -0.2489  0.5643 -0.4106
  459MOL0     C61894   6.119   6.092   1.865  0.9199  0.2899  0.3530
  459MOL0     C61895   6.737   5.597   1.713  0.1106  0.6063 -0.0853
  459MOL0     C61896   6.870   5.553   1.737  0.9765  0.2744 -0.6318
  459MOL0     C61897   6.897   5.413   1.770  0.1349  0.1138 -0.6285
  459MOL0     H61898   7.288   5.524   1.508  1.7647 -0.8994  1.8191
  459MOL0     H61899   7.494   5.551   1.365 -4.0057 -1.0342  0.4986
  459MOL0     H61900   7.799   5.873   1.477  2.3850 -0.8182  3.0215
  459MOL0     H61901   7.824   5.729   1.557 -1.6449  2.8867  2.2549
  459MOL0     H61902   8.019   5.793   1.385  3.1745 -1.6962 -1.0005
  459MOL0     H61903   7.898   5.755   1.265 -1.3382 -1.3158  1.1218
  459MOL0     H61904   7.889   5.516   1.354  1.6857 -1.6914  1.0422
  459MOL0     H61905   7.989   5.553   1.478 -0.5220 -4.8278 -1.3746
  459MOL0     H61906   8.093   5.438   1.281 -0.9477  0.3756  2.8850
  459MOL0     H61907   8.068   5.587   1.181 -0.1961  0.5763  0.3484
  459MOL0     H61908   8.286   5.595   1.249  3.0109 -0.2120  2.9935
  459MOL0     H61909   8.202   5.716   1.349 -0.6727 -0.2592  4.2633
  459MOL0     H61910   8.216   5.573   1.544 -2.1802  1.2069 -0.8156
  459MOL0     H61911   8.249   5.441   1.443  1.8004  0.8180  0.4781
  459MOL0     H61912   8.439   5.577   1.578  0.3831  0.4496  0.6032
  459MOL0     H61913   8.436   5.683   1.439 -1.6098  0.2606  1.1265
  459MOL0     H61914   8.490   5.380   1.426  2.1258 -1.8288 -0.9106
  459MOL0     H61915   8.461   5.487   1.285 -0.3995 -2.2054  0.9383
  459MOL0     H61916   8.711   5.499   1.603 -0.0898 -1.8208 -0.3797
  459MOL0     H61917   8.964   5.569   1.612 -4.0179 -0.5876 -0.0003
  459MOL0     H61918   9.019   5.436   1.491 -2.6350 -0.9304  0.7534
  459MOL0     H61919   9.171   5.639   1.491  0.5023  1.1945 -0.2198
  459MOL0     H61920   9.072   5.635   1.338  0.6060  1.7814  0.0300
  459MOL0     H61921   9.024   5.823   1.589 -1.1206 -0.5171 -0.3383
  459MOL0     H61922   8.903   5.793   1.493  0.2492  1.0072  0.2617
  459MOL0     H61923   9.004   5.878   1.294 -0.4750 -0.2089  0.5380
  459MOL0     H61924   9.164   5.907   1.371  0.6671 -1.4096  2.4481
  459MOL0     H61925   9.266   6.011   1.519  0.7935  1.0221  2.5290
  459MOL0     H61926   9.422   6.196   1.549 -0.2176 -0.9553 -0.8223
  459MOL0     H61927   9.604   6.569   1.679  0.0011 -0.2040  0.5815
  459MOL0     H61928   9.799   6.743   1.650  1.4810 -0.0718 -0.7615
  459MOL0     H61929   9.844   6.922   1.467 -0.6390 -0.3341 -1.3497
  459MOL0     H61930  10.004   6.897   1.548 -2.6626 -1.7462  1.7109
  459MOL0     H61931   9.970   6.933   1.246  1.4948 -2.5163 -1.7472
  459MOL0     H61932  10.022   7.064   1.362  1.3364 -0.9438  2.0122
  459MOL0     H61933  10.225   6.903   1.410  0.7865  0.7957 -0.8019
  459MOL0     H61934  10.159   6.806   1.274  0.6559  0.8362 -0.8299
  459MOL0     H61935  10.175   6.994   1.124  0.7320  1.5257  0.1091
  459MOL0     H61936  10.328   6.922   1.169  1.8597  1.1233 -0.0115
  459MOL0     H61937  10.205   7.176   1.285  0.8102  1.0662  0.1710
  459MOL0     H61938  10.333   7.169   1.165 -0.6779 -2.8901 -2.1214
  459MOL0     H61939  10.363   7.038   1.451 -1.3658  1.2170  0.2505
  459MOL0     H61940  10.486   7.071   1.328  0.0546 -4.8852  2.2887
  459MOL0     H61941  10.307   7.271   1.482 -1.4431 -0.8347 -3.7210
  459MOL0     H61942  10.430   7.328   1.362  1.0564 -0.7088 -1.1470
  459MOL0     H61943  10.507   7.348   1.602  0.7585 -1.0909  1.3350
  459MOL0     H61944  10.463   7.177   1.621 -1.2703 -0.3322 -1.3122
  459MOL0     H61945   9.849   6.610   1.261  1.5113  2.4021  1.1117
  459MOL0     H61946   9.657   6.439   1.284 -0.2709 -1.1567  1.4966
  459MOL0     H61947   9.110   6.460   1.384 -1.9298 -0.8328 -1.7905
  459MOL0     H61948   8.953   6.293   1.411  0.4031 -0.8224 -1.6372
  459MOL0     H61949   7.626   5.866   1.595 -2.4663  4.0989 -1.1959
  459MOL0     H61950   7.401   5.868   1.714 -0.5210 -1.3415 -0.3148
  459MOL0     H61951   7.015   5.844   1.628  3.0403 -0.0364  3.6873
  459MOL0     H61952   6.775   5.915   1.670  0.9190 -0.1319  0.4451
  459MOL0     H61953   6.432   5.650   1.723  0.1698 -0.1960  0.5368
  459MOL0     H61954   6.502   5.623   1.565 -0.9942 -0.0786 -1.1715
  459MOL0     H61955   6.271   5.711   1.562 -2.6589  1.2187  1.8197
  459MOL0     H61956   6.389   5.822   1.492  0.6698  2.0116  1.5516
  459MOL0     H61957   6.367   5.971   1.676  3.8828 -1.6753 -0.8456
  459MOL0     H61958   6.313   5.846   1.791 -1.9500  0.3448  0.5830
  459MOL0     H61959   6.125   5.966   1.581 -1.4761  1.4675  1.6406
  459MOL0     H61960   6.086   5.828   1.675 -1.5498  0.2105 -3.4778
  459MOL0     H61961   6.130   6.169   1.938  0.0857  1.5799 -0.8330
  459MOL0     H61962   6.648   5.540   1.736 -0.2582  0.4250 -1.8314
  459MOL0     H61963   6.960   5.398   1.858 -1.0461  0.0054  0.2225
  459MOL0     H61964   6.806   5.358   1.796 -0.4569  1.6943  0.8906
  459MOL0     H61965   6.943   5.356   1.690 -0.8539 -2.3432  0.4524
  460MOL0     O61966   3.263   6.432   7.626  0.0555  0.1070 -0.2457
  460MOL0     C61967   3.189   6.449   7.533  0.3676 -0.0613  0.7291
  460MOL0     O61968   3.058   6.410   7.530 -0.1994  0.0469  0.2216
  460MOL0     C61969   2.983   6.383   7.641  0.1953  0.2016 -0.0810
  460MOL0     C61970   2.895   6.284   7.620  0.3352  0.7201  0.3416
  460MOL0     C61971   2.803   6.233   7.720  1.1736  0.3315  0.4794
  460MOL0     C61972   2.803   6.301   7.842 -0.3220  0.2954 -1.4995
  460MOL0     O61973   2.731   6.250   7.949 -0.2480 -0.0284 -0.4226
  460MOL0     C61974   2.728   6.103   7.982 -0.7959 -0.7665 -0.6415
  460MOL0     C61975   2.870   6.045   8.000  0.1735  0.6431 -0.0651
  460MOL0     C61976   2.934   6.085   8.132 -0.3846  0.0921 -0.1516
  460MOL0     C61977   3.031   5.975   8.177 -0.3330  0.2065 -0.0432
  460MOL0     C61978   3.093   6.015   8.312 -0.0817 -0.5786 -0.9329
  460MOL0     C61979   3.204   5.913   8.350  0.1564 -0.1461 -0.1052
  460MOL0     C61980   3.257   5.919   8.494  0.0468 -0.1361  0.3612
  460MOL0     C61981   3.379   6.009   8.527 -0.1282 -0.1644  0.4342
  460MOL0     N61982   3.483   6.026   8.421 -0.1511 -0.0985  0.3891
  460MOL0     C61983   3.572   5.929   8.391 -1.2008 -0.8552  0.5168
  460MOL0     C61984   3.653   5.983   8.293  1.0306  0.4873  0.4769
  460MOL0     C61985   3.764   5.916   8.229  0.5766  0.5170 -0.3966
  460MOL0     C61986   3.897   5.933   8.304 -0.6252 -0.0901 -0.1143
  460MOL0     C61987   3.916   5.826   8.417  0.5480  0.1568  0.1207
  460MOL0     C61988   4.059   5.812   8.443  0.2515  0.1745 -1.2817
  460MOL0     O61989   4.119   5.943   8.488  0.0037  0.2136 -0.2884
  460MOL0     C61990   4.258   5.952   8.519 -0.5323 -0.4907 -0.4804
  460MOL0     C61991   4.353   5.883   8.457  0.6698 -1.1441  1.0642
  460MOL0     C61992   4.491   5.894   8.495  0.0401  0.5227 -0.4339
  460MOL0     C61993   4.532   5.962   8.610  0.0286  0.6864  0.1107
  460MOL0     C61994   4.670   5.970   8.653 -0.1507 -1.3108  0.2542
  460MOL0     O61995   4.699   5.999   8.780 -0.3914  0.4352  0.7668
  460MOL0     C61996   4.828   6.031   8.812  0.4827 -0.6033 -1.0547
  460MOL0     C61997   4.935   6.058   8.733  0.4570 -0.0666  0.6113
  460MOL0     C61998   5.061   6.089   8.788  0.1311 -0.8119  1.4585
  460MOL0     C61999   5.080   6.083   8.925 -0.3922 -0.0232 -0.9933
  460MOL0     O62000   5.196   6.116   8.990  0.0200  0.2068 -0.2846
  460MOL0     C62001   5.302   6.173   8.909 -0.8841 -0.1118 -0.3690
  460MOL0     C62002   5.422   6.220   8.988  0.2295  0.3828  0.3459
  460MOL0     C62003   5.540   6.264   8.899 -0.7026  0.1802 -0.0988
  460MOL0     C62004   5.646   6.335   8.984 -0.5455  0.2218 -0.5671
  460MOL0     C62005   5.764   6.368   8.893 -0.2671  0.4706  0.9580
  460MOL0     C62006   5.896   6.414   8.960  0.6185 -0.5994  0.7405
  460MOL0     C62007   6.002   6.453   8.852  0.4297  0.5379 -0.8575
  460MOL0     C62008   6.128   6.507   8.916 -0.0860 -0.1265  0.0669
  460MOL0    Cl62009   6.244   6.546   8.790  0.0075 -0.1630 -0.0597
  460MOL0     C62010   4.972   6.061   9.007 -0.7130 -1.1976 -1.3541
  460MOL0     C62011   4.852   6.040   8.948  0.0058  0.2072  0.6150
  460MOL0     O62012   4.748   5.914   8.574 -0.4449 -0.5734 -0.8749
  460MOL0     C62013   4.432   6.045   8.670  0.3451 -0.6050  0.0057
  460MOL0     C62014   4.298   6.033   8.629 -0.2269 -0.8616  0.0212
  460MOL0     N62015   3.610   6.113   8.272  0.2479 -0.4598 -0.3258
  460MOL0     N62016   3.503   6.138   8.349  0.3152  0.9168  0.7029
  460MOL0     C62017   2.896   6.404   7.867 -0.2982  0.0332 -0.2805
  460MOL0     C62018   2.987   6.444   7.770  0.4044  0.1363 -0.3934
  460MOL0     C62019   3.255   6.495   7.409 -0.6778 -0.2259 -0.1206
  460MOL0     C62020   3.209   6.449   7.287  0.4804  0.2602  0.6553
  460MOL0     C62021   3.265   6.490   7.165  0.2377 -0.1692  0.6534
  460MOL0     C62022   3.381   6.583   7.156  0.5431 -0.2287  0.2122
  460MOL0     O62023   3.436   6.616   7.035  0.3179 -0.0052  0.9700
  460MOL0     C62024   3.527   6.736   7.027 -0.4578 -0.4097  0.6243
  460MOL0     C62025   3.671   6.690   7.037  0.8312  0.1370 -0.3339
  460MOL0     C62026   3.770   6.802   7.043  0.0761 -0.1560  0.1229
  460MOL0     C62027   3.891   6.725   6.983 -0.2285 -0.1791  0.2384
  460MOL0     C62028   4.022   6.805   6.997 -0.0174 -0.6033 -0.8920
  460MOL0     C62029   4.131   6.872   7.009  1.0648  0.8904  0.1833
  460MOL0     C62030   3.426   6.628   7.281  0.2704 -0.2773 -0.0637
  460MOL0     C62031   3.366   6.587   7.404 -0.3798 -0.1889 -0.0442
  460MOL0     C62032   3.437   6.636   7.530  0.7157 -0.1523  0.8504
  460MOL0     H62033   2.885   6.240   7.522 -0.0321  0.6875  0.3911
  460MOL0     H62034   2.738   6.149   7.702 -0.1523  1.2784  0.6761
  460MOL0     H62035   2.670   6.104   8.075  1.6312  3.0855  1.0625
  460MOL0     H62036   2.672   6.041   7.911 -1.9179  0.4199 -0.8152
  460MOL0     H62037   2.944   6.068   7.922  0.3709  2.9747  0.7415
  460MOL0     H62038   2.858   5.937   7.991 -0.2214  0.6326  0.5531
  460MOL0     H62039   2.854   6.087   8.207 -3.1094  0.8343 -2.8699
  460MOL0     H62040   2.973   6.186   8.121  0.3654 -0.0531  1.0076
  460MOL0     H62041   2.982   5.879   8.195  0.1206 -0.1652 -0.7490
  460MOL0     H62042   3.106   5.964   8.098  0.0232 -0.2560  0.3526
  460MOL0     H62043   3.127   6.119   8.314  0.6551 -0.8175 -0.8700
  460MOL0     H62044   3.012   6.005   8.385 -0.8118 -1.0651 -1.7832
  460MOL0     H62045   3.155   5.817   8.335 -0.9492  0.1504  1.3875
  460MOL0     H62046   3.281   5.924   8.273 -1.1276 -0.0515 -1.4392
  460MOL0     H62047   3.276   5.817   8.531  2.6119 -0.8367 -2.5398
  460MOL0     H62048   3.182   5.963   8.561 -0.9917 -0.0784 -0.8185
  460MOL0     H62049   3.338   6.109   8.546 -0.8622 -0.8890  3.0969
  460MOL0     H62050   3.427   5.974   8.619 -2.1389 -1.4203  1.0681
  460MOL0     H62051   3.579   5.825   8.419 -0.6266 -0.8805  0.2810
  460MOL0     H62052   3.733   5.813   8.211 -2.9358  1.5836 -1.2455
  460MOL0     H62053   3.770   5.944   8.124  0.2447 -0.7675 -0.7764
  460MOL0     H62054   3.986   5.914   8.244  0.7761 -3.2161  2.6429
  460MOL0     H62055   3.903   6.031   8.352  0.3457 -0.5173  0.6664
  460MOL0     H62056   3.882   5.731   8.374  0.5807 -0.2550  0.9833
  460MOL0     H62057   3.862   5.846   8.509 -0.7044  0.3168 -0.6339
  460MOL0     H62058   4.116   5.780   8.356  1.5285  0.2338 -0.5038
  460MOL0     H62059   4.073   5.730   8.515  1.7921  0.9487 -0.6607
  460MOL0     H62060   4.322   5.822   8.372 -1.5820 -2.5219  2.7600
  460MOL0     H62061   4.561   5.834   8.438  0.9809  0.1866  1.0090
  460MOL0     H62062   4.928   6.048   8.625  1.4426  1.2609  0.4034
  460MOL0     H62063   5.138   6.116   8.716 -0.0528 -0.2009  1.4840
  460MOL0     H62064   5.341   6.095   8.843  2.1216  0.7441  0.2388
  460MOL0     H62065   5.271   6.257   8.847 -2.0911  0.9444  1.5691
  460MOL0     H62066   5.397   6.306   9.050  0.8167  4.4573 -4.3930
  460MOL0     H62067   5.457   6.134   9.047  2.1363  0.2821 -0.8157
  460MOL0     H62068   5.581   6.171   8.857  0.6054 -0.0434  1.5919
  460MOL0     H62069   5.506   6.323   8.813  1.5216 -0.2120 -1.3252
  460MOL0     H62070   5.675   6.271   9.067 -2.9733  0.7147  0.7548
  460MOL0     H62071   5.597   6.418   9.035 -2.8678 -0.6509 -1.2311
  460MOL0     H62072   5.740   6.448   8.823 -2.0944 -1.1693 -0.4107
  460MOL0     H62073   5.793   6.282   8.832 -2.0854 -0.1994  0.9586
  460MOL0     H62074   5.879   6.495   9.032  0.8317 -1.2083  1.4867
  460MOL0     H62075   5.924   6.331   9.025 -2.0103 -1.7526  0.5373
  460MOL0     H62076   5.969   6.536   8.788 -2.2735 -0.5519 -1.0106
  460MOL0     H62077   6.038   6.369   8.791  1.7322  0.9128 -0.6283
  460MOL0     H62078   6.098   6.593   8.976 -2.5238 -2.0063  1.7749
  460MOL0     H62079   6.163   6.441   8.996  1.6576  0.5713 -0.0608
  460MOL0     H62080   4.992   6.053   9.113 -0.4173 -1.0537 -1.3983
  460MOL0     H62081   4.776   6.016   9.021 -0.1742 -0.7733  0.1256
  460MOL0     H62082   4.461   6.110   8.752 -2.4882  0.9231 -0.1064
  460MOL0     H62083   4.233   6.106   8.678  2.5118  1.1200  0.9819
  460MOL0     H62084   2.910   6.451   7.964 -3.9378  1.2014 -0.1651
  460MOL0     H62085   3.071   6.507   7.797 -0.1558 -0.1985  2.4925
  460MOL0     H62086   3.134   6.371   7.283  0.8313 -0.0414 -1.0230
  460MOL0     H62087   3.231   6.427   7.082 -1.3145  1.0080  0.3600
  460MOL0     H62088   3.502   6.807   7.107  0.9621 -1.2744  1.8704
  460MOL0     H62089   3.516   6.779   6.927 -1.9221 -3.9370 -0.8759
  460MOL0     H62090   3.687   6.628   6.949  0.8498  0.2491 -0.4109
  460MOL0     H62091   3.682   6.637   7.132  1.2760  1.0486  0.1501
  460MOL0     H62092   3.798   6.845   7.140  2.3416  0.9425 -0.9310
  460MOL0     H62093   3.740   6.887   6.982  0.6537  0.8422  1.1891
  460MOL0     H62094   3.908   6.631   7.036 -0.5790 -0.6342 -0.4425
  460MOL0     H62095   3.877   6.702   6.877 -0.3457 -1.0667  0.4361
  460MOL0     H62096   4.221   6.930   7.015 -0.3908  3.6096 -1.9509
  460MOL0     H62097   3.512   6.695   7.281 -0.3253  0.7265 -3.7425
  460MOL0     H62098   3.533   6.681   7.502  0.8535 -0.3412  1.0158
  460MOL0     H62099   3.381   6.710   7.588 -1.1144 -0.3652 -0.5572
  460MOL0     H62100   3.457   6.545   7.587 -1.9047 -1.3917 -0.0546
  461MOL0     O62101   8.077   8.324   9.996 -0.5059  0.3564 -0.5825
  461MOL0     C62102   8.004   8.426   9.968 -0.2913  1.3963 -0.0264
  461MOL0     O62103   8.055   8.544   9.924 -0.5462  0.4194 -0.2442
  461MOL0     C62104   8.187   8.580   9.940  0.4191 -0.0871 -0.6949
  461MOL0     C62105   8.252   8.648   9.839 -0.4159 -0.4776  0.2150
  461MOL0     C62106   8.388   8.693   9.850  0.2310 -0.1586 -0.6808
  461MOL0     C62107   8.460   8.674   9.968  0.6493 -0.1023  0.4307
  461MOL0     O62108   8.579   8.734   9.984 -0.2649 -0.1834  0.0715
  461MOL0     C62109   8.666   8.743   9.868 -0.1156 -0.0190 -0.0095
  461MOL0     C62110   8.804   8.779   9.927  0.1868 -0.2222  0.5616
  461MOL0     C62111   8.896   8.819   9.809 -0.9688 -0.4404 -0.2411
  461MOL0     C62112   9.028   8.881   9.853 -0.8175 -0.1697  0.2321
  461MOL0     C62113   9.108   8.933   9.735  0.2333  1.1493 -0.4071
  461MOL0     C62114   9.226   9.021   9.774 -0.3004  0.1034 -0.4335
  461MOL0     C62115   9.303   9.075   9.652 -0.6866 -0.1561  0.8940
  461MOL0     C62116   9.354   8.959   9.563 -0.1897 -0.1362  0.8621
  461MOL0     N62117   9.449   9.000   9.463 -0.1062  0.3241  0.3876
  461MOL0     C62118   9.577   8.957   9.443  0.4660 -0.4436  0.1098
  461MOL0     C62119   9.611   9.032   9.335  0.3179 -0.2727  0.5279
  461MOL0     C62120   9.738   9.017   9.260  0.0425 -0.4731 -0.1304
  461MOL0     C62121   9.820   9.156   9.257 -0.8634 -0.5190  0.2363
  461MOL0     C62122   9.956   9.135   9.197 -0.8089 -0.3138 -0.7103
  461MOL0     C62123   9.934   9.101   9.046 -0.0400 -0.3902 -0.2699
  461MOL0     O62124   9.894   9.221   8.979 -0.2933  0.0482  0.3050
  461MOL0     C62125   9.942   9.218   8.848  0.3320  0.5055 -0.6451
  461MOL0     C62126   9.940   9.101   8.771 -0.2646  0.1474  0.6821
  461MOL0     C62127   9.989   9.097   8.638 -0.4392 -0.8372 -0.3359
  461MOL0     C62128  10.065   9.205   8.599  0.5287 -0.6363 -0.4850
  461MOL0     C62129  10.124   9.202   8.467 -0.3289  0.0809 -0.1273
  461MOL0     O62130  10.203   9.308   8.422  0.8617  0.1746  0.7576
  461MOL0     C62131  10.262   9.281   8.306 -0.7832  0.8622  0.1509
  461MOL0     C62132  10.200   9.297   8.176  0.8515  0.0226 -0.4465
  461MOL0     C62133  10.270   9.269   8.054  0.1159 -0.1092  0.1737
  461MOL0     C62134  10.413   9.255   8.054  0.3373 -0.5038 -0.6425
  461MOL0     O62135  10.481   9.268   7.940 -0.3590  0.1928  0.5747
  461MOL0     C62136  10.585   9.169   7.919 -0.4622  0.1069  1.0777
  461MOL0     C62137  10.635   9.180   7.774  0.2835 -0.2327  0.4368
  461MOL0     C62138  10.542   9.098   7.678  0.4871  0.4348  0.0850
  461MOL0     C62139  10.587   9.128   7.535 -0.4477 -0.2177  0.2637
  461MOL0     C62140  10.478   9.085   7.425 -0.8245 -0.6583  0.1187
  461MOL0     C62141  10.548   9.108   7.285 -0.5116  0.0792 -0.1109
  461MOL0     C62142  10.445   9.071   7.177 -0.8616 -0.4909  0.1103
  461MOL0     C62143  10.417   8.926   7.155  0.0435  0.7787 -0.4003
  461MOL0    Cl62144  10.269   8.909   7.055  0.1625  0.0985 -0.0504
  461MOL0     C62145  10.472   9.250   8.184 -0.0105 -0.7544 -0.0782
  461MOL0     C62146  10.397   9.261   8.308  0.5090 -0.6187 -0.2720
  461MOL0     O62147  10.109   9.099   8.402  0.8088 -0.1044 -0.8873
  461MOL0     C62148  10.098   9.315   8.691  0.1460  0.1341  0.2304
  461MOL0     C62149  10.021   9.326   8.810  0.4737  0.5024 -0.0552
  461MOL0     N62150   9.512   9.109   9.292  0.2007 -0.7037  0.3376
  461MOL0     N62151   9.412   9.089   9.365 -0.4968  0.1981 -0.1690
  461MOL0     C62152   8.398   8.599  10.072 -0.9317 -0.5137 -0.5215
  461MOL0     C62153   8.262   8.561  10.056 -0.9934  0.2243 -0.3901
  461MOL0     C62154   7.858   8.402   9.966  0.7715  0.0387  0.2780
  461MOL0     C62155   7.810   8.299  10.049  0.5733 -0.0515  0.3128
  461MOL0     C62156   7.672   8.264  10.057  0.1260  0.0367  0.1638
  461MOL0     C62157   7.584   8.345   9.986  0.1598  0.5649  1.0004
  461MOL0     O62158   7.455   8.315  10.019  0.9638  0.1614 -0.0994
  461MOL0     C62159   7.359   8.360   9.919  0.4444 -0.2690 -0.0471
  461MOL0     C62160   7.229   8.284   9.940  0.2787  0.2389  0.0929
  461MOL0     C62161   7.259   8.134   9.904 -0.0133 -0.1604  0.3549
  461MOL0     C62162   7.145   8.032   9.915 -0.4107 -0.3123 -0.2633
  461MOL0     C62163   7.032   8.066   9.835 -0.4276 -0.0285 -0.5644
  461MOL0     C62164   6.946   8.088   9.759 -0.1336 -0.7818  0.2340
  461MOL0     C62165   7.636   8.449   9.902  0.3525  1.2578  1.0027
  461MOL0     C62166   7.768   8.468   9.884 -0.2522 -1.8063 -0.1018
  461MOL0     C62167   7.811   8.588   9.800 -0.0095  0.5399  0.5762
  461MOL0     H62168   8.189   8.677   9.756 -2.8878  1.7887  2.6791
  461MOL0     H62169   8.423   8.740   9.759 -2.4213  2.3197 -0.5647
  461MOL0     H62170   8.671   8.653   9.806  0.2182 -0.0757  0.0988
  461MOL0     H62171   8.632   8.829   9.809 -0.8212 -1.4932 -1.8155
  461MOL0     H62172   8.847   8.697   9.984  2.4256 -0.4795 -1.3463
  461MOL0     H62173   8.793   8.862   9.996 -1.8832 -0.7280  0.9039
  461MOL0     H62174   8.858   8.885   9.732  1.6917  0.3415 -0.9854
  461MOL0     H62175   8.919   8.725   9.757  1.4037 -1.2416  2.0358
  461MOL0     H62176   9.007   8.970   9.913 -1.0539  1.2003 -1.7786
  461MOL0     H62177   9.091   8.815   9.913  0.7068  1.3078  0.3122
  461MOL0     H62178   9.146   8.837   9.700 -1.5522 -0.7588  2.4875
  461MOL0     H62179   9.049   8.994   9.665 -2.0783  0.0712  0.5055
  461MOL0     H62180   9.190   9.106   9.833 -1.0303 -0.0080 -0.7023
  461MOL0     H62181   9.292   8.966   9.842 -0.2415  1.8436  0.9852
  461MOL0     H62182   9.392   9.132   9.683 -1.5371 -0.1779  3.6681
  461MOL0     H62183   9.237   9.146   9.601 -0.9944 -1.5685 -0.7604
  461MOL0     H62184   9.402   8.883   9.626 -0.3529 -1.9170 -1.0626
  461MOL0     H62185   9.267   8.910   9.519  1.0121 -0.8478 -0.8196
  461MOL0     H62186   9.645   8.886   9.489  3.3272  0.6699 -2.1040
  461MOL0     H62187   9.786   8.927   9.298 -1.3688 -2.2903 -2.3662
  461MOL0     H62188   9.707   9.000   9.157  1.9744 -0.4967 -0.7450
  461MOL0     H62189   9.763   9.237   9.211 -1.5665 -0.2273  1.5571
  461MOL0     H62190   9.849   9.193   9.355  3.9281  2.0664 -1.8145
  461MOL0     H62191  10.003   9.059   9.261 -1.3215  1.6439  2.2089
  461MOL0     H62192  10.015   9.227   9.202 -1.3967  0.0870 -1.0777
  461MOL0     H62193   9.875   9.012   9.022  2.0197 -2.0326  0.3618
  461MOL0     H62194  10.036   9.092   9.007  0.2784  1.2451  0.0957
  461MOL0     H62195   9.894   9.007   8.801 -1.8638  0.3364 -1.0265
  461MOL0     H62196   9.961   9.010   8.580 -2.1697 -1.5222  1.4354
  461MOL0     H62197  10.099   9.334   8.160  0.5053  1.0191  3.0760
  461MOL0     H62198  10.220   9.273   7.958 -0.0005 -1.2136  0.1784
  461MOL0     H62199  10.678   9.182   7.975  1.5749 -1.3526 -1.6911
  461MOL0     H62200  10.556   9.064   7.935  1.8709 -0.3764  2.6130
  461MOL0     H62201  10.634   9.285   7.745  2.0665 -0.0820  0.8238
  461MOL0     H62202  10.734   9.134   7.768 -1.9507 -5.9392  0.5876
  461MOL0     H62203  10.551   8.992   7.700 -1.5025  0.5097  1.5894
  461MOL0     H62204  10.439   9.129   7.700  0.4869 -0.8892  2.2386
  461MOL0     H62205  10.687   9.084   7.527  0.6305  1.9281  1.0987
  461MOL0     H62206  10.615   9.234   7.537  1.9274 -0.7502 -0.5282
  461MOL0     H62207  10.380   9.135   7.420 -1.2496 -1.2286  2.0968
  461MOL0     H62208  10.452   8.980   7.438 -0.6456 -0.7658 -0.3964
  461MOL0     H62209  10.585   9.209   7.264 -1.6504  0.5018 -0.1372
  461MOL0     H62210  10.628   9.033   7.281  0.7021  1.3043  0.3148
  461MOL0     H62211  10.496   9.109   7.088 -1.1062  0.4017  0.3384
  461MOL0     H62212  10.352   9.128   7.175 -0.7328 -0.3031 -0.6850
  461MOL0     H62213  10.506   8.888   7.106 -0.4418 -0.9845  0.0040
  461MOL0     H62214  10.415   8.855   7.239  2.0157 -0.2092 -1.1298
  461MOL0     H62215  10.578   9.227   8.189 -0.4426 -3.1366 -0.4708
  461MOL0     H62216  10.440   9.258   8.407 -1.2681  2.6307  0.7249
  461MOL0     H62217  10.160   9.396   8.652  0.9883 -0.9474 -0.7517
  461MOL0     H62218  10.036   9.408   8.878  0.5697  1.5215 -1.2633
  461MOL0     H62219   8.445   8.585  10.168 -1.3217  1.4139 -0.0074
  461MOL0     H62220   8.204   8.516  10.136 -2.8271  0.9777 -1.2191
  461MOL0     H62221   7.872   8.252  10.125 -1.6515 -0.2386  2.0900
  461MOL0     H62222   7.636   8.187  10.126 -1.0411  0.0862 -0.3626
  461MOL0     H62223   7.395   8.354   9.816 -0.0401  1.5475 -0.3440
  461MOL0     H62224   7.344   8.466   9.941  2.6257 -0.1282  1.0497
  461MOL0     H62225   7.157   8.333   9.873  0.6455  1.0978  0.3086
  461MOL0     H62226   7.197   8.291  10.044 -2.0135 -2.4193 -0.3172
  461MOL0     H62227   7.331   8.095   9.976  0.6169 -1.3984 -0.8830
  461MOL0     H62228   7.306   8.131   9.805  0.4007 -1.8146  0.5629
  461MOL0     H62229   7.178   7.935   9.877 -0.5099 -0.1244 -0.8297
  461MOL0     H62230   7.114   8.032  10.020  0.5353 -0.6509  0.0345
  461MOL0     H62231   6.869   8.123   9.693 -1.4206  0.5884  2.3395
  461MOL0     H62232   7.564   8.499   9.838  1.2680 -0.7513 -1.7928
  461MOL0     H62233   7.837   8.669   9.868 -2.0036  1.1972  0.6365
  461MOL0     H62234   7.893   8.561   9.733 -1.1658  0.1395 -0.7329
  461MOL0     H62235   7.730   8.628   9.738 -1.1319  2.4777  3.1454
  462MOL0     O62236   1.089  10.528  10.976 -0.0486  0.6318 -0.4375
  462MOL0     C62237   1.036  10.637  10.954  0.7203 -0.2600 -0.2250
  462MOL0     O62238   1.090  10.737  10.877 -0.2419  0.1494  0.4793
  462MOL0     C62239   1.219  10.705  10.826 -0.2401 -0.2853 -0.8972
  462MOL0     C62240   1.242  10.603  10.726 -1.2654 -0.4501  0.2371
  462MOL0     C62241   1.370  10.574  10.674 -0.2761 -0.5306  0.1558
  462MOL0     C62242   1.477  10.650  10.721 -0.1276 -0.0846  0.0252
  462MOL0     O62243   1.596  10.650  10.655  0.5050  0.6340 -0.3659
  462MOL0     C62244   1.604  10.675  10.508  0.9698 -0.2509  0.3952
  462MOL0     C62245   1.751  10.669  10.468 -0.4658  0.5598 -0.7995
  462MOL0     C62246   1.834  10.553  10.532 -0.3855 -0.5307 -0.1148
  462MOL0     C62247   1.973  10.590  10.488 -1.2575  0.6695  0.3592
  462MOL0     C62248   2.081  10.542  10.581  0.1795 -0.2234 -0.2907
  462MOL0     C62249   2.207  10.572  10.506 -0.9109  0.4169  0.1065
  462MOL0     C62250   2.324  10.549  10.608  0.2275 -0.1923  0.6030
  462MOL0     C62251   2.441  10.615  10.539 -0.5051  0.7907 -0.2944
  462MOL0     N62252   2.554  10.607  10.631  0.1452  0.2656  0.8122
  462MOL0     C62253   2.614  10.484  10.658 -0.3057  0.1514 -1.0094
  462MOL0     C62254   2.708  10.512  10.753 -0.1459 -0.4923 -0.3379
  462MOL0     C62255   2.806  10.418  10.822 -0.4053 -0.0546 -0.7476
  462MOL0     C62256   2.941  10.423  10.732 -0.5805 -1.1779 -0.0645
  462MOL0     C62257   3.056  10.362  10.818  0.4536  0.2783  0.2844
  462MOL0     C62258   3.190  10.425  10.778 -0.0561  0.6422 -0.4891
  462MOL0     O62259   3.211  10.429  10.641 -0.4026  0.6922  0.4908
  462MOL0     C62260   3.335  10.478  10.601  1.0958  0.3802 -0.5101
  462MOL0     C62261   3.429  10.382  10.555 -0.3371  0.2584 -0.5553
  462MOL0     C62262   3.562  10.425  10.525  0.6590 -0.0256 -0.1496
  462MOL0     C62263   3.597  10.558  10.547  1.6468  0.1963  0.4066
  462MOL0     C62264   3.729  10.606  10.494 -0.4857  0.1115 -0.8204
  462MOL0     O62265   3.829  10.519  10.458 -0.3365  0.1239 -0.6923
  462MOL0     C62266   3.953  10.568  10.453  1.3092  0.0130  1.1976
  462MOL0     C62267   3.989  10.609  10.320  0.1236  0.0603 -0.7535
  462MOL0     C62268   4.118  10.648  10.297  0.1259 -0.9220 -0.6817
  462MOL0     C62269   4.213  10.647  10.403  0.9352 -0.0069 -0.3745
  462MOL0     O62270   4.342  10.679  10.367  0.3257  0.4837 -0.5163
  462MOL0     C62271   4.440  10.668  10.463 -0.6454  0.3724  0.2317
  462MOL0     C62272   4.581  10.688  10.401 -1.2254  0.1113  0.0788
  462MOL0     C62273   4.604  10.829  10.328 -0.1848 -0.2952  0.0323
  462MOL0     C62274   4.746  10.848  10.266  0.2498  0.7039 -0.3081
  462MOL0     C62275   4.763  10.965  10.170  0.7475 -0.7581 -0.7517
  462MOL0     C62276   4.719  11.104  10.235 -0.6048  0.6024  0.5734
  462MOL0     C62277   4.752  11.227  10.148 -1.0145  0.2907  0.1854
  462MOL0     C62278   4.776  11.347  10.248 -0.6733  0.1726 -0.8923
  462MOL0    Cl62279   4.761  11.514  10.182 -0.6550 -0.0874 -0.1141
  462MOL0     C62280   4.174  10.608  10.536 -0.8150 -0.8721 -0.1908
  462MOL0     C62281   4.045  10.557  10.557 -0.1703 -0.2456  0.1141
  462MOL0     O62282   3.745  10.726  10.491  0.7422 -0.2469 -0.0540
  462MOL0     C62283   3.500  10.652  10.587  0.3469  0.5248 -0.0340
  462MOL0     C62284   3.370  10.607  10.617 -0.6873 -0.5486 -0.0613
  462MOL0     N62285   2.701  10.647  10.775 -1.1701 -0.6883  0.0929
  462MOL0     N62286   2.606  10.697  10.714 -0.3577 -0.8816  0.0272
  462MOL0     C62287   1.455  10.756  10.816  0.6219 -0.1216  0.3471
  462MOL0     C62288   1.328  10.777  10.871 -0.6154 -0.5552  0.7141
  462MOL0     C62289   0.899  10.658  11.003  0.0259 -0.5871 -0.0850
  462MOL0     C62290   0.829  10.755  10.933 -0.0668  0.2998 -0.0720
  462MOL0     C62291   0.692  10.780  10.976 -0.0310 -0.0705  0.7203
  462MOL0     C62292   0.633  10.702  11.073  0.9893 -1.8009 -0.6706
  462MOL0     O62293   0.502  10.708  11.112 -0.6864 -0.0360  0.1206
  462MOL0     C62294   0.415  10.813  11.069 -0.0036  0.5306 -0.2046
  462MOL0     C62295   0.301  10.829  11.173 -0.0252  0.2976  0.1626
  462MOL0     C62296   0.182  10.863  11.080  1.2319  1.4898  0.6006
  462MOL0     C62297   0.044  10.852  11.156 -0.3129 -0.4405  0.1412
  462MOL0     C62298  -0.052  10.925  11.073 -0.8062 -0.5705 -0.5938
  462MOL0     C62299  -0.136  10.975  11.011  0.8596 -0.6778  0.4435
  462MOL0     C62300   0.710  10.615  11.139  0.2440  0.0369  0.8641
  462MOL0     C62301   0.842  10.585  11.106 -0.3687 -0.1774  0.5445
  462MOL0     C62302   0.920  10.496  11.201 -0.4317 -0.0655  0.9966
  462MOL0     H62303   1.153  10.560  10.683 -1.8872  2.1129 -1.2945
  462MOL0     H62304   1.378  10.496  10.598 -0.7700 -1.3133  0.8922
  462MOL0     H62305   1.544  10.599  10.457  1.8947 -0.6782 -0.0852
  462MOL0     H62306   1.562  10.773  10.481  1.4563 -0.3045 -0.6235
  462MOL0     H62307   1.793  10.761  10.510 -0.8003  1.6195 -2.6765
  462MOL0     H62308   1.767  10.665  10.360  2.4128 -2.7878 -0.4513
  462MOL0     H62309   1.792  10.457  10.502 -1.4238  0.0279 -0.5076
  462MOL0     H62310   1.833  10.553  10.641  0.3164 -2.6625 -0.0556
  462MOL0     H62311   1.977  10.547  10.387  0.2267  0.1134  0.6299
  462MOL0     H62312   2.000  10.696  10.479 -2.2781  0.8538 -0.6627
  462MOL0     H62313   2.083  10.606  10.669 -1.4378  1.3518 -1.3424
  462MOL0     H62314   2.066  10.434  10.596  0.7651 -0.6882 -2.5718
  462MOL0     H62315   2.225  10.510  10.418 -0.3673 -1.7206  1.6425
  462MOL0     H62316   2.216  10.675  10.469  0.9256  0.0037 -0.7372
  462MOL0     H62317   2.337  10.441  10.622 -4.4621 -1.1663 -0.8633
  462MOL0     H62318   2.301  10.608  10.697  1.1809  3.1483 -1.1936
  462MOL0     H62319   2.461  10.565  10.444  2.9354 -0.0664  0.7120
  462MOL0     H62320   2.422  10.721  10.521  1.7022  1.4623  0.8659
  462MOL0     H62321   2.587  10.385  10.620 -1.0757  0.4665 -1.3270
  462MOL0     H62322   2.826  10.459  10.921 -1.8872  0.3719 -0.6030
  462MOL0     H62323   2.754  10.321  10.830 -1.5351  0.5336 -0.7046
  462MOL0     H62324   2.928  10.365  10.640  3.5006  0.3395 -1.8126
  462MOL0     H62325   2.962  10.526  10.704 -0.5272 -2.1573 -4.1991
  462MOL0     H62326   3.051  10.254  10.809  0.3600  0.3403 -0.4315
  462MOL0     H62327   3.040  10.383  10.925 -0.7346 -0.7811  0.3401
  462MOL0     H62328   3.267  10.365  10.828 -0.3118 -0.5141 -1.4554
  462MOL0     H62329   3.190  10.528  10.815  0.3036  1.1324 -1.8175
  462MOL0     H62330   3.407  10.277  10.541  0.9578 -0.1965  0.5899
  462MOL0     H62331   3.625  10.347  10.482 -0.2879 -0.0580 -1.5390
  462MOL0     H62332   3.912  10.618  10.244  0.8249 -0.0592 -1.4977
  462MOL0     H62333   4.148  10.680  10.198 -1.2344  1.7574 -0.3113
  462MOL0     H62334   4.419  10.751  10.532  0.3206 -0.4239  1.5328
  462MOL0     H62335   4.435  10.572  10.514 -5.5548 -0.0611 -0.5849
  462MOL0     H62336   4.650  10.681  10.485 -1.3986 -0.8003  0.1527
  462MOL0     H62337   4.611  10.606  10.335 -0.9423 -1.5771  2.1857
  462MOL0     H62338   4.536  10.843  10.244  0.1503 -2.0285 -0.5789
  462MOL0     H62339   4.590  10.898  10.411  0.8983 -0.8866  0.7268
  462MOL0     H62340   4.772  10.759  10.208 -1.0645  0.4787 -0.5726
  462MOL0     H62341   4.811  10.861  10.353 -0.5210 -0.5688  0.4785
  462MOL0     H62342   4.704  10.945  10.080 -1.4885 -0.7510  0.6111
  462MOL0     H62343   4.865  10.972  10.132  0.1179 -2.2488 -2.8471
  462MOL0     H62344   4.612  11.095  10.257 -0.6484 -3.3305 -0.4207
  462MOL0     H62345   4.751  11.111  10.339 -3.0086 -1.3276  1.5506
  462MOL0     H62346   4.670  11.262  10.085 -0.8658  1.5590  0.6548
  462MOL0     H62347   4.841  11.218  10.085 -1.2534 -1.0653  0.0036
  462MOL0     H62348   4.701  11.326  10.324  1.2541 -1.5473  0.6588
  462MOL0     H62349   4.875  11.339  10.294 -0.7318 -2.6365 -1.0904
  462MOL0     H62350   4.247  10.617  10.615  0.2478 -2.5671 -0.9369
  462MOL0     H62351   4.017  10.522  10.655 -0.4112 -1.7790 -0.4794
  462MOL0     H62352   3.532  10.755  10.602  0.7718  0.3347  0.4185
  462MOL0     H62353   3.297  10.661  10.675  0.1738 -0.8987  1.3874
  462MOL0     H62354   1.537  10.820  10.848 -1.4914  2.9908 -0.0604
  462MOL0     H62355   1.324  10.848  10.953  2.4185 -0.3059  0.7392
  462MOL0     H62356   0.862  10.812  10.846 -2.3492  2.8519  0.5943
  462MOL0     H62357   0.629  10.848  10.920 -1.7050 -1.0787  1.2995
  462MOL0     H62358   0.382  10.780  10.970 -1.7479  1.0462  0.1814
  462MOL0     H62359   0.480  10.900  11.058  2.7809 -0.9929  2.4137
  462MOL0     H62360   0.325  10.913  11.240 -0.5251  0.5144  0.0736
  462MOL0     H62361   0.277  10.739  11.230 -0.9995 -0.3895 -1.2879
  462MOL0     H62362   0.175  10.786  11.003 -0.1131  1.2479  0.9502
  462MOL0     H62363   0.192  10.961  11.034 -2.4230  2.0592  0.7354
  462MOL0     H62364   0.000  10.752  11.166  0.5760 -0.8994 -0.4068
  462MOL0     H62365   0.054  10.910  11.247  2.2787 -0.6025  0.0225
  462MOL0     H62366  -0.211  11.013  10.944 -0.0266 -0.7260  1.3908
  462MOL0     H62367   0.646  10.554  11.204  1.0812 -0.6768  1.0394
  462MOL0     H62368   0.938  10.404  11.145  0.7795  1.2272 -0.8826
  462MOL0     H62369   1.020  10.534  11.224 -0.0290  0.5987 -1.4942
  462MOL0     H62370   0.865  10.486  11.295  0.6026  0.2203  1.6401
  463MOL0     O62371   2.957   3.141   5.095  0.1468  0.7251  0.2471
  463MOL0     C62372   2.840   3.124   5.061  0.8280  0.2195 -0.2801
  463MOL0     O62373   2.794   3.078   4.944 -0.8989  0.1448 -0.0261
  463MOL0     C62374   2.883   3.062   4.840  0.1339 -0.1950  0.5043
  463MOL0     C62375   2.860   2.952   4.750 -0.4773 -0.0431 -1.1696
  463MOL0     C62376   2.941   2.927   4.648 -0.3058  0.9743  0.3703
  463MOL0     C62377   3.060   2.999   4.627  0.0082 -0.4324  0.1375
  463MOL0     O62378   3.145   2.979   4.524 -0.0878  0.2552 -0.2288
  463MOL0     C62379   3.124   2.854   4.454  0.5366  0.7071 -0.1409
  463MOL0     C62380   3.221   2.825   4.335 -0.1353  0.4900 -0.0046
  463MOL0     C62381   3.332   2.726   4.388  0.1042  0.5023  0.2139
  463MOL0     C62382   3.438   2.688   4.293  0.2500  0.0098  0.5321
  463MOL0     C62383   3.532   2.591   4.362 -0.4277 -0.2693  0.3930
  463MOL0     C62384   3.638   2.535   4.266  0.8033 -0.2303 -0.4213
  463MOL0     C62385   3.746   2.456   4.340 -1.0732  0.2912 -0.0084
  463MOL0     C62386   3.703   2.322   4.410  0.5233 -0.5666  1.4144
  463MOL0     N62387   3.808   2.248   4.483  0.1107  0.1631  0.0770
  463MOL0     C62388   3.924   2.196   4.430  0.1778  0.4563  0.4885
  463MOL0     C62389   4.001   2.159   4.532 -0.1287 -0.2770  0.1666
  463MOL0     C62390   4.144   2.107   4.510 -0.5938 -0.7402 -0.3459
  463MOL0     C62391   4.239   2.231   4.491 -0.4566  0.8890 -0.3438
  463MOL0     C62392   4.373   2.198   4.451  0.4091 -0.2292 -0.2280
  463MOL0     C62393   4.474   2.299   4.504  0.2002  0.1089  0.7800
  463MOL0     O62394   4.610   2.281   4.461 -0.4953 -0.0184 -0.3924
  463MOL0     C62395   4.692   2.186   4.514 -0.4239 -0.2040 -0.1011
  463MOL0     C62396   4.818   2.159   4.448  0.3275 -0.3509  1.4934
  463MOL0     C62397   4.896   2.056   4.496 -0.4492 -0.5770 -0.0715
  463MOL0     C62398   4.856   1.972   4.599 -0.0769  0.4348  1.0060
  463MOL0     C62399   4.929   1.852   4.639 -0.6096 -0.6636  0.1423
  463MOL0     O62400   5.026   1.816   4.557  0.2695 -0.6404 -0.0265
  463MOL0     C62401   5.111   1.709   4.579  0.2752  0.6060  0.0611
  463MOL0     C62402   5.093   1.590   4.652 -1.1913  0.2283 -0.1369
  463MOL0     C62403   5.193   1.490   4.650 -0.0003  0.5908  1.2130
  463MOL0     C62404   5.320   1.499   4.581  0.3161  0.6224  0.5086
  463MOL0     O62405   5.396   1.388   4.567 -0.4131 -0.1888  0.3852
  463MOL0     C62406   5.384   1.324   4.432 -0.6204  0.4707 -0.7758
  463MOL0     C62407   5.518   1.283   4.364 -0.5523 -0.3099 -1.0452
  463MOL0     C62408   5.598   1.182   4.451 -1.1859 -0.3038 -1.2394
  463MOL0     C62409   5.727   1.138   4.379  0.7181  0.1058  0.2713
  463MOL0     C62410   5.796   1.017   4.438  0.3010  0.6868 -0.0428
  463MOL0     C62411   5.927   0.983   4.365 -0.2273  0.2192  0.1249
  463MOL0     C62412   5.973   0.845   4.401  0.4344  0.4537  0.6546
  463MOL0     C62413   6.107   0.818   4.337  0.4150 -0.1539 -0.0634
  463MOL0    Cl62414   6.225   0.913   4.414 -0.1381  0.2108 -0.1746
  463MOL0     C62415   5.340   1.619   4.508  0.6833  0.0450 -0.0565
  463MOL0     C62416   5.238   1.721   4.513 -0.7928  0.5426 -0.3938
  463MOL0     O62417   4.897   1.795   4.748  0.0142 -0.3132 -0.2561
  463MOL0     C62418   4.736   2.001   4.661  0.5833  1.0735 -0.2925
  463MOL0     C62419   4.648   2.106   4.614  0.5211  0.4000  0.4176
  463MOL0     N62420   3.927   2.183   4.647 -0.0754 -0.1323  0.1475
  463MOL0     N62421   3.813   2.221   4.615  0.5810  0.0637  0.5955
  463MOL0     C62422   3.079   3.108   4.706 -0.9172  0.4218  0.6606
  463MOL0     C62423   2.997   3.139   4.809 -0.2478  0.5322  0.4145
  463MOL0     C62424   2.736   3.147   5.167 -0.0897 -0.4850  0.1745
  463MOL0     C62425   2.776   3.214   5.285 -0.5693 -0.4085  0.1889
  463MOL0     C62426   2.693   3.231   5.393 -0.0464 -0.1469  0.1026
  463MOL0     C62427   2.566   3.175   5.390  0.4690  0.0299  0.2970
  463MOL0     O62428   2.483   3.209   5.491  0.5107 -0.3438 -0.5796
  463MOL0     C62429   2.342   3.223   5.456 -0.8818  1.3501 -0.3182
  463MOL0     C62430   2.278   3.291   5.582  0.1501  0.6367 -0.4810
  463MOL0     C62431   2.114   3.298   5.578 -0.2123 -0.6427 -0.1038
  463MOL0     C62432   2.044   3.356   5.450 -1.9708  0.9957 -0.2534
  463MOL0     C62433   1.899   3.351   5.444  0.0796  0.0214 -0.4714
  463MOL0     C62434   1.775   3.355   5.453 -0.5967 -0.1136  0.0705
  463MOL0     C62435   2.532   3.107   5.272  0.4472  0.3084  0.2474
  463MOL0     C62436   2.604   3.094   5.159 -0.2743  0.0595 -0.0801
  463MOL0     C62437   2.548   3.019   5.041  0.4446 -0.1097  0.0536
  463MOL0     H62438   2.778   2.882   4.757  0.1783 -0.7781 -0.6273
  463MOL0     H62439   2.916   2.845   4.583 -3.8313 -0.8265  3.5974
  463MOL0     H62440   3.135   2.780   4.534  0.3597  2.1482  1.2629
  463MOL0     H62441   3.023   2.858   4.411 -0.0931 -2.4851  0.7968
  463MOL0     H62442   3.276   2.915   4.307 -0.9885  0.8323 -0.6368
  463MOL0     H62443   3.163   2.788   4.249  2.1700 -1.9642 -0.6422
  463MOL0     H62444   3.289   2.630   4.419  0.5242  1.0119  2.5426
  463MOL0     H62445   3.372   2.771   4.480 -0.7130 -0.8554  1.2724
  463MOL0     H62446   3.391   2.646   4.203 -2.5849 -0.7660  2.2451
  463MOL0     H62447   3.496   2.774   4.258 -0.8175  0.7147  0.4468
  463MOL0     H62448   3.592   2.643   4.437 -0.7448  0.4340  0.1643
  463MOL0     H62449   3.488   2.501   4.406 -1.2394 -1.3711 -2.4265
  463MOL0     H62450   3.583   2.479   4.190  1.3970 -1.7736  0.2564
  463MOL0     H62451   3.681   2.625   4.221 -0.3939  0.9186  0.6067
  463MOL0     H62452   3.796   2.521   4.412  0.6012  0.1648 -1.0239
  463MOL0     H62453   3.819   2.434   4.262 -0.3189  1.2360  0.4051
  463MOL0     H62454   3.614   2.345   4.469 -1.2276  0.8193 -1.5336
  463MOL0     H62455   3.668   2.254   4.332 -1.0284  0.5481  1.0879
  463MOL0     H62456   3.954   2.187   4.326 -0.7616  1.0852  0.1493
  463MOL0     H62457   4.182   2.054   4.598  3.0626  1.1496 -0.5687
  463MOL0     H62458   4.157   2.053   4.415  3.0838  1.0107 -1.0239
  463MOL0     H62459   4.205   2.301   4.413  0.8865  0.4247 -1.3942
  463MOL0     H62460   4.239   2.284   4.586 -2.9662  0.0672  0.1960
  463MOL0     H62461   4.375   2.192   4.342 -4.7783  1.9414 -0.7318
  463MOL0     H62462   4.399   2.103   4.499  0.9059 -0.9180 -1.8218
  463MOL0     H62463   4.475   2.312   4.613 -2.3534 -3.3197  1.3785
  463MOL0     H62464   4.453   2.402   4.475  0.9461 -0.1822 -0.9591
  463MOL0     H62465   4.828   2.222   4.360 -3.0835 -3.2524 -1.2705
  463MOL0     H62466   4.982   2.018   4.442 -0.9156 -2.1957  0.2523
  463MOL0     H62467   5.015   1.585   4.728 -1.0128  2.4068  0.2431
  463MOL0     H62468   5.173   1.402   4.712 -2.5455 -0.0734 -0.3929
  463MOL0     H62469   5.322   1.236   4.452  1.5869 -1.2940 -1.2541
  463MOL0     H62470   5.317   1.384   4.369 -1.6124  0.3534  0.1301
  463MOL0     H62471   5.506   1.248   4.261  2.4438  0.6419 -1.7996
  463MOL0     H62472   5.585   1.369   4.361 -0.3356 -0.4951 -1.8043
  463MOL0     H62473   5.615   1.243   4.541 -0.9325  2.3412 -2.9734
  463MOL0     H62474   5.539   1.097   4.484 -1.8974  0.1988 -1.2084
  463MOL0     H62475   5.807   1.213   4.384  0.4044  0.5323 -0.7358
  463MOL0     H62476   5.708   1.132   4.271  0.8476  2.5893  0.0465
  463MOL0     H62477   5.717   0.940   4.434 -0.6116  1.6579 -1.4800
  463MOL0     H62478   5.820   1.021   4.545  1.2952 -2.3859 -0.0386
  463MOL0     H62479   5.885   0.977   4.265 -2.2127 -0.2468  0.9473
  463MOL0     H62480   5.998   1.065   4.382  1.8248 -1.3578 -0.4526
  463MOL0     H62481   5.897   0.773   4.369  0.0774 -0.6241  3.6098
  463MOL0     H62482   5.976   0.826   4.508  0.3039 -0.8035  0.4538
  463MOL0     H62483   6.142   0.715   4.338  2.5833  0.5292  0.8580
  463MOL0     H62484   6.095   0.841   4.230  0.0746 -1.7297 -0.3828
  463MOL0     H62485   5.439   1.632   4.465  2.3610 -0.0302  3.4404
  463MOL0     H62486   5.250   1.821   4.471 -2.6128  1.0339  0.1898
  463MOL0     H62487   4.706   1.940   4.746  0.4173 -0.0467 -1.1330
  463MOL0     H62488   4.547   2.109   4.653  1.2281  1.6764  2.2839
  463MOL0     H62489   3.163   3.175   4.689 -1.9331  1.2906 -1.2120
  463MOL0     H62490   3.018   3.230   4.865  0.1715  0.1419  0.9105
  463MOL0     H62491   2.870   3.265   5.302 -1.5534  1.5552  0.0468
  463MOL0     H62492   2.726   3.285   5.481  0.7022  2.3087 -1.5546
  463MOL0     H62493   2.298   3.124   5.443 -1.2816  1.5664 -0.6660
  463MOL0     H62494   2.319   3.274   5.362 -0.2056  0.4866 -0.9657
  463MOL0     H62495   2.317   3.393   5.592  0.0944  0.4701  2.0503
  463MOL0     H62496   2.312   3.238   5.671  2.5940  2.5680 -0.1539
  463MOL0     H62497   2.091   3.385   5.641  0.5070  0.3580 -1.1776
  463MOL0     H62498   2.067   3.218   5.636  1.3434 -1.0524  0.6517
  463MOL0     H62499   2.070   3.462   5.439  1.7380  0.0542 -1.9179
  463MOL0     H62500   2.091   3.305   5.366  0.8109  1.4231  0.9179
  463MOL0     H62501   1.668   3.357   5.457 -0.7016 -1.6831 -1.0023
  463MOL0     H62502   2.430   3.068   5.271  1.4105 -2.3886 -0.2808
  463MOL0     H62503   2.456   2.965   5.068  0.4097  0.2886  0.7354
  463MOL0     H62504   2.523   3.090   4.962  0.1940  1.1648  1.2412
  463MOL0     H62505   2.624   2.945   5.016  0.7388 -0.1385  1.0080
  464MOL0     O62506   7.181   2.153   6.444 -0.9126 -0.4444 -0.0294
  464MOL0     C62507   7.202   2.033   6.467  0.4392 -0.2707  0.4570
  464MOL0     O62508   7.142   1.959   6.552  0.0925  0.8167 -0.5375
  464MOL0     C62509   7.058   2.020   6.643 -0.3762 -0.1707 -0.2221
  464MOL0     C62510   6.926   2.059   6.605  0.2357  0.0590  0.7212
  464MOL0     C62511   6.848   2.127   6.700  0.6621  0.1391 -0.4203
  464MOL0     C62512   6.898   2.162   6.829  1.3218  0.0144  0.7175
  464MOL0     O62513   6.826   2.240   6.911 -0.2764  0.8754  0.4742
  464MOL0     C62514   6.881   2.359   6.968 -0.7864 -0.1333 -0.4086
  464MOL0     C62515   6.877   2.467   6.857  0.9872 -0.2486 -0.5981
  464MOL0     C62516   7.004   2.473   6.767  0.6518 -0.1406 -0.0842
  464MOL0     C62517   7.137   2.502   6.850  0.5248  0.4018 -0.0228
  464MOL0     C62518   7.255   2.525   6.745  0.1518 -0.6444  0.1433
  464MOL0     C62519   7.276   2.402   6.656  0.6979  0.0229  0.2404
  464MOL0     C62520   7.426   2.380   6.618 -0.1594 -0.3899  0.3075
  464MOL0     C62521   7.486   2.486   6.526  0.2823  0.1832  0.2975
  464MOL0     N62522   7.631   2.472   6.517 -1.1291  0.4132 -0.0320
  464MOL0     C62523   7.693   2.376   6.443  0.1646  0.2765 -0.0034
  464MOL0     C62524   7.826   2.389   6.466  0.6256  0.4252  0.5430
  464MOL0     C62525   7.943   2.311   6.413  0.4773 -0.0049 -0.5381
  464MOL0     C62526   8.083   2.343   6.466  1.0245 -0.3444 -0.9764
  464MOL0     C62527   8.123   2.255   6.583 -0.3011 -0.0243  0.6169
  464MOL0     C62528   8.254   2.294   6.655  0.2192 -0.1221  0.4013
  464MOL0     O62529   8.372   2.269   6.566  0.5747 -1.0419 -0.6640
  464MOL0     C62530   8.445   2.160   6.586 -0.2093  0.0801 -0.2746
  464MOL0     C62531   8.567   2.153   6.514  0.1935 -0.3949 -0.1343
  464MOL0     C62532   8.653   2.044   6.531  0.1176 -0.1769  0.2707
  464MOL0     C62533   8.620   1.937   6.618  0.7168  0.0125 -0.6236
  464MOL0     C62534   8.713   1.825   6.654  0.1158 -0.0718 -0.2894
  464MOL0     O62535   8.673   1.726   6.740 -0.1133 -0.2590  0.5423
  464MOL0     C62536   8.775   1.653   6.808 -0.8321 -0.6883  0.2586
  464MOL0     C62537   8.746   1.536   6.873  0.0095 -0.5695  0.8568
  464MOL0     C62538   8.840   1.472   6.959 -0.7476  0.4813 -0.4243
  464MOL0     C62539   8.966   1.530   6.981 -0.7369  0.1752 -0.0767
  464MOL0     O62540   9.053   1.472   7.069  0.7244 -0.3367  0.1978
  464MOL0     C62541   9.186   1.529   7.082 -0.3149 -0.1209 -0.7004
  464MOL0     C62542   9.274   1.450   7.185  0.9338  0.0735  0.3090
  464MOL0     C62543   9.405   1.526   7.217 -0.4336  0.3179  0.4861
  464MOL0     C62544   9.497   1.451   7.309 -0.2905 -0.5165 -0.5529
  464MOL0     C62545   9.621   1.537   7.344 -0.2861  0.7550  0.4255
  464MOL0     C62546   9.708   1.457   7.440  0.0271  0.0490 -0.9647
  464MOL0     C62547   9.809   1.536   7.529 -0.6159  0.3034  0.1339
  464MOL0     C62548   9.938   1.451   7.554 -0.2210  0.6057 -0.2838
  464MOL0    Cl62549  10.065   1.540   7.642  0.2363 -0.2838  0.2713
  464MOL0     C62550   9.004   1.643   6.910  0.9453  0.0556  0.3813
  464MOL0     C62551   8.911   1.704   6.827  0.6618 -0.4172  0.4403
  464MOL0     O62552   8.814   1.832   6.587 -0.3078 -0.1778 -0.0397
  464MOL0     C62553   8.495   1.941   6.682  0.8129  1.3526  0.4788
  464MOL0     C62554   8.413   2.052   6.674 -0.7117  0.4642  0.2277
  464MOL0     N62555   7.839   2.496   6.555 -0.6705 -0.6438 -0.7607
  464MOL0     N62556   7.723   2.549   6.582 -0.3788  0.0887  0.0089
  464MOL0     C62557   7.023   2.125   6.858 -0.5730 -0.3877 -0.1317
  464MOL0     C62558   7.103   2.043   6.773  0.6082  0.5456 -0.4450
  464MOL0     C62559   7.289   1.980   6.375  0.6688 -0.4194 -0.2729
  464MOL0     C62560   7.423   2.006   6.396 -0.3283 -0.0277 -0.0177
  464MOL0     C62561   7.512   1.953   6.305 -0.6134  0.4884  0.2973
  464MOL0     C62562   7.464   1.901   6.179  0.2486  0.2829  0.0326
  464MOL0     O62563   7.564   1.874   6.088  0.6948  0.0670 -0.0636
  464MOL0     C62564   7.542   1.755   6.018 -0.5682 -0.1323  0.3982
  464MOL0     C62565   7.658   1.726   5.911  0.0722  1.1128 -0.3157
  464MOL0     C62566   7.795   1.692   5.989 -0.0147 -0.1462  0.8385
  464MOL0     C62567   7.906   1.661   5.891  0.4845  0.5570  0.0026
  464MOL0     C62568   8.033   1.620   5.955  0.3534 -0.2369 -0.0715
  464MOL0     C62569   8.140   1.588   5.997 -0.8636 -0.1959 -0.0361
  464MOL0     C62570   7.330   1.868   6.173 -0.5160  0.2613  0.3770
  464MOL0     C62571   7.244   1.900   6.271 -0.0323 -0.2495 -0.8943
  464MOL0     C62572   7.093   1.878   6.244  0.5449 -0.3631  0.9265
  464MOL0     H62573   6.892   2.046   6.503  1.2148 -0.1710  0.4123
  464MOL0     H62574   6.762   2.172   6.651  1.9979  2.7294 -0.5548
  464MOL0     H62575   6.821   2.391   7.054  2.3481 -0.4703  2.1059
  464MOL0     H62576   6.981   2.345   7.010  0.7534 -1.8393 -4.1491
  464MOL0     H62577   6.866   2.568   6.898  1.0849 -0.1247 -0.8729
  464MOL0     H62578   6.791   2.446   6.794  0.2517 -0.5937  0.4890
  464MOL0     H62579   6.990   2.553   6.693  0.7365  1.0958  1.2042
  464MOL0     H62580   7.018   2.376   6.718  0.8662 -0.1335 -0.0384
  464MOL0     H62581   7.121   2.593   6.908 -0.4127  0.6912 -0.7136
  464MOL0     H62582   7.159   2.428   6.927 -3.4548  1.7234  2.7166
  464MOL0     H62583   7.238   2.605   6.673  2.3954 -1.4194 -1.3658
  464MOL0     H62584   7.347   2.551   6.798 -0.2234  0.6164  0.1999
  464MOL0     H62585   7.239   2.307   6.697  1.3139 -1.7769 -3.0335
  464MOL0     H62586   7.232   2.406   6.556  0.5678  0.7210  0.3197
  464MOL0     H62587   7.422   2.282   6.571 -1.1929  0.2928 -1.1280
  464MOL0     H62588   7.484   2.373   6.710  0.3063  0.4770  0.1001
  464MOL0     H62589   7.431   2.491   6.431 -0.4476  0.4305  0.7247
  464MOL0     H62590   7.472   2.583   6.575 -1.8872  0.5417 -0.9174
  464MOL0     H62591   7.655   2.296   6.381  0.9017  1.0730 -1.5451
  464MOL0     H62592   7.912   2.208   6.435 -0.2217  0.3722  0.2813
  464MOL0     H62593   7.959   2.330   6.307  0.8438  1.3208 -0.2614
  464MOL0     H62594   8.143   2.309   6.381  0.0863 -3.6311 -0.4562
  464MOL0     H62595   8.095   2.449   6.490  1.3179 -0.6248  0.1634
  464MOL0     H62596   8.126   2.149   6.554  2.9601  0.5803 -1.8227
  464MOL0     H62597   8.045   2.273   6.658 -0.7646  1.1325 -0.1188
  464MOL0     H62598   8.271   2.257   6.756 -0.6850  0.8301  0.9190
  464MOL0     H62599   8.243   2.402   6.667 -0.6532  0.0750 -1.6643
  464MOL0     H62600   8.603   2.244   6.466  2.3082  0.4532  2.7415
  464MOL0     H62601   8.743   2.037   6.471 -1.1754 -2.3665 -1.5600
  464MOL0     H62602   8.654   1.484   6.849 -0.1858  0.1118  0.0611
  464MOL0     H62603   8.823   1.377   7.008  1.8142  0.2429  0.1710
  464MOL0     H62604   9.229   1.535   6.982 -0.6160  2.3115 -0.7433
  464MOL0     H62605   9.184   1.635   7.110 -0.0266  0.2184 -1.8853
  464MOL0     H62606   9.213   1.450   7.276  1.2276  2.5801  0.6015
  464MOL0     H62607   9.298   1.351   7.146 -1.1779 -0.4458  0.1998
  464MOL0     H62608   9.458   1.554   7.126  0.3576 -2.9503 -0.1949
  464MOL0     H62609   9.377   1.621   7.262 -1.2039  1.1416 -1.6151
  464MOL0     H62610   9.529   1.363   7.253  0.3337  0.9140 -2.5437
  464MOL0     H62611   9.443   1.422   7.400 -0.1736 -1.7050 -0.8467
  464MOL0     H62612   9.587   1.625   7.400 -4.3740 -0.7265  0.6518
  464MOL0     H62613   9.677   1.564   7.255  2.9153 -0.6959  1.8300
  464MOL0     H62614   9.642   1.409   7.512  2.1349 -1.1844  0.2544
  464MOL0     H62615   9.761   1.376   7.390  2.8971  1.3329 -0.2187
  464MOL0     H62616   9.777   1.581   7.623  3.2299  1.4410  1.0940
  464MOL0     H62617   9.851   1.613   7.465  3.3872 -1.5826  0.1519
  464MOL0     H62618   9.902   1.367   7.614 -0.5301  0.3480 -0.8174
  464MOL0     H62619   9.980   1.409   7.462 -3.2667 -0.7210 -1.2089
  464MOL0     H62620   9.101   1.689   6.922 -0.0257  1.8842  1.6044
  464MOL0     H62621   8.945   1.801   6.794  1.0016 -1.6968 -3.4415
  464MOL0     H62622   8.463   1.852   6.736 -0.8071  0.6790 -1.4789
  464MOL0     H62623   8.329   2.053   6.744 -1.2376 -2.7950 -0.2308
  464MOL0     H62624   7.067   2.128   6.958  0.3304 -1.6798 -0.4729
  464MOL0     H62625   7.194   2.001   6.814 -0.2641  0.3341  1.3564
  464MOL0     H62626   7.459   2.069   6.477 -1.0007  0.6160 -0.2063
  464MOL0     H62627   7.618   1.975   6.310 -0.6901  0.9514 -0.0730
  464MOL0     H62628   7.447   1.770   5.967 -0.7727  0.0401  0.8267
  464MOL0     H62629   7.545   1.670   6.086 -0.0826 -3.3400 -3.2931
  464MOL0     H62630   7.672   1.820   5.858  0.9104  0.8145 -0.6412
  464MOL0     H62631   7.636   1.644   5.842 -0.9209 -0.2689  1.5377
  464MOL0     H62632   7.790   1.615   6.066 -1.5456 -0.3962  0.5261
  464MOL0     H62633   7.815   1.782   6.048 -2.2537  1.8503 -1.1983
  464MOL0     H62634   7.883   1.570   5.835  2.0963  0.0084  0.1624
  464MOL0     H62635   7.931   1.740   5.819  1.9323  4.0803  3.9583
  464MOL0     H62636   8.238   1.569   6.037 -1.1876 -0.7487  0.5141
  464MOL0     H62637   7.282   1.811   6.094  0.0777  0.9154 -0.4761
  464MOL0     H62638   7.070   1.823   6.152  3.1666 -0.4347  0.2419
  464MOL0     H62639   7.043   1.829   6.328 -2.3051 -1.7055 -1.3528
  464MOL0     H62640   7.045   1.975   6.231 -1.0813 -1.1459  0.8549
  465MOL0     O62641  10.719   9.693   5.982  0.3586  0.2491 -0.2126
  465MOL0     C62642  10.758   9.577   5.952  0.6670 -1.0961 -0.6390
  465MOL0     O62643  10.882   9.529   5.966 -0.4882  0.1549  0.0664
  465MOL0     C62644  10.983   9.617   6.017 -0.0824  0.4184  0.0937
  465MOL0     C62645  11.084   9.659   5.937  0.5460 -0.2877 -0.4128
  465MOL0     C62646  11.188   9.729   5.983 -0.1341  0.1379 -0.2305
  465MOL0     C62647  11.200   9.751   6.127  0.2187  0.6339  0.2926
  465MOL0     O62648  11.303   9.811   6.194 -0.7629 -0.1666  0.0056
  465MOL0     C62649  11.423   9.827   6.121 -0.8509 -0.2222  0.1708
  465MOL0     C62650  11.519   9.898   6.216 -0.4054 -0.7274  0.4922
  465MOL0     C62651  11.667   9.884   6.180  0.1380 -0.0408  0.3592
  465MOL0     C62652  11.692   9.897   6.030  0.6687  0.2715 -0.0935
  465MOL0     C62653  11.846   9.875   6.008 -0.3590  0.2669  0.0370
  465MOL0     C62654  11.901   9.898   5.859  0.1933  0.5296 -0.3050
  465MOL0     C62655  12.056   9.919   5.867 -0.5184 -1.1007 -0.0644
  465MOL0     C62656  12.114   9.940   5.728 -0.0777  0.5195  0.2206
  465MOL0     N62657  12.261   9.951   5.737 -0.3901  0.2944  0.2737
  465MOL0     C62658  12.345   9.971   5.632 -0.4551 -0.3197  0.7596
  465MOL0     C62659  12.466  10.008   5.691 -0.0573  0.0883  1.1523
  465MOL0     C62660  12.596  10.045   5.622 -0.2906 -0.7767  0.0440
  465MOL0     C62661  12.610  10.195   5.572 -0.0196  0.8009  0.5856
  465MOL0     C62662  12.533  10.204   5.449  0.4306  0.1774  0.6983
  465MOL0     C62663  12.614  10.167   5.320 -0.1010  0.3934 -0.5805
  465MOL0     O62664  12.734  10.246   5.317  0.1276  0.1867  0.4279
  465MOL0     C62665  12.812  10.240   5.202  0.1558 -0.4368  0.1109
  465MOL0     C62666  12.943  10.261   5.224  0.1748 -0.2847 -0.4848
  465MOL0     C62667  13.046  10.265   5.123  0.1601 -0.7372 -0.4370
  465MOL0     C62668  13.011  10.251   4.986 -0.8189  0.0996 -0.5742
  465MOL0     C62669  13.101  10.281   4.876  0.1954 -0.4680 -0.0323
  465MOL0     O62670  13.202  10.362   4.907  0.7009 -0.6100 -0.0485
  465MOL0     C62671  13.302  10.397   4.817  1.3466  0.3832  0.2195
  465MOL0     C62672  13.300  10.409   4.679  0.3380 -0.4309  0.7835
  465MOL0     C62673  13.404  10.455   4.604 -0.3702  0.5964  0.0749
  465MOL0     C62674  13.526  10.482   4.670  0.2819  0.1142  0.4363
  465MOL0     O62675  13.641  10.528   4.614 -0.4006 -0.1427 -0.5200
  465MOL0     C62676  13.630  10.662   4.567  0.2200  0.0951  0.0948
  465MOL0     C62677  13.732  10.711   4.472 -0.0229  0.6216  0.0269
  465MOL0     C62678  13.877  10.683   4.512 -0.2934 -0.1453 -0.9241
  465MOL0     C62679  13.966  10.709   4.391  0.0653 -0.2157  0.3583
  465MOL0     C62680  14.099  10.631   4.386  0.2529  0.4379 -0.1456
  465MOL0     C62681  14.208  10.696   4.467  0.1159  0.6120  0.5796
  465MOL0     C62682  14.325  10.594   4.479  0.1784 -0.0759  0.2097
  465MOL0     C62683  14.453  10.635   4.550 -0.3043  0.1089 -0.0774
  465MOL0    Cl62684  14.581  10.514   4.544  0.1853  0.1691  0.3338
  465MOL0     C62685  13.537  10.455   4.802  0.1533  0.7409  0.4857
  465MOL0     C62686  13.425  10.427   4.883  0.6400  0.3459 -0.0864
  465MOL0     O62687  13.074  10.251   4.759  0.2724  0.3433 -0.0267
  465MOL0     C62688  12.876  10.215   4.959  0.1757 -0.1001  0.1105
  465MOL0     C62689  12.780  10.215   5.067 -0.2319 -0.1532  0.7463
  465MOL0     N62690  12.454  10.016   5.826  0.3316 -0.2642  0.6461
  465MOL0     N62691  12.331   9.985   5.850 -0.7460  0.6573  0.2875
  465MOL0     C62692  11.101   9.694   6.211 -0.7374  0.0199 -0.3866
  465MOL0     C62693  10.989   9.629   6.155  0.5471  0.1080  0.7929
  465MOL0     C62694  10.662   9.476   5.895 -0.4228 -0.3147  0.0996
  465MOL0     C62695  10.693   9.341   5.924  0.4072 -0.9730 -0.7941
  465MOL0     C62696  10.615   9.242   5.888  1.4499 -0.0023  0.8636
  465MOL0     C62697  10.510   9.259   5.803  0.5319 -0.0213  0.0667
  465MOL0     O62698  10.452   9.140   5.776  0.2232  0.4348  0.0206
  465MOL0     C62699  10.330   9.142   5.691  0.3709  0.4525 -0.3104
  465MOL0     C62700  10.280   9.001   5.657 -0.6819  0.1741  0.3646
  465MOL0     C62701  10.258   8.924   5.786 -0.2296  0.2527  0.7152
  465MOL0     C62702  10.198   8.785   5.764 -0.6726  0.6363  0.3669
  465MOL0     C62703  10.066   8.800   5.719  0.5778  0.7164  0.4438
  465MOL0     C62704   9.952   8.806   5.676  0.3704  0.2769  0.8562
  465MOL0     C62705  10.482   9.387   5.764  0.5100 -0.6104  0.7316
  465MOL0     C62706  10.549   9.503   5.811 -0.0974  0.7795 -0.5067
  465MOL0     C62707  10.493   9.637   5.763 -1.2191 -0.0743 -0.3912
  465MOL0     H62708  11.079   9.624   5.835  0.1282  1.3454 -0.9808
  465MOL0     H62709  11.266   9.759   5.913 -0.3649 -0.3194 -0.6912
  465MOL0     H62710  11.455   9.733   6.075 -2.1306 -0.4524 -0.2925
  465MOL0     H62711  11.421   9.899   6.039  1.0004 -0.3037 -0.0025
  465MOL0     H62712  11.502   9.857   6.316  2.2320 -0.6968  1.0302
  465MOL0     H62713  11.499  10.005   6.220  0.8589 -0.4868  4.5901
  465MOL0     H62714  11.719   9.794   6.215  0.6472  0.4249  0.8241
  465MOL0     H62715  11.706   9.972   6.231  3.0743 -0.2668 -1.2901
  465MOL0     H62716  11.642   9.819   5.971  0.6703  0.5550 -0.4707
  465MOL0     H62717  11.654   9.991   5.988  1.5184  0.5694 -0.1963
  465MOL0     H62718  11.905   9.943   6.070  2.3221 -1.4181 -0.4834
  465MOL0     H62719  11.869   9.774   6.042 -2.2061 -1.5246 -3.4698
  465MOL0     H62720  11.871   9.817   5.792  0.3467  0.3846 -0.2011
  465MOL0     H62721  11.867   9.995   5.821  1.5664  1.6952  1.2581
  465MOL0     H62722  12.098   9.829   5.914 -1.2767 -1.5611 -0.2581
  465MOL0     H62723  12.079  10.008   5.926  2.7582 -0.1350 -2.4530
  465MOL0     H62724  12.074   9.862   5.663  0.3457  0.1442  0.4088
  465MOL0     H62725  12.073  10.032   5.684 -0.1642 -0.5237 -2.0174
  465MOL0     H62726  12.328   9.955   5.526 -0.6683  1.3090  0.5222
  465MOL0     H62727  12.681  10.038   5.691 -0.0418  1.0752 -0.0147
  465MOL0     H62728  12.626   9.982   5.538  0.7946  0.2261 -0.3443
  465MOL0     H62729  12.578  10.273   5.642 -1.5007  1.3979 -0.7034
  465MOL0     H62730  12.717  10.215   5.558 -0.1630  1.2192  0.0571
  465MOL0     H62731  12.488  10.303   5.437  0.2811  0.1195  0.7718
  465MOL0     H62732  12.454  10.130   5.457  0.6346 -0.1885 -0.4867
  465MOL0     H62733  12.544  10.198   5.242 -1.3458 -0.5389  0.1397
  465MOL0     H62734  12.633  10.060   5.309  0.3030  0.4150 -0.1319
  465MOL0     H62735  12.982  10.281   5.324 -0.5503  1.8786 -0.5826
  465MOL0     H62736  13.145  10.298   5.151  1.1531 -1.9434 -2.3318
  465MOL0     H62737  13.207  10.402   4.624 -0.6653  1.1935  2.1913
  465MOL0     H62738  13.383  10.473   4.499 -1.0242  0.6396  0.2086
  465MOL0     H62739  13.534  10.684   4.519  0.3133  4.0395  1.3240
  465MOL0     H62740  13.632  10.733   4.650  1.1321 -0.5729  0.6613
  465MOL0     H62741  13.710  10.668   4.374 -1.7514 -5.1859  2.5258
  465MOL0     H62742  13.714  10.819   4.463 -0.0344  0.9844  3.3086
  465MOL0     H62743  13.911  10.735   4.602  1.0310 -2.8725  0.2724
  465MOL0     H62744  13.886  10.575   4.527  2.4976  0.1835  0.2869
  465MOL0     H62745  13.988  10.814   4.366  1.5489 -0.8769 -1.3397
  465MOL0     H62746  13.913  10.666   4.305 -0.2881  0.2676  0.3279
  465MOL0     H62747  14.133  10.622   4.282  3.3034 -1.2873  0.8792
  465MOL0     H62748  14.073  10.532   4.424 -1.0477  0.5495 -0.6843
  465MOL0     H62749  14.245  10.792   4.429  1.0500  0.2645  0.5822
  465MOL0     H62750  14.176  10.732   4.565 -0.5788  4.7279 -0.9544
  465MOL0     H62751  14.360  10.572   4.378  3.4721 -2.6479  1.6969
  465MOL0     H62752  14.288  10.505   4.531  0.6776 -1.4337 -1.6740
  465MOL0     H62753  14.491  10.732   4.517 -1.3213  0.4816 -0.1857
  465MOL0     H62754  14.416  10.657   4.651 -0.3982 -0.6266  0.0499
  465MOL0     H62755  13.632  10.480   4.849  0.5607  3.5712 -1.5745
  465MOL0     H62756  13.436  10.421   4.990 -1.4167 -1.3008  0.1079
  465MOL0     H62757  12.853  10.190   4.856 -0.5920 -0.1615  0.2934
  465MOL0     H62758  12.679  10.202   5.030  0.6960 -0.1210 -1.9519
  465MOL0     H62759  11.096   9.722   6.316  0.3972  1.2879 -0.6400
  465MOL0     H62760  10.929   9.573   6.226  0.5857  1.3139  1.8012
  465MOL0     H62761  10.770   9.319   5.997 -1.4644  0.2998  1.7184
  465MOL0     H62762  10.625   9.140   5.924  0.1941 -0.4503  0.0199
  465MOL0     H62763  10.345   9.198   5.598  1.7893  0.6389  0.0125
  465MOL0     H62764  10.247   9.185   5.747 -0.3001 -0.5064 -0.5421
  465MOL0     H62765  10.364   8.957   5.604  0.4371  0.8430  1.5255
  465MOL0     H62766  10.190   9.014   5.595  1.1526  2.6462 -2.0003
  465MOL0     H62767  10.207   8.985   5.861  2.5508  1.4215  1.7690
  465MOL0     H62768  10.363   8.913   5.813 -0.2991 -0.2325  0.8013
  465MOL0     H62769  10.262   8.727   5.697 -0.5218  0.2149  0.8623
  465MOL0     H62770  10.196   8.722   5.854  1.3890 -0.8379 -0.5311
  465MOL0     H62771   9.853   8.813   5.636  0.6635 -1.1647 -0.2150
  465MOL0     H62772  10.396   9.398   5.699 -0.9647 -1.6040  2.4150
  465MOL0     H62773  10.574   9.709   5.752 -0.8350 -0.6688 -1.5812
  465MOL0     H62774  10.453   9.621   5.663  0.4628 -1.3957 -0.8896
  465MOL0     H62775  10.423   9.684   5.834 -0.7062  1.1331 -0.6664
  466MOL0     O62776   8.684   6.063   1.487  0.2808 -0.2863 -0.1693
  466MOL0     C62777   8.579   6.058   1.425  0.3149  0.0898 -0.1711
  466MOL0     O62778   8.554   6.112   1.306 -0.3263  0.5491  0.5929
  466MOL0     C62779   8.667   6.160   1.233  0.2710 -0.0842 -0.7770
  466MOL0     C62780   8.779   6.085   1.210  0.6926  0.4082  0.9459
  466MOL0     C62781   8.899   6.124   1.138  0.5813 -0.6585 -0.1191
  466MOL0     C62782   8.897   6.254   1.084  0.0980 -0.1653  0.2608
  466MOL0     O62783   9.014   6.302   1.023  0.1904  0.0372 -0.7822
  466MOL0     C62784   9.022   6.439   1.004 -0.1098  0.1015  0.2635
  466MOL0     C62785   9.156   6.470   0.941  0.2815  0.4748  0.3830
  466MOL0     C62786   9.191   6.617   0.925 -0.3043  0.0537  0.0501
  466MOL0     C62787   9.228   6.700   1.045 -0.4350  0.1473  1.4119
  466MOL0     C62788   9.298   6.836   1.009  0.2977 -0.1755 -0.2638
  466MOL0     C62789   9.296   6.937   1.126  0.0007  0.6008 -0.0428
  466MOL0     C62790   9.384   6.893   1.246  0.1914  0.4930 -0.8992
  466MOL0     C62791   9.526   6.844   1.226 -0.7359  0.1444 -0.1097
  466MOL0     N62792   9.594   6.948   1.155  0.5348 -0.5254 -0.2368
  466MOL0     C62793   9.630   6.930   1.024  0.6520 -0.8507 -0.7591
  466MOL0     C62794   9.721   7.026   1.003  0.0032  0.1339  1.1688
  466MOL0     C62795   9.788   7.040   0.869 -0.5074  0.6159  0.2860
  466MOL0     C62796   9.940   7.044   0.869 -0.1190 -0.1851 -0.4959
  466MOL0     C62797  10.004   6.984   0.744 -0.0602  0.6171  0.5717
  466MOL0     C62798  10.148   6.951   0.757 -0.0226 -0.1072  0.6021
  466MOL0     O62799  10.219   7.074   0.796 -0.5325  0.1114  0.0477
  466MOL0     C62800  10.273   7.159   0.699  0.4543 -0.3428  0.4375
  466MOL0     C62801  10.237   7.154   0.562  0.1714  0.0244 -0.3101
  466MOL0     C62802  10.308   7.237   0.473  0.3955 -0.8480  0.2430
  466MOL0     C62803  10.409   7.334   0.511  0.1533 -0.2427 -0.3959
  466MOL0     C62804  10.499   7.410   0.417  0.1157  0.2056 -0.8989
  466MOL0     O62805  10.573   7.507   0.472  0.7787 -0.5355 -0.5274
  466MOL0     C62806  10.686   7.562   0.414  0.4839  0.4277 -0.0434
  466MOL0     C62807  10.701   7.701   0.433  0.5083 -0.6361 -0.1174
  466MOL0     C62808  10.808   7.768   0.391 -0.8592 -0.3667  0.5159
  466MOL0     C62809  10.920   7.703   0.333  0.4404 -0.1648  0.7985
  466MOL0     O62810  11.037   7.777   0.311  0.0826 -0.2993 -1.3179
  466MOL0     C62811  11.109   7.754   0.187  0.1580  0.2766 -0.5066
  466MOL0     C62812  11.238   7.690   0.207 -0.7491  0.1650 -0.8809
  466MOL0     C62813  11.342   7.801   0.209  0.3652  0.0773  0.0779
  466MOL0     C62814  11.494   7.758   0.240  0.7213  0.7140 -0.1259
  466MOL0     C62815  11.579   7.880   0.202 -0.2777 -0.4300  0.6451
  466MOL0     C62816  11.715   7.870   0.264 -0.1063  0.1980 -0.2309
  466MOL0     C62817  11.719   7.917   0.416  0.0256  0.0751  0.2709
  466MOL0     C62818  11.856   7.894   0.484 -0.2291 -0.7329  0.5791
  466MOL0    Cl62819  11.987   7.968   0.380 -0.3198  0.0722 -0.2912
  466MOL0     C62820  10.904   7.558   0.314 -0.2509  0.2562  0.2040
  466MOL0     C62821  10.789   7.495   0.358  0.0440  0.4881 -0.2980
  466MOL0     O62822  10.498   7.382   0.294  0.7887  0.2527 -0.4170
  466MOL0     C62823  10.435   7.339   0.645  0.7453 -0.4639 -0.4431
  466MOL0     C62824  10.370   7.247   0.734  0.6023 -0.3226  0.2660
  466MOL0     N62825   9.748   7.098   1.116 -0.6620  0.6347 -0.8392
  466MOL0     N62826   9.678   7.035   1.213  0.2793 -0.1705  0.4239
  466MOL0     C62827   8.780   6.331   1.100  0.4888  1.1137  0.3405
  466MOL0     C62828   8.671   6.287   1.177 -0.2815  0.2274 -0.5341
  466MOL0     C62829   8.465   6.000   1.484  0.0131 -0.0908 -1.4127
  466MOL0     C62830   8.338   6.023   1.433  0.2391  0.5925 -0.3713
  466MOL0     C62831   8.221   5.970   1.502  0.1802 -0.6802  0.2655
  466MOL0     C62832   8.232   5.893   1.617 -0.1404 -0.2670 -0.3038
  466MOL0     O62833   8.116   5.853   1.671  0.4405 -0.6464 -0.1290
  466MOL0     C62834   8.116   5.769   1.782  0.9401 -0.5960 -0.0625
  466MOL0     C62835   7.975   5.739   1.839  0.4229 -0.0411 -0.7735
  466MOL0     C62836   7.927   5.859   1.919  0.7232 -0.2195 -0.1287
  466MOL0     C62837   7.829   5.825   2.037 -1.2111 -0.5973 -0.4250
  466MOL0     C62838   7.704   5.761   1.987 -0.6846  0.5983 -0.6565
  466MOL0     C62839   7.616   5.701   1.933  1.2068 -0.8730  0.2815
  466MOL0     C62840   8.361   5.858   1.659  0.0192 -0.1962 -0.1329
  466MOL0     C62841   8.478   5.902   1.594  1.1592 -0.2124  0.0367
  466MOL0     C62842   8.611   5.855   1.647  0.4071 -0.5861 -0.3259
  466MOL0     H62843   8.766   5.981   1.237 -2.2161  0.1272 -1.0706
  466MOL0     H62844   8.994   6.073   1.134  0.4596 -0.8181 -1.2993
  466MOL0     H62845   8.946   6.464   0.930 -0.5057 -3.2305 -0.6019
  466MOL0     H62846   9.009   6.505   1.090  0.1462  0.5143 -0.0099
  466MOL0     H62847   9.161   6.420   0.844 -0.2689  0.3708  0.4035
  466MOL0     H62848   9.232   6.422   1.003  0.3085  1.6351  1.2841
  466MOL0     H62849   9.114   6.674   0.872  1.8831  1.2978 -2.0337
  466MOL0     H62850   9.279   6.632   0.861 -0.7360  1.4409 -0.2639
  466MOL0     H62851   9.147   6.717   1.117  1.0450 -0.7208  3.3608
  466MOL0     H62852   9.305   6.640   1.093 -1.1008 -1.2862  0.7569
  466MOL0     H62853   9.398   6.821   0.969 -0.0022  0.4773 -1.2849
  466MOL0     H62854   9.230   6.893   0.945 -3.1823  0.5848  3.6195
  466MOL0     H62855   9.332   7.033   1.090  1.4650 -0.5399 -1.7728
  466MOL0     H62856   9.191   6.945   1.157  0.0687  0.0370  0.3608
  466MOL0     H62857   9.340   6.803   1.290 -2.9703  2.9689  1.5567
  466MOL0     H62858   9.386   6.965   1.329  0.4187 -1.7257  1.1396
  466MOL0     H62859   9.567   6.818   1.324  0.1394 -1.6245 -0.9046
  466MOL0     H62860   9.523   6.751   1.169  3.3989 -0.2694  0.0316
  466MOL0     H62861   9.584   6.860   0.955 -2.7118 -1.2812  1.6664
  466MOL0     H62862   9.763   6.952   0.809  4.0978 -0.3155 -0.6755
  466MOL0     H62863   9.765   7.137   0.824  0.2877  0.4227 -0.5736
  466MOL0     H62864   9.970   7.149   0.877  1.4587 -0.4976 -1.7119
  466MOL0     H62865   9.973   6.979   0.951 -0.8227 -1.4950 -1.2132
  466MOL0     H62866   9.994   7.065   0.672  1.9557  0.9236  0.5786
  466MOL0     H62867   9.962   6.890   0.708  0.7498 -0.0916  1.4285
  466MOL0     H62868  10.188   6.908   0.664  1.5031  1.6307  0.4131
  466MOL0     H62869  10.159   6.868   0.828 -3.2291  0.3454  1.7959
  466MOL0     H62870  10.161   7.084   0.531 -0.9787 -2.1517  5.9677
  466MOL0     H62871  10.272   7.227   0.371 -0.4850  1.6122  0.2359
  466MOL0     H62872  10.619   7.752   0.483 -2.2149 -3.4484 -1.3776
  466MOL0     H62873  10.814   7.876   0.404 -1.8316 -0.2163 -0.1800
  466MOL0     H62874  11.056   7.692   0.114  0.9367 -0.0068 -0.8354
  466MOL0     H62875  11.121   7.848   0.132 -1.1960  0.2647 -0.8733
  466MOL0     H62876  11.237   7.627   0.297 -1.8269 -0.1863 -1.1270
  466MOL0     H62877  11.280   7.625   0.130  2.5811 -1.1956  1.8170
  466MOL0     H62878  11.338   7.848   0.111  0.9683  1.6576  0.7697
  466MOL0     H62879  11.309   7.877   0.281 -0.8639 -1.5433  1.3256
  466MOL0     H62880  11.532   7.677   0.177 -0.1046  0.0593  0.2066
  466MOL0     H62881  11.509   7.719   0.341 -0.4026  0.6481  0.0307
  466MOL0     H62882  11.538   7.978   0.229 -1.2866 -0.8293  0.5962
  466MOL0     H62883  11.599   7.880   0.094  1.7069 -0.4780  0.9749
  466MOL0     H62884  11.756   7.768   0.263 -0.2019  0.1421  0.6772
  466MOL0     H62885  11.776   7.943   0.209  0.2567  2.1158  2.4884
  466MOL0     H62886  11.642   7.878   0.484 -0.5238  0.0391 -0.3684
  466MOL0     H62887  11.703   8.025   0.420  4.1010  0.7938  1.9508
  466MOL0     H62888  11.857   7.935   0.585  0.4504 -0.3371  0.4210
  466MOL0     H62889  11.867   7.786   0.488 -0.8865 -0.7746  1.5009
  466MOL0     H62890  10.982   7.497   0.271 -0.6225  0.1638 -0.3480
  466MOL0     H62891  10.781   7.387   0.369 -0.1727  0.1934 -2.7923
  466MOL0     H62892  10.498   7.411   0.697 -1.2757 -0.1254  1.7238
  466MOL0     H62893  10.403   7.249   0.838 -0.0495 -0.7568  0.4886
  466MOL0     H62894   8.778   6.433   1.063  1.8840  1.1258  0.2663
  466MOL0     H62895   8.597   6.362   1.207 -1.0388 -0.4304 -0.7288
  466MOL0     H62896   8.325   6.092   1.351  0.5072 -0.7292 -1.5504
  466MOL0     H62897   8.123   5.987   1.459 -0.2678 -2.3724  0.5494
  466MOL0     H62898   8.178   5.804   1.864  0.5578 -1.7306  0.7329
  466MOL0     H62899   8.162   5.675   1.753  3.5384  0.5706  0.0437
  466MOL0     H62900   8.000   5.658   1.908  3.3255  0.7795 -0.7023
  466MOL0     H62901   7.899   5.706   1.768  0.1268 -1.1450  0.0277
  466MOL0     H62902   7.879   5.930   1.851 -0.5258  1.6712  2.5237
  466MOL0     H62903   8.010   5.915   1.962 -1.8176  3.1078  0.8934
  466MOL0     H62904   7.883   5.765   2.112 -1.9147  1.5602  1.9668
  466MOL0     H62905   7.812   5.922   2.084  0.4345 -1.5730  2.4573
  466MOL0     H62906   7.534   5.642   1.898  0.2485  0.3611  0.4085
  466MOL0     H62907   8.370   5.783   1.737 -0.0506 -0.2534 -0.1805
  466MOL0     H62908   8.596   5.769   1.713  0.2379 -1.4371 -1.4465
  466MOL0     H62909   8.671   5.830   1.558 -0.2317  3.2190 -2.0174
  466MOL0     H62910   8.665   5.936   1.696  2.6359 -2.5600  0.6802
  467MOL0     O62911   6.740   9.063   1.830  0.1217  0.2436 -0.5563
  467MOL0     C62912   6.726   9.024   1.716  0.3624  0.6318  0.0623
  467MOL0     O62913   6.826   8.981   1.630  0.1794  0.0778  0.4615
  467MOL0     C62914   6.953   8.976   1.693 -0.1127 -0.4436 -0.0114
  467MOL0     C62915   6.995   8.882   1.788  0.5975 -0.1048 -0.5879
  467MOL0     C62916   7.124   8.887   1.830 -0.4474 -0.5057  0.2579
  467MOL0     C62917   7.221   8.971   1.775 -0.4714 -0.5951  0.3749
  467MOL0     O62918   7.355   8.971   1.808 -0.2535  0.0847  0.1977
  467MOL0     C62919   7.393   8.861   1.900 -0.8478  0.3025  0.5304
  467MOL0     C62920   7.548   8.857   1.917  0.2934 -0.4932  0.3441
  467MOL0     C62921   7.621   8.998   1.942  0.6296 -0.3298 -0.0013
  467MOL0     C62922   7.772   8.969   1.961  0.2213  0.3836 -0.0906
  467MOL0     C62923   7.856   9.093   1.980 -0.8323 -0.7825 -0.3434
  467MOL0     C62924   7.978   9.073   2.072  0.3784  0.6128 -0.0850
  467MOL0     C62925   8.101   9.020   2.002 -0.2281 -0.3097 -0.0969
  467MOL0     C62926   8.212   8.997   2.108  1.1299  0.0909 -0.0287
  467MOL0     N62927   8.186   8.870   2.191 -0.5035 -0.1687 -0.5512
  467MOL0     C62928   8.136   8.859   2.321  0.1524  0.2365  0.5724
  467MOL0     C62929   8.177   8.728   2.355 -0.5252  0.0898  0.2680
  467MOL0     C62930   8.153   8.685   2.496  0.3263 -0.1892 -1.0873
  467MOL0     C62931   8.273   8.728   2.582  0.1231  0.6674 -0.5739
  467MOL0     C62932   8.406   8.653   2.540 -0.8770 -0.2742 -0.0542
  467MOL0     C62933   8.530   8.708   2.615 -0.5133  0.5749  0.5599
  467MOL0     O62934   8.649   8.632   2.589 -0.8866 -0.2558 -0.1925
  467MOL0     C62935   8.755   8.681   2.666  0.4187  1.1240 -0.0554
  467MOL0     C62936   8.773   8.805   2.742 -0.3820  0.1094  0.6337
  467MOL0     C62937   8.879   8.843   2.823  0.2221  0.6687  0.7197
  467MOL0     C62938   8.982   8.755   2.832  0.4099  0.5196  0.3073
  467MOL0     C62939   9.102   8.787   2.916  1.0541 -0.4721  0.1559
  467MOL0     O62940   9.101   8.891   3.008  0.4396 -0.7945  0.3251
  467MOL0     C62941   9.218   8.921   3.068 -0.0992 -0.2433  0.1459
  467MOL0     C62942   9.244   8.892   3.201  0.3544  0.3478 -0.4706
  467MOL0     C62943   9.363   8.933   3.263  0.3428 -1.0600  0.5038
  467MOL0     C62944   9.467   8.992   3.188 -0.4380 -0.9853  0.2588
  467MOL0     O62945   9.593   9.019   3.240 -0.6055 -0.0361 -0.4173
  467MOL0     C62946   9.636   8.914   3.326 -0.5030  0.1249  0.7102
  467MOL0     C62947   9.780   8.898   3.319  0.4360 -0.2816  0.1973
  467MOL0     C62948   9.854   9.015   3.394 -0.2964  0.4938 -0.1752
  467MOL0     C62949   9.999   8.980   3.400  0.0310  0.2492 -0.2456
  467MOL0     C62950  10.078   9.073   3.490  0.8347  1.0068  0.0917
  467MOL0     C62951  10.109   9.208   3.427 -0.1211 -0.1333 -0.2112
  467MOL0     C62952  10.159   9.303   3.530 -0.6557 -0.5704 -0.2176
  467MOL0     C62953  10.305   9.259   3.567  0.0591  1.1157 -0.1920
  467MOL0    Cl62954  10.396   9.363   3.673 -0.0314 -0.5347  0.2118
  467MOL0     C62955   9.447   9.015   3.052  0.5223 -0.3069  0.3014
  467MOL0     C62956   9.319   8.975   2.991 -0.2301  0.4399 -0.0266
  467MOL0     O62957   9.196   8.713   2.889  0.1957 -0.0123 -0.0676
  467MOL0     C62958   8.978   8.635   2.749  0.3896  0.2315 -0.2839
  467MOL0     C62959   8.871   8.605   2.663  0.2791  1.0971 -0.1736
  467MOL0     N62960   8.223   8.667   2.242 -0.7683  0.4419 -0.2988
  467MOL0     N62961   8.237   8.754   2.147  0.4947  0.0027 -0.5151
  467MOL0     C62962   7.185   9.056   1.672 -0.0668  0.2490 -0.0240
  467MOL0     C62963   7.048   9.063   1.635 -0.2124  0.0050 -0.1476
  467MOL0     C62964   6.581   9.041   1.670  0.0129  0.6320  1.0052
  467MOL0     C62965   6.548   9.146   1.580 -0.7636  0.4167 -0.7345
  467MOL0     C62966   6.419   9.175   1.543 -0.1983  0.7047 -0.3473
  467MOL0     C62967   6.314   9.104   1.609 -0.0718  0.3225 -0.8079
  467MOL0     O62968   6.179   9.131   1.591  0.5974 -0.7822 -0.5008
  467MOL0     C62969   6.147   9.240   1.504  0.4539 -0.1496  0.5866
  467MOL0     C62970   6.138   9.188   1.361  0.2432 -0.3264 -0.2954
  467MOL0     C62971   6.087   9.283   1.255  0.8516  1.1272  0.3603
  467MOL0     C62972   6.048   9.211   1.125 -0.0813 -0.4258 -0.1639
  467MOL0     C62973   5.930   9.133   1.145 -0.4521 -0.0776 -0.2283
  467MOL0     C62974   5.835   9.054   1.158  0.6767  1.1755  0.1875
  467MOL0     C62975   6.348   8.989   1.688 -0.0037 -0.8902  0.1045
  467MOL0     C62976   6.474   8.962   1.719 -0.3965 -0.2366  0.4374
  467MOL0     C62977   6.494   8.861   1.824  0.1788 -0.5187 -0.2332
  467MOL0     H62978   6.928   8.817   1.843  1.1871  1.0909  1.6828
  467MOL0     H62979   7.148   8.841   1.925  0.5716  0.3610  0.4487
  467MOL0     H62980   7.351   8.862   2.001  1.4049  0.0067  1.5332
  467MOL0     H62981   7.367   8.763   1.858  0.6090  0.5819 -1.1229
  467MOL0     H62982   7.591   8.817   1.824 -0.5962 -0.6415 -0.0135
  467MOL0     H62983   7.567   8.783   1.994 -2.0627 -1.8797 -0.3036
  467MOL0     H62984   7.579   9.060   2.022 -0.7788 -0.9946 -0.2000
  467MOL0     H62985   7.610   9.064   1.855  0.1956  4.5827  3.3235
  467MOL0     H62986   7.780   8.895   2.041  0.1105 -0.0238 -0.4499
  467MOL0     H62987   7.805   8.913   1.873 -1.6687 -0.1803 -0.5036
  467MOL0     H62988   7.891   9.139   1.887  0.9603  0.1237  0.7136
  467MOL0     H62989   7.794   9.163   2.035  3.4397  2.9305  0.3738
  467MOL0     H62990   8.001   9.169   2.118  2.4461  0.7575 -1.2679
  467MOL0     H62991   7.955   9.005   2.154 -1.8873  2.4244  0.8747
  467MOL0     H62992   8.134   9.094   1.928  0.2816  1.6610  1.9866
  467MOL0     H62993   8.077   8.926   1.952 -2.9587 -0.6473  1.6733
  467MOL0     H62994   8.307   8.994   2.054 -0.1732 -0.4918 -2.4062
  467MOL0     H62995   8.215   9.079   2.181  0.1433  0.8012 -0.7599
  467MOL0     H62996   8.082   8.935   2.378  0.8797  0.0572  1.5253
  467MOL0     H62997   8.072   8.745   2.538 -0.5224  0.0985 -3.0214
  467MOL0     H62998   8.129   8.579   2.507 -2.4762  0.4967  0.2071
  467MOL0     H62999   8.285   8.835   2.598  3.4252  0.3277 -0.0687
  467MOL0     H63000   8.249   8.697   2.684  1.0413  1.0840 -0.2152
  467MOL0     H63001   8.438   8.654   2.435  2.0218  1.4711  0.7355
  467MOL0     H63002   8.398   8.548   2.571 -1.3124 -0.6343 -1.2950
  467MOL0     H63003   8.512   8.723   2.721  0.6447 -0.6227  0.9454
  467MOL0     H63004   8.553   8.808   2.577  2.5868 -1.0328 -2.3503
  467MOL0     H63005   8.690   8.875   2.740 -0.8744 -0.4807 -1.3536
  467MOL0     H63006   8.872   8.939   2.873 -2.9015  0.1261  1.5694
  467MOL0     H63007   9.170   8.834   3.255  1.8901 -2.3640 -1.0954
  467MOL0     H63008   9.389   8.912   3.366  0.5139  1.9138  1.1399
  467MOL0     H63009   9.605   8.929   3.430  0.9026 -1.7270  1.4606
  467MOL0     H63010   9.603   8.815   3.294  2.8945 -0.6257 -0.9528
  467MOL0     H63011   9.799   8.806   3.376 -3.2717  0.3097  2.7795
  467MOL0     H63012   9.804   8.889   3.213 -1.6662 -1.0482 -0.2777
  467MOL0     H63013   9.847   9.112   3.345 -0.4250  0.1614 -0.8257
  467MOL0     H63014   9.812   9.026   3.495  1.4073  1.0436  0.5208
  467MOL0     H63015  10.038   8.988   3.299 -2.0681  1.9285 -0.9997
  467MOL0     H63016  10.016   8.883   3.447 -2.5720  0.4291  1.3253
  467MOL0     H63017  10.167   9.022   3.526  0.2427  0.3043  0.6011
  467MOL0     H63018  10.025   9.084   3.586 -0.0654 -1.4056 -0.0596
  467MOL0     H63019  10.177   9.182   3.346 -1.5854 -0.5900 -1.3425
  467MOL0     H63020  10.021   9.249   3.376 -0.9069 -1.2756  0.1742
  467MOL0     H63021  10.106   9.301   3.625  1.3592 -1.9966  0.9726
  467MOL0     H63022  10.167   9.407   3.497  1.3364 -0.0844  1.5689
  467MOL0     H63023  10.309   9.156   3.607 -0.6744  1.7970  1.7674
  467MOL0     H63024  10.361   9.246   3.474 -0.4137 -0.8791 -0.2455
  467MOL0     H63025   9.514   9.068   2.984  0.0664  2.3306  1.7720
  467MOL0     H63026   9.291   9.008   2.891 -0.3659  0.2509 -0.0503
  467MOL0     H63027   9.062   8.567   2.745  0.9563  0.8115  1.0004
  467MOL0     H63028   8.880   8.515   2.603 -0.8254 -0.3013  1.6492
  467MOL0     H63029   7.253   9.127   1.625  0.8073  1.6576  3.1009
  467MOL0     H63030   7.020   9.146   1.571 -1.4241 -1.8640 -2.2142
  467MOL0     H63031   6.634   9.195   1.535 -0.2803  0.6727  0.4311
  467MOL0     H63032   6.402   9.253   1.470  0.3800  2.1819  1.0406
  467MOL0     H63033   6.209   9.328   1.522 -0.1171 -0.1588  2.8204
  467MOL0     H63034   6.049   9.279   1.533 -0.0076 -0.1832 -0.8547
  467MOL0     H63035   6.072   9.101   1.370 -0.0979  0.0901  1.9805
  467MOL0     H63036   6.235   9.156   1.322 -0.7095 -0.5833 -2.6148
  467MOL0     H63037   6.157   9.356   1.213  0.8475  0.0137 -1.6921
  467MOL0     H63038   6.009   9.348   1.296  1.1244  0.5612  1.8151
  467MOL0     H63039   6.020   9.294   1.059 -1.5071  1.4749  2.5912
  467MOL0     H63040   6.138   9.165   1.082  2.3651  4.0408 -0.4680
  467MOL0     H63041   5.754   8.985   1.168  0.3498  1.5605  0.2277
  467MOL0     H63042   6.258   8.941   1.723 -0.0434 -0.0835  1.1767
  467MOL0     H63043   6.568   8.891   1.899 -0.0608 -4.7005  1.9246
  467MOL0     H63044   6.404   8.844   1.883  1.6118 -1.5334  1.7560
  467MOL0     H63045   6.526   8.771   1.772  2.4038 -0.1658  0.4225
  468MOL0     O63046   4.023   1.947   3.432  0.8720 -0.2591  0.3774
  468MOL0     C63047   3.981   2.050   3.376 -0.1560 -0.5751  1.1886
  468MOL0     O63048   4.060   2.143   3.333 -0.7782 -0.5089 -0.0130
  468MOL0     C63049   4.201   2.136   3.321  0.8456 -0.5590 -0.0942
  468MOL0     C63050   4.255   2.265   3.303 -0.1830  0.6818  0.1437
  468MOL0     C63051   4.390   2.277   3.278  0.4345  0.4023 -0.2103
  468MOL0     C63052   4.472   2.164   3.271 -0.4874 -0.1511  0.4448
  468MOL0     O63053   4.609   2.168   3.254  0.1686  0.2810  0.1676
  468MOL0     C63054   4.680   2.292   3.266  0.3767  0.1847  0.0808
  468MOL0     C63055   4.832   2.259   3.236 -0.0949  0.1636  0.2795
  468MOL0     C63056   4.865   2.279   3.090  0.5993  0.4818  0.3069
  468MOL0     C63057   5.019   2.294   3.083  0.2483 -0.0361  0.5983
  468MOL0     C63058   5.066   2.295   2.937  0.1270 -0.1941 -0.3064
  468MOL0     C63059   5.219   2.277   2.921  0.2730  0.3399 -0.2339
  468MOL0     C63060   5.310   2.359   3.019  0.4063 -0.2106 -0.3558
  468MOL0     C63061   5.454   2.326   3.006 -0.5938  0.5915  0.3821
  468MOL0     N63062   5.513   2.369   2.873 -1.1413  0.2306 -0.3390
  468MOL0     C63063   5.587   2.484   2.854 -0.1254  0.2573  0.8935
  468MOL0     C63064   5.655   2.463   2.741  0.7779 -0.2830  0.7452
  468MOL0     C63065   5.745   2.559   2.661 -0.4561 -0.7362 -0.7751
  468MOL0     C63066   5.675   2.684   2.619  0.4675 -0.1104  0.0268
  468MOL0     C63067   5.550   2.659   2.540 -0.0566  0.1828  0.2735
  468MOL0     C63068   5.555   2.561   2.420  0.6114  0.2542  0.0600
  468MOL0     O63069   5.648   2.622   2.329  0.1154  0.3286  1.0990
  468MOL0     C63070   5.719   2.542   2.245 -0.3343  0.7215  1.0801
  468MOL0     C63071   5.852   2.579   2.224  0.2393  0.0314 -0.2734
  468MOL0     C63072   5.940   2.496   2.154 -0.4336 -0.0106 -0.4876
  468MOL0     C63073   5.894   2.369   2.111  0.6485 -0.0366  0.2301
  468MOL0     C63074   5.987   2.269   2.050  0.1584  0.2789  0.4947
  468MOL0     O63075   5.936   2.152   1.991  0.7207  0.2503 -0.7076
  468MOL0     C63076   6.016   2.074   1.920 -0.4786 -0.1727  0.0909
  468MOL0     C63077   6.135   2.022   1.969  0.3526  0.1461 -0.7945
  468MOL0     C63078   6.205   1.924   1.901 -0.2049 -0.3142 -0.5564
  468MOL0     C63079   6.164   1.873   1.774 -0.6509 -0.3140 -0.3154
  468MOL0     O63080   6.245   1.782   1.713  0.1303  0.2528  0.4218
  468MOL0     C63081   6.206   1.728   1.589 -0.5270  0.2381 -0.6586
  468MOL0     C63082   6.330   1.650   1.521  0.0113 -0.3265  0.3713
  468MOL0     C63083   6.391   1.544   1.613 -0.1795  0.5625  0.5395
  468MOL0     C63084   6.491   1.463   1.536  0.0486 -0.9029  0.3844
  468MOL0     C63085   6.581   1.373   1.615 -0.5535  0.3631 -0.2503
  468MOL0     C63086   6.661   1.292   1.515 -0.8159  0.0608  0.1522
  468MOL0     C63087   6.747   1.196   1.589  0.2842 -0.2761 -0.0924
  468MOL0     C63088   6.852   1.127   1.502  0.0817 -0.6267  1.2569
  468MOL0    Cl63089   6.967   1.022   1.588 -0.0400 -0.0350  0.4201
  468MOL0     C63090   6.046   1.933   1.723  0.4752 -0.4087  0.2816
  468MOL0     C63091   5.968   2.031   1.795  0.6139  1.5238 -0.3734
  468MOL0     O63092   6.103   2.306   2.049  0.1964  0.3505  0.1304
  468MOL0     C63093   5.764   2.334   2.123 -0.5359  0.2695  0.4232
  468MOL0     C63094   5.671   2.420   2.179  0.0840 -0.5174  0.4169
  468MOL0     N63095   5.620   2.336   2.697  0.3541  0.0140  0.3952
  468MOL0     N63096   5.526   2.284   2.767 -0.7159  0.4717  0.8417
  468MOL0     C63097   4.420   2.032   3.279  0.6337  0.1293  1.3649
  468MOL0     C63098   4.281   2.018   3.304 -0.0393 -0.8818 -0.1135
  468MOL0     C63099   3.832   2.055   3.361  0.0728  0.2736  0.2350
  468MOL0     C63100   3.757   1.999   3.464 -0.1562  0.1521  1.2013
  468MOL0     C63101   3.624   2.013   3.483  0.6572 -1.0828  0.1041
  468MOL0     C63102   3.553   2.084   3.378  0.3850 -1.1408 -0.1964
  468MOL0     O63103   3.420   2.118   3.377 -0.1175 -0.1987  0.5417
  468MOL0     C63104   3.338   2.043   3.461 -0.4784  0.0701 -0.2415
  468MOL0     C63105   3.190   2.078   3.412  0.2397 -0.3420 -0.5857
  468MOL0     C63106   3.155   2.227   3.438  0.2248  0.1814 -0.0804
  468MOL0     C63107   3.100   2.241   3.584  0.5629 -0.1484 -0.1384
  468MOL0     C63108   2.973   2.170   3.605  0.8084 -0.0540  0.3325
  468MOL0     C63109   2.866   2.115   3.635  0.3315  0.5200  0.4891
  468MOL0     C63110   3.620   2.142   3.269 -0.0730  0.0747  0.2476
  468MOL0     C63111   3.762   2.127   3.259  0.7062 -0.5452  0.0754
  468MOL0     C63112   3.833   2.192   3.138 -0.2541  0.3396  0.8033
  468MOL0     H63113   4.188   2.350   3.312  0.0251  0.8940 -0.2744
  468MOL0     H63114   4.417   2.382   3.275  0.5308  0.3566 -2.6246
  468MOL0     H63115   4.650   2.376   3.202 -0.6340  1.4754  2.1343
  468MOL0     H63116   4.654   2.327   3.366 -2.2300  2.3460 -1.2192
  468MOL0     H63117   4.852   2.155   3.260  2.8055  0.4169 -0.5544
  468MOL0     H63118   4.890   2.328   3.298 -1.6236  2.5916 -0.8399
  468MOL0     H63119   4.821   2.374   3.058  0.5729  0.1568 -0.6555
  468MOL0     H63120   4.822   2.202   3.025 -2.0973  2.0930  0.0356
  468MOL0     H63121   5.044   2.391   3.128  0.6335  1.7824 -3.1217
  468MOL0     H63122   5.061   2.204   3.129 -1.4346 -2.8557 -2.9179
  468MOL0     H63123   5.011   2.217   2.885  1.8317 -1.4081 -0.3799
  468MOL0     H63124   5.038   2.394   2.900 -2.2635 -0.6062  0.2402
  468MOL0     H63125   5.251   2.172   2.927 -2.8441 -0.7185 -0.3362
  468MOL0     H63126   5.243   2.309   2.819  2.4263  3.3194  1.0734
  468MOL0     H63127   5.286   2.335   3.123 -1.7560  0.6142 -0.6163
  468MOL0     H63128   5.310   2.467   3.007 -0.2310 -0.0481  0.9325
  468MOL0     H63129   5.507   2.383   3.083  0.1368  0.6812 -0.1809
  468MOL0     H63130   5.462   2.220   3.032  0.9483  1.0139  1.7184
  468MOL0     H63131   5.595   2.569   2.921  1.6346 -1.6958  3.3035
  468MOL0     H63132   5.822   2.577   2.737 -1.0861 -2.9574  0.4674
  468MOL0     H63133   5.807   2.507   2.587  3.6747 -1.4501  2.7236
  468MOL0     H63134   5.639   2.739   2.706 -0.2437  1.1417 -1.0232
  468MOL0     H63135   5.736   2.746   2.553  1.6223  0.4800  1.5805
  468MOL0     H63136   5.506   2.754   2.508 -0.8438  0.9282  3.2822
  468MOL0     H63137   5.474   2.621   2.610 -0.7941  0.8591 -0.1425
  468MOL0     H63138   5.453   2.555   2.381 -0.6874  1.5977  2.9415
  468MOL0     H63139   5.586   2.464   2.460 -0.5377 -0.1176  0.0832
  468MOL0     H63140   5.884   2.678   2.254 -1.6021  1.2147 -1.9567
  468MOL0     H63141   6.046   2.515   2.148 -0.1251 -1.5776 -0.3009
  468MOL0     H63142   6.166   2.040   2.072  1.0277 -2.4592 -0.4672
  468MOL0     H63143   6.294   1.886   1.950  1.0161  0.9331 -1.7400
  468MOL0     H63144   6.122   1.660   1.607  0.2368 -0.7453 -0.6894
  468MOL0     H63145   6.165   1.806   1.525 -1.5947  1.2962  1.2252
  468MOL0     H63146   6.303   1.601   1.427  0.9776 -1.9236  0.8929
  468MOL0     H63147   6.396   1.734   1.498  0.7475 -1.1498 -0.6548
  468MOL0     H63148   6.430   1.582   1.708  0.3577  0.5562  0.3245
  468MOL0     H63149   6.313   1.467   1.625 -0.2915  0.3966 -1.0447
  468MOL0     H63150   6.558   1.524   1.475  0.1926 -0.4612  0.9711
  468MOL0     H63151   6.440   1.406   1.458 -1.8602 -0.2112  1.0578
  468MOL0     H63152   6.520   1.304   1.674 -0.7314 -1.3476 -2.2980
  468MOL0     H63153   6.648   1.429   1.681 -1.2257  2.1283 -1.0312
  468MOL0     H63154   6.588   1.239   1.453  1.0394  0.5234 -2.6135
  468MOL0     H63155   6.711   1.355   1.441 -1.6987  1.6404  0.8479
  468MOL0     H63156   6.672   1.123   1.621 -2.3848  1.7458 -1.3850
  468MOL0     H63157   6.803   1.231   1.676  1.0561  1.0511 -1.0741
  468MOL0     H63158   6.799   1.075   1.422  0.7404  2.3591 -1.3304
  468MOL0     H63159   6.908   1.202   1.445 -0.5687 -1.3674 -0.4189
  468MOL0     H63160   6.019   1.915   1.619  1.9093 -0.5626 -0.0835
  468MOL0     H63161   5.885   2.086   1.751 -0.7218  1.4543  1.8705
  468MOL0     H63162   5.733   2.233   2.099  1.8769  0.0781 -2.4110
  468MOL0     H63163   5.569   2.393   2.205 -0.9817  1.0709 -1.7904
  468MOL0     H63164   4.493   1.951   3.276  0.1950 -0.2509  0.6844
  468MOL0     H63165   4.238   1.919   3.322  0.3342 -0.6982  2.1815
  468MOL0     H63166   3.806   1.930   3.532  2.1787  0.6231  0.0697
  468MOL0     H63167   3.558   1.961   3.551 -0.7105 -0.7269 -0.8946
  468MOL0     H63168   3.353   2.072   3.566  0.4844 -0.7851 -0.1375
  468MOL0     H63169   3.354   1.935   3.465 -0.5509  0.0728  0.3178
  468MOL0     H63170   3.114   2.010   3.452 -1.1895  2.0265  0.9835
  468MOL0     H63171   3.189   2.056   3.305  0.6739 -2.4453 -0.2031
  468MOL0     H63172   3.082   2.255   3.362  2.0923  2.5870 -1.1065
  468MOL0     H63173   3.243   2.290   3.427 -0.4430  1.8259  2.9398
  468MOL0     H63174   3.170   2.216   3.664 -2.1118 -1.1142  2.0759
  468MOL0     H63175   3.088   2.347   3.609  1.1689  0.3654 -1.8439
  468MOL0     H63176   2.771   2.073   3.663  1.6378 -0.9721  3.0919
  468MOL0     H63177   3.569   2.188   3.185  0.6062  0.8971  0.2635
  468MOL0     H63178   3.919   2.252   3.171  0.6382 -0.2408 -0.3907
  468MOL0     H63179   3.864   2.113   3.069 -0.7739 -0.1147  1.0811
  468MOL0     H63180   3.773   2.267   3.086  0.9728  0.0767 -1.0748
  469MOL0     O63181   2.244   6.982   6.025  0.7117 -0.5292 -0.2426
  469MOL0     C63182   2.250   6.961   6.145 -0.4564 -0.1785  0.1464
  469MOL0     O63183   2.373   6.943   6.216  0.4639 -0.7986  0.1922
  469MOL0     C63184   2.491   6.991   6.160 -0.5435  0.3047  0.3683
  469MOL0     C63185   2.608   6.937   6.222 -0.7471 -0.1980 -0.1041
  469MOL0     C63186   2.735   6.993   6.192 -0.2873 -0.0221  0.2349
  469MOL0     C63187   2.749   7.102   6.105  0.1898  0.1766 -0.2976
  469MOL0     O63188   2.877   7.159   6.094 -0.4987 -0.3912  0.3277
  469MOL0     C63189   2.882   7.295   6.048  0.0707  0.3952  0.2588
  469MOL0     C63190   3.019   7.359   6.042 -0.0381 -0.4355  0.4347
  469MOL0     C63191   3.109   7.294   5.933  0.2085  1.0396 -0.3760
  469MOL0     C63192   3.216   7.390   5.898 -0.1586 -1.0592  0.3423
  469MOL0     C63193   3.338   7.324   5.831  0.2499  0.2101 -0.2818
  469MOL0     C63194   3.434   7.428   5.781 -0.0727 -0.6210 -0.3098
  469MOL0     C63195   3.566   7.362   5.741  0.0708  1.2062 -0.2123
  469MOL0     C63196   3.672   7.459   5.687 -0.8514  0.1258  0.8719
  469MOL0     N63197   3.761   7.391   5.587 -0.3456  0.0939  0.0543
  469MOL0     C63198   3.793   7.442   5.465  0.0577  0.2623 -0.2432
  469MOL0     C63199   3.900   7.368   5.420  0.4488  0.3506  0.2534
  469MOL0     C63200   3.954   7.378   5.284  0.0380 -0.1382 -0.6243
  469MOL0     C63201   4.104   7.385   5.301 -0.9546 -0.4746  0.2558
  469MOL0     C63202   4.187   7.438   5.185  0.5135  0.6773  0.4581
  469MOL0     C63203   4.329   7.474   5.218  0.0729 -0.5128 -0.4984
  469MOL0     O63204   4.385   7.396   5.321 -0.0904  0.0089  0.8484
  469MOL0     C63205   4.514   7.347   5.299  0.9199  0.1765  0.4066
  469MOL0     C63206   4.636   7.400   5.342 -0.0185 -0.5764 -0.5383
  469MOL0     C63207   4.751   7.323   5.320 -0.5722  0.9101  0.0173
  469MOL0     C63208   4.749   7.198   5.263 -0.0273  0.2569  0.3527
  469MOL0     C63209   4.876   7.120   5.248 -0.2769 -1.1189  0.0725
  469MOL0     O63210   4.983   7.159   5.316  0.0010 -0.1795  0.1881
  469MOL0     C63211   5.111   7.124   5.281  0.3449  0.8080  0.1770
  469MOL0     C63212   5.203   7.128   5.389  0.0918 -1.3132 -0.0406
  469MOL0     C63213   5.339   7.126   5.364  0.1919  0.7275 -1.1458
  469MOL0     C63214   5.389   7.101   5.238 -0.7618 -0.0250  1.1040
  469MOL0     O63215   5.525   7.074   5.212  0.3148 -0.2119 -0.0706
  469MOL0     C63216   5.629   7.141   5.280 -0.9773 -0.5955  0.1914
  469MOL0     C63217   5.765   7.115   5.214  0.1778 -0.6225  0.3842
  469MOL0     C63218   5.792   6.973   5.180  0.7533 -0.6071  0.2723
  469MOL0     C63219   5.800   6.891   5.311 -0.1305 -0.2197 -0.6501
  469MOL0     C63220   5.836   6.747   5.295  0.2783  0.7311 -0.1285
  469MOL0     C63221   5.983   6.726   5.233  0.7392 -0.2181 -0.2880
  469MOL0     C63222   6.016   6.570   5.210 -0.1521 -0.9614 -0.5213
  469MOL0     C63223   6.160   6.551   5.152  0.0847  0.2077  0.3101
  469MOL0    Cl63224   6.185   6.585   4.971  0.2727 -0.2263  0.1517
  469MOL0     C63225   5.301   7.090   5.132 -0.1061 -0.2006  0.1354
  469MOL0     C63226   5.164   7.109   5.148  1.3431  0.2031 -0.8428
  469MOL0     O63227   4.866   7.016   5.181 -0.4221  0.0106  0.1380
  469MOL0     C63228   4.620   7.142   5.228 -1.0689  0.7309 -0.5282
  469MOL0     C63229   4.511   7.223   5.237  0.7574 -0.1737  0.5149
  469MOL0     N63230   3.921   7.258   5.505 -0.5624  0.9738 -0.6656
  469MOL0     N63231   3.848   7.286   5.611  0.0338 -0.8625 -0.0769
  469MOL0     C63232   2.634   7.147   6.039  0.6448  0.2959 -0.5443
  469MOL0     C63233   2.513   7.095   6.061  0.0544  0.2274 -0.3517
  469MOL0     C63234   2.132   6.942   6.231  0.7184  0.4297  0.1714
  469MOL0     C63235   2.149   6.865   6.347  0.2360  0.1155 -0.2739
  469MOL0     C63236   2.038   6.850   6.431  0.0575 -0.9303  0.2314
  469MOL0     C63237   1.915   6.902   6.405  0.3555 -0.0740 -0.0892
  469MOL0     O63238   1.821   6.871   6.500 -0.1136 -0.1416  0.4955
  469MOL0     C63239   1.684   6.919   6.485 -0.8396 -0.6200  0.3551
  469MOL0     C63240   1.609   6.815   6.394 -0.1607  0.6505 -0.2028
  469MOL0     C63241   1.467   6.872   6.370  0.6311 -0.0956 -0.2201
  469MOL0     C63242   1.373   6.831   6.483  0.6548 -0.3020 -0.1519
  469MOL0     C63243   1.235   6.855   6.430 -0.0478  1.1200 -0.0181
  469MOL0     C63244   1.129   6.890   6.382 -0.2925 -0.0429  0.2456
  469MOL0     C63245   1.892   6.979   6.292 -0.2547  0.2170  0.8932
  469MOL0     C63246   2.001   6.987   6.202  0.2466  0.0878 -0.3057
  469MOL0     C63247   1.972   7.043   6.067  0.4594 -0.1032 -0.1874
  469MOL0     H63248   2.598   6.862   6.300  0.4050 -1.0686 -0.7577
  469MOL0     H63249   2.832   6.950   6.213  0.2138  1.5273  1.2355
  469MOL0     H63250   2.833   7.304   5.951  0.6872 -0.4984 -0.1533
  469MOL0     H63251   2.818   7.344   6.122 -1.3541 -0.6202 -0.2547
  469MOL0     H63252   3.068   7.357   6.140 -1.5975 -3.5491  1.2785
  469MOL0     H63253   2.993   7.464   6.021 -1.4417 -0.7144  0.6387
  469MOL0     H63254   3.055   7.270   5.841  1.2719 -3.6811 -0.0309
  469MOL0     H63255   3.163   7.204   5.963  0.2214  1.1840  0.0324
  469MOL0     H63256   3.175   7.478   5.849  0.2131 -0.8574  0.3933
  469MOL0     H63257   3.256   7.436   5.989  0.4537  0.8914 -0.8714
  469MOL0     H63258   3.387   7.255   5.899  0.0558  2.0342  1.8528
  469MOL0     H63259   3.305   7.260   5.750 -1.3973  0.3080  0.2662
  469MOL0     H63260   3.389   7.481   5.697  0.2118 -0.0923 -0.1325
  469MOL0     H63261   3.446   7.505   5.858 -0.1657 -0.0274 -0.8836
  469MOL0     H63262   3.541   7.288   5.664 -0.0403 -0.6855  1.5642
  469MOL0     H63263   3.607   7.298   5.819  1.4312  2.0563 -0.1867
  469MOL0     H63264   3.624   7.548   5.645 -1.4468  0.5697  2.4328
  469MOL0     H63265   3.724   7.495   5.775  1.1039 -1.1463  0.3134
  469MOL0     H63266   3.742   7.525   5.415 -1.3329 -0.0893  0.5405
  469MOL0     H63267   3.929   7.292   5.221 -0.2788  0.4564 -1.3182
  469MOL0     H63268   3.913   7.466   5.235  1.3471  0.6972 -0.2671
  469MOL0     H63269   4.139   7.438   5.391  1.2722  0.0926 -0.8839
  469MOL0     H63270   4.150   7.288   5.320  2.6900  0.8301 -0.9383
  469MOL0     H63271   4.142   7.528   5.144 -2.3233 -0.1871  1.4148
  469MOL0     H63272   4.190   7.358   5.111 -2.4564 -1.3389  2.2900
  469MOL0     H63273   4.330   7.577   5.255 -2.8644  0.9774 -3.9891
  469MOL0     H63274   4.387   7.468   5.126 -0.2353 -2.9585 -0.6109
  469MOL0     H63275   4.650   7.491   5.399 -0.5116  0.6814 -2.3380
  469MOL0     H63276   4.849   7.359   5.348  0.3659 -0.7559 -0.9656
  469MOL0     H63277   5.165   7.144   5.489 -0.0107 -0.0126 -0.2810
  469MOL0     H63278   5.409   7.117   5.446  1.0741  0.2372 -1.9276
  469MOL0     H63279   5.608   7.248   5.273 -0.6011 -0.6487 -2.8293
  469MOL0     H63280   5.638   7.105   5.383 -0.5416  0.7429  0.6388
  469MOL0     H63281   5.766   7.169   5.118 -0.6166 -0.6457  0.3542
  469MOL0     H63282   5.842   7.156   5.280 -0.2971 -1.9296  1.7989
  469MOL0     H63283   5.705   6.933   5.126 -0.4808  1.5174  0.5592
  469MOL0     H63284   5.881   6.963   5.118  1.2692  0.1942  0.8674
  469MOL0     H63285   5.700   6.892   5.355 -0.4029  1.5838 -1.2309
  469MOL0     H63286   5.867   6.937   5.385  0.6655  0.8355 -1.9743
  469MOL0     H63287   5.765   6.704   5.224 -0.9696  2.5830 -0.0588
  469MOL0     H63288   5.830   6.705   5.396  0.1301  1.0852  0.0130
  469MOL0     H63289   6.003   6.778   5.139 -1.0770  1.9333  0.4123
  469MOL0     H63290   6.043   6.766   5.315 -0.6782  1.4911 -0.0103
  469MOL0     H63291   5.949   6.533   5.132 -0.8116  1.5981 -1.2500
  469MOL0     H63292   6.004   6.527   5.310  1.5552 -0.0023  0.1435
  469MOL0     H63293   6.232   6.609   5.209 -1.0900  2.1330 -0.0788
  469MOL0     H63294   6.187   6.445   5.157  1.6759  0.1984 -3.7943
  469MOL0     H63295   5.353   7.050   5.046 -0.7714 -1.6277  0.3606
  469MOL0     H63296   5.099   7.115   5.061  0.8298 -4.7841 -1.0962
  469MOL0     H63297   4.618   7.044   5.183  2.9262  0.3601 -0.2649
  469MOL0     H63298   4.415   7.191   5.199  0.2783  2.0383 -0.2818
  469MOL0     H63299   2.637   7.219   5.958 -1.4338 -1.4893 -2.3335
  469MOL0     H63300   2.429   7.148   6.019  1.2988  2.1161 -0.5830
  469MOL0     H63301   2.247   6.838   6.383 -0.7935 -1.6644  1.4149
  469MOL0     H63302   2.042   6.793   6.523 -1.4456 -0.5747  0.5512
  469MOL0     H63303   1.684   7.019   6.441  0.3477 -0.4877  0.6228
  469MOL0     H63304   1.633   6.924   6.582 -2.5472 -0.5240 -0.5278
  469MOL0     H63305   1.607   6.717   6.443 -0.7092 -0.1200 -1.7167
  469MOL0     H63306   1.665   6.799   6.302  2.3501 -5.0974  1.8455
  469MOL0     H63307   1.429   6.813   6.286 -0.8272 -1.1198  1.0967
  469MOL0     H63308   1.459   6.980   6.359 -3.2615 -0.3526 -1.3209
  469MOL0     H63309   1.380   6.725   6.510  1.6613 -0.2390 -0.1236
  469MOL0     H63310   1.402   6.898   6.565  1.0716  2.1910 -2.2089
  469MOL0     H63311   1.038   6.931   6.342 -1.8667 -3.5444 -0.1110
  469MOL0     H63312   1.799   7.019   6.253  2.3717  1.8105 -4.9807
  469MOL0     H63313   1.864   7.046   6.054  0.1299  2.3272  2.1815
  469MOL0     H63314   2.008   7.144   6.044 -0.9547  0.5432  0.3365
  469MOL0     H63315   2.016   6.968   6.001  2.5521  1.2870 -0.4573
  470MOL0     O63316  10.886   8.793   4.954 -0.0467 -0.0730  0.5973
  470MOL0     C63317  10.811   8.818   4.857 -0.7009  0.8586 -0.4719
  470MOL0     O63318  10.826   8.927   4.784  0.2145  0.0059  0.0532
  470MOL0     C63319  10.930   9.008   4.821 -1.3117 -0.0582  0.0112
  470MOL0     C63320  11.044   8.986   4.742  0.1697  1.3152 -1.1340
  470MOL0     C63321  11.159   9.060   4.769  0.3826 -0.0986 -0.0582
  470MOL0     C63322  11.167   9.147   4.879  0.3401 -0.5607 -0.4833
  470MOL0     O63323  11.282   9.221   4.896 -0.5749 -0.5330  0.4985
  470MOL0     C63324  11.278   9.350   4.962  0.1322 -1.3557 -0.0442
  470MOL0     C63325  11.409   9.428   4.962 -1.0800 -0.0574  0.1069
  470MOL0     C63326  11.505   9.370   5.075 -0.6536 -0.1327  0.4977
  470MOL0     C63327  11.652   9.418   5.054  0.2408 -0.4365 -0.5474
  470MOL0     C63328  11.750   9.297   5.038 -0.1302 -0.3785 -0.6175
  470MOL0     C63329  11.897   9.335   5.014  0.7009 -0.6818 -0.1372
  470MOL0     C63330  11.995   9.216   5.003 -0.5571  0.6142 -0.2333
  470MOL0     C63331  12.138   9.257   4.993 -0.0012  0.7891 -0.3763
  470MOL0     N63332  12.152   9.337   4.867 -0.7208 -0.4034 -0.1472
  470MOL0     C63333  12.147   9.288   4.739  0.0876 -0.5109 -0.0464
  470MOL0     C63334  12.173   9.398   4.661  0.1364  0.2598  0.2560
  470MOL0     C63335  12.189   9.400   4.508 -0.2813  0.1313 -0.1649
  470MOL0     C63336  12.126   9.279   4.437  0.4443 -0.0466 -0.1946
  470MOL0     C63337  12.106   9.295   4.280  0.7450 -0.5422 -0.7955
  470MOL0     C63338  12.241   9.312   4.203  0.7491 -0.1711 -0.0817
  470MOL0     O63339  12.300   9.445   4.223 -0.3880  0.5607 -0.3884
  470MOL0     C63340  12.426   9.476   4.178 -0.1550  0.4578  0.9930
  470MOL0     C63341  12.529   9.386   4.134  0.0798  0.8429 -0.1909
  470MOL0     C63342  12.649   9.427   4.091  0.0199 -0.7156 -0.2392
  470MOL0     C63343  12.672   9.564   4.067  0.0882  0.1138 -0.0581
  470MOL0     C63344  12.806   9.622   4.034  0.0240 -0.9587 -0.0541
  470MOL0     O63345  12.907   9.534   4.040 -0.3600 -0.4419  0.4758
  470MOL0     C63346  13.040   9.572   4.040 -0.4280  0.7069  0.7979
  470MOL0     C63347  13.134   9.477   3.998 -0.6634 -0.7735 -0.5905
  470MOL0     C63348  13.270   9.494   4.029  0.2404 -0.6056  0.9931
  470MOL0     C63349  13.316   9.604   4.096  0.9815 -0.2659  0.9229
  470MOL0     O63350  13.453   9.611   4.110  0.4463 -0.4719 -0.0219
  470MOL0     C63351  13.519   9.726   4.164  0.8329 -0.8574 -0.4672
  470MOL0     C63352  13.544   9.832   4.055  0.2128  0.4264  0.4833
  470MOL0     C63353  13.637   9.778   3.952  0.1270 -0.4596 -0.3583
  470MOL0     C63354  13.624   9.856   3.816  0.1537 -0.3409 -0.3388
  470MOL0     C63355  13.714   9.979   3.815  0.5893 -0.2033 -0.1684
  470MOL0     C63356  13.865   9.936   3.787  0.5043 -0.0819  1.6078
  470MOL0     C63357  13.960  10.042   3.839 -0.0596  0.7036 -0.5085
  470MOL0     C63358  14.106  10.020   3.805  0.0191 -0.1685 -0.4085
  470MOL0    Cl63359  14.179  10.175   3.865  0.0677 -0.0393  0.5202
  470MOL0     C63360  13.221   9.695   4.131  1.2756  0.0205 -0.6787
  470MOL0     C63361  13.080   9.682   4.116 -0.3987  0.4056 -0.4269
  470MOL0     O63362  12.811   9.740   4.005  0.3657  0.7380 -0.6898
  470MOL0     C63363  12.577   9.652   4.111 -0.5990 -0.0339  0.2701
  470MOL0     C63364  12.459   9.609   4.164 -0.8842  0.8247 -0.6121
  470MOL0     N63365  12.198   9.508   4.748 -0.0200  0.3283 -0.3323
  470MOL0     N63366  12.187   9.471   4.868 -0.1883  0.7699  0.2039
  470MOL0     C63367  11.048   9.171   4.953  0.3075 -0.2104 -0.2895
  470MOL0     C63368  10.932   9.100   4.927 -0.1025  0.4397 -1.0190
  470MOL0     C63369  10.699   8.728   4.838 -1.0250 -0.0688  0.3085
  470MOL0     C63370  10.575   8.778   4.796  0.7431  0.3170 -0.2917
  470MOL0     C63371  10.462   8.700   4.782  0.6552 -0.1486  0.5222
  470MOL0     C63372  10.472   8.566   4.816  0.4964  0.6999 -0.9159
  470MOL0     O63373  10.368   8.478   4.802 -0.1385  0.2224  0.8127
  470MOL0     C63374  10.242   8.541   4.797  0.7697 -0.7428 -0.1233
  470MOL0     C63375  10.127   8.432   4.806 -0.2119  0.3802  0.1043
  470MOL0     C63376   9.986   8.490   4.785 -0.1164 -0.1400  1.0482
  470MOL0     C63377   9.893   8.368   4.770 -1.1992  0.2450 -0.0313
  470MOL0     C63378   9.893   8.292   4.643 -1.0459 -0.1399 -0.4406
  470MOL0     C63379   9.886   8.226   4.539  0.5995  0.0276 -0.3633
  470MOL0     C63380  10.588   8.512   4.864 -0.3992  0.1876  0.0627
  470MOL0     C63381  10.702   8.586   4.871 -0.6041  0.2062 -0.2166
  470MOL0     C63382  10.821   8.527   4.939  0.2058 -0.0265  0.5698
  470MOL0     H63383  11.049   8.914   4.661 -0.5795  2.7384 -2.4749
  470MOL0     H63384  11.248   9.042   4.710  1.1637  0.1114  1.0266
  470MOL0     H63385  11.209   9.414   4.907  1.1261  1.3089  1.6260
  470MOL0     H63386  11.239   9.337   5.063  1.3264  1.3583  0.8386
  470MOL0     H63387  11.390   9.535   4.976 -2.0040 -0.2404  0.3144
  470MOL0     H63388  11.446   9.412   4.861 -1.3475 -1.9560  0.2784
  470MOL0     H63389  11.486   9.263   5.087  0.5130 -0.2385  1.6550
  470MOL0     H63390  11.476   9.422   5.167  0.2215 -1.7046  1.7259
  470MOL0     H63391  11.660   9.469   4.957  4.2513 -0.4612 -0.4030
  470MOL0     H63392  11.683   9.488   5.132 -0.6514 -0.6095 -0.0293
  470MOL0     H63393  11.744   9.233   5.127 -0.2421 -0.8656 -0.9739
  470MOL0     H63394  11.724   9.239   4.950  2.2933 -1.2992 -0.8122
  470MOL0     H63395  11.912   9.403   4.929  2.0953 -0.2012  0.4594
  470MOL0     H63396  11.918   9.392   5.105  0.7096 -0.6559 -0.1552
  470MOL0     H63397  11.973   9.164   4.909  0.2495  0.1196 -0.1532
  470MOL0     H63398  11.993   9.154   5.092  5.3458  0.1923 -0.0076
  470MOL0     H63399  12.162   9.312   5.084  0.1100 -0.4399  0.3507
  470MOL0     H63400  12.209   9.174   5.000  3.6217  3.7862  2.9643
  470MOL0     H63401  12.122   9.187   4.708 -0.9106 -0.4230  0.4185
  470MOL0     H63402  12.141   9.493   4.476 -0.6241 -0.0273 -0.1101
  470MOL0     H63403  12.294   9.416   4.480 -0.7961  1.7471 -1.3476
  470MOL0     H63404  12.188   9.188   4.443 -0.7616 -0.9660 -1.1417
  470MOL0     H63405  12.032   9.263   4.490  0.4840  3.6804  1.2915
  470MOL0     H63406  12.043   9.382   4.258  0.0695 -0.5902  0.8351
  470MOL0     H63407  12.049   9.210   4.242  0.6274 -0.6977 -0.2703
  470MOL0     H63408  12.216   9.297   4.097  0.4302 -0.2454  0.0053
  470MOL0     H63409  12.323   9.244   4.228  1.6739  1.4212  1.3833
  470MOL0     H63410  12.513   9.279   4.119  4.0748  0.2820 -1.9013
  470MOL0     H63411  12.723   9.351   4.069 -1.5908 -2.2761 -0.5218
  470MOL0     H63412  13.098   9.383   3.957 -3.6986 -0.3544  0.8226
  470MOL0     H63413  13.350   9.426   4.003  2.8696  3.2651 -2.2640
  470MOL0     H63414  13.464   9.764   4.251 -0.1924  1.2408 -1.9597
  470MOL0     H63415  13.621   9.692   4.188  1.6559  1.7446  0.1152
  470MOL0     H63416  13.445   9.848   4.011 -1.0565 -1.3107  2.5500
  470MOL0     H63417  13.590   9.921   4.099  0.7174 -0.7395  2.4330
  470MOL0     H63418  13.741   9.780   3.984  0.0920  0.5719 -0.2618
  470MOL0     H63419  13.614   9.674   3.927 -2.5586  0.2911 -1.3849
  470MOL0     H63420  13.523   9.896   3.810  0.4113  0.8656  2.2415
  470MOL0     H63421  13.649   9.797   3.727  3.0713  0.8238 -0.3999
  470MOL0     H63422  13.709  10.030   3.911  1.1674 -2.5393  1.1844
  470MOL0     H63423  13.675  10.050   3.742 -0.0810  2.2295  2.3676
  470MOL0     H63424  13.885   9.845   3.845  1.8113  0.6375  2.3441
  470MOL0     H63425  13.885   9.910   3.682  1.2502  0.6801  1.5446
  470MOL0     H63426  13.944  10.042   3.947  2.0243  0.2144 -0.1730
  470MOL0     H63427  13.932  10.141   3.803  1.3233  1.2051 -0.2719
  470MOL0     H63428  14.142   9.922   3.840  2.3197  0.5646 -0.5924
  470MOL0     H63429  14.122  10.028   3.697  2.0612 -0.9544 -0.2141
  470MOL0     H63430  13.254   9.775   4.197  1.5402 -0.3438 -0.3657
  470MOL0     H63431  13.007   9.748   4.162 -0.9599  0.3899 -1.2857
  470MOL0     H63432  12.604   9.757   4.109  0.4915 -0.3258 -1.1899
  470MOL0     H63433  12.388   9.685   4.192  0.1673  1.3829  0.6370
  470MOL0     H63434  11.046   9.249   5.028 -0.2965  1.8155 -2.3158
  470MOL0     H63435  10.840   9.115   4.982  0.9505  1.0586  0.6250
  470MOL0     H63436  10.557   8.882   4.771 -2.8808 -0.3273 -0.9737
  470MOL0     H63437  10.381   8.760   4.740  0.0904 -3.0171 -3.0605
  470MOL0     H63438  10.228   8.589   4.700  1.7721  1.2483  0.6532
  470MOL0     H63439  10.222   8.614   4.877  1.8992 -0.1410 -0.3645
  470MOL0     H63440  10.131   8.383   4.903  2.2772 -4.3868 -2.0490
  470MOL0     H63441  10.142   8.361   4.723 -0.5534  0.6250 -0.1685
  470MOL0     H63442   9.988   8.550   4.693 -3.7032  0.1653  1.0346
  470MOL0     H63443   9.963   8.559   4.866 -0.8167 -1.1855  1.7511
  470MOL0     H63444   9.891   8.303   4.858  1.4856  2.6306  1.9775
  470MOL0     H63445   9.792   8.410   4.768 -0.0700  3.1704  0.1593
  470MOL0     H63446   9.879   8.159   4.456  1.9853  0.8863 -1.2212
  470MOL0     H63447  10.586   8.410   4.902 -1.1583 -0.6983 -2.1776
  470MOL0     H63448  10.819   8.422   4.909  0.9785  0.2285 -0.4250
  470MOL0     H63449  10.920   8.557   4.904  0.6610 -0.4182  1.4800
  470MOL0     H63450  10.816   8.532   5.049  1.0724 -2.1448  0.7471
  471MOL0     O63451   3.465   8.115  10.098  0.5302  0.2943 -0.1324
  471MOL0     C63452   3.432   8.028  10.018 -0.2580  0.2904  0.2372
  471MOL0     O63453   3.512   7.931   9.963 -0.6424  0.5909  0.3118
  471MOL0     C63454   3.642   7.923   9.998  0.0943  0.8817 -0.0261
  471MOL0     C63455   3.693   7.928  10.133  0.2659  0.3693  1.0965
  471MOL0     C63456   3.824   7.904  10.163  0.5366  0.0317 -0.0153
  471MOL0     C63457   3.916   7.884  10.061  0.4923 -0.6867 -0.2417
  471MOL0     O63458   4.047   7.861  10.104 -0.4605 -0.2006 -0.4305
  471MOL0     C63459   4.085   7.872  10.241 -0.5059  0.1260 -0.3853
  471MOL0     C63460   4.240   7.854  10.238 -0.7088  0.7059  0.1875
  471MOL0     C63461   4.283   7.788  10.369  0.1696  0.3785 -0.1972
  471MOL0     C63462   4.428   7.746  10.350 -0.5409 -0.4566  1.5723
  471MOL0     C63463   4.476   7.643  10.450 -0.8209  0.2080 -0.5350
  471MOL0     C63464   4.606   7.585  10.421  0.2206  0.3200  0.8276
  471MOL0     C63465   4.728   7.679  10.426 -0.0769  0.4064  0.1217
  471MOL0     C63466   4.852   7.621  10.364  0.0951  0.6859  0.2687
  471MOL0     N63467   4.898   7.487  10.426  0.1746  0.4457  0.6321
  471MOL0     C63468   4.995   7.488  10.521  0.2661  0.2017 -0.2100
  471MOL0     C63469   4.999   7.356  10.556  1.4367 -0.8136 -0.0766
  471MOL0     C63470   5.090   7.304  10.666  0.8889 -0.3663 -0.1735
  471MOL0     C63471   5.229   7.363  10.679 -0.0048  0.2563  2.0842
  471MOL0     C63472   5.322   7.277  10.769  0.1429 -0.5658 -0.1110
  471MOL0     C63473   5.439   7.367  10.817 -0.4349  0.0398 -0.6216
  471MOL0     O63474   5.515   7.417  10.705  0.0132 -0.7718 -0.3271
  471MOL0     C63475   5.624   7.503  10.740  0.5187 -0.6764  0.0906
  471MOL0     C63476   5.702   7.562  10.649 -0.1958  0.1445 -0.0167
  471MOL0     C63477   5.833   7.610  10.664  1.1009 -0.6942  0.2246
  471MOL0     C63478   5.885   7.621  10.789 -0.9266  0.8621  0.3105
  471MOL0     C63479   6.014   7.675  10.827 -0.3127  0.7231 -0.2401
  471MOL0     O63480   6.111   7.689  10.731 -0.3516  0.0737 -0.0962
  471MOL0     C63481   6.243   7.737  10.758 -0.4494  0.1145 -0.6421
  471MOL0     C63482   6.323   7.735  10.646 -0.3409 -0.0518 -0.4536
  471MOL0     C63483   6.463   7.753  10.650  0.3767 -0.3419 -0.1102
  471MOL0     C63484   6.530   7.787  10.774  0.5225 -0.5897 -0.1234
  471MOL0     O63485   6.661   7.818  10.796 -0.1567 -0.3860  0.1507
  471MOL0     C63486   6.760   7.730  10.747 -0.5536  0.9008 -0.2872
  471MOL0     C63487   6.899   7.803  10.762  0.0179 -0.5017  0.0795
  471MOL0     C63488   7.018   7.711  10.747 -0.0395  0.0580 -0.0975
  471MOL0     C63489   7.151   7.777  10.782  0.4483 -0.0244  0.0749
  471MOL0     C63490   7.267   7.682  10.772 -0.5158  0.4542 -0.7232
  471MOL0     C63491   7.404   7.742  10.803  0.0378  0.3624  0.1616
  471MOL0     C63492   7.512   7.645  10.757 -0.3835 -0.3207 -0.5963
  471MOL0     C63493   7.654   7.710  10.764  0.2353  0.1667  0.2953
  471MOL0    Cl63494   7.672   7.836  10.620  0.2923  0.3972 -0.2366
  471MOL0     C63495   6.442   7.801  10.883 -0.2744 -0.0885 -0.1062
  471MOL0     C63496   6.303   7.765  10.880 -0.4773 -0.0060  0.0400
  471MOL0     O63497   6.027   7.720  10.937 -0.5138  0.0948 -0.0421
  471MOL0     C63498   5.795   7.589  10.887 -0.2462  0.2068  0.2078
  471MOL0     C63499   5.674   7.524  10.874  0.6443 -0.3735  0.9694
  471MOL0     N63500   4.900   7.285  10.484 -0.4606  0.5662  0.5271
  471MOL0     N63501   4.847   7.363  10.396  0.3758  0.2291  0.6466
  471MOL0     C63502   3.873   7.881   9.924 -0.6329  0.1872 -0.1352
  471MOL0     C63503   3.738   7.896   9.894 -0.0207  0.1614  0.4318
  471MOL0     C63504   3.282   8.015  10.006 -0.0378  0.0849  0.0974
  471MOL0     C63505   3.225   7.889   9.970 -0.1337  0.2826  0.1302
  471MOL0     C63506   3.092   7.870   9.957  1.0211  1.3163  0.1552
  471MOL0     C63507   3.004   7.975   9.972 -0.1702  0.1016  0.2798
  471MOL0     O63508   2.873   7.969   9.930 -0.3474  0.6398 -0.2984
  471MOL0     C63509   2.828   7.852   9.864  0.2620 -0.0976 -0.4927
  471MOL0     C63510   2.686   7.887   9.795  0.1483  0.5092  0.3449
  471MOL0     C63511   2.705   7.980   9.685 -0.4780  0.0154  0.4109
  471MOL0     C63512   2.571   7.993   9.612 -0.0294 -0.4667 -0.3961
  471MOL0     C63513   2.574   7.931   9.483  0.1521 -0.3592  0.2596
  471MOL0     C63514   2.584   7.881   9.365 -0.3189 -0.6344 -0.2735
  471MOL0     C63515   3.052   8.104  10.010 -0.0925  0.3161  0.0518
  471MOL0     C63516   3.191   8.123  10.022  0.7755  0.0751 -0.1232
  471MOL0     C63517   3.225   8.271  10.035 -0.4086  0.7802  0.1425
  471MOL0     H63518   3.626   7.955  10.214 -1.2497  2.0595 -0.6011
  471MOL0     H63519   3.845   7.890  10.268  2.5668  0.3836 -0.3368
  471MOL0     H63520   4.063   7.971  10.281  1.0892 -0.0547  1.0635
  471MOL0     H63521   4.040   7.788  10.297 -0.1983  0.2198  0.0106
  471MOL0     H63522   4.298   7.946  10.223  1.9740 -1.0210 -0.8741
  471MOL0     H63523   4.257   7.786  10.155  0.0905  1.1870 -0.0578
  471MOL0     H63524   4.214   7.704  10.381 -1.1663  1.5493  0.6898
  471MOL0     H63525   4.278   7.861  10.451  0.8392  0.4904 -0.2470
  471MOL0     H63526   4.447   7.703  10.251 -1.8764  0.4844  0.8830
  471MOL0     H63527   4.490   7.835  10.356 -0.8935 -0.1474  0.8213
  471MOL0     H63528   4.472   7.690  10.548  0.2314 -0.4019 -0.1846
  471MOL0     H63529   4.407   7.558  10.462 -0.1500 -0.1554  0.9691
  471MOL0     H63530   4.621   7.500  10.487  1.3374 -1.2954 -1.3614
  471MOL0     H63531   4.595   7.544  10.320 -3.3560 -0.6927  1.4954
  471MOL0     H63532   4.750   7.710  10.529 -0.7704  2.6964 -0.3452
  471MOL0     H63533   4.705   7.772  10.372  0.9798  0.2747 -0.5792
  471MOL0     H63534   4.825   7.599  10.260 -0.7403 -3.4464  1.1439
  471MOL0     H63535   4.934   7.692  10.356  1.9909 -1.5163 -1.2258
  471MOL0     H63536   5.054   7.571  10.560 -0.3440  0.1032  0.9760
  471MOL0     H63537   5.040   7.317  10.762  0.2515 -2.5593 -0.1652
  471MOL0     H63538   5.107   7.198  10.645  1.0716 -0.0390 -1.8426
  471MOL0     H63539   5.276   7.360  10.580 -0.6728 -0.5322  1.7821
  471MOL0     H63540   5.219   7.465  10.718 -0.0539  1.0378  0.1406
  471MOL0     H63541   5.355   7.192  10.710  0.9918 -0.0696 -0.3653
  471MOL0     H63542   5.257   7.240  10.849 -1.1652  2.6217  0.4637
  471MOL0     H63543   5.504   7.309  10.882 -1.0412  1.2649  1.1678
  471MOL0     H63544   5.414   7.455  10.878  2.8457  1.3004 -0.9105
  471MOL0     H63545   5.683   7.529  10.548  0.5292 -1.1894  0.2602
  471MOL0     H63546   5.891   7.633  10.576 -2.0095  0.2862 -1.7417
  471MOL0     H63547   6.274   7.715  10.551 -0.7978  0.5703 -0.3504
  471MOL0     H63548   6.523   7.736  10.561  0.2451 -1.0908 -0.0616
  471MOL0     H63549   6.760   7.644  10.815  1.7949  0.2511 -1.0206
  471MOL0     H63550   6.743   7.693  10.645  1.0419  0.9128 -0.5823
  471MOL0     H63551   6.911   7.873  10.680  1.3463 -0.6805  0.1109
  471MOL0     H63552   6.917   7.856  10.857  3.3401  1.9986 -1.7276
  471MOL0     H63553   7.017   7.618  10.805 -0.3603 -0.1944 -0.5079
  471MOL0     H63554   7.018   7.679  10.643 -0.0480  1.5051 -0.5569
  471MOL0     H63555   7.148   7.825  10.880  0.5560  0.4577 -0.1571
  471MOL0     H63556   7.164   7.858  10.711 -5.0554 -0.1983 -1.5834
  471MOL0     H63557   7.275   7.648  10.668  1.6181 -1.8518  0.0867
  471MOL0     H63558   7.264   7.590  10.831  0.5921 -0.5407 -2.1179
  471MOL0     H63559   7.413   7.834  10.745  0.2572 -0.7527 -1.6586
  471MOL0     H63560   7.429   7.772  10.905  2.1146  0.4793 -0.3368
  471MOL0     H63561   7.496   7.620  10.652 -2.0061 -2.0607 -0.0105
  471MOL0     H63562   7.504   7.553  10.817 -1.5562 -1.2856 -2.1484
  471MOL0     H63563   7.653   7.776  10.851  0.0611  1.5241 -0.7083
  471MOL0     H63564   7.735   7.638  10.774 -2.1944 -2.6430  1.1303
  471MOL0     H63565   6.494   7.849  10.966  1.9240  2.2908 -2.6314
  471MOL0     H63566   6.258   7.759  10.979  2.6165 -0.4795  1.5471
  471MOL0     H63567   5.821   7.594  10.993 -0.0784 -0.3351  0.1949
  471MOL0     H63568   5.624   7.512  10.970 -0.3934  1.9782  0.8001
  471MOL0     H63569   3.959   7.863   9.860  0.1781 -0.8056  1.1699
  471MOL0     H63570   3.715   7.897   9.788 -1.8792 -0.3888  0.7826
  471MOL0     H63571   3.291   7.806   9.951  1.5550  1.6392 -0.2044
  471MOL0     H63572   3.050   7.772   9.933 -0.3341  1.8890  0.0528
  471MOL0     H63573   2.828   7.771   9.938  2.3401 -1.0545 -1.4475
  471MOL0     H63574   2.902   7.822   9.790 -0.4335  1.5070 -1.8993
  471MOL0     H63575   2.625   7.944   9.865 -0.9247  1.6604 -1.4750
  471MOL0     H63576   2.650   7.793   9.752  1.5593  0.1636 -0.1313
  471MOL0     H63577   2.776   7.954   9.605 -0.6495 -0.7517  0.5047
  471MOL0     H63578   2.732   8.079   9.722 -1.0659  0.8889 -1.3624
  471MOL0     H63579   2.488   7.964   9.676 -0.9560 -0.7796 -1.7068
  471MOL0     H63580   2.543   8.097   9.595 -0.9622 -0.7239 -0.4598
  471MOL0     H63581   2.589   7.846   9.264  0.1791  0.1028 -0.5126
  471MOL0     H63582   2.977   8.179  10.035 -1.7642 -1.7439  1.5803
  471MOL0     H63583   3.323   8.305  10.002 -1.3078  3.1253 -0.3452
  471MOL0     H63584   3.163   8.317   9.957 -0.1867  0.1135 -0.4325
  471MOL0     H63585   3.189   8.318  10.127  2.0355  1.2872  0.9022
  472MOL0     O63586  10.103   6.634  10.467  0.2065 -0.0509  0.0353
  472MOL0     C63587  10.089   6.549  10.556 -0.3824 -0.3384 -0.1727
  472MOL0     O63588  10.181   6.515  10.642 -0.1859 -0.7197  0.4635
  472MOL0     C63589  10.317   6.500  10.621  0.2912 -0.1686 -0.3140
  472MOL0     C63590  10.388   6.502  10.738 -0.1050  0.0064  0.2261
  472MOL0     C63591  10.529   6.492  10.730 -0.3719  1.2019 -0.3137
  472MOL0     C63592  10.602   6.488  10.606  0.7404  0.3450 -0.9024
  472MOL0     O63593  10.737   6.494  10.601 -0.5570  0.2008  0.3645
  472MOL0     C63594  10.805   6.450  10.484  0.6336 -0.3518 -0.0459
  472MOL0     C63595  10.952   6.488  10.498 -0.6527 -0.0313 -0.3234
  472MOL0     C63596  11.015   6.454  10.636 -0.0443 -0.7197 -0.0421
  472MOL0     C63597  11.166   6.505  10.651  0.5790 -0.0403  0.1338
  472MOL0     C63598  11.228   6.472  10.781 -0.9055 -0.6134 -0.0834
  472MOL0     C63599  11.348   6.570  10.814 -0.2874 -0.5819  0.3292
  472MOL0     C63600  11.480   6.516  10.765 -0.5232 -0.1426  0.2939
  472MOL0     C63601  11.585   6.617  10.795 -0.0906  0.4858 -0.1834
  472MOL0     N63602  11.716   6.550  10.811  0.4319 -0.4257  0.1417
  472MOL0     C63603  11.817   6.535  10.719 -0.5992  0.0610  0.7285
  472MOL0     C63604  11.921   6.496  10.790  0.1186 -0.3332 -0.5480
  472MOL0     C63605  12.069   6.496  10.730  0.2004 -0.2426  0.6345
  472MOL0     C63606  12.165   6.390  10.787  0.1149 -0.7148 -0.0225
  472MOL0     C63607  12.119   6.245  10.752  0.2571 -0.7870 -0.6580
  472MOL0     C63608  12.226   6.143  10.790  0.4190 -0.1580  0.0825
  472MOL0     O63609  12.254   6.155  10.933  0.3030 -0.9195  0.0479
  472MOL0     C63610  12.382   6.118  10.965 -0.1691  0.0353 -0.5982
  472MOL0     C63611  12.476   6.200  11.032  0.3275 -0.1741  0.1381
  472MOL0     C63612  12.610   6.171  11.043  0.1479 -0.3972 -0.2426
  472MOL0     C63613  12.653   6.050  10.983  0.4212 -0.2228  0.5549
  472MOL0     C63614  12.794   6.020  10.966 -0.5760  0.3532 -0.0200
  472MOL0     O63615  12.835   5.919  10.881  0.2233  0.3376  0.0209
  472MOL0     C63616  12.967   5.880  10.881  0.0271 -0.7581 -0.3403
  472MOL0     C63617  12.990   5.740  10.903 -0.0036 -0.4897 -0.3053
  472MOL0     C63618  13.125   5.689  10.896  0.2008 -0.4913 -0.0456
  472MOL0     C63619  13.237   5.778  10.867  0.3526 -0.3044  0.3086
  472MOL0     O63620  13.353   5.725  10.891 -0.0143  0.5228  0.7141
  472MOL0     C63621  13.474   5.805  10.873  0.3057  0.3545  0.2492
  472MOL0     C63622  13.527   5.818  10.732 -0.0390 -0.6913 -0.4396
  472MOL0     C63623  13.673   5.869  10.741  0.1314  1.0187  0.5582
  472MOL0     C63624  13.778   5.764  10.763  0.5049  0.0457  0.9293
  472MOL0     C63625  13.914   5.836  10.777 -0.4002  0.0215  0.3878
  472MOL0     C63626  14.026   5.729  10.781  0.0466  0.2524  0.3259
  472MOL0     C63627  14.164   5.807  10.764  0.9475  0.4459 -0.4242
  472MOL0     C63628  14.277   5.703  10.774 -0.4960 -0.1311  0.8170
  472MOL0    Cl63629  14.428   5.790  10.718 -0.3232 -0.3011 -0.5260
  472MOL0     C63630  13.204   5.911  10.838  0.4762 -0.6192  0.8353
  472MOL0     C63631  13.071   5.958  10.844 -0.4412 -1.1123 -0.9356
  472MOL0     O63632  12.872   6.091  11.035  0.6005 -0.9272 -0.6557
  472MOL0     C63633  12.561   5.952  10.937  0.7991  0.2753 -0.5741
  472MOL0     C63634  12.424   5.989  10.925  0.1210  0.6491  0.2542
  472MOL0     N63635  11.886   6.475  10.924 -0.1332  0.0118 -0.4822
  472MOL0     N63636  11.755   6.511  10.934 -0.0325 -0.8729 -0.5338
  472MOL0     C63637  10.527   6.489  10.491  0.3576  0.1202  0.0063
  472MOL0     C63638  10.382   6.479  10.499 -0.4945 -0.8658  0.2039
  472MOL0     C63639   9.959   6.485  10.566 -0.2715  0.1131  0.7060
  472MOL0     C63640   9.845   6.567  10.535  0.4722 -1.7658 -0.5029
  472MOL0     C63641   9.718   6.512  10.532  0.6281  0.1049  0.0932
  472MOL0     C63642   9.693   6.375  10.536  0.2422  0.3475 -0.1656
  472MOL0     O63643   9.570   6.315  10.540 -0.1766 -0.1711 -0.2496
  472MOL0     C63644   9.453   6.394  10.505  0.8553 -0.1056 -0.4018
  472MOL0     C63645   9.364   6.286  10.442  0.4107  0.4883 -0.8175
  472MOL0     C63646   9.245   6.356  10.370  1.1593 -0.8411  0.7110
  472MOL0     C63647   9.115   6.375  10.463 -0.9140  0.5728  0.4998
  472MOL0     C63648   9.055   6.248  10.504  0.0267  1.1527  0.2807
  472MOL0     C63649   8.997   6.141  10.531 -0.2248 -0.1865 -0.1852
  472MOL0     C63650   9.801   6.296  10.562  0.0135  0.5272 -0.0510
  472MOL0     C63651   9.937   6.339  10.564  0.5283 -0.1435 -0.0362
  472MOL0     C63652  10.038   6.227  10.579 -0.5977 -0.4263 -0.3806
  472MOL0     H63653  10.328   6.510  10.827 -1.4295 -1.0303 -0.5426
  472MOL0     H63654  10.597   6.493  10.815 -2.6542  0.0148  1.6520
  472MOL0     H63655  10.798   6.341  10.471 -0.4372 -0.0383 -2.7178
  472MOL0     H63656  10.767   6.504  10.397  0.2255  2.1694  1.6045
  472MOL0     H63657  10.971   6.595  10.486  1.5391 -0.3426 -0.1251
  472MOL0     H63658  11.020   6.439  10.428  2.3799  2.1361  0.8250
  472MOL0     H63659  11.014   6.347  10.658  0.8713 -0.8166 -0.4022
  472MOL0     H63660  10.969   6.501  10.723 -0.4313  0.6659 -0.9544
  472MOL0     H63661  11.213   6.463  10.562 -0.5022 -1.5855  0.2514
  472MOL0     H63662  11.144   6.612  10.642 -0.7462 -0.1769  1.3132
  472MOL0     H63663  11.151   6.483  10.858 -1.4333 -0.8121 -0.5664
  472MOL0     H63664  11.256   6.367  10.796 -1.2298 -0.8863 -1.2409
  472MOL0     H63665  11.336   6.663  10.758 -2.5660  0.5376  2.4808
  472MOL0     H63666  11.354   6.592  10.921 -0.1558  1.8658 -0.1065
  472MOL0     H63667  11.478   6.492  10.658  0.5394  4.2679 -0.8997
  472MOL0     H63668  11.502   6.424  10.819 -2.1603 -0.5685  0.3012
  472MOL0     H63669  11.591   6.684  10.709  0.8638  2.0674  1.0476
  472MOL0     H63670  11.561   6.683  10.879  4.6212  2.6326 -0.1784
  472MOL0     H63671  11.811   6.541  10.611 -1.0220  0.0633  0.7514
  472MOL0     H63672  12.068   6.505  10.621 -4.0832 -0.0637  0.5174
  472MOL0     H63673  12.111   6.590  10.767  0.2831 -1.0527  2.7664
  472MOL0     H63674  12.269   6.412  10.761 -0.1354 -1.6533 -2.0041
  472MOL0     H63675  12.151   6.394  10.895  0.2211  0.5047 -0.0452
  472MOL0     H63676  12.087   6.244  10.648  0.8717  3.8602 -1.1254
  472MOL0     H63677  12.030   6.225  10.813 -0.0499 -0.3086 -0.9385
  472MOL0     H63678  12.313   6.163  10.727  0.5239 -0.0122  0.2742
  472MOL0     H63679  12.196   6.041  10.766  3.7558 -0.5769 -3.2663
  472MOL0     H63680  12.459   6.299  11.072 -1.8817 -1.1702  1.8886
  472MOL0     H63681  12.677   6.250  11.074  1.5299 -1.4529 -0.4129
  472MOL0     H63682  12.907   5.681  10.941 -0.4303  0.7650  0.8082
  472MOL0     H63683  13.147   5.588  10.929  3.2344  0.1058  0.0454
  472MOL0     H63684  13.463   5.905  10.917 -0.0708  0.8917 -1.0234
  472MOL0     H63685  13.547   5.746  10.929 -0.0874 -1.6418 -1.2398
  472MOL0     H63686  13.513   5.717  10.694 -1.1096 -1.6669  2.2902
  472MOL0     H63687  13.469   5.888  10.670 -0.0674  0.3754  0.7489
  472MOL0     H63688  13.689   5.910  10.641  0.2403 -1.8903 -0.7146
  472MOL0     H63689  13.685   5.947  10.817 -1.5809 -1.0097  3.0713
  472MOL0     H63690  13.789   5.693  10.680  2.1912 -1.7512  2.5837
  472MOL0     H63691  13.755   5.701  10.849 -1.6997  1.3476  1.3725
  472MOL0     H63692  13.913   5.894  10.869 -1.0291 -1.0702  1.0866
  472MOL0     H63693  13.925   5.901  10.689 -0.5133 -0.3189  0.1203
  472MOL0     H63694  14.022   5.670  10.873  0.1208  0.9157  0.7579
  472MOL0     H63695  14.013   5.665  10.693  1.4779  0.7426 -0.2715
  472MOL0     H63696  14.174   5.884  10.841  1.2888  2.0051 -1.9760
  472MOL0     H63697  14.168   5.848  10.663  2.6649 -0.4727 -0.7532
  472MOL0     H63698  14.283   5.670  10.878 -2.0324  1.1583  1.3539
  472MOL0     H63699  14.264   5.613  10.712 -0.7123 -0.3527  1.1763
  472MOL0     H63700  13.287   5.977  10.811 -0.9040  0.3121 -1.4001
  472MOL0     H63701  13.054   6.061  10.816  0.1837 -0.2388  1.6045
  472MOL0     H63702  12.582   5.855  10.892  2.4861  0.3484  0.0044
  472MOL0     H63703  12.348   5.930  10.874 -1.0574 -0.0046  2.5937
  472MOL0     H63704  10.564   6.491  10.388  3.1169  1.9562  0.9106
  472MOL0     H63705  10.323   6.472  10.408  2.1847 -0.9298 -1.6591
  472MOL0     H63706   9.850   6.675  10.548  0.2647 -1.6554 -1.3196
  472MOL0     H63707   9.635   6.577  10.507  0.4094  0.0939  0.7764
  472MOL0     H63708   9.471   6.471  10.429  2.5397  1.4042  1.4200
  472MOL0     H63709   9.396   6.436  10.589 -0.8562 -2.8928 -0.0209
  472MOL0     H63710   9.325   6.214  10.514  0.9288 -1.5430 -2.4700
  472MOL0     H63711   9.420   6.227  10.369 -1.5805 -0.2129 -1.8612
  472MOL0     H63712   9.212   6.296  10.285 -0.3190  0.8784  0.0103
  472MOL0     H63713   9.271   6.455  10.331 -1.6561 -1.1891 -2.5035
  472MOL0     H63714   9.141   6.437  10.550 -1.9347  0.1898  1.1016
  472MOL0     H63715   9.040   6.439  10.415 -0.4835  0.2286 -0.6390
  472MOL0     H63716   8.949   6.045  10.530  0.7858 -0.7118 -1.5599
  472MOL0     H63717   9.774   6.192  10.545  0.2939  1.0767 -5.7055
  472MOL0     H63718  10.128   6.258  10.633 -1.1565  0.7760 -0.1061
  472MOL0     H63719   9.993   6.141  10.628  0.9532 -0.4041  1.2042
  472MOL0     H63720  10.086   6.203  10.483  0.8315 -1.9711  0.6610
  473MOL0     O63721  11.044   3.477   6.462 -0.0415  0.2567 -0.1242
  473MOL0     C63722  11.008   3.460   6.346  0.3544  0.2497  0.2416
  473MOL0     O63723  11.093   3.459   6.239 -0.0780 -0.1273 -0.6806
  473MOL0     C63724  11.214   3.508   6.253  0.2036  0.4017 -0.1834
  473MOL0     C63725  11.317   3.420   6.277 -0.1596  0.8711  0.8688
  473MOL0     C63726  11.448   3.464   6.289  0.0986 -0.0406  0.2509
  473MOL0     C63727  11.478   3.603   6.293  0.7183 -0.0359 -0.4921
  473MOL0     O63728  11.603   3.649   6.308 -0.4951 -0.2002 -0.5299
  473MOL0     C63729  11.637   3.758   6.217 -0.1838 -0.0561  0.7350
  473MOL0     C63730  11.792   3.781   6.196  0.8959 -1.0778 -0.5815
  473MOL0     C63731  11.821   3.908   6.098 -0.0814  0.7553 -1.1703
  473MOL0     C63732  11.967   3.921   6.097 -0.0314  0.5572  0.5707
  473MOL0     C63733  11.991   4.026   5.984  0.1374 -1.2751 -0.7382
  473MOL0     C63734  12.135   4.039   5.942  0.3581 -0.4301  0.4800
  473MOL0     C63735  12.153   4.156   5.835 -0.0113 -0.2719  0.1986
  473MOL0     C63736  12.289   4.172   5.778 -0.9291  0.2393 -0.1965
  473MOL0     N63737  12.379   4.247   5.873 -0.0199 -0.0251  0.2011
  473MOL0     C63738  12.454   4.185   5.969 -0.2292  0.0461  0.3583
  473MOL0     C63739  12.473   4.284   6.056  0.4745  0.0059 -0.1899
  473MOL0     C63740  12.553   4.273   6.190  0.0419  0.3539 -0.1023
  473MOL0     C63741  12.632   4.397   6.214  0.2044  0.5965  0.2217
  473MOL0     C63742  12.717   4.387   6.342  0.3522 -0.2112  1.0418
  473MOL0     C63743  12.776   4.520   6.367 -0.2209 -0.1414 -0.1641
  473MOL0     O63744  12.876   4.499   6.465  0.0447  0.7514 -0.6721
  473MOL0     C63745  12.984   4.575   6.491  0.2255 -0.7914  0.5501
  473MOL0     C63746  13.027   4.683   6.413 -0.1163 -0.7798  0.1994
  473MOL0     C63747  13.127   4.762   6.460 -0.9568  0.5370  0.1801
  473MOL0     C63748  13.209   4.721   6.564  0.2178  0.2199  0.2341
  473MOL0     C63749  13.334   4.787   6.604 -0.8934 -0.1741 -0.1125
  473MOL0     O63750  13.389   4.873   6.504 -0.5087 -0.4803 -0.1752
  473MOL0     C63751  13.512   4.927   6.524  0.7416  0.2434 -0.0225
  473MOL0     C63752  13.622   4.868   6.595  0.3060 -0.6021 -1.1671
  473MOL0     C63753  13.745   4.935   6.608 -0.0222 -0.4648 -0.7818
  473MOL0     C63754  13.757   5.067   6.565  0.8250 -0.9473 -0.7135
  473MOL0     O63755  13.872   5.136   6.601 -0.0373  0.6422 -0.0134
  473MOL0     C63756  13.883   5.279   6.570 -0.2059  0.3677  0.1175
  473MOL0     C63757  14.009   5.338   6.634 -0.6293  0.1798  0.5456
  473MOL0     C63758  14.135   5.274   6.587 -0.2991 -0.6289  0.2840
  473MOL0     C63759  14.256   5.318   6.679  0.0798 -0.1926 -0.5425
  473MOL0     C63760  14.381   5.283   6.617 -0.4666 -0.4688 -0.9930
  473MOL0     C63761  14.504   5.345   6.699  0.6083 -0.6664 -1.0445
  473MOL0     C63762  14.632   5.311   6.623  0.5213  0.1965  0.1633
  473MOL0     C63763  14.764   5.361   6.681 -0.9872  0.0144 -0.2983
  473MOL0    Cl63764  14.883   5.330   6.555 -0.3676  0.2472 -0.2847
  473MOL0     C63765  13.643   5.126   6.502  0.1833 -0.4998 -0.0859
  473MOL0     C63766  13.527   5.056   6.476  1.1607  0.2659 -0.1350
  473MOL0     O63767  13.375   4.763   6.717 -0.0092 -0.2771 -0.4485
  473MOL0     C63768  13.158   4.617   6.644  0.0804  0.2339 -0.3668
  473MOL0     C63769  13.046   4.545   6.609  0.7465 -0.3198  0.6653
  473MOL0     N63770  12.423   4.405   6.005  0.3574  0.2608  1.0217
  473MOL0     N63771  12.373   4.380   5.896  0.2861  0.3607  0.7232
  473MOL0     C63772  11.374   3.689   6.267 -0.1344 -0.0237  0.3893
  473MOL0     C63773  11.244   3.640   6.238  0.3152  0.2571  0.3590
  473MOL0     C63774  10.869   3.426   6.331  1.1390 -0.8187  0.4685
  473MOL0     C63775  10.770   3.463   6.431  0.2595 -0.5916 -0.2716
  473MOL0     C63776  10.630   3.439   6.415 -0.3191 -0.2806  0.8967
  473MOL0     C63777  10.582   3.379   6.294 -1.1654 -0.3154 -0.2524
  473MOL0     O63778  10.451   3.372   6.256 -0.0442 -0.2822 -0.0892
  473MOL0     C63779  10.344   3.436   6.335  0.2680  0.5848 -0.9678
  473MOL0     C63780  10.216   3.403   6.263 -0.1015 -0.6049  0.7695
  473MOL0     C63781  10.096   3.396   6.364 -0.9101 -0.0284  0.6214
  473MOL0     C63782   9.968   3.371   6.280 -0.6725  0.1781  0.1901
  473MOL0     C63783   9.853   3.314   6.352 -0.1752  0.1025 -0.4564
  473MOL0     C63784   9.769   3.258   6.413 -0.5117  0.1279  0.2475
  473MOL0     C63785  10.678   3.331   6.208 -0.3514 -0.1142 -0.0075
  473MOL0     C63786  10.819   3.348   6.223 -1.4950  0.9217  0.1956
  473MOL0     C63787  10.909   3.259   6.133 -0.2760  0.5690  0.4018
  473MOL0     H63788  11.314   3.313   6.258 -0.3851  1.2548 -1.7011
  473MOL0     H63789  11.527   3.390   6.288  0.7218  0.6015  0.7783
  473MOL0     H63790  11.600   3.729   6.118  2.3965 -2.9743  0.4599
  473MOL0     H63791  11.589   3.852   6.244  0.9701  0.6225  0.4521
  473MOL0     H63792  11.836   3.685   6.170  1.0272 -1.0590 -0.4270
  473MOL0     H63793  11.834   3.822   6.288  1.3493  1.1406 -1.7008
  473MOL0     H63794  11.779   4.002   6.134  0.3712  0.2536  0.7717
  473MOL0     H63795  11.786   3.889   5.996 -0.6642  2.1860 -1.2554
  473MOL0     H63796  12.002   3.966   6.190 -0.4305  2.5809 -0.2115
  473MOL0     H63797  12.025   3.829   6.082 -0.1250  0.0172  3.0593
  473MOL0     H63798  11.935   4.004   5.893  1.1794 -1.3345 -1.3767
  473MOL0     H63799  11.961   4.126   6.016  0.0291 -1.4780 -0.1920
  473MOL0     H63800  12.195   4.060   6.031 -3.9936  1.2753  3.3414
  473MOL0     H63801  12.165   3.943   5.898  2.6323  0.8882 -1.0977
  473MOL0     H63802  12.122   4.252   5.876  0.9399  0.8530 -1.5921
  473MOL0     H63803  12.083   4.145   5.752  0.6224 -0.2441 -0.3531
  473MOL0     H63804  12.340   4.079   5.751  1.3671  1.8309 -1.7920
  473MOL0     H63805  12.280   4.224   5.682  1.7558  0.2705 -0.5100
  473MOL0     H63806  12.481   4.080   5.977  0.2917  0.0534 -0.9884
  473MOL0     H63807  12.488   4.254   6.276  1.3369 -0.0325  0.8165
  473MOL0     H63808  12.621   4.188   6.178 -0.1777 -0.1479  1.8276
  473MOL0     H63809  12.696   4.405   6.125  0.5991 -1.3133  0.2901
  473MOL0     H63810  12.558   4.477   6.223 -0.7671 -0.1432 -0.7822
  473MOL0     H63811  12.799   4.318   6.325 -0.1186 -0.3120 -1.0448
  473MOL0     H63812  12.656   4.348   6.424 -0.8619 -1.2402 -0.3103
  473MOL0     H63813  12.700   4.596   6.390 -0.7514  0.2921 -3.0422
  473MOL0     H63814  12.823   4.566   6.280  1.7509  2.5626  2.1085
  473MOL0     H63815  12.975   4.716   6.324  0.4400  1.4347  0.6338
  473MOL0     H63816  13.153   4.857   6.415 -1.0484 -0.0554 -1.1922
  473MOL0     H63817  13.619   4.771   6.643  1.2315 -0.5361 -0.9702
  473MOL0     H63818  13.830   4.883   6.652  0.5897 -0.0848 -1.4729
  473MOL0     H63819  13.892   5.285   6.462  2.1099  0.7375  0.2790
  473MOL0     H63820  13.791   5.332   6.598 -0.7618  0.4528 -1.7736
  473MOL0     H63821  14.018   5.445   6.614 -0.2024  0.0042 -0.2525
  473MOL0     H63822  14.003   5.329   6.743  2.0417  1.8405  0.9042
  473MOL0     H63823  14.126   5.165   6.591 -0.0936 -0.6095  1.6154
  473MOL0     H63824  14.153   5.315   6.487 -2.2250  0.5107  0.3538
  473MOL0     H63825  14.271   5.262   6.772  1.8256  0.1671 -0.5788
  473MOL0     H63826  14.251   5.424   6.706 -1.0021 -1.0427  3.1694
  473MOL0     H63827  14.382   5.325   6.516  1.5221 -0.0396 -0.8548
  473MOL0     H63828  14.395   5.175   6.609 -1.4274 -0.6342 -0.5465
  473MOL0     H63829  14.491   5.454   6.695 -1.7635 -0.9079 -1.8262
  473MOL0     H63830  14.512   5.307   6.801 -0.9530 -0.5242 -0.8459
  473MOL0     H63831  14.618   5.346   6.520 -0.2170 -2.0687 -0.5630
  473MOL0     H63832  14.635   5.202   6.611 -4.0422 -0.0258 -0.6720
  473MOL0     H63833  14.762   5.464   6.716 -1.8011 -0.4040  0.9337
  473MOL0     H63834  14.787   5.301   6.769 -0.3733 -0.3417 -0.6858
  473MOL0     H63835  13.641   5.227   6.461  1.0492  0.6787  2.5284
  473MOL0     H63836  13.443   5.091   6.417  0.2566 -1.0020  0.3485
  473MOL0     H63837  13.203   4.598   6.741  1.0111  3.5597 -0.0250
  473MOL0     H63838  13.013   4.461   6.668 -1.5621 -0.0604 -0.1532
  473MOL0     H63839  11.379   3.797   6.260 -1.9270  0.2945  2.6174
  473MOL0     H63840  11.156   3.697   6.212 -0.4076 -1.0809 -0.1786
  473MOL0     H63841  10.817   3.508   6.517  0.3447 -1.0651 -0.0689
  473MOL0     H63842  10.573   3.467   6.502  0.0850  0.7045  0.8604
  473MOL0     H63843  10.363   3.543   6.326  3.7757 -0.0342 -2.7509
  473MOL0     H63844  10.338   3.397   6.437 -1.8762 -0.9327 -1.5918
  473MOL0     H63845  10.230   3.304   6.218 -0.2398 -1.2420  2.0840
  473MOL0     H63846  10.192   3.473   6.183 -0.6599 -1.1623  0.4419
  473MOL0     H63847  10.095   3.489   6.422  5.2351  0.0975  1.1544
  473MOL0     H63848  10.104   3.323   6.445 -2.1988  0.6580  1.4095
  473MOL0     H63849   9.925   3.462   6.236  0.0052  0.9712  1.1249
  473MOL0     H63850   9.986   3.303   6.197  3.2240  1.5454 -0.2662
  473MOL0     H63851   9.701   3.199   6.471  0.6098  1.5567  3.2393
  473MOL0     H63852  10.639   3.269   6.127  0.3640 -0.7068  0.0965
  473MOL0     H63853  10.844   3.177   6.100 -0.4394 -0.2292  2.5794
  473MOL0     H63854  10.949   3.307   6.043  2.8226  1.2827  2.0118
  473MOL0     H63855  10.991   3.208   6.183  0.1357  0.4008 -0.4149
  474MOL0     O63856  10.298  10.503   0.524  0.6870 -0.3452 -0.0624
  474MOL0     C63857  10.227  10.556   0.607  0.3336  0.4373  0.8558
  474MOL0     O63858  10.278  10.607   0.721  0.5083 -0.9753  0.1187
  474MOL0     C63859  10.412  10.629   0.749  0.4822 -0.0404  0.4808
  474MOL0     C63860  10.515  10.651   0.651  0.7651 -0.5726 -0.0029
  474MOL0     C63861  10.640  10.674   0.698  0.7366 -0.1809  0.5326
  474MOL0     C63862  10.671  10.672   0.833 -0.2955  0.0367  0.2414
  474MOL0     O63863  10.796  10.700   0.884 -0.5692  0.3813  0.6299
  474MOL0     C63864  10.897  10.740   0.787 -0.4048 -0.1190 -0.4811
  474MOL0     C63865  11.020  10.787   0.866 -0.5071  0.0391 -0.2599
  474MOL0     C63866  11.144  10.825   0.789  0.1212 -0.0405  0.2133
  474MOL0     C63867  11.250  10.876   0.876  0.1607 -0.7910 -0.3592
  474MOL0     C63868  11.377  10.910   0.797  0.3059  0.3652  0.4170
  474MOL0     C63869  11.491  10.959   0.893 -0.2647  0.0159 -0.0938
  474MOL0     C63870  11.626  10.949   0.828 -0.7966  0.1290 -0.0272
  474MOL0     C63871  11.736  11.022   0.893  0.4711 -0.1370 -0.8970
  474MOL0     N63872  11.858  11.039   0.818 -0.1148 -0.0036  0.0637
  474MOL0     C63873  11.966  10.946   0.808  0.4612 -0.1156 -0.0801
  474MOL0     C63874  12.064  11.002   0.733 -0.2962  0.4991 -0.1022
  474MOL0     C63875  12.201  10.947   0.691  0.9603  0.1260  0.1833
  474MOL0     C63876  12.192  10.850   0.573 -0.1690  0.1306  0.1327
  474MOL0     C63877  12.334  10.779   0.557  0.3911  0.4713 -0.4863
  474MOL0     C63878  12.325  10.675   0.448  0.2788 -0.2221 -0.0418
  474MOL0     O63879  12.307  10.730   0.315  0.1956  0.4394 -0.0437
  474MOL0     C63880  12.416  10.785   0.242 -0.8284  0.1156  0.1085
  474MOL0     C63881  12.546  10.816   0.286 -0.5565  0.5034  0.4515
  474MOL0     C63882  12.644  10.881   0.208 -0.3064 -0.0083  0.7069
  474MOL0     C63883  12.620  10.903   0.061  0.6177  0.1249 -0.9438
  474MOL0     C63884  12.722  10.969  -0.026 -0.2363  0.5920  0.0458
  474MOL0     O63885  12.842  10.977   0.034  0.1703 -0.0789  0.3757
  474MOL0     C63886  12.943  11.032  -0.045 -0.0792 -1.2963  1.0784
  474MOL0     C63887  12.988  10.982  -0.170 -0.8561 -0.1344 -0.9377
  474MOL0     C63888  13.097  11.038  -0.238 -0.6722 -0.0972  1.3723
  474MOL0     C63889  13.178  11.142  -0.180  0.1552 -0.2886  0.8389
  474MOL0     O63890  13.286  11.201  -0.240  0.4908  0.5369  0.0309
  474MOL0     C63891  13.345  11.141  -0.350  0.6808  0.7582 -0.8268
  474MOL0     C63892  13.458  11.240  -0.387 -0.0608  0.3073  0.2975
  474MOL0     C63893  13.552  11.246  -0.270 -0.6742 -0.0315 -0.3571
  474MOL0     C63894  13.685  11.309  -0.306  0.0160  0.0750  0.8068
  474MOL0     C63895  13.784  11.304  -0.190  0.1851  0.7577 -0.4734
  474MOL0     C63896  13.926  11.338  -0.241  0.0805  0.1218  0.9882
  474MOL0     C63897  13.947  11.489  -0.265  0.2187  0.3919 -1.3613
  474MOL0     C63898  13.967  11.563  -0.135  1.0241  0.2237 -0.4441
  474MOL0    Cl63899  14.141  11.543  -0.088  0.1618 -0.0563  0.0892
  474MOL0     C63900  13.150  11.176  -0.052 -0.3155  0.3392 -0.4644
  474MOL0     C63901  13.033  11.127   0.015  0.2657 -0.0112  0.1156
  474MOL0     O63902  12.691  10.995  -0.145 -0.6991  0.8546 -1.0059
  474MOL0     C63903  12.490  10.863   0.018  0.0230 -0.5879 -0.3475
  474MOL0     C63904  12.393  10.808   0.107 -0.3880 -0.0058 -0.5597
  474MOL0     N63905  12.019  11.126   0.688 -0.4866 -0.0845 -0.5754
  474MOL0     N63906  11.899  11.150   0.751  0.0429 -0.2881 -0.4095
  474MOL0     C63907  10.575  10.661   0.924  0.2455  0.9699 -0.3190
  474MOL0     C63908  10.448  10.633   0.884 -0.5712 -0.9534 -0.7492
  474MOL0     C63909  10.078  10.562   0.570  0.3698  0.4533  0.3169
  474MOL0     C63910   9.988  10.611   0.668  0.4926  0.1335  0.6125
  474MOL0     C63911   9.848  10.611   0.654 -0.4432 -0.4546  0.8917
  474MOL0     C63912   9.797  10.577   0.531  0.2538  0.0001  0.4025
  474MOL0     O63913   9.662  10.566   0.543  0.3740  0.3150 -0.3028
  474MOL0     C63914   9.584  10.539   0.426 -0.3594  0.0451 -0.3013
  474MOL0     C63915   9.445  10.580   0.467  0.6451 -0.3024 -0.7031
  474MOL0     C63916   9.341  10.489   0.400  0.1460  0.7418 -0.4466
  474MOL0     C63917   9.329  10.359   0.471 -0.2069  0.4396 -0.7205
  474MOL0     C63918   9.202  10.295   0.427  0.7065 -0.4353 -0.8282
  474MOL0     C63919   9.111  10.228   0.386  0.7483  0.6592 -0.3615
  474MOL0     C63920   9.873  10.529   0.427 -0.4107  0.2526  0.2810
  474MOL0     C63921  10.015  10.518   0.446  0.8482 -0.0177 -0.7277
  474MOL0     C63922  10.092  10.452   0.325 -0.1271 -0.3530 -1.0894
  474MOL0     H63923  10.507  10.657   0.543  2.2111  0.6983 -0.0696
  474MOL0     H63924  10.716  10.684   0.621  1.0033 -2.5865  0.4032
  474MOL0     H63925  10.921  10.648   0.734 -0.9272 -0.4582 -0.1331
  474MOL0     H63926  10.864  10.825   0.726 -1.5049  1.6624  2.3844
  474MOL0     H63927  11.044  10.706   0.936 -0.6823 -0.4488 -0.7651
  474MOL0     H63928  10.982  10.872   0.925  0.6140  1.7856 -1.9305
  474MOL0     H63929  11.111  10.913   0.733 -1.5247 -0.4283  0.5241
  474MOL0     H63930  11.165  10.743   0.720 -0.2800 -1.6576  1.9355
  474MOL0     H63931  11.215  10.969   0.921  1.3245 -0.0263 -0.9810
  474MOL0     H63932  11.278  10.801   0.950  0.2970  1.7054  2.2816
  474MOL0     H63933  11.402  10.825   0.732 -1.9679  2.0214 -2.9769
  474MOL0     H63934  11.346  10.993   0.733  1.1964 -0.3103 -0.9416
  474MOL0     H63935  11.472  11.060   0.931 -1.0182 -1.0492  2.5997
  474MOL0     H63936  11.504  10.893   0.980 -1.7510  0.3427  0.4091
  474MOL0     H63937  11.608  10.990   0.728  1.6883  1.4673 -0.0029
  474MOL0     H63938  11.664  10.849   0.806  0.7810  1.2812 -3.1194
  474MOL0     H63939  11.690  11.120   0.908 -1.0396 -1.0671  0.9336
  474MOL0     H63940  11.749  10.972   0.989 -2.5609  0.9892  0.2266
  474MOL0     H63941  11.963  10.852   0.862 -0.7539  0.2543  0.5196
  474MOL0     H63942  12.262  11.027   0.648  2.4204 -1.1680 -0.2639
  474MOL0     H63943  12.253  10.903   0.776 -0.0676 -1.6730 -0.0576
  474MOL0     H63944  12.115  10.774   0.593  1.8472 -2.0388  0.0241
  474MOL0     H63945  12.164  10.906   0.483  3.4845  2.4098  0.2269
  474MOL0     H63946  12.359  10.715   0.642 -0.5471 -0.3484 -0.8005
  474MOL0     H63947  12.421  10.845   0.552  0.3560  0.4742 -1.1249
  474MOL0     H63948  12.242  10.611   0.476  1.4122 -0.7178  2.4722
  474MOL0     H63949  12.420  10.622   0.441  0.5894  0.0983  1.3773
  474MOL0     H63950  12.560  10.778   0.387  2.3578 -1.5235 -0.6082
  474MOL0     H63951  12.739  10.900   0.256  0.4762 -0.9431 -0.4051
  474MOL0     H63952  12.929  10.901  -0.211 -0.6736  0.2432 -1.9918
  474MOL0     H63953  13.114  11.004  -0.340  0.3285  0.2558  1.4126
  474MOL0     H63954  13.373  11.037  -0.327 -2.8467 -0.1615 -0.1733
  474MOL0     H63955  13.275  11.126  -0.433 -0.0484 -0.8707  0.0282
  474MOL0     H63956  13.519  11.210  -0.473 -1.6393 -1.3194 -0.3165
  474MOL0     H63957  13.420  11.339  -0.416  3.1701  1.6965  0.4031
  474MOL0     H63958  13.504  11.299  -0.188  1.6544 -0.9866  1.7371
  474MOL0     H63959  13.572  11.141  -0.245  1.7959  0.2253 -1.0092
  474MOL0     H63960  13.674  11.407  -0.353 -2.4660 -0.5844 -0.1486
  474MOL0     H63961  13.722  11.255  -0.394 -2.0903 -1.2262  0.6489
  474MOL0     H63962  13.795  11.205  -0.144  0.0242  0.5822 -0.8112
  474MOL0     H63963  13.737  11.376  -0.123 -2.6974 -0.0024 -1.5421
  474MOL0     H63964  14.007  11.297  -0.180  0.1444 -1.5660 -0.1642
  474MOL0     H63965  13.945  11.286  -0.336  1.6121 -0.6721  1.7013
  474MOL0     H63966  13.855  11.524  -0.312 -0.8233 -1.1681 -0.5697
  474MOL0     H63967  14.037  11.508  -0.324  1.7435 -1.0028  0.4023
  474MOL0     H63968  13.956  11.671  -0.148 -2.0939  0.1986  1.0504
  474MOL0     H63969  13.897  11.521  -0.062  1.1657  0.3647 -0.2267
  474MOL0     H63970  13.210  11.245   0.007  1.1486 -0.0639 -1.4330
  474MOL0     H63971  13.005  11.149   0.117  0.8849  2.6725 -0.2255
  474MOL0     H63972  12.471  10.856  -0.089 -0.8384 -2.5075 -0.1069
  474MOL0     H63973  12.302  10.778   0.056 -0.6565  1.1250 -0.7908
  474MOL0     H63974  10.595  10.655   1.031  0.1084 -0.8368 -0.3526
  474MOL0     H63975  10.363  10.610   0.948 -3.0089 -2.2000 -4.1601
  474MOL0     H63976  10.028  10.639   0.765 -1.0268 -1.6738  1.8299
  474MOL0     H63977   9.788  10.658   0.731  0.1047  2.2350 -0.2159
  474MOL0     H63978   9.592  10.433   0.399  1.7978  0.4892 -1.6483
  474MOL0     H63979   9.620  10.601   0.344  3.1357 -3.5983 -1.8661
  474MOL0     H63980   9.434  10.684   0.438  1.9483  0.6675  1.9374
  474MOL0     H63981   9.435  10.568   0.576  0.2263 -0.3044 -0.7388
  474MOL0     H63982   9.367  10.468   0.296  3.3742 -3.4347  0.9766
  474MOL0     H63983   9.251  10.552   0.409 -0.7040 -0.6922  2.0876
  474MOL0     H63984   9.412  10.289   0.458  1.3385  1.9058  0.6984
  474MOL0     H63985   9.321  10.362   0.580  0.3244  1.0088 -0.6950
  474MOL0     H63986   9.030  10.163   0.363  2.0095  0.4000 -4.9679
  474MOL0     H63987   9.830  10.498   0.333  0.3764 -2.0558  0.6402
  474MOL0     H63988  10.180  10.516   0.309 -0.0707  0.2290  1.1873
  474MOL0     H63989  10.124  10.355   0.366 -0.6483  0.4746  1.4511
  474MOL0     H63990  10.028  10.439   0.238 -2.9860  1.7342  0.5392
  475MOL0     O63991   3.953   0.759   4.432  0.6234  0.4121 -0.0001
  475MOL0     C63992   3.842   0.732   4.391 -0.6134 -0.0142 -0.7171
  475MOL0     O63993   3.820   0.640   4.302 -0.2037 -0.2821 -0.1528
  475MOL0     C63994   3.931   0.559   4.269  0.0528 -0.4658 -0.3445
  475MOL0     C63995   3.954   0.439   4.337  1.0466 -1.2583 -0.1528
  475MOL0     C63996   4.057   0.364   4.290  0.5759 -1.1421  0.0247
  475MOL0     C63997   4.135   0.397   4.178  0.8594 -0.7970 -1.0292
  475MOL0     O63998   4.229   0.322   4.118 -0.2719  0.5289  0.9098
  475MOL0     C63999   4.275   0.200   4.183  0.4433 -0.1311  0.2350
  475MOL0     C64000   4.372   0.124   4.096 -0.3546  0.3772  0.0308
  475MOL0     C64001   4.505   0.196   4.063  0.0358  0.5541  0.7903
  475MOL0     C64002   4.585   0.253   4.181  0.2454 -0.1548 -0.1038
  475MOL0     C64003   4.731   0.292   4.141 -0.3789 -0.1098  0.6498
  475MOL0     C64004   4.832   0.176   4.138  0.2984 -0.3396  0.9613
  475MOL0     C64005   4.963   0.222   4.093 -0.4527 -0.0828  0.2218
  475MOL0     C64006   5.072   0.117   4.090  0.3462  0.6020  0.3246
  475MOL0     N64007   5.202   0.180   4.063  0.0216  0.5516  0.0016
  475MOL0     C64008   5.264   0.181   3.943 -0.1466  0.0742 -0.1933
  475MOL0     C64009   5.368   0.270   3.963 -0.9231 -0.2733  0.3769
  475MOL0     C64010   5.470   0.308   3.857 -0.2791  0.1988  0.4024
  475MOL0     C64011   5.586   0.217   3.867 -0.0965 -0.1629 -0.2303
  475MOL0     C64012   5.699   0.255   3.787 -0.3736 -0.6815  0.3267
  475MOL0     C64013   5.800   0.337   3.874 -0.0751  0.8377  0.1487
  475MOL0     O64014   5.907   0.380   3.789  0.4084  0.4995  0.4009
  475MOL0     C64015   6.028   0.315   3.809  0.1849  0.1784 -0.1363
  475MOL0     C64016   6.145   0.399   3.795 -0.0746 -0.2236 -0.1069
  475MOL0     C64017   6.268   0.359   3.841  0.6457 -0.7952 -1.0545
  475MOL0     C64018   6.288   0.230   3.890 -0.4429 -0.3308  0.4301
  475MOL0     C64019   6.427   0.184   3.932  0.9086 -0.2169 -0.0486
  475MOL0     O64020   6.528   0.228   3.861 -0.0145  0.4746 -0.9842
  475MOL0     C64021   6.652   0.201   3.904 -0.2795  0.8275  0.1654
  475MOL0     C64022   6.722   0.286   3.982  0.1614  0.0998 -0.1596
  475MOL0     C64023   6.854   0.263   4.027 -0.4372  0.1316  0.4121
  475MOL0     C64024   6.923   0.154   3.972 -0.0395  0.3373  0.0321
  475MOL0     O64025   7.061   0.119   3.988  0.0784 -0.1859 -0.6210
  475MOL0     C64026   7.152   0.199   4.070 -0.0612  0.5200  0.7120
  475MOL0     C64027   7.290   0.140   4.043  0.0185  0.2490  0.2647
  475MOL0     C64028   7.405   0.213   4.090  0.2569 -0.2743  0.0792
  475MOL0     C64029   7.405   0.244   4.236  0.1136 -0.2239 -0.2234
  475MOL0     C64030   7.532   0.323   4.275 -0.3945 -0.2054 -0.1876
  475MOL0     C64031   7.526   0.471   4.240 -0.3886 -0.0851 -0.1521
  475MOL0     C64032   7.421   0.549   4.317  0.7536 -0.0388 -0.0016
  475MOL0     C64033   7.451   0.697   4.332 -0.1244  0.2090 -0.5758
  475MOL0    Cl64034   7.600   0.734   4.431  0.0720  0.0370 -0.1964
  475MOL0     C64035   6.856   0.071   3.882 -0.5597  1.1732  0.3539
  475MOL0     C64036   6.720   0.088   3.856 -0.7070 -0.7304  0.3380
  475MOL0     O64037   6.432   0.112   4.034 -0.2316  0.2313 -0.8141
  475MOL0     C64038   6.173   0.149   3.910  0.7045 -0.7602  0.3422
  475MOL0     C64039   6.050   0.189   3.865 -0.4292 -0.5438  1.0799
  475MOL0     N64040   5.361   0.315   4.097 -0.1493 -0.3182 -0.2814
  475MOL0     N64041   5.266   0.256   4.157 -0.9435 -0.1116  0.4454
  475MOL0     C64042   4.106   0.517   4.113  0.7490 -0.5450  0.0144
  475MOL0     C64043   4.003   0.592   4.154  0.7650 -0.0531 -0.2518
  475MOL0     C64044   3.731   0.815   4.436 -0.1594 -0.4049  1.0009
  475MOL0     C64045   3.741   0.897   4.549  0.3086  0.1679  0.1481
  475MOL0     C64046   3.631   0.953   4.616 -0.1831  0.2447 -0.0387
  475MOL0     C64047   3.511   0.961   4.549  0.1128 -0.4601 -0.2910
  475MOL0     O64048   3.409   1.035   4.618  0.1206 -0.0477 -0.4386
  475MOL0     C64049   3.276   1.037   4.562 -0.3382 -0.4325  0.1558
  475MOL0     C64050   3.189   1.111   4.672 -0.1354 -0.2179  0.2308
  475MOL0     C64051   3.040   1.080   4.666 -0.1014  0.4861 -0.9838
  475MOL0     C64052   3.028   0.937   4.711 -0.3505 -0.3292  0.1632
  475MOL0     C64053   2.894   0.890   4.693 -0.2757  0.2523 -0.8788
  475MOL0     C64054   2.785   0.837   4.675 -0.3592 -0.4788  0.2452
  475MOL0     C64055   3.503   0.879   4.432 -0.1967 -0.4703  0.5040
  475MOL0     C64056   3.606   0.810   4.372 -0.7453 -0.6311 -0.2138
  475MOL0     C64057   3.562   0.737   4.246 -0.3310  0.7530  0.6113
  475MOL0     H64058   3.884   0.416   4.417  0.6882 -2.0311 -0.6869
  475MOL0     H64059   4.079   0.273   4.345 -1.7452 -1.1915  1.0060
  475MOL0     H64060   4.323   0.240   4.272  0.8114  0.9430 -0.4327
  475MOL0     H64061   4.191   0.135   4.212  0.8772 -0.1820  1.4083
  475MOL0     H64062   4.334   0.104   3.995  1.5019  1.3765 -0.9121
  475MOL0     H64063   4.394   0.029   4.146  0.6261 -0.9565 -2.7180
  475MOL0     H64064   4.471   0.281   4.003  0.2227  1.1876  1.5527
  475MOL0     H64065   4.561   0.125   4.002 -2.1421 -0.8346  0.3079
  475MOL0     H64066   4.542   0.349   4.212 -1.8244 -0.7872 -0.8453
  475MOL0     H64067   4.589   0.186   4.268  1.0829 -1.2783 -0.9821
  475MOL0     H64068   4.721   0.340   4.044 -3.1663 -0.3785  0.7359
  475MOL0     H64069   4.774   0.371   4.203 -3.6589  2.5077 -0.1412
  475MOL0     H64070   4.841   0.128   4.236  0.2448 -0.6932  0.7953
  475MOL0     H64071   4.788   0.107   4.064 -0.8165  0.6157  0.7085
  475MOL0     H64072   4.988   0.300   4.165  0.9182  0.8951 -1.2340
  475MOL0     H64073   4.942   0.273   3.998  0.7074  0.8145  0.4263
  475MOL0     H64074   5.076   0.056   4.181  0.8180  0.6416  0.3352
  475MOL0     H64075   5.048   0.051   4.006  0.8486 -2.2479  2.2557
  475MOL0     H64076   5.247   0.131   3.848  3.9980  0.3765 -1.2926
  475MOL0     H64077   5.425   0.306   3.757 -2.1992 -2.6155  1.1924
  475MOL0     H64078   5.506   0.409   3.880 -0.1872  0.2094  0.2173
  475MOL0     H64079   5.617   0.207   3.971 -1.1043 -1.1794 -0.0048
  475MOL0     H64080   5.546   0.118   3.843 -2.3294  0.5186  0.5121
  475MOL0     H64081   5.680   0.317   3.698  2.7295 -1.3275 -0.9252
  475MOL0     H64082   5.748   0.163   3.754 -0.9336 -1.1329  0.7540
  475MOL0     H64083   5.838   0.272   3.954 -0.6850  0.0525 -0.1840
  475MOL0     H64084   5.744   0.418   3.921 -0.4887  1.2592 -1.0358
  475MOL0     H64085   6.141   0.501   3.757  3.8423  1.0083  2.2522
  475MOL0     H64086   6.350   0.427   3.821  0.7008 -0.8984 -1.1776
  475MOL0     H64087   6.680   0.378   4.020 -4.2868 -2.1888  1.2197
  475MOL0     H64088   6.900   0.341   4.086 -0.1020  0.0693  0.2408
  475MOL0     H64089   7.162   0.305   4.045 -2.0481  0.3591 -1.0562
  475MOL0     H64090   7.124   0.187   4.175 -0.0930  1.0704  0.7670
  475MOL0     H64091   7.286   0.035   4.074 -0.9834 -0.0515 -0.8076
  475MOL0     H64092   7.320   0.131   3.938  4.1112  0.3306  1.2786
  475MOL0     H64093   7.495   0.154   4.070 -1.0957 -2.5458  0.3642
  475MOL0     H64094   7.424   0.304   4.033  1.7082  1.8068  3.5584
  475MOL0     H64095   7.399   0.158   4.303  0.4597  0.1406  0.2779
  475MOL0     H64096   7.320   0.311   4.252  0.9174  0.5969  0.7266
  475MOL0     H64097   7.623   0.286   4.229 -0.1115  2.7240 -2.2859
  475MOL0     H64098   7.542   0.311   4.383  1.5815 -1.7223 -0.4820
  475MOL0     H64099   7.618   0.518   4.276 -1.3635 -0.5342  3.3167
  475MOL0     H64100   7.527   0.490   4.133 -0.8789  3.7252  0.4001
  475MOL0     H64101   7.394   0.505   4.414 -0.4967 -3.2067 -1.6277
  475MOL0     H64102   7.333   0.537   4.252  1.9336 -1.2222 -1.4599
  475MOL0     H64103   7.469   0.750   4.238  2.5620 -1.9671 -1.4039
  475MOL0     H64104   7.370   0.745   4.387  1.6918  0.9878  1.5638
  475MOL0     H64105   6.908  -0.016   3.844 -1.2939  0.4484  0.9712
  475MOL0     H64106   6.679   0.022   3.781  1.2186  0.1199 -1.5798
  475MOL0     H64107   6.186   0.050   3.953  1.0568 -0.5159  0.8203
  475MOL0     H64108   5.963   0.124   3.866 -0.3597 -0.6361  1.0978
  475MOL0     H64109   4.163   0.555   4.029 -0.1509  0.4728 -0.1531
  475MOL0     H64110   3.966   0.683   4.108  0.8436 -0.3378 -0.8931
  475MOL0     H64111   3.841   0.910   4.589 -0.0241 -1.8694  1.8114
  475MOL0     H64112   3.651   1.015   4.703 -0.3167 -0.1582  0.2821
  475MOL0     H64113   3.247   0.932   4.551 -1.0202 -0.0727 -2.0448
  475MOL0     H64114   3.268   1.088   4.465 -0.6804 -0.1027  0.3538
  475MOL0     H64115   3.213   1.218   4.670  0.4352 -0.3513 -0.2652
  475MOL0     H64116   3.223   1.081   4.771  1.4127 -0.8092 -0.4494
  475MOL0     H64117   2.999   1.098   4.566 -1.7187  0.5167 -0.3426
  475MOL0     H64118   2.989   1.142   4.740  1.0265  0.9655 -0.5868
  475MOL0     H64119   3.086   0.875   4.642  0.1655  2.2947 -1.9398
  475MOL0     H64120   3.065   0.914   4.812  0.8274 -0.6300 -0.3200
  475MOL0     H64121   2.689   0.797   4.651 -0.6350  0.4347 -0.2273
  475MOL0     H64122   3.405   0.875   4.385 -0.5878  0.4849  1.1945
  475MOL0     H64123   3.640   0.708   4.175 -0.7585  1.4675 -0.1679
  475MOL0     H64124   3.526   0.639   4.276  0.0556 -0.7577 -3.2094
  475MOL0     H64125   3.474   0.779   4.196 -2.3447 -1.4930  2.0469
  476MOL0     O64126  10.632   2.193   6.666  0.7872  1.1399  0.1335
  476MOL0     C64127  10.689   2.276   6.732 -0.7613  0.2387 -0.1032
  476MOL0     O64128  10.628   2.387   6.787  0.8456 -0.0615  0.0267
  476MOL0     C64129  10.492   2.423   6.759 -0.7553  0.2746  0.4526
  476MOL0     C64130  10.437   2.518   6.850  0.1784  0.4975  0.4620
  476MOL0     C64131  10.297   2.544   6.840  0.5260 -0.3813  0.0705
  476MOL0     C64132  10.227   2.509   6.719 -0.5417 -0.1152 -1.1126
  476MOL0     O64133  10.100   2.555   6.719  0.1213  0.2188  0.0405
  476MOL0     C64134  10.009   2.496   6.626  0.4744 -0.7661  0.2822
  476MOL0     C64135   9.867   2.546   6.665 -0.5072 -0.4817  0.0387
  476MOL0     C64136   9.758   2.495   6.569 -0.1729 -1.2513 -0.4237
  476MOL0     C64137   9.612   2.561   6.607  0.1457 -0.4113  0.1031
  476MOL0     C64138   9.507   2.468   6.539 -0.3552 -0.5195 -0.5480
  476MOL0     C64139   9.365   2.520   6.554 -0.3114 -0.3064 -0.0673
  476MOL0     C64140   9.265   2.407   6.520 -0.1673 -0.0544  1.1857
  476MOL0     C64141   9.120   2.463   6.546 -0.3731 -0.4692 -0.6427
  476MOL0     N64142   9.016   2.392   6.471 -0.6095 -0.7507 -0.2646
  476MOL0     C64143   9.017   2.402   6.337  0.3066  0.2679  1.2382
  476MOL0     C64144   8.918   2.317   6.304 -0.6332 -0.6592 -0.7428
  476MOL0     C64145   8.880   2.280   6.166 -0.5402  0.0070  0.6258
  476MOL0     C64146   8.854   2.403   6.079 -0.4377  0.2114  0.7196
  476MOL0     C64147   8.842   2.373   5.927 -0.5129  0.0729 -0.1563
  476MOL0     C64148   8.980   2.359   5.864  0.7449  0.8639 -0.0370
  476MOL0     O64149   9.051   2.473   5.884  0.5845 -0.3401  0.0519
  476MOL0     C64150   9.182   2.479   5.920  0.7955  0.0502 -0.2486
  476MOL0     C64151   9.289   2.422   5.840  0.0207  0.6024  0.5559
  476MOL0     C64152   9.424   2.414   5.891  0.3534  0.0233 -0.1431
  476MOL0     C64153   9.446   2.457   6.029  0.0336 -0.4430 -0.6513
  476MOL0     C64154   9.582   2.450   6.084 -0.1649 -0.2418 -0.3942
  476MOL0     O64155   9.678   2.384   6.004  0.4169 -0.3655 -0.0518
  476MOL0     C64156   9.811   2.399   6.050  0.1285 -0.6316 -0.2805
  476MOL0     C64157   9.868   2.297   6.117 -0.1293  0.1436 -0.8881
  476MOL0     C64158  10.003   2.313   6.163  0.1412  0.2170  0.5708
  476MOL0     C64159  10.076   2.437   6.145 -0.1646  0.6412  0.6579
  476MOL0     O64160  10.197   2.430   6.195 -0.6978  0.2548  0.4824
  476MOL0     C64161  10.294   2.530   6.185 -1.7608  0.1021 -0.3375
  476MOL0     C64162  10.400   2.498   6.291  0.0789 -0.9262 -0.2867
  476MOL0     C64163  10.543   2.538   6.257 -0.1463  0.0411 -0.3986
  476MOL0     C64164  10.641   2.480   6.345 -0.6856  0.6939 -0.7322
  476MOL0     C64165  10.786   2.488   6.305  0.0238 -0.9944  0.0331
  476MOL0     C64166  10.878   2.460   6.430 -0.3846  0.1486  0.6219
  476MOL0     C64167  11.028   2.484   6.387 -0.1351  0.0218  0.2862
  476MOL0     C64168  11.123   2.487   6.509  0.1581 -0.1392 -0.3951
  476MOL0    Cl64169  11.111   2.640   6.601  0.0931  0.0662  0.0359
  476MOL0     C64170  10.017   2.530   6.072  0.3673  0.4068  0.0460
  476MOL0     C64171   9.887   2.516   6.025  0.2951  0.6284  0.4129
  476MOL0     O64172   9.602   2.509   6.193  0.2348  0.6978 -0.0502
  476MOL0     C64173   9.342   2.504   6.104 -0.2092 -0.2222 -0.5647
  476MOL0     C64174   9.210   2.523   6.050  0.5418 -0.5148 -0.3357
  476MOL0     N64175   8.849   2.290   6.423 -0.1747 -0.3435  0.6922
  476MOL0     N64176   8.914   2.320   6.528  0.0388  0.4427  1.1597
  476MOL0     C64177  10.282   2.409   6.640 -0.0124 -0.5897  0.5789
  476MOL0     C64178  10.414   2.370   6.657  0.0609 -0.0377  0.6173
  476MOL0     C64179  10.836   2.257   6.756  0.1415  0.4299 -0.5842
  476MOL0     C64180  10.899   2.145   6.711  0.2627 -0.3513 -0.1215
  476MOL0     C64181  11.039   2.108   6.733  1.1647 -0.2767  0.4731
  476MOL0     C64182  11.121   2.200   6.797  0.4764  0.2482 -0.5616
  476MOL0     O64183  11.247   2.178   6.829 -0.1297 -0.1977 -0.2686
  476MOL0     C64184  11.313   2.056   6.800 -0.4964 -0.5738 -0.4408
  476MOL0     C64185  11.466   2.062   6.812 -0.3477 -0.1660  0.5511
  476MOL0     C64186  11.524   2.114   6.949  0.0173 -0.3051 -0.1714
  476MOL0     C64187  11.661   2.052   6.979  0.0135  0.0593 -0.4535
  476MOL0     C64188  11.761   2.102   6.882 -0.9251 -0.4476  0.8249
  476MOL0     C64189  11.833   2.134   6.791 -0.4979  0.4886 -0.1323
  476MOL0     C64190  11.062   2.320   6.843 -0.2600  0.2539  0.5512
  476MOL0     C64191  10.925   2.351   6.816 -0.7777 -0.4788  0.1995
  476MOL0     C64192  10.878   2.482   6.875 -0.1860 -0.4772 -0.3712
  476MOL0     H64193  10.491   2.546   6.940 -0.2466  0.4231  0.7447
  476MOL0     H64194  10.247   2.617   6.903  0.9558  0.1501 -0.1902
  476MOL0     H64195  10.021   2.533   6.524 -1.1074  0.5974  0.5487
  476MOL0     H64196  10.010   2.386   6.623  0.7157 -0.7804  0.7478
  476MOL0     H64197   9.873   2.655   6.672  3.0336 -0.4430 -1.6538
  476MOL0     H64198   9.845   2.506   6.764  0.3571  1.1723  0.9266
  476MOL0     H64199   9.757   2.386   6.577  1.9245 -1.2603  0.3739
  476MOL0     H64200   9.792   2.530   6.471  1.3098 -2.2312 -0.2768
  476MOL0     H64201   9.594   2.544   6.714 -2.3865 -0.3978 -0.2565
  476MOL0     H64202   9.607   2.666   6.578  0.1799 -0.0741  1.2796
  476MOL0     H64203   9.532   2.458   6.433 -1.3229 -1.8732 -0.6730
  476MOL0     H64204   9.516   2.371   6.588 -1.1703  0.9579  2.8167
  476MOL0     H64205   9.353   2.552   6.658 -0.9901  0.2709 -0.3128
  476MOL0     H64206   9.343   2.609   6.494 -0.2191  0.7539  1.4167
  476MOL0     H64207   9.275   2.314   6.576  0.1695 -1.5964 -1.3039
  476MOL0     H64208   9.287   2.379   6.417  0.4637  1.4970  0.8716
  476MOL0     H64209   9.109   2.464   6.654  1.9430  1.6285 -0.3414
  476MOL0     H64210   9.113   2.567   6.511  0.5503  1.5142  4.2786
  476MOL0     H64211   9.094   2.445   6.273  0.7073 -0.5457  1.1531
  476MOL0     H64212   8.949   2.213   6.115 -0.5465  0.8521 -0.5306
  476MOL0     H64213   8.785   2.233   6.192 -0.0729  0.1136  2.7414
  476MOL0     H64214   8.753   2.436   6.108 -1.5078  0.2337 -2.5810
  476MOL0     H64215   8.928   2.480   6.100  0.0526  0.1151 -0.5928
  476MOL0     H64216   8.786   2.458   5.888  2.0552  3.4772  2.8311
  476MOL0     H64217   8.788   2.282   5.903  2.1941 -1.2720 -1.6277
  476MOL0     H64218   8.969   2.346   5.756  1.7186  0.2238 -0.0767
  476MOL0     H64219   9.036   2.276   5.910 -1.1614  0.8286  2.4302
  476MOL0     H64220   9.269   2.377   5.743  2.2353  0.6283  0.0334
  476MOL0     H64221   9.501   2.366   5.831  1.0943  2.3079 -1.1289
  476MOL0     H64222   9.816   2.203   6.134  0.4492 -0.3335 -1.7220
  476MOL0     H64223  10.039   2.225   6.216  0.8516 -0.2300 -0.6282
  476MOL0     H64224  10.330   2.514   6.084  1.3972 -0.9964  0.8503
  476MOL0     H64225  10.254   2.632   6.197  1.4883  1.3644  0.8670
  476MOL0     H64226  10.372   2.549   6.383 -1.0587  0.0257 -1.1397
  476MOL0     H64227  10.391   2.390   6.308 -0.5122 -0.7025  0.9635
  476MOL0     H64228  10.560   2.512   6.152 -0.2979 -0.6711 -0.2506
  476MOL0     H64229  10.559   2.645   6.270  2.0600 -0.2580 -0.2436
  476MOL0     H64230  10.615   2.378   6.378  0.9851  0.8286  1.1773
  476MOL0     H64231  10.642   2.530   6.442 -0.2647 -0.7469  0.0498
  476MOL0     H64232  10.809   2.587   6.263 -0.0089 -0.5704  0.9990
  476MOL0     H64233  10.812   2.418   6.225  1.2451 -2.2819  1.5083
  476MOL0     H64234  10.845   2.522   6.514 -1.0820  2.0071 -0.9335
  476MOL0     H64235  10.870   2.356   6.462  0.9065  0.6162  2.6430
  476MOL0     H64236  11.027   2.578   6.330 -1.0756 -1.2729 -1.9929
  476MOL0     H64237  11.060   2.399   6.327  2.6971  1.6025 -0.6332
  476MOL0     H64238  11.105   2.400   6.573  0.6473  0.3638  0.4648
  476MOL0     H64239  11.226   2.484   6.472  0.5624  0.0008  0.6812
  476MOL0     H64240  10.069   2.620   6.043  0.9931 -0.1222 -0.5077
  476MOL0     H64241   9.854   2.593   5.955  1.0169 -0.6898 -1.4767
  476MOL0     H64242   9.362   2.541   6.204 -1.6030  2.8596 -1.3045
  476MOL0     H64243   9.132   2.578   6.101  1.1128 -0.7949  0.8801
  476MOL0     H64244  10.233   2.386   6.546  3.3557  1.8385 -2.0240
  476MOL0     H64245  10.437   2.292   6.585 -2.3782  1.3527 -1.8612
  476MOL0     H64246  10.836   2.069   6.666  0.4810 -0.5069 -0.1638
  476MOL0     H64247  11.072   2.015   6.687 -0.9482 -0.5326 -0.6651
  476MOL0     H64248  11.288   2.019   6.700 -0.3993 -1.1486 -0.2541
  476MOL0     H64249  11.280   1.982   6.874 -0.5913  1.1350  1.2838
  476MOL0     H64250  11.501   2.130   6.733 -0.8679  0.4247  0.8236
  476MOL0     H64251  11.500   1.960   6.792 -0.5023 -0.2812  0.8782
  476MOL0     H64252  11.456   2.089   7.031  2.4058  0.8586  2.3323
  476MOL0     H64253  11.532   2.222   6.937 -1.0635 -0.2414 -0.4561
  476MOL0     H64254  11.685   2.097   7.076 -4.7678  0.3182  0.8631
  476MOL0     H64255  11.648   1.944   6.972  0.8474  0.0311 -2.0146
  476MOL0     H64256  11.905   2.174   6.722 -1.6208  2.2644 -0.3476
  476MOL0     H64257  11.128   2.385   6.899 -0.1469 -1.3338  2.3488
  476MOL0     H64258  10.968   2.545   6.877  0.5862 -1.4998 -1.1267
  476MOL0     H64259  10.811   2.538   6.810  1.1567  2.2486  0.4321
  476MOL0     H64260  10.850   2.477   6.980  2.3750 -1.5079  0.3568
  477MOL0     O64261  10.810   9.701   9.247  0.5050  0.0063 -0.0656
  477MOL0     C64262  10.793   9.813   9.202 -0.7592 -0.7115  0.0377
  477MOL0     O64263  10.893   9.908   9.165 -0.4363 -0.1834 -0.6984
  477MOL0     C64264  11.021   9.898   9.208  0.3631 -0.3181  0.3741
  477MOL0     C64265  11.129   9.932   9.129 -0.4493 -0.4486  0.0429
  477MOL0     C64266  11.261   9.916   9.173 -0.4830  0.6063 -0.6195
  477MOL0     C64267  11.284   9.886   9.306 -0.6223 -0.4128  0.3530
  477MOL0     O64268  11.412   9.872   9.369 -0.2327  0.5291 -0.1048
  477MOL0     C64269  11.539   9.883   9.294  0.0297 -1.6120  1.4851
  477MOL0     C64270  11.658   9.846   9.375 -0.8169  0.1930 -0.2473
  477MOL0     C64271  11.787   9.880   9.316 -0.2696  0.3044  0.0758
  477MOL0     C64272  11.912   9.857   9.404 -0.6334 -0.3823 -0.3221
  477MOL0     C64273  12.045   9.893   9.342  0.7916 -0.3341  0.1335
  477MOL0     C64274  12.154   9.883   9.442  0.2095 -0.6998  0.4106
  477MOL0     C64275  12.293   9.900   9.379  0.2758  0.1901  0.0052
  477MOL0     C64276  12.358   9.772   9.314  0.7967 -0.9908  0.3826
  477MOL0     N64277  12.467   9.800   9.216 -0.0167  0.3336 -0.0744
  477MOL0     C64278  12.563   9.892   9.239  0.1598  0.9988  0.6169
  477MOL0     C64279  12.656   9.876   9.130 -0.2484 -0.3044  0.2005
  477MOL0     C64280  12.768   9.971   9.084 -0.1563  0.9788 -0.1167
  477MOL0     C64281  12.895   9.915   9.124 -0.0969 -1.0060  0.2907
  477MOL0     C64282  13.002   9.918   9.008 -0.1088  0.3745  0.4374
  477MOL0     C64283  13.142   9.888   9.074  0.2483 -0.1929 -0.5299
  477MOL0     O64284  13.242   9.902   8.973  0.2944 -0.4928 -0.6528
  477MOL0     C64285  13.364   9.846   9.001  0.0062 -0.0189  0.0664
  477MOL0     C64286  13.439   9.813   8.891 -0.1642  0.0310 -0.1288
  477MOL0     C64287  13.570   9.747   8.905 -0.5404  0.6139 -0.9992
  477MOL0     C64288  13.612   9.714   9.043  0.6288  0.6738  1.1906
  477MOL0     C64289  13.733   9.628   9.064  0.2353 -0.0596  0.2603
  477MOL0     O64290  13.748   9.577   9.196  0.0392  0.8271  0.4732
  477MOL0     C64291  13.842   9.484   9.229 -0.6159 -0.9141 -0.1382
  477MOL0     C64292  13.976   9.468   9.174  0.6182 -0.3471  0.4136
  477MOL0     C64293  14.063   9.368   9.211 -0.0006 -0.0324  0.1297
  477MOL0     C64294  14.024   9.271   9.304 -1.0989  0.3543  0.2286
  477MOL0     O64295  14.093   9.160   9.341  0.1985  0.5195  0.1997
  477MOL0     C64296  14.228   9.146   9.301  0.0431 -0.8876 -0.7746
  477MOL0     C64297  14.310   9.227   9.398  0.3635 -0.3105  0.0203
  477MOL0     C64298  14.454   9.238   9.359 -0.3404 -0.1948 -0.0943
  477MOL0     C64299  14.486   9.286   9.217  0.1088 -0.1612 -0.2713
  477MOL0     C64300  14.639   9.310   9.199  0.6468 -0.3215 -0.1349
  477MOL0     C64301  14.662   9.368   9.065 -0.3227  0.0073  1.0764
  477MOL0     C64302  14.635   9.280   8.945  0.2531 -0.9788 -1.1895
  477MOL0     C64303  14.696   9.345   8.817  0.2777 -0.2225 -0.2492
  477MOL0    Cl64304  14.868   9.292   8.809  0.2092  0.3058  0.5743
  477MOL0     C64305  13.897   9.275   9.356  0.6122 -0.5643 -0.2710
  477MOL0     C64306  13.811   9.386   9.323  0.0792 -0.1439  0.5415
  477MOL0     O64307  13.815   9.610   8.977 -0.1324 -0.4296  0.1991
  477MOL0     C64308  13.534   9.747   9.150 -0.3243  0.3491  0.4508
  477MOL0     C64309  13.412   9.807   9.127 -0.8402 -0.3403 -0.5469
  477MOL0     N64310  12.605   9.773   9.049 -0.0849  0.1795  0.5293
  477MOL0     N64311  12.500   9.728   9.102  0.6420  0.3304  0.2558
  477MOL0     C64312  11.175   9.860   9.390 -0.2297 -0.6271  0.5076
  477MOL0     C64313  11.041   9.869   9.341  0.1284  0.0300 -0.2132
  477MOL0     C64314  10.657   9.855   9.180  0.2787  0.0545 -0.7837
  477MOL0     C64315  10.562   9.828   9.289 -0.0923  0.5280  0.3338
  477MOL0     C64316  10.430   9.862   9.273  0.0288 -0.8132  0.0234
  477MOL0     C64317  10.386   9.922   9.151  0.1865  0.1754 -0.5230
  477MOL0     O64318  10.256   9.957   9.126 -0.5008 -0.1647  0.0231
  477MOL0     C64319  10.160   9.968   9.234  0.7800 -0.0699  0.3780
  477MOL0     C64320  10.028  10.021   9.188 -0.3073 -0.0667 -0.0576
  477MOL0     C64321  10.042  10.161   9.130 -0.8487 -0.4166 -0.2849
  477MOL0     C64322   9.920  10.199   9.057  0.6748  0.5238  0.0848
  477MOL0     C64323   9.942  10.316   8.977  0.6837 -0.2738  0.4505
  477MOL0     C64324   9.955  10.420   8.915  0.1110 -0.8781 -1.1221
  477MOL0     C64325  10.474   9.943   9.051  0.8938 -0.1531 -0.0564
  477MOL0     C64326  10.601   9.912   9.066 -0.4852 -0.9755 -0.1335
  477MOL0     C64327  10.692   9.960   8.949 -1.3493 -0.5986 -0.1139
  477MOL0     H64328  11.118   9.963   9.025  3.5747 -1.2091 -0.7738
  477MOL0     H64329  11.345   9.927   9.104  1.5186 -2.2700  1.1386
  477MOL0     H64330  11.527   9.821   9.204 -1.2602 -1.6297  1.6579
  477MOL0     H64331  11.549   9.989   9.267 -2.6484 -0.8571  3.1354
  477MOL0     H64332  11.668   9.744   9.413  0.6353 -0.0019 -1.0444
  477MOL0     H64333  11.647   9.904   9.466 -0.4512  2.1165 -1.3641
  477MOL0     H64334  11.786   9.983   9.278 -1.9954  1.3257  2.6287
  477MOL0     H64335  11.804   9.821   9.225  1.3550  0.6484  0.1220
  477MOL0     H64336  11.892   9.908   9.499  0.2333 -2.9488  1.3465
  477MOL0     H64337  11.917   9.750   9.426 -0.0542 -0.5232 -1.1044
  477MOL0     H64338  12.067   9.840   9.249  2.1082  1.0015 -0.3627
  477MOL0     H64339  12.044   9.997   9.310 -0.8748 -0.3268  0.1314
  477MOL0     H64340  12.141   9.954   9.524 -1.7367  0.9445 -1.2270
  477MOL0     H64341  12.155   9.783   9.485  0.0747 -0.6860  0.4441
  477MOL0     H64342  12.353   9.929   9.465 -2.6324  1.5200  1.7522
  477MOL0     H64343  12.279   9.980   9.305  0.5066  0.5380  0.3326
  477MOL0     H64344  12.385   9.706   9.397 -3.1669 -3.5558 -0.1204
  477MOL0     H64345  12.276   9.718   9.265 -0.1633  1.0708 -0.4162
  477MOL0     H64346  12.559   9.969   9.316 -1.4867  0.9573  0.6003
  477MOL0     H64347  12.756   9.991   8.978  0.2862 -2.5420 -0.9425
  477MOL0     H64348  12.733  10.063   9.132 -2.7995 -0.3622  0.7284
  477MOL0     H64349  12.935   9.978   9.205 -1.4023 -0.1352  0.2875
  477MOL0     H64350  12.887   9.812   9.159 -0.9883 -1.2428 -0.6003
  477MOL0     H64351  12.997  10.012   8.953 -0.2955  0.3877  0.4756
  477MOL0     H64352  12.978   9.834   8.942 -1.0197  1.0824 -0.1616
  477MOL0     H64353  13.152   9.785   9.108 -0.7288  0.1608  0.9578
  477MOL0     H64354  13.165   9.955   9.157 -0.5576 -1.3040  0.6336
  477MOL0     H64355  13.390   9.843   8.799  2.9205  1.9229 -1.3267
  477MOL0     H64356  13.625   9.708   8.820 -1.7480  0.9105 -1.9526
  477MOL0     H64357  14.014   9.522   9.089  0.5446  1.1648  1.3122
  477MOL0     H64358  14.152   9.361   9.148 -0.8495 -1.5213 -0.9764
  477MOL0     H64359  14.268   9.044   9.303 -0.0049 -0.8985  0.9534
  477MOL0     H64360  14.238   9.171   9.195 -0.9760 -1.5840 -1.0573
  477MOL0     H64361  14.277   9.330   9.411 -1.8326 -1.1412  1.8708
  477MOL0     H64362  14.303   9.170   9.491 -2.0198  0.5173  0.4292
  477MOL0     H64363  14.501   9.312   9.425 -1.0808 -1.8925  2.4997
  477MOL0     H64364  14.514   9.150   9.385 -1.1296 -1.4622 -2.2993
  477MOL0     H64365  14.440   9.385   9.224  0.3018 -0.1614  1.1952
  477MOL0     H64366  14.443   9.222   9.138 -1.3917 -1.4156  1.4754
  477MOL0     H64367  14.692   9.214   9.199  0.4531 -0.4727  2.1429
  477MOL0     H64368  14.696   9.370   9.271 -1.6690  1.3136  0.4528
  477MOL0     H64369  14.599   9.456   9.059 -3.8576 -2.4361 -1.1628
  477MOL0     H64370  14.765   9.405   9.056 -0.9543  1.3972 -0.9329
  477MOL0     H64371  14.527   9.268   8.928  0.5224  1.3230 -5.9460
  477MOL0     H64372  14.676   9.180   8.964 -0.7267 -1.1780  0.0388
  477MOL0     H64373  14.645   9.309   8.727  0.4562  1.8882 -1.2530
  477MOL0     H64374  14.695   9.454   8.822 -0.3969 -0.2605  0.7370
  477MOL0     H64375  13.872   9.196   9.426  2.5523 -1.6242 -0.6834
  477MOL0     H64376  13.711   9.386   9.365  1.0605 -3.9638  3.3386
  477MOL0     H64377  13.563   9.731   9.253  1.3564  0.1301 -0.0393
  477MOL0     H64378  13.357   9.830   9.218 -2.1315 -1.6123 -0.9786
  477MOL0     H64379  11.204   9.842   9.493  1.1468 -0.7429  0.1241
  477MOL0     H64380  10.961   9.859   9.414  1.1492 -0.6166  0.8520
  477MOL0     H64381  10.582   9.784   9.386 -1.1801  0.0903  0.3720
  477MOL0     H64382  10.361   9.857   9.357 -2.5092 -0.4228 -1.9097
  477MOL0     H64383  10.201  10.021   9.321  2.9146  0.4750 -0.8749
  477MOL0     H64384  10.150   9.869   9.279  0.5800  0.6938  2.0945
  477MOL0     H64385   9.962  10.033   9.274  0.6601 -2.3439  1.0995
  477MOL0     H64386   9.986   9.955   9.111  0.1321 -0.7022  0.2344
  477MOL0     H64387  10.127  10.175   9.062 -0.1718  4.2026  1.1115
  477MOL0     H64388  10.071  10.233   9.208  4.0622 -3.0092  0.6933
  477MOL0     H64389   9.894  10.122   8.983  0.5743 -2.8582  3.3082
  477MOL0     H64390   9.833  10.212   9.122 -0.1974 -1.0872 -0.6891
  477MOL0     H64391   9.989  10.512   8.870 -0.2121 -0.8783 -1.3760
  477MOL0     H64392  10.437   9.986   8.958 -0.4855 -0.6370  0.2432
  477MOL0     H64393  10.715  10.063   8.976  1.0298 -1.2891  0.7835
  477MOL0     H64394  10.782   9.899   8.935 -1.1052 -0.1127 -0.7187
  477MOL0     H64395  10.640   9.961   8.853  0.6359 -3.8847 -1.4152
  478MOL0     O64396   4.061   7.746   5.303 -0.0604 -0.2931  0.5685
  478MOL0     C64397   4.037   7.774   5.415  0.2415  0.1333 -0.2787
  478MOL0     O64398   4.123   7.745   5.515 -0.4738  0.0840  0.3214
  478MOL0     C64399   4.260   7.746   5.492  0.9621  0.4799  0.3739
  478MOL0     C64400   4.338   7.653   5.554 -0.2977  0.1127  0.0053
  478MOL0     C64401   4.478   7.650   5.528  0.5925  0.1209 -0.6257
  478MOL0     C64402   4.541   7.744   5.455 -0.0965  0.4536  0.5081
  478MOL0     O64403   4.682   7.738   5.451 -0.1677 -0.2407 -0.1002
  478MOL0     C64404   4.753   7.844   5.383  0.1883  0.2412  0.3116
  478MOL0     C64405   4.903   7.816   5.410  0.8893  0.5484 -0.3924
  478MOL0     C64406   4.952   7.682   5.348  0.2327 -0.1211 -0.3573
  478MOL0     C64407   4.924   7.671   5.200  0.5904  0.4037  0.5473
  478MOL0     C64408   5.005   7.567   5.120  0.0673 -0.3134 -0.3381
  478MOL0     C64409   5.152   7.603   5.107 -0.4022  0.6734  0.1872
  478MOL0     C64410   5.244   7.491   5.041  0.1817  0.2107 -0.4473
  478MOL0     C64411   5.251   7.487   4.887 -0.4710 -0.8729 -0.9663
  478MOL0     N64412   5.347   7.386   4.839  0.4090  0.2818  0.1841
  478MOL0     C64413   5.479   7.379   4.860 -0.1452 -0.6978  0.4704
  478MOL0     C64414   5.516   7.257   4.829  0.2057  0.0414 -0.1129
  478MOL0     C64415   5.650   7.190   4.820 -0.1922  0.1984 -0.3942
  478MOL0     C64416   5.726   7.221   4.696  0.2379 -0.3671  0.1595
  478MOL0     C64417   5.867   7.151   4.703  0.8590 -0.7949 -0.2153
  478MOL0     C64418   5.927   7.140   4.565 -0.7716 -0.8416 -0.7426
  478MOL0     O64419   6.068   7.148   4.594  0.5961 -0.1090 -0.5956
  478MOL0     C64420   6.149   7.144   4.491  0.1090 -1.0036  0.1018
  478MOL0     C64421   6.280   7.186   4.518 -0.7233 -0.1052  0.3305
  478MOL0     C64422   6.378   7.172   4.419 -0.9388  0.8604  0.1927
  478MOL0     C64423   6.366   7.104   4.301 -0.3801  0.4820  0.0919
  478MOL0     C64424   6.476   7.082   4.200 -0.7130  0.4893  0.7740
  478MOL0     O64425   6.436   7.090   4.067 -0.1927 -0.0547  0.3800
  478MOL0     C64426   6.536   7.106   3.975 -1.0590 -0.3729 -0.3831
  478MOL0     C64427   6.531   7.027   3.865  0.8770 -0.6072 -0.2411
  478MOL0     C64428   6.631   7.024   3.769 -0.6975 -0.4723 -0.0040
  478MOL0     C64429   6.737   7.114   3.767  0.3348  0.4232  0.6142
  478MOL0     O64430   6.820   7.129   3.655  0.1934 -0.4998  0.3302
  478MOL0     C64431   6.955   7.175   3.668 -0.8035 -0.8781  0.7316
  478MOL0     C64432   7.047   7.105   3.570 -0.4154 -1.0514  0.6813
  478MOL0     C64433   7.180   7.174   3.555  0.3859  0.3311  0.3626
  478MOL0     C64434   7.248   7.194   3.689 -0.0856  0.0174  0.4332
  478MOL0     C64435   7.396   7.229   3.665  0.4013  0.0813  0.3551
  478MOL0     C64436   7.425   7.352   3.578 -0.2708  0.6845  0.1928
  478MOL0     C64437   7.576   7.362   3.551 -0.7797  1.2041  0.4030
  478MOL0     C64438   7.615   7.492   3.483 -0.3292  0.0045 -0.0467
  478MOL0    Cl64439   7.602   7.622   3.605 -0.1013  0.0930 -0.2732
  478MOL0     C64440   6.749   7.205   3.880 -0.0731 -0.1008  0.1399
  478MOL0     C64441   6.645   7.200   3.979  0.8602 -0.5600  0.0477
  478MOL0     O64442   6.587   7.064   4.239  0.1962  0.5487  0.1348
  478MOL0     C64443   6.226   7.065   4.270 -1.1468  0.7584 -0.0672
  478MOL0     C64444   6.123   7.093   4.366  0.2714  0.3935  0.2279
  478MOL0     N64445   5.399   7.182   4.791 -0.6821 -0.0613 -0.4432
  478MOL0     N64446   5.303   7.261   4.792  0.1091 -0.0022 -0.4147
  478MOL0     C64447   4.464   7.841   5.396  0.0812  0.0838  0.4172
  478MOL0     C64448   4.323   7.845   5.419 -0.2086  0.4881  0.6526
  478MOL0     C64449   3.907   7.828   5.460 -0.0744  0.1397 -0.6028
  478MOL0     C64450   3.888   7.836   5.602  0.1943  0.6117  0.2279
  478MOL0     C64451   3.764   7.888   5.649 -0.5462 -0.4563 -0.3320
  478MOL0     C64452   3.663   7.917   5.563  0.5740 -0.5361  0.0325
  478MOL0     O64453   3.537   7.955   5.607  0.4221  0.3719  0.3042
  478MOL0     C64454   3.477   7.884   5.720 -0.0859 -0.7623 -0.2864
  478MOL0     C64455   3.332   7.915   5.729 -0.2314 -0.8514  0.2245
  478MOL0     C64456   3.246   7.808   5.643  0.2622  0.1642  0.1396
  478MOL0     C64457   3.108   7.867   5.602 -0.1034 -0.3141  0.2057
  478MOL0     C64458   3.028   7.909   5.716  0.4220  0.2359  0.3667
  478MOL0     C64459   2.975   7.949   5.820  0.6530 -1.3385  0.0602
  478MOL0     C64460   3.681   7.899   5.428  0.4670 -0.4090  0.2606
  478MOL0     C64461   3.801   7.870   5.371  0.3345  0.4680 -0.0789
  478MOL0     C64462   3.812   7.868   5.224 -0.2705  0.2663  0.6667
  478MOL0     H64463   4.299   7.579   5.623  0.4298 -0.1487  0.1465
  478MOL0     H64464   4.523   7.574   5.591 -1.0218  0.6844  1.2892
  478MOL0     H64465   4.728   7.847   5.276  2.4943 -0.2886 -0.3183
  478MOL0     H64466   4.733   7.940   5.432  1.4263  0.2081  0.9261
  478MOL0     H64467   4.922   7.809   5.518  3.4022  1.3244 -0.7172
  478MOL0     H64468   4.965   7.893   5.363 -1.2468  0.6350 -3.3378
  478MOL0     H64469   4.910   7.594   5.398 -0.1339 -0.3301 -1.0220
  478MOL0     H64470   5.059   7.677   5.371 -0.2423 -0.7491  2.0280
  478MOL0     H64471   4.819   7.644   5.191  0.3483  1.3313  0.5222
  478MOL0     H64472   4.934   7.768   5.150  3.1094 -0.0986 -0.0571
  478MOL0     H64473   4.994   7.466   5.160 -0.0129 -0.2477 -0.1926
  478MOL0     H64474   4.967   7.554   5.019 -0.6241  0.4137 -0.1795
  478MOL0     H64475   5.177   7.697   5.057 -1.9274  1.6400  1.1849
  478MOL0     H64476   5.175   7.615   5.213  0.4944  0.0926  0.0792
  478MOL0     H64477   5.203   7.398   5.083 -0.7710  0.3983 -0.9245
  478MOL0     H64478   5.343   7.499   5.087 -0.0866  2.4011 -0.1625
  478MOL0     H64479   5.148   7.475   4.852 -1.4552 -1.2679  1.8548
  478MOL0     H64480   5.278   7.584   4.843 -0.6478 -0.4546 -0.1808
  478MOL0     H64481   5.553   7.447   4.900  0.2333 -1.0371  0.3446
  478MOL0     H64482   5.724   7.223   4.893  0.2370 -2.2468  0.3697
  478MOL0     H64483   5.638   7.081   4.828 -2.1012  0.2904 -1.3944
  478MOL0     H64484   5.684   7.179   4.604  3.2254 -0.7469 -1.1491
  478MOL0     H64485   5.735   7.330   4.707 -2.9440  0.0975 -0.5938
  478MOL0     H64486   5.867   7.049   4.741  2.2998 -2.1425 -3.4499
  478MOL0     H64487   5.930   7.209   4.771 -1.6735 -0.2001  1.8034
  478MOL0     H64488   5.878   7.205   4.492 -0.4969 -2.5287 -2.5050
  478MOL0     H64489   5.908   7.039   4.528 -0.6295 -0.2798 -2.4023
  478MOL0     H64490   6.312   7.220   4.616  1.1451 -1.2276  0.1590
  478MOL0     H64491   6.475   7.203   4.456 -0.4503  0.9801 -1.1305
  478MOL0     H64492   6.438   6.969   3.868  0.3972  0.1778  1.6530
  478MOL0     H64493   6.626   6.943   3.697  1.9539  0.5410 -1.4483
  478MOL0     H64494   6.967   7.281   3.644  1.4501 -1.3790 -0.7389
  478MOL0     H64495   6.993   7.160   3.769 -2.2249 -0.3092  1.3640
  478MOL0     H64496   7.077   7.010   3.614  0.7679 -0.7227  0.6196
  478MOL0     H64497   6.997   7.081   3.476 -1.1427 -0.5953  0.9362
  478MOL0     H64498   7.243   7.115   3.487  1.8509 -1.2396  2.9308
  478MOL0     H64499   7.171   7.276   3.515  0.6092 -0.3199 -1.4691
  478MOL0     H64500   7.238   7.117   3.766  3.0611 -0.7087  0.2317
  478MOL0     H64501   7.204   7.284   3.734 -0.1933  0.8524 -1.2490
  478MOL0     H64502   7.438   7.142   3.613 -0.2987  0.9448 -1.7428
  478MOL0     H64503   7.444   7.235   3.763 -1.1513 -0.9097  1.2336
  478MOL0     H64504   7.369   7.348   3.484 -0.1379  1.0993  0.0941
  478MOL0     H64505   7.385   7.434   3.637 -1.3380  2.1149 -2.3659
  478MOL0     H64506   7.610   7.285   3.481 -1.7064  0.1770  1.0515
  478MOL0     H64507   7.622   7.343   3.648  0.4966  3.2637  0.2662
  478MOL0     H64508   7.720   7.481   3.456 -0.7256 -0.6678 -1.4529
  478MOL0     H64509   7.548   7.504   3.397 -0.2314 -1.8287 -0.4338
  478MOL0     H64510   6.830   7.274   3.902 -0.6980 -0.0882  2.7050
  478MOL0     H64511   6.656   7.272   4.060 -2.5633  1.1317 -0.8195
  478MOL0     H64512   6.185   7.026   4.177 -5.0926  4.5361 -0.2347
  478MOL0     H64513   6.025   7.052   4.341  0.6611 -0.5175  0.1436
  478MOL0     H64514   4.503   7.916   5.329 -1.3728  0.4105 -0.0734
  478MOL0     H64515   4.270   7.926   5.369  1.9352  1.1846 -0.6500
  478MOL0     H64516   3.961   7.799   5.674  0.9638  1.2266 -0.2249
  478MOL0     H64517   3.752   7.908   5.754  1.1196  0.9903 -0.3757
  478MOL0     H64518   3.518   7.926   5.812 -0.8769 -1.0596  0.2110
  478MOL0     H64519   3.502   7.777   5.725  1.4229 -0.5768 -2.3229
  478MOL0     H64520   3.322   8.017   5.691  1.2115  0.9815  4.1700
  478MOL0     H64521   3.299   7.916   5.833  2.1048 -3.4996  1.0959
  478MOL0     H64522   3.219   7.720   5.703 -1.5093  0.9632  0.5592
  478MOL0     H64523   3.309   7.780   5.558  0.0363  0.8241 -0.2537
  478MOL0     H64524   3.125   7.951   5.533  2.5112 -0.4820  0.5219
  478MOL0     H64525   3.050   7.793   5.546 -2.2488  0.3818  1.4100
  478MOL0     H64526   2.930   7.989   5.908  0.5392  0.8728 -0.9345
  478MOL0     H64527   3.598   7.931   5.366  0.5680  1.1531  0.8786
  478MOL0     H64528   3.747   7.939   5.172  2.0120  0.6656 -1.9283
  478MOL0     H64529   3.908   7.904   5.186  0.5086 -3.1685 -1.0588
  478MOL0     H64530   3.799   7.770   5.178  0.5832  0.8796 -0.9880
  479MOL0     O64531   1.457   7.473   1.893  0.1925 -0.4776  0.1739
  479MOL0     C64532   1.508   7.509   1.786 -0.1222  0.5376 -0.7932
  479MOL0     O64533   1.459   7.596   1.700  0.7602  0.1575 -0.2091
  479MOL0     C64534   1.325   7.643   1.707 -0.5580 -0.2892  0.1912
  479MOL0     C64535   1.301   7.764   1.635 -0.5739 -0.8317 -0.2174
  479MOL0     C64536   1.176   7.829   1.638 -0.6894  0.0370 -0.2278
  479MOL0     C64537   1.071   7.767   1.708 -0.6008 -0.8993  0.3069
  479MOL0     O64538   0.941   7.809   1.713  0.3248 -0.9146  0.3867
  479MOL0     C64539   0.895   7.911   1.622 -0.0348  0.0628 -0.0470
  479MOL0     C64540   0.746   7.908   1.612 -0.2415  1.4150  0.6309
  479MOL0     C64541   0.672   7.956   1.740 -0.2349 -0.6183  0.3157
  479MOL0     C64542   0.525   7.960   1.711  0.1819 -0.7116  0.3501
  479MOL0     C64543   0.455   8.044   1.810  0.1433 -0.7144  0.0872
  479MOL0     C64544   0.309   8.075   1.770  0.8603  0.7646  0.5457
  479MOL0     C64545   0.243   8.167   1.883 -0.4374  0.6677 -0.3995
  479MOL0     C64546   0.194   8.083   2.003  0.9194 -0.1598  0.1264
  479MOL0     N64547   0.064   8.016   1.998 -0.3079 -0.2519 -0.5744
  479MOL0     C64548   0.016   7.926   1.903 -0.1532  0.3549  0.3469
  479MOL0     C64549  -0.105   7.898   1.939  0.4112 -0.0818  0.1078
  479MOL0     C64550  -0.194   7.803   1.875  0.4770  0.2255  0.5324
  479MOL0     C64551  -0.260   7.860   1.753  0.6229  0.3376  0.3989
  479MOL0     C64552  -0.307   7.749   1.655 -0.9488 -0.6086 -0.0365
  479MOL0     C64553  -0.200   7.735   1.543 -0.6781 -1.2494 -0.3938
  479MOL0     O64554  -0.065   7.698   1.592 -0.2784  0.5586  0.2880
  479MOL0     C64555   0.047   7.703   1.515  0.1119 -0.6074 -0.2897
  479MOL0     C64556   0.168   7.697   1.582 -0.4724 -0.0946  0.1670
  479MOL0     C64557   0.279   7.679   1.508  0.4993 -0.0086  0.0457
  479MOL0     C64558   0.280   7.674   1.367 -0.8852  0.5150 -0.2308
  479MOL0     C64559   0.410   7.655   1.299  0.0803  0.5606  0.3788
  479MOL0     O64560   0.519   7.651   1.383 -0.7814  0.1417  0.0169
  479MOL0     C64561   0.645   7.674   1.332 -0.9297  0.3091  1.2669
  479MOL0     C64562   0.697   7.699   1.205 -0.4948  0.1342  0.6932
  479MOL0     C64563   0.831   7.689   1.175  0.1703 -0.0671 -0.7850
  479MOL0     C64564   0.927   7.657   1.269 -1.3348  0.6342 -0.5058
  479MOL0     O64565   1.062   7.669   1.225 -0.1140  0.5376 -0.7272
  479MOL0     C64566   1.158   7.592   1.297  0.8322  0.5793 -1.2592
  479MOL0     C64567   1.291   7.577   1.226  0.2412  0.2446  0.1180
  479MOL0     C64568   1.400   7.520   1.325  0.0727  0.1331 -0.0559
  479MOL0     C64569   1.522   7.478   1.249 -0.2472  0.8821 -0.7277
  479MOL0     C64570   1.597   7.596   1.199  0.2341  0.2287 -0.4110
  479MOL0     C64571   1.736   7.547   1.141 -0.5606 -0.2508  1.1829
  479MOL0     C64572   1.823   7.665   1.078  0.4369  0.6049 -0.4724
  479MOL0     C64573   1.733   7.757   0.983 -0.1601 -0.4544  0.6195
  479MOL0    Cl64574   1.821   7.877   0.894 -0.2385  0.2524 -0.1409
  479MOL0     C64575   0.884   7.640   1.401 -0.3377 -0.4012  0.3279
  479MOL0     C64576   0.747   7.639   1.419 -0.1156 -0.9772  0.1895
  479MOL0     O64577   0.403   7.648   1.171 -0.3591 -0.2000  0.0676
  479MOL0     C64578   0.165   7.689   1.297  0.3154 -1.0280 -0.1876
  479MOL0     C64579   0.043   7.704   1.372 -0.1129 -0.3394 -0.1752
  479MOL0     N64580  -0.156   7.987   2.037 -0.6786  0.6651 -0.6534
  479MOL0     N64581  -0.047   8.051   2.066  0.2073 -0.4609 -0.0302
  479MOL0     C64582   1.095   7.650   1.778 -0.3754 -0.2899  0.2769
  479MOL0     C64583   1.218   7.585   1.781 -0.6935 -0.8983 -1.0924
  479MOL0     C64584   1.648   7.466   1.751  0.1526  0.0277  0.3106
  479MOL0     C64585   1.714   7.549   1.661  0.7928 -0.7250  0.3847
  479MOL0     C64586   1.846   7.552   1.641 -0.2872 -0.2418  0.4875
  479MOL0     C64587   1.926   7.455   1.695 -1.1062  0.1159 -0.4863
  479MOL0     O64588   2.062   7.459   1.711  0.0746  0.3501  0.0204
  479MOL0     C64589   2.104   7.543   1.817  0.0206  0.5806 -0.0455
  479MOL0     C64590   2.137   7.686   1.771 -0.4710 -0.4571 -0.1392
  479MOL0     C64591   2.246   7.701   1.672  0.5215 -0.1685 -0.1011
  479MOL0     C64592   2.382   7.718   1.735 -0.0221  0.6222  0.0719
  479MOL0     C64593   2.451   7.596   1.791  0.9230 -0.1885  0.3998
  479MOL0     C64594   2.502   7.497   1.841 -0.4442  0.7077  0.2185
  479MOL0     C64595   1.863   7.353   1.770  0.3756 -0.2918  1.1709
  479MOL0     C64596   1.723   7.358   1.799 -0.3883 -0.1864 -0.5593
  479MOL0     C64597   1.665   7.255   1.901  0.3802 -0.3573 -1.1575
  479MOL0     H64598   1.385   7.816   1.590 -0.6778 -0.7492 -0.3159
  479MOL0     H64599   1.175   7.918   1.577  4.4724 -0.7284 -1.8882
  479MOL0     H64600   0.931   8.009   1.656  1.8834  0.2256 -2.2697
  479MOL0     H64601   0.936   7.894   1.522 -1.2396 -0.9340 -0.3935
  479MOL0     H64602   0.703   7.810   1.589 -3.2031  2.3624  1.5745
  479MOL0     H64603   0.709   7.967   1.527 -2.1182  1.1603  1.2239
  479MOL0     H64604   0.705   8.053   1.778  0.3967 -1.3930  1.8409
  479MOL0     H64605   0.687   7.895   1.829  0.8788  0.3640  0.8222
  479MOL0     H64606   0.509   8.015   1.618 -0.6227 -1.1189  0.2466
  479MOL0     H64607   0.488   7.858   1.701  0.8576 -0.8592 -0.8598
  479MOL0     H64608   0.457   7.992   1.907  0.5245  0.1746  0.5646
  479MOL0     H64609   0.512   8.136   1.827 -0.4985 -0.4864  1.1143
  479MOL0     H64610   0.311   8.131   1.676 -3.4821 -1.3572 -1.1050
  479MOL0     H64611   0.239   7.996   1.742  0.0021  2.1444 -1.4896
  479MOL0     H64612   0.157   8.224   1.846  1.1945  2.0185 -2.3437
  479MOL0     H64613   0.313   8.247   1.911 -1.1512  0.4534  2.2432
  479MOL0     H64614   0.263   8.006   2.039  0.6387 -0.8406 -0.7585
  479MOL0     H64615   0.193   8.160   2.081 -2.3548  0.3588 -0.2850
  479MOL0     H64616   0.078   7.874   1.830 -1.4321 -0.1249 -0.4140
  479MOL0     H64617  -0.126   7.725   1.840 -0.9609 -0.1645 -1.5615
  479MOL0     H64618  -0.274   7.760   1.936  0.7826  0.3327  1.0169
  479MOL0     H64619  -0.352   7.914   1.775  1.6073  2.0068  0.5630
  479MOL0     H64620  -0.188   7.928   1.706  1.3785 -0.9959 -0.4456
  479MOL0     H64621  -0.409   7.767   1.622 -1.3381 -1.1207  0.8567
  479MOL0     H64622  -0.317   7.658   1.716  0.0367 -1.1303 -0.6074
  479MOL0     H64623  -0.181   7.830   1.493 -1.7210  0.0327  1.5019
  479MOL0     H64624  -0.251   7.669   1.473 -2.8242 -0.7140  0.5783
  479MOL0     H64625   0.169   7.686   1.690 -0.3480 -1.8128  0.0204
  479MOL0     H64626   0.370   7.667   1.567  1.3987  0.1582 -1.2534
  479MOL0     H64627   0.642   7.738   1.120  1.5421  2.2882  0.2288
  479MOL0     H64628   0.864   7.712   1.074  2.0237  0.1340 -0.1818
  479MOL0     H64629   1.176   7.659   1.381 -0.0711  0.7967 -1.2301
  479MOL0     H64630   1.119   7.495   1.330  1.1703  1.4529  1.9878
  479MOL0     H64631   1.286   7.507   1.142  0.9669  1.4944 -0.9996
  479MOL0     H64632   1.336   7.671   1.192 -1.1920  2.3474  3.5244
  479MOL0     H64633   1.415   7.583   1.413  0.0017 -0.3557  0.3094
  479MOL0     H64634   1.352   7.431   1.366 -1.4325 -0.0781 -2.1121
  479MOL0     H64635   1.494   7.418   1.162 -1.1408  1.6138 -0.9544
  479MOL0     H64636   1.576   7.423   1.326 -2.5490  2.4594  2.2408
  479MOL0     H64637   1.622   7.672   1.274 -1.0477  1.9927 -1.6755
  479MOL0     H64638   1.543   7.649   1.120  1.5686 -0.1815 -1.6235
  479MOL0     H64639   1.795   7.482   1.206  0.6053 -0.9145 -0.4576
  479MOL0     H64640   1.720   7.490   1.049  0.6898  1.3247 -0.0868
  479MOL0     H64641   1.904   7.628   1.015  1.1346  1.8669 -0.3472
  479MOL0     H64642   1.868   7.731   1.152 -0.4101  2.8001 -1.7983
  479MOL0     H64643   1.693   7.690   0.906  1.1373 -1.1179  0.4824
  479MOL0     H64644   1.650   7.804   1.036  0.2084  2.7083 -1.3236
  479MOL0     H64645   0.946   7.632   1.489 -0.1007  0.8129  0.2800
  479MOL0     H64646   0.714   7.613   1.519  0.2286 -1.6144  0.1428
  479MOL0     H64647   0.160   7.691   1.189  1.7782 -0.6536 -0.2685
  479MOL0     H64648  -0.050   7.699   1.317 -0.9402 -0.0199  1.1601
  479MOL0     H64649   1.010   7.606   1.829 -1.5936  1.2586 -0.3488
  479MOL0     H64650   1.236   7.488   1.826 -0.3307 -0.6603 -0.7187
  479MOL0     H64651   1.669   7.641   1.627  1.9522  0.2544  1.4151
  479MOL0     H64652   1.880   7.637   1.582 -2.4915  0.3880  0.0337
  479MOL0     H64653   2.194   7.495   1.857 -0.5077 -0.4740 -0.0614
  479MOL0     H64654   2.033   7.543   1.900 -0.2206 -2.7859 -0.1002
  479MOL0     H64655   2.155   7.753   1.856  0.0549  2.1872 -2.1910
  479MOL0     H64656   2.046   7.716   1.718 -1.0229 -3.0279 -0.8064
  479MOL0     H64657   2.222   7.794   1.621 -1.1689 -0.0216  0.8993
  479MOL0     H64658   2.239   7.608   1.613  0.0217 -1.1472  1.4425
  479MOL0     H64659   2.448   7.753   1.656 -0.0083 -0.2857 -0.3284
  479MOL0     H64660   2.371   7.785   1.821 -0.8584 -0.9687  1.2794
  479MOL0     H64661   2.551   7.412   1.885 -1.1551 -1.7904 -3.4265
  479MOL0     H64662   1.923   7.270   1.805  0.9180  0.3671  1.8186
  479MOL0     H64663   1.740   7.190   1.946 -0.1947 -0.3463 -0.1455
  479MOL0     H64664   1.613   7.313   1.977  1.1799 -1.4355  0.2567
  479MOL0     H64665   1.591   7.183   1.863 -0.9707  0.1826  0.3458
  480MOL0     O64666  10.429   5.980   0.551 -0.2468  0.3217 -0.3112
  480MOL0     C64667  10.378   5.876   0.507 -0.0859  0.5139  0.9707
  480MOL0     O64668  10.460   5.768   0.461 -0.7284  0.5178 -0.1754
  480MOL0     C64669  10.590   5.753   0.496 -0.6703 -0.0469  0.1232
  480MOL0     C64670  10.647   5.802   0.614 -0.0939 -0.1175  0.5341
  480MOL0     C64671  10.783   5.787   0.635  0.3647  0.1110 -0.2557
  480MOL0     C64672  10.864   5.722   0.547 -0.1572  0.7049 -0.8542
  480MOL0     O64673  10.988   5.689   0.582  0.2779 -0.4096 -0.4976
  480MOL0     C64674  11.090   5.784   0.544 -0.6716 -0.3452  0.2842
  480MOL0     C64675  11.227   5.743   0.611 -0.4596 -0.6337 -0.6669
  480MOL0     C64676  11.334   5.867   0.598  1.1742 -0.1738 -0.7607
  480MOL0     C64677  11.474   5.828   0.645 -1.2768 -0.0996 -0.6593
  480MOL0     C64678  11.571   5.946   0.629  0.1621  0.8011 -1.4372
  480MOL0     C64679  11.709   5.921   0.697  0.2316  1.2935  0.3677
  480MOL0     C64680  11.826   6.009   0.641 -0.2036 -1.1344  0.3460
  480MOL0     C64681  11.869   5.973   0.494  0.1904  0.0786 -1.1070
  480MOL0     N64682  11.950   5.850   0.485  0.6335 -0.3788 -0.4839
  480MOL0     C64683  12.080   5.850   0.520  0.6554 -1.0628 -0.5247
  480MOL0     C64684  12.112   5.718   0.504  0.0988 -0.4029 -0.4049
  480MOL0     C64685  12.247   5.655   0.521 -0.1392  0.0933  0.3866
  480MOL0     C64686  12.268   5.557   0.640 -0.2779 -0.3117 -0.4517
  480MOL0     C64687  12.282   5.632   0.778  0.3073  0.1117  0.4868
  480MOL0     C64688  12.155   5.623   0.871  0.9215  0.0771  0.2688
  480MOL0     O64689  12.038   5.649   0.788  0.0971 -0.1280  0.2504
  480MOL0     C64690  11.915   5.620   0.845  0.2602 -0.0803 -0.1159
  480MOL0     C64691  11.815   5.566   0.762  0.1857 -0.3486 -0.5069
  480MOL0     C64692  11.691   5.525   0.822  0.3749  0.1131 -0.0118
  480MOL0     C64693  11.664   5.559   0.959 -0.1969  0.4654  0.8179
  480MOL0     C64694  11.538   5.522   1.027  0.1940 -0.1349  0.4398
  480MOL0     O64695  11.438   5.484   0.949  0.7844  0.6154 -0.6118
  480MOL0     C64696  11.310   5.464   1.000 -0.1358 -0.2159 -0.1424
  480MOL0     C64697  11.251   5.524   1.111 -0.1225  0.1330 -0.4917
  480MOL0     C64698  11.123   5.506   1.153  0.0335  0.0908 -0.9100
  480MOL0     C64699  11.039   5.426   1.084  1.1429  0.5630 -0.9987
  480MOL0     O64700  10.906   5.402   1.109  0.2611  0.0961 -0.2829
  480MOL0     C64701  10.866   5.403   1.240  0.3436  0.1568  0.8944
  480MOL0     C64702  10.726   5.337   1.252 -0.0024  0.1139 -0.4353
  480MOL0     C64703  10.612   5.422   1.194 -0.1437  0.1108 -0.3389
  480MOL0     C64704  10.479   5.348   1.186 -0.1069  0.9678 -0.2766
  480MOL0     C64705  10.388   5.356   1.309  0.0093 -0.7591  0.1954
  480MOL0     C64706  10.255   5.276   1.297 -0.1010 -0.2078 -0.0168
  480MOL0     C64707  10.147   5.319   1.198 -0.1565  0.6510  0.0021
  480MOL0     C64708  10.061   5.195   1.183 -0.4079 -0.0849 -0.1486
  480MOL0    Cl64709   9.932   5.238   1.073  0.0983 -0.0032  0.0316
  480MOL0     C64710  11.093   5.368   0.957 -0.1140 -0.2884  0.2628
  480MOL0     C64711  11.229   5.385   0.920  0.5394  0.6595 -1.0305
  480MOL0     O64712  11.540   5.515   1.149 -0.7397  0.3056 -0.1125
  480MOL0     C64713  11.773   5.611   1.036  0.0648  0.2641 -0.6743
  480MOL0     C64714  11.892   5.641   0.981 -0.1892  0.0198  0.1999
  480MOL0     N64715  12.002   5.648   0.446  0.0729  0.4521 -0.1316
  480MOL0     N64716  11.903   5.729   0.445  0.4207  0.2084  1.1364
  480MOL0     C64717  10.809   5.681   0.425 -0.3198  0.0576 -0.0118
  480MOL0     C64718  10.672   5.691   0.400  0.8514 -0.4991  0.1616
  480MOL0     C64719  10.230   5.877   0.480  0.5009  0.1722 -0.0764
  480MOL0     C64720  10.140   5.952   0.561  0.0303  1.0742  0.6260
  480MOL0     C64721  10.001   5.952   0.543 -0.1287 -0.7022 -0.2790
  480MOL0     C64722   9.949   5.891   0.432 -0.3618  0.9279 -0.6750
  480MOL0     O64723   9.815   5.912   0.410 -0.5363 -0.7894 -0.3649
  480MOL0     C64724   9.761   5.872   0.283  0.3255  0.0935  0.4213
  480MOL0     C64725   9.772   5.986   0.182  0.0918  0.2041 -0.6335
  480MOL0     C64726   9.715   5.932   0.044  0.6923  0.2300 -0.0247
  480MOL0     C64727   9.572   5.985   0.005  0.4241 -0.5846 -1.0485
  480MOL0     C64728   9.457   5.920   0.064  0.2470 -0.5941 -0.5380
  480MOL0     C64729   9.371   5.878   0.139  0.4175 -0.5052 -0.0380
  480MOL0     C64730  10.028   5.807   0.357 -0.1214 -0.3364  0.0601
  480MOL0     C64731  10.167   5.803   0.378 -0.4319  0.0587 -0.0289
  480MOL0     C64732  10.241   5.708   0.282 -0.0485  0.3698 -0.2883
  480MOL0     H64733  10.582   5.850   0.686  0.0575  0.0842  0.5360
  480MOL0     H64734  10.836   5.824   0.722 -0.3253  1.3677 -0.3475
  480MOL0     H64735  11.105   5.785   0.436 -3.0793  2.5959 -0.1507
  480MOL0     H64736  11.053   5.882   0.574  1.3119  0.7387 -0.6162
  480MOL0     H64737  11.274   5.652   0.572  1.6770 -1.5597  3.4255
  480MOL0     H64738  11.215   5.727   0.719 -1.9931  0.6280 -0.6190
  480MOL0     H64739  11.291   5.946   0.660 -2.4575 -1.4693 -1.3551
  480MOL0     H64740  11.342   5.904   0.495 -0.7577  1.3294 -0.4301
  480MOL0     H64741  11.479   5.779   0.742 -1.0994 -0.0717 -0.6527
  480MOL0     H64742  11.506   5.749   0.576  1.9312  1.8489 -1.6393
  480MOL0     H64743  11.578   5.969   0.522  0.2496  2.2214 -1.1457
  480MOL0     H64744  11.534   6.028   0.691  1.5866  0.9779 -0.7873
  480MOL0     H64745  11.684   5.938   0.802  1.7543  5.6959  0.2337
  480MOL0     H64746  11.728   5.814   0.690 -5.0205  0.0656  0.7923
  480MOL0     H64747  11.917   6.005   0.701 -0.3139  1.2026  0.7636
  480MOL0     H64748  11.786   6.110   0.652 -1.2551 -1.4928 -0.0291
  480MOL0     H64749  11.786   5.957   0.423 -1.7356 -2.9668  1.5402
  480MOL0     H64750  11.924   6.059   0.455  0.7486 -0.4320 -1.4508
  480MOL0     H64751  12.141   5.926   0.568 -2.1060  0.0784  1.4215
  480MOL0     H64752  12.251   5.591   0.432 -1.4337 -0.2711  0.5648
  480MOL0     H64753  12.313   5.741   0.509 -1.9602  1.2344 -2.8469
  480MOL0     H64754  12.188   5.482   0.639 -0.9251  0.3635 -0.3967
  480MOL0     H64755  12.364   5.506   0.628  0.5011  1.0764 -0.3691
  480MOL0     H64756  12.299   5.739   0.763 -0.8404  0.5886  2.1911
  480MOL0     H64757  12.360   5.584   0.839 -2.4644 -2.0914  2.5765
  480MOL0     H64758  12.165   5.691   0.956  0.4211 -0.3752  0.6948
  480MOL0     H64759  12.147   5.521   0.910 -0.7446 -0.0355 -0.2969
  480MOL0     H64760  11.838   5.555   0.656  2.0551 -2.3734  0.0526
  480MOL0     H64761  11.612   5.480   0.764 -1.9700  1.2780  2.0345
  480MOL0     H64762  11.310   5.598   1.165 -1.0195  0.6690 -0.2348
  480MOL0     H64763  11.089   5.563   1.238  1.2394 -0.7466  0.1739
  480MOL0     H64764  10.943   5.346   1.293  0.3249 -3.9962 -2.9150
  480MOL0     H64765  10.849   5.509   1.263  2.6261 -0.0415  4.2651
  480MOL0     H64766  10.739   5.240   1.203  1.7236  0.5986 -0.9957
  480MOL0     H64767  10.702   5.315   1.356  2.7040 -0.8103  0.0762
  480MOL0     H64768  10.601   5.516   1.249  1.0615  1.2662 -1.9863
  480MOL0     H64769  10.639   5.441   1.089 -1.9587 -1.8994 -1.2460
  480MOL0     H64770  10.502   5.243   1.167  2.7196  1.1456  1.6024
  480MOL0     H64771  10.420   5.391   1.104 -2.1100  1.1186  1.1698
  480MOL0     H64772  10.369   5.463   1.315 -0.7923 -0.5917 -3.4068
  480MOL0     H64773  10.443   5.311   1.393 -0.2059  1.9852  1.9426
  480MOL0     H64774  10.293   5.176   1.276  1.7410 -0.0464  2.1566
  480MOL0     H64775  10.213   5.262   1.398  0.2979  1.1267  0.3613
  480MOL0     H64776  10.188   5.349   1.101 -0.0564 -1.4447 -0.6722
  480MOL0     H64777  10.093   5.403   1.241  1.2370  0.7961  1.6200
  480MOL0     H64778  10.118   5.121   1.126 -0.8172  0.2194 -0.9731
  480MOL0     H64779  10.014   5.159   1.275 -1.4141 -2.2677 -1.4347
  480MOL0     H64780  11.032   5.315   0.885 -1.2506 -0.0826  1.0523
  480MOL0     H64781  11.260   5.327   0.833 -0.9924  0.2589 -1.3471
  480MOL0     H64782  11.757   5.633   1.141  0.1569 -1.4844 -0.2650
  480MOL0     H64783  11.965   5.682   1.050 -2.5197  1.9422  1.7120
  480MOL0     H64784  10.878   5.637   0.353  2.4924  3.1587  0.5408
  480MOL0     H64785  10.646   5.636   0.310  0.7070 -0.9343  0.4668
  480MOL0     H64786  10.188   5.999   0.647 -0.3499  2.3328  0.1635
  480MOL0     H64787   9.936   6.018   0.599  0.2514  1.0154 -1.7682
  480MOL0     H64788   9.657   5.843   0.302  0.5800 -1.0819  0.0938
  480MOL0     H64789   9.798   5.782   0.233 -0.5871 -0.5800  0.9235
  480MOL0     H64790   9.869   6.033   0.166 -0.5558  3.3184  3.0299
  480MOL0     H64791   9.708   6.064   0.224  2.8494  0.2641  4.1881
  480MOL0     H64792   9.711   5.823   0.030  0.7887  0.1805  0.3168
  480MOL0     H64793   9.787   5.955  -0.035 -0.3786  2.5318 -0.4105
  480MOL0     H64794   9.565   6.090   0.034 -2.6886 -0.5541 -1.5660
  480MOL0     H64795   9.565   5.980  -0.104 -0.0380 -3.6723 -0.9721
  480MOL0     H64796   9.292   5.844   0.204  1.0936  2.8754  2.8694
  480MOL0     H64797   9.988   5.735   0.285 -1.7561  0.9563 -0.4055
  480MOL0     H64798  10.338   5.742   0.244  1.2148 -1.9498  0.7142
  480MOL0     H64799  10.268   5.621   0.341  1.2153  2.5519  2.6118
  480MOL0     H64800  10.177   5.684   0.196 -0.2966 -2.5589  0.6445
  481MOL0     O64801   4.940   5.506   9.263  0.0559 -0.0040 -0.7931
  481MOL0     C64802   4.889   5.619   9.274 -0.6733  0.5772  0.7336
  481MOL0     O64803   4.949   5.722   9.347  0.6068 -0.4468  0.1997
  481MOL0     C64804   5.068   5.705   9.406  0.3849 -0.3982 -0.0163
  481MOL0     C64805   5.084   5.639   9.531 -0.5909 -0.1102  0.5004
  481MOL0     C64806   5.205   5.639   9.607  0.1413  0.7828  0.1024
  481MOL0     C64807   5.306   5.724   9.566 -0.3191  0.6592  0.6966
  481MOL0     O64808   5.415   5.736   9.647  0.6375 -0.1619  0.6745
  481MOL0     C64809   5.424   5.650   9.770 -0.2835  0.3718  0.8061
  481MOL0     C64810   5.542   5.687   9.845 -0.0625 -0.2681 -0.5876
  481MOL0     C64811   5.672   5.658   9.774  0.4945 -0.3145 -0.1773
  481MOL0     C64812   5.686   5.515   9.734  0.4316 -0.7607  0.2405
  481MOL0     C64813   5.826   5.486   9.685  0.4402 -0.4203  1.0982
  481MOL0     C64814   5.867   5.344   9.695  0.9959  0.8164  0.2154
  481MOL0     C64815   5.998   5.319   9.619  0.4680  0.1961 -0.2830
  481MOL0     C64816   6.039   5.176   9.643  0.1089  0.5006  0.3116
  481MOL0     N64817   6.144   5.138   9.556 -0.6344  0.0639 -0.1465
  481MOL0     C64818   6.130   5.023   9.479  0.1731 -0.0192  0.2112
  481MOL0     C64819   6.256   4.992   9.443 -0.7242 -0.4514  0.4191
  481MOL0     C64820   6.298   4.878   9.358 -0.1353  0.5512 -0.0604
  481MOL0     C64821   6.442   4.862   9.341 -0.2481  0.1199 -0.3789
  481MOL0     C64822   6.503   4.836   9.474  0.5701  0.3710 -0.3997
  481MOL0     C64823   6.643   4.766   9.474  0.3680 -0.1842  0.7338
  481MOL0     O64824   6.731   4.879   9.462 -0.4132  0.2863  0.1180
  481MOL0     C64825   6.859   4.856   9.411  0.7350  0.8805 -0.4286
  481MOL0     C64826   6.909   4.734   9.367  0.1234  1.0494  0.8138
  481MOL0     C64827   7.044   4.715   9.327 -0.7982  0.1134 -0.7188
  481MOL0     C64828   7.139   4.819   9.345  0.1071  0.0058 -0.1459
  481MOL0     C64829   7.287   4.802   9.322 -0.3087 -0.4326  0.9838
  481MOL0     O64830   7.377   4.905   9.337 -0.2562 -0.2108 -0.5021
  481MOL0     C64831   7.511   4.893   9.307 -0.0335 -0.2069 -0.1712
  481MOL0     C64832   7.578   4.795   9.235 -0.4601  0.5664 -0.2367
  481MOL0     C64833   7.723   4.789   9.225 -0.4209 -0.6077 -0.3501
  481MOL0     C64834   7.801   4.887   9.292 -0.2547 -0.1127 -0.2720
  481MOL0     O64835   7.937   4.878   9.300 -0.3968 -0.9383 -0.3983
  481MOL0     C64836   7.992   4.901   9.172 -0.4324  0.2607  0.6614
  481MOL0     C64837   8.139   4.924   9.200 -0.6639  0.0206 -0.7734
  481MOL0     C64838   8.228   4.949   9.079  0.6970 -0.2438 -0.2378
  481MOL0     C64839   8.366   4.994   9.124  0.8119  0.0335  0.6308
  481MOL0     C64840   8.477   4.978   9.027 -0.2703  0.9195  0.4501
  481MOL0     C64841   8.615   5.002   9.095 -0.3782  0.3464 -0.4772
  481MOL0     C64842   8.732   4.939   9.020 -0.0088  0.9791 -0.4026
  481MOL0     C64843   8.759   5.011   8.885  0.2548  0.3217  0.4224
  481MOL0    Cl64844   8.918   4.958   8.838  0.5514  0.3836 -0.1317
  481MOL0     C64845   7.730   4.991   9.363 -0.1914 -0.7496  0.1798
  481MOL0     C64846   7.586   4.994   9.369 -0.4876 -0.1822 -0.5584
  481MOL0     O64847   7.312   4.684   9.296 -0.0536  0.4040  0.5777
  481MOL0     C64848   7.088   4.941   9.395  0.1423 -0.6625  0.3506
  481MOL0     C64849   6.952   4.961   9.419 -0.3862 -0.1939 -0.5591
  481MOL0     N64850   6.336   5.094   9.493  0.1321  0.0480 -0.7199
  481MOL0     N64851   6.275   5.177   9.562  0.4792  0.5917 -0.3181
  481MOL0     C64852   5.299   5.792   9.439 -0.3229 -0.0991  0.4547
  481MOL0     C64853   5.181   5.783   9.367 -0.8079 -0.4177 -0.1287
  481MOL0     C64854   4.766   5.649   9.207  0.5696  0.0979  0.9727
  481MOL0     C64855   4.726   5.785   9.198 -0.1379 -0.0367  0.2631
  481MOL0     C64856   4.610   5.822   9.133 -0.2439 -0.1552 -0.0411
  481MOL0     C64857   4.523   5.721   9.083  0.6767 -0.0696 -0.1172
  481MOL0     O64858   4.418   5.767   9.017 -0.0446  0.2039 -0.4066
  481MOL0     C64859   4.315   5.684   8.968  0.8264  0.5574  0.5001
  481MOL0     C64860   4.342   5.627   8.822 -0.8511 -0.3893  0.8410
  481MOL0     C64861   4.212   5.615   8.735 -0.0818  0.0732  0.4730
  481MOL0     C64862   4.088   5.546   8.811  0.3618 -0.4855  0.1776
  481MOL0     C64863   3.968   5.521   8.727  0.0368 -0.3831 -0.0678
  481MOL0     C64864   3.881   5.523   8.648  0.4648 -0.3499  0.1054
  481MOL0     C64865   4.558   5.591   9.096  0.6171  0.4823 -0.4164
  481MOL0     C64866   4.674   5.551   9.164 -0.1318  0.4249 -0.1845
  481MOL0     C64867   4.696   5.397   9.188 -0.4532 -0.2373 -0.2653
  481MOL0     H64868   4.997   5.583   9.564 -0.1490 -2.0288 -1.3429
  481MOL0     H64869   5.207   5.574   9.694  0.4483  0.9994  0.2602
  481MOL0     H64870   5.342   5.681   9.835  1.1298  4.5132  0.9534
  481MOL0     H64871   5.428   5.542   9.753 -0.4940 -0.2434  3.9698
  481MOL0     H64872   5.544   5.628   9.937  2.3045  0.4588 -0.0890
  481MOL0     H64873   5.526   5.794   9.863 -1.2012 -0.3882 -0.8179
  481MOL0     H64874   5.757   5.674   9.841  0.9292 -1.0127 -0.5413
  481MOL0     H64875   5.687   5.730   9.692 -1.0256  2.1473  1.5803
  481MOL0     H64876   5.679   5.445   9.817 -0.0806 -0.4525  0.4631
  481MOL0     H64877   5.621   5.502   9.647  0.8940  5.0174 -1.4268
  481MOL0     H64878   5.835   5.526   9.584 -0.3213 -2.7258  0.0356
  481MOL0     H64879   5.901   5.535   9.747  1.4048  1.6469 -1.5216
  481MOL0     H64880   5.887   5.321   9.800 -0.6842 -2.3004 -0.0164
  481MOL0     H64881   5.792   5.272   9.660  2.4420  0.6379 -2.9005
  481MOL0     H64882   6.075   5.390   9.647 -0.2890  1.4856 -1.3411
  481MOL0     H64883   5.984   5.336   9.512  2.1231  2.6634 -0.1825
  481MOL0     H64884   6.068   5.147   9.744 -0.8969  2.1481  1.1024
  481MOL0     H64885   5.952   5.118   9.610  0.1511  0.4617  0.2687
  481MOL0     H64886   6.051   4.958   9.441  0.5613 -0.2570 -0.1936
  481MOL0     H64887   6.260   4.787   9.406  2.3372 -0.2097  0.5873
  481MOL0     H64888   6.253   4.884   9.259  1.3424  1.9978 -0.7032
  481MOL0     H64889   6.462   4.781   9.270 -3.6517 -1.0009 -0.2349
  481MOL0     H64890   6.482   4.959   9.312  0.9437 -0.6391 -1.3737
  481MOL0     H64891   6.428   4.775   9.525  0.0033  0.2108 -1.4028
  481MOL0     H64892   6.518   4.932   9.525  0.7495 -0.1607  0.5728
  481MOL0     H64893   6.642   4.707   9.382  0.8685 -0.3420  0.8246
  481MOL0     H64894   6.656   4.696   9.558 -1.9319  0.6616  1.8830
  481MOL0     H64895   6.838   4.653   9.358 -0.3654  1.4824  0.6782
  481MOL0     H64896   7.072   4.616   9.292 -0.0334  0.3252 -0.7349
  481MOL0     H64897   7.523   4.710   9.195 -1.1153 -0.5223  2.6817
  481MOL0     H64898   7.777   4.719   9.162  0.9431 -0.2425  0.3679
  481MOL0     H64899   7.960   4.822   9.103  1.1473  0.3030 -0.1594
  481MOL0     H64900   7.952   4.996   9.135 -0.3278  0.2441  0.5013
  481MOL0     H64901   8.143   5.017   9.256  0.0261  1.4137 -2.9969
  481MOL0     H64902   8.181   4.850   9.269  1.5747  1.0471 -0.9352
  481MOL0     H64903   8.220   4.861   9.014 -0.9104 -0.1746 -0.1700
  481MOL0     H64904   8.191   5.035   9.023  0.7676 -0.9007 -1.3121
  481MOL0     H64905   8.403   4.941   9.213  0.5833  0.0577  0.7414
  481MOL0     H64906   8.361   5.102   9.140 -0.1793 -0.0130  0.7163
  481MOL0     H64907   8.475   5.042   8.939 -0.4637 -0.9854 -1.0002
  481MOL0     H64908   8.468   4.877   8.986 -1.4307 -0.1728  3.1471
  481MOL0     H64909   8.629   5.110   9.099  1.1416  0.1537  1.9189
  481MOL0     H64910   8.613   4.953   9.193  0.9062  1.9755  0.4116
  481MOL0     H64911   8.710   4.835   8.996  1.8214  0.1317  1.2878
  481MOL0     H64912   8.816   4.955   9.089 -1.1797 -1.9756  1.9016
  481MOL0     H64913   8.687   4.975   8.810  0.1181 -1.7584  1.4809
  481MOL0     H64914   8.758   5.120   8.894 -0.4793  0.3806 -0.2031
  481MOL0     H64915   7.771   5.080   9.409 -2.2457  0.2044  0.2783
  481MOL0     H64916   7.531   5.068   9.427 -2.4813 -0.5828 -1.8382
  481MOL0     H64917   7.153   5.028   9.400 -0.6258  0.0784 -1.6566
  481MOL0     H64918   6.929   5.063   9.449  2.4358  0.9513 -1.9209
  481MOL0     H64919   5.377   5.865   9.420 -0.9623  0.0891 -1.6745
  481MOL0     H64920   5.176   5.851   9.283  1.4878  0.4723  0.3984
  481MOL0     H64921   4.778   5.866   9.248 -1.8209 -1.5500  4.9710
  481MOL0     H64922   4.573   5.924   9.125  0.1288 -0.0194 -0.0526
  481MOL0     H64923   4.219   5.736   8.963  0.7025  0.3019  0.1161
  481MOL0     H64924   4.299   5.597   9.033  0.4015  0.4528  0.2613
  481MOL0     H64925   4.394   5.530   8.827 -0.3440 -0.4258 -2.6528
  481MOL0     H64926   4.417   5.689   8.771 -2.0375  1.0298  0.7570
  481MOL0     H64927   4.231   5.563   8.642  1.6703  0.1211  0.7832
  481MOL0     H64928   4.189   5.717   8.702  1.4882  0.2756 -0.0379
  481MOL0     H64929   4.109   5.444   8.847 -3.5374 -1.9296 -1.1291
  481MOL0     H64930   4.061   5.610   8.896  2.1727 -1.2053  1.3691
  481MOL0     H64931   3.805   5.530   8.573  2.1449  2.6976 -1.5134
  481MOL0     H64932   4.504   5.510   9.047  0.6165  0.7388 -0.8425
  481MOL0     H64933   4.615   5.334   9.150  0.6632 -2.8830  1.4601
  481MOL0     H64934   4.782   5.347   9.142 -0.2333 -0.0838 -0.0298
  481MOL0     H64935   4.709   5.379   9.295  1.0009 -0.8074 -0.5108
  482MOL0     O64936   6.218   1.108  11.160  1.6076  0.5770  0.7652
  482MOL0     C64937   6.181   1.214  11.106  0.2034  0.0756  0.3224
  482MOL0     O64938   6.256   1.317  11.066  0.6430  0.6790 -0.0300
  482MOL0     C64939   6.384   1.298  11.020  0.3806  0.4967 -0.6035
  482MOL0     C64940   6.400   1.355  10.898 -0.4956 -0.3396  0.1442
  482MOL0     C64941   6.523   1.336  10.832 -0.3124 -0.1509  0.2365
  482MOL0     C64942   6.624   1.263  10.897  0.0844 -0.6227  0.0127
  482MOL0     O64943   6.746   1.234  10.844  0.2459 -0.2266 -0.7293
  482MOL0     C64944   6.838   1.349  10.850  0.1338  0.3096  0.8136
  482MOL0     C64945   6.969   1.302  10.779 -0.5695 -0.2777  0.5413
  482MOL0     C64946   7.063   1.210  10.862  0.6645  0.4529  0.3108
  482MOL0     C64947   7.184   1.172  10.788 -0.2473  0.1270 -0.2315
  482MOL0     C64948   7.262   1.053  10.853 -0.1725 -0.6476 -0.2368
  482MOL0     C64949   7.392   1.015  10.780 -0.9298  1.0020 -0.0854
  482MOL0     C64950   7.463   0.896  10.851  0.5675  0.3578 -0.1976
  482MOL0     C64951   7.613   0.889  10.817  0.8097  0.2567 -0.2188
  482MOL0     N64952   7.690   0.775  10.876 -0.4643  0.0002  0.2701
  482MOL0     C64953   7.752   0.674  10.803 -0.6127  0.1967  0.6530
  482MOL0     C64954   7.816   0.604  10.907  0.7643  0.6869  0.6363
  482MOL0     C64955   7.893   0.474  10.889  0.4906 -1.1224 -0.0696
  482MOL0     C64956   8.037   0.488  10.933 -0.6790 -0.3338  0.5102
  482MOL0     C64957   8.107   0.359  10.902 -0.0839  0.8173 -0.5626
  482MOL0     C64958   8.253   0.361  10.937 -0.0036  0.3655 -0.1808
  482MOL0     O64959   8.311   0.451  10.842  0.0263 -0.1401  1.1395
  482MOL0     C64960   8.433   0.508  10.867 -0.1596  0.1370 -0.7160
  482MOL0     C64961   8.520   0.478  10.974 -0.0025  0.3462 -0.1469
  482MOL0     C64962   8.638   0.548  10.984 -0.0224 -0.0353 -0.0540
  482MOL0     C64963   8.676   0.649  10.891 -0.6371  0.3376 -0.5695
  482MOL0     C64964   8.805   0.722  10.907  0.4407  0.5770  0.3829
  482MOL0     O64965   8.911   0.665  10.967 -0.9009  0.2699 -0.3145
  482MOL0     C64966   9.021   0.745  10.985  0.0748 -0.4502  0.5752
  482MOL0     C64967   9.075   0.804  10.864  0.3697 -0.5851  0.6095
  482MOL0     C64968   9.186   0.885  10.878 -0.9412 -0.4279  1.0868
  482MOL0     C64969   9.255   0.909  11.000  0.0043 -0.2679 -0.4039
  482MOL0     O64970   9.368   0.993  11.011 -0.0104 -0.2887 -0.4332
  482MOL0     C64971   9.337   1.130  10.986  0.3775  0.2912  0.6280
  482MOL0     C64972   9.390   1.217  11.111  0.4999  0.5511 -0.4692
  482MOL0     C64973   9.548   1.203  11.134  0.0653  0.6609  0.5129
  482MOL0     C64974   9.606   1.319  11.219 -0.3913  0.3836  0.1885
  482MOL0     C64975   9.747   1.288  11.255  0.2202  0.3686  0.7116
  482MOL0     C64976   9.822   1.400  11.320 -1.0200 -0.2066  0.5680
  482MOL0     C64977   9.968   1.375  11.338 -0.1744 -0.1902 -0.0091
  482MOL0     C64978  10.019   1.471  11.445  0.5065  0.4535 -0.7593
  482MOL0    Cl64979  10.200   1.439  11.469 -0.1831 -0.2202  0.1041
  482MOL0     C64980   9.208   0.838  11.111 -0.6868  0.5050 -0.7782
  482MOL0     C64981   9.086   0.761  11.107 -0.8931  0.8988  0.0406
  482MOL0     O64982   8.788   0.840  10.876 -0.1305  0.0631  0.0300
  482MOL0     C64983   8.585   0.681  10.795 -0.6288 -0.2489  0.3087
  482MOL0     C64984   8.464   0.607  10.780  0.3335 -0.1156  0.1627
  482MOL0     N64985   7.803   0.677  11.029  0.0490  0.2863  0.7527
  482MOL0     N64986   7.719   0.774  11.006 -0.3639 -0.1562 -0.9474
  482MOL0     C64987   6.605   1.222  11.030 -0.5855 -0.8440  0.0109
  482MOL0     C64988   6.479   1.237  11.094 -0.4043  0.1129  0.6445
  482MOL0     C64989   6.040   1.247  11.100  0.3767 -0.6439  0.2707
  482MOL0     C64990   5.996   1.384  11.103  0.1048 -0.0818 -0.0485
  482MOL0     C64991   5.866   1.420  11.062 -0.0225 -0.4375 -0.6416
  482MOL0     C64992   5.771   1.322  11.025  0.7145  0.1193  0.9946
  482MOL0     O64993   5.648   1.374  11.012 -0.1323  0.4354  0.5396
  482MOL0     C64994   5.539   1.303  10.962 -0.3038 -0.1725 -0.4390
  482MOL0     C64995   5.414   1.389  10.949 -0.1750  0.0912 -0.0551
  482MOL0     C64996   5.340   1.433  11.079  0.5439  0.1908 -0.0163
  482MOL0     C64997   5.224   1.532  11.043 -0.6695 -0.6841 -1.0113
  482MOL0     C64998   5.132   1.486  10.940 -0.6065  0.9330 -0.3623
  482MOL0     C64999   5.044   1.446  10.866  0.5491 -0.4158  0.0836
  482MOL0     C65000   5.810   1.184  11.038  0.0349 -0.2077  0.0351
  482MOL0     C65001   5.944   1.149  11.081  0.5447 -0.5106 -0.1227
  482MOL0     C65002   5.972   1.000  11.057 -0.7979  0.3376  0.2993
  482MOL0     H65003   6.330   1.423  10.850  1.6154  0.2926 -2.2501
  482MOL0     H65004   6.538   1.373  10.731 -2.2953 -1.1967 -0.4973
  482MOL0     H65005   6.794   1.438  10.804  2.0902  0.4346 -0.9271
  482MOL0     H65006   6.857   1.385  10.952 -0.1557 -0.3717  1.1156
  482MOL0     H65007   7.026   1.395  10.768  1.0940 -1.1949  0.9575
  482MOL0     H65008   6.957   1.274  10.674  1.4516 -3.5100  1.0324
  482MOL0     H65009   7.014   1.120  10.901  0.8337  0.6948  1.1134
  482MOL0     H65010   7.099   1.257  10.954  0.5915 -1.5334  1.4101
  482MOL0     H65011   7.146   1.136  10.692  1.4760 -1.4481 -0.3879
  482MOL0     H65012   7.255   1.254  10.779 -1.7160  1.5925  0.9063
  482MOL0     H65013   7.289   1.082  10.955  0.0844 -0.2429 -0.4182
  482MOL0     H65014   7.196   0.968  10.872 -1.8141  1.1443  2.9976
  482MOL0     H65015   7.360   0.980  10.682 -2.3970  2.1183 -0.0423
  482MOL0     H65016   7.459   1.100  10.768 -1.2936  1.0322 -2.1728
  482MOL0     H65017   7.414   0.799  10.836  2.7657 -0.8019 -0.3186
  482MOL0     H65018   7.455   0.909  10.959 -1.0814 -3.1902  0.2642
  482MOL0     H65019   7.623   0.893  10.708 -0.1220  0.7874 -0.2947
  482MOL0     H65020   7.659   0.977  10.863  2.3336  0.3116 -1.7366
  482MOL0     H65021   7.753   0.651  10.696 -1.5080  1.0723  0.4403
  482MOL0     H65022   7.846   0.399  10.953  0.1722 -2.0794 -1.3778
  482MOL0     H65023   7.884   0.444  10.784 -2.8580  2.3245 -1.0100
  482MOL0     H65024   8.082   0.570  10.876 -0.4167 -0.9047 -0.1080
  482MOL0     H65025   8.052   0.514  11.039 -1.6115  0.5889  0.4260
  482MOL0     H65026   8.093   0.318  10.802  0.2220  0.5176 -0.4857
  482MOL0     H65027   8.070   0.291  10.979 -0.5447  2.3617  0.6413
  482MOL0     H65028   8.283   0.258  10.919 -2.2372 -0.7017  1.5903
  482MOL0     H65029   8.271   0.387  11.042  0.4139  1.1120 -0.4314
  482MOL0     H65030   8.492   0.412  11.055  0.3139  2.8857  2.1758
  482MOL0     H65031   8.700   0.511  11.065  1.3160  0.1298 -0.9754
  482MOL0     H65032   9.025   0.793  10.768 -2.9391 -0.1335  2.1373
  482MOL0     H65033   9.227   0.938  10.792 -1.9741 -0.8397  0.3122
  482MOL0     H65034   9.382   1.169  10.894  0.4941 -2.3148 -0.5012
  482MOL0     H65035   9.229   1.148  10.978  0.7492  1.7544 -2.9643
  482MOL0     H65036   9.373   1.323  11.091 -1.7272  0.2289 -0.4468
  482MOL0     H65037   9.329   1.196  11.199  1.1330  3.0112  0.6309
  482MOL0     H65038   9.576   1.104  11.171  0.4617  1.0496  1.2731
  482MOL0     H65039   9.587   1.214  11.032 -1.0524 -0.1409 -0.0335
  482MOL0     H65040   9.540   1.321  11.307  0.6856  1.9200  0.9985
  482MOL0     H65041   9.585   1.417  11.176 -0.9908  1.7391  3.2791
  482MOL0     H65042   9.804   1.273  11.163  0.5155  2.2475  0.5521
  482MOL0     H65043   9.755   1.196  11.314 -2.2623 -0.1077  0.3714
  482MOL0     H65044   9.806   1.488  11.256 -1.5014 -3.1869 -3.8438
  482MOL0     H65045   9.778   1.405  11.419 -0.1937  0.8537  0.9056
  482MOL0     H65046  10.018   1.389  11.242  1.1181 -1.7600  0.4029
  482MOL0     H65047   9.988   1.272  11.369 -0.3791  0.4346  2.4269
  482MOL0     H65048   9.991   1.572  11.412 -2.4496 -0.1832 -0.4646
  482MOL0     H65049   9.957   1.456  11.533 -0.5046 -0.2557 -1.5720
  482MOL0     H65050   9.269   0.854  11.199  0.2399  5.1419 -1.9735
  482MOL0     H65051   9.046   0.717  11.198 -0.3507 -0.5243 -0.3725
  482MOL0     H65052   8.596   0.760  10.722  0.0331 -2.9641 -2.7404
  482MOL0     H65053   8.388   0.620  10.703  1.4805 -1.5404 -1.2818
  482MOL0     H65054   6.690   1.181  11.082 -0.0429  1.4000  1.0218
  482MOL0     H65055   6.463   1.198  11.194  0.5327  5.4227  3.2878
  482MOL0     H65056   6.052   1.474  11.128  0.3980  1.0423 -3.9678
  482MOL0     H65057   5.839   1.526  11.063  4.5798  0.9481 -1.1233
  482MOL0     H65058   5.515   1.216  11.023 -2.8455  0.6104 -0.2456
  482MOL0     H65059   5.556   1.272  10.858  0.8174 -0.4309 -0.1949
  482MOL0     H65060   5.355   1.309  10.903  2.7365 -1.0108 -2.1320
  482MOL0     H65061   5.435   1.471  10.880 -1.2392  0.8000  0.4250
  482MOL0     H65062   5.419   1.478  11.141 -0.5661  0.8315  0.9734
  482MOL0     H65063   5.289   1.348  11.125 -0.2721  0.4027 -0.5208
  482MOL0     H65064   5.178   1.556  11.139 -0.6776 -3.7485 -0.1605
  482MOL0     H65065   5.258   1.627  10.999 -4.4582 -0.6557 -4.5385
  482MOL0     H65066   4.965   1.414  10.801 -0.7046  3.4178 -0.5409
  482MOL0     H65067   5.744   1.101  11.016  1.4522 -0.6344 -3.0396
  482MOL0     H65068   6.054   0.996  10.985  0.3304  0.5137  1.5438
  482MOL0     H65069   6.006   0.954  11.150  0.8174 -0.1398 -0.5039
  482MOL0     H65070   5.891   0.943  11.011  0.3035 -2.7497  1.9549
  483MOL0     O65071   9.746   8.377   2.243  0.0680  0.2528  0.2119
  483MOL0     C65072   9.735   8.499   2.220 -0.2749 -0.4456  0.9250
  483MOL0     O65073   9.831   8.573   2.169  0.0411  0.3052 -0.1142
  483MOL0     C65074   9.949   8.509   2.143 -0.3272 -0.8495  0.0715
  483MOL0     C65075   9.966   8.414   2.037  0.2003 -0.7423  0.1012
  483MOL0     C65076  10.092   8.366   2.006  0.3329  0.7499 -0.2876
  483MOL0     C65077  10.208   8.407   2.083 -0.4498  0.2555  0.4368
  483MOL0     O65078  10.331   8.349   2.043  0.3619  0.4316 -0.3056
  483MOL0     C65079  10.447   8.384   2.112  0.8142  0.1442  0.2927
  483MOL0     C65080  10.571   8.331   2.045 -0.3156  0.5599 -0.1122
  483MOL0     C65081  10.694   8.368   2.126  0.3112 -0.2697  0.0521
  483MOL0     C65082  10.721   8.516   2.142 -0.7464  0.5134  0.7642
  483MOL0     C65083  10.877   8.538   2.151  0.0802  0.9946  0.3734
  483MOL0     C65084  10.899   8.665   2.231 -0.7682 -0.6835  0.1315
  483MOL0     C65085  11.051   8.689   2.246  0.7345 -0.0257  0.3859
  483MOL0     C65086  11.085   8.809   2.335 -0.1932  0.0863 -0.9811
  483MOL0     N65087  11.230   8.841   2.353  0.2332  0.0460 -1.0588
  483MOL0     C65088  11.302   8.797   2.462  0.2470 -0.2061 -0.3234
  483MOL0     C65089  11.422   8.859   2.448 -0.4138  0.1681 -0.2921
  483MOL0     C65090  11.524   8.869   2.560  0.3244 -0.4557 -0.2839
  483MOL0     C65091  11.656   8.785   2.524  0.9915  0.0963  0.5694
  483MOL0     C65092  11.754   8.772   2.636 -0.1280  0.1658  0.5964
  483MOL0     C65093  11.780   8.906   2.710  0.1943 -0.3297  0.2971
  483MOL0     O65094  11.890   8.881   2.796  0.0666 -0.4216  0.1905
  483MOL0     C65095  12.019   8.913   2.758  0.3326  0.5270 -0.1705
  483MOL0     C65096  12.074   8.923   2.627 -0.0432  0.4045 -0.1089
  483MOL0     C65097  12.213   8.942   2.605 -0.6224 -0.3701  0.4752
  483MOL0     C65098  12.298   8.981   2.716  0.2617 -0.5983  0.1017
  483MOL0     C65099  12.434   9.007   2.690  0.0139 -0.0444 -0.6201
  483MOL0     O65100  12.525   8.991   2.790  0.3566  0.7628 -0.6970
  483MOL0     C65101  12.649   9.044   2.778  1.2188 -0.5895 -0.3807
  483MOL0     C65102  12.669   9.185   2.770 -0.2692 -0.0299  1.0324
  483MOL0     C65103  12.802   9.231   2.761 -1.1390  0.0021 -0.0142
  483MOL0     C65104  12.910   9.143   2.752 -0.6851  0.6366  1.2829
  483MOL0     O65105  13.031   9.200   2.744 -0.1711  0.1749  0.2770
  483MOL0     C65106  13.143   9.116   2.729  0.1222  0.6061  0.0371
  483MOL0     C65107  13.266   9.203   2.739 -0.1237 -0.3167 -0.1891
  483MOL0     C65108  13.401   9.121   2.729  0.5552 -0.3351 -0.2199
  483MOL0     C65109  13.527   9.201   2.776  1.4600 -0.0017 -0.0331
  483MOL0     C65110  13.659   9.129   2.751  0.5930 -0.2441 -0.0436
  483MOL0     C65111  13.782   9.218   2.752  0.4640 -0.2781 -0.2467
  483MOL0     C65112  13.893   9.134   2.689 -0.3477  0.2482 -0.4594
  483MOL0     C65113  14.032   9.185   2.736 -0.0483  1.0517 -0.3104
  483MOL0    Cl65114  14.158   9.171   2.605 -0.1523 -0.0266  0.3868
  483MOL0     C65115  12.887   9.006   2.750  0.1857  0.8121  0.7639
  483MOL0     C65116  12.759   8.952   2.777  0.1508 -0.4007  0.2029
  483MOL0     O65117  12.462   9.055   2.578  0.2938  0.3018  0.0397
  483MOL0     C65118  12.242   8.971   2.847  0.1790 -0.1483 -0.0066
  483MOL0     C65119  12.104   8.945   2.860  0.0803 -0.2859  0.5344
  483MOL0     N65120  11.427   8.918   2.327  0.0677  0.4048 -0.4865
  483MOL0     N65121  11.310   8.907   2.266 -0.3938 -0.0417  0.1776
  483MOL0     C65122  10.186   8.487   2.196 -0.0755  0.2513  0.0397
  483MOL0     C65123  10.054   8.545   2.229 -0.2182 -0.1456  0.5935
  483MOL0     C65124   9.606   8.567   2.242 -0.2843  0.1967  0.7037
  483MOL0     C65125   9.607   8.709   2.257 -0.4301  0.4957  0.8439
  483MOL0     C65126   9.494   8.778   2.281 -1.3432  0.2503 -0.4820
  483MOL0     C65127   9.368   8.718   2.298 -0.5150  0.7216 -0.4225
  483MOL0     O65128   9.266   8.801   2.344  0.7028 -0.4623 -0.0456
  483MOL0     C65129   9.132   8.748   2.331  0.0046 -0.5425  0.1654
  483MOL0     C65130   9.034   8.856   2.314 -0.1109 -0.8643 -0.0674
  483MOL0     C65131   8.887   8.814   2.317  0.0775  0.1115 -0.4421
  483MOL0     C65132   8.816   8.902   2.223  0.6355 -0.4269 -0.2024
  483MOL0     C65133   8.678   8.896   2.259 -0.6571  0.4138 -0.3394
  483MOL0     C65134   8.558   8.885   2.284  0.3158 -0.2880 -0.8104
  483MOL0     C65135   9.362   8.576   2.269  0.2073  0.3119  0.0465
  483MOL0     C65136   9.480   8.504   2.236 -0.2633  0.6963  0.0218
  483MOL0     C65137   9.455   8.360   2.207 -0.5406 -0.0280 -0.6061
  483MOL0     H65138   9.880   8.380   1.981 -1.7737 -0.0954  2.5821
  483MOL0     H65139  10.107   8.303   1.919 -2.3389 -2.6012  1.4528
  483MOL0     H65140  10.452   8.493   2.111  0.8662  0.1462  0.6618
  483MOL0     H65141  10.445   8.345   2.214  0.9605  3.5773  1.7579
  483MOL0     H65142  10.589   8.360   1.941 -3.1160  2.6824 -0.1323
  483MOL0     H65143  10.577   8.222   2.048  3.7412  0.6416  0.2456
  483MOL0     H65144  10.777   8.319   2.075  0.2132  0.0242 -0.3935
  483MOL0     H65145  10.684   8.329   2.228  0.0196 -0.5505 -0.0800
  483MOL0     H65146  10.689   8.580   2.059  1.3291 -0.8419 -1.1973
  483MOL0     H65147  10.667   8.551   2.230 -2.7068  1.1853 -0.6367
  483MOL0     H65148  10.928   8.449   2.189 -1.6838  0.3157  1.2719
  483MOL0     H65149  10.923   8.556   2.054  3.2239 -1.0305  1.3395
  483MOL0     H65150  10.849   8.749   2.183  1.1338 -0.0381 -0.8209
  483MOL0     H65151  10.864   8.646   2.333 -1.4328 -2.7007 -0.4192
  483MOL0     H65152  11.088   8.711   2.145 -0.2767  1.6665  0.3549
  483MOL0     H65153  11.103   8.601   2.285 -0.2221 -0.2929  1.1013
  483MOL0     H65154  11.029   8.891   2.291 -1.3952 -0.5006 -0.6084
  483MOL0     H65155  11.039   8.804   2.434  1.7304  1.7729  0.0725
  483MOL0     H65156  11.269   8.749   2.554  1.1523  2.5338  1.5842
  483MOL0     H65157  11.542   8.973   2.587 -2.4527 -0.7248  3.3290
  483MOL0     H65158  11.481   8.821   2.648  1.4374  0.5029  0.8109
  483MOL0     H65159  11.615   8.685   2.507  2.4294 -0.8732  2.4462
  483MOL0     H65160  11.703   8.813   2.429  0.2935 -0.4639  0.0377
  483MOL0     H65161  11.846   8.729   2.594 -0.1701 -1.6907  2.2928
  483MOL0     H65162  11.718   8.693   2.702  1.3655 -2.2408 -1.3163
  483MOL0     H65163  11.689   8.941   2.758 -0.0042  2.0205 -1.5786
  483MOL0     H65164  11.794   8.988   2.638  2.4552  2.0792  3.1986
  483MOL0     H65165  12.007   8.899   2.545 -0.4386 -0.0904  0.3567
  483MOL0     H65166  12.248   8.942   2.502 -2.7026  1.2959 -0.3210
  483MOL0     H65167  12.587   9.253   2.749  0.3813  0.8839  1.4029
  483MOL0     H65168  12.833   9.335   2.761  0.4175 -0.4215  0.8447
  483MOL0     H65169  13.154   9.046   2.812  0.7497  3.1963  2.2796
  483MOL0     H65170  13.144   9.077   2.627 -0.1316  0.0744  0.2375
  483MOL0     H65171  13.267   9.280   2.662  0.9528  0.9441  1.0348
  483MOL0     H65172  13.264   9.251   2.837 -2.9050 -0.3694 -0.1352
  483MOL0     H65173  13.394   9.028   2.787  1.7377  0.6003  1.5311
  483MOL0     H65174  13.421   9.098   2.624  2.9604  1.7557 -0.3060
  483MOL0     H65175  13.515   9.235   2.880  0.4721  0.0591 -0.1625
  483MOL0     H65176  13.530   9.293   2.718  2.2207 -2.5498 -4.4536
  483MOL0     H65177  13.655   9.089   2.650  0.6730  2.1710 -1.0734
  483MOL0     H65178  13.662   9.045   2.821 -1.3036 -2.0266 -1.9791
  483MOL0     H65179  13.767   9.315   2.704  2.6353  0.8995  1.2689
  483MOL0     H65180  13.808   9.233   2.858 -0.9196  0.4005  0.0157
  483MOL0     H65181  13.889   9.147   2.581  0.7050 -1.8589 -0.8061
  483MOL0     H65182  13.883   9.028   2.717  1.2308 -0.5499 -2.6455
  483MOL0     H65183  14.022   9.288   2.770  1.3087  0.7317  1.1490
  483MOL0     H65184  14.077   9.136   2.822  1.2786  0.4512 -1.3051
  483MOL0     H65185  12.971   8.940   2.729 -0.4567  0.6903 -1.6746
  483MOL0     H65186  12.749   8.845   2.763 -0.2538 -0.5343  1.4287
  483MOL0     H65187  12.307   8.988   2.933 -0.7533 -0.6451  0.8061
  483MOL0     H65188  12.050   8.948   2.954 -0.5760  0.7780  0.1493
  483MOL0     H65189  10.269   8.500   2.264 -2.3108  0.6679  2.8609
  483MOL0     H65190  10.032   8.613   2.310 -0.0921  0.2760  0.2767
  483MOL0     H65191   9.697   8.769   2.262 -1.3974  1.9006  3.9366
  483MOL0     H65192   9.519   8.875   2.321 -0.9312  0.0475 -0.2453
  483MOL0     H65193   9.114   8.682   2.416 -2.5355  1.1312  1.0493
  483MOL0     H65194   9.124   8.688   2.240 -1.9696  2.6536 -1.9844
  483MOL0     H65195   9.058   8.910   2.222 -0.2246  1.6916  1.3137
  483MOL0     H65196   9.047   8.927   2.396 -0.7886 -0.7154 -0.0786
  483MOL0     H65197   8.850   8.813   2.420  1.7811 -0.4800  0.2101
  483MOL0     H65198   8.880   8.714   2.273  0.2319 -0.1989  0.2317
  483MOL0     H65199   8.850   9.005   2.228 -2.6862  0.8078 -0.2417
  483MOL0     H65200   8.822   8.867   2.119 -2.8840 -1.4042 -0.2338
  483MOL0     H65201   8.454   8.884   2.310 -0.1099 -1.5548 -2.3872
  483MOL0     H65202   9.278   8.509   2.281  0.8250 -0.1686  2.1646
  483MOL0     H65203   9.356   8.315   2.214  0.5187 -2.4550  0.0202
  483MOL0     H65204   9.485   8.331   2.106 -0.4004 -2.5613  0.0921
  483MOL0     H65205   9.515   8.306   2.281 -1.9393 -1.5997 -0.5692
  484MOL0     O65206   9.169  11.120   2.332  0.0885  0.4231 -0.4426
  484MOL0     C65207   9.201  11.133   2.215 -0.2744  1.2025 -0.3367
  484MOL0     O65208   9.327  11.162   2.171  1.1729 -1.0641  0.2130
  484MOL0     C65209   9.436  11.125   2.247  0.3226  0.4228  0.1659
  484MOL0     C65210   9.435  11.022   2.345 -0.0689  0.2433  0.5957
  484MOL0     C65211   9.558  11.012   2.433  0.1982  0.1998  0.6130
  484MOL0     C65212   9.666  11.094   2.408 -0.2721 -0.8224  0.6032
  484MOL0     O65213   9.762  11.080   2.507  0.0854  0.4176  0.5693
  484MOL0     C65214   9.894  11.115   2.483 -0.6658  0.0316 -0.0370
  484MOL0     C65215   9.966  11.069   2.605 -0.7668  0.9889 -0.5062
  484MOL0     C65216  10.121  11.090   2.598 -0.3876  0.7752  0.3211
  484MOL0     C65217  10.172  11.228   2.568  0.5113  0.2266 -0.4527
  484MOL0     C65218  10.324  11.237   2.575 -0.2443  0.7204  0.5128
  484MOL0     C65219  10.396  11.197   2.440  0.2112 -0.2289 -1.6604
  484MOL0     C65220  10.369  11.282   2.315 -0.1932 -0.3899 -0.1241
  484MOL0     C65221  10.472  11.259   2.199  0.9005  0.7258  0.1904
  484MOL0     N65222  10.597  11.325   2.219 -0.0422 -0.3720  0.0467
  484MOL0     C65223  10.626  11.459   2.187  0.6181  0.3762  0.9404
  484MOL0     C65224  10.764  11.473   2.198  1.2259  0.1918  0.9331
  484MOL0     C65225  10.859  11.583   2.165  0.5320 -0.4797 -0.9949
  484MOL0     C65226  10.983  11.540   2.090  0.1039 -0.5001 -0.2530
  484MOL0     C65227  11.106  11.628   2.101 -0.3338 -0.5324 -0.1820
  484MOL0     C65228  11.208  11.562   2.009 -0.1600 -0.6981  0.1538
  484MOL0     O65229  11.318  11.660   1.992 -0.1018  0.1513  0.2438
  484MOL0     C65230  11.450  11.624   1.996  0.3886 -0.3315  1.4708
  484MOL0     C65231  11.500  11.495   1.983  0.4156  0.1710  0.5270
  484MOL0     C65232  11.641  11.468   1.988 -0.3656 -0.0561 -0.6586
  484MOL0     C65233  11.738  11.577   1.993  0.6709 -0.1489  0.6225
  484MOL0     C65234  11.878  11.554   1.975 -0.8129  0.5556 -0.1032
  484MOL0     O65235  11.957  11.670   1.985  0.0785  0.1680 -0.0170
  484MOL0     C65236  12.093  11.669   1.966 -0.1618 -0.0548  0.2938
  484MOL0     C65237  12.164  11.769   2.032 -0.3565  0.3796  0.2052
  484MOL0     C65238  12.303  11.780   2.028  0.4142  0.8172 -0.1258
  484MOL0     C65239  12.374  11.696   1.936 -0.0143 -0.2647 -0.8663
  484MOL0     O65240  12.507  11.698   1.917 -0.4264 -0.3711 -0.4472
  484MOL0     C65241  12.604  11.761   2.003  0.5892 -0.1557 -0.5897
  484MOL0     C65242  12.619  11.911   1.975 -0.2358  0.0557  0.1586
  484MOL0     C65243  12.693  11.932   1.835 -0.7750  0.1322  0.2668
  484MOL0     C65244  12.656  12.068   1.767 -0.5587 -0.5089 -0.5329
  484MOL0     C65245  12.744  12.093   1.647  0.6544 -0.4160  0.0112
  484MOL0     C65246  12.893  12.120   1.677  0.3457  0.4953  0.0374
  484MOL0     C65247  12.972  12.100   1.544 -0.0394 -0.0467  0.7476
  484MOL0     C65248  13.119  12.133   1.545  0.0565  0.3017 -0.6179
  484MOL0    Cl65249  13.186  12.210   1.409 -0.0188  0.1157  0.0691
  484MOL0     C65250  12.300  11.601   1.859  0.1345  0.1628 -1.5970
  484MOL0     C65251  12.163  11.586   1.881 -0.4342  0.9654 -0.6191
  484MOL0     O65252  11.918  11.436   1.961  0.4461  0.1140 -0.4562
  484MOL0     C65253  11.683  11.706   2.012 -0.0683  0.2893  0.2173
  484MOL0     C65254  11.539  11.728   2.015  0.5096  0.4820  0.1683
  484MOL0     N65255  10.809  11.342   2.230  0.2320 -0.3170 -0.8646
  484MOL0     N65256  10.714  11.261   2.246  0.3881 -0.0888  0.4389
  484MOL0     C65257   9.664  11.189   2.309 -0.0672 -0.0907 -0.5901
  484MOL0     C65258   9.541  11.210   2.234  0.3966 -0.4988  0.0681
  484MOL0     C65259   9.092  11.152   2.119 -0.4090  0.1962 -0.3252
  484MOL0     C65260   9.122  11.247   2.021 -0.1104 -0.1669  0.5467
  484MOL0     C65261   9.026  11.280   1.922  0.1010 -0.1093  0.3353
  484MOL0     C65262   8.895  11.230   1.927  0.1729  0.7318  0.0820
  484MOL0     O65263   8.792  11.266   1.845  0.1333  0.4215  0.3269
  484MOL0     C65264   8.811  11.237   1.710  0.3021  0.2470  0.1068
  484MOL0     C65265   8.669  11.218   1.651 -0.3722 -0.5746  0.1916
  484MOL0     C65266   8.592  11.352   1.650 -0.7091  0.1308  0.1698
  484MOL0     C65267   8.460  11.321   1.571  0.1095 -0.1052  0.2896
  484MOL0     C65268   8.369  11.229   1.642  0.3391 -0.3869 -0.4718
  484MOL0     C65269   8.292  11.164   1.712  0.0691  0.5207 -0.5835
  484MOL0     C65270   8.868  11.138   2.032  0.1520 -0.0142 -0.3705
  484MOL0     C65271   8.960  11.102   2.130 -0.8531  0.3047 -0.4287
  484MOL0     C65272   8.930  10.995   2.233  0.0369  0.5668  0.0596
  484MOL0     H65273   9.350  10.955   2.352 -0.2042  0.3714  0.2305
  484MOL0     H65274   9.555  10.938   2.513 -0.7289  0.3655  0.7336
  484MOL0     H65275   9.924  11.069   2.389 -1.5790 -1.7028  0.4822
  484MOL0     H65276   9.905  11.223   2.471  1.5248 -0.1507 -0.1228
  484MOL0     H65277   9.959  10.960   2.618 -1.6423  1.1112  0.1813
  484MOL0     H65278   9.921  11.124   2.688 -1.1654  1.6446 -1.1500
  484MOL0     H65279  10.165  11.016   2.530 -2.4174  0.9128 -1.2198
  484MOL0     H65280  10.152  11.053   2.696 -1.4577 -3.1399 -0.6427
  484MOL0     H65281  10.135  11.265   2.471  2.3366  0.3020 -1.1636
  484MOL0     H65282  10.134  11.296   2.644  1.2953 -0.2051  0.3357
  484MOL0     H65283  10.357  11.339   2.594  1.9077  0.6901 -2.4898
  484MOL0     H65284  10.367  11.174   2.654  2.6969 -1.1053 -2.3012
  484MOL0     H65285  10.503  11.211   2.455 -0.1026 -0.7349  1.6319
  484MOL0     H65286  10.371  11.094   2.413 -1.5668 -0.2181 -0.2244
  484MOL0     H65287  10.363  11.387   2.342 -2.8890 -1.0966  2.5068
  484MOL0     H65288  10.265  11.274   2.282 -1.3308  4.4582  1.5042
  484MOL0     H65289  10.491  11.152   2.193  0.4014  0.6805 -0.8165
  484MOL0     H65290  10.417  11.292   2.110 -2.5672  1.6073  2.4423
  484MOL0     H65291  10.545  11.525   2.160  0.1821 -0.8296 -0.8385
  484MOL0     H65292  10.816  11.665   2.106  0.4830  0.8482  0.7850
  484MOL0     H65293  10.892  11.631   2.257 -1.8415 -3.2093  1.4682
  484MOL0     H65294  11.008  11.439   2.125  1.1857 -0.1575 -0.0213
  484MOL0     H65295  10.953  11.529   1.985 -0.5615 -0.5242 -0.0639
  484MOL0     H65296  11.140  11.638   2.204 -2.4489 -1.9013  0.7185
  484MOL0     H65297  11.076  11.727   2.063  0.5798  0.2447  1.0360
  484MOL0     H65298  11.159  11.543   1.914  0.0868 -0.5245 -0.0105
  484MOL0     H65299  11.245  11.470   2.055  2.4372 -0.6443 -1.5905
  484MOL0     H65300  11.444  11.406   1.958 -1.4320  1.4894 -0.2271
  484MOL0     H65301  11.675  11.366   1.977 -0.5327  0.0104 -2.0016
  484MOL0     H65302  12.120  11.834   2.107 -0.1069  1.3906 -0.4929
  484MOL0     H65303  12.357  11.853   2.086  1.0084 -0.6337  1.2272
  484MOL0     H65304  12.568  11.755   2.106 -2.0085 -0.3121 -1.4133
  484MOL0     H65305  12.702  11.714   1.995  1.0312 -0.3700  3.8569
  484MOL0     H65306  12.522  11.961   1.972 -0.8132 -0.4885  4.2454
  484MOL0     H65307  12.683  11.950   2.055  2.0725 -0.5599 -1.2796
  484MOL0     H65308  12.801  11.928   1.855 -0.5802  1.7242 -0.3590
  484MOL0     H65309  12.665  11.851   1.766 -1.2223  0.9862 -0.5748
  484MOL0     H65310  12.669  12.145   1.844 -0.0698 -4.1072  3.3269
  484MOL0     H65311  12.549  12.069   1.745 -1.3454 -4.5275  2.1083
  484MOL0     H65312  12.707  12.182   1.595  1.9787 -1.1962 -2.4391
  484MOL0     H65313  12.729  12.009   1.578 -0.4003  1.2193 -1.8388
  484MOL0     H65314  12.902  12.226   1.706  1.2475  0.2940  0.5476
  484MOL0     H65315  12.934  12.060   1.759 -0.8353  0.0533  0.3159
  484MOL0     H65316  12.923  12.163   1.469 -1.8278 -4.3817 -2.1401
  484MOL0     H65317  12.967  11.997   1.506  2.6572 -0.4538  1.3527
  484MOL0     H65318  13.132  12.205   1.626  0.1789  0.5952 -0.8960
  484MOL0     H65319  13.183  12.046   1.561 -1.2820 -0.2673  2.2918
  484MOL0     H65320  12.338  11.543   1.776 -2.2261  0.9508 -3.3091
  484MOL0     H65321  12.117  11.497   1.841 -3.2640  1.4102  1.3267
  484MOL0     H65322  11.758  11.784   2.007  1.2312 -0.9339  0.0972
  484MOL0     H65323  11.484  11.822   2.010 -0.7383 -0.2756 -1.7991
  484MOL0     H65324   9.745  11.258   2.289 -0.6856  0.1713 -2.3956
  484MOL0     H65325   9.522  11.286   2.158 -0.5616  0.7851  1.5411
  484MOL0     H65326   9.210  11.310   2.020 -1.0756  1.2311 -0.2451
  484MOL0     H65327   9.057  11.359   1.854  2.8002 -1.1104  0.3003
  484MOL0     H65328   8.860  11.139   1.712  1.4221  0.7633 -1.0495
  484MOL0     H65329   8.856  11.305   1.638  0.4318  0.2412  0.1820
  484MOL0     H65330   8.627  11.139   1.714 -2.4447 -2.3384 -3.1121
  484MOL0     H65331   8.683  11.181   1.549 -1.1447 -1.7280  0.4887
  484MOL0     H65332   8.651  11.428   1.599 -1.7612  1.8445  1.4207
  484MOL0     H65333   8.569  11.384   1.752  1.2944 -2.3846  1.5343
  484MOL0     H65334   8.407  11.414   1.550  1.8921  0.8981  0.0566
  484MOL0     H65335   8.483  11.283   1.471  1.7776 -2.1459  1.3765
  484MOL0     H65336   8.228  11.111   1.780 -0.3088  0.9976 -0.5589
  484MOL0     H65337   8.773  11.084   2.030 -0.6838  1.4146 -1.5779
  484MOL0     H65338   9.007  10.918   2.222  1.1222  1.8967 -2.1819
  484MOL0     H65339   8.931  11.030   2.337 -1.9653  1.3567 -0.1382
  484MOL0     H65340   8.836  10.948   2.203  1.0797 -1.0446 -0.8351
  485MOL0     O65341  10.284   7.839   2.024  0.8219  0.5614  0.4440
  485MOL0     C65342  10.213   7.830   1.925  0.2797 -0.6213  0.1037
  485MOL0     O65343  10.255   7.794   1.802 -0.2218  0.5581  0.0616
  485MOL0     C65344  10.379   7.740   1.803 -0.6831  0.0935 -0.4081
  485MOL0     C65345  10.492   7.824   1.785  0.2634  0.1138  0.6734
  485MOL0     C65346  10.611   7.768   1.777 -0.0125  0.0230 -0.0986
  485MOL0     C65347  10.629   7.629   1.782 -0.0009  0.4296  0.1261
  485MOL0     O65348  10.755   7.566   1.769  0.0222 -1.0751 -0.1885
  485MOL0     C65349  10.764   7.421   1.769  0.6292 -0.0198 -0.6723
  485MOL0     C65350  10.903   7.365   1.735  0.3206 -0.0638  0.5858
  485MOL0     C65351  10.999   7.386   1.855 -0.2197 -0.1484  0.6124
  485MOL0     C65352  11.140   7.341   1.838  0.5563  0.3321  1.0466
  485MOL0     C65353  11.222   7.375   1.955  0.2000 -1.3198  0.0316
  485MOL0     C65354  11.368   7.341   1.947  0.2552 -0.1361  0.1023
  485MOL0     C65355  11.443   7.375   2.076 -0.2634  0.0739 -0.2730
  485MOL0     C65356  11.508   7.513   2.084  0.4450 -0.5754 -0.3688
  485MOL0     N65357  11.628   7.508   1.994  0.1074  0.0359  0.2462
  485MOL0     C65358  11.754   7.477   2.036  0.0095  0.0285  0.1408
  485MOL0     C65359  11.831   7.521   1.935  0.1266  0.9596 -0.9534
  485MOL0     C65360  11.983   7.526   1.922 -0.6475 -0.3522  0.2332
  485MOL0     C65361  12.037   7.381   1.939  0.2199  0.0789  0.0350
  485MOL0     C65362  12.186   7.376   1.950 -0.7132 -0.4755 -0.8469
  485MOL0     C65363  12.241   7.236   1.989 -0.2153  0.2463  0.1719
  485MOL0     O65364  12.383   7.240   2.015  0.2349 -0.0254 -0.3871
  485MOL0     C65365  12.452   7.141   2.080  0.8913  0.9343  0.2262
  485MOL0     C65366  12.386   7.021   2.109 -0.0572  0.0760 -0.7907
  485MOL0     C65367  12.455   6.908   2.166 -0.1353 -0.4634 -0.3290
  485MOL0     C65368  12.587   6.929   2.193  0.0765 -0.0927  0.1959
  485MOL0     C65369  12.665   6.818   2.270 -0.3170 -1.0139  0.2221
  485MOL0     O65370  12.603   6.694   2.261 -0.2277  0.8045 -0.1710
  485MOL0     C65371  12.681   6.592   2.315 -0.1746 -0.6828 -0.1942
  485MOL0     C65372  12.745   6.504   2.225 -0.2885  0.4670 -0.1198
  485MOL0     C65373  12.838   6.409   2.269 -1.4019 -0.1461  1.2017
  485MOL0     C65374  12.880   6.405   2.400  0.6813  0.4342  0.0251
  485MOL0     O65375  12.979   6.320   2.427  0.6340  0.6948 -0.2410
  485MOL0     C65376  13.007   6.287   2.567 -0.2059 -0.4910 -0.3481
  485MOL0     C65377  13.124   6.183   2.564  0.4774 -0.3900  0.3635
  485MOL0     C65378  13.157   6.134   2.703 -0.7108 -1.1867  0.1034
  485MOL0     C65379  13.283   6.046   2.704 -0.6451 -0.2301 -0.1418
  485MOL0     C65380  13.331   6.019   2.855 -0.3031 -0.0828  0.5640
  485MOL0     C65381  13.421   5.898   2.850 -0.5819  0.4697  0.0071
  485MOL0     C65382  13.465   5.877   2.997 -0.2771  0.6521 -0.0947
  485MOL0     C65383  13.523   5.734   3.017  0.0363 -0.3953 -0.2122
  485MOL0    Cl65384  13.641   5.689   2.892  0.1485  0.1043  0.3148
  485MOL0     C65385  12.820   6.492   2.493 -0.3768  0.1662 -0.2522
  485MOL0     C65386  12.718   6.581   2.454  0.2940 -0.6300 -0.0350
  485MOL0     O65387  12.782   6.843   2.300  0.0006 -0.5937 -0.7764
  485MOL0     C65388  12.655   7.047   2.156  0.1362 -0.2984  0.1015
  485MOL0     C65389  12.590   7.151   2.092  0.3692 -0.5780 -0.6655
  485MOL0     N65390  11.749   7.555   1.831  0.2494 -0.4637  0.7012
  485MOL0     N65391  11.629   7.564   1.866  0.5263  0.0800  0.0819
  485MOL0     C65392  10.519   7.545   1.805  0.1982 -0.1582 -0.3854
  485MOL0     C65393  10.394   7.599   1.803 -0.9420 -0.2355  0.2061
  485MOL0     C65394  10.074   7.837   1.947 -0.2620  0.1332 -0.1242
  485MOL0     C65395   9.995   7.738   1.888 -0.1442  0.3346 -0.0381
  485MOL0     C65396   9.854   7.723   1.911 -0.3311  0.8465  0.4357
  485MOL0     C65397   9.797   7.817   1.998  0.4561  0.3608 -0.9560
  485MOL0     O65398   9.662   7.803   2.015 -0.3155  0.1810  0.2592
  485MOL0     C65399   9.587   7.846   2.129 -0.6632  0.1972  0.3601
  485MOL0     C65400   9.522   7.987   2.096  0.0240 -0.0094  0.2473
  485MOL0     C65401   9.427   7.961   1.968 -0.6723 -0.3487  0.9183
  485MOL0     C65402   9.389   8.100   1.918 -0.3310 -0.2068 -0.3559
  485MOL0     C65403   9.276   8.096   1.829  0.6789  0.8479  0.5210
  485MOL0     C65404   9.180   8.112   1.758  0.2392  0.0405  0.9240
  485MOL0     C65405   9.875   7.909   2.072 -0.4552  0.4022 -0.2693
  485MOL0     C65406  10.017   7.924   2.046  0.6808 -0.2324  1.1580
  485MOL0     C65407  10.092   8.037   2.122 -0.1063 -0.0113 -0.1652
  485MOL0     H65408  10.474   7.931   1.791 -4.5779 -0.5640  3.2459
  485MOL0     H65409  10.700   7.826   1.758 -0.4458  1.1905  1.2537
  485MOL0     H65410  10.729   7.387   1.867  1.8669  5.6298  2.1531
  485MOL0     H65411  10.703   7.380   1.687 -1.1376  0.2297  0.4616
  485MOL0     H65412  10.946   7.419   1.650  3.1262 -2.2858  0.4448
  485MOL0     H65413  10.898   7.259   1.706 -2.5886  0.7197 -2.3236
  485MOL0     H65414  10.955   7.329   1.938 -0.0398 -1.4044 -0.1357
  485MOL0     H65415  10.989   7.493   1.878 -0.7772  0.8760 -3.5730
  485MOL0     H65416  11.143   7.232   1.823 -0.0107 -0.0908  3.5731
  485MOL0     H65417  11.171   7.395   1.748 -0.8899 -1.7884 -0.8373
  485MOL0     H65418  11.217   7.483   1.972  0.0895 -1.4063  0.5514
  485MOL0     H65419  11.172   7.339   2.045 -1.8903  1.3704  0.0777
  485MOL0     H65420  11.378   7.235   1.922 -0.7766 -0.3468  0.5242
  485MOL0     H65421  11.402   7.398   1.860 -0.5366 -1.1403 -0.8934
  485MOL0     H65422  11.522   7.300   2.085  0.0793  0.3980 -0.5290
  485MOL0     H65423  11.388   7.361   2.169 -1.7930  3.5216 -0.5220
  485MOL0     H65424  11.435   7.587   2.049 -1.4606 -1.6889  1.1149
  485MOL0     H65425  11.545   7.543   2.183 -0.7054 -0.0291 -0.0862
  485MOL0     H65426  11.789   7.451   2.135  3.0814  1.2765 -0.5078
  485MOL0     H65427  12.015   7.567   1.826  1.2173  0.3150  1.0991
  485MOL0     H65428  12.013   7.591   2.005  0.1270 -0.9141  0.4110
  485MOL0     H65429  11.987   7.345   2.029  1.2350  0.6864  0.8656
  485MOL0     H65430  12.019   7.333   1.842  1.8766  0.7497 -0.6501
  485MOL0     H65431  12.228   7.441   2.027 -0.5888 -2.4092  0.8013
  485MOL0     H65432  12.227   7.416   1.857  1.1768 -0.2454  0.0396
  485MOL0     H65433  12.235   7.173   1.900  0.4167  0.5633 -0.1035
  485MOL0     H65434  12.184   7.208   2.078 -1.4057 -0.3995 -0.7645
  485MOL0     H65435  12.281   7.012   2.080  0.1247  0.2751 -1.5255
  485MOL0     H65436  12.402   6.815   2.184 -0.9021 -0.3380 -1.7552
  485MOL0     H65437  12.720   6.525   2.121 -0.4228  3.0013  0.3562
  485MOL0     H65438  12.899   6.353   2.200 -0.3313 -0.1318  2.1049
  485MOL0     H65439  13.050   6.375   2.616 -1.2730  0.4746 -1.0641
  485MOL0     H65440  12.926   6.249   2.630  1.2029  0.4546  2.1728
  485MOL0     H65441  13.093   6.090   2.516 -2.3399 -2.1048  4.7699
  485MOL0     H65442  13.211   6.229   2.517  0.8170 -2.0610 -0.7100
  485MOL0     H65443  13.184   6.219   2.766  1.4887 -0.8922 -1.1177
  485MOL0     H65444  13.079   6.076   2.754 -2.6403 -0.5596 -1.9651
  485MOL0     H65445  13.362   6.097   2.648  0.0407 -3.1115 -2.0319
  485MOL0     H65446  13.248   5.958   2.650 -2.1596  0.3127 -0.0803
  485MOL0     H65447  13.238   6.002   2.911 -1.8691 -0.0898 -1.8665
  485MOL0     H65448  13.382   6.109   2.890 -2.9608  1.6956  0.2188
  485MOL0     H65449  13.368   5.810   2.812 -0.6369 -0.5322  2.2754
  485MOL0     H65450  13.499   5.913   2.774 -0.5276 -1.4244 -0.3710
  485MOL0     H65451  13.382   5.887   3.067 -0.5201 -1.2131 -0.0563
  485MOL0     H65452  13.547   5.947   3.018  0.2965  0.3074 -1.1056
  485MOL0     H65453  13.577   5.742   3.112 -0.4393  0.7904 -0.0244
  485MOL0     H65454  13.443   5.660   3.025  1.5265 -1.8769  2.0201
  485MOL0     H65455  12.853   6.487   2.596 -3.7342 -2.8604  0.8780
  485MOL0     H65456  12.687   6.653   2.530  2.1496 -0.3463  0.5049
  485MOL0     H65457  12.763   7.060   2.168 -0.2796  3.0751  1.4544
  485MOL0     H65458  12.640   7.239   2.052 -0.2173  0.2318  0.3367
  485MOL0     H65459  10.517   7.437   1.821  0.8904 -0.1492 -0.2140
  485MOL0     H65460  10.306   7.535   1.798 -1.4952  0.5430 -0.1239
  485MOL0     H65461  10.048   7.661   1.833 -0.2341  1.3090 -1.5724
  485MOL0     H65462   9.801   7.632   1.885  0.8193 -0.3581  2.0951
  485MOL0     H65463   9.648   7.868   2.218  0.0403  0.1558 -0.1004
  485MOL0     H65464   9.502   7.783   2.157  0.1755 -1.2039 -0.0935
  485MOL0     H65465   9.602   8.061   2.084 -0.5937  0.7345  0.5830
  485MOL0     H65466   9.465   8.010   2.187  2.5046  2.2322  1.3652
  485MOL0     H65467   9.337   7.902   1.984 -1.6468  0.2902 -1.6397
  485MOL0     H65468   9.480   7.908   1.888  1.3282  0.6182  1.5368
  485MOL0     H65469   9.368   8.173   1.996 -1.7981 -2.1289  1.1243
  485MOL0     H65470   9.475   8.135   1.859 -0.6966  1.3288 -0.0317
  485MOL0     H65471   9.099   8.138   1.693  0.0431  0.7786  1.4510
  485MOL0     H65472   9.824   7.970   2.146 -0.5122 -0.2943  0.2760
  485MOL0     H65473  10.133   7.998   2.215  1.3014 -0.5607 -0.9846
  485MOL0     H65474  10.169   8.082   2.059  0.3166  0.3193  0.5852
  485MOL0     H65475  10.019   8.115   2.146 -4.1791 -3.1093 -1.1902
  486MOL0     O65476   7.800   9.799   9.450  0.0249  0.2334 -0.3074
  486MOL0     C65477   7.778   9.899   9.521  0.6760 -1.4482  0.0906
  486MOL0     O65478   7.859  10.015   9.527  0.2138  0.6987 -0.1377
  486MOL0     C65479   7.996  10.008   9.514 -0.5662 -0.5058  0.1376
  486MOL0     C65480   8.068   9.891   9.523  0.1956 -0.8347 -0.3649
  486MOL0     C65481   8.205   9.877   9.504 -0.1241 -0.3484 -0.6856
  486MOL0     C65482   8.283   9.991   9.472 -0.8908  0.5704 -0.2085
  486MOL0     O65483   8.418   9.971   9.452 -0.2466  0.4556 -0.6432
  486MOL0     C65484   8.506  10.079   9.423 -0.1162 -0.6506  0.9149
  486MOL0     C65485   8.523  10.096   9.273  0.6686 -0.1442  0.4512
  486MOL0     C65486   8.582  10.238   9.236 -0.1241 -0.5379  0.4809
  486MOL0     C65487   8.733  10.234   9.237 -0.0345  0.4881  0.4866
  486MOL0     C65488   8.783  10.377   9.214 -0.5190 -0.0826  0.1428
  486MOL0     C65489   8.935  10.390   9.229  0.8401 -0.6462 -0.0448
  486MOL0     C65490   8.970  10.536   9.245  0.1263 -0.8690  0.5971
  486MOL0     C65491   9.124  10.565   9.232 -0.2920  0.5880 -0.7738
  486MOL0     N65492   9.178  10.704   9.245  0.3674 -0.0866 -0.0757
  486MOL0     C65493   9.115  10.822   9.295 -0.3850 -0.3953 -1.2093
  486MOL0     C65494   9.193  10.927   9.248 -0.4955 -0.4475 -0.7407
  486MOL0     C65495   9.164  11.070   9.265 -0.0085 -0.2248 -0.0601
  486MOL0     C65496   9.069  11.126   9.155 -0.3263  0.2164 -0.0059
  486MOL0     C65497   9.112  11.077   9.015 -0.2546 -0.6902 -0.0909
  486MOL0     C65498   9.028  11.156   8.913  0.7072  0.4883 -0.1559
  486MOL0     O65499   9.021  11.297   8.926  0.1504  0.1325 -0.3004
  486MOL0     C65500   9.118  11.374   8.886 -1.2458 -0.3711  0.8545
  486MOL0     C65501   9.243  11.329   8.847 -0.5092  0.6901 -0.5305
  486MOL0     C65502   9.334  11.428   8.816 -0.5413  0.1461  0.2966
  486MOL0     C65503   9.305  11.565   8.809 -0.1343 -0.5374  0.2035
  486MOL0     C65504   9.407  11.659   8.759 -1.2182  0.1184 -0.4369
  486MOL0     O65505   9.364  11.764   8.684  0.0458  0.1582  0.2885
  486MOL0     C65506   9.455  11.855   8.661  0.7052  0.8034 -0.0160
  486MOL0     C65507   9.472  11.956   8.750  0.3046  0.1598 -0.0405
  486MOL0     C65508   9.568  12.052   8.728  0.4145  0.0620  0.4050
  486MOL0     C65509   9.642  12.048   8.612 -0.5804 -0.9110  0.2432
  486MOL0     O65510   9.721  12.143   8.555  0.1154 -0.8564 -0.1869
  486MOL0     C65511   9.740  12.267   8.628  0.1465 -0.1369 -0.3658
  486MOL0     C65512   9.842  12.354   8.558 -0.4838 -0.4316  0.0847
  486MOL0     C65513   9.987  12.295   8.570  0.1261 -0.0221  0.7032
  486MOL0     C65514  10.082  12.405   8.523  1.2065 -0.5502  0.1070
  486MOL0     C65515  10.214  12.360   8.491  0.3909 -0.2167 -0.1148
  486MOL0     C65516  10.305  12.458   8.423  0.2097 -0.3241 -0.4551
  486MOL0     C65517  10.429  12.397   8.358 -0.6220  0.1395  0.0815
  486MOL0     C65518  10.496  12.486   8.250  0.1311 -0.3326 -0.6862
  486MOL0    Cl65519  10.393  12.501   8.107 -0.6860 -0.0056  0.4100
  486MOL0     C65520   9.622  11.945   8.525 -0.3034  0.7515 -0.3301
  486MOL0     C65521   9.532  11.845   8.547  0.5009 -0.3847 -0.6468
  486MOL0     O65522   9.523  11.622   8.778  0.1170  0.0878 -0.4066
  486MOL0     C65523   9.175  11.605   8.847 -0.5446  0.0725 -0.0440
  486MOL0     C65524   9.079  11.515   8.891  0.7197 -0.4552 -0.1684
  486MOL0     N65525   9.297  10.870   9.183 -0.6342  0.3266  0.2031
  486MOL0     N65526   9.282  10.747   9.173 -0.1874  1.1181 -0.3761
  486MOL0     C65527   8.216  10.119   9.462  0.6430 -0.1457 -0.4584
  486MOL0     C65528   8.078  10.127   9.497  0.4298  0.4117 -0.2906
  486MOL0     C65529   7.643   9.892   9.591 -0.0042 -0.3390  0.0773
  486MOL0     C65530   7.535   9.809   9.553  0.2302  0.0683  0.0053
  486MOL0     C65531   7.419   9.795   9.635 -0.3493  0.6253 -0.8721
  486MOL0     C65532   7.408   9.870   9.756  0.1483  0.0053  0.8763
  486MOL0     O65533   7.304   9.859   9.837 -0.4293 -1.0100  0.8420
  486MOL0     C65534   7.229   9.739   9.836  0.5935  0.1881  0.8235
  486MOL0     C65535   7.208   9.679   9.971  0.6415  0.0862 -0.1088
  486MOL0     C65536   7.347   9.626  10.012  0.0214  0.2382  0.8091
  486MOL0     C65537   7.356   9.574  10.154 -0.0521 -0.2636  0.3785
  486MOL0     C65538   7.498   9.529  10.186 -0.0288  0.0292  0.0431
  486MOL0     C65539   7.607   9.485  10.215 -0.2602 -0.6454  0.2095
  486MOL0     C65540   7.510   9.959   9.785 -0.0183  0.4024 -0.2440
  486MOL0     C65541   7.634   9.963   9.716 -0.0192 -0.7429  0.6974
  486MOL0     C65542   7.746  10.050   9.777  0.7728  0.5254  0.7477
  486MOL0     H65543   8.017   9.796   9.541  0.0432 -0.5672  0.6502
  486MOL0     H65544   8.261   9.785   9.521  1.9289  0.7474 -1.1743
  486MOL0     H65545   8.469  10.173   9.465  0.9764  0.6929 -0.9143
  486MOL0     H65546   8.602  10.059   9.472  1.5888  0.6619 -1.6117
  486MOL0     H65547   8.423  10.090   9.229 -0.2100  0.7148  2.2275
  486MOL0     H65548   8.588  10.012   9.245 -0.9101 -1.9266  1.9152
  486MOL0     H65549   8.553  10.312   9.312 -0.3153 -0.9443  0.8067
  486MOL0     H65550   8.545  10.267   9.137  0.2609  1.0873  0.7901
  486MOL0     H65551   8.773  10.207   9.335 -2.3152  0.7419  1.5494
  486MOL0     H65552   8.778  10.162   9.167 -0.5410 -0.6873  1.3369
  486MOL0     H65553   8.752  10.414   9.116 -0.9785 -0.2157  0.2378
  486MOL0     H65554   8.746  10.442   9.294 -0.2209 -1.0333  1.0800
  486MOL0     H65555   8.973  10.330   9.313  3.4922  0.7652 -0.1382
  486MOL0     H65556   8.979  10.363   9.133 -0.7982 -2.5736 -0.3190
  486MOL0     H65557   8.936  10.579   9.339  0.0433 -0.3856  0.3541
  486MOL0     H65558   8.927  10.593   9.161  0.0577  1.4203  2.0992
  486MOL0     H65559   9.169  10.500   9.308 -1.3229  1.7476  0.8919
  486MOL0     H65560   9.158  10.525   9.135  1.5764  0.5273 -0.1329
  486MOL0     H65561   9.031  10.816   9.364 -1.1631 -1.2059 -2.1947
  486MOL0     H65562   9.113  11.083   9.361  1.0669 -0.0609  0.5160
  486MOL0     H65563   9.259  11.125   9.263  0.1826 -0.5551 -0.1610
  486MOL0     H65564   8.962  11.111   9.170 -0.9537 -0.4950 -4.0222
  486MOL0     H65565   9.097  11.231   9.161 -1.8353  0.6605 -0.3050
  486MOL0     H65566   9.078  10.974   9.010  2.9812 -1.8916  0.1085
  486MOL0     H65567   9.220  11.082   8.995  0.3395  1.9537  2.8455
  486MOL0     H65568   8.926  11.116   8.920  0.8304  0.3434  1.1539
  486MOL0     H65569   9.061  11.139   8.811 -0.9510  0.4987 -0.7170
  486MOL0     H65570   9.262  11.222   8.855  2.8759  1.2250 -0.2046
  486MOL0     H65571   9.432  11.386   8.796 -1.3823 -2.0899  0.6171
  486MOL0     H65572   9.401  11.961   8.832 -1.2268 -1.1925 -1.2236
  486MOL0     H65573   9.568  12.141   8.789 -4.3321  0.7496 -0.2502
  486MOL0     H65574   9.645  12.320   8.637  0.5170  0.5665 -0.5558
  486MOL0     H65575   9.779  12.247   8.728  0.5931  1.2494 -0.2358
  486MOL0     H65576   9.815  12.354   8.452 -1.1352 -2.3032  0.2215
  486MOL0     H65577   9.846  12.449   8.612  0.6095 -1.4983  1.9954
  486MOL0     H65578  10.010  12.248   8.666 -2.6962  0.7340  1.8625
  486MOL0     H65579   9.989  12.214   8.496  0.2130 -0.1410  0.8354
  486MOL0     H65580  10.100  12.473   8.607 -0.2220  1.9344 -1.4547
  486MOL0     H65581  10.042  12.456   8.435  1.5808  0.6053  0.5848
  486MOL0     H65582  10.194  12.287   8.412 -0.3641  0.1000 -0.2238
  486MOL0     H65583  10.256  12.313   8.581  0.4976 -0.3988 -0.2587
  486MOL0     H65584  10.237  12.507   8.352  0.5308 -0.9911 -1.2322
  486MOL0     H65585  10.326  12.535   8.498 -0.2991  0.3343 -0.9748
  486MOL0     H65586  10.397  12.307   8.305 -0.1904  0.6178 -1.0258
  486MOL0     H65587  10.497  12.370   8.439 -0.9577 -0.2031  0.2564
  486MOL0     H65588  10.540  12.582   8.279  1.0075  0.1583 -3.3679
  486MOL0     H65589  10.583  12.430   8.217  0.1974 -0.8028  0.2529
  486MOL0     H65590   9.678  11.931   8.433  2.5405  0.0153  1.3771
  486MOL0     H65591   9.510  11.783   8.461 -1.0047 -0.0646 -0.5136
  486MOL0     H65592   9.147  11.709   8.841 -0.3423  0.2928  1.9621
  486MOL0     H65593   8.980  11.550   8.919  1.5669  0.0544  2.5133
  486MOL0     H65594   8.254  10.211   9.418 -0.6954  0.9844  0.6523
  486MOL0     H65595   8.017  10.215   9.481  3.0671  2.9591  2.4782
  486MOL0     H65596   7.541   9.747   9.465 -0.9516  0.2122 -0.1942
  486MOL0     H65597   7.343   9.723   9.608 -2.7923  2.2104  1.3070
  486MOL0     H65598   7.273   9.661   9.774  0.3796 -0.0665  0.9865
  486MOL0     H65599   7.126   9.758   9.804 -0.2727  0.4145  3.4537
  486MOL0     H65600   7.133   9.601   9.980  0.2789  0.5537  1.1882
  486MOL0     H65601   7.184   9.754  10.047  0.7297  0.3495 -0.3384
  486MOL0     H65602   7.422   9.706  10.010  0.2698 -0.0041  0.4613
  486MOL0     H65603   7.373   9.556   9.933  0.4641  2.2283 -0.9124
  486MOL0     H65604   7.321   9.646  10.229 -0.3136  0.2130 -0.1958
  486MOL0     H65605   7.294   9.485  10.142 -1.2096  0.8165 -2.4322
  486MOL0     H65606   7.709   9.457  10.234  0.5829  2.0245  0.0368
  486MOL0     H65607   7.495  10.019   9.874 -0.5878 -1.1327  0.7387
  486MOL0     H65608   7.709  10.090   9.872 -0.7772  1.0715 -0.0500
  486MOL0     H65609   7.841   9.999   9.789  1.7042  1.4636 -1.8251
  486MOL0     H65610   7.762  10.136   9.711 -3.9429 -0.8227 -2.7135
  487MOL0     O65611   4.813   0.634  10.319 -1.0100 -0.5505  0.4392
  487MOL0     C65612   4.800   0.568  10.421 -0.7794  1.0804 -0.5399
  487MOL0     O65613   4.905   0.544  10.508  0.4881  0.3294  0.3686
  487MOL0     C65614   5.040   0.576  10.491  0.3412 -0.4568  0.3593
  487MOL0     C65615   5.133   0.496  10.555  0.0364 -0.1398 -0.5031
  487MOL0     C65616   5.269   0.502  10.536  0.6774 -0.0572  0.9979
  487MOL0     C65617   5.322   0.605  10.450 -0.8544  0.7299 -0.8016
  487MOL0     O65618   5.461   0.628  10.428  0.4601 -0.5242  0.7307
  487MOL0     C65619   5.544   0.527  10.477 -0.3613 -0.9756 -0.2094
  487MOL0     C65620   5.691   0.553  10.434 -0.0066  1.1444 -0.3511
  487MOL0     C65621   5.772   0.425  10.457 -1.0197 -0.5266 -0.2051
  487MOL0     C65622   5.919   0.462  10.454 -0.1746 -0.0949 -0.6439
  487MOL0     C65623   6.004   0.361  10.524  0.8238  0.4840 -0.2041
  487MOL0     C65624   6.154   0.405  10.536 -0.0043 -0.5398  0.5304
  487MOL0     C65625   6.234   0.295  10.603 -0.5209 -0.6764  1.0420
  487MOL0     C65626   6.381   0.331  10.615 -0.0369 -0.0076 -0.1062
  487MOL0     N65627   6.464   0.336  10.493  0.2908 -0.6123  0.1346
  487MOL0     C65628   6.536   0.231  10.440 -1.1177 -0.0780  0.1864
  487MOL0     C65629   6.616   0.292  10.347 -0.1791 -0.9345 -0.0177
  487MOL0     C65630   6.695   0.208  10.249  0.1402 -0.7472 -0.1446
  487MOL0     C65631   6.779   0.295  10.153 -0.0540 -0.4948 -0.1182
  487MOL0     C65632   6.856   0.200  10.056  0.5814 -0.2572 -1.2020
  487MOL0     C65633   6.944   0.280   9.964 -0.4058  0.3155 -0.7413
  487MOL0     O65634   6.877   0.373   9.880 -0.3115  0.1264 -0.7244
  487MOL0     C65635   6.945   0.437   9.776  0.2294 -0.0594  0.0183
  487MOL0     C65636   6.879   0.545   9.724  0.9348 -0.3227  0.4037
  487MOL0     C65637   6.949   0.629   9.633 -0.0666  0.8313  0.6958
  487MOL0     C65638   7.085   0.596   9.595  0.5967 -0.7111  0.1350
  487MOL0     C65639   7.159   0.679   9.498  0.7920  0.5312 -1.1155
  487MOL0     O65640   7.287   0.633   9.455  0.3113 -0.5663  0.0032
  487MOL0     C65641   7.377   0.721   9.407  0.0958 -0.1193 -0.1962
  487MOL0     C65642   7.394   0.850   9.466  0.1462 -0.2078 -0.6500
  487MOL0     C65643   7.500   0.929   9.436  0.1115 -0.1469  0.1124
  487MOL0     C65644   7.571   0.896   9.325  0.0091 -0.7166 -0.2294
  487MOL0     O65645   7.662   0.995   9.288 -0.7204  0.1705  0.0625
  487MOL0     C65646   7.731   0.986   9.163 -0.7257  0.0598 -0.4024
  487MOL0     C65647   7.859   1.068   9.145 -1.2126  0.8608 -0.3577
  487MOL0     C65648   7.958   1.050   9.260  0.4092  0.1524 -0.2259
  487MOL0     C65649   8.092   1.122   9.231  0.0035 -0.1040 -0.1814
  487MOL0     C65650   8.189   1.125   9.362  0.1427 -0.1810 -0.1121
  487MOL0     C65651   8.326   1.176   9.330 -0.7734 -0.3418 -0.4301
  487MOL0     C65652   8.408   1.171   9.469  0.2669 -0.6320  0.4767
  487MOL0     C65653   8.444   1.315   9.521  0.0882  0.1359  0.3870
  487MOL0    Cl65654   8.587   1.369   9.422 -0.4319 -0.3916 -0.4707
  487MOL0     C65655   7.544   0.777   9.254  0.4903  0.4417 -0.6553
  487MOL0     C65656   7.454   0.689   9.306 -0.1060  0.8099  0.3545
  487MOL0     O65657   7.094   0.771   9.449  0.8422 -0.4422 -0.1907
  487MOL0     C65658   7.150   0.489   9.651  0.7299  1.0745  0.0155
  487MOL0     C65659   7.080   0.413   9.746  0.3194 -0.1590  0.3101
  487MOL0     N65660   6.604   0.429  10.352  1.0210  0.0865  0.6116
  487MOL0     N65661   6.508   0.453  10.431 -0.0746  0.6336  0.0909
  487MOL0     C65662   5.235   0.689  10.392  0.0075 -0.2234  0.4578
  487MOL0     C65663   5.088   0.686  10.417  0.8201 -1.4963  0.3781
  487MOL0     C65664   4.667   0.523  10.458  0.9981  0.4079 -0.1449
  487MOL0     C65665   4.557   0.547  10.376  0.2307  0.1168  0.3962
  487MOL0     C65666   4.430   0.498  10.408 -0.1033 -0.6115  0.2737
  487MOL0     C65667   4.399   0.442  10.531  0.5330  0.1184  0.2179
  487MOL0     O65668   4.264   0.424  10.553 -0.3844 -0.5530 -0.3153
  487MOL0     C65669   4.228   0.336  10.669  0.7554 -0.7076  0.3214
  487MOL0     C65670   4.073   0.327  10.691  0.1734 -0.4529  0.6065
  487MOL0     C65671   4.003   0.316  10.551 -0.3314  0.4612  0.3276
  487MOL0     C65672   3.871   0.241  10.557 -0.0339 -0.3712 -0.8534
  487MOL0     C65673   3.757   0.327  10.615  0.8237  0.6596  0.2557
  487MOL0     C65674   3.670   0.381  10.672  0.3370 -0.3167 -0.2998
  487MOL0     C65675   4.507   0.416  10.611 -0.1684  0.4679 -0.2936
  487MOL0     C65676   4.639   0.454  10.580 -0.2942 -0.1219  0.0470
  487MOL0     C65677   4.741   0.404  10.683 -0.0951 -0.4442 -0.6503
  487MOL0     H65678   5.096   0.415  10.616  0.3725 -0.6226 -0.9276
  487MOL0     H65679   5.325   0.424  10.586 -0.2910 -0.9275  0.7578
  487MOL0     H65680   5.537   0.523  10.586 -3.7677 -2.3134 -0.3535
  487MOL0     H65681   5.529   0.425  10.440 -1.1811  0.0473 -2.9800
  487MOL0     H65682   5.728   0.639  10.490 -3.1896  0.9717  2.2893
  487MOL0     H65683   5.691   0.573  10.326 -1.5870 -0.1945 -0.6350
  487MOL0     H65684   5.762   0.344  10.385  3.9263 -1.7633  0.1467
  487MOL0     H65685   5.743   0.385  10.555  0.5456 -1.9141 -0.2558
  487MOL0     H65686   5.955   0.485  10.353 -2.1360  0.5330 -1.2477
  487MOL0     H65687   5.921   0.555  10.510  1.0843 -2.2529  3.2763
  487MOL0     H65688   5.962   0.346  10.624  1.2243  0.7957  0.0174
  487MOL0     H65689   5.996   0.265  10.473  0.7124  0.8690 -0.9203
  487MOL0     H65690   6.189   0.428  10.435  0.6942 -2.1226  0.3773
  487MOL0     H65691   6.168   0.499  10.589  2.8212 -0.4589 -0.2188
  487MOL0     H65692   6.224   0.208  10.537  1.1223  0.8299 -1.3467
  487MOL0     H65693   6.197   0.280  10.705  1.4937  0.9038  2.0874
  487MOL0     H65694   6.382   0.429  10.664 -0.7252  0.0352 -0.1749
  487MOL0     H65695   6.428   0.265  10.688  0.5640  0.4976 -0.0234
  487MOL0     H65696   6.525   0.125  10.457 -1.2926 -0.7480 -3.2837
  487MOL0     H65697   6.768   0.155  10.310 -0.9072 -0.1157  1.7515
  487MOL0     H65698   6.631   0.138  10.195 -3.3373  0.8397  1.5887
  487MOL0     H65699   6.713   0.354  10.088 -1.7276  0.2460  2.1368
  487MOL0     H65700   6.853   0.355  10.207  0.5105  0.1514 -1.5662
  487MOL0     H65701   6.777   0.150   9.999 -1.0321 -1.6385  2.0191
  487MOL0     H65702   6.904   0.116  10.106 -2.9744 -1.0633  1.2103
  487MOL0     H65703   6.993   0.201   9.906  0.8269  0.3157  0.2514
  487MOL0     H65704   7.029   0.317  10.022  1.6970 -0.8808 -2.8562
  487MOL0     H65705   6.777   0.567   9.756  0.4708  0.5255 -1.4979
  487MOL0     H65706   6.900   0.717   9.594  2.3616  1.3739 -1.3919
  487MOL0     H65707   7.337   0.873   9.556  2.4117 -2.5610  1.5785
  487MOL0     H65708   7.499   1.021   9.494 -0.6417 -0.4577  0.5978
  487MOL0     H65709   7.751   0.879   9.150  0.4713  0.3326 -0.9487
  487MOL0     H65710   7.662   1.005   9.080 -1.5252 -2.3663 -0.3802
  487MOL0     H65711   7.911   1.038   9.054 -0.8263 -1.8892  0.6733
  487MOL0     H65712   7.825   1.170   9.125  0.4728  2.1248  2.5070
  487MOL0     H65713   7.917   1.077   9.357 -0.4802 -1.8899  0.0263
  487MOL0     H65714   7.968   0.944   9.285 -4.1853  0.1166  2.6503
  487MOL0     H65715   8.061   1.220   9.195  0.2351  0.2301  0.5015
  487MOL0     H65716   8.146   1.072   9.150  1.6678  0.5536  0.4853
  487MOL0     H65717   8.206   1.023   9.397  3.6575  0.8039  1.5432
  487MOL0     H65718   8.151   1.196   9.437  0.7748 -0.5535  0.5758
  487MOL0     H65719   8.374   1.121   9.249 -0.4053  1.3734 -1.4265
  487MOL0     H65720   8.324   1.279   9.293  0.9122 -0.0973  0.0780
  487MOL0     H65721   8.500   1.112   9.459  2.1202  2.3170 -1.6611
  487MOL0     H65722   8.353   1.119   9.547 -1.2616  1.8372  1.1468
  487MOL0     H65723   8.366   1.391   9.520 -0.2439 -0.1826  1.1419
  487MOL0     H65724   8.475   1.302   9.625  1.1440  0.3867  0.1101
  487MOL0     H65725   7.593   0.744   9.163 -0.1200 -1.8713 -0.1986
  487MOL0     H65726   7.446   0.590   9.263 -2.9182  0.9816  0.2966
  487MOL0     H65727   7.253   0.463   9.630  0.9094  1.2075  0.6833
  487MOL0     H65728   7.134   0.327   9.786 -0.5463 -0.6341  0.4904
  487MOL0     H65729   5.279   0.771  10.336  0.0047  1.8031  3.1838
  487MOL0     H65730   5.027   0.763  10.372 -0.1311 -0.0878  3.7631
  487MOL0     H65731   4.574   0.591  10.278 -0.1610 -0.9609 -0.1724
  487MOL0     H65732   4.357   0.517  10.329  0.2747 -1.0646 -0.1936
  487MOL0     H65733   4.280   0.370  10.759  0.3585 -2.6776  1.3391
  487MOL0     H65734   4.265   0.240  10.633  1.4321  0.6610 -2.9649
  487MOL0     H65735   4.037   0.415  10.747 -0.2745  0.8644 -1.6071
  487MOL0     H65736   4.045   0.240  10.750 -1.1988  0.2432  1.0381
  487MOL0     H65737   4.070   0.249  10.496  0.3678  0.6613  0.9170
  487MOL0     H65738   3.984   0.413  10.503  1.8581 -0.0609 -1.8244
  487MOL0     H65739   3.844   0.210  10.456 -0.3108 -3.6057  0.1171
  487MOL0     H65740   3.885   0.148  10.613  1.6290  0.1432 -0.3573
  487MOL0     H65741   3.602   0.432  10.738 -1.2372 -0.4548 -1.7749
  487MOL0     H65742   4.485   0.373  10.709  1.1975 -0.5246 -0.3938
  487MOL0     H65743   4.801   0.489  10.716 -2.0028 -0.3163  2.9967
  487MOL0     H65744   4.692   0.365  10.773  1.4414  0.3471  0.5720
  487MOL0     H65745   4.807   0.323  10.650 -1.1497 -1.2168 -0.9371
  488MOL0     O65746  10.217   6.476   8.082 -1.1667  0.0619 -0.1936
  488MOL0     C65747  10.146   6.376   8.074  0.5682 -0.2027 -0.7736
  488MOL0     O65748  10.159   6.254   8.134  0.5900 -0.6498  0.0020
  488MOL0     C65749  10.278   6.221   8.204  0.3212 -0.3556  0.1744
  488MOL0     C65750  10.275   6.159   8.325 -0.4069  0.1044  0.2401
  488MOL0     C65751  10.386   6.144   8.399  0.0691  0.1030 -0.5814
  488MOL0     C65752  10.519   6.173   8.346  0.0732  0.8649 -0.2138
  488MOL0     O65753  10.633   6.152   8.411  0.5674  0.3730  0.2214
  488MOL0     C65754  10.627   6.105   8.548  0.3000  0.3379  0.1081
  488MOL0     C65755  10.600   6.218   8.645  1.1009 -0.2446  0.1960
  488MOL0     C65756  10.725   6.293   8.684  0.3108  0.2915 -0.2171
  488MOL0     C65757  10.805   6.218   8.787  0.5997 -0.2321  0.4430
  488MOL0     C65758  10.918   6.309   8.823 -1.5418 -1.1631  0.4341
  488MOL0     C65759  11.018   6.242   8.910  0.2974 -0.0609 -1.2644
  488MOL0     C65760  11.138   6.344   8.944  0.6646 -0.0302 -0.1104
  488MOL0     C65761  11.266   6.311   8.870  0.2006 -0.8227 -0.9796
  488MOL0     N65762  11.378   6.407   8.886 -0.3436 -0.4513  0.5047
  488MOL0     C65763  11.372   6.521   8.959  0.8437  0.6137  0.2394
  488MOL0     C65764  11.498   6.576   8.942 -0.0617 -0.1322 -0.2457
  488MOL0     C65765  11.553   6.697   9.018  0.2178 -0.0079 -0.2612
  488MOL0     C65766  11.510   6.831   8.949  0.0194 -0.3077  0.9010
  488MOL0     C65767  11.511   6.949   9.049  0.2712 -0.8324 -0.1438
  488MOL0     C65768  11.653   7.028   9.052  0.6380  0.1485 -0.4093
  488MOL0     O65769  11.768   6.943   9.064 -0.3193  0.0532  0.0867
  488MOL0     C65770  11.897   6.996   9.045  0.1997  0.9476 -0.1553
  488MOL0     C65771  11.925   7.138   9.051 -0.4039  0.1090 -0.1172
  488MOL0     C65772  12.045   7.186   8.999  0.0219  0.0529 -0.5034
  488MOL0     C65773  12.139   7.093   8.945  0.2087  0.0085  0.5079
  488MOL0     C65774  12.283   7.133   8.917 -0.0090 -0.2215  0.0711
  488MOL0     O65775  12.356   7.065   8.825 -0.2595  0.1076  0.5041
  488MOL0     C65776  12.489   7.039   8.838  0.1058  0.6084 -0.0553
  488MOL0     C65777  12.569   7.018   8.723  0.4645 -0.0691 -0.0433
  488MOL0     C65778  12.699   6.963   8.727  0.2504 -0.8655  0.8043
  488MOL0     C65779  12.752   6.919   8.849 -0.2289 -0.6498  0.1394
  488MOL0     O65780  12.887   6.886   8.841 -0.1894  0.5278 -0.1376
  488MOL0     C65781  12.971   6.917   8.964  0.4201 -0.0989 -0.0823
  488MOL0     C65782  13.120   6.875   8.942  0.5479 -0.3735 -0.1342
  488MOL0     C65783  13.201   6.872   9.068 -1.0409 -0.4135 -0.0747
  488MOL0     C65784  13.344   6.895   9.024 -0.0634  0.2141 -0.0383
  488MOL0     C65785  13.436   6.893   9.145 -0.3417  0.2021  0.0897
  488MOL0     C65786  13.574   6.876   9.095 -0.4335  0.1119  0.3306
  488MOL0     C65787  13.687   6.879   9.200 -0.1549  0.0022 -0.2708
  488MOL0     C65788  13.694   7.010   9.276 -0.2541  0.3828 -0.9073
  488MOL0    Cl65789  13.581   7.013   9.410 -0.0054 -0.1961 -0.1363
  488MOL0     C65790  12.670   6.932   8.963  0.9303 -0.3289 -0.8678
  488MOL0     C65791  12.544   6.995   8.961  0.3927  0.0784  0.4278
  488MOL0     O65792  12.325   7.230   8.979 -0.3731 -0.0519 -0.4015
  488MOL0     C65793  12.111   6.955   8.940 -0.0688 -0.8811 -0.5224
  488MOL0     C65794  11.987   6.909   8.993 -0.2087 -0.0283  0.1241
  488MOL0     N65795  11.574   6.488   8.859 -0.3921 -0.3452 -0.4762
  488MOL0     N65796  11.499   6.392   8.826  0.1922  0.2231  0.8287
  488MOL0     C65797  10.528   6.222   8.221 -0.6118 -0.4429 -0.8959
  488MOL0     C65798  10.412   6.253   8.149  0.4532 -0.4166 -0.4987
  488MOL0     C65799  10.021   6.384   7.992 -0.4452  0.5405 -0.4699
  488MOL0     C65800   9.961   6.505   8.010  0.8518 -0.2554 -0.1374
  488MOL0     C65801   9.848   6.537   7.945 -0.2399  0.2866 -0.2248
  488MOL0     C65802   9.775   6.435   7.880  0.1702 -0.3386 -0.0340
  488MOL0     O65803   9.663   6.471   7.818 -0.1607  0.8596  0.3094
  488MOL0     C65804   9.680   6.549   7.699 -0.2780  0.0618  0.3736
  488MOL0     C65805   9.566   6.524   7.609  0.5050 -0.0291 -0.1989
  488MOL0     C65806   9.433   6.608   7.647 -0.8553 -0.5059 -0.1921
  488MOL0     C65807   9.314   6.555   7.568  0.8442 -0.1948 -0.6200
  488MOL0     C65808   9.252   6.436   7.637  0.5083 -0.3667  0.6509
  488MOL0     C65809   9.212   6.328   7.680 -0.3249 -0.7815 -0.5862
  488MOL0     C65810   9.835   6.313   7.864 -0.2725 -0.0659 -0.6114
  488MOL0     C65811   9.956   6.280   7.925  0.2136 -0.0441  0.8071
  488MOL0     C65812  10.023   6.154   7.885  0.3500  0.1629  0.3172
  488MOL0     H65813  10.186   6.118   8.371 -0.6648  0.3938  0.0083
  488MOL0     H65814  10.365   6.107   8.499 -2.4927 -0.1498 -1.1396
  488MOL0     H65815  10.548   6.031   8.568 -0.2217  0.5811 -0.9374
  488MOL0     H65816  10.723   6.061   8.575 -0.5014 -0.6310  1.4702
  488MOL0     H65817  10.547   6.177   8.732  0.3921 -1.9801 -1.0025
  488MOL0     H65818  10.531   6.288   8.597  2.0040  0.9903  0.6470
  488MOL0     H65819  10.691   6.388   8.727  2.6875  0.7228  0.8780
  488MOL0     H65820  10.790   6.311   8.598  1.4179 -2.0541  0.0341
  488MOL0     H65821  10.748   6.186   8.875  0.4986 -3.9159 -0.8024
  488MOL0     H65822  10.843   6.122   8.750  0.5935  0.9440 -2.9476
  488MOL0     H65823  10.966   6.326   8.727 -4.2623 -1.8217 -1.1549
  488MOL0     H65824  10.885   6.405   8.864  1.6598 -0.2485  1.1420
  488MOL0     H65825  10.972   6.206   9.002 -1.0378  0.2876 -1.7693
  488MOL0     H65826  11.063   6.152   8.867  4.7280  0.6846  1.2508
  488MOL0     H65827  11.149   6.330   9.052  1.5696  0.2276 -0.1610
  488MOL0     H65828  11.104   6.446   8.925  0.8630  0.0995  0.2107
  488MOL0     H65829  11.304   6.214   8.903  0.0914 -0.3057  0.7754
  488MOL0     H65830  11.244   6.294   8.764 -0.3366 -1.0365 -0.8395
  488MOL0     H65831  11.284   6.537   9.020  0.3698 -0.0423 -0.2557
  488MOL0     H65832  11.529   6.685   9.124 -0.2382 -0.2732 -0.3955
  488MOL0     H65833  11.662   6.685   9.015  0.0249 -1.9283 -0.9684
  488MOL0     H65834  11.563   6.850   8.855 -3.6546 -0.5441 -1.4199
  488MOL0     H65835  11.403   6.824   8.926 -0.3270 -0.8930  2.5615
  488MOL0     H65836  11.483   6.921   9.151  1.0318 -2.4598 -0.3562
  488MOL0     H65837  11.444   7.026   9.007  1.2802  0.4376  0.5041
  488MOL0     H65838  11.653   7.099   9.135  0.7946 -0.1993 -0.1057
  488MOL0     H65839  11.659   7.082   8.957 -0.2947 -1.8464 -1.6830
  488MOL0     H65840  11.852   7.209   9.089  0.6321  1.8321 -1.2151
  488MOL0     H65841  12.068   7.288   9.029  0.1060 -0.0977 -0.0594
  488MOL0     H65842  12.512   7.025   8.631  0.8036 -0.9890 -0.3360
  488MOL0     H65843  12.765   6.950   8.642  0.0218 -0.6418  0.5904
  488MOL0     H65844  12.974   7.023   8.990  0.6175 -0.4238  1.2750
  488MOL0     H65845  12.926   6.866   9.050  1.1203  1.1934  1.1001
  488MOL0     H65846  13.112   6.776   8.897  0.0554 -0.5542  0.3498
  488MOL0     H65847  13.158   6.944   8.866 -1.1793 -0.8677 -1.5105
  488MOL0     H65848  13.165   6.945   9.142 -2.4766 -1.7416  0.5948
  488MOL0     H65849  13.194   6.768   9.100  2.7393 -0.1026  2.4381
  488MOL0     H65850  13.364   6.996   8.987  0.3730  1.5543  3.5189
  488MOL0     H65851  13.361   6.814   8.953 -4.5311  0.3756 -1.6138
  488MOL0     H65852  13.425   6.805   9.210 -0.7517  0.2673  0.1096
  488MOL0     H65853  13.418   6.984   9.203 -2.4098  0.3506 -0.7009
  488MOL0     H65854  13.583   6.782   9.041  0.3114  0.0610  0.5264
  488MOL0     H65855  13.599   6.959   9.027 -1.6344  0.5226  0.3672
  488MOL0     H65856  13.779   6.848   9.149 -1.2915 -0.9987 -1.8115
  488MOL0     H65857  13.661   6.798   9.269  0.0777 -0.0799 -0.2767
  488MOL0     H65858  13.796   7.028   9.309 -0.3768 -2.4525  1.3679
  488MOL0     H65859  13.666   7.088   9.205  1.1417  1.4040 -0.3600
  488MOL0     H65860  12.694   6.914   9.067 -2.8059  1.0260  0.3938
  488MOL0     H65861  12.487   7.005   9.052 -3.3903 -0.8706 -1.6467
  488MOL0     H65862  12.192   6.894   8.902  0.5710 -0.4361  0.1271
  488MOL0     H65863  11.978   6.801   8.992  1.4291 -0.2010  0.3617
  488MOL0     H65864  10.627   6.233   8.179 -0.3581 -0.3063 -0.2800
  488MOL0     H65865  10.426   6.309   8.058  0.0989  1.7579  0.7116
  488MOL0     H65866  10.007   6.590   8.058 -0.9016  0.6651 -0.0261
  488MOL0     H65867   9.824   6.642   7.931 -0.3529  0.2182 -0.5387
  488MOL0     H65868   9.768   6.513   7.646 -0.1895  0.0326  0.5377
  488MOL0     H65869   9.702   6.654   7.722  0.8685  0.3938 -1.9528
  488MOL0     H65870   9.532   6.422   7.628  1.1330  0.1045  1.8226
  488MOL0     H65871   9.590   6.530   7.502 -2.0345 -1.7584 -0.9408
  488MOL0     H65872   9.457   6.712   7.624  1.5926 -0.7185  1.0189
  488MOL0     H65873   9.421   6.598   7.755  1.3486 -3.2005 -0.0953
  488MOL0     H65874   9.238   6.632   7.579 -0.8085 -1.9503  1.1837
  488MOL0     H65875   9.337   6.535   7.463  0.9822 -0.5173 -0.5305
  488MOL0     H65876   9.193   6.228   7.713  2.7825 -1.0419  0.7552
  488MOL0     H65877   9.779   6.232   7.818 -1.2850  0.7278 -0.8134
  488MOL0     H65878   9.945   6.085   7.850  3.0552 -1.8994 -2.2680
  488MOL0     H65879  10.093   6.162   7.801 -2.2842 -1.4777 -2.2464
  488MOL0     H65880  10.065   6.102   7.971  0.6828  1.5764  1.0351
  489MOL0     O65881   8.103   3.671   5.883  0.1200  0.2111 -0.4667
  489MOL0     C65882   8.047   3.565   5.854  1.1152  0.1803 -0.9325
  489MOL0     O65883   8.106   3.449   5.846 -0.1103  0.4590 -0.2718
  489MOL0     C65884   8.230   3.427   5.896  0.1997 -0.5256 -0.4736
  489MOL0     C65885   8.285   3.477   6.017  0.7278  0.4883  0.2405
  489MOL0     C65886   8.414   3.455   6.045  0.0414 -0.0775 -0.9167
  489MOL0     C65887   8.497   3.382   5.957  1.1274 -0.0127  0.0559
  489MOL0     O65888   8.623   3.357   6.003  0.1806 -0.1188 -0.3601
  489MOL0     C65889   8.720   3.365   5.901  0.5601 -0.6249 -0.2887
  489MOL0     C65890   8.850   3.407   5.969 -0.4386  0.6009  0.0664
  489MOL0     C65891   8.934   3.296   6.027  0.3477  0.1704  0.1523
  489MOL0     C65892   9.056   3.350   6.094  0.5729  0.0328  0.4250
  489MOL0     C65893   9.130   3.230   6.157 -0.5544  0.2054  0.7734
  489MOL0     C65894   9.254   3.287   6.214  0.5171 -0.0593  0.4269
  489MOL0     C65895   9.372   3.309   6.112 -0.3465  0.2747 -0.5395
  489MOL0     C65896   9.496   3.337   6.200  0.1993  0.6416  0.6328
  489MOL0     N65897   9.614   3.355   6.112 -0.1567 -0.1899  0.2781
  489MOL0     C65898   9.636   3.459   6.020 -0.4079 -0.7751 -0.3389
  489MOL0     C65899   9.737   3.423   5.937  0.4375 -1.1394 -0.2957
  489MOL0     C65900   9.802   3.493   5.819 -0.2354  0.4788 -0.2881
  489MOL0     C65901   9.954   3.534   5.860  0.3235 -0.3275  0.1733
  489MOL0     C65902  10.016   3.584   5.722  0.3430 -0.5190  0.0154
  489MOL0     C65903  10.158   3.634   5.733  0.7924 -0.6311 -0.3809
  489MOL0     O65904  10.231   3.643   5.614 -0.2088  0.0779  0.5556
  489MOL0     C65905  10.341   3.721   5.600  0.9939  0.2130 -0.2420
  489MOL0     C65906  10.386   3.756   5.475  0.5160 -0.0416 -0.8969
  489MOL0     C65907  10.498   3.835   5.471  0.3186  0.2824  0.2268
  489MOL0     C65908  10.570   3.875   5.586 -0.5166  0.6908 -0.3072
  489MOL0     C65909  10.689   3.969   5.570 -0.3821  0.4653 -0.0480
  489MOL0     O65910  10.770   3.986   5.672 -0.4649  0.5185 -0.3292
  489MOL0     C65911  10.870   4.085   5.668  0.3601  1.1476  0.4919
  489MOL0     C65912  11.004   4.049   5.664  0.0061  0.6984  0.8254
  489MOL0     C65913  11.099   4.143   5.680  0.5312 -0.0325 -0.2572
  489MOL0     C65914  11.066   4.276   5.680 -0.7314 -0.7395 -0.0695
  489MOL0     O65915  11.164   4.377   5.688  0.0934  0.1768  0.0952
  489MOL0     C65916  11.304   4.352   5.656 -0.7302  0.2969  0.6454
  489MOL0     C65917  11.366   4.488   5.654 -0.4816 -0.0946 -0.0380
  489MOL0     C65918  11.317   4.566   5.530  0.6483  0.3092  0.3907
  489MOL0     C65919  11.349   4.715   5.519 -0.1243  0.4213 -0.3291
  489MOL0     C65920  11.279   4.773   5.405 -1.0036  0.2550  0.8119
  489MOL0     C65921  11.315   4.917   5.364  0.4032  0.3393 -0.0638
  489MOL0     C65922  11.462   4.924   5.313 -0.0387 -0.0208  0.0160
  489MOL0     C65923  11.529   5.060   5.349  0.6804 -0.0806  1.1115
  489MOL0    Cl65924  11.691   5.043   5.304  0.3434 -0.1315 -0.0018
  489MOL0     C65925  10.934   4.315   5.666 -0.1209  0.1404  0.6402
  489MOL0     C65926  10.832   4.218   5.667  0.0854 -0.7457 -0.5025
  489MOL0     O65927  10.687   4.034   5.475  0.9848  0.8869  0.5059
  489MOL0     C65928  10.529   3.823   5.714 -0.2510 -0.3078  0.6109
  489MOL0     C65929  10.412   3.751   5.715  0.4317  0.6046  0.5267
  489MOL0     N65930   9.778   3.297   5.971 -0.7173 -0.0511 -0.4785
  489MOL0     N65931   9.703   3.259   6.068 -0.6967  1.4953  0.6469
  489MOL0     C65932   8.441   3.325   5.841  0.7054 -0.4237  0.1047
  489MOL0     C65933   8.313   3.348   5.812  0.0640  0.3393  0.5586
  489MOL0     C65934   7.902   3.568   5.809  0.9314 -0.4258  0.8819
  489MOL0     C65935   7.857   3.468   5.721  0.4904 -0.2162 -0.0129
  489MOL0     C65936   7.730   3.472   5.667 -0.4790  0.2778 -0.2127
  489MOL0     C65937   7.639   3.574   5.693  0.4165  0.0598  0.1221
  489MOL0     O65938   7.515   3.564   5.631  0.2592  0.0649  0.1019
  489MOL0     C65939   7.408   3.647   5.666 -0.0552 -0.7900  0.3831
  489MOL0     C65940   7.280   3.585   5.617 -0.0544 -0.1916  0.7924
  489MOL0     C65941   7.251   3.613   5.468  0.4834 -0.4912 -0.1570
  489MOL0     C65942   7.106   3.564   5.440  0.0115 -0.1378 -0.3317
  489MOL0     C65943   7.014   3.644   5.516  0.5300  0.1322  0.1111
  489MOL0     C65944   6.929   3.707   5.573  0.2782  0.1680  0.1193
  489MOL0     C65945   7.680   3.678   5.773  0.0370 -1.1334 -0.9442
  489MOL0     C65946   7.807   3.669   5.840 -0.7352 -0.0207  0.4691
  489MOL0     C65947   7.848   3.785   5.923  0.3690 -0.0518  0.8927
  489MOL0     H65948   8.217   3.532   6.082 -0.2035  0.4962 -0.7176
  489MOL0     H65949   8.455   3.496   6.137  0.2569 -1.3761 -0.4227
  489MOL0     H65950   8.714   3.271   5.846  0.0031 -0.7713  0.0129
  489MOL0     H65951   8.696   3.442   5.828 -0.5111  1.2873  1.9446
  489MOL0     H65952   8.835   3.481   6.048  1.1633 -0.3961  1.3660
  489MOL0     H65953   8.910   3.457   5.893  1.4161 -2.0940 -0.3944
  489MOL0     H65954   8.961   3.227   5.947 -0.1743  1.2660 -1.0024
  489MOL0     H65955   8.879   3.239   6.103  0.2065 -0.6320 -0.5402
  489MOL0     H65956   9.111   3.391   6.009  0.7414 -0.0069  0.5151
  489MOL0     H65957   9.041   3.432   6.166 -2.4952  3.4070 -3.5156
  489MOL0     H65958   9.062   3.191   6.234 -1.4017  0.9107  0.4031
  489MOL0     H65959   9.157   3.159   6.078 -0.0157  1.5451 -0.2768
  489MOL0     H65960   9.228   3.379   6.267  1.2617 -0.3025  1.2315
  489MOL0     H65961   9.289   3.222   6.294  0.8232  1.5179  1.6128
  489MOL0     H65962   9.345   3.392   6.047 -1.1844  0.3481 -0.1102
  489MOL0     H65963   9.388   3.217   6.054 -2.2044 -0.5450  0.1484
  489MOL0     H65964   9.479   3.420   6.270  0.0518  0.3056  0.9993
  489MOL0     H65965   9.529   3.255   6.265 -0.1785 -1.1113 -1.2824
  489MOL0     H65966   9.568   3.543   6.012  0.0229 -0.2370  1.4186
  489MOL0     H65967   9.810   3.432   5.728  0.3040  3.3062 -2.2621
  489MOL0     H65968   9.741   3.581   5.796  1.3659  1.3242 -1.5003
  489MOL0     H65969   9.955   3.616   5.932  0.4824  1.8584 -2.1970
  489MOL0     H65970  10.014   3.449   5.894 -1.6800 -1.8801  0.0231
  489MOL0     H65971   9.948   3.650   5.668  1.1317  0.1268 -0.2036
  489MOL0     H65972  10.020   3.493   5.662  1.1933 -0.5022  0.0455
  489MOL0     H65973  10.219   3.579   5.805  2.3941  2.6524  0.9883
  489MOL0     H65974  10.140   3.734   5.774 -0.4061 -1.1875  0.5028
  489MOL0     H65975  10.332   3.734   5.383 -0.8591 -0.3286 -0.0627
  489MOL0     H65976  10.524   3.854   5.368  1.6170  1.3014  0.7129
  489MOL0     H65977  11.020   3.942   5.658 -1.6693  0.3204  2.3119
  489MOL0     H65978  11.203   4.115   5.685  1.0438  1.6880 -0.7257
  489MOL0     H65979  11.350   4.288   5.733  1.6883  0.9859 -0.1337
  489MOL0     H65980  11.313   4.303   5.559  2.1714 -2.1946  1.9599
  489MOL0     H65981  11.348   4.533   5.752  1.4737  0.3891  0.1463
  489MOL0     H65982  11.473   4.476   5.638 -0.2003 -0.4483  1.8407
  489MOL0     H65983  11.357   4.508   5.446  1.9053  0.0883  1.1248
  489MOL0     H65984  11.207   4.560   5.527  0.6475 -0.6767  1.4057
  489MOL0     H65985  11.457   4.734   5.512 -0.0755 -0.4002 -4.3206
  489MOL0     H65986  11.304   4.765   5.605 -2.1090  1.1202 -1.7212
  489MOL0     H65987  11.172   4.759   5.422 -1.1414 -0.0604 -0.2429
  489MOL0     H65988  11.302   4.706   5.321 -0.8629  1.9780 -0.5999
  489MOL0     H65989  11.244   4.950   5.287  0.7456  1.5102  0.1022
  489MOL0     H65990  11.299   4.985   5.448 -0.6546 -0.3788  0.3391
  489MOL0     H65991  11.463   4.913   5.205  1.8598 -0.1450  0.0013
  489MOL0     H65992  11.527   4.848   5.358  0.7315 -0.4434 -1.7331
  489MOL0     H65993  11.481   5.141   5.294 -0.1962  0.0363  2.0012
  489MOL0     H65994  11.516   5.070   5.457 -0.9277 -0.3498  0.9639
  489MOL0     H65995  10.917   4.422   5.657 -0.0773  0.3903  2.9488
  489MOL0     H65996  10.727   4.244   5.659  0.2158 -0.0264  0.0735
  489MOL0     H65997  10.581   3.855   5.804 -2.9475  1.2988  1.7485
  489MOL0     H65998  10.386   3.716   5.814  2.4364  2.6961  1.9051
  489MOL0     H65999   8.493   3.251   5.781 -0.4536 -2.0099  0.9819
  489MOL0     H66000   8.264   3.297   5.729  0.4641  1.0653 -0.1404
  489MOL0     H66001   7.922   3.384   5.697  0.1790  0.3115 -3.1558
  489MOL0     H66002   7.715   3.381   5.609 -1.1689 -0.5066  1.1665
  489MOL0     H66003   7.416   3.750   5.629  3.5984 -1.9788 -2.9531
  489MOL0     H66004   7.388   3.663   5.772 -3.2818  1.1680 -0.3895
  489MOL0     H66005   7.198   3.613   5.684 -0.9645 -0.4964 -0.1663
  489MOL0     H66006   7.302   3.478   5.628  2.0937  0.1152  0.0040
  489MOL0     H66007   7.329   3.560   5.412  3.5186  1.5185  1.8952
  489MOL0     H66008   7.264   3.718   5.442 -1.0340  0.1820  1.5930
  489MOL0     H66009   7.084   3.584   5.335 -0.5205 -0.0894 -0.2119
  489MOL0     H66010   7.097   3.460   5.472  0.8987 -0.8363 -2.2502
  489MOL0     H66011   6.848   3.751   5.627 -0.9762  0.1420 -1.6423
  489MOL0     H66012   7.610   3.758   5.791  0.7039 -0.1807 -2.4631
  489MOL0     H66013   7.923   3.849   5.875 -1.4446  1.6419  0.1602
  489MOL0     H66014   7.764   3.855   5.931  0.0282 -0.1847 -0.9489
  489MOL0     H66015   7.892   3.757   6.018  1.0774 -0.8177  0.3518
  490MOL0     O66016  10.393   2.341   3.499  0.3282  0.6244 -0.3160
  490MOL0     C66017  10.397   2.218   3.514 -0.4526 -0.0727 -0.2007
  490MOL0     O66018  10.502   2.139   3.492 -0.3498  0.2560 -0.1849
  490MOL0     C66019  10.605   2.204   3.424 -0.2501  0.1320  0.7046
  490MOL0     C66020  10.618   2.195   3.284  0.6484 -0.2624  0.3898
  490MOL0     C66021  10.732   2.253   3.219  0.4983  0.9152  0.3635
  490MOL0     C66022  10.822   2.337   3.288  1.2264 -0.1051 -0.1195
  490MOL0     O66023  10.932   2.394   3.236  0.6148  0.3301  0.8922
  490MOL0     C66024  10.964   2.369   3.095 -0.5421  0.5497 -0.5119
  490MOL0     C66025  11.043   2.241   3.089 -1.0440 -0.6039 -0.2744
  490MOL0     C66026  11.167   2.242   3.183  0.4815 -0.2230  0.2040
  490MOL0     C66027  11.255   2.126   3.154 -0.4196 -0.2195 -0.7040
  490MOL0     C66028  11.354   2.087   3.271 -0.7238 -0.9497  0.9277
  490MOL0     C66029  11.472   2.181   3.292 -0.1351  0.1593 -0.0099
  490MOL0     C66030  11.571   2.134   3.392 -0.4956 -0.8173  0.1073
  490MOL0     C66031  11.684   2.241   3.397  0.9776  0.0745 -0.9087
  490MOL0     N66032  11.805   2.209   3.476  0.0061 -0.4293 -0.1261
  490MOL0     C66033  11.881   2.095   3.475 -0.5754 -0.2779 -0.1175
  490MOL0     C66034  11.953   2.100   3.594 -0.8420 -0.5955 -0.5094
  490MOL0     C66035  12.070   2.005   3.607  0.5291 -0.0175 -0.2099
  490MOL0     C66036  12.013   1.889   3.688 -0.2690  0.4790 -0.7093
  490MOL0     C66037  12.125   1.786   3.737  0.1224 -0.7959 -0.2190
  490MOL0     C66038  12.203   1.710   3.632 -0.7286 -0.2871 -0.2282
  490MOL0     O66039  12.296   1.805   3.571 -0.1213  0.2096 -0.0896
  490MOL0     C66040  12.397   1.856   3.641 -0.8664  0.4148 -0.1036
  490MOL0     C66041  12.441   1.975   3.591 -0.1303 -0.3458 -0.1071
  490MOL0     C66042  12.538   2.045   3.665  0.4351 -0.7061  0.1180
  490MOL0     C66043  12.597   1.998   3.783  0.6311 -0.6950  0.2446
  490MOL0     C66044  12.695   2.072   3.856 -0.2285  0.3974  0.3147
  490MOL0     O66045  12.719   2.196   3.809  0.0825 -0.2343  0.3986
  490MOL0     C66046  12.813   2.277   3.860 -0.7186 -0.1794  1.1957
  490MOL0     C66047  12.828   2.305   3.991 -0.3821  0.6536 -0.4061
  490MOL0     C66048  12.907   2.406   4.031  0.2327  0.8755  0.3818
  490MOL0     C66049  12.982   2.479   3.937  0.2281  0.1828 -0.1337
  490MOL0     O66050  13.072   2.573   3.977  0.4936  0.9231  0.2787
  490MOL0     C66051  13.086   2.611   4.115 -0.9118  0.6807  0.3207
  490MOL0     C66052  13.198   2.718   4.121  0.4400  0.9190  0.4230
  490MOL0     C66053  13.182   2.821   4.234 -1.1790 -0.8811  0.3595
  490MOL0     C66054  13.300   2.927   4.244  0.4891 -0.3978 -0.2939
  490MOL0     C66055  13.260   3.024   4.359 -0.4704 -0.2119 -0.3889
  490MOL0     C66056  13.371   3.114   4.402  0.4569 -0.0763  0.5217
  490MOL0     C66057  13.401   3.217   4.293  0.2729  0.2230  0.1469
  490MOL0     C66058  13.516   3.303   4.343  0.5988  0.2486 -0.5426
  490MOL0    Cl66059  13.671   3.236   4.280  0.0477  0.1436  0.0971
  490MOL0     C66060  12.970   2.450   3.800  0.4147  0.2159  0.6551
  490MOL0     C66061  12.883   2.348   3.760  0.0677 -0.0300 -0.8484
  490MOL0     O66062  12.752   2.016   3.949 -0.2618  0.3940 -0.4106
  490MOL0     C66063  12.549   1.872   3.828 -0.4663 -0.0050  0.4136
  490MOL0     C66064  12.445   1.803   3.762  0.2661  0.2920  0.2597
  490MOL0     N66065  11.920   2.217   3.662 -0.4029  0.1518  0.6691
  490MOL0     N66066  11.838   2.288   3.586  0.5598 -0.6671 -0.1466
  490MOL0     C66067  10.811   2.340   3.429 -0.0466  0.1302  0.1773
  490MOL0     C66068  10.700   2.274   3.494 -0.2905 -0.4176  0.4051
  490MOL0     C66069  10.284   2.165   3.576  0.4655  0.1619  0.1596
  490MOL0     C66070  10.199   2.094   3.496  0.5657 -0.2957 -0.0311
  490MOL0     C66071  10.090   2.035   3.551  0.5104  0.1697 -0.1843
  490MOL0     C66072  10.052   2.053   3.683 -0.2582 -0.7363 -0.3486
  490MOL0     O66073   9.935   2.016   3.741 -0.7716 -0.3601  0.9003
  490MOL0     C66074   9.819   1.983   3.670  0.2465 -0.0704  0.5868
  490MOL0     C66075   9.768   2.114   3.599  0.7128 -0.1711 -0.3856
  490MOL0     C66076   9.617   2.111   3.571 -0.5736  0.0323 -0.7361
  490MOL0     C66077   9.562   2.226   3.481 -0.6198  0.3053 -0.6129
  490MOL0     C66078   9.579   2.352   3.547 -0.0461  0.0237  0.0628
  490MOL0     C66079   9.581   2.458   3.599  0.6608  0.1899  0.0359
  490MOL0     C66080  10.145   2.108   3.766  0.6582 -0.0660  0.2737
  490MOL0     C66081  10.257   2.169   3.713 -0.3841  0.1365 -0.4727
  490MOL0     C66082  10.346   2.246   3.811  0.6581 -0.1538 -0.1551
  490MOL0     H66083  10.546   2.132   3.233  0.7941 -0.7187  0.7280
  490MOL0     H66084  10.751   2.226   3.116 -1.9656 -2.8775  0.7351
  490MOL0     H66085  10.875   2.363   3.032 -0.7939  2.0803 -0.3467
  490MOL0     H66086  11.016   2.459   3.062  0.9222  0.0762  0.3856
  490MOL0     H66087  11.065   2.210   2.987  0.4191  2.2663 -0.9347
  490MOL0     H66088  10.975   2.172   3.140 -0.3003  0.0097  1.6633
  490MOL0     H66089  11.129   2.232   3.285  0.6994  0.7530  0.3915
  490MOL0     H66090  11.224   2.335   3.172  3.1637 -1.8868 -0.9580
  490MOL0     H66091  11.188   2.044   3.127  0.1386 -1.0167  0.2672
  490MOL0     H66092  11.310   2.133   3.060  0.2527 -1.1563 -0.3920
  490MOL0     H66093  11.293   2.082   3.362  0.9933 -1.1424  2.1115
  490MOL0     H66094  11.397   1.991   3.242  0.2309  0.2245 -1.9737
  490MOL0     H66095  11.523   2.189   3.196  3.7120 -1.0628  1.7601
  490MOL0     H66096  11.435   2.282   3.315 -2.0417 -0.6846  0.8978
  490MOL0     H66097  11.614   2.036   3.368 -1.5871 -1.6571  1.4265
  490MOL0     H66098  11.535   2.134   3.495 -0.3995  2.1578  0.2310
  490MOL0     H66099  11.713   2.239   3.291 -0.1031  0.3327 -1.2181
  490MOL0     H66100  11.644   2.339   3.424 -3.8844 -1.6248 -0.9780
  490MOL0     H66101  11.881   2.015   3.402  0.6796 -0.1433 -0.2783
  490MOL0     H66102  12.108   1.972   3.510  1.8244  1.0962 -0.1113
  490MOL0     H66103  12.154   2.058   3.653  0.4559  1.8298 -2.0503
  490MOL0     H66104  11.980   1.926   3.785 -0.8241 -0.8291 -0.3748
  490MOL0     H66105  11.933   1.837   3.634  2.2548 -2.4444 -1.9645
  490MOL0     H66106  12.057   1.714   3.784  0.7615 -0.1670  1.7628
  490MOL0     H66107  12.183   1.834   3.816 -0.7720  0.8401 -0.5139
  490MOL0     H66108  12.136   1.666   3.559 -0.4525 -0.9160 -0.1051
  490MOL0     H66109  12.251   1.619   3.669 -0.0826  0.2168  0.2158
  490MOL0     H66110  12.405   2.016   3.497  0.0237 -0.8162 -0.3749
  490MOL0     H66111  12.585   2.128   3.613  1.1579 -1.3860 -0.3273
  490MOL0     H66112  12.772   2.247   4.064 -0.2451  0.4958 -0.4258
  490MOL0     H66113  12.918   2.436   4.135  1.5364  0.5849  0.3454
  490MOL0     H66114  12.991   2.648   4.154 -0.1990  0.2503  2.5854
  490MOL0     H66115  13.115   2.522   4.171  0.3597  0.7387 -0.2095
  490MOL0     H66116  13.289   2.661   4.141 -0.9763 -1.9139 -0.5823
  490MOL0     H66117  13.205   2.763   4.021 -0.6331 -0.8674 -0.5226
  490MOL0     H66118  13.089   2.875   4.215 -0.2326  0.1610 -1.6455
  490MOL0     H66119  13.169   2.773   4.331 -1.1055  1.3528  1.5403
  490MOL0     H66120  13.313   2.969   4.143  0.9427 -2.9760 -1.3900
  490MOL0     H66121  13.389   2.870   4.271 -0.6294 -1.7539  0.6392
  490MOL0     H66122  13.240   2.963   4.448  0.8275 -1.9533 -1.2399
  490MOL0     H66123  13.168   3.080   4.341 -0.6372 -0.0785  0.7731
  490MOL0     H66124  13.341   3.173   4.489 -0.5081 -0.8841  0.7521
  490MOL0     H66125  13.466   3.062   4.417  1.4361  0.7662 -2.2349
  490MOL0     H66126  13.319   3.288   4.280  1.0154  1.1867  0.5845
  490MOL0     H66127  13.419   3.176   4.193 -0.2152 -0.7343  0.4431
  490MOL0     H66128  13.503   3.406   4.308 -0.9499  0.2939  0.0860
  490MOL0     H66129  13.515   3.317   4.452  1.5135 -1.2648 -0.3084
  490MOL0     H66130  13.017   2.498   3.714  0.4618 -0.7947  0.1046
  490MOL0     H66131  12.858   2.329   3.656  0.2824  0.7107 -1.0363
  490MOL0     H66132  12.596   1.818   3.909 -0.3359 -1.9414 -0.8973
  490MOL0     H66133  12.407   1.710   3.804  0.8466  0.2671  0.7456
  490MOL0     H66134  10.884   2.391   3.492 -1.6560  0.7650  1.6154
  490MOL0     H66135  10.699   2.274   3.603 -0.3810  0.9568  0.4311
  490MOL0     H66136  10.233   2.076   3.394  1.7038  0.2569  0.2383
  490MOL0     H66137  10.014   1.992   3.487 -0.0676  1.6871 -0.5605
  490MOL0     H66138   9.749   1.951   3.748 -0.5564  0.8777  0.2719
  490MOL0     H66139   9.839   1.899   3.603 -0.7900 -1.1591  1.6026
  490MOL0     H66140   9.819   2.122   3.502 -0.0028 -1.1602 -0.8697
  490MOL0     H66141   9.792   2.199   3.662 -0.1633 -1.6956  2.1529
  490MOL0     H66142   9.548   2.101   3.656 -0.2671  0.6524 -0.4057
  490MOL0     H66143   9.597   2.018   3.517 -0.2049 -1.2702  1.2735
  490MOL0     H66144   9.589   2.239   3.376  1.3866  2.3276  0.0706
  490MOL0     H66145   9.455   2.202   3.489 -0.1502 -2.3901 -1.6460
  490MOL0     H66146   9.572   2.558   3.635 -2.1937  0.6830 -1.7798
  490MOL0     H66147  10.135   2.114   3.874 -1.0100  1.3187  0.0946
  490MOL0     H66148  10.409   2.323   3.765 -0.7987  1.4891  0.4989
  490MOL0     H66149  10.278   2.301   3.876  0.0638  2.0468 -2.4668
  490MOL0     H66150  10.407   2.176   3.868 -1.1055 -1.8974 -0.2925
  491MOL0     O66151   5.336   5.700   4.854  0.2989  0.0994  0.2386
  491MOL0     C66152   5.381   5.718   4.740 -0.6900 -0.0883 -0.0857
  491MOL0     O66153   5.337   5.809   4.652 -0.6607  0.3506 -0.0526
  491MOL0     C66154   5.230   5.886   4.695 -0.7459  0.0700  0.7454
  491MOL0     C66155   5.104   5.837   4.672  0.7401 -0.1819 -0.0961
  491MOL0     C66156   4.991   5.914   4.717  0.8125  0.3077  0.2730
  491MOL0     C66157   5.012   6.036   4.777  0.2014 -0.2520 -0.4703
  491MOL0     O66158   4.899   6.099   4.820 -0.7966 -0.1748  0.0377
  491MOL0     C66159   4.907   6.224   4.882  0.1931  0.7084  0.3949
  491MOL0     C66160   4.764   6.277   4.902 -1.3260  0.2037  0.4860
  491MOL0     C66161   4.772   6.417   4.971 -0.0761  0.0023  0.9112
  491MOL0     C66162   4.624   6.465   4.990  0.1215 -0.2364  0.0253
  491MOL0     C66163   4.613   6.530   5.130 -0.4449  0.7953  0.3639
  491MOL0     C66164   4.462   6.572   5.145  0.1085  0.7096 -0.2700
  491MOL0     C66165   4.434   6.651   5.277  1.1295  0.3467  0.0958
  491MOL0     C66166   4.527   6.779   5.292  0.0216 -0.0735  0.0334
  491MOL0     N66167   4.484   6.860   5.405 -0.0183  0.0709  0.4456
  491MOL0     C66168   4.384   6.953   5.395  0.0411  0.8797 -0.1581
  491MOL0     C66169   4.352   6.976   5.528  0.1352 -0.3355  0.2682
  491MOL0     C66170   4.237   7.063   5.566  0.7423  0.2879 -0.7224
  491MOL0     C66171   4.239   7.119   5.707  0.6172  0.1408 -0.7148
  491MOL0     C66172   4.318   7.247   5.728  0.3005 -0.3858  0.8359
  491MOL0     C66173   4.463   7.245   5.694  0.1469  0.7443 -0.2337
  491MOL0     O66174   4.521   7.366   5.743 -0.2101 -0.3259 -0.1068
  491MOL0     C66175   4.649   7.394   5.712  0.2326  0.9492 -0.2020
  491MOL0     C66176   4.698   7.511   5.773  0.1829 -0.4136  0.2897
  491MOL0     C66177   4.829   7.543   5.750  1.1647  0.0064 -0.5039
  491MOL0     C66178   4.912   7.461   5.676 -0.5101 -0.9713  0.1245
  491MOL0     C66179   5.055   7.503   5.652  0.3316 -0.4400 -0.0503
  491MOL0     O66180   5.129   7.438   5.548  0.1749 -0.0791  0.4746
  491MOL0     C66181   5.269   7.427   5.549  0.6698 -0.2450 -0.5969
  491MOL0     C66182   5.333   7.401   5.669 -0.1837  0.0134 -0.2605
  491MOL0     C66183   5.474   7.396   5.677 -0.2806  0.5377  0.1671
  491MOL0     C66184   5.548   7.412   5.554 -0.4495  0.5216  0.2247
  491MOL0     O66185   5.685   7.411   5.536  0.3652 -0.1184  0.7634
  491MOL0     C66186   5.761   7.323   5.604 -0.4160 -0.9905 -0.3967
  491MOL0     C66187   5.904   7.323   5.554 -0.7180  0.0566 -0.2637
  491MOL0     C66188   5.987   7.219   5.619 -0.4201 -0.0235  0.8720
  491MOL0     C66189   6.137   7.231   5.583  0.5100  0.2035  0.3685
  491MOL0     C66190   6.229   7.145   5.670  0.5655  0.4253 -0.4403
  491MOL0     C66191   6.223   6.997   5.645 -0.2664 -0.1199  0.2378
  491MOL0     C66192   6.268   6.962   5.499 -0.3356  0.0951  0.5987
  491MOL0     C66193   6.317   6.821   5.480 -0.5231 -0.3674  0.3169
  491MOL0    Cl66194   6.382   6.814   5.314  0.0856  0.3808 -0.5419
  491MOL0     C66195   5.475   7.443   5.438 -0.7414 -0.6324 -0.3175
  491MOL0     C66196   5.342   7.438   5.437 -0.6840  0.0335 -0.2565
  491MOL0     O66197   5.108   7.564   5.742  1.2166 -0.1911 -0.4746
  491MOL0     C66198   4.867   7.337   5.628  0.1013 -0.2855  0.7870
  491MOL0     C66199   4.738   7.307   5.644 -0.0509  0.1482 -0.0832
  491MOL0     N66200   4.429   6.904   5.610  0.0468 -0.3144  1.4216
  491MOL0     N66201   4.511   6.840   5.539  0.4425  0.3849 -0.7609
  491MOL0     C66202   5.142   6.091   4.782  0.1870 -0.1501  0.4558
  491MOL0     C66203   5.243   6.012   4.738  0.4449  0.1788 -0.4164
  491MOL0     C66204   5.495   5.630   4.703  1.2338  0.1000  0.4744
  491MOL0     C66205   5.589   5.688   4.614  0.1888  0.9453 -0.2332
  491MOL0     C66206   5.707   5.627   4.574  0.6100  0.2511 -0.2926
  491MOL0     C66207   5.739   5.499   4.625  0.2728  0.2911  0.1283
  491MOL0     O66208   5.849   5.436   4.585 -0.2605 -0.1217 -0.3227
  491MOL0     C66209   5.958   5.521   4.542 -0.4183  0.3452  0.2708
  491MOL0     C66210   6.089   5.428   4.518  0.3439  0.9606 -0.5875
  491MOL0     C66211   6.132   5.350   4.638 -0.2955 -0.0470 -0.3524
  491MOL0     C66212   6.227   5.235   4.611 -0.2505 -0.0752 -0.2472
  491MOL0     C66213   6.352   5.265   4.537  0.1094  0.0207  0.0741
  491MOL0     C66214   6.434   5.299   4.462  0.0302 -0.8832  0.2529
  491MOL0     C66215   5.649   5.434   4.710 -1.0330 -0.5115 -0.0037
  491MOL0     C66216   5.525   5.493   4.749 -0.1353 -0.4383  0.4592
  491MOL0     C66217   5.435   5.428   4.853  0.0110  0.7116  0.4059
  491MOL0     H66218   5.096   5.739   4.627  2.7807 -2.5768  4.2152
  491MOL0     H66219   4.896   5.866   4.700  0.9116  0.1283  0.2248
  491MOL0     H66220   4.953   6.217   4.981 -0.6314  1.6120  0.8668
  491MOL0     H66221   4.947   6.303   4.818  0.2464 -0.4774 -1.0932
  491MOL0     H66222   4.718   6.210   4.974  1.7151 -1.2283  1.2624
  491MOL0     H66223   4.715   6.293   4.805  3.0322  2.0672 -1.7169
  491MOL0     H66224   4.798   6.493   4.897 -3.1408  2.0937  1.8100
  491MOL0     H66225   4.846   6.426   5.052  0.1211  0.5708  0.6729
  491MOL0     H66226   4.594   6.539   4.914  1.0507  0.5033  0.3610
  491MOL0     H66227   4.544   6.392   4.978  1.5711 -1.7923 -0.5606
  491MOL0     H66228   4.634   6.460   5.211  2.4091  0.5740 -0.4557
  491MOL0     H66229   4.680   6.616   5.140  0.7977  0.0186 -0.9081
  491MOL0     H66230   4.427   6.614   5.050  0.6451 -1.0474 -1.2843
  491MOL0     H66231   4.409   6.477   5.154  2.2315 -0.6276 -1.0085
  491MOL0     H66232   4.429   6.580   5.360  1.9884  0.8469  0.5884
  491MOL0     H66233   4.332   6.689   5.267  0.3229 -1.9146 -1.1957
  491MOL0     H66234   4.629   6.746   5.311  0.0263  0.8238  1.7703
  491MOL0     H66235   4.514   6.842   5.203  0.9941 -0.7970 -0.6306
  491MOL0     H66236   4.344   6.986   5.299 -2.2246 -0.3626  0.2826
  491MOL0     H66237   4.223   7.139   5.489  1.6799  1.2234  0.0035
  491MOL0     H66238   4.154   6.991   5.565 -1.0571  2.1712  1.5217
  491MOL0     H66239   4.137   7.150   5.731  0.7375  1.0064 -1.2638
  491MOL0     H66240   4.270   7.044   5.781  0.6264 -0.4212 -1.2799
  491MOL0     H66241   4.294   7.285   5.828  0.8265 -0.0715  0.8466
  491MOL0     H66242   4.274   7.317   5.656 -1.0962 -0.6594  1.3806
  491MOL0     H66243   4.465   7.245   5.585 -2.1273 -2.0918 -0.4054
  491MOL0     H66244   4.512   7.154   5.730 -3.8938 -0.5501  2.7068
  491MOL0     H66245   4.649   7.569   5.851  0.0125 -1.6286  1.1361
  491MOL0     H66246   4.859   7.642   5.784 -0.1465  0.6714 -1.1868
  491MOL0     H66247   5.283   7.386   5.765 -0.3863 -0.3508 -0.4199
  491MOL0     H66248   5.527   7.392   5.771 -1.6577  1.3681  1.0224
  491MOL0     H66249   5.770   7.354   5.709  1.8989 -1.0882 -0.5186
  491MOL0     H66250   5.722   7.222   5.597 -1.0565 -0.7599 -0.2460
  491MOL0     H66251   5.890   7.297   5.449 -0.5762 -0.5339 -0.1417
  491MOL0     H66252   5.941   7.425   5.562  1.1688 -0.6420  0.3922
  491MOL0     H66253   5.978   7.235   5.726  2.3993  4.1743  0.7151
  491MOL0     H66254   5.948   7.121   5.591  0.4902 -0.7278  1.9607
  491MOL0     H66255   6.155   7.338   5.598 -1.7925  0.8426 -0.9289
  491MOL0     H66256   6.155   7.207   5.478 -1.6444  0.9080 -0.2183
  491MOL0     H66257   6.203   7.160   5.776 -0.9937 -1.4475 -0.4893
  491MOL0     H66258   6.333   7.172   5.649  1.7715 -2.5772  1.0649
  491MOL0     H66259   6.279   6.933   5.714 -1.3073 -3.3761 -1.7389
  491MOL0     H66260   6.118   6.969   5.661 -0.1605 -0.6201  0.0639
  491MOL0     H66261   6.343   7.036   5.469 -1.0045  0.3080 -0.6141
  491MOL0     H66262   6.190   6.974   5.423 -0.3429  3.3940  0.9752
  491MOL0     H66263   6.409   6.806   5.536  0.5657  0.2631 -1.2133
  491MOL0     H66264   6.238   6.749   5.500 -1.6841  0.4450 -1.1390
  491MOL0     H66265   5.529   7.466   5.347 -0.1251 -1.3269 -0.1322
  491MOL0     H66266   5.290   7.449   5.342 -3.7313 -2.5727  0.8962
  491MOL0     H66267   4.928   7.261   5.581 -0.7870 -0.8181  0.4727
  491MOL0     H66268   4.719   7.207   5.608  1.3608 -0.2957  0.3627
  491MOL0     H66269   5.154   6.183   4.839  1.5201 -0.1864  0.2493
  491MOL0     H66270   5.346   6.037   4.757 -0.3171  0.1438  5.5523
  491MOL0     H66271   5.571   5.793   4.591 -2.4135  0.8822  1.1372
  491MOL0     H66272   5.774   5.688   4.515 -0.1658 -0.2663 -1.7530
  491MOL0     H66273   5.980   5.595   4.619  0.0276 -1.9102  2.4429
  491MOL0     H66274   5.939   5.566   4.444  1.0756 -0.7868 -0.5863
  491MOL0     H66275   6.173   5.488   4.480  1.0109  0.3588 -0.0971
  491MOL0     H66276   6.064   5.355   4.441  2.4728  0.0246 -0.4505
  491MOL0     H66277   6.042   5.310   4.686  0.6918 -1.3411  0.4803
  491MOL0     H66278   6.184   5.433   4.687 -2.1497  0.7952  0.2727
  491MOL0     H66279   6.252   5.190   4.708 -0.4418 -0.3550 -0.3276
  491MOL0     H66280   6.173   5.160   4.552  2.8655 -1.0514 -2.0946
  491MOL0     H66281   6.507   5.321   4.388 -0.8365  1.4314  0.0127
  491MOL0     H66282   5.680   5.338   4.749 -0.2973 -1.0020 -1.6997
  491MOL0     H66283   5.465   5.324   4.871 -1.3215 -0.1106 -1.7436
  491MOL0     H66284   5.458   5.488   4.942  0.1682  1.8909 -0.4110
  491MOL0     H66285   5.328   5.435   4.833 -0.3475 -2.2834  0.8676
  492MOL0     O66286  10.310   9.144   2.128 -0.2931  0.5876 -0.2387
  492MOL0     C66287  10.290   9.171   2.011  1.3893 -0.7731 -0.0520
  492MOL0     O66288  10.381   9.228   1.922  0.3594  0.4178 -0.6481
  492MOL0     C66289  10.486   9.287   1.986  0.5519 -0.1201  0.0160
  492MOL0     C66290  10.468   9.391   2.082 -0.6059 -0.5089  0.4195
  492MOL0     C66291  10.589   9.456   2.118 -0.6015 -0.6492  0.2202
  492MOL0     C66292  10.714   9.424   2.073  0.1947  0.2269 -0.1862
  492MOL0     O66293  10.814   9.505   2.114  0.1371 -0.2328 -0.2040
  492MOL0     C66294  10.933   9.444   2.171 -0.1109 -0.3198  0.3539
  492MOL0     C66295  10.955   9.498   2.314 -0.0369 -0.3832  0.1368
  492MOL0     C66296  11.078   9.431   2.377 -0.0888  0.3858 -0.3548
  492MOL0     C66297  11.214   9.486   2.310  0.4194 -0.4735  0.1951
  492MOL0     C66298  11.325   9.397   2.352  0.3145 -0.0360  0.7423
  492MOL0     C66299  11.440   9.437   2.264 -0.3853  0.0755 -0.1363
  492MOL0     C66300  11.575   9.382   2.293  0.1644 -0.4108 -0.9281
  492MOL0     C66301  11.574   9.233   2.271  0.1405  0.6619  0.5887
  492MOL0     N66302  11.707   9.175   2.303  0.4843 -0.2846 -0.3557
  492MOL0     C66303  11.806   9.147   2.219 -0.1735  0.3256 -0.1663
  492MOL0     C66304  11.900   9.094   2.299  0.0751  0.4480 -0.3976
  492MOL0     C66305  12.032   9.060   2.256  0.6267  0.3930  0.0532
  492MOL0     C66306  12.120   9.175   2.274 -0.7036  0.1580 -0.4295
  492MOL0     C66307  12.261   9.149   2.220 -0.5283 -0.1641 -0.3914
  492MOL0     C66308  12.365   9.224   2.301  0.3878 -0.5449  0.0602
  492MOL0     O66309  12.488   9.221   2.221 -0.5736  1.0266  0.0017
  492MOL0     C66310  12.604   9.278   2.272  0.4476  0.2341 -0.1386
  492MOL0     C66311  12.721   9.257   2.202  0.1421 -1.1880 -0.0676
  492MOL0     C66312  12.838   9.316   2.247  0.0684  0.4055  2.0264
  492MOL0     C66313  12.850   9.378   2.375  0.3541 -0.6623 -0.5098
  492MOL0     C66314  12.978   9.426   2.428 -0.1899  0.0175 -0.2493
  492MOL0     O66315  12.966   9.515   2.533  0.2504  1.0879 -0.0367
  492MOL0     C66316  13.082   9.537   2.604 -0.2402 -0.3167  0.0943
  492MOL0     C66317  13.062   9.530   2.745 -0.1491  0.6458 -1.0835
  492MOL0     C66318  13.163   9.552   2.847  0.6034 -0.1304  0.4300
  492MOL0     C66319  13.290   9.581   2.803  0.0704 -0.4891  1.1188
  492MOL0     O66320  13.394   9.602   2.894  0.1324  0.0606 -0.1588
  492MOL0     C66321  13.375   9.562   3.034  0.3437 -0.7367  0.3122
  492MOL0     C66322  13.518   9.540   3.100  0.3935 -0.4615  0.1204
  492MOL0     C66323  13.605   9.659   3.099  0.5291  0.5027 -0.8484
  492MOL0     C66324  13.693   9.675   2.978 -0.5895  0.2389 -0.1932
  492MOL0     C66325  13.817   9.764   3.022  0.2594 -0.5810  0.1543
  492MOL0     C66326  13.906   9.765   2.895 -0.1771 -0.0599 -0.6031
  492MOL0     C66327  14.030   9.845   2.943 -0.3973  0.3341 -0.7212
  492MOL0     C66328  14.158   9.837   2.845  0.4209 -0.3543 -1.0248
  492MOL0    Cl66329  14.265   9.969   2.908  0.0969  0.2285  0.4513
  492MOL0     C66330  13.321   9.577   2.660 -0.1151  0.2382  0.3220
  492MOL0     C66331  13.217   9.570   2.563 -0.3548  0.6760 -0.3132
  492MOL0     O66332  13.085   9.385   2.378 -0.4151 -0.6647 -0.1917
  492MOL0     C66333  12.725   9.393   2.445  0.3413 -0.2486 -0.4017
  492MOL0     C66334  12.607   9.352   2.388  0.4646 -0.2625 -0.4520
  492MOL0     N66335  11.869   9.104   2.435  0.3513  0.2433  0.4619
  492MOL0     N66336  11.751   9.155   2.431 -0.1831  0.2318  0.5040
  492MOL0     C66337  10.737   9.325   1.972  0.7455  0.0216  0.5887
  492MOL0     C66338  10.619   9.263   1.932  0.2051 -0.3280 -1.4042
  492MOL0     C66339  10.156   9.121   1.959  0.1405 -0.5680 -0.5377
  492MOL0     C66340  10.050   9.096   2.049  0.1772  0.0082 -0.1143
  492MOL0     C66341   9.924   9.058   2.007  0.5072  0.6096 -0.7951
  492MOL0     C66342   9.899   9.037   1.875 -0.0021 -0.3355  0.3943
  492MOL0     O66343   9.784   8.996   1.816  0.0549 -0.1113 -0.2327
  492MOL0     C66344   9.677   8.941   1.896  1.0910  0.2123 -0.2530
  492MOL0     C66345   9.576   8.860   1.812  0.2483 -0.1659 -0.4179
  492MOL0     C66346   9.457   8.787   1.886 -0.2777  0.0584 -1.1220
  492MOL0     C66347   9.384   8.881   1.977 -0.4736  0.2807  0.2570
  492MOL0     C66348   9.304   8.982   1.903 -0.5636 -0.3837  0.2165
  492MOL0     C66349   9.233   9.042   1.829  0.3909  0.7772  0.5254
  492MOL0     C66350  10.006   9.062   1.790  0.1025  0.3859  0.4112
  492MOL0     C66351  10.131   9.100   1.824 -0.2244  0.5507 -0.6231
  492MOL0     C66352  10.229   9.102   1.706 -0.6931 -0.8044  0.7115
  492MOL0     H66353  10.369   9.423   2.113 -1.3002 -2.4614  0.3540
  492MOL0     H66354  10.581   9.547   2.176 -0.3647 -0.2749 -0.3273
  492MOL0     H66355  10.932   9.335   2.168 -1.2740 -0.2955 -1.1250
  492MOL0     H66356  11.013   9.474   2.103  0.2002 -1.6532  0.1209
  492MOL0     H66357  10.866   9.482   2.376 -0.9066  3.9049  0.2933
  492MOL0     H66358  10.958   9.607   2.313  0.9772 -0.4000 -0.5689
  492MOL0     H66359  11.074   9.322   2.372  2.4217  0.0267  2.4956
  492MOL0     H66360  11.066   9.445   2.485 -0.0287 -2.4792  0.0999
  492MOL0     H66361  11.215   9.487   2.201  0.4145  2.1110  0.1706
  492MOL0     H66362  11.221   9.584   2.358 -0.5525 -0.6255  0.6709
  492MOL0     H66363  11.339   9.390   2.460  3.2053 -2.7647  0.3093
  492MOL0     H66364  11.292   9.297   2.323  0.3872  0.8190 -2.7836
  492MOL0     H66365  11.411   9.422   2.159 -1.7722 -4.5893  0.6801
  492MOL0     H66366  11.449   9.546   2.273 -0.4394 -0.0225  1.2510
  492MOL0     H66367  11.602   9.405   2.397 -1.2733 -2.1466 -0.1187
  492MOL0     H66368  11.659   9.416   2.232  1.6103  0.4189  1.3998
  492MOL0     H66369  11.500   9.179   2.332 -0.4539  1.0692  0.2392
  492MOL0     H66370  11.547   9.206   2.169  0.7169  1.2113  0.2866
  492MOL0     H66371  11.812   9.144   2.111  3.6845 -1.5302 -0.0423
  492MOL0     H66372  12.067   8.985   2.328  0.4541  3.2727  3.4180
  492MOL0     H66373  12.019   9.020   2.155 -2.2000  1.1056  0.0495
  492MOL0     H66374  12.074   9.257   2.218 -1.5502  0.3681  0.5550
  492MOL0     H66375  12.136   9.199   2.380  2.9118 -1.0048 -0.5663
  492MOL0     H66376  12.260   9.195   2.121  3.3966  1.8427  0.3287
  492MOL0     H66377  12.292   9.044   2.219  4.6055  1.1292 -0.4059
  492MOL0     H66378  12.385   9.176   2.397  1.7734 -0.9006 -0.3826
  492MOL0     H66379  12.340   9.328   2.323  1.5689 -0.4150  0.8860
  492MOL0     H66380  12.728   9.205   2.107  2.7290 -1.3549  0.1558
  492MOL0     H66381  12.927   9.294   2.189 -1.2376 -1.1059  0.5014
  492MOL0     H66382  12.966   9.499   2.785  0.7431 -1.8364 -0.7448
  492MOL0     H66383  13.136   9.552   2.952 -0.6655 -0.3032  0.1232
  492MOL0     H66384  13.325   9.640   3.092  4.5834  1.6592  1.0885
  492MOL0     H66385  13.313   9.473   3.049 -3.0940  1.9328  4.6931
  492MOL0     H66386  13.497   9.516   3.205 -1.6410  2.1769  0.4078
  492MOL0     H66387  13.577   9.459   3.056  0.6665  0.0331 -0.4303
  492MOL0     H66388  13.571   9.759   3.131  3.0200  0.4650  2.4255
  492MOL0     H66389  13.671   9.638   3.183 -1.0067  0.6456  0.4455
  492MOL0     H66390  13.629   9.726   2.906 -4.2368 -0.1833  2.4505
  492MOL0     H66391  13.735   9.583   2.936 -1.0759  0.2036 -0.6014
  492MOL0     H66392  13.861   9.709   3.105  1.3550 -1.7737 -1.1588
  492MOL0     H66393  13.795   9.866   3.053  1.9343 -0.0062 -0.3895
  492MOL0     H66394  13.936   9.665   2.863 -2.3141 -0.9065 -0.1729
  492MOL0     H66395  13.862   9.824   2.813  0.7376  4.0619  1.5986
  492MOL0     H66396  14.066   9.810   3.041 -3.4115 -4.2651 -0.9376
  492MOL0     H66397  14.003   9.951   2.943  0.3540  0.6778 -4.7230
  492MOL0     H66398  14.202   9.737   2.853  0.7949 -0.2938 -2.0951
  492MOL0     H66399  14.135   9.858   2.740 -0.3586  0.3576 -0.7216
  492MOL0     H66400  13.423   9.606   2.635 -0.4792  1.0814 -0.2751
  492MOL0     H66401  13.227   9.590   2.457  0.2874  2.3505  0.0369
  492MOL0     H66402  12.719   9.428   2.547  2.6364 -1.5996  0.2822
  492MOL0     H66403  12.516   9.365   2.444  1.0089  1.6848  0.0501
  492MOL0     H66404  10.835   9.308   1.928  0.9246  1.4693  0.3702
  492MOL0     H66405  10.626   9.203   1.842  0.9126  0.1622 -1.6830
  492MOL0     H66406  10.071   9.109   2.155  0.0088 -1.1961  0.0766
  492MOL0     H66407   9.845   9.053   2.082  1.8961  1.8956  0.8192
  492MOL0     H66408   9.623   9.028   1.935 -0.0304 -0.4967 -0.1999
  492MOL0     H66409   9.714   8.881   1.980 -0.9048 -0.0720  0.4584
  492MOL0     H66410   9.636   8.778   1.771  2.2150 -0.3568  2.5790
  492MOL0     H66411   9.541   8.933   1.738 -1.3660 -2.6765 -2.2891
  492MOL0     H66412   9.497   8.706   1.949 -2.2378 -0.8094 -0.9210
  492MOL0     H66413   9.386   8.742   1.816  0.5021 -0.1612 -1.7904
  492MOL0     H66414   9.311   8.829   2.039  0.5949  0.4314  1.6894
  492MOL0     H66415   9.456   8.924   2.047 -0.3252  2.1053 -0.9601
  492MOL0     H66416   9.167   9.108   1.774  0.1137 -0.4018 -0.6112
  492MOL0     H66417   9.983   9.039   1.686 -0.4483  1.8841  0.1827
  492MOL0     H66418  10.184   9.067   1.612  0.2296 -0.2854  0.0575
  492MOL0     H66419  10.251   9.208   1.697 -1.2929 -0.7757 -0.6220
  492MOL0     H66420  10.323   9.046   1.717  1.1333  1.8633 -0.3785
  493MOL0     O66421   1.583   8.349   6.905  0.7053  0.3136 -0.5833
  493MOL0     C66422   1.565   8.286   6.802  0.5043 -0.1403 -0.1143
  493MOL0     O66423   1.637   8.291   6.683  0.5868  0.2220  0.6763
  493MOL0     C66424   1.698   8.411   6.662  0.4498 -0.5799 -0.5505
  493MOL0     C66425   1.830   8.437   6.705  0.5254  0.9212 -0.4871
  493MOL0     C66426   1.874   8.570   6.702 -0.2995  0.6550 -0.9711
  493MOL0     C66427   1.794   8.671   6.642  0.5582 -1.8503 -0.4694
  493MOL0     O66428   1.839   8.800   6.638 -0.3660 -0.2671 -0.7350
  493MOL0     C66429   1.880   8.854   6.767 -0.6275 -0.2993  0.1048
  493MOL0     C66430   1.939   8.994   6.740  0.1920 -0.6937  0.5616
  493MOL0     C66431   2.077   8.987   6.671 -0.0038 -0.4265  0.0858
  493MOL0     C66432   2.188   8.987   6.783  0.5727 -0.2391  0.0115
  493MOL0     C66433   2.321   8.964   6.733 -0.3892 -0.1292  0.0468
  493MOL0     C66434   2.377   9.061   6.615  0.7485 -0.8802 -0.6226
  493MOL0     C66435   2.404   9.210   6.652 -0.2586 -0.0787 -0.3751
  493MOL0     C66436   2.467   9.272   6.532  0.1016  0.0276  0.6464
  493MOL0     N66437   2.477   9.419   6.552 -0.0491 -0.2607 -0.4162
  493MOL0     C66438   2.447   9.512   6.454  0.1217  0.2306  0.3895
  493MOL0     C66439   2.494   9.631   6.499  0.2499  0.4660  0.6521
  493MOL0     C66440   2.466   9.762   6.427 -0.8022  0.7803 -0.6985
  493MOL0     C66441   2.486   9.753   6.266  0.3592 -0.2206 -1.1409
  493MOL0     C66442   2.482   9.901   6.204 -0.7991 -0.4855 -0.4082
  493MOL0     C66443   2.492   9.905   6.053  0.3174  0.2208 -0.2769
  493MOL0     O66444   2.621   9.907   6.005  0.1322 -0.3277 -0.9343
  493MOL0     C66445   2.645   9.916   5.870 -0.1417  0.5878 -0.1955
  493MOL0     C66446   2.777   9.934   5.837  0.3507 -0.0094  0.2456
  493MOL0     C66447   2.823   9.940   5.703  0.1508  0.8317  0.3819
  493MOL0     C66448   2.730   9.936   5.598  0.1310  0.2494  0.2864
  493MOL0     C66449   2.766   9.942   5.456 -1.1082 -0.2649 -0.6180
  493MOL0     O66450   2.878  10.023   5.430  0.7986 -0.1631  0.5546
  493MOL0     C66451   2.912  10.061   5.298  0.1515  0.4240 -0.2754
  493MOL0     C66452   3.040  10.116   5.293 -0.0223  0.7591 -0.0673
  493MOL0     C66453   3.095  10.155   5.172  0.6126 -0.3179 -0.1411
  493MOL0     C66454   3.019  10.131   5.055  0.5438  0.1923 -1.2098
  493MOL0     O66455   3.060  10.179   4.928  0.3085  0.2275  0.4006
  493MOL0     C66456   3.204  10.191   4.898  0.7942  0.6730  0.4193
  493MOL0     C66457   3.223  10.225   4.754  0.0598  0.5549 -0.6279
  493MOL0     C66458   3.163  10.122   4.658  0.1553  0.3980  0.8970
  493MOL0     C66459   3.211   9.979   4.665 -0.2829 -1.1371 -0.8252
  493MOL0     C66460   3.120   9.904   4.576  0.8118  0.8502 -0.8504
  493MOL0     C66461   3.140   9.752   4.585 -0.4226  0.2548 -0.6918
  493MOL0     C66462   3.048   9.669   4.480  0.0772  0.1651 -0.5271
  493MOL0     C66463   2.892   9.695   4.495 -0.7532 -0.1130  0.5183
  493MOL0    Cl66464   2.792   9.614   4.367 -0.1281 -0.0351  0.2347
  493MOL0     C66465   2.886  10.097   5.061 -0.1933 -0.0791 -0.6930
  493MOL0     C66466   2.828  10.055   5.183  0.8475  0.1866  0.4051
  493MOL0     O66467   2.714   9.864   5.378 -0.6295 -0.7063  0.1154
  493MOL0     C66468   2.591   9.920   5.630  0.3636 -0.0049 -0.3153
  493MOL0     C66469   2.553   9.909   5.763  1.1002 -0.5088  0.2063
  493MOL0     N66470   2.561   9.613   6.615 -0.1922 -0.2153  0.9921
  493MOL0     N66471   2.550   9.480   6.647 -1.1622  0.4960 -0.4576
  493MOL0     C66472   1.675   8.634   6.571 -0.7744  0.6141 -1.2011
  493MOL0     C66473   1.621   8.510   6.600  0.5978  0.9464  0.1121
  493MOL0     C66474   1.449   8.196   6.800  0.0668 -0.9986 -0.2557
  493MOL0     C66475   1.464   8.077   6.730  0.4289  0.4265 -0.5823
  493MOL0     C66476   1.353   7.983   6.715 -1.2230 -0.2340 -0.2032
  493MOL0     C66477   1.235   8.003   6.783  0.1357  0.0948  0.6358
  493MOL0     O66478   1.124   7.922   6.792  0.1409  0.7281 -0.0485
  493MOL0     C66479   1.137   7.799   6.717  0.6016 -0.2501  0.0573
  493MOL0     C66480   0.992   7.733   6.713  0.0188  0.3302  0.6453
  493MOL0     C66481   0.897   7.815   6.622  0.1390  1.0625 -0.4552
  493MOL0     C66482   0.759   7.757   6.587 -0.2645 -0.0240 -0.0964
  493MOL0     C66483   0.688   7.864   6.515  0.8294  0.7466 -0.6409
  493MOL0     C66484   0.623   7.948   6.451  0.3143 -0.3407 -0.0930
  493MOL0     C66485   1.226   8.127   6.842  0.3724  0.2261  0.1627
  493MOL0     C66486   1.324   8.222   6.861  0.3155  0.5255 -0.1722
  493MOL0     C66487   1.287   8.350   6.931 -0.4555 -0.1761 -0.2795
  493MOL0     H66488   1.898   8.363   6.748  0.8268  0.6947 -1.3388
  493MOL0     H66489   1.966   8.584   6.758 -0.2559 -2.5295 -0.0398
  493MOL0     H66490   1.789   8.868   6.825 -0.4372 -0.9620  0.5751
  493MOL0     H66491   1.954   8.784   6.809  0.7041  1.5141  0.9256
  493MOL0     H66492   1.963   9.045   6.834  0.1147 -1.5438  1.0486
  493MOL0     H66493   1.867   9.061   6.693  0.7765 -1.5148 -1.6301
  493MOL0     H66494   2.079   9.077   6.609 -3.0738 -1.7439 -2.2448
  493MOL0     H66495   2.084   8.903   6.600  0.3255  0.0372 -0.4369
  493MOL0     H66496   2.185   9.077   6.845 -1.6500  2.3544 -3.4997
  493MOL0     H66497   2.167   8.902   6.849 -0.4752  0.8299  1.0879
  493MOL0     H66498   2.390   8.955   6.818  1.8929 -1.7983 -1.8586
  493MOL0     H66499   2.319   8.865   6.686  1.3227 -0.4536  0.5723
  493MOL0     H66500   2.474   9.022   6.581  2.2260  1.0692  1.0709
  493MOL0     H66501   2.304   9.058   6.534  1.7644  1.8600 -1.7387
  493MOL0     H66502   2.468   9.211   6.741  2.5599 -3.6986 -2.1357
  493MOL0     H66503   2.306   9.249   6.681  0.2743  1.9534 -1.1240
  493MOL0     H66504   2.566   9.229   6.514 -0.3054 -1.4362  1.6600
  493MOL0     H66505   2.401   9.255   6.446  1.7561 -0.3725 -0.5859
  493MOL0     H66506   2.381   9.506   6.368  0.3708  1.1659  0.1247
  493MOL0     H66507   2.362   9.783   6.455 -0.7261 -0.8977  1.0552
  493MOL0     H66508   2.531   9.843   6.461  1.4034 -0.8534 -0.8405
  493MOL0     H66509   2.584   9.708   6.252  2.0629  2.5264  0.8290
  493MOL0     H66510   2.409   9.693   6.217 -0.6463  1.2594 -1.4652
  493MOL0     H66511   2.568   9.961   6.236 -1.0330 -0.0547 -0.5882
  493MOL0     H66512   2.393   9.954   6.238  1.4070  3.8065 -0.6993
  493MOL0     H66513   2.447  10.001   6.029 -0.1891 -0.4318 -2.0854
  493MOL0     H66514   2.426   9.828   6.011 -1.3373  0.8531  1.0378
  493MOL0     H66515   2.849   9.935   5.919  0.0967 -1.8140  0.5300
  493MOL0     H66516   2.927   9.947   5.675 -0.4487 -1.6392 -3.2268
  493MOL0     H66517   3.103  10.131   5.381  1.3523  0.1576 -0.9173
  493MOL0     H66518   3.194  10.197   5.157  0.3918 -0.1629 -1.2264
  493MOL0     H66519   3.244  10.274   4.957 -1.3117  1.3717  0.9366
  493MOL0     H66520   3.264  10.103   4.923  2.0266  1.1768 -0.6248
  493MOL0     H66521   3.178  10.323   4.739 -2.4232 -0.1451  1.4137
  493MOL0     H66522   3.331  10.233   4.738  0.4371  0.7360  1.5645
  493MOL0     H66523   3.054  10.117   4.673 -0.2450 -2.1024 -1.9801
  493MOL0     H66524   3.181  10.149   4.553  1.1391 -4.0199 -0.2974
  493MOL0     H66525   3.196   9.946   4.768  0.6530  0.2738 -0.2010
  493MOL0     H66526   3.315   9.978   4.629  0.1845 -2.3640  0.4938
  493MOL0     H66527   3.147   9.932   4.474 -0.1316  0.9104 -1.0993
  493MOL0     H66528   3.015   9.929   4.597  0.7917  0.6667 -0.7341
  493MOL0     H66529   3.246   9.731   4.567 -0.1464  0.6667  0.3838
  493MOL0     H66530   3.126   9.726   4.690  2.7398  0.8103 -0.0158
  493MOL0     H66531   3.076   9.564   4.493  0.9410  0.1332 -2.3143
  493MOL0     H66532   3.082   9.684   4.377 -1.1594  1.0482 -0.8354
  493MOL0     H66533   2.861   9.658   4.593  0.8756 -0.1596  1.0494
  493MOL0     H66534   2.863   9.801   4.498 -0.4550 -0.0183  0.1781
  493MOL0     H66535   2.819  10.106   4.975  0.1212  4.0151 -0.6642
  493MOL0     H66536   2.727  10.018   5.181  0.8307 -0.0064  2.4227
  493MOL0     H66537   2.519   9.909   5.549 -0.8122  0.6317  0.6135
  493MOL0     H66538   2.451   9.893   5.795  0.9922  0.0175  0.1362
  493MOL0     H66539   1.621   8.710   6.515 -0.9130  0.3921 -1.3691
  493MOL0     H66540   1.528   8.474   6.555  1.6259  0.3868 -1.6940
  493MOL0     H66541   1.557   8.045   6.683  0.7306 -2.2939  1.5922
  493MOL0     H66542   1.371   7.899   6.648  0.6269  0.8966 -1.2100
  493MOL0     H66543   1.207   7.730   6.763  3.3683 -0.1252 -3.5706
  493MOL0     H66544   1.177   7.811   6.616 -1.8883 -0.8373 -1.0890
  493MOL0     H66545   0.958   7.728   6.817 -0.4200 -1.9430  0.4392
  493MOL0     H66546   1.001   7.632   6.672  1.2819  0.7932 -0.2849
  493MOL0     H66547   0.941   7.841   6.526 -0.4103  1.1078 -0.6996
  493MOL0     H66548   0.871   7.909   6.672 -1.3422  0.5932 -0.3095
  493MOL0     H66549   0.766   7.670   6.521 -2.7182 -0.5326  0.2115
  493MOL0     H66550   0.696   7.742   6.676  0.5687 -1.3912  0.3067
  493MOL0     H66551   0.574   8.019   6.388 -0.2300 -2.0161 -1.6252
  493MOL0     H66552   1.131   8.146   6.891 -1.0251 -1.2505 -1.7957
  493MOL0     H66553   1.370   8.412   6.965 -0.5565  0.4503 -1.1310
  493MOL0     H66554   1.228   8.412   6.863 -3.0831 -0.8858  1.2441
  493MOL0     H66555   1.227   8.326   7.019  0.2010 -0.4922  0.0952
  494MOL0     O66556   5.216   3.743   4.148 -0.2078 -0.3150  0.4413
  494MOL0     C66557   5.278   3.676   4.232  0.6696  0.3669  0.6244
  494MOL0     O66558   5.217   3.583   4.318 -0.0331  0.7448  0.0672
  494MOL0     C66559   5.081   3.580   4.336  1.1666  0.2975  0.6725
  494MOL0     C66560   4.993   3.590   4.222 -0.1455  0.6130 -0.1352
  494MOL0     C66561   4.857   3.596   4.253 -0.0290  0.1354 -0.7318
  494MOL0     C66562   4.807   3.556   4.379  0.3999  0.2874  0.1042
  494MOL0     O66563   4.664   3.533   4.401 -0.5650 -0.5295  0.2448
  494MOL0     C66564   4.581   3.533   4.284  0.0024  0.2552  0.3362
  494MOL0     C66565   4.443   3.466   4.303 -0.1389  0.2872 -0.6438
  494MOL0     C66566   4.369   3.446   4.172 -0.0793 -0.0798 -0.0357
  494MOL0     C66567   4.220   3.410   4.195 -0.8875 -0.0789 -0.3278
  494MOL0     C66568   4.191   3.279   4.262 -0.0916 -1.1230 -0.5216
  494MOL0     C66569   4.269   3.171   4.199 -0.1669 -0.3537  0.0165
  494MOL0     C66570   4.228   3.027   4.223 -0.5670 -0.2074 -0.5036
  494MOL0     C66571   4.343   2.927   4.192 -0.4507  0.5875 -0.1275
  494MOL0     N66572   4.392   2.934   4.050  0.3967 -0.1324  0.2747
  494MOL0     C66573   4.488   3.025   4.021 -0.1204  0.2007 -0.5112
  494MOL0     C66574   4.515   3.010   3.891 -0.0842 -0.0306 -0.7696
  494MOL0     C66575   4.625   3.090   3.819 -0.4929 -0.0732  0.1017
  494MOL0     C66576   4.675   3.039   3.680  0.3519 -0.2517 -0.8039
  494MOL0     C66577   4.717   2.894   3.669  0.6330  0.9705 -0.1830
  494MOL0     C66578   4.805   2.845   3.777  0.4627  0.0080  0.1385
  494MOL0     O66579   4.931   2.922   3.789 -0.2573 -0.3754  0.1456
  494MOL0     C66580   5.034   2.906   3.697 -0.0423 -0.4526  0.3135
  494MOL0     C66581   5.046   2.798   3.612 -0.0717  0.0818  0.7410
  494MOL0     C66582   5.157   2.796   3.521 -0.2711 -0.5517 -0.0861
  494MOL0     C66583   5.261   2.892   3.534 -0.2866  0.2860  0.1566
  494MOL0     C66584   5.389   2.860   3.459 -0.6617 -0.4301 -0.0467
  494MOL0     O66585   5.408   2.736   3.419 -0.3068  0.0204  0.2161
  494MOL0     C66586   5.537   2.700   3.370  0.4227 -0.2471 -0.4681
  494MOL0     C66587   5.641   2.708   3.464 -0.0561  0.1098 -0.3530
  494MOL0     C66588   5.773   2.689   3.430 -0.5896 -0.4434  0.5755
  494MOL0     C66589   5.805   2.638   3.309 -0.3903  0.4819 -0.9066
  494MOL0     O66590   5.938   2.622   3.285 -0.4906  0.3761  0.8054
  494MOL0     C66591   5.979   2.510   3.206  0.6939  0.5077  0.5050
  494MOL0     C66592   6.126   2.473   3.228  0.3202  0.0828  0.0622
  494MOL0     C66593   6.152   2.390   3.352  0.1507  0.8309 -0.5486
  494MOL0     C66594   6.304   2.379   3.380  0.3325 -0.2094  0.2073
  494MOL0     C66595   6.325   2.278   3.494  0.4609 -0.1589  0.2377
  494MOL0     C66596   6.274   2.325   3.633 -0.2564 -0.4697 -0.5439
  494MOL0     C66597   6.321   2.236   3.747  0.7078 -0.0613  0.0363
  494MOL0     C66598   6.244   2.274   3.869  0.6605  0.6612 -0.9558
  494MOL0    Cl66599   6.072   2.211   3.852  0.3339 -0.1997  0.1680
  494MOL0     C66600   5.706   2.625   3.211 -0.5291  0.3432 -1.1178
  494MOL0     C66601   5.569   2.647   3.238 -0.9127 -0.3510 -0.3295
  494MOL0     O66602   5.462   2.954   3.429 -0.5321  0.8666 -0.1242
  494MOL0     C66603   5.249   2.997   3.631 -0.5023  0.7765 -0.0512
  494MOL0     C66604   5.133   3.005   3.709  0.1354 -0.5393  0.3898
  494MOL0     N66605   4.426   2.914   3.844 -1.1561  0.0057  0.0582
  494MOL0     N66606   4.362   2.860   3.943 -0.0331 -0.4144  0.3120
  494MOL0     C66607   4.899   3.543   4.486  0.7645  0.3133  0.7634
  494MOL0     C66608   5.035   3.561   4.456 -0.3343 -0.3622  0.6564
  494MOL0     C66609   5.419   3.718   4.251  0.5051  0.4292 -0.2338
  494MOL0     C66610   5.454   3.844   4.193  1.0438  0.5386  0.6363
  494MOL0     C66611   5.587   3.889   4.210  0.8089  1.1971  0.4644
  494MOL0     C66612   5.680   3.818   4.289 -0.2008 -0.8986  0.6082
  494MOL0     O66613   5.816   3.854   4.316 -0.2106 -0.5144  0.8025
  494MOL0     C66614   5.883   3.943   4.229 -0.6320  0.7475 -0.7959
  494MOL0     C66615   5.946   3.863   4.119  0.2782 -0.0034 -0.0847
  494MOL0     C66616   6.102   3.861   4.113 -0.6557 -0.0008 -0.9553
  494MOL0     C66617   6.156   3.783   3.996  0.0177  0.2456  0.6939
  494MOL0     C66618   6.301   3.752   4.012  0.2633 -0.3909  0.2229
  494MOL0     C66619   6.416   3.728   4.049  0.3084 -0.6610  0.5237
  494MOL0     C66620   5.637   3.705   4.354  0.4542 -0.3356  1.0398
  494MOL0     C66621   5.515   3.640   4.331 -0.0352 -0.2170  0.3501
  494MOL0     C66622   5.490   3.509   4.410  0.5056 -0.0893  0.1405
  494MOL0     H66623   5.036   3.589   4.123  1.3012  2.0150  0.4350
  494MOL0     H66624   4.801   3.616   4.162 -0.2524  1.9484 -0.2149
  494MOL0     H66625   4.570   3.632   4.240  0.0996 -0.7783 -2.2346
  494MOL0     H66626   4.630   3.481   4.201  1.5887  1.9824  0.1305
  494MOL0     H66627   4.392   3.534   4.372  2.8476  2.8099 -0.6369
  494MOL0     H66628   4.458   3.368   4.349  1.5627  1.4083  1.3929
  494MOL0     H66629   4.421   3.380   4.102 -0.7785  0.2823 -0.9238
  494MOL0     H66630   4.367   3.538   4.114 -0.4132  1.2988  2.0660
  494MOL0     H66631   4.179   3.493   4.253  1.1796  2.0710 -1.7464
  494MOL0     H66632   4.174   3.422   4.097  2.7981 -0.8333 -2.3206
  494MOL0     H66633   4.206   3.283   4.370 -1.5252 -2.6558 -0.2233
  494MOL0     H66634   4.085   3.254   4.249 -0.3851 -0.5072  0.5466
  494MOL0     H66635   4.274   3.188   4.091  3.2270  1.4148  0.2984
  494MOL0     H66636   4.372   3.166   4.235  0.0584 -3.6648 -0.7858
  494MOL0     H66637   4.140   3.009   4.161 -2.6263  4.5230  0.5794
  494MOL0     H66638   4.202   3.024   4.330  0.5358 -2.5420 -0.2329
  494MOL0     H66639   4.428   2.941   4.260  1.0283  1.0503 -1.9885
  494MOL0     H66640   4.309   2.825   4.211 -1.9166  1.3177  1.4655
  494MOL0     H66641   4.538   3.094   4.087 -2.8369  1.9098 -0.0731
  494MOL0     H66642   4.587   3.192   3.815 -2.0518 -0.5584  1.3603
  494MOL0     H66643   4.706   3.106   3.891 -1.1768  2.7568  0.3592
  494MOL0     H66644   4.603   3.069   3.604  1.8977  2.2187 -1.4077
  494MOL0     H66645   4.766   3.092   3.651  1.5453 -0.9004  1.4485
  494MOL0     H66646   4.776   2.877   3.579  0.7880 -0.3212  0.1443
  494MOL0     H66647   4.632   2.827   3.669  2.9151 -2.1984  1.3760
  494MOL0     H66648   4.824   2.740   3.755  2.2817 -0.0651  1.8160
  494MOL0     H66649   4.754   2.854   3.873 -0.6764 -1.1298 -0.3400
  494MOL0     H66650   4.970   2.721   3.604 -1.1131  0.9488  1.9202
  494MOL0     H66651   5.162   2.717   3.447 -1.7795  0.4083 -1.2651
  494MOL0     H66652   5.623   2.744   3.565 -4.9721  0.4962 -1.1372
  494MOL0     H66653   5.857   2.693   3.498  1.6200  1.3215 -2.0284
  494MOL0     H66654   5.926   2.419   3.237  2.4700  0.3344  3.3713
  494MOL0     H66655   5.964   2.530   3.100  0.9674 -3.6345 -0.4676
  494MOL0     H66656   6.160   2.419   3.139  2.9832  1.8641 -0.1148
  494MOL0     H66657   6.178   2.569   3.235 -1.0242  0.8967 -0.8431
  494MOL0     H66658   6.104   2.431   3.441  2.6084  0.0680  1.2269
  494MOL0     H66659   6.099   2.295   3.337 -0.9287  1.1132  1.1805
  494MOL0     H66660   6.346   2.474   3.412  2.4765 -1.7654  2.4126
  494MOL0     H66661   6.351   2.335   3.291 -1.5266  1.8768 -1.9323
  494MOL0     H66662   6.431   2.249   3.498  0.2570 -1.1455 -1.0393
  494MOL0     H66663   6.282   2.181   3.471  0.7639 -0.2677  0.1227
  494MOL0     H66664   6.316   2.425   3.648 -0.2760 -0.4113 -0.8677
  494MOL0     H66665   6.166   2.339   3.635 -0.0152  1.6275  1.2061
  494MOL0     H66666   6.426   2.263   3.757  1.0230 -1.4111  0.6900
  494MOL0     H66667   6.303   2.129   3.732 -1.1365  0.0194  1.2215
  494MOL0     H66668   6.277   2.229   3.963 -2.5893  0.0828  0.0448
  494MOL0     H66669   6.234   2.383   3.882 -2.2199  0.5045 -1.1311
  494MOL0     H66670   5.724   2.578   3.115 -0.4774 -0.9009 -0.5165
  494MOL0     H66671   5.493   2.627   3.164 -1.5304  0.8089 -0.0486
  494MOL0     H66672   5.333   3.065   3.628  1.0815 -1.0401 -3.4463
  494MOL0     H66673   5.133   3.082   3.785  1.0429 -1.0085  0.8739
  494MOL0     H66674   4.864   3.511   4.584  2.5548 -1.1435  0.9691
  494MOL0     H66675   5.111   3.561   4.534 -0.8305 -1.6289  1.1724
  494MOL0     H66676   5.379   3.894   4.131 -0.9721 -0.1995  2.3640
  494MOL0     H66677   5.618   3.974   4.150 -1.2127  1.2218 -0.6594
  494MOL0     H66678   5.956   3.996   4.290 -0.9672 -0.6360  0.8908
  494MOL0     H66679   5.813   4.018   4.191 -0.6297  1.4709  0.5754
  494MOL0     H66680   5.912   3.908   4.025 -0.5566  2.3929  1.2919
  494MOL0     H66681   5.908   3.761   4.129 -0.2868  0.3242  1.2691
  494MOL0     H66682   6.126   3.812   4.207 -1.5682 -0.3532 -0.8959
  494MOL0     H66683   6.140   3.963   4.107 -1.1397  0.2138 -0.4451
  494MOL0     H66684   6.106   3.685   3.989 -0.8571  0.5867  1.8433
  494MOL0     H66685   6.134   3.838   3.904 -2.9771  0.4286  1.4440
  494MOL0     H66686   6.518   3.707   4.070  1.8945  4.0675 -1.1139
  494MOL0     H66687   5.703   3.653   4.423 -2.8502 -2.6795  2.7639
  494MOL0     H66688   5.449   3.423   4.356 -2.2937  0.2918  1.4803
  494MOL0     H66689   5.579   3.471   4.461  1.7820 -2.0764 -3.2538
  494MOL0     H66690   5.427   3.542   4.493 -0.3252 -2.9721  0.7553
  495MOL0     O66691   0.336   2.957   2.695 -0.6798  0.0295 -0.0297
  495MOL0     C66692   0.245   2.934   2.766 -0.3643 -0.1890  0.6082
  495MOL0     O66693   0.249   2.930   2.907  0.2424 -0.4637 -0.2036
  495MOL0     C66694   0.367   2.948   2.978  1.0933 -0.2777  0.8174
  495MOL0     C66695   0.496   2.941   2.925 -0.2046  0.2748 -0.4713
  495MOL0     C66696   0.604   2.961   3.016  0.4993  0.6016  0.1683
  495MOL0     C66697   0.584   2.983   3.150 -0.6649  0.1009 -0.0549
  495MOL0     O66698   0.698   2.999   3.228  0.1318  0.1244 -0.1114
  495MOL0     C66699   0.687   3.041   3.364  0.2228  0.2177  0.3804
  495MOL0     C66700   0.824   3.047   3.434  0.1102  1.1727  0.0309
  495MOL0     C66701   0.919   3.153   3.369  0.2572  0.3050 -0.0437
  495MOL0     C66702   1.059   3.153   3.442 -1.3585 -0.9709  0.1886
  495MOL0     C66703   1.154   3.256   3.378  0.5332 -0.3231 -0.0766
  495MOL0     C66704   1.287   3.266   3.447 -0.1113  1.0092 -0.8440
  495MOL0     C66705   1.385   3.158   3.412  2.3695 -0.8535  0.0478
  495MOL0     C66706   1.431   3.155   3.271 -0.2510  0.3363  0.2890
  495MOL0     N66707   1.565   3.093   3.264 -0.6828 -0.3508  0.0579
  495MOL0     C66708   1.588   2.960   3.285 -0.6450 -0.0432 -0.0636
  495MOL0     C66709   1.726   2.947   3.281 -0.0306  0.9199  0.0127
  495MOL0     C66710   1.812   2.819   3.314  0.6729  0.5465 -0.2166
  495MOL0     C66711   1.942   2.813   3.245 -0.9856  0.1844 -0.1676
  495MOL0     C66712   1.916   2.814   3.102  0.4534 -0.5273 -0.0876
  495MOL0     C66713   2.049   2.819   3.023  0.1910  0.1415 -0.3689
  495MOL0     O66714   2.110   2.691   3.021  0.7996 -0.0801  0.1650
  495MOL0     C66715   2.228   2.671   2.950  0.2729 -0.4743 -0.2229
  495MOL0     C66716   2.305   2.557   2.977 -0.2583 -0.8266 -1.5717
  495MOL0     C66717   2.425   2.526   2.919 -0.7441  0.3200 -0.2062
  495MOL0     C66718   2.482   2.603   2.810 -0.5822  0.4176  0.3875
  495MOL0     C66719   2.615   2.566   2.745  0.7579 -0.7730  0.7019
  495MOL0     O66720   2.674   2.459   2.801 -0.6255  0.1901  0.4628
  495MOL0     C66721   2.789   2.421   2.742 -0.2961 -0.5572  0.3848
  495MOL0     C66722   2.791   2.319   2.654 -0.2629 -0.4625  1.4264
  495MOL0     C66723   2.912   2.277   2.605 -0.2194 -0.4658  0.3900
  495MOL0     C66724   3.031   2.344   2.623 -0.5296 -0.1338 -0.7020
  495MOL0     O66725   3.148   2.317   2.561 -0.1553  0.5150  0.0570
  495MOL0     C66726   3.141   2.271   2.425  0.2497  0.0894 -0.4115
  495MOL0     C66727   3.286   2.262   2.390 -0.4531 -0.1487  0.1060
  495MOL0     C66728   3.371   2.166   2.479  0.0396  0.5391  1.1431
  495MOL0     C66729   3.353   2.027   2.416 -0.1823 -0.6284 -0.3453
  495MOL0     C66730   3.465   1.924   2.453  0.8441 -0.5393 -0.8371
  495MOL0     C66731   3.592   1.942   2.389  0.4412  0.1768  1.0454
  495MOL0     C66732   3.696   1.847   2.451  0.6224  1.1827  0.4782
  495MOL0     C66733   3.822   1.831   2.358 -0.0245  0.2176 -0.5788
  495MOL0    Cl66734   3.929   1.696   2.416  0.4453  0.1961 -0.4428
  495MOL0     C66735   3.024   2.446   2.718 -0.4556 -0.8463  0.8314
  495MOL0     C66736   2.911   2.488   2.780  0.3047  0.7451  0.0192
  495MOL0     O66737   2.657   2.634   2.655 -1.1084 -0.4273  0.0122
  495MOL0     C66738   2.399   2.718   2.778  1.1370 -0.6139 -0.5203
  495MOL0     C66739   2.273   2.746   2.841  0.2053  0.6665 -0.2922
  495MOL0     N66740   1.775   3.074   3.247 -0.0331  0.9489 -0.2536
  495MOL0     N66741   1.678   3.161   3.244 -0.2318  0.5101 -0.8546
  495MOL0     C66742   0.459   2.999   3.192  0.6228 -0.0515 -0.0781
  495MOL0     C66743   0.353   2.977   3.108  0.0258  0.9912  0.1913
  495MOL0     C66744   0.111   2.908   2.701 -0.3227  0.7027 -0.4949
  495MOL0     C66745   0.006   2.854   2.776 -0.9306  0.3797 -0.0297
  495MOL0     C66746  -0.119   2.808   2.724  0.6435 -0.8933 -0.5248
  495MOL0     C66747  -0.150   2.838   2.588 -0.5689 -0.4631 -0.4172
  495MOL0     O66748  -0.280   2.814   2.549  0.5974  0.9674 -0.3769
  495MOL0     C66749  -0.302   2.801   2.407  0.4280 -0.0515 -0.2309
  495MOL0     C66750  -0.425   2.707   2.399 -0.6495  0.1508 -0.3532
  495MOL0     C66751  -0.456   2.683   2.250 -0.0852 -0.2213  0.5413
  495MOL0     C66752  -0.584   2.610   2.244  0.4465  0.1509 -0.0436
  495MOL0     C66753  -0.642   2.592   2.111  0.0941 -0.7119 -0.2668
  495MOL0     C66754  -0.696   2.560   2.009 -0.2703  0.5728 -0.3250
  495MOL0     C66755  -0.048   2.893   2.506 -0.1558  1.2460  0.3950
  495MOL0     C66756   0.086   2.927   2.556  0.0991  0.3963  0.1813
  495MOL0     C66757   0.182   2.983   2.455  1.1746  0.4202 -1.0552
  495MOL0     H66758   0.530   2.929   2.823  2.6527  0.3229  0.4127
  495MOL0     H66759   0.706   2.940   2.983 -0.6962 -1.6516 -2.5278
  495MOL0     H66760   0.660   3.148   3.365  0.8982  0.4111  2.2403
  495MOL0     H66761   0.616   2.979   3.419  0.2560 -2.4483 -2.3135
  495MOL0     H66762   0.870   2.950   3.410 -1.7124  0.1147  0.6568
  495MOL0     H66763   0.812   3.051   3.543  0.2196  0.1354  0.0928
  495MOL0     H66764   0.875   3.252   3.381 -0.6373 -0.1547  0.6634
  495MOL0     H66765   0.919   3.137   3.260 -0.4017  1.6504 -0.2712
  495MOL0     H66766   1.037   3.176   3.546 -0.5799 -0.5030  0.2636
  495MOL0     H66767   1.111   3.057   3.439  0.7709  0.1352 -1.7817
  495MOL0     H66768   1.163   3.255   3.269 -1.9119  1.8398 -0.4013
  495MOL0     H66769   1.112   3.355   3.396 -3.5408 -2.1488  1.8367
  495MOL0     H66770   1.339   3.362   3.449  1.7767  0.0223  0.0653
  495MOL0     H66771   1.259   3.251   3.552 -1.1704 -3.0175 -1.5150
  495MOL0     H66772   1.339   3.062   3.436  1.7884 -0.9410 -1.2898
  495MOL0     H66773   1.464   3.195   3.477  1.6350 -0.0475  0.5004
  495MOL0     H66774   1.361   3.101   3.207  0.3568  1.7519 -1.6934
  495MOL0     H66775   1.437   3.254   3.224  1.3836 -0.8799 -2.3353
  495MOL0     H66776   1.516   2.881   3.302  0.8217 -1.8669 -1.7270
  495MOL0     H66777   1.829   2.823   3.422  2.8831  0.4156 -0.5147
  495MOL0     H66778   1.754   2.733   3.279  0.9699  1.0301 -1.9856
  495MOL0     H66779   1.993   2.906   3.272 -1.7045  0.2573  1.0317
  495MOL0     H66780   2.011   2.729   3.266  1.2058  1.7468 -0.7395
  495MOL0     H66781   1.858   2.904   3.079  0.2089 -0.5598  0.3895
  495MOL0     H66782   1.865   2.719   3.081 -0.6904  0.1064 -0.2765
  495MOL0     H66783   2.113   2.899   3.061  0.1126  1.4777 -2.8589
  495MOL0     H66784   2.022   2.845   2.920 -1.1931  0.0411 -0.0487
  495MOL0     H66785   2.267   2.492   3.055 -1.6239  0.2522 -1.2912
  495MOL0     H66786   2.472   2.449   2.980 -2.6050 -1.4547 -0.8998
  495MOL0     H66787   2.704   2.253   2.651 -1.1588  0.6317  2.3063
  495MOL0     H66788   2.905   2.187   2.544  0.2482 -0.4806  0.3529
  495MOL0     H66789   3.101   2.173   2.396  1.2663 -0.4666 -0.0091
  495MOL0     H66790   3.091   2.348   2.366  1.3688  1.0861 -0.0936
  495MOL0     H66791   3.298   2.241   2.283 -1.4717 -1.2264  0.1845
  495MOL0     H66792   3.326   2.363   2.403  0.3263 -0.7137  2.6367
  495MOL0     H66793   3.473   2.203   2.490  0.2050 -0.1315  2.0170
  495MOL0     H66794   3.335   2.168   2.583 -0.7253 -0.5373  0.9165
  495MOL0     H66795   3.346   2.028   2.307 -0.6349 -2.8384 -0.4011
  495MOL0     H66796   3.259   1.982   2.450 -1.1215  0.2217 -1.7306
  495MOL0     H66797   3.430   1.822   2.435  3.4810 -1.4945 -0.9538
  495MOL0     H66798   3.470   1.938   2.562 -1.1363 -0.6447 -0.6904
  495MOL0     H66799   3.584   1.914   2.284 -2.8391 -0.5886  1.3815
  495MOL0     H66800   3.627   2.046   2.397  0.1340  0.5799 -1.9255
  495MOL0     H66801   3.648   1.749   2.455  1.0888  0.8407 -1.3407
  495MOL0     H66802   3.714   1.873   2.556 -0.7464  2.1149  0.4970
  495MOL0     H66803   3.789   1.815   2.255  1.8856 -0.5495 -1.1107
  495MOL0     H66804   3.868   1.930   2.362  1.1150 -0.3348  0.7930
  495MOL0     H66805   3.108   2.514   2.720 -1.1101 -0.0289  2.4059
  495MOL0     H66806   2.908   2.572   2.849  1.6658  1.1256 -0.3488
  495MOL0     H66807   2.445   2.790   2.711 -4.1453  1.5460 -2.3409
  495MOL0     H66808   2.225   2.837   2.807 -0.3978  0.0397 -1.1396
  495MOL0     H66809   0.439   3.017   3.297 -1.7893 -1.2779 -0.2522
  495MOL0     H66810   0.250   2.977   3.141  0.7487 -0.2885  2.6892
  495MOL0     H66811   0.021   2.832   2.881  2.6177 -0.0910 -0.5311
  495MOL0     H66812  -0.206   2.775   2.779 -0.0965 -0.2184 -1.2545
  495MOL0     H66813  -0.222   2.761   2.344 -0.2638  0.7399 -1.6802
  495MOL0     H66814  -0.332   2.902   2.378  0.3035  0.2782  0.9778
  495MOL0     H66815  -0.514   2.753   2.442 -0.7795 -1.3683  1.1096
  495MOL0     H66816  -0.415   2.615   2.458 -1.4928  2.2443  3.4210
  495MOL0     H66817  -0.373   2.632   2.201 -0.7186  1.1000 -2.1277
  495MOL0     H66818  -0.460   2.784   2.208 -0.4026  0.2707  1.7214
  495MOL0     H66819  -0.569   2.506   2.273 -1.4586 -0.6096 -1.5870
  495MOL0     H66820  -0.665   2.652   2.304 -2.3833 -3.1289 -1.2575
  495MOL0     H66821  -0.743   2.530   1.918 -0.5334  0.8725 -0.2887
  495MOL0     H66822  -0.078   2.909   2.403 -4.2049  2.8474  1.6191
  495MOL0     H66823   0.228   3.074   2.495 -0.5919  1.8269 -2.1169
  495MOL0     H66824   0.255   2.907   2.425  0.7483  0.4126 -2.0943
  495MOL0     H66825   0.129   3.029   2.372  0.0050 -1.5906 -1.4940
  496MOL0     O66826   0.205  10.418   9.569 -0.1367 -0.0418 -0.1634
  496MOL0     C66827   0.155  10.322   9.513  0.4912 -0.4347  0.0813
  496MOL0     O66828   0.225  10.216   9.461  0.2992 -0.7919 -0.0176
  496MOL0     C66829   0.363  10.203   9.475 -0.4516  0.3648  0.0787
  496MOL0     C66830   0.423  10.144   9.583  1.0518  0.3036  0.0848
  496MOL0     C66831   0.562  10.145   9.595  0.1652  0.9228 -0.3466
  496MOL0     C66832   0.648  10.197   9.496  0.0410  0.6026 -0.4938
  496MOL0     O66833   0.790  10.195   9.507 -0.0049  0.5773  0.1099
  496MOL0     C66834   0.867  10.291   9.438 -0.3376  0.3580 -0.3239
  496MOL0     C66835   1.013  10.297   9.478  0.1175  0.1111  0.0517
  496MOL0     C66836   1.094  10.372   9.373 -0.6300 -0.7005  0.5224
  496MOL0     C66837   1.113  10.283   9.256  0.3289 -0.2291  0.9581
  496MOL0     C66838   1.216  10.344   9.162 -0.4916 -0.1830 -0.3098
  496MOL0     C66839   1.209  10.261   9.028 -0.5882  0.9172 -0.1901
  496MOL0     C66840   1.311  10.299   8.926  0.6684 -0.3199  0.3591
  496MOL0     C66841   1.288  10.433   8.853  0.2828  0.6328  0.0661
  496MOL0     N66842   1.425  10.475   8.812 -0.1057  0.4653  0.7232
  496MOL0     C66843   1.494  10.425   8.700  0.3089  0.1210  0.2779
  496MOL0     C66844   1.615  10.488   8.707 -0.9609 -0.3579 -0.7006
  496MOL0     C66845   1.733  10.481   8.623  1.1816  0.5677 -0.1918
  496MOL0     C66846   1.868  10.442   8.680  0.0453  0.5809 -0.9679
  496MOL0     C66847   1.954  10.356   8.590 -0.2700  0.4946 -0.0857
  496MOL0     C66848   2.104  10.354   8.633 -0.6265  0.9181 -0.4571
  496MOL0     O66849   2.186  10.246   8.586  0.0589  0.9719 -0.1732
  496MOL0     C66850   2.320  10.255   8.614 -0.7597 -0.1135 -0.9559
  496MOL0     C66851   2.389  10.351   8.690  0.5815  0.6556  1.2273
  496MOL0     C66852   2.527  10.338   8.707 -0.2549 -0.3534 -0.4149
  496MOL0     C66853   2.605  10.251   8.636 -0.2285 -0.1625  1.0400
  496MOL0     C66854   2.750  10.247   8.655 -0.9584  0.6608 -0.0992
  496MOL0     O66855   2.801  10.320   8.762 -0.3506  0.2534  0.2907
  496MOL0     C66856   2.934  10.355   8.747  0.2321 -0.0356 -0.0912
  496MOL0     C66857   3.020  10.271   8.805  0.2080  0.1211 -0.1026
  496MOL0     C66858   3.157  10.292   8.791  0.3030  0.6644  0.7324
  496MOL0     C66859   3.205  10.407   8.721  0.2645  1.2397  0.3981
  496MOL0     O66860   3.336  10.442   8.696 -0.0668  0.0741 -0.3275
  496MOL0     C66861   3.437  10.370   8.759  0.7823  1.1397 -0.2418
  496MOL0     C66862   3.462  10.259   8.663  0.4756 -0.0802 -0.3091
  496MOL0     C66863   3.567  10.163   8.724 -0.4321 -1.0932 -0.4704
  496MOL0     C66864   3.570  10.032   8.635  0.4111  0.4448 -0.6308
  496MOL0     C66865   3.694   9.947   8.686 -0.1919 -0.3941 -0.0437
  496MOL0     C66866   3.830  10.017   8.653 -0.2002 -0.3730  0.3480
  496MOL0     C66867   3.838  10.041   8.493  0.5744 -0.3732 -0.1998
  496MOL0     C66868   3.955  10.126   8.468 -0.7693  0.6311 -0.0985
  496MOL0    Cl66869   4.103  10.028   8.511  0.1331 -0.2371 -0.0449
  496MOL0     C66870   3.107  10.493   8.661  0.8414  0.0412 -0.8799
  496MOL0     C66871   2.972  10.464   8.681 -0.1333 -0.9521 -0.0681
  496MOL0     O66872   2.821  10.193   8.565  0.3172 -0.4659 -0.1556
  496MOL0     C66873   2.531  10.165   8.551  0.5827  0.1403  0.3337
  496MOL0     C66874   2.396  10.166   8.542 -0.0647  0.7452 -0.0621
  496MOL0     N66875   1.619  10.569   8.820 -0.1669  0.1936 -0.8468
  496MOL0     N66876   1.501  10.561   8.879  0.0879 -0.0081  0.5192
  496MOL0     C66877   0.583  10.260   9.388  0.3425  0.0695  0.2682
  496MOL0     C66878   0.441  10.255   9.377 -0.1021  0.4546 -0.2666
  496MOL0     C66879   0.006  10.319   9.495 -0.1391  0.6676 -0.0852
  496MOL0     C66880  -0.039  10.230   9.398 -0.6899 -0.0102  0.6795
  496MOL0     C66881  -0.174  10.224   9.367  0.8235 -0.3287  0.3168
  496MOL0     C66882  -0.268  10.300   9.434  0.3304  0.1038 -0.6679
  496MOL0     O66883  -0.396  10.314   9.393 -0.7675  0.1407 -0.0597
  496MOL0     C66884  -0.458  10.229   9.298 -0.2923  0.2964  0.5133
  496MOL0     C66885  -0.607  10.259   9.263  0.2823  0.0697  0.8880
  496MOL0     C66886  -0.631  10.409   9.269  0.3237 -0.3448  0.0206
  496MOL0     C66887  -0.763  10.458   9.203 -0.2728 -0.3077 -0.1003
  496MOL0     C66888  -0.877  10.384   9.259  0.1549 -0.9809  0.6389
  496MOL0     C66889  -0.961  10.316   9.311  0.3362  0.5078 -1.3491
  496MOL0     C66890  -0.222  10.378   9.544 -0.3133 -0.2357  0.0448
  496MOL0     C66891  -0.084  10.396   9.573 -0.1229  0.5496 -0.2915
  496MOL0     C66892  -0.053  10.498   9.677 -0.7684  0.6692  0.6837
  496MOL0     H66893   0.358  10.105   9.660  0.9844 -0.3536 -0.2916
  496MOL0     H66894   0.611  10.095   9.678  2.3504 -2.4243 -3.3372
  496MOL0     H66895   0.866  10.275   9.330  2.3085 -2.1785 -0.0870
  496MOL0     H66896   0.827  10.392   9.451  0.0632  0.4938 -0.1119
  496MOL0     H66897   1.050  10.194   9.483  1.2879  0.2828 -2.9501
  496MOL0     H66898   1.020  10.347   9.575 -1.0960  1.0435 -0.3257
  496MOL0     H66899   1.196  10.398   9.403 -0.8673  1.4048 -0.3307
  496MOL0     H66900   1.041  10.464   9.349 -0.8978 -0.6389  1.3501
  496MOL0     H66901   1.134  10.180   9.284  2.2031 -0.2474 -0.3552
  496MOL0     H66902   1.017  10.287   9.203  0.7877 -0.8962  0.0471
  496MOL0     H66903   1.194  10.448   9.136 -0.1010 -0.2973 -1.1541
  496MOL0     H66904   1.310  10.345   9.218 -1.7859 -0.6875  1.9826
  496MOL0     H66905   1.230  10.157   9.055 -1.8627 -0.5012 -4.0238
  496MOL0     H66906   1.107  10.264   8.989 -0.5189  0.5220 -0.4033
  496MOL0     H66907   1.312  10.224   8.846 -0.3421 -1.0555  1.0070
  496MOL0     H66908   1.407  10.298   8.980  2.2621 -3.2455 -2.2000
  496MOL0     H66909   1.215  10.426   8.772  1.0839 -1.2978 -0.5524
  496MOL0     H66910   1.243  10.506   8.921  0.0022  1.1314 -0.6485
  496MOL0     H66911   1.455  10.355   8.627 -0.3040 -1.3713  1.9482
  496MOL0     H66912   1.706  10.421   8.536  2.2568 -0.0733 -0.0902
  496MOL0     H66913   1.740  10.582   8.581 -3.1410  1.1438 -0.0447
  496MOL0     H66914   1.917  10.531   8.722 -0.9633  1.5853 -1.8752
  496MOL0     H66915   1.840  10.371   8.759  1.0619 -1.0942 -2.0469
  496MOL0     H66916   1.943  10.391   8.486 -0.5909 -0.4359 -0.3720
  496MOL0     H66917   1.924  10.251   8.599 -0.1678  0.4935  0.2559
  496MOL0     H66918   2.112  10.359   8.742 -0.2170  0.4455 -0.4569
  496MOL0     H66919   2.157  10.446   8.606  0.2632  0.4941 -0.2066
  496MOL0     H66920   2.344  10.429   8.751 -1.5935  1.0295 -0.7175
  496MOL0     H66921   2.577  10.408   8.772 -0.3412  1.1157 -1.8689
  496MOL0     H66922   2.980  10.190   8.865  0.4397 -1.0978 -1.5339
  496MOL0     H66923   3.219  10.226   8.852  3.7354  0.3953 -2.6416
  496MOL0     H66924   3.528  10.430   8.758  0.1836  2.0667 -0.7351
  496MOL0     H66925   3.422  10.344   8.864  1.5183  1.0238 -0.1594
  496MOL0     H66926   3.375  10.202   8.631  1.6220 -1.2343 -1.5053
  496MOL0     H66927   3.501  10.293   8.567  0.3515 -2.0453 -1.0898
  496MOL0     H66928   3.656  10.225   8.738 -0.7148 -0.6974 -0.3979
  496MOL0     H66929   3.543  10.126   8.825  0.0733  1.5391  0.6958
  496MOL0     H66930   3.566  10.056   8.528 -1.3973 -1.4274 -1.0499
  496MOL0     H66931   3.481   9.973   8.656  0.0422  0.4326 -2.0931
  496MOL0     H66932   3.697   9.853   8.629  0.1910 -0.7036  0.4724
  496MOL0     H66933   3.702   9.910   8.788  2.7411  1.1122  0.3796
  496MOL0     H66934   3.839  10.114   8.702 -1.0094 -0.3629  0.4854
  496MOL0     H66935   3.916   9.955   8.682 -0.1058  0.1529  1.2250
  496MOL0     H66936   3.748  10.083   8.446 -0.2570  0.0506  1.6628
  496MOL0     H66937   3.854   9.941   8.452 -0.0969 -0.2168 -0.8648
  496MOL0     H66938   3.968  10.151   8.362  0.3319 -0.9573 -0.3698
  496MOL0     H66939   3.938  10.214   8.530  1.6913 -0.3492  2.1476
  496MOL0     H66940   3.124  10.586   8.607 -1.9381  1.6823  0.8018
  496MOL0     H66941   2.902  10.536   8.641  2.4870  1.8076 -0.0958
  496MOL0     H66942   2.585  10.099   8.484  1.2993  1.9773 -0.9658
  496MOL0     H66943   2.348  10.085   8.488 -0.2182  1.6080 -1.2463
  496MOL0     H66944   0.630  10.305   9.301 -3.7138  1.6268 -1.3550
  496MOL0     H66945   0.392  10.308   9.296 -0.0117  1.6528  0.4334
  496MOL0     H66946   0.031  10.164   9.349 -0.5258  1.6845 -1.5477
  496MOL0     H66947  -0.211  10.177   9.277 -0.8638  1.0161  0.2624
  496MOL0     H66948  -0.442  10.128   9.337 -1.0644 -0.2780 -0.6079
  496MOL0     H66949  -0.409  10.223   9.200  0.6823 -0.1983  1.0035
  496MOL0     H66950  -0.678  10.205   9.327  0.6908 -1.7892 -0.1570
  496MOL0     H66951  -0.623  10.222   9.161  1.0615  2.2850 -0.1022
  496MOL0     H66952  -0.548  10.464   9.223 -2.3595  2.2874 -2.0251
  496MOL0     H66953  -0.639  10.425   9.377  0.9025 -0.7281  0.1304
  496MOL0     H66954  -0.779  10.565   9.223  1.6795  0.0689 -0.2747
  496MOL0     H66955  -0.749  10.430   9.098  4.5403 -3.2052  0.9997
  496MOL0     H66956  -1.032  10.254   9.362  1.4436  1.3793  1.3819
  496MOL0     H66957  -0.293  10.439   9.598 -0.9217 -0.9881  0.1139
  496MOL0     H66958  -0.007  10.451   9.764  2.1757  0.3217 -0.9550
  496MOL0     H66959   0.024  10.566   9.640 -1.3163  0.8988 -0.0380
  496MOL0     H66960  -0.147  10.552   9.693 -1.6917 -0.3058 -1.1885
  497MOL0     O66961   2.906   9.843  10.953  0.1883 -0.0756  0.2783
  497MOL0     C66962   2.906   9.897  10.845  0.2294  0.0210  1.0085
  497MOL0     O66963   3.015   9.927  10.770 -0.4759  0.4756  0.5552
  497MOL0     C66964   3.155   9.905  10.801 -0.0351  0.0927  0.2091
  497MOL0     C66965   3.252   9.975  10.720  0.3040  0.4913 -0.0241
  497MOL0     C66966   3.391   9.949  10.741 -0.1470 -0.4256  0.4889
  497MOL0     C66967   3.437   9.857  10.844  0.4703  0.0130 -0.3269
  497MOL0     O66968   3.572   9.823  10.847  0.0796  0.0954 -0.0832
  497MOL0     C66969   3.617   9.709  10.922  0.2884 -0.5631 -0.8987
  497MOL0     C66970   3.766   9.698  10.908  0.5704  0.2403  0.6400
  497MOL0     C66971   3.851   9.816  10.972 -0.9569  0.4682 -0.3238
  497MOL0     C66972   4.002   9.780  10.955 -0.0026 -0.8317 -0.3573
  497MOL0     C66973   4.096   9.890  11.025  0.5507  0.1317 -0.2418
  497MOL0     C66974   4.234   9.875  10.979  0.7608  0.9139 -0.6383
  497MOL0     C66975   4.336   9.954  11.060 -0.0307  0.1827 -0.8445
  497MOL0     C66976   4.476   9.939  11.002 -0.0413  0.5425 -0.1954
  497MOL0     N66977   4.581  10.013  11.083 -0.3790 -0.5151 -1.1141
  497MOL0     C66978   4.720   9.998  11.075 -0.4579  0.3221 -0.0415
  497MOL0     C66979   4.769  10.062  11.178 -0.2626 -0.8450  1.1294
  497MOL0     C66980   4.914  10.053  11.216 -0.4555 -0.0566 -0.3319
  497MOL0     C66981   4.987  10.177  11.176 -0.4174  0.4455 -0.0939
  497MOL0     C66982   5.131  10.168  11.228 -0.3123 -0.6088  0.1957
  497MOL0     C66983   5.202  10.312  11.209 -0.3609  0.5531 -0.7544
  497MOL0     O66984   5.350  10.312  11.218  1.2864 -0.1560  0.2562
  497MOL0     C66985   5.415  10.246  11.318 -0.4921 -0.7437 -0.1620
  497MOL0     C66986   5.365  10.234  11.450 -0.1476  0.0791  0.1587
  497MOL0     C66987   5.448  10.183  11.555 -0.2534 -0.4393  0.7199
  497MOL0     C66988   5.579  10.137  11.523  0.5330  1.1970  0.0494
  497MOL0     C66989   5.660  10.078  11.635  0.8400  0.6423  0.8688
  497MOL0     O66990   5.601  10.074  11.758 -0.4889  0.9141 -0.4083
  497MOL0     C66991   5.693  10.032  11.855 -0.2444 -0.9438 -0.1181
  497MOL0     C66992   5.762  10.136  11.919  0.8536  0.0472  0.2696
  497MOL0     C66993   5.870  10.104  11.999  0.5688 -0.8946 -0.4286
  497MOL0     C66994   5.899   9.964  12.020 -1.1286 -0.3969 -0.5007
  497MOL0     O66995   5.993   9.936  12.117  0.0452  0.0202 -0.8705
  497MOL0     C66996   6.134   9.953  12.076  0.1184  0.5774 -0.1445
  497MOL0     C66997   6.215   9.923  12.211 -1.0062  1.0960 -0.5732
  497MOL0     C66998   6.189   9.787  12.287 -0.4256  0.4709  0.3245
  497MOL0     C66999   6.199   9.666  12.191  0.1171  0.1134  0.5255
  497MOL0     C67000   6.255   9.536  12.249  0.5136  0.0966  1.0782
  497MOL0     C67001   6.391   9.551  12.318 -0.0230  0.1298 -0.1156
  497MOL0     C67002   6.443   9.413  12.361 -0.4067  0.3257 -0.9083
  497MOL0     C67003   6.588   9.417  12.414 -0.0665  0.3870  0.3183
  497MOL0    Cl67004   6.654   9.256  12.411  0.0228 -0.3775 -0.0214
  497MOL0     C67005   5.823   9.858  11.962  0.0172  0.4332 -0.7530
  497MOL0     C67006   5.717   9.900  11.886 -0.4095  0.4742  0.1277
  497MOL0     O67007   5.781  10.062  11.602  0.2408  0.2040 -0.7477
  497MOL0     C67008   5.628  10.157  11.395  0.2272  0.4199 -0.6219
  497MOL0     C67009   5.550  10.211  11.297 -0.0134  0.8099 -0.7994
  497MOL0     N67010   4.662  10.126  11.240  0.6861  0.1973  0.1879
  497MOL0     N67011   4.558  10.100  11.178 -0.5021  0.4671 -0.1472
  497MOL0     C67012   3.340   9.785  10.910 -0.2959  0.1064 -0.2913
  497MOL0     C67013   3.203   9.818  10.898  0.4021  0.3660 -0.4525
  497MOL0     C67014   2.780   9.955  10.798 -0.7418 -0.1941  0.4228
  497MOL0     C67015   2.793  10.048  10.689 -0.1989  0.1261 -1.3599
  497MOL0     C67016   2.690  10.110  10.628  0.7033  0.6275 -0.0982
  497MOL0     C67017   2.562  10.090  10.681  0.3134 -0.1799  0.4498
  497MOL0     O67018   2.460  10.164  10.610 -0.2318  0.4352 -0.0088
  497MOL0     C67019   2.338  10.095  10.601  0.9143 -0.2991  0.2137
  497MOL0     C67020   2.229  10.167  10.514 -0.4146  0.4546 -0.0131
  497MOL0     C67021   2.095  10.095  10.524  0.3433  0.1285  0.7041
  497MOL0     C67022   1.992  10.162  10.436  1.1465 -0.1042  0.7102
  497MOL0     C67023   1.848  10.114  10.444 -0.1525 -0.5478  0.0106
  497MOL0     C67024   1.736  10.063  10.443  0.6183 -0.0217  0.3000
  497MOL0     C67025   2.547   9.999  10.782  0.5178 -0.5582  0.1434
  497MOL0     C67026   2.651   9.931  10.850  0.3640 -0.1429 -0.6017
  497MOL0     C67027   2.627   9.841  10.962  1.0976 -0.0138 -0.6644
  497MOL0     H67028   3.228  10.052  10.648  0.5264  1.0633  0.5110
  497MOL0     H67029   3.468  10.004  10.688  1.0192 -2.1854  0.3086
  497MOL0     H67030   3.598   9.729  11.028  0.4499 -1.0069 -0.7824
  497MOL0     H67031   3.575   9.611  10.899  0.2023 -0.0060 -3.3962
  497MOL0     H67032   3.795   9.692  10.802  1.9310 -0.0477  1.0061
  497MOL0     H67033   3.800   9.606  10.957  0.0805  0.7509  1.9658
  497MOL0     H67034   3.825   9.812  11.078  1.0711  0.5525  0.2225
  497MOL0     H67035   3.831   9.918  10.941  1.3599  2.0404  2.7672
  497MOL0     H67036   4.026   9.680  10.991 -0.7640 -0.6750  0.6075
  497MOL0     H67037   4.013   9.783  10.846  3.4244  1.2772 -0.1112
  497MOL0     H67038   4.064   9.991  10.999  1.7211  0.7957  0.7949
  497MOL0     H67039   4.098   9.877  11.134  1.8549 -0.8862 -0.3658
  497MOL0     H67040   4.249   9.767  10.986  1.5109  1.1405  2.5882
  497MOL0     H67041   4.234   9.923  10.880 -2.7912  1.2651 -0.5900
  497MOL0     H67042   4.330   9.923  11.165 -0.4906 -0.2348 -0.9914
  497MOL0     H67043   4.300  10.057  11.052 -1.0081 -0.1780 -1.2670
  497MOL0     H67044   4.502   9.833  10.997  2.0001  1.0609 -1.6239
  497MOL0     H67045   4.465   9.973  10.899 -1.0861 -1.0389 -0.6469
  497MOL0     H67046   4.779   9.936  11.008  2.2878 -0.9149  3.1708
  497MOL0     H67047   4.911  10.041  11.324 -5.3290  2.6651  0.1523
  497MOL0     H67048   4.980   9.989  11.157 -1.9716  0.8028 -3.1516
  497MOL0     H67049   4.994  10.188  11.068 -1.0599 -0.5301 -0.2481
  497MOL0     H67050   4.933  10.261  11.221  0.8827  0.7284  1.0195
  497MOL0     H67051   5.182  10.091  11.170 -2.7830 -0.4598 -2.3742
  497MOL0     H67052   5.137  10.137  11.333 -1.3023 -1.6962 -0.0535
  497MOL0     H67053   5.158  10.387  11.276 -1.4988 -0.6500 -0.1285
  497MOL0     H67054   5.183  10.326  11.102  1.9556  0.3363 -1.2409
  497MOL0     H67055   5.267  10.270  11.477  0.6248  2.3019  0.1827
  497MOL0     H67056   5.399  10.180  11.652  0.2495 -0.7103  0.9714
  497MOL0     H67057   5.741  10.240  11.894  0.8384 -0.2081 -0.8188
  497MOL0     H67058   5.923  10.185  12.048 -2.0153 -0.1893  1.4006
  497MOL0     H67059   6.167   9.893  11.990 -2.3492 -0.7216 -0.2691
  497MOL0     H67060   6.145  10.061  12.061  3.0380  0.7045  2.0016
  497MOL0     H67061   6.321   9.912  12.187 -0.8249  0.3106  0.5086
  497MOL0     H67062   6.212  10.007  12.280  0.1067  1.1183 -0.5303
  497MOL0     H67063   6.253   9.772  12.375  0.9804  1.3240 -0.5196
  497MOL0     H67064   6.088   9.787  12.328 -0.3246  0.2136  0.5804
  497MOL0     H67065   6.267   9.694  12.110  1.2140 -2.8345  0.3220
  497MOL0     H67066   6.109   9.630  12.141  1.3027 -1.2037 -0.7386
  497MOL0     H67067   6.262   9.474  12.159 -0.0939  0.2938  0.8884
  497MOL0     H67068   6.169   9.500  12.306 -1.6947  1.4862 -1.1824
  497MOL0     H67069   6.466   9.601  12.257  0.7765 -0.1080  0.6619
  497MOL0     H67070   6.366   9.606  12.409 -2.0606  0.7223 -0.9852
  497MOL0     H67071   6.448   9.355  12.269  2.8927  0.2051 -0.7715
  497MOL0     H67072   6.375   9.382  12.441  2.7448  1.2872  2.4399
  497MOL0     H67073   6.652   9.489  12.362  1.9529 -0.2812  1.7580
  497MOL0     H67074   6.598   9.445  12.520  2.1426  0.8931  0.0327
  497MOL0     H67075   5.849   9.755  11.983 -0.9204  0.2250 -0.5831
  497MOL0     H67076   5.662   9.831  11.822 -5.0889  3.0579  0.8639
  497MOL0     H67077   5.728  10.119  11.375  0.6687 -0.1385  2.3107
  497MOL0     H67078   5.587  10.217  11.195  2.2603  1.0248 -0.0085
  497MOL0     H67079   3.365   9.717  10.991  3.4946  0.5421 -0.9266
  497MOL0     H67080   3.129   9.775  10.965  0.4931 -0.8559 -1.1028
  497MOL0     H67081   2.892  10.077  10.655  1.6385 -1.8779  1.7759
  497MOL0     H67082   2.709  10.165  10.537  3.3091 -0.1699 -0.1361
  497MOL0     H67083   2.297  10.070  10.699 -2.6699  1.1226 -0.7854
  497MOL0     H67084   2.366  10.005  10.545  2.9443  1.3355 -1.5709
  497MOL0     H67085   2.259  10.195  10.413 -1.6087  1.9205  0.0150
  497MOL0     H67086   2.206  10.261  10.566  3.5596  0.7525  1.6056
  497MOL0     H67087   2.072  10.096  10.631  0.7525 -0.3524  0.8037
  497MOL0     H67088   2.111   9.993  10.490  2.8158  0.3181  1.0815
  497MOL0     H67089   1.994  10.270  10.457  0.6952 -0.1314  0.8952
  497MOL0     H67090   2.013  10.150  10.329 -0.6904 -1.9900  0.4977
  497MOL0     H67091   1.633  10.035  10.435  0.6584 -0.5179  1.3108
  497MOL0     H67092   2.447   9.988  10.822  0.0815  0.6088 -0.5807
  497MOL0     H67093   2.665   9.891  11.052  2.4115  0.1920 -1.3043
  497MOL0     H67094   2.520   9.825  10.976  0.5792  3.0517 -0.5790
  497MOL0     H67095   2.673   9.743  10.943  0.6944 -0.2262 -0.5525
  498MOL0     O67096   0.589   4.662   7.421 -0.9319 -0.0788 -0.0667
  498MOL0     C67097   0.486   4.680   7.482  0.7534 -0.7930 -0.7804
  498MOL0     O67098   0.400   4.794   7.461 -0.1820  0.0269  0.3018
  498MOL0     C67099   0.452   4.902   7.395 -0.1400  0.1370 -0.8029
  498MOL0     C67100   0.538   4.985   7.466  0.3452 -0.9614  0.3511
  498MOL0     C67101   0.603   5.088   7.406 -0.1373  0.4233 -0.5498
  498MOL0     C67102   0.563   5.137   7.284 -0.3114  0.6384 -0.3194
  498MOL0     O67103   0.637   5.242   7.228  1.2568  0.6176  0.1157
  498MOL0     C67104   0.566   5.368   7.217  0.2401 -0.2376 -0.2532
  498MOL0     C67105   0.645   5.469   7.126  0.0964  0.2723  0.2786
  498MOL0     C67106   0.746   5.531   7.209 -0.2065  0.0212 -0.7005
  498MOL0     C67107   0.857   5.586   7.129  0.5842  0.3102  1.1355
  498MOL0     C67108   0.960   5.653   7.219 -0.5868 -0.3060  0.5261
  498MOL0     C67109   1.071   5.702   7.132 -0.4158 -0.4324  0.4846
  498MOL0     C67110   1.173   5.786   7.215  0.2995  0.4335 -0.6397
  498MOL0     C67111   1.300   5.834   7.134 -0.0829 -0.1392  0.0145
  498MOL0     N67112   1.361   5.721   7.058  0.2746 -0.4637 -0.5702
  498MOL0     C67113   1.431   5.624   7.122 -0.4315 -0.4930 -0.3288
  498MOL0     C67114   1.450   5.524   7.030 -0.7152 -0.5696 -0.3769
  498MOL0     C67115   1.503   5.385   7.068 -0.6126  0.0420  0.0122
  498MOL0     C67116   1.656   5.393   7.092  0.6576 -0.3877 -0.2088
  498MOL0     C67117   1.735   5.447   6.977 -0.7866  0.2366  0.5496
  498MOL0     C67118   1.819   5.564   7.016  0.1083 -0.2830 -0.8840
  498MOL0     O67119   1.868   5.639   6.900  0.2847  1.5089  0.0047
  498MOL0     C67120   2.006   5.624   6.872 -0.0091 -0.8362 -0.2984
  498MOL0     C67121   2.095   5.536   6.927 -0.1298 -0.0939 -0.3524
  498MOL0     C67122   2.229   5.552   6.898 -0.2468  0.8326  0.3611
  498MOL0     C67123   2.286   5.648   6.816 -0.3420  0.4159  0.1753
  498MOL0     C67124   2.436   5.658   6.787 -0.0650  1.0509  0.1567
  498MOL0     O67125   2.485   5.776   6.737  0.2676 -1.2396 -0.6583
  498MOL0     C67126   2.625   5.791   6.718  0.1832  0.5328  0.0117
  498MOL0     C67127   2.723   5.746   6.807  0.5784  0.4183  0.4858
  498MOL0     C67128   2.862   5.770   6.782  1.4156  0.1489 -0.3481
  498MOL0     C67129   2.891   5.863   6.677 -0.1709  0.2179 -0.1846
  498MOL0     O67130   3.017   5.924   6.666  0.4769  0.3439 -0.6400
  498MOL0     C67131   3.076   5.936   6.536 -0.1241  0.2559 -0.0771
  498MOL0     C67132   3.224   5.990   6.539  0.5283  0.6606 -0.1706
  498MOL0     C67133   3.280   5.975   6.393 -0.7881  0.4179  0.1601
  498MOL0     C67134   3.348   5.838   6.363 -0.7676  0.3443  0.1569
  498MOL0     C67135   3.470   5.808   6.453 -0.1736 -0.1798 -0.6047
  498MOL0     C67136   3.562   5.708   6.384 -0.4589  0.9557 -0.2576
  498MOL0     C67137   3.690   5.702   6.472 -0.2498 -0.2565  0.1550
  498MOL0     C67138   3.796   5.604   6.417  0.0722  0.9028 -0.1298
  498MOL0    Cl67139   3.956   5.616   6.508 -0.4569  0.1732  0.1235
  498MOL0     C67140   2.787   5.910   6.592  0.5234 -0.5512 -0.1135
  498MOL0     C67141   2.659   5.869   6.612  0.2586  1.0535  0.3444
  498MOL0     O67142   2.504   5.560   6.824 -0.5824 -0.2016 -0.1738
  498MOL0     C67143   2.194   5.742   6.766  0.7259 -0.8110 -0.5452
  498MOL0     C67144   2.058   5.726   6.785 -0.0169  1.0290 -1.0579
  498MOL0     N67145   1.391   5.561   6.913  0.6964  0.5690  0.4480
  498MOL0     N67146   1.335   5.680   6.931  0.1154 -0.4434  0.2558
  498MOL0     C67147   0.469   5.069   7.212  0.2457  0.4186  0.0146
  498MOL0     C67148   0.415   4.947   7.266 -0.8196  0.3071 -0.7058
  498MOL0     C67149   0.437   4.586   7.589  0.6328  0.5352 -0.0323
  498MOL0     C67150   0.368   4.646   7.700 -1.2253 -0.3004 -0.6962
  498MOL0     C67151   0.327   4.568   7.808 -0.3783 -0.7339  0.4090
  498MOL0     C67152   0.349   4.437   7.813  1.1775 -0.0053 -0.0427
  498MOL0     O67153   0.307   4.371   7.932 -0.4495 -0.5596 -0.9567
  498MOL0     C67154   0.237   4.246   7.916  0.1678 -0.4549 -0.8587
  498MOL0     C67155   0.194   4.192   8.055  0.0094  0.4202  0.2614
  498MOL0     C67156   0.108   4.067   8.040  0.5148 -1.3676 -0.1785
  498MOL0     C67157   0.001   4.056   8.146 -0.1438 -0.6424 -0.1942
  498MOL0     C67158  -0.100   4.168   8.155  0.2918  0.5875 -1.0803
  498MOL0     C67159  -0.181   4.258   8.165  0.7399  0.1590  0.3496
  498MOL0     C67160   0.416   4.382   7.695 -0.1707  0.8860  1.0211
  498MOL0     C67161   0.467   4.448   7.585  0.2026  0.5231 -0.3349
  498MOL0     C67162   0.550   4.368   7.478 -0.2015  0.8848 -0.5884
  498MOL0     H67163   0.578   4.952   7.561  2.3375 -2.3309 -0.8891
  498MOL0     H67164   0.675   5.150   7.460 -0.7714  0.8203 -0.1549
  498MOL0     H67165   0.475   5.358   7.158  0.3955 -1.2183 -0.3357
  498MOL0     H67166   0.543   5.404   7.317 -0.5380 -0.0626 -0.4867
  498MOL0     H67167   0.572   5.540   7.087 -1.9901 -1.2097  1.2787
  498MOL0     H67168   0.689   5.404   7.049 -0.7336  0.5803 -0.4802
  498MOL0     H67169   0.789   5.469   7.289  4.1048  3.3612 -0.0474
  498MOL0     H67170   0.686   5.609   7.257  1.6858  1.0618  0.0743
  498MOL0     H67171   0.906   5.510   7.066 -2.5220 -2.3199  1.6008
  498MOL0     H67172   0.820   5.666   7.065  2.3206  1.1570  1.1258
  498MOL0     H67173   0.904   5.730   7.273  0.8730  0.9889  0.2551
  498MOL0     H67174   1.009   5.585   7.289  3.0942  1.6045  0.0562
  498MOL0     H67175   1.127   5.618   7.089 -1.1627 -0.7982  0.2156
  498MOL0     H67176   1.038   5.773   7.055  0.5232 -0.1233  0.3484
  498MOL0     H67177   1.216   5.733   7.301  1.6589  1.2655 -0.7702
  498MOL0     H67178   1.123   5.878   7.244  1.1798  0.9595 -0.7580
  498MOL0     H67179   1.276   5.911   7.060  0.7380 -0.5910 -0.7576
  498MOL0     H67180   1.379   5.885   7.190 -0.2455  0.2718 -0.1282
  498MOL0     H67181   1.469   5.615   7.223  0.4116 -1.4464 -0.7135
  498MOL0     H67182   1.444   5.339   7.148  1.5119 -0.1606  1.5658
  498MOL0     H67183   1.491   5.313   6.986 -2.3994  1.2844 -0.8837
  498MOL0     H67184   1.668   5.471   7.168  0.1188  4.6790 -4.7223
  498MOL0     H67185   1.694   5.293   7.116 -1.4705 -1.2348 -0.2011
  498MOL0     H67186   1.664   5.487   6.904 -0.0706  1.4880  0.4906
  498MOL0     H67187   1.809   5.376   6.940  0.8112  2.1295 -0.1083
  498MOL0     H67188   1.899   5.528   7.081 -1.3999 -0.4962  0.9173
  498MOL0     H67189   1.760   5.643   7.064  1.8714  3.4375 -4.2255
  498MOL0     H67190   2.082   5.445   6.984 -2.9498 -0.3317 -1.2430
  498MOL0     H67191   2.301   5.486   6.944 -0.6955  0.2290  0.2230
  498MOL0     H67192   2.691   5.690   6.894 -0.7287  2.9303  1.7036
  498MOL0     H67193   2.937   5.732   6.852  0.8117  1.7478  1.2293
  498MOL0     H67194   3.085   5.844   6.478 -1.6490  0.4109 -0.6076
  498MOL0     H67195   3.019   5.993   6.462  0.7980 -0.5740 -1.4786
  498MOL0     H67196   3.229   6.094   6.572  0.7781  0.4424  0.4997
  498MOL0     H67197   3.282   5.936   6.614 -1.6844  1.5623  2.3456
  498MOL0     H67198   3.197   5.995   6.325 -0.0407 -1.4972 -1.3942
  498MOL0     H67199   3.359   6.049   6.374 -1.9628  1.6077 -0.2151
  498MOL0     H67200   3.373   5.825   6.257 -0.7250  1.8019 -0.0272
  498MOL0     H67201   3.277   5.757   6.381  0.2110 -0.4243  0.7330
  498MOL0     H67202   3.436   5.761   6.546 -0.4918  0.9668 -0.1144
  498MOL0     H67203   3.527   5.899   6.476 -2.1037  0.9849 -0.1223
  498MOL0     H67204   3.504   5.616   6.375 -0.2630  0.5938  1.6221
  498MOL0     H67205   3.596   5.739   6.285  2.1506  0.5218  0.4287
  498MOL0     H67206   3.648   5.666   6.566 -0.3142 -0.9575 -0.1328
  498MOL0     H67207   3.728   5.801   6.499 -0.8401 -0.8301  3.4275
  498MOL0     H67208   3.758   5.501   6.423  0.5285  0.5612 -2.3602
  498MOL0     H67209   3.812   5.618   6.310 -2.8864  0.4086 -0.7144
  498MOL0     H67210   2.810   5.986   6.517  0.5944 -1.2314 -0.7948
  498MOL0     H67211   2.575   5.903   6.552 -1.5831 -2.0378  0.9836
  498MOL0     H67212   2.216   5.837   6.719 -2.7927  0.9016  0.9114
  498MOL0     H67213   1.996   5.806   6.746 -0.3024  1.0137 -0.6399
  498MOL0     H67214   0.443   5.116   7.118  2.5683 -1.2140 -1.5751
  498MOL0     H67215   0.340   4.893   7.208 -2.6673  1.9415  0.0298
  498MOL0     H67216   0.339   4.750   7.705  2.0557  0.7414 -0.9146
  498MOL0     H67217   0.266   4.618   7.882  0.6586  0.5794  0.4206
  498MOL0     H67218   0.307   4.174   7.872  0.3851  0.7653 -2.6426
  498MOL0     H67219   0.156   4.244   7.843 -0.9652 -2.1126  0.3692
  498MOL0     H67220   0.150   4.277   8.107 -0.8741  0.9371 -1.2723
  498MOL0     H67221   0.277   4.161   8.119  0.7885 -1.0987 -1.3852
  498MOL0     H67222   0.174   3.980   8.038  0.4218 -1.7043  3.6952
  498MOL0     H67223   0.056   4.073   7.944  1.9769 -0.9825 -0.9822
  498MOL0     H67224  -0.043   3.957   8.135 -0.7245 -0.2242 -2.0730
  498MOL0     H67225   0.054   4.063   8.242  0.2990  0.1206 -0.4841
  498MOL0     H67226  -0.251   4.334   8.190 -0.0442 -0.1040 -0.9455
  498MOL0     H67227   0.443   4.277   7.703  0.0522  0.8389 -0.2499
  498MOL0     H67228   0.651   4.406   7.463  1.4468 -3.3080 -1.3251
  498MOL0     H67229   0.549   4.263   7.509 -1.8228  0.9557 -0.3198
  498MOL0     H67230   0.495   4.369   7.383  0.2913 -1.6109 -0.9578
  499MOL0     O67231   5.011   6.984   9.459  0.2614 -1.1640 -0.2833
  499MOL0     C67232   4.987   6.866   9.439 -0.7367  0.8803 -0.2354
  499MOL0     O67233   5.068   6.758   9.482  0.1018  0.1499  0.0017
  499MOL0     C67234   5.191   6.780   9.548 -0.0348  0.1440 -0.1207
  499MOL0     C67235   5.234   6.694   9.647  0.4491  0.4545 -0.1567
  499MOL0     C67236   5.354   6.707   9.712 -0.7748 -0.1452 -0.3847
  499MOL0     C67237   5.448   6.801   9.672 -0.2223 -0.0546  0.4247
  499MOL0     O67238   5.574   6.823   9.728 -0.3765  0.3048 -0.5378
  499MOL0     C67239   5.682   6.835   9.642  0.3319  0.7205 -0.1857
  499MOL0     C67240   5.809   6.844   9.734  0.2574 -0.2265 -0.4998
  499MOL0     C67241   5.939   6.863   9.664 -0.2614  0.0587  0.0279
  499MOL0     C67242   6.032   6.875   9.779 -1.0624  0.0512  0.3227
  499MOL0     C67243   6.183   6.876   9.734  0.9450  0.4458  0.4410
  499MOL0     C67244   6.274   6.944   9.826 -0.2115 -0.8510 -0.6980
  499MOL0     C67245   6.409   6.978   9.770 -0.3105 -0.5417  0.4739
  499MOL0     C67246   6.492   6.867   9.719  0.7362  0.0604  1.2998
  499MOL0     N67247   6.612   6.914   9.664  0.5523 -0.7929  0.4619
  499MOL0     C67248   6.703   6.975   9.744  0.1569 -0.2558 -0.5219
  499MOL0     C67249   6.798   7.011   9.659 -0.1673 -0.5564  0.1414
  499MOL0     C67250   6.920   7.087   9.704 -0.2585  0.2900 -0.5851
  499MOL0     C67251   7.057   7.013   9.679 -0.7825 -0.0517  0.1140
  499MOL0     C67252   7.124   7.069   9.554  0.6559  0.0912  0.2111
  499MOL0     C67253   7.279   7.043   9.562 -0.8815 -0.4104 -0.4834
  499MOL0     O67254   7.321   7.130   9.451  0.6427 -0.1518  0.5941
  499MOL0     C67255   7.450   7.168   9.432 -0.4338 -0.8210  1.0520
  499MOL0     C67256   7.537   7.174   9.537  0.5439  0.0036  0.6441
  499MOL0     C67257   7.668   7.210   9.519 -0.6633  0.1660 -0.1310
  499MOL0     C67258   7.727   7.237   9.396  0.0231  0.2541 -0.0022
  499MOL0     C67259   7.865   7.282   9.386 -0.5328 -0.0751 -0.6495
  499MOL0     O67260   7.941   7.283   9.500  0.2897 -0.8287  0.6525
  499MOL0     C67261   8.065   7.334   9.491 -0.1493 -0.1538  0.6705
  499MOL0     C67262   8.085   7.471   9.509  0.0361 -0.9564  0.0077
  499MOL0     C67263   8.218   7.523   9.490  0.0271  0.1799  0.5596
  499MOL0     C67264   8.321   7.436   9.451  0.5068 -0.2615 -0.4302
  499MOL0     O67265   8.441   7.494   9.428 -0.7711 -0.1009 -0.3238
  499MOL0     C67266   8.539   7.463   9.533  0.5283 -0.7667  0.2382
  499MOL0     C67267   8.650   7.565   9.529  0.4629 -0.8109 -0.4807
  499MOL0     C67268   8.777   7.539   9.624  0.1454 -0.5730  0.4743
  499MOL0     C67269   8.864   7.660   9.627 -0.0213  0.0556 -0.6224
  499MOL0     C67270   9.011   7.625   9.667  0.0441  0.3981 -0.1640
  499MOL0     C67271   9.014   7.581   9.820 -0.2110 -0.1664 -0.0641
  499MOL0     C67272   9.152   7.589   9.877  0.1679 -0.1058 -0.5331
  499MOL0     C67273   9.246   7.474   9.831  0.3679  0.9260 -0.7633
  499MOL0    Cl67274   9.407   7.480   9.912  0.0012  0.1341  0.0741
  499MOL0     C67275   8.289   7.300   9.436  0.2495  0.5327 -0.6120
  499MOL0     C67276   8.160   7.246   9.449  0.5497 -0.4538 -0.3559
  499MOL0     O67277   7.898   7.319   9.277  0.7938  0.2817  0.0004
  499MOL0     C67278   7.636   7.217   9.283  0.3385 -0.0585 -0.6129
  499MOL0     C67279   7.501   7.197   9.301  0.6762  0.7851 -0.5376
  499MOL0     N67280   6.762   6.958   9.532 -0.3367  0.5973  0.2572
  499MOL0     N67281   6.650   6.904   9.539  0.1950  0.7616 -0.4760
  499MOL0     C67282   5.405   6.895   9.576  0.4632 -0.6654 -0.7386
  499MOL0     C67283   5.279   6.881   9.515 -0.5377 -0.2237 -0.6582
  499MOL0     C67284   4.858   6.829   9.378 -0.1795 -0.0272  0.0343
  499MOL0     C67285   4.809   6.698   9.388  0.2702 -0.1088  0.1988
  499MOL0     C67286   4.698   6.652   9.327 -0.1875 -1.0014  0.3581
  499MOL0     C67287   4.617   6.745   9.274 -0.3800 -0.2581 -0.2209
  499MOL0     O67288   4.504   6.706   9.221  0.1839 -0.1631 -0.0011
  499MOL0     C67289   4.450   6.575   9.234  0.1617 -0.4779  0.1644
  499MOL0     C67290   4.300   6.573   9.186 -0.2191  0.5292  0.6256
  499MOL0     C67291   4.207   6.676   9.250 -0.2900 -0.2213  1.0203
  499MOL0     C67292   4.186   6.679   9.404  0.2289  0.2384 -0.6749
  499MOL0     C67293   4.115   6.554   9.434 -0.5556 -0.2335  0.1993
  499MOL0     C67294   4.037   6.465   9.428  0.6170  0.8241  0.0308
  499MOL0     C67295   4.655   6.879   9.264 -0.1052 -0.8730 -0.5296
  499MOL0     C67296   4.779   6.925   9.304 -0.0959 -0.1304 -0.5406
  499MOL0     C67297   4.821   7.059   9.251 -0.1405  0.2295 -0.2676
  499MOL0     H67298   5.171   6.611   9.677  2.5523 -0.2929  2.7304
  499MOL0     H67299   5.379   6.638   9.792  1.1943 -0.5742 -1.2885
  499MOL0     H67300   5.688   6.743   9.583 -0.1691 -0.4667  1.5404
  499MOL0     H67301   5.676   6.924   9.577  0.6175  0.5864 -0.3998
  499MOL0     H67302   5.812   6.766   9.811 -0.1109  0.3929  0.1534
  499MOL0     H67303   5.793   6.932   9.796  0.1907 -1.0692  0.7198
  499MOL0     H67304   5.927   6.951   9.600 -2.0936 -0.5579 -0.5595
  499MOL0     H67305   5.970   6.782   9.597  4.4826  1.4575  0.1951
  499MOL0     H67306   6.012   6.970   9.831 -0.5014  0.1297  0.3999
  499MOL0     H67307   6.024   6.787   9.844 -3.5575 -0.3118 -0.3883
  499MOL0     H67308   6.210   6.771   9.720 -1.2742 -0.0979 -0.1478
  499MOL0     H67309   6.185   6.927   9.637  1.4927  0.4423  0.4468
  499MOL0     H67310   6.232   7.041   9.858 -1.1250 -0.8485 -1.8277
  499MOL0     H67311   6.264   6.887   9.918 -2.9731  0.2200 -0.2200
  499MOL0     H67312   6.467   7.043   9.837  0.4286 -0.2237 -0.4542
  499MOL0     H67313   6.386   7.041   9.683  0.0623 -2.3317 -0.9970
  499MOL0     H67314   6.511   6.813   9.812 -0.0198 -1.8343  0.3947
  499MOL0     H67315   6.432   6.806   9.651 -1.4002  0.4859  2.7098
  499MOL0     H67316   6.689   7.002   9.848 -0.4875 -0.1416 -0.6340
  499MOL0     H67317   6.916   7.182   9.650 -1.7339 -0.1862 -1.3785
  499MOL0     H67318   6.910   7.106   9.811 -2.5142  2.3215 -1.0747
  499MOL0     H67319   7.114   7.032   9.770 -1.0464 -2.2430  0.7866
  499MOL0     H67320   7.038   6.907   9.664 -1.4906  0.1045 -0.1848
  499MOL0     H67321   7.104   7.176   9.544  0.3812 -0.1348 -2.4776
  499MOL0     H67322   7.088   7.016   9.465  2.8202  0.0542 -0.6930
  499MOL0     H67323   7.299   6.938   9.538  1.3620  0.0757 -1.0538
  499MOL0     H67324   7.325   7.079   9.655 -1.3194 -0.1780 -0.3561
  499MOL0     H67325   7.509   7.151   9.640 -0.3386 -2.7391 -0.1465
  499MOL0     H67326   7.726   7.211   9.611  0.0912 -3.1583 -0.4261
  499MOL0     H67327   8.007   7.537   9.545  0.2162  0.8713 -2.6866
  499MOL0     H67328   8.248   7.627   9.499 -1.5836  0.7122  0.1232
  499MOL0     H67329   8.485   7.460   9.628 -1.1706 -0.6025 -0.6784
  499MOL0     H67330   8.580   7.362   9.523 -0.3319 -1.4359  2.6942
  499MOL0     H67331   8.683   7.564   9.425 -2.5694 -4.0243 -1.6303
  499MOL0     H67332   8.615   7.662   9.564  3.0231 -0.3236  0.9550
  499MOL0     H67333   8.739   7.513   9.724 -1.9600 -0.9864 -0.3857
  499MOL0     H67334   8.836   7.456   9.585  1.9573  1.4578 -1.3187
  499MOL0     H67335   8.828   7.732   9.701  1.5985 -1.4497  1.7770
  499MOL0     H67336   8.866   7.699   9.525 -0.9148  1.3665 -0.1516
  499MOL0     H67337   9.066   7.719   9.655  1.1356 -0.1367  0.4371
  499MOL0     H67338   9.054   7.554   9.596  0.4460  0.6723 -0.2009
  499MOL0     H67339   8.946   7.642   9.880  0.2905  0.4421 -0.1056
  499MOL0     H67340   8.977   7.479   9.830  0.2383 -0.3164  0.0776
  499MOL0     H67341   9.147   7.590   9.986 -0.6943  2.5948 -0.5292
  499MOL0     H67342   9.199   7.685   9.854 -1.5073  0.8274 -0.2257
  499MOL0     H67343   9.196   7.381   9.858  1.3484  0.9705  1.4384
  499MOL0     H67344   9.261   7.476   9.723  2.5198  2.5534 -0.5112
  499MOL0     H67345   8.361   7.221   9.423 -0.0535  0.5441 -2.5392
  499MOL0     H67346   8.140   7.139   9.452 -0.7009 -0.2095  0.9969
  499MOL0     H67347   7.680   7.221   9.183  2.3546  1.0081  0.2539
  499MOL0     H67348   7.443   7.184   9.210  1.1350  0.6654 -0.8217
  499MOL0     H67349   5.470   6.976   9.546 -2.2720  0.4811 -4.1103
  499MOL0     H67350   5.254   6.965   9.451  1.8724  1.6113  0.6366
  499MOL0     H67351   4.873   6.625   9.436  0.1502 -2.5808 -3.0828
  499MOL0     H67352   4.673   6.548   9.342 -0.0155 -1.2402 -0.9676
  499MOL0     H67353   4.451   6.556   9.342  0.2014  0.9681  0.4327
  499MOL0     H67354   4.516   6.507   9.180  1.0292  1.0181 -0.7236
  499MOL0     H67355   4.258   6.473   9.203  0.8349  0.1802  1.2946
  499MOL0     H67356   4.306   6.589   9.078  1.0878  2.7156  0.9655
  499MOL0     H67357   4.115   6.662   9.193  0.7012  0.0112 -0.7177
  499MOL0     H67358   4.245   6.777   9.229 -0.1645 -0.0592  1.9414
  499MOL0     H67359   4.285   6.684   9.450  0.5108  0.6669 -1.3127
  499MOL0     H67360   4.117   6.754   9.445 -1.7790 -1.5364 -0.6477
  499MOL0     H67361   3.966   6.384   9.432  0.4848  0.8219 -1.6707
  499MOL0     H67362   4.585   6.950   9.219  0.1700  0.1198  0.5488
  499MOL0     H67363   4.929   7.074   9.240 -0.2531  1.7102  0.3480
  499MOL0     H67364   4.790   7.075   9.147  3.3691 -0.3248 -1.5319
  499MOL0     H67365   4.765   7.134   9.308 -0.0123  1.1038 -1.2572
  500MOL0     O67366   4.032   4.754   2.500 -0.4792  0.4462 -0.2102
  500MOL0     C67367   4.010   4.828   2.412  0.1998  0.0558 -0.0036
  500MOL0     O67368   4.093   4.836   2.306  0.7001 -0.1185  0.0713
  500MOL0     C67369   4.201   4.744   2.299 -0.0024  0.0555 -0.1653
  500MOL0     C67370   4.186   4.618   2.250  0.0478 -0.0321 -0.2666
  500MOL0     C67371   4.293   4.526   2.252  0.6529  0.2776 -0.6960
  500MOL0     C67372   4.426   4.579   2.273  0.6638 -0.6029 -0.2750
  500MOL0     O67373   4.542   4.506   2.234 -0.2487 -0.2261 -0.4231
  500MOL0     C67374   4.519   4.397   2.146 -0.5430 -0.3523 -0.1175
  500MOL0     C67375   4.646   4.345   2.084 -0.1835 -0.4142 -0.2356
  500MOL0     C67376   4.753   4.306   2.191  0.4801  0.9324  1.0379
  500MOL0     C67377   4.825   4.183   2.131 -0.4634 -0.6125 -0.3446
  500MOL0     C67378   4.926   4.128   2.236 -0.4664  0.5211 -0.1100
  500MOL0     C67379   4.993   4.005   2.161 -0.5110  0.1885  0.7249
  500MOL0     C67380   4.919   3.878   2.168  0.5377  0.4106 -0.0871
  500MOL0     C67381   4.940   3.816   2.313 -0.5082  0.8355 -0.0144
  500MOL0     N67382   5.071   3.745   2.323 -0.2422 -0.0531  0.0428
  500MOL0     C67383   5.085   3.612   2.292 -0.1076 -0.7860  0.0370
  500MOL0     C67384   5.199   3.576   2.357 -0.6648 -1.1758 -1.0554
  500MOL0     C67385   5.233   3.424   2.364 -0.2596 -0.5541  0.5839
  500MOL0     C67386   5.300   3.362   2.238 -0.0926 -0.5654  0.0726
  500MOL0     C67387   5.453   3.406   2.217  0.3093 -0.5802 -0.9597
  500MOL0     C67388   5.522   3.342   2.104  0.4402  0.7822 -0.1494
  500MOL0     O67389   5.650   3.407   2.087 -0.1125  0.1005  0.0653
  500MOL0     C67390   5.752   3.347   2.020 -0.1659 -0.4796  0.4508
  500MOL0     C67391   5.882   3.393   2.032 -0.3446 -0.2402  0.9837
  500MOL0     C67392   5.988   3.336   1.965  0.2690  0.0455  0.6073
  500MOL0     C67393   5.967   3.229   1.877 -0.0450  0.5540 -0.0707
  500MOL0     C67394   6.087   3.192   1.792  0.2519 -0.1716  0.4404
  500MOL0     O67395   6.208   3.244   1.819  0.4792 -0.2595  0.5696
  500MOL0     C67396   6.313   3.188   1.755 -0.0217 -0.5300  0.7551
  500MOL0     C67397   6.336   3.050   1.749  0.3978  0.1434  0.0960
  500MOL0     C67398   6.448   2.993   1.678 -0.5788  0.3643 -0.0116
  500MOL0     C67399   6.528   3.076   1.601  0.4625 -0.1842 -0.6436
  500MOL0     O67400   6.634   3.023   1.524 -0.1940  0.3792 -0.6596
  500MOL0     C67401   6.682   3.094   1.406 -0.6088  0.7696 -0.1081
  500MOL0     C67402   6.783   2.994   1.337  0.4619 -0.1330 -0.6594
  500MOL0     C67403   6.884   3.079   1.256 -0.0435 -0.1371 -0.9946
  500MOL0     C67404   6.985   2.993   1.175  0.4189  0.9433  0.1137
  500MOL0     C67405   7.053   3.089   1.069 -0.5199 -0.1503 -0.2621
  500MOL0     C67406   7.117   3.006   0.957  0.2276 -0.4688  0.1281
  500MOL0     C67407   7.209   3.082   0.857 -0.2798 -1.0454 -0.7569
  500MOL0     C67408   7.354   3.120   0.917  1.0945 -0.1435  0.5491
  500MOL0    Cl67409   7.447   3.229   0.790 -0.2021  0.1625 -0.6169
  500MOL0     C67410   6.505   3.211   1.612  1.0116  0.1211  0.4441
  500MOL0     C67411   6.400   3.275   1.683 -0.2743  0.3912  0.4396
  500MOL0     O67412   6.063   3.114   1.703  0.2032  0.9134 -0.3620
  500MOL0     C67413   5.840   3.174   1.870  0.9231 -0.2137  0.2103
  500MOL0     C67414   5.737   3.232   1.951 -0.1401  0.4447  0.7449
  500MOL0     N67415   5.255   3.694   2.419 -0.2507  0.3619  0.0461
  500MOL0     N67416   5.168   3.787   2.398  0.6523  0.2375 -0.7221
  500MOL0     C67417   4.438   4.717   2.311 -0.2124  0.9027 -0.1677
  500MOL0     C67418   4.328   4.795   2.331  0.1050 -0.1009  0.4931
  500MOL0     C67419   3.892   4.922   2.419  0.3238  0.6583  0.5613
  500MOL0     C67420   3.796   4.906   2.528 -0.1465 -0.1677  0.3550
  500MOL0     C67421   3.683   4.987   2.540  1.4641 -1.0017 -0.2086
  500MOL0     C67422   3.646   5.078   2.443  0.3691  0.2876 -0.5278
  500MOL0     O67423   3.533   5.160   2.469 -0.0592  0.3139  0.4084
  500MOL0     C67424   3.473   5.213   2.346  0.0143 -0.2239  0.0419
  500MOL0     C67425   3.334   5.270   2.378 -0.7878  0.2461 -0.6269
  500MOL0     C67426   3.323   5.367   2.497 -0.0758 -0.0060 -0.0334
  500MOL0     C67427   3.196   5.454   2.501 -0.2901 -0.5571  0.1038
  500MOL0     C67428   3.186   5.546   2.388 -0.1198  0.6495 -0.8747
  500MOL0     C67429   3.172   5.623   2.296 -0.7855 -0.2066 -0.4736
  500MOL0     C67430   3.727   5.083   2.326 -1.3186  0.0574  0.1050
  500MOL0     C67431   3.851   5.014   2.323 -0.5026  1.0332  0.4297
  500MOL0     C67432   3.935   5.050   2.203 -0.0238 -0.0265 -1.3646
  500MOL0     H67433   4.090   4.587   2.210 -0.4548  2.2604 -0.9709
  500MOL0     H67434   4.275   4.423   2.225  1.1639 -1.0013  3.2278
  500MOL0     H67435   4.471   4.317   2.203 -1.8177  1.8444  2.1185
  500MOL0     H67436   4.454   4.432   2.066 -0.3524  0.9489  0.2694
  500MOL0     H67437   4.695   4.426   2.030  0.0222 -1.7474 -2.1462
  500MOL0     H67438   4.625   4.257   2.022 -1.4515  0.3918 -0.9762
  500MOL0     H67439   4.706   4.280   2.287 -1.6955  1.4991  0.1934
  500MOL0     H67440   4.830   4.381   2.212  2.8214 -0.6543 -1.2480
  500MOL0     H67441   4.757   4.105   2.096 -1.1468 -0.6585  1.0289
  500MOL0     H67442   4.881   4.210   2.041 -1.8368  0.0863 -1.0041
  500MOL0     H67443   5.006   4.196   2.267  3.5192 -3.2988 -1.0646
  500MOL0     H67444   4.874   4.095   2.326 -0.1984  1.1050  0.2603
  500MOL0     H67445   5.012   4.027   2.056  1.2089 -0.0379  0.9719
  500MOL0     H67446   5.095   3.997   2.201  0.6251 -3.2062 -2.3028
  500MOL0     H67447   4.956   3.805   2.094 -2.3549 -1.5357  0.2212
  500MOL0     H67448   4.812   3.890   2.151  0.5563  1.7528  0.6705
  500MOL0     H67449   4.932   3.885   2.397 -1.2747 -0.5477  1.1077
  500MOL0     H67450   4.862   3.742   2.336  1.6446 -0.4777  4.2147
  500MOL0     H67451   5.009   3.550   2.245 -0.4473 -1.1868  1.0957
  500MOL0     H67452   5.306   3.410   2.445  1.0338  1.1315 -0.2350
  500MOL0     H67453   5.136   3.376   2.379 -1.8722  2.0238 -0.8848
  500MOL0     H67454   5.296   3.254   2.258 -1.5900 -0.0581  3.0468
  500MOL0     H67455   5.240   3.391   2.152  0.0544  2.9265  1.0195
  500MOL0     H67456   5.516   3.392   2.305  0.6034  3.1945 -0.4026
  500MOL0     H67457   5.444   3.513   2.199 -1.3807 -0.7919 -1.4740
  500MOL0     H67458   5.460   3.354   2.014 -1.1357 -1.2476  0.5589
  500MOL0     H67459   5.533   3.235   2.128 -2.9744  0.6546  1.4385
  500MOL0     H67460   5.901   3.489   2.077  0.5523 -0.2638  0.6853
  500MOL0     H67461   6.086   3.383   1.968  1.0162 -1.3359 -0.6386
  500MOL0     H67462   6.265   2.988   1.802 -1.6428  3.7273  1.9487
  500MOL0     H67463   6.480   2.889   1.676  1.7933  1.0387 -0.4721
  500MOL0     H67464   6.605   3.123   1.334 -1.6846  2.4645  1.6260
  500MOL0     H67465   6.720   3.194   1.429 -2.3181  1.7559 -1.2623
  500MOL0     H67466   6.832   2.935   1.415  1.1740 -0.1472 -1.1118
  500MOL0     H67467   6.717   2.932   1.277 -1.6240  0.5589  0.7991
  500MOL0     H67468   6.824   3.139   1.187 -2.0417 -0.5485  0.2958
  500MOL0     H67469   6.940   3.144   1.324  0.2852 -1.6982  0.2927
  500MOL0     H67470   6.941   2.903   1.131 -0.0453  1.1303  0.1844
  500MOL0     H67471   7.058   2.948   1.242 -0.0795 -0.5310 -0.2918
  500MOL0     H67472   7.115   3.164   1.119 -0.8831 -0.8293  1.2823
  500MOL0     H67473   6.964   3.142   1.033 -0.6324 -0.3327 -0.2513
  500MOL0     H67474   7.171   2.923   1.002 -1.8076 -1.8955  0.0516
  500MOL0     H67475   7.034   2.970   0.896  2.2695 -3.8000 -0.9200
  500MOL0     H67476   7.157   3.170   0.819 -1.1745 -1.0018  0.4951
  500MOL0     H67477   7.235   3.006   0.783  1.5360 -1.9969  0.7745
  500MOL0     H67478   7.355   3.187   1.004  0.2911  0.5415  0.0539
  500MOL0     H67479   7.397   3.022   0.939  0.5876 -1.1861 -2.6843
  500MOL0     H67480   6.566   3.280   1.553  0.0295 -0.1250 -0.9061
  500MOL0     H67481   6.390   3.383   1.687  0.3323  0.5349 -1.2810
  500MOL0     H67482   5.833   3.090   1.802 -0.0193  0.0412 -0.0117
  500MOL0     H67483   5.637   3.192   1.934  0.3819 -0.2915 -0.7205
  500MOL0     H67484   4.536   4.761   2.322  0.5569 -0.9986  1.1181
  500MOL0     H67485   4.336   4.902   2.347  3.3994 -0.4202  1.9680
  500MOL0     H67486   3.815   4.824   2.596 -0.6200 -0.0773  0.5960
  500MOL0     H67487   3.621   4.984   2.630 -0.5050 -0.8557 -1.4916
  500MOL0     H67488   3.476   5.132   2.272  1.6287 -0.6242  0.4996
  500MOL0     H67489   3.533   5.298   2.313 -1.4882 -0.5651 -4.2031
  500MOL0     H67490   3.262   5.188   2.385 -0.6248 -0.3008 -3.7880
  500MOL0     H67491   3.307   5.334   2.294  1.7068  1.5025 -0.5704
  500MOL0     H67492   3.415   5.427   2.497 -1.5858  2.5544  2.3345
  500MOL0     H67493   3.329   5.312   2.591  1.4834  1.3833  0.7361
  500MOL0     H67494   3.109   5.387   2.504 -0.3688 -0.4223  1.1414
  500MOL0     H67495   3.200   5.515   2.591 -1.0946  0.8335 -0.7647
  500MOL0     H67496   3.173   5.706   2.228 -0.4960 -0.1258 -0.3741
  500MOL0     H67497   3.701   5.141   2.238  0.9843  2.3677  0.8184
  500MOL0     H67498   4.036   5.078   2.235 -0.5775 -1.8794  2.5949
  500MOL0     H67499   3.944   4.970   2.129  1.8455  1.1333 -2.4831
  500MOL0     H67500   3.903   5.137   2.145  0.3832 -1.2112 -3.4673
  501MOL0     O67501   7.989   7.276   6.017 -0.1405  0.3096 -0.3729
  501MOL0     C67502   8.105   7.271   6.052  0.5938 -0.4146  0.5558
  501MOL0     O67503   8.137   7.270   6.185 -1.0100  0.2069  0.3254
  501MOL0     C67504   8.039   7.306   6.279 -0.2412  0.4305  0.9379
  501MOL0     C67505   7.998   7.441   6.302  0.0924 -0.0282 -0.0089
  501MOL0     C67506   7.910   7.467   6.404 -0.3342 -0.0154 -1.0958
  501MOL0     C67507   7.865   7.370   6.494 -0.2611  0.1855 -0.9684
  501MOL0     O67508   7.781   7.379   6.599  0.3466 -0.2202  1.1319
  501MOL0     C67509   7.704   7.499   6.604  0.2543 -0.2546  0.3452
  501MOL0     C67510   7.651   7.502   6.746 -0.0874  0.2766 -0.5290
  501MOL0     C67511   7.754   7.564   6.852 -0.0894 -0.4586  0.3876
  501MOL0     C67512   7.715   7.549   6.993 -0.1863 -0.2356  0.2420
  501MOL0     C67513   7.802   7.631   7.092  0.1930 -0.1391 -0.1493
  501MOL0     C67514   7.783   7.585   7.243  0.8507  0.4890  0.2068
  501MOL0     C67515   7.639   7.622   7.289 -0.2791  0.0820 -1.7053
  501MOL0     C67516   7.614   7.613   7.442  0.4244  0.3556  0.2180
  501MOL0     N67517   7.654   7.733   7.516 -0.7822  0.6920 -0.0904
  501MOL0     C67518   7.587   7.846   7.518 -0.4887  0.4782  0.2936
  501MOL0     C67519   7.617   7.913   7.632  0.5191 -0.1814  0.2478
  501MOL0     C67520   7.569   8.049   7.672  1.2983 -0.5101  0.3006
  501MOL0     C67521   7.684   8.135   7.722 -0.0012  0.4640  0.1243
  501MOL0     C67522   7.649   8.263   7.803 -0.5742  0.1093 -1.2821
  501MOL0     C67523   7.773   8.315   7.883 -0.4282 -0.3340  0.3743
  501MOL0     O67524   7.742   8.436   7.948  0.5100  0.2791 -0.1890
  501MOL0     C67525   7.852   8.510   7.976 -0.2702  0.0106 -0.3709
  501MOL0     C67526   7.987   8.480   7.946 -1.2428  0.0866 -0.3514
  501MOL0     C67527   8.088   8.570   7.974  0.2455  0.1325 -0.0146
  501MOL0     C67528   8.058   8.689   8.043 -0.2268 -0.5740  0.2901
  501MOL0     C67529   8.174   8.781   8.093  0.2350 -0.1971 -0.6456
  501MOL0     O67530   8.139   8.876   8.186 -0.7999 -0.1168 -0.3635
  501MOL0     C67531   8.235   8.957   8.245  0.6089 -0.8629  0.1665
  501MOL0     C67532   8.346   9.023   8.182  0.2224  0.0561 -0.0925
  501MOL0     C67533   8.434   9.098   8.259  0.4346  0.1449 -0.3693
  501MOL0     C67534   8.407   9.130   8.394 -0.1843  0.9981  0.8336
  501MOL0     O67535   8.492   9.202   8.480  0.4776  0.0789 -0.0890
  501MOL0     C67536   8.626   9.236   8.425 -0.3812 -0.2567 -0.5357
  501MOL0     C67537   8.731   9.123   8.412 -0.0044  0.7167  0.5735
  501MOL0     C67538   8.859   9.175   8.355 -0.1450  0.2569  0.1191
  501MOL0     C67539   8.949   9.055   8.295  0.0443 -0.4698 -0.2467
  501MOL0     C67540   9.074   9.106   8.222 -0.2996  0.5269  0.7637
  501MOL0     C67541   9.168   9.191   8.311  0.1714 -0.6152  0.3702
  501MOL0     C67542   9.255   9.112   8.408  0.0188 -0.1552 -0.0827
  501MOL0     C67543   9.270   9.190   8.533 -0.6220 -0.5223  0.3223
  501MOL0    Cl67544   9.115   9.234   8.617  0.0606 -0.4272  0.0718
  501MOL0     C67545   8.292   9.084   8.446  0.7357 -0.5988 -0.6258
  501MOL0     C67546   8.225   8.980   8.385  0.2921 -0.1103  0.9801
  501MOL0     O67547   8.290   8.768   8.049  0.5154 -0.3863  0.1478
  501MOL0     C67548   7.927   8.723   8.065  0.5946 -0.1903  0.4462
  501MOL0     C67549   7.829   8.628   8.046 -0.1276 -1.1448 -0.6883
  501MOL0     N67550   7.695   7.826   7.706  0.5192 -0.8976 -0.2657
  501MOL0     N67551   7.724   7.728   7.631 -0.1743 -0.0209  0.2021
  501MOL0     C67552   7.905   7.238   6.469  0.3538  0.1455 -0.2667
  501MOL0     C67553   7.993   7.210   6.365 -0.6466  0.1337  0.4315
  501MOL0     C67554   8.199   7.268   5.945 -0.8810  0.3376  0.9657
  501MOL0     C67555   8.164   7.276   5.804  0.2660  0.1104  0.3189
  501MOL0     C67556   8.258   7.278   5.700 -0.1667  1.1674  0.1861
  501MOL0     C67557   8.390   7.266   5.727 -0.7952  0.4558 -0.0113
  501MOL0     O67558   8.494   7.261   5.638 -0.0257  0.6431 -1.1329
  501MOL0     C67559   8.469   7.258   5.497  0.7996  0.0137 -0.1948
  501MOL0     C67560   8.454   7.407   5.454  0.5185  0.2953  0.2722
  501MOL0     C67561   8.397   7.426   5.312  0.4906  0.1552 -0.3152
  501MOL0     C67562   8.343   7.569   5.285  0.0651  0.0375  0.5582
  501MOL0     C67563   8.222   7.592   5.361 -0.3952  0.6177 -0.0554
  501MOL0     C67564   8.124   7.625   5.426 -0.0973 -0.2290 -0.1380
  501MOL0     C67565   8.427   7.246   5.857 -0.2796 -0.0833 -0.0190
  501MOL0     C67566   8.336   7.249   5.963 -0.3213 -0.5774 -0.1710
  501MOL0     C67567   8.385   7.211   6.101 -0.5328  0.3770 -0.5846
  501MOL0     H67568   8.029   7.524   6.239  2.3608  0.7712  1.9939
  501MOL0     H67569   7.866   7.565   6.411 -1.4346 -0.5357 -0.5514
  501MOL0     H67570   7.765   7.588   6.591  0.1346 -0.0394  1.2135
  501MOL0     H67571   7.621   7.504   6.533 -0.2537 -0.6081  0.9054
  501MOL0     H67572   7.623   7.401   6.778 -0.9072  0.3029 -1.1491
  501MOL0     H67573   7.552   7.546   6.757  0.4128  1.7275 -1.4868
  501MOL0     H67574   7.759   7.672   6.832 -0.4653 -0.3371  0.9076
  501MOL0     H67575   7.845   7.507   6.831 -0.4938 -1.3252  0.9581
  501MOL0     H67576   7.609   7.571   7.013 -1.2553 -3.8823 -0.6829
  501MOL0     H67577   7.719   7.443   7.019  4.3610  0.3945  3.2351
  501MOL0     H67578   7.906   7.609   7.065 -0.0405 -0.0432 -1.1362
  501MOL0     H67579   7.785   7.738   7.077 -2.9143 -0.8153 -2.3113
  501MOL0     H67580   7.798   7.477   7.249 -0.9236  0.0874 -1.4461
  501MOL0     H67581   7.860   7.623   7.311 -0.1470 -0.5962  2.0211
  501MOL0     H67582   7.569   7.549   7.248 -1.8825  1.5780 -1.7399
  501MOL0     H67583   7.610   7.721   7.252 -2.4098  1.6712  3.3223
  501MOL0     H67584   7.509   7.594   7.464 -0.0563 -0.4051 -2.4542
  501MOL0     H67585   7.680   7.535   7.482 -0.8770 -0.6739  0.4145
  501MOL0     H67586   7.518   7.877   7.441 -1.5467 -1.9662  0.1535
  501MOL0     H67587   7.517   8.097   7.588  1.5331 -1.2005 -0.2472
  501MOL0     H67588   7.491   8.023   7.744  1.9283 -1.6305  0.5921
  501MOL0     H67589   7.744   8.073   7.790 -0.8731 -1.5983 -0.8880
  501MOL0     H67590   7.752   8.165   7.642 -0.4492 -1.2537 -0.9544
  501MOL0     H67591   7.587   8.231   7.887  2.3176 -1.5904  0.3656
  501MOL0     H67592   7.607   8.340   7.738 -0.2863  3.4671  2.1534
  501MOL0     H67593   7.834   8.339   7.795 -1.8255 -0.1000 -0.5573
  501MOL0     H67594   7.833   8.245   7.942  0.3927  0.2617  0.2662
  501MOL0     H67595   8.018   8.384   7.907  0.2302  0.1634  0.5729
  501MOL0     H67596   8.190   8.537   7.962 -0.0723 -0.2146 -2.3294
  501MOL0     H67597   8.363   9.007   8.076  2.3204  2.3075 -0.1928
  501MOL0     H67598   8.524   9.127   8.205 -0.0972  1.2899 -0.6797
  501MOL0     H67599   8.624   9.292   8.331 -1.7940 -1.9126 -1.5574
  501MOL0     H67600   8.660   9.307   8.501 -3.1946  1.9655 -1.2197
  501MOL0     H67601   8.744   9.080   8.511 -2.5482 -0.1838  0.5916
  501MOL0     H67602   8.692   9.049   8.341 -3.0195  3.1116 -0.4400
  501MOL0     H67603   8.834   9.234   8.265  1.9046  3.7149  1.5942
  501MOL0     H67604   8.909   9.246   8.422 -0.6028  0.2561  0.4708
  501MOL0     H67605   8.899   9.004   8.212  0.5978 -2.4333  0.5657
  501MOL0     H67606   8.988   8.989   8.373  0.1587 -1.4522 -1.1124
  501MOL0     H67607   9.043   9.165   8.135 -2.2771 -2.2513 -0.5922
  501MOL0     H67608   9.127   9.018   8.183 -1.5454  0.8260 -1.8366
  501MOL0     H67609   9.237   9.235   8.239  2.2656  1.3730  3.3457
  501MOL0     H67610   9.112   9.272   8.359  0.7011  0.7428 -1.2200
  501MOL0     H67611   9.354   9.102   8.363 -0.3365 -0.2359 -0.8626
  501MOL0     H67612   9.210   9.015   8.430 -2.3711  0.8629 -0.1409
  501MOL0     H67613   9.330   9.128   8.600 -1.4289 -1.3488  0.3034
  501MOL0     H67614   9.318   9.286   8.514  0.7725 -1.4431 -0.9153
  501MOL0     H67615   8.259   9.103   8.548  0.6262 -0.1683 -0.7400
  501MOL0     H67616   8.139   8.933   8.430  1.7828 -1.3364  2.7006
  501MOL0     H67617   7.906   8.813   8.123 -0.9392 -0.6823  0.7072
  501MOL0     H67618   7.733   8.671   8.072  1.1802  0.1988  2.4485
  501MOL0     H67619   7.863   7.156   6.527  0.5459 -0.0693 -0.4332
  501MOL0     H67620   8.020   7.107   6.340 -0.0532  0.8948 -2.4434
  501MOL0     H67621   8.060   7.289   5.776  0.7219 -1.1219 -2.1626
  501MOL0     H67622   8.212   7.292   5.603  2.6222  0.8572 -1.3011
  501MOL0     H67623   8.384   7.197   5.468  1.2981 -0.1156 -1.4405
  501MOL0     H67624   8.563   7.219   5.456  0.9244 -0.4767  0.5353
  501MOL0     H67625   8.556   7.446   5.454 -0.0650  1.9180  0.8393
  501MOL0     H67626   8.394   7.462   5.527 -1.5809  0.3909 -1.4093
  501MOL0     H67627   8.313   7.356   5.315  0.1841  0.5486  0.4318
  501MOL0     H67628   8.475   7.392   5.243  1.5985  2.2175 -0.1721
  501MOL0     H67629   8.418   7.646   5.302 -2.6904  3.3041 -0.8275
  501MOL0     H67630   8.320   7.579   5.178  3.7037  0.8301 -0.2714
  501MOL0     H67631   8.034   7.662   5.472 -1.0623 -3.7793  1.1121
  501MOL0     H67632   8.534   7.234   5.876 -0.5223 -0.8627  0.9517
  501MOL0     H67633   8.323   7.131   6.143  1.7923 -1.7158 -0.9086
  501MOL0     H67634   8.487   7.173   6.092 -1.1215 -1.5761  0.3136
  501MOL0     H67635   8.379   7.302   6.161  2.0287  0.1153  0.1611
  502MOL0     O67636   1.622   4.281   8.385 -0.4775  0.0958 -0.3689
  502MOL0     C67637   1.523   4.344   8.342  0.2003 -0.0630 -1.0230
  502MOL0     O67638   1.538   4.449   8.250  0.1737  0.2769 -0.0451
  502MOL0     C67639   1.655   4.468   8.180  0.1383 -0.4109 -0.2973
  502MOL0     C67640   1.694   4.598   8.173  0.5453 -0.3839  0.3102
  502MOL0     C67641   1.807   4.634   8.117 -0.6795 -0.1438  1.0724
  502MOL0     C67642   1.900   4.534   8.065  0.2259 -0.6673  0.2290
  502MOL0     O67643   2.026   4.582   8.023 -0.2392  0.0378  0.5786
  502MOL0     C67644   2.140   4.496   8.020  0.4844 -0.0116  0.5613
  502MOL0     C67645   2.269   4.571   8.007  0.0780  0.1455  0.9382
  502MOL0     C67646   2.327   4.540   7.871 -0.0401 -0.3666 -0.0899
  502MOL0     C67647   2.416   4.647   7.818 -0.1862  0.3242 -0.5787
  502MOL0     C67648   2.494   4.604   7.693 -0.5089 -0.1571 -0.4241
  502MOL0     C67649   2.609   4.517   7.722  0.2007  1.1105 -0.0982
  502MOL0     C67650   2.669   4.471   7.592 -0.9327 -0.5119 -0.3876
  502MOL0     C67651   2.789   4.382   7.637 -0.4680 -0.0373  0.6292
  502MOL0     N67652   2.911   4.448   7.693 -0.6169  0.2140  0.4631
  502MOL0     C67653   3.042   4.393   7.689  0.4964 -0.9448  0.2918
  502MOL0     C67654   3.133   4.486   7.727  0.2470 -0.5012 -0.2378
  502MOL0     C67655   3.283   4.480   7.733  1.0398 -0.0807 -0.1324
  502MOL0     C67656   3.357   4.409   7.620  0.1408  0.0855  0.1553
  502MOL0     C67657   3.514   4.420   7.615  0.0496  0.2210 -0.4041
  502MOL0     C67658   3.560   4.419   7.770 -0.2267 -0.7811 -0.4317
  502MOL0     O67659   3.701   4.392   7.777  0.3754 -0.5933 -0.2833
  502MOL0     C67660   3.745   4.261   7.770 -0.5793 -0.0606 -0.4415
  502MOL0     C67661   3.666   4.142   7.766 -0.4936 -0.3654  0.3541
  502MOL0     C67662   3.721   4.018   7.761 -0.9058 -0.0095 -0.2118
  502MOL0     C67663   3.861   4.009   7.747 -0.5244  0.6480 -0.1117
  502MOL0     C67664   3.920   3.878   7.718  0.1722  0.4404  0.7097
  502MOL0     O67665   4.058   3.869   7.741 -0.1129 -0.2251 -0.9720
  502MOL0     C67666   4.124   3.758   7.692 -0.0286  0.0754  0.6851
  502MOL0     C67667   4.125   3.724   7.552  0.3312  0.2532  0.8247
  502MOL0     C67668   4.199   3.626   7.494 -0.4683 -0.0937 -0.4916
  502MOL0     C67669   4.282   3.548   7.574 -1.2028 -1.0473 -0.8357
  502MOL0     O67670   4.366   3.447   7.522 -0.3757  0.2733  0.0603
  502MOL0     C67671   4.383   3.437   7.378 -0.0897  0.0961  0.6167
  502MOL0     C67672   4.469   3.306   7.370 -0.2796  0.8636  0.8637
  502MOL0     C67673   4.586   3.326   7.274 -0.3416  0.1402  1.5771
  502MOL0     C67674   4.661   3.201   7.247 -0.7081 -0.7466  0.3342
  502MOL0     C67675   4.791   3.235   7.184  0.3593  0.2186 -0.8098
  502MOL0     C67676   4.878   3.114   7.186 -0.5103 -0.5738 -0.0168
  502MOL0     C67677   4.994   3.139   7.083  0.1089  0.3196  0.3740
  502MOL0     C67678   5.094   3.021   7.084 -1.2740 -0.1161  0.2431
  502MOL0    Cl67679   5.024   2.873   7.008  0.2630 -0.1151 -0.3077
  502MOL0     C67680   4.271   3.560   7.713  0.3952 -0.7494  0.7066
  502MOL0     C67681   4.207   3.677   7.769 -0.6646  0.5340 -0.2711
  502MOL0     O67682   3.846   3.792   7.669 -0.7166 -0.3879 -0.0590
  502MOL0     C67683   3.935   4.120   7.756 -0.0657  0.1585  0.2766
  502MOL0     C67684   3.882   4.252   7.765 -0.2867 -0.2143  0.4858
  502MOL0     N67685   3.055   4.590   7.767 -0.3801 -0.3395  0.5103
  502MOL0     N67686   2.932   4.570   7.756  0.6938  0.2289 -0.0327
  502MOL0     C67687   1.858   4.392   8.063 -0.0117  0.3796  0.9154
  502MOL0     C67688   1.733   4.365   8.118  0.2646 -0.1728 -0.1805
  502MOL0     C67689   1.388   4.317   8.399  0.2860 -0.3384  0.2868
  502MOL0     C67690   1.278   4.379   8.330 -0.6299  0.4690 -0.4717
  502MOL0     C67691   1.146   4.359   8.364 -0.7237 -1.0034 -0.3603
  502MOL0     C67692   1.122   4.280   8.477 -0.4939  0.1156  0.4392
  502MOL0     O67693   0.996   4.281   8.525 -0.0805  0.1157 -0.6666
  502MOL0     C67694   0.957   4.191   8.626  0.9247  0.1949  1.0630
  502MOL0     C67695   0.808   4.165   8.603  0.5023  1.0495  0.0911
  502MOL0     C67696   0.738   4.084   8.710 -0.0066 -0.8494  0.7944
  502MOL0     C67697   0.594   4.051   8.688  0.5892  0.1315 -1.0686
  502MOL0     C67698   0.513   4.150   8.622 -0.3400 -0.4136  0.0793
  502MOL0     C67699   0.434   4.230   8.580 -0.6449  0.0536  0.1778
  502MOL0     C67700   1.229   4.209   8.541  0.3605 -0.0481 -0.1838
  502MOL0     C67701   1.361   4.218   8.501 -0.1830 -0.5658  0.3107
  502MOL0     C67702   1.462   4.124   8.572  0.1990 -0.0055  0.4601
  502MOL0     H67703   1.629   4.673   8.218  0.5693 -1.4955  2.2917
  502MOL0     H67704   1.835   4.739   8.122 -1.1570 -0.0622  2.9787
  502MOL0     H67705   2.143   4.440   8.114  0.1451  0.0431  0.6061
  502MOL0     H67706   2.127   4.431   7.933 -2.3027  2.1789 -0.8469
  502MOL0     H67707   2.343   4.551   8.085  0.4750  0.2626  0.5902
  502MOL0     H67708   2.252   4.678   8.020  4.9608  1.2102  0.4053
  502MOL0     H67709   2.251   4.518   7.795 -1.7574 -1.2702  1.7876
  502MOL0     H67710   2.388   4.450   7.880 -1.1393 -1.5790 -3.3924
  502MOL0     H67711   2.347   4.725   7.785 -0.6933 -0.7026 -2.0976
  502MOL0     H67712   2.484   4.683   7.896  0.1523 -0.9374 -0.2777
  502MOL0     H67713   2.420   4.559   7.625 -0.7473  1.1542 -1.0687
  502MOL0     H67714   2.542   4.693   7.650 -0.6942 -0.1187 -0.5544
  502MOL0     H67715   2.680   4.575   7.781  0.8549  1.0739 -0.8406
  502MOL0     H67716   2.571   4.430   7.776 -1.7984  1.6301 -0.5884
  502MOL0     H67717   2.686   4.552   7.521 -0.8689 -1.0216 -0.9707
  502MOL0     H67718   2.612   4.404   7.526  0.8664 -1.4172 -1.1037
  502MOL0     H67719   2.762   4.307   7.712  1.4423 -0.8744  0.5382
  502MOL0     H67720   2.821   4.334   7.544 -3.1019  1.8398 -1.4128
  502MOL0     H67721   3.070   4.302   7.637 -0.1413 -0.7316 -0.4296
  502MOL0     H67722   3.306   4.586   7.729 -0.9086  0.3475 -1.8487
  502MOL0     H67723   3.295   4.433   7.831 -1.1454  2.2167  1.3407
  502MOL0     H67724   3.329   4.304   7.610  0.4355  0.1011 -0.8754
  502MOL0     H67725   3.323   4.457   7.528 -0.9587  1.7067  1.3390
  502MOL0     H67726   3.546   4.515   7.571  0.0865 -0.6521 -2.3812
  502MOL0     H67727   3.559   4.337   7.559  2.7322  0.6142  1.0007
  502MOL0     H67728   3.506   4.349   7.835 -1.5183  0.1144 -0.4785
  502MOL0     H67729   3.540   4.518   7.813  3.6339 -0.3688  0.7488
  502MOL0     H67730   3.559   4.156   7.774 -0.5869 -0.3799 -0.7340
  502MOL0     H67731   3.656   3.932   7.749  0.4342 -1.1160  0.0660
  502MOL0     H67732   4.076   3.792   7.484  1.9339 -0.3949 -1.0818
  502MOL0     H67733   4.196   3.608   7.387 -1.8341 -2.1625 -0.1807
  502MOL0     H67734   4.291   3.421   7.320 -0.5690 -0.0281  1.3910
  502MOL0     H67735   4.439   3.524   7.343  3.0203 -1.7637  0.6401
  502MOL0     H67736   4.521   3.284   7.464  0.2781 -2.6545 -0.1249
  502MOL0     H67737   4.411   3.218   7.344  0.8597 -0.1983  1.8073
  502MOL0     H67738   4.559   3.365   7.176  1.2034 -0.7790  0.7497
  502MOL0     H67739   4.649   3.413   7.297  1.1164  0.2169 -2.1038
  502MOL0     H67740   4.595   3.140   7.184 -2.7923  0.6672  1.0489
  502MOL0     H67741   4.683   3.150   7.341 -1.0209 -0.5070  0.5371
  502MOL0     H67742   4.835   3.307   7.254 -1.8884 -1.3988  2.5569
  502MOL0     H67743   4.772   3.272   7.083 -0.8151  0.5088 -0.5049
  502MOL0     H67744   4.929   3.118   7.282 -1.5156  0.4253  0.4997
  502MOL0     H67745   4.825   3.021   7.166  0.4516 -0.8833 -1.2777
  502MOL0     H67746   5.037   3.231   7.124  0.4829 -0.0857  0.9114
  502MOL0     H67747   4.953   3.164   6.985  0.8922 -2.4935 -0.7785
  502MOL0     H67748   5.185   3.043   7.027 -3.0690  0.4588 -2.5923
  502MOL0     H67749   5.123   3.001   7.187  0.6015  0.2561 -0.1672
  502MOL0     H67750   4.335   3.503   7.779  0.0255 -1.7889  0.1904
  502MOL0     H67751   4.224   3.703   7.873  2.6596  1.4076 -0.9116
  502MOL0     H67752   4.042   4.110   7.744 -0.3360 -2.3474 -0.5522
  502MOL0     H67753   3.952   4.335   7.767 -3.1566  2.3417  1.9663
  502MOL0     H67754   1.916   4.310   8.022 -1.2474 -0.1339  0.1477
  502MOL0     H67755   1.704   4.261   8.128  2.4531 -1.0509 -1.9358
  502MOL0     H67756   1.301   4.439   8.242 -0.9039  1.0487 -0.1506
  502MOL0     H67757   1.064   4.405   8.310 -0.5093 -0.6548 -0.3911
  502MOL0     H67758   0.981   4.228   8.726  0.6292  1.5581  0.6593
  502MOL0     H67759   1.008   4.094   8.619 -0.6671 -0.5914 -0.2472
  502MOL0     H67760   0.789   4.110   8.510  0.1360  1.4941 -0.1040
  502MOL0     H67761   0.765   4.265   8.592 -1.7719  0.1982  0.6937
  502MOL0     H67762   0.741   4.143   8.801  0.2854  3.2261 -1.6098
  502MOL0     H67763   0.795   3.992   8.728  0.8344 -0.2085  1.4975
  502MOL0     H67764   0.595   3.967   8.618  0.3740 -2.1050  1.4436
  502MOL0     H67765   0.543   4.011   8.777 -2.0188  2.5114 -1.3368
  502MOL0     H67766   0.364   4.289   8.524  1.6020  1.2538 -1.5166
  502MOL0     H67767   1.204   4.143   8.624 -2.4017  0.0258 -0.8313
  502MOL0     H67768   1.531   4.090   8.494 -1.2221  2.6937 -2.1678
  502MOL0     H67769   1.516   4.163   8.658  1.2205  1.3979 -0.7659
  502MOL0     H67770   1.409   4.039   8.616 -1.3111  0.3688 -0.5734
  503MOL0     O67771   6.125   3.311   2.831 -0.2628 -0.0370  0.1089
  503MOL0     C67772   6.128   3.302   2.957  0.2843  0.1917 -0.4244
  503MOL0     O67773   6.218   3.230   3.036 -0.1239  0.3971  0.8447
  503MOL0     C67774   6.332   3.183   2.977 -0.4322 -1.0071  0.3891
  503MOL0     C67775   6.328   3.110   2.853  0.3678  0.2011  0.0505
  503MOL0     C67776   6.453   3.087   2.786 -0.5304  0.2898  0.2544
  503MOL0     C67777   6.576   3.128   2.846 -0.6413 -0.4037 -0.4278
  503MOL0     O67778   6.696   3.120   2.787 -0.1526  0.6830 -0.4806
  503MOL0     C67779   6.712   3.057   2.657 -0.3210  0.4063  0.3015
  503MOL0     C67780   6.854   3.091   2.630 -0.0649  0.0355 -0.7026
  503MOL0     C67781   6.903   3.038   2.494  0.4712 -0.3892 -0.3385
  503MOL0     C67782   6.910   2.887   2.490  0.4016  0.3107  0.1504
  503MOL0     C67783   6.966   2.827   2.361 -0.6768 -0.4676  0.4975
  503MOL0     C67784   7.089   2.899   2.317  0.2294 -0.0967 -0.1228
  503MOL0     C67785   7.165   2.821   2.207  0.7197 -0.2251  0.0812
  503MOL0     C67786   7.289   2.892   2.155  0.1072  0.1496  0.5906
  503MOL0     N67787   7.366   2.808   2.062 -0.4010 -0.1412 -0.5784
  503MOL0     C67788   7.468   2.714   2.090  0.6826 -0.6472  0.0287
  503MOL0     C67789   7.511   2.663   1.976 -0.2931 -0.3555  0.3646
  503MOL0     C67790   7.619   2.558   1.965 -0.5199  0.4108 -0.5715
  503MOL0     C67791   7.742   2.642   1.972 -1.3078  0.3508  0.8941
  503MOL0     C67792   7.858   2.558   1.923 -0.1442 -0.0972 -0.9268
  503MOL0     C67793   7.985   2.633   1.937  0.5294  0.3573 -0.2131
  503MOL0     O67794   8.104   2.554   1.887  0.9020  0.1866  0.1389
  503MOL0     C67795   8.221   2.615   1.903  0.9427  0.3294  0.2227
  503MOL0     C67796   8.242   2.741   1.959  0.1046 -0.9910  0.0774
  503MOL0     C67797   8.369   2.782   1.979  0.1441  0.7718  0.2070
  503MOL0     C67798   8.480   2.698   1.967 -0.6173  0.1851 -0.2391
  503MOL0     C67799   8.615   2.749   2.006 -0.7361  0.6141 -0.4148
  503MOL0     O67800   8.715   2.660   1.987 -0.0062 -0.2428  0.3183
  503MOL0     C67801   8.822   2.676   2.073  0.8146  0.5156 -0.1107
  503MOL0     C67802   8.930   2.674   1.994 -0.1023 -0.4127 -0.5059
  503MOL0     C67803   9.061   2.674   2.048  0.1132  0.1538 -0.6595
  503MOL0     C67804   9.076   2.670   2.186  0.5303  0.3404 -1.1487
  503MOL0     O67805   9.198   2.656   2.257 -0.6552  0.1901 -0.7178
  503MOL0     C67806   9.318   2.679   2.176 -0.0154  0.8141 -1.1726
  503MOL0     C67807   9.418   2.749   2.276 -0.1164  0.2046 -0.1394
  503MOL0     C67808   9.548   2.795   2.207 -0.3783  0.3751 -0.4417
  503MOL0     C67809   9.639   2.883   2.302  0.2495 -0.4806 -0.3326
  503MOL0     C67810   9.756   2.951   2.223 -0.1599 -0.0820 -0.4565
  503MOL0     C67811   9.834   3.052   2.314 -0.0142 -0.4908  0.9159
  503MOL0     C67812   9.930   3.126   2.225  0.2351  0.4169  0.2801
  503MOL0     C67813  10.048   3.193   2.302 -0.7686  0.4317  0.7897
  503MOL0    Cl67814  10.148   3.281   2.188 -0.0165  0.7535  0.2288
  503MOL0     C67815   8.962   2.661   2.273 -0.8257  0.3809 -0.1998
  503MOL0     C67816   8.829   2.657   2.216  0.0986 -0.4138  0.3813
  503MOL0     O67817   8.628   2.866   2.052  0.1830  0.4990  0.4748
  503MOL0     C67818   8.455   2.579   1.895  0.3008  0.2423 -0.2941
  503MOL0     C67819   8.327   2.541   1.858  1.1125  1.2815 -0.6424
  503MOL0     N67820   7.441   2.724   1.875 -1.0283 -0.1473 -0.2956
  503MOL0     N67821   7.358   2.813   1.925  0.4429  0.2544 -0.2208
  503MOL0     C67822   6.572   3.204   2.969 -0.0167 -0.7777  0.0162
  503MOL0     C67823   6.450   3.225   3.030 -0.3479  0.3554 -0.0484
  503MOL0     C67824   6.026   3.398   3.027  0.0085  0.1857  0.6503
  503MOL0     C67825   5.938   3.474   2.941  0.5419  0.2339 -0.5023
  503MOL0     C67826   5.853   3.571   2.996  0.5942  0.3441 -0.8460
  503MOL0     C67827   5.859   3.591   3.136  0.0104  1.2146  0.4375
  503MOL0     O67828   5.793   3.674   3.218  0.1924 -0.2215 -0.7198
  503MOL0     C67829   5.690   3.760   3.164  0.7815  0.3592 -0.5006
  503MOL0     C67830   5.555   3.680   3.151  0.3452 -0.2708  0.0095
  503MOL0     C67831   5.434   3.762   3.111 -0.1611  0.1324 -0.1015
  503MOL0     C67832   5.294   3.686   3.119 -0.0319 -0.7843 -0.1712
  503MOL0     C67833   5.187   3.784   3.092  0.5613  0.8065  0.4095
  503MOL0     C67834   5.100   3.865   3.058 -0.4806 -0.3455  0.2285
  503MOL0     C67835   5.947   3.519   3.220 -0.0034 -0.1881  0.7732
  503MOL0     C67836   6.033   3.423   3.166 -0.1511 -0.3151 -0.5360
  503MOL0     C67837   6.131   3.363   3.266 -0.0485  0.4733  0.3418
  503MOL0     H67838   6.235   3.081   2.804 -0.7766  4.4363 -0.6995
  503MOL0     H67839   6.455   3.026   2.696 -0.9886  1.4432 -0.5645
  503MOL0     H67840   6.688   2.952   2.673  0.7630  0.1766  0.4722
  503MOL0     H67841   6.656   3.106   2.576  0.9202 -0.0973 -0.8951
  503MOL0     H67842   6.919   3.054   2.710  1.3766  1.6246 -1.0640
  503MOL0     H67843   6.859   3.200   2.632 -1.4188  0.1602 -2.4296
  503MOL0     H67844   7.002   3.082   2.474 -0.6956  2.1070 -1.1283
  503MOL0     H67845   6.847   3.070   2.405 -1.3105 -1.5822  0.3001
  503MOL0     H67846   6.967   2.845   2.573  0.1871 -1.2640 -0.4693
  503MOL0     H67847   6.808   2.847   2.494 -0.6635  2.5731 -1.9009
  503MOL0     H67848   6.996   2.723   2.381 -1.9334 -0.6858  1.4141
  503MOL0     H67849   6.888   2.837   2.286 -0.2798 -3.5955 -0.4806
  503MOL0     H67850   7.065   2.997   2.272  0.4517 -0.4688 -1.0814
  503MOL0     H67851   7.161   2.913   2.397 -0.2542  1.2908  0.1042
  503MOL0     H67852   7.103   2.802   2.119  0.8910  1.2885 -0.3938
  503MOL0     H67853   7.185   2.717   2.236  0.6519 -0.4109 -0.5285
  503MOL0     H67854   7.251   2.976   2.096  2.1339 -0.8492 -2.3510
  503MOL0     H67855   7.358   2.924   2.234 -0.2179 -5.0031  3.3487
  503MOL0     H67856   7.507   2.694   2.190  1.2496  1.8106  0.3688
  503MOL0     H67857   7.618   2.483   2.045 -0.0813  0.3819 -0.5916
  503MOL0     H67858   7.611   2.504   1.870 -2.5460 -1.5727  0.6278
  503MOL0     H67859   7.738   2.730   1.907 -1.3464  0.4438  1.0226
  503MOL0     H67860   7.775   2.669   2.073  3.1733  1.1204 -0.5264
  503MOL0     H67861   7.840   2.528   1.819 -2.6365 -0.7488 -0.3777
  503MOL0     H67862   7.865   2.462   1.975  3.6789  0.5746  0.0927
  503MOL0     H67863   8.003   2.640   2.045 -1.5818  2.8783  0.0655
  503MOL0     H67864   7.969   2.732   1.892 -2.8793  1.0354  2.1187
  503MOL0     H67865   8.160   2.809   1.975  2.3219  2.2727 -1.3318
  503MOL0     H67866   8.379   2.883   2.018 -0.5159  0.5609  0.9479
  503MOL0     H67867   8.918   2.667   1.886 -2.3031  1.0173 -0.4250
  503MOL0     H67868   9.138   2.665   1.972 -0.7602 -0.3566 -1.4958
  503MOL0     H67869   9.351   2.580   2.142  1.9750  2.1346 -3.3980
  503MOL0     H67870   9.300   2.747   2.092 -2.1330  1.9511  0.1148
  503MOL0     H67871   9.373   2.840   2.318 -0.2032  0.3635 -0.5624
  503MOL0     H67872   9.433   2.680   2.359 -1.4533  0.5295  0.3898
  503MOL0     H67873   9.610   2.706   2.188  2.2664  1.5374  1.8945
  503MOL0     H67874   9.526   2.848   2.115 -0.6087  0.6539 -0.2280
  503MOL0     H67875   9.688   2.838   2.389  0.1262  0.9498  0.5092
  503MOL0     H67876   9.576   2.955   2.354  0.2387  0.1728 -1.2287
  503MOL0     H67877   9.710   2.998   2.135 -1.9164 -0.0386  0.4479
  503MOL0     H67878   9.837   2.879   2.204  0.8954  1.2379 -1.1755
  503MOL0     H67879   9.764   3.128   2.349 -0.2393 -0.6521  0.8187
  503MOL0     H67880   9.876   2.997   2.399 -0.2381 -0.6357  0.9348
  503MOL0     H67881   9.877   3.206   2.171  1.9786  2.3005  1.2148
  503MOL0     H67882   9.975   3.061   2.150  0.5409  2.4971 -1.4342
  503MOL0     H67883  10.025   3.257   2.387  3.8053 -0.6205  3.0978
  503MOL0     H67884  10.109   3.114   2.346  2.0813  2.2196  0.2595
  503MOL0     H67885   8.976   2.654   2.380 -0.2090 -0.6024 -0.3319
  503MOL0     H67886   8.736   2.641   2.269 -0.2052  0.1074  0.0076
  503MOL0     H67887   8.533   2.516   1.854  1.4183 -0.0842  2.1940
  503MOL0     H67888   8.287   2.451   1.812 -2.1305  3.0876 -1.6787
  503MOL0     H67889   6.655   3.249   3.021  0.2162 -0.8373 -0.2953
  503MOL0     H67890   6.446   3.273   3.128 -4.8105 -0.5738  0.4787
  503MOL0     H67891   5.930   3.444   2.837  1.3844 -2.2128  0.0649
  503MOL0     H67892   5.774   3.622   2.943 -1.4260 -0.8508  0.8439
  503MOL0     H67893   5.713   3.813   3.071 -1.7070  1.1537 -0.7385
  503MOL0     H67894   5.678   3.846   3.231 -1.8556  0.7774 -1.4082
  503MOL0     H67895   5.538   3.618   3.239  0.0515  0.8976  0.8082
  503MOL0     H67896   5.578   3.605   3.075  1.9473 -2.1759  2.2318
  503MOL0     H67897   5.446   3.811   3.014  2.3885 -0.8479 -0.3433
  503MOL0     H67898   5.427   3.828   3.198  0.0124 -0.3230  0.2654
  503MOL0     H67899   5.283   3.608   3.043 -2.4652  2.8303 -4.0034
  503MOL0     H67900   5.277   3.646   3.219 -2.2599 -2.1383 -1.0012
  503MOL0     H67901   5.026   3.939   3.036  1.3947  1.6150  0.1249
  503MOL0     H67902   5.940   3.544   3.326 -4.0899  0.7520  0.4879
  503MOL0     H67903   6.107   3.257   3.278 -5.1391  1.0864 -1.9115
  503MOL0     H67904   6.232   3.397   3.243  0.0899  1.0296  1.6629
  503MOL0     H67905   6.126   3.407   3.366  0.6971  1.8230 -0.1989
  504MOL0     O67906   5.494   7.274   9.151  0.0477 -1.2214  0.2572
  504MOL0     C67907   5.501   7.170   9.085 -0.1100  0.0437  0.2354
  504MOL0     O67908   5.613   7.094   9.066 -0.1290 -0.5741  0.2005
  504MOL0     C67909   5.726   7.121   9.140  1.2776  0.6973 -0.4214
  504MOL0     C67910   5.844   7.122   9.071  0.4953 -0.3246  0.7463
  504MOL0     C67911   5.965   7.146   9.128 -0.7136  0.9749  0.2544
  504MOL0     C67912   5.969   7.187   9.258 -0.1232 -0.4767  0.3025
  504MOL0     O67913   6.083   7.218   9.324  0.6261 -0.0996  0.0667
  504MOL0     C67914   6.130   7.111   9.412  0.4690 -0.5851  0.1836
  504MOL0     C67915   6.269   7.060   9.365 -0.1560 -0.1854 -0.3987
  504MOL0     C67916   6.256   6.945   9.267  0.8424 -0.7075  0.0061
  504MOL0     C67917   6.392   6.883   9.231 -0.7656 -1.0340 -0.9486
  504MOL0     C67918   6.376   6.753   9.147 -0.6273 -0.8921  0.0811
  504MOL0     C67919   6.502   6.670   9.119  0.7845  0.2057 -0.4651
  504MOL0     C67920   6.564   6.603   9.245  0.0128 -0.1501  0.7901
  504MOL0     C67921   6.472   6.518   9.327  0.5111  0.1975  0.2178
  504MOL0     N67922   6.403   6.409   9.251  0.6149 -0.4612 -0.6348
  504MOL0     C67923   6.460   6.294   9.201 -0.1733  0.2882 -0.5949
  504MOL0     C67924   6.366   6.221   9.140  0.3689  0.2496 -0.1886
  504MOL0     C67925   6.388   6.093   9.069  0.3369  0.4586  0.4743
  504MOL0     C67926   6.301   6.093   8.945  0.3127  0.4258 -0.2329
  504MOL0     C67927   6.161   6.026   8.981 -0.3738 -0.1852  0.0288
  504MOL0     C67928   6.075   6.003   8.849  0.3817  0.0596 -0.0348
  504MOL0     O67929   5.960   5.934   8.896 -0.1125  0.0721 -0.0652
  504MOL0     C67930   5.872   5.883   8.811  0.5740 -0.3236  0.0592
  504MOL0     C67931   5.751   5.813   8.853 -0.1410 -0.4039 -0.9292
  504MOL0     C67932   5.661   5.767   8.768 -0.3399 -0.1150  0.6428
  504MOL0     C67933   5.672   5.789   8.629  0.1425 -0.1216  0.0303
  504MOL0     C67934   5.561   5.748   8.534  0.1973 -0.2285  0.0792
  504MOL0     O67935   5.442   5.718   8.602 -0.0715 -0.4516 -0.1142
  504MOL0     C67936   5.331   5.693   8.537  0.9322  0.5557  0.0814
  504MOL0     C67937   5.323   5.590   8.444  0.8741  0.2373  0.5998
  504MOL0     C67938   5.204   5.564   8.376 -0.1383  0.3185 -0.1138
  504MOL0     C67939   5.085   5.647   8.402 -0.0031 -0.3989  0.8065
  504MOL0     O67940   4.967   5.626   8.340 -0.0062  0.1189  0.4661
  504MOL0     C67941   4.919   5.751   8.274 -0.4367  0.3538  0.0677
  504MOL0     C67942   4.804   5.735   8.188  0.6948 -0.8911 -1.3805
  504MOL0     C67943   4.818   5.598   8.124  0.8854  0.3619  0.5811
  504MOL0     C67944   4.697   5.577   8.028  0.6262 -0.2671 -0.2679
  504MOL0     C67945   4.712   5.449   7.954 -0.0249 -0.2116 -0.2742
  504MOL0     C67946   4.612   5.423   7.850 -0.0411 -0.3665 -0.4817
  504MOL0     C67947   4.469   5.392   7.919  0.6909 -0.1959 -0.4517
  504MOL0     C67948   4.371   5.349   7.811  0.5559  0.1879 -0.4664
  504MOL0    Cl67949   4.372   5.449   7.666 -0.2164  0.1822  0.0973
  504MOL0     C67950   5.101   5.754   8.488  0.3131 -0.2794 -0.3670
  504MOL0     C67951   5.227   5.781   8.551 -0.0631  0.0725 -0.3807
  504MOL0     O67952   5.576   5.753   8.412 -0.5163 -0.1931 -0.0246
  504MOL0     C67953   5.788   5.848   8.585 -0.8151 -0.4312 -0.1010
  504MOL0     C67954   5.881   5.900   8.673 -0.0102 -0.5296 -0.6288
  504MOL0     N67955   6.249   6.293   9.162  0.4078  0.9951 -0.8406
  504MOL0     N67956   6.264   6.403   9.221  0.7661  0.2815 -0.6725
  504MOL0     C67957   5.855   7.188   9.336  0.2344 -0.2580  0.0293
  504MOL0     C67958   5.732   7.150   9.275 -0.0814  1.0749  0.4996
  504MOL0     C67959   5.374   7.128   9.019 -0.4114  0.1491 -1.1023
  504MOL0     C67960   5.388   7.057   8.900  0.5121  0.6904 -0.6706
  504MOL0     C67961   5.281   7.001   8.834 -0.3181  0.0544  0.4773
  504MOL0     C67962   5.148   7.022   8.877 -0.3079 -0.5098 -0.7896
  504MOL0     O67963   5.052   6.957   8.804  0.4334  0.3690  1.3256
  504MOL0     C67964   4.910   6.986   8.817 -0.2440 -0.0544  0.3387
  504MOL0     C67965   4.886   7.132   8.760 -0.3158  1.2383 -0.0139
  504MOL0     C67966   4.949   7.157   8.620  0.9579  0.2503 -0.3380
  504MOL0     C67967   4.935   7.291   8.563  0.4424 -0.1509  0.0720
  504MOL0     C67968   4.994   7.284   8.424  0.2762 -0.0567 -0.4152
  504MOL0     C67969   5.044   7.290   8.316  0.4582  0.4402 -1.0406
  504MOL0     C67970   5.138   7.091   8.997  0.1371 -0.4845  0.2416
  504MOL0     C67971   5.246   7.146   9.065  1.3374  0.8223 -0.3759
  504MOL0     C67972   5.208   7.215   9.192  0.0396 -0.6450 -0.8472
  504MOL0     H67973   5.843   7.116   8.962 -1.1793 -1.3349  0.7820
  504MOL0     H67974   6.061   7.132   9.078 -1.2347 -2.7213  0.0454
  504MOL0     H67975   6.141   7.156   9.511  1.9865 -0.0490 -0.2021
  504MOL0     H67976   6.056   7.031   9.413 -0.3292 -0.0435 -2.9671
  504MOL0     H67977   6.321   7.021   9.453 -1.7170  0.1214  0.6860
  504MOL0     H67978   6.340   7.139   9.338 -0.9367 -0.0480 -2.1689
  504MOL0     H67979   6.203   6.977   9.177 -1.7483  0.0239  1.6858
  504MOL0     H67980   6.194   6.868   9.312  2.0758 -1.6342  0.1826
  504MOL0     H67981   6.448   6.962   9.181 -1.0621  0.2961  0.7064
  504MOL0     H67982   6.445   6.873   9.327 -0.6724  0.6656 -0.8031
  504MOL0     H67983   6.301   6.687   9.189 -0.3450 -0.6331  1.0097
  504MOL0     H67984   6.336   6.788   9.051  0.7513 -0.6886 -0.4491
  504MOL0     H67985   6.469   6.590   9.051 -0.2415 -1.7440  2.1557
  504MOL0     H67986   6.576   6.734   9.069  0.9601  0.7166  0.4378
  504MOL0     H67987   6.605   6.685   9.304  0.7439  0.1966 -0.1590
  504MOL0     H67988   6.658   6.551   9.222 -0.6126 -0.7303 -0.5634
  504MOL0     H67989   6.508   6.469   9.418  0.1459 -0.3197  0.0877
  504MOL0     H67990   6.395   6.587   9.363  1.4658  0.7419  1.2710
  504MOL0     H67991   6.561   6.260   9.222 -1.7960 -3.1802  2.8871
  504MOL0     H67992   6.492   6.083   9.036  0.1463 -2.4843  0.5413
  504MOL0     H67993   6.370   6.005   9.131  1.0908 -1.3045 -1.6633
  504MOL0     H67994   6.278   6.195   8.911  0.5520  0.7467  0.5592
  504MOL0     H67995   6.342   6.048   8.854  1.4324  1.0570 -0.0563
  504MOL0     H67996   6.105   6.088   9.052 -2.2700  0.8079 -2.1730
  504MOL0     H67997   6.178   5.925   9.018  0.8961 -0.8651 -2.2270
  504MOL0     H67998   6.138   5.951   8.777  1.3320  2.1317 -0.7797
  504MOL0     H67999   6.049   6.104   8.816  2.0794  0.8369  0.8873
  504MOL0     H68000   5.731   5.819   8.959 -1.5260  0.6668 -1.2282
  504MOL0     H68001   5.584   5.709   8.817 -0.4805 -2.1488 -1.8011
  504MOL0     H68002   5.405   5.522   8.423  0.4336 -0.4210  0.9417
  504MOL0     H68003   5.207   5.487   8.300  0.3539 -0.1047  0.3271
  504MOL0     H68004   4.889   5.814   8.358  1.0059 -1.7013  2.2536
  504MOL0     H68005   5.007   5.798   8.231 -1.4372  3.2180  0.9620
  504MOL0     H68006   4.706   5.736   8.237 -0.1556 -2.3863 -2.9135
  504MOL0     H68007   4.787   5.817   8.117 -1.3126  0.8667  0.9396
  504MOL0     H68008   4.913   5.573   8.077 -0.8039  0.2251 -3.0533
  504MOL0     H68009   4.808   5.516   8.197  0.8072 -1.0998 -1.0182
  504MOL0     H68010   4.692   5.653   7.950  1.4472  0.6634  0.5603
  504MOL0     H68011   4.607   5.584   8.090  1.5637  0.3126  1.0984
  504MOL0     H68012   4.712   5.361   8.019 -0.9723 -0.4524 -0.5922
  504MOL0     H68013   4.808   5.450   7.901  0.1347 -2.1153 -0.0915
  504MOL0     H68014   4.608   5.506   7.779  2.5846 -0.1611 -0.4813
  504MOL0     H68015   4.647   5.332   7.801  1.3316 -0.1071 -0.0111
  504MOL0     H68016   4.422   5.471   7.978 -0.4686 -1.1222 -0.0954
  504MOL0     H68017   4.480   5.305   7.984 -1.0577  1.0214  1.6187
  504MOL0     H68018   4.393   5.247   7.779  0.4705 -0.4604  1.4494
  504MOL0     H68019   4.267   5.355   7.845  0.4234 -2.9076 -0.0544
  504MOL0     H68020   5.032   5.834   8.510 -1.1755 -2.1772  2.4932
  504MOL0     H68021   5.220   5.854   8.631  0.5137  0.2274 -0.4717
  504MOL0     H68022   5.813   5.867   8.481 -0.0131  0.1390  0.1825
  504MOL0     H68023   5.976   5.932   8.631  0.9931 -3.4419 -0.7851
  504MOL0     H68024   5.858   7.221   9.439 -0.3562 -0.8740  0.2521
  504MOL0     H68025   5.637   7.155   9.328 -0.8708 -0.1893 -0.7275
  504MOL0     H68026   5.487   7.037   8.862  1.1564 -1.6192  1.8532
  504MOL0     H68027   5.293   6.954   8.736 -1.1797  0.9939 -0.1079
  504MOL0     H68028   4.883   6.966   8.921  1.4921 -1.2868  0.6135
  504MOL0     H68029   4.854   6.909   8.763  1.4867 -1.5887  0.6019
  504MOL0     H68030   4.937   7.204   8.824  0.9337 -1.7391  2.6426
  504MOL0     H68031   4.778   7.149   8.755 -0.2329  1.4931 -2.0259
  504MOL0     H68032   4.909   7.077   8.557  1.9231  0.8161 -1.7235
  504MOL0     H68033   5.057   7.149   8.634  0.9156  1.3719  0.8767
  504MOL0     H68034   4.827   7.308   8.564  0.1364 -1.8950  0.0452
  504MOL0     H68035   4.987   7.369   8.618 -1.2037  0.9031  0.1986
  504MOL0     H68036   5.089   7.283   8.219 -1.6830 -0.8320 -2.0148
  504MOL0     H68037   5.043   7.088   9.049 -0.0188 -0.7758 -0.0570
  504MOL0     H68038   5.285   7.205   9.270 -0.9776  0.9648  0.4440
  504MOL0     H68039   5.211   7.322   9.170  1.5402  0.1681  2.6053
  504MOL0     H68040   5.116   7.188   9.245  0.8986  0.1933  1.2226
  505MOL0     O68041   5.898  10.628   2.323  0.9708  0.3729 -0.1527
  505MOL0     C68042   5.863  10.586   2.429 -0.0687 -0.5713  0.2083
  505MOL0     O68043   5.934  10.498   2.497  0.0773  0.5644 -0.7718
  505MOL0     C68044   6.018  10.417   2.436 -0.4900  0.7124  0.0708
  505MOL0     C68045   6.152  10.456   2.415  0.2972  0.3618 -0.0562
  505MOL0     C68046   6.240  10.380   2.345  0.4997  0.4470 -0.0938
  505MOL0     C68047   6.207  10.252   2.305 -0.8530 -0.1830 -0.0936
  505MOL0     O68048   6.299  10.170   2.255 -0.5404  0.8244 -0.0209
  505MOL0     C68049   6.357  10.091   2.353 -0.0606 -0.1037  0.2211
  505MOL0     C68050   6.398   9.960   2.283  0.0251  0.4069 -0.8270
  505MOL0     C68051   6.500   9.886   2.375 -0.0466  0.8623 -0.0575
  505MOL0     C68052   6.644   9.936   2.356 -0.1034 -0.0411  0.6100
  505MOL0     C68053   6.740   9.872   2.457 -0.4534 -0.6716  1.1223
  505MOL0     C68054   6.886   9.928   2.437  1.3942  0.7107  0.4245
  505MOL0     C68055   7.003   9.860   2.521  0.1179  0.6484  0.1144
  505MOL0     C68056   7.036   9.712   2.474 -0.4033 -0.3873  0.2432
  505MOL0     N68057   7.177   9.664   2.510  0.2824  0.2675  0.1893
  505MOL0     C68058   7.297   9.732   2.512  0.4589  0.5535 -0.0270
  505MOL0     C68059   7.383   9.649   2.583  0.8027  0.0633  0.5935
  505MOL0     C68060   7.535   9.684   2.616  0.1035  0.1283  0.4645
  505MOL0     C68061   7.533   9.804   2.710  0.2591  0.3649  1.0003
  505MOL0     C68062   7.655   9.901   2.683 -0.3139  0.5181 -0.3834
  505MOL0     C68063   7.785   9.829   2.711  0.5323 -0.4258 -0.4275
  505MOL0     O68064   7.881   9.929   2.684  0.8091  0.7015 -0.1984
  505MOL0     C68065   8.007   9.883   2.648 -0.9689 -0.7900 -0.7671
  505MOL0     C68066   8.064   9.753   2.669  0.0539 -0.3452  0.1592
  505MOL0     C68067   8.196   9.728   2.624  0.9348  0.3065  0.1345
  505MOL0     C68068   8.271   9.829   2.560  0.1336  0.8057 -0.9433
  505MOL0     C68069   8.411   9.809   2.518  0.0015  0.4229  0.6367
  505MOL0     O68070   8.452   9.679   2.500 -0.3740 -0.4811 -0.0151
  505MOL0     C68071   8.571   9.654   2.441  0.8919 -1.1853 -0.3794
  505MOL0     C68072   8.671   9.610   2.523 -0.2773 -0.0511  0.0740
  505MOL0     C68073   8.799   9.583   2.474 -0.3069  0.3651 -0.0779
  505MOL0     C68074   8.826   9.599   2.333  0.1874 -0.0356  0.2337
  505MOL0     O68075   8.949   9.589   2.278 -0.0243  0.2958 -0.0148
  505MOL0     C68076   9.067   9.562   2.353  0.3181 -0.8106 -0.0696
  505MOL0     C68077   9.154   9.690   2.374  0.5561 -0.5896  1.1340
  505MOL0     C68078   9.301   9.672   2.412  0.6386  0.4554  0.3276
  505MOL0     C68079   9.383   9.644   2.286  0.5372 -0.2201  0.2390
  505MOL0     C68080   9.519   9.580   2.315 -0.8198  0.3680 -0.2014
  505MOL0     C68081   9.602   9.671   2.406  0.5215 -0.8751  1.1267
  505MOL0     C68082   9.746   9.621   2.407 -0.2194  0.3796  0.1816
  505MOL0     C68083   9.836   9.720   2.475 -0.7554  0.0851  0.1041
  505MOL0    Cl68084   9.765   9.764   2.633 -0.5519  0.0723 -0.0289
  505MOL0     C68085   8.726   9.633   2.244  0.8844  0.5104 -0.6006
  505MOL0     C68086   8.597   9.666   2.301  0.0791 -0.2817  0.2952
  505MOL0     O68087   8.480   9.902   2.492  0.6374 -0.5875 -0.9372
  505MOL0     C68088   8.215   9.953   2.548 -0.2327  0.1521  1.0690
  505MOL0     C68089   8.084   9.978   2.583 -0.1263 -0.5932 -0.3209
  505MOL0     N68090   7.315   9.536   2.617 -0.4340  0.3000 -0.1930
  505MOL0     N68091   7.199   9.542   2.571  0.1163 -0.0915  0.9299
  505MOL0     C68092   6.074  10.211   2.325 -0.1693 -0.0316 -0.0997
  505MOL0     C68093   5.980  10.295   2.387  1.6219 -0.9838 -0.4124
  505MOL0     C68094   5.746  10.653   2.491  0.4544 -0.5384  0.3389
  505MOL0     C68095   5.668  10.582   2.582 -0.1995  0.5396 -0.1247
  505MOL0     C68096   5.563  10.634   2.654  0.4703 -0.4833  0.4262
  505MOL0     C68097   5.526  10.765   2.634 -0.4398 -0.2026 -0.1655
  505MOL0     O68098   5.424  10.818   2.706 -1.2166  0.1795  0.3913
  505MOL0     C68099   5.451  10.935   2.767 -0.3576  0.3418  0.5936
  505MOL0     C68100   5.355  10.971   2.884  0.3678 -0.2219  0.0587
  505MOL0     C68101   5.379  11.108   2.941  0.0104 -0.4582  0.5635
  505MOL0     C68102   5.281  11.154   3.042  0.0546 -0.4982 -0.7269
  505MOL0     C68103   5.308  11.083   3.166 -0.0665  1.0027  0.1643
  505MOL0     C68104   5.340  11.027   3.268  0.4071  0.0482  0.2619
  505MOL0     C68105   5.600  10.837   2.539 -0.8663  0.3117  0.1017
  505MOL0     C68106   5.711  10.787   2.473 -0.5614  0.1995 -0.2059
  505MOL0     C68107   5.795  10.885   2.405  0.0223 -0.1192 -0.4030
  505MOL0     H68108   6.170  10.557   2.451 -2.0385  0.2195  1.7906
  505MOL0     H68109   6.329  10.433   2.312  0.6829  1.2229  1.5731
  505MOL0     H68110   6.441  10.155   2.385  0.8956 -1.8309  1.3110
  505MOL0     H68111   6.289  10.061   2.433 -0.9783 -1.7130 -1.1146
  505MOL0     H68112   6.446   9.984   2.187 -1.1850  0.6789 -1.3786
  505MOL0     H68113   6.311   9.895   2.273 -0.0537  0.1777  1.0582
  505MOL0     H68114   6.496   9.779   2.356  1.1737  0.5163  1.4365
  505MOL0     H68115   6.470   9.894   2.480 -1.4434 -0.4054 -0.3264
  505MOL0     H68116   6.676   9.906   2.255  1.1493  1.4095  0.5294
  505MOL0     H68117   6.659  10.043   2.371 -0.9909 -0.0606  1.7168
  505MOL0     H68118   6.714   9.899   2.560  0.8321  0.9235  1.0541
  505MOL0     H68119   6.734   9.763   2.447 -1.3547 -0.3977 -3.8757
  505MOL0     H68120   6.906   9.922   2.330 -0.4247 -1.5744  0.1204
  505MOL0     H68121   6.893  10.033   2.466 -0.2750  0.8647  0.3878
  505MOL0     H68122   6.990   9.854   2.630  3.0806 -0.9810  0.4604
  505MOL0     H68123   7.095   9.919   2.507 -1.0983  2.4733 -0.6656
  505MOL0     H68124   6.966   9.643   2.522  0.3917  0.0099  2.0754
  505MOL0     H68125   7.021   9.707   2.366  0.5459 -1.7414  0.1488
  505MOL0     H68126   7.329   9.831   2.479  1.0098  0.6343  0.7155
  505MOL0     H68127   7.593   9.594   2.639 -3.8331 -3.1345 -1.0435
  505MOL0     H68128   7.576   9.717   2.520  0.3272 -0.9416  0.1820
  505MOL0     H68129   7.441   9.861   2.693  1.3151  1.7433 -0.3543
  505MOL0     H68130   7.522   9.771   2.814  0.0126 -2.3248  0.2158
  505MOL0     H68131   7.653   9.988   2.749  0.8890  0.2246  0.0876
  505MOL0     H68132   7.654   9.939   2.581  0.0672  1.1831 -0.1443
  505MOL0     H68133   7.801   9.736   2.656 -0.3906 -1.3426  0.7789
  505MOL0     H68134   7.791   9.809   2.818 -1.4274  1.3584  0.0843
  505MOL0     H68135   8.013   9.669   2.716 -3.7992  1.1342 -0.9451
  505MOL0     H68136   8.235   9.629   2.642 -4.3395 -1.7346  2.1800
  505MOL0     H68137   8.676   9.608   2.632  4.3034  4.2990  0.2992
  505MOL0     H68138   8.866   9.545   2.549  1.9925  2.3319 -0.9991
  505MOL0     H68139   9.044   9.512   2.447  1.4939  1.8274  1.7298
  505MOL0     H68140   9.130   9.503   2.286  1.2763  3.0691 -2.9581
  505MOL0     H68141   9.136   9.754   2.287 -2.5172 -0.1235  2.0153
  505MOL0     H68142   9.100   9.738   2.457 -2.3340  2.9411 -2.4107
  505MOL0     H68143   9.335   9.763   2.462  2.2602 -0.6027  1.2191
  505MOL0     H68144   9.304   9.585   2.478  2.8855 -2.4754 -3.2445
  505MOL0     H68145   9.395   9.744   2.244 -1.3905  0.4780  1.2347
  505MOL0     H68146   9.327   9.578   2.219 -0.1885 -2.5064  2.8857
  505MOL0     H68147   9.568   9.562   2.219  1.9305 -0.3697  1.2345
  505MOL0     H68148   9.511   9.483   2.366  3.1918 -0.1127 -0.1579
  505MOL0     H68149   9.590   9.775   2.373 -2.0823 -1.6613 -0.7737
  505MOL0     H68150   9.561   9.665   2.507  0.3319 -2.1513  0.9900
  505MOL0     H68151   9.774   9.629   2.301 -3.1234  2.5371 -0.5673
  505MOL0     H68152   9.763   9.521   2.448 -1.2859  0.9078  2.0074
  505MOL0     H68153   9.937   9.683   2.492  0.0807  1.7842 -0.8628
  505MOL0     H68154   9.845   9.809   2.412  0.0237  1.1898  1.7286
  505MOL0     H68155   8.731   9.637   2.136 -0.0913 -2.6804 -0.8468
  505MOL0     H68156   8.526   9.715   2.235 -0.1990 -2.0564 -0.7837
  505MOL0     H68157   8.262  10.029   2.486  0.0571  1.7717  3.1916
  505MOL0     H68158   8.050  10.077   2.557  1.2071  0.4259  1.6163
  505MOL0     H68159   6.044  10.109   2.302  1.2113 -0.8363  1.4044
  505MOL0     H68160   5.878  10.263   2.403  0.9992  0.2590 -1.6744
  505MOL0     H68161   5.707  10.482   2.595 -0.9285 -0.1174 -2.6058
  505MOL0     H68162   5.513  10.579   2.733 -1.4145 -1.2805 -1.2327
  505MOL0     H68163   5.435  11.019   2.698  0.7585 -0.9457 -1.3215
  505MOL0     H68164   5.555  10.951   2.799  1.3032 -3.3508 -2.2553
  505MOL0     H68165   5.343  10.887   2.953 -1.8770  0.0537  0.0748
  505MOL0     H68166   5.254  10.980   2.843  0.9475 -0.3188 -1.4567
  505MOL0     H68167   5.381  11.183   2.861 -2.8889  0.1885  1.0105
  505MOL0     H68168   5.477  11.103   2.990  0.3842 -0.0060 -0.1191
  505MOL0     H68169   5.278  11.262   3.063  2.5807 -0.6823  1.1403
  505MOL0     H68170   5.178  11.131   3.014  0.5835 -0.5664 -2.7269
  505MOL0     H68171   5.370  10.979   3.359  1.1263  0.8227  0.4490
  505MOL0     H68172   5.563  10.936   2.512  0.0725  0.6287 -0.0435
  505MOL0     H68173   5.888  10.906   2.458 -1.4163  0.5153  1.9983
  505MOL0     H68174   5.811  10.855   2.301 -1.0297  0.5792 -0.7884
  505MOL0     H68175   5.743  10.981   2.394 -3.0918 -1.8071 -1.6748
  506MOL0     O68176   6.266   7.679   8.713 -0.0379  0.4454 -0.4832
  506MOL0     C68177   6.256   7.645   8.596  0.3674 -0.0912  0.3831
  506MOL0     O68178   6.365   7.608   8.516  1.1316  0.8318 -0.1557
  506MOL0     C68179   6.489   7.635   8.566 -0.8903 -0.7356 -0.0765
  506MOL0     C68180   6.579   7.705   8.488  0.0463 -0.1541  0.2177
  506MOL0     C68181   6.700   7.741   8.536  0.2022 -0.3112  0.5045
  506MOL0     C68182   6.754   7.691   8.660  0.2742 -0.5049 -0.2483
  506MOL0     O68183   6.877   7.718   8.713 -1.1995  0.3665 -0.0398
  506MOL0     C68184   6.982   7.768   8.634  0.6437 -0.0936 -0.3628
  506MOL0     C68185   7.092   7.822   8.721  0.0311  0.0600 -0.1845
  506MOL0     C68186   7.209   7.855   8.641  0.0591 -0.2787  0.1797
  506MOL0     C68187   7.321   7.922   8.723 -0.0321  0.3481  0.4685
  506MOL0     C68188   7.423   7.979   8.621 -0.0085 -0.1004  0.4844
  506MOL0     C68189   7.529   8.058   8.699  0.7896 -0.1613  0.0655
  506MOL0     C68190   7.666   8.082   8.635  0.8405 -0.1065 -1.2224
  506MOL0     C68191   7.761   7.971   8.661 -0.1745  0.2549  0.1555
  506MOL0     N68192   7.900   8.018   8.643  0.2672  0.1062  0.4597
  506MOL0     C68193   7.963   8.059   8.526 -0.5605 -0.3069 -0.1672
  506MOL0     C68194   8.078   8.121   8.572  0.4217  0.3565  0.2570
  506MOL0     C68195   8.179   8.189   8.491 -0.7939  0.6741  0.3242
  506MOL0     C68196   8.267   8.083   8.413  0.7055  0.1386 -0.3845
  506MOL0     C68197   8.351   7.986   8.499 -0.1601 -0.6520 -0.4790
  506MOL0     C68198   8.486   8.046   8.542 -0.3294 -0.3264 -0.1306
  506MOL0     O68199   8.567   8.076   8.424 -0.2998 -0.4126 -0.1932
  506MOL0     C68200   8.679   8.146   8.445 -0.9276 -0.5519  1.4295
  506MOL0     C68201   8.732   8.223   8.340  0.3362  0.2515 -0.7879
  506MOL0     C68202   8.850   8.284   8.343 -0.2138  0.3127  0.6836
  506MOL0     C68203   8.934   8.277   8.451  0.2334 -0.4926 -0.5296
  506MOL0     C68204   9.054   8.358   8.465  0.3206  1.1179  0.0685
  506MOL0     O68205   9.106   8.424   8.355  0.2753  0.3606  0.0630
  506MOL0     C68206   9.212   8.508   8.370  0.5460 -1.1350 -0.8300
  506MOL0     C68207   9.335   8.475   8.328  0.9647 -0.1314  0.1994
  506MOL0     C68208   9.445   8.563   8.346 -0.4179 -0.1204 -0.2115
  506MOL0     C68209   9.424   8.686   8.401  0.5197 -0.4713  0.2426
  506MOL0     O68210   9.530   8.769   8.411  0.1204 -0.2921 -0.4531
  506MOL0     C68211   9.641   8.757   8.318  0.0431  0.0678  0.0850
  506MOL0     C68212   9.746   8.879   8.329  0.1212  0.0885 -0.9730
  506MOL0     C68213   9.668   9.013   8.298  0.3521  0.2004  0.5094
  506MOL0     C68214   9.771   9.124   8.277 -0.1752 -0.2052 -0.1854
  506MOL0     C68215   9.725   9.266   8.267  0.0484  0.1671  0.7660
  506MOL0     C68216   9.607   9.294   8.166 -0.3406  0.1187 -0.1209
  506MOL0     C68217   9.664   9.279   8.021  1.0895 -0.0636  0.5542
  506MOL0     C68218   9.576   9.368   7.923 -0.5671  0.7531 -0.1970
  506MOL0    Cl68219   9.622   9.345   7.755 -0.1739  0.4365 -0.4251
  506MOL0     C68220   9.298   8.729   8.443 -1.0243 -0.1057 -0.1861
  506MOL0     C68221   9.191   8.639   8.433 -0.1537 -0.0922  0.5308
  506MOL0     O68222   9.106   8.362   8.579 -0.1346 -1.3579  0.5795
  506MOL0     C68223   8.889   8.199   8.564  0.4100  1.4157 -0.9647
  506MOL0     C68224   8.766   8.127   8.555  0.6409  0.0896  0.7433
  506MOL0     N68225   8.090   8.089   8.706 -0.0868  0.2157 -0.4585
  506MOL0     N68226   7.984   8.033   8.748  0.0784  0.1480  0.3065
  506MOL0     C68227   6.670   7.605   8.732 -0.0890  0.7551  0.7777
  506MOL0     C68228   6.538   7.570   8.683 -0.1137 -0.0904 -0.8739
  506MOL0     C68229   6.124   7.636   8.540 -0.6544  0.2700  0.2337
  506MOL0     C68230   6.121   7.584   8.412 -1.0595  0.0141 -0.6537
  506MOL0     C68231   6.003   7.572   8.353  0.4828 -0.7687  0.4861
  506MOL0     C68232   5.876   7.608   8.411  0.1335  0.1306  0.4439
  506MOL0     O68233   5.747   7.603   8.352 -0.1805  0.5376 -0.2377
  506MOL0     C68234   5.742   7.527   8.234 -0.4438  0.0967 -0.0041
  506MOL0     C68235   5.591   7.498   8.199 -1.2309  0.0540  0.7033
  506MOL0     C68236   5.501   7.445   8.303  0.3047 -0.2433  0.1585
  506MOL0     C68237   5.369   7.389   8.245  0.0912 -0.1775 -0.6995
  506MOL0     C68238   5.286   7.495   8.187 -0.4705 -0.6453 -0.4526
  506MOL0     C68239   5.224   7.566   8.115 -0.3929  0.1477 -0.3099
  506MOL0     C68240   5.881   7.655   8.540  0.7091 -0.0550 -0.6702
  506MOL0     C68241   6.000   7.678   8.603 -0.4571  0.1886  0.9563
  506MOL0     C68242   6.009   7.752   8.736  0.2390 -1.2004 -0.1215
  506MOL0     H68243   6.545   7.744   8.393  0.4626 -0.6342 -0.1343
  506MOL0     H68244   6.757   7.810   8.476 -1.4196 -0.4916 -1.3347
  506MOL0     H68245   7.006   7.680   8.574  0.4961  0.1337 -0.7557
  506MOL0     H68246   6.942   7.851   8.574 -0.2706 -0.4224 -0.2195
  506MOL0     H68247   7.113   7.745   8.796 -1.4987 -0.2121 -0.0005
  506MOL0     H68248   7.064   7.904   8.789 -1.7777 -2.4118  2.3089
  506MOL0     H68249   7.179   7.919   8.558  3.5858 -0.2077 -1.2281
  506MOL0     H68250   7.248   7.760   8.604  1.1044 -0.6440  2.0893
  506MOL0     H68251   7.274   8.007   8.775  2.2892  1.1543  1.3886
  506MOL0     H68252   7.354   7.854   8.801 -1.7049 -1.1543 -0.0577
  506MOL0     H68253   7.478   7.894   8.582 -0.3538  0.4919 -1.4138
  506MOL0     H68254   7.373   8.027   8.536  0.5679 -0.2907  0.0321
  506MOL0     H68255   7.491   8.158   8.722  2.4448  1.3274 -3.0834
  506MOL0     H68256   7.558   8.006   8.791  4.8986  1.0060 -0.3659
  506MOL0     H68257   7.705   8.178   8.669  2.2190 -0.9888 -0.1639
  506MOL0     H68258   7.653   8.087   8.527 -0.2178  0.7945 -1.0699
  506MOL0     H68259   7.744   7.943   8.766 -2.7514 -0.6569 -0.4279
  506MOL0     H68260   7.727   7.883   8.606 -0.9919  0.5676  0.1418
  506MOL0     H68261   7.920   8.059   8.426  0.2409 -2.7085 -0.5653
  506MOL0     H68262   8.137   8.266   8.425 -0.7775  1.7014  1.4648
  506MOL0     H68263   8.245   8.235   8.566  0.4560  2.2520 -1.6074
  506MOL0     H68264   8.197   8.016   8.362  0.3064 -0.4174  0.8453
  506MOL0     H68265   8.329   8.132   8.338  0.4598 -0.1387 -0.7701
  506MOL0     H68266   8.370   7.897   8.438  2.2775  1.0835 -2.4588
  506MOL0     H68267   8.292   7.957   8.586  1.6540 -1.1649  0.6174
  506MOL0     H68268   8.539   7.973   8.605  1.0779  0.9210  0.2154
  506MOL0     H68269   8.476   8.138   8.601 -0.5232 -0.4872  0.0868
  506MOL0     H68270   8.684   8.224   8.242 -2.4710  0.7513  0.4833
  506MOL0     H68271   8.869   8.338   8.251 -0.7461 -0.9364 -0.1860
  506MOL0     H68272   9.341   8.372   8.293  1.6545 -0.3850  1.0327
  506MOL0     H68273   9.546   8.539   8.314 -0.2156 -0.6465  0.7896
  506MOL0     H68274   9.699   8.667   8.336  0.6069  0.2838 -0.5763
  506MOL0     H68275   9.617   8.752   8.211  3.3093  0.7775 -0.8114
  506MOL0     H68276   9.792   8.887   8.428 -0.1598 -1.9704 -0.6296
  506MOL0     H68277   9.831   8.877   8.262  0.5231  0.7985 -0.5002
  506MOL0     H68278   9.612   8.992   8.207  3.0831 -2.6996 -0.7225
  506MOL0     H68279   9.604   9.043   8.381 -0.4142  1.2073 -0.4236
  506MOL0     H68280   9.836   9.112   8.190  0.9648  1.6174  0.3555
  506MOL0     H68281   9.841   9.126   8.361 -1.1425  0.8973  0.6333
  506MOL0     H68282   9.805   9.335   8.241 -2.4217  2.2084 -2.1416
  506MOL0     H68283   9.685   9.294   8.365 -1.0543  0.7752  0.1725
  506MOL0     H68284   9.519   9.230   8.177  0.9920 -1.8581 -0.3762
  506MOL0     H68285   9.571   9.396   8.182  1.1264  0.9883 -1.9663
  506MOL0     H68286   9.651   9.175   7.989  1.6104  0.2425 -0.7249
  506MOL0     H68287   9.770   9.304   8.023  1.9535 -3.2691  2.0677
  506MOL0     H68288   9.471   9.341   7.933 -0.4129  0.3281  0.2731
  506MOL0     H68289   9.579   9.475   7.948 -1.3200  0.4024  1.5384
  506MOL0     H68290   9.282   8.825   8.491  1.1349 -0.4453  1.3380
  506MOL0     H68291   9.093   8.656   8.477 -2.0592 -0.1930 -3.2809
  506MOL0     H68292   8.932   8.204   8.663 -0.1958  0.0643 -0.6172
  506MOL0     H68293   8.741   8.058   8.635  0.4225  0.7680  1.2659
  506MOL0     H68294   6.702   7.560   8.825  2.3218 -0.8360 -0.6859
  506MOL0     H68295   6.478   7.496   8.734 -0.7214  0.8583 -0.1799
  506MOL0     H68296   6.211   7.563   8.355 -0.1265  0.1146  0.7224
  506MOL0     H68297   6.017   7.548   8.248  4.1948  3.1067 -0.1684
  506MOL0     H68298   5.792   7.431   8.247  1.6294  1.2717  1.1786
  506MOL0     H68299   5.800   7.585   8.162  0.0598  1.1433  1.2056
  506MOL0     H68300   5.596   7.422   8.121 -0.5404 -0.3538  1.1336
  506MOL0     H68301   5.545   7.591   8.164  2.0527  1.1038 -1.2395
  506MOL0     H68302   5.478   7.530   8.368  0.2174 -0.6642  0.6872
  506MOL0     H68303   5.560   7.369   8.357  1.0604  0.7184  0.7387
  506MOL0     H68304   5.381   7.320   8.161  1.5310  1.0857 -1.5809
  506MOL0     H68305   5.323   7.330   8.325  0.2601 -0.2073 -0.6229
  506MOL0     H68306   5.167   7.633   8.054  0.2263  0.9015 -0.0827
  506MOL0     H68307   5.788   7.681   8.589  0.6357 -0.1865 -0.7388
  506MOL0     H68308   6.032   7.685   8.820 -1.9949 -0.8644  0.8508
  506MOL0     H68309   6.082   7.833   8.731 -0.1223 -0.7352  1.5266
  506MOL0     H68310   5.911   7.790   8.768  0.2645  1.1584 -2.5491
  507MOL0     O68311   4.038   5.753   6.155  0.1123  0.2922  0.0461
  507MOL0     C68312   3.936   5.821   6.165  0.3450  0.1794  0.8413
  507MOL0     O68313   3.827   5.812   6.093  0.4040  0.2305 -0.0641
  507MOL0     C68314   3.815   5.713   6.000  0.0572 -0.1405  0.3772
  507MOL0     C68315   3.722   5.606   6.011 -0.0690  0.6310  0.5671
  507MOL0     C68316   3.707   5.511   5.907  0.3122  0.3852 -0.2647
  507MOL0     C68317   3.788   5.528   5.792  0.0058  0.4120 -0.3385
  507MOL0     O68318   3.765   5.449   5.687  0.7253 -0.3834  0.5596
  507MOL0     C68319   3.708   5.318   5.710  0.3082 -0.3035  0.5887
  507MOL0     C68320   3.711   5.244   5.581 -0.3713  0.2469  0.9822
  507MOL0     C68321   3.843   5.229   5.498  0.6134 -0.4860 -0.5926
  507MOL0     C68322   3.960   5.161   5.573  0.7849  0.4970 -0.1899
  507MOL0     C68323   4.095   5.219   5.511  0.3958 -0.4171  0.1294
  507MOL0     C68324   4.217   5.162   5.584  0.1078  0.6037  0.0317
  507MOL0     C68325   4.244   5.019   5.555 -0.3252 -0.4055 -0.0295
  507MOL0     C68326   4.361   4.960   5.633  0.2068 -0.1319 -0.7072
  507MOL0     N68327   4.494   5.031   5.618 -0.1209  0.1712 -0.3205
  507MOL0     C68328   4.573   5.039   5.504 -0.0557 -0.3327 -0.2384
  507MOL0     C68329   4.678   5.113   5.552 -0.8122  0.6888 -0.5390
  507MOL0     C68330   4.802   5.141   5.466  0.4395  0.2093 -0.3687
  507MOL0     C68331   4.925   5.069   5.515 -0.8987 -0.3325 -0.5625
  507MOL0     C68332   4.986   5.127   5.653  0.9627 -0.2097 -0.4551
  507MOL0     C68333   5.134   5.101   5.664  0.1920 -1.0413  0.2907
  507MOL0     O68334   5.203   5.188   5.566  0.2964  0.3168  0.3313
  507MOL0     C68335   5.333   5.167   5.559  0.0571  0.4848 -0.2025
  507MOL0     C68336   5.417   5.215   5.654  0.0018 -0.2181 -0.1564
  507MOL0     C68337   5.556   5.193   5.663  0.5677  0.0925  0.0317
  507MOL0     C68338   5.609   5.109   5.573  0.0807  0.8864  0.3063
  507MOL0     C68339   5.755   5.078   5.576  0.8397 -0.6256 -0.3070
  507MOL0     O68340   5.786   4.963   5.523  0.0349  0.4887 -0.0965
  507MOL0     C68341   5.925   4.941   5.504 -0.1796  1.0657 -0.1990
  507MOL0     C68342   6.002   4.860   5.589  0.3098 -1.0094  0.3662
  507MOL0     C68343   6.136   4.833   5.554  0.7044 -0.3542 -1.0649
  507MOL0     C68344   6.189   4.889   5.433  0.4077 -0.7401  0.0384
  507MOL0     O68345   6.316   4.868   5.385  1.1460  0.2899  0.5584
  507MOL0     C68346   6.321   4.735   5.323 -0.0063  0.6507  1.2461
  507MOL0     C68347   6.461   4.688   5.280 -0.2664  0.3688  1.3087
  507MOL0     C68348   6.468   4.541   5.218 -0.4051 -1.2474  0.0499
  507MOL0     C68349   6.413   4.435   5.315 -0.1304  0.0586  0.0604
  507MOL0     C68350   6.457   4.291   5.268  0.2233 -0.0323 -0.8765
  507MOL0     C68351   6.409   4.253   5.126  0.6213  0.5815  0.3731
  507MOL0     C68352   6.451   4.107   5.098  0.4670 -0.3947  0.0257
  507MOL0     C68353   6.466   4.080   4.947 -0.2783  0.6240 -0.9337
  507MOL0    Cl68354   6.304   4.091   4.886  0.2961  0.0055  0.4414
  507MOL0     C68355   6.106   4.969   5.355  0.3856 -0.0358 -0.1083
  507MOL0     C68356   5.971   4.989   5.389  0.1314  0.8815  0.7758
  507MOL0     O68357   5.832   5.165   5.615 -0.1408  0.3243  0.1451
  507MOL0     C68358   5.520   5.051   5.476  0.5674  0.3347  0.9180
  507MOL0     C68359   5.384   5.070   5.471  0.2927  0.2173 -0.0525
  507MOL0     N68360   4.661   5.137   5.688 -0.6364 -0.1625  0.1354
  507MOL0     N68361   4.549   5.088   5.726 -0.1282 -0.6683 -0.3405
  507MOL0     C68362   3.871   5.631   5.783  0.1832  0.0808  0.1960
  507MOL0     C68363   3.879   5.730   5.878  1.5967  0.2614  0.2108
  507MOL0     C68364   3.948   5.919   6.280 -0.5957  0.6960 -0.4212
  507MOL0     C68365   4.076   5.909   6.355  0.5463  0.1058 -0.3942
  507MOL0     C68366   4.094   5.996   6.453  0.6582  0.0331 -0.3031
  507MOL0     C68367   3.996   6.088   6.491  0.4139 -0.3704  0.1527
  507MOL0     O68368   4.015   6.173   6.595 -0.7654 -0.1780 -0.4047
  507MOL0     C68369   3.915   6.222   6.685  0.6333  0.2007 -1.1958
  507MOL0     C68370   3.885   6.372   6.662  0.0564  0.2991 -0.0011
  507MOL0     C68371   4.004   6.464   6.691 -0.6541 -0.2556  0.1078
  507MOL0     C68372   3.982   6.586   6.604 -0.1151  1.0038 -0.1637
  507MOL0     C68373   4.090   6.682   6.634 -0.0348 -0.0071  0.1563
  507MOL0     C68374   4.178   6.762   6.664 -0.3882  0.3331 -0.6644
  507MOL0     C68375   3.883   6.103   6.415  0.1661 -0.0384 -0.3187
  507MOL0     C68376   3.857   6.021   6.310 -0.5337  0.3237  0.9859
  507MOL0     C68377   3.743   6.051   6.224 -0.6134  0.7679 -0.0733
  507MOL0     H68378   3.667   5.591   6.103  2.3605 -0.2759  1.9547
  507MOL0     H68379   3.637   5.430   5.929 -0.3109  1.1852  0.7812
  507MOL0     H68380   3.763   5.277   5.796  0.1440 -1.1846  0.2886
  507MOL0     H68381   3.602   5.318   5.736  0.4738 -1.6491  1.3614
  507MOL0     H68382   3.645   5.288   5.505  2.0663  0.0781 -1.4177
  507MOL0     H68383   3.671   5.145   5.605 -1.7273  0.6697  0.5765
  507MOL0     H68384   3.879   5.331   5.485 -0.1575  0.4411  3.1230
  507MOL0     H68385   3.822   5.184   5.400 -2.1608 -4.3059  1.4567
  507MOL0     H68386   3.945   5.188   5.678 -1.9999  2.6756 -1.0462
  507MOL0     H68387   3.944   5.056   5.544 -2.0186  1.4676 -2.6665
  507MOL0     H68388   4.106   5.202   5.404  0.9797 -3.0045  0.5352
  507MOL0     H68389   4.109   5.327   5.521 -1.5230 -0.2732  2.2296
  507MOL0     H68390   4.307   5.206   5.542 -0.3701  1.8766  0.3095
  507MOL0     H68391   4.217   5.186   5.691 -0.7849  0.5775  0.0434
  507MOL0     H68392   4.259   4.993   5.450  2.7873  2.7464 -0.5443
  507MOL0     H68393   4.154   4.965   5.588 -0.3922  0.7855  1.8845
  507MOL0     H68394   4.340   4.964   5.740 -3.7329 -0.1399 -1.3269
  507MOL0     H68395   4.377   4.856   5.606 -2.4616 -1.7713  3.1643
  507MOL0     H68396   4.553   5.009   5.402 -1.9526  0.5026 -0.1565
  507MOL0     H68397   4.781   5.112   5.362 -0.2353 -0.6318 -0.0036
  507MOL0     H68398   4.818   5.249   5.469 -1.5618  0.5066  0.4759
  507MOL0     H68399   4.893   4.965   5.523 -2.3715  0.0477 -1.0358
  507MOL0     H68400   5.004   5.082   5.441  0.4519 -2.7903  0.3745
  507MOL0     H68401   4.930   5.089   5.739 -0.5781  1.0182 -0.8676
  507MOL0     H68402   4.981   5.236   5.654  0.6247 -0.1048 -3.7632
  507MOL0     H68403   5.161   4.997   5.645 -1.0893 -0.8814 -3.0690
  507MOL0     H68404   5.163   5.128   5.766  0.8226  2.8465 -0.7486
  507MOL0     H68405   5.372   5.283   5.726 -1.5843 -1.4787  0.0979
  507MOL0     H68406   5.619   5.241   5.737  1.5990 -2.5395  0.9882
  507MOL0     H68407   5.955   4.829   5.681 -1.7207  1.9217  0.4575
  507MOL0     H68408   6.197   4.770   5.617  1.0961 -0.1844 -1.2707
  507MOL0     H68409   6.265   4.668   5.388 -0.2198  0.7734  1.1916
  507MOL0     H68410   6.259   4.733   5.232  1.4459 -2.3670  0.1746
  507MOL0     H68411   6.497   4.754   5.200  0.5219  0.1671  1.4847
  507MOL0     H68412   6.531   4.705   5.362 -0.2875  1.0735  1.1865
  507MOL0     H68413   6.432   4.548   5.115  1.2608  1.5302 -0.4720
  507MOL0     H68414   6.575   4.528   5.200  0.6385  4.2903  0.1961
  507MOL0     H68415   6.304   4.444   5.315 -0.1420  0.5500  2.6349
  507MOL0     H68416   6.458   4.464   5.410  2.0879 -0.9956 -0.6000
  507MOL0     H68417   6.413   4.213   5.331  2.6214 -2.6005 -2.1312
  507MOL0     H68418   6.566   4.280   5.271  0.1714 -0.3402  0.7582
  507MOL0     H68419   6.302   4.270   5.116  0.9986  3.1258  0.1670
  507MOL0     H68420   6.444   4.325   5.052 -1.4364 -0.7610 -2.0615
  507MOL0     H68421   6.368   4.046   5.136 -0.1182  1.8571  2.7644
  507MOL0     H68422   6.543   4.089   5.155  0.3747 -0.6229  0.1054
  507MOL0     H68423   6.532   4.156   4.904  4.4593 -1.1531  2.2717
  507MOL0     H68424   6.514   3.985   4.922  0.7080  0.7319  0.4161
  507MOL0     H68425   6.149   4.996   5.259 -1.6951  1.7873 -0.6175
  507MOL0     H68426   5.904   5.043   5.323 -1.8572 -2.1311  0.1388
  507MOL0     H68427   5.567   4.998   5.394  0.6479  1.2787  0.3319
  507MOL0     H68428   5.318   5.037   5.392  0.1484  1.7384 -0.5987
  507MOL0     H68429   3.915   5.641   5.684  0.2552  0.3937  0.2569
  507MOL0     H68430   3.942   5.818   5.872  1.5142  0.2959 -0.1666
  507MOL0     H68431   4.157   5.841   6.329  2.1339  1.4771  0.7651
  507MOL0     H68432   4.191   5.994   6.500 -0.9444 -0.8390  3.2825
  507MOL0     H68433   3.951   6.222   6.788 -0.8507  3.0831 -0.5876
  507MOL0     H68434   3.818   6.172   6.680 -0.3834  1.0920  3.8428
  507MOL0     H68435   3.796   6.399   6.720 -0.9740 -1.6636 -0.5825
  507MOL0     H68436   3.853   6.399   6.561 -1.2038 -0.9634  0.0317
  507MOL0     H68437   4.095   6.414   6.658 -0.4694  0.2019 -0.0905
  507MOL0     H68438   4.008   6.504   6.793  1.4346  1.8486 -0.6963
  507MOL0     H68439   3.975   6.573   6.496  0.1413  2.4783 -0.3799
  507MOL0     H68440   3.889   6.630   6.641  0.6146  1.9140  0.6832
  507MOL0     H68441   4.250   6.838   6.687 -0.3818 -0.0961  0.8372
  507MOL0     H68442   3.813   6.182   6.440  0.4759  0.6417 -1.5687
  507MOL0     H68443   3.785   6.069   6.125  2.4790 -0.6581  0.8528
  507MOL0     H68444   3.676   5.965   6.219 -1.9091  1.7187  0.3583
  507MOL0     H68445   3.680   6.133   6.260  1.5033  2.9871 -1.1662
  508MOL0     O68446   0.625   4.727   6.683  0.8081  0.1198 -0.2920
  508MOL0     C68447   0.728   4.797   6.671  0.6861 -0.9889  0.3707
  508MOL0     O68448   0.755   4.893   6.750 -0.1333 -0.8089 -0.2098
  508MOL0     C68449   0.809   4.842   6.866 -0.2329  0.6179 -0.2262
  508MOL0     C68450   0.904   4.731   6.870 -0.1901 -0.7662 -0.2446
  508MOL0     C68451   0.969   4.695   6.990  1.2790 -0.1941  0.2616
  508MOL0     C68452   0.944   4.764   7.105 -0.0287  0.0237  0.1868
  508MOL0     O68453   1.013   4.734   7.213  0.0335 -0.5610  0.5861
  508MOL0     C68454   0.943   4.645   7.301  0.7412 -0.3687 -0.0009
  508MOL0     C68455   0.993   4.688   7.440 -0.0180  1.2294 -1.1172
  508MOL0     C68456   0.950   4.833   7.475  0.0186  0.3189  0.0754
  508MOL0     C68457   0.989   4.862   7.614  0.2118 -0.3940 -0.9687
  508MOL0     C68458   0.925   4.988   7.670  0.5988 -0.5221 -0.1934
  508MOL0     C68459   0.949   5.130   7.608 -0.5755  0.1451  0.0706
  508MOL0     C68460   1.103   5.165   7.583 -0.8920 -0.2525 -0.1793
  508MOL0     C68461   1.180   5.222   7.705 -0.4336  0.3248 -0.4256
  508MOL0     N68462   1.308   5.279   7.651  0.4486 -0.1400 -0.3663
  508MOL0     C68463   1.424   5.203   7.642 -0.3633 -1.0985 -0.3982
  508MOL0     C68464   1.521   5.284   7.583  0.4591 -0.2333  0.3419
  508MOL0     C68465   1.673   5.248   7.571  0.2846 -0.4360  0.1079
  508MOL0     C68466   1.751   5.369   7.607 -0.1660 -0.0760  0.3034
  508MOL0     C68467   1.893   5.349   7.569  0.4944 -0.5830  0.2038
  508MOL0     C68468   1.974   5.477   7.605  0.4067 -0.2081  0.0743
  508MOL0     O68469   2.097   5.475   7.538 -0.0548  1.1737  0.8508
  508MOL0     C68470   2.193   5.566   7.569  0.0099  0.3475 -0.1215
  508MOL0     C68471   2.200   5.634   7.687 -0.5991  0.6485 -0.9290
  508MOL0     C68472   2.313   5.716   7.716 -0.3148 -0.3545  0.3106
  508MOL0     C68473   2.424   5.721   7.631 -0.2059 -0.2766  0.0104
  508MOL0     C68474   2.540   5.809   7.658 -0.0702  0.0596  0.1537
  508MOL0     O68475   2.636   5.810   7.561 -0.4507 -0.4781 -0.1383
  508MOL0     C68476   2.764   5.845   7.603  0.0909 -0.1118 -0.2414
  508MOL0     C68477   2.833   5.788   7.718  0.1151 -0.0142  0.1303
  508MOL0     C68478   2.966   5.810   7.735 -0.5193  0.4098 -0.2142
  508MOL0     C68479   3.036   5.889   7.648 -0.4520  0.0928  0.1056
  508MOL0     O68480   3.171   5.901   7.666  0.5755 -1.2179 -0.1311
  508MOL0     C68481   3.209   6.042   7.706  0.4701  0.8871 -0.3534
  508MOL0     C68482   3.338   6.070   7.635 -0.3171  0.3293  0.4211
  508MOL0     C68483   3.343   6.045   7.487 -0.2024  0.2380  0.7856
  508MOL0     C68484   3.488   6.094   7.447 -0.0663 -0.1675 -0.0305
  508MOL0     C68485   3.492   6.098   7.290  0.0500  0.5365  0.2329
  508MOL0     C68486   3.632   6.142   7.238 -0.2533  0.2445  0.2936
  508MOL0     C68487   3.635   6.154   7.083  0.1914  0.0338  0.3436
  508MOL0     C68488   3.773   6.173   7.018 -0.1334  0.9943 -0.0838
  508MOL0    Cl68489   3.811   6.344   7.044  0.2943  0.3558  0.0733
  508MOL0     C68490   2.965   5.958   7.544 -0.3468 -0.4543  0.6357
  508MOL0     C68491   2.830   5.935   7.517  0.8506  0.5093 -0.3526
  508MOL0     O68492   2.553   5.854   7.769 -0.7159 -0.2039  0.0706
  508MOL0     C68493   2.419   5.642   7.515 -0.5532 -0.7018 -0.2018
  508MOL0     C68494   2.300   5.573   7.481 -0.2876  0.6493 -0.1840
  508MOL0     N68495   1.460   5.404   7.559 -0.4176  0.0949 -0.0551
  508MOL0     N68496   1.333   5.404   7.601 -0.1417  0.6156 -0.0441
  508MOL0     C68497   0.847   4.858   7.100  0.6156 -0.1674 -0.4101
  508MOL0     C68498   0.772   4.894   6.986  0.1758 -0.0442 -0.5932
  508MOL0     C68499   0.810   4.800   6.546 -0.2282  0.5184 -0.2060
  508MOL0     C68500   0.908   4.903   6.541 -0.4079  0.1539 -0.3125
  508MOL0     C68501   1.007   4.904   6.448 -1.3511 -0.6247  0.3964
  508MOL0     C68502   1.014   4.813   6.339  0.2263 -0.3654 -0.1647
  508MOL0     O68503   1.120   4.821   6.257 -0.2465 -0.1197  0.6168
  508MOL0     C68504   1.131   4.747   6.137  0.1768 -0.2845 -0.0188
  508MOL0     C68505   1.259   4.786   6.061 -0.4915  0.2532 -0.3521
  508MOL0     C68506   1.268   4.718   5.923 -0.4029  0.6894 -0.1672
  508MOL0     C68507   1.365   4.791   5.819  0.3094 -0.2321 -0.0224
  508MOL0     C68508   1.309   4.928   5.787 -0.7620  0.6460 -0.6072
  508MOL0     C68509   1.255   5.037   5.760 -0.3501 -1.4997  0.6251
  508MOL0     C68510   0.911   4.714   6.346 -0.6084 -0.1572  0.7773
  508MOL0     C68511   0.816   4.699   6.449  0.4486  0.1488  0.0863
  508MOL0     C68512   0.754   4.562   6.456  0.8934 -0.4094  0.0404
  508MOL0     H68513   0.925   4.675   6.779  2.7913 -1.2222  0.6235
  508MOL0     H68514   1.051   4.624   6.989  1.3710 -0.0856 -0.5585
  508MOL0     H68515   0.835   4.657   7.296  0.9383  4.1124  1.9238
  508MOL0     H68516   0.976   4.541   7.294  1.3610 -0.2853  1.3245
  508MOL0     H68517   1.101   4.673   7.449 -0.4468 -1.7177  0.2272
  508MOL0     H68518   0.948   4.630   7.522  1.7209  3.9094  1.9770
  508MOL0     H68519   0.843   4.842   7.457 -0.2192  3.7492  2.4057
  508MOL0     H68520   1.000   4.907   7.412  0.7197  0.1489  0.4238
  508MOL0     H68521   0.955   4.779   7.677 -0.9901  0.4148 -0.5003
  508MOL0     H68522   1.096   4.878   7.621 -0.0608  1.8708 -1.3701
  508MOL0     H68523   0.816   4.986   7.676  0.3923  0.6611 -2.3625
  508MOL0     H68524   0.956   4.997   7.774 -1.6463  2.1874  0.3561
  508MOL0     H68525   0.902   5.125   7.510  0.5575  2.0138 -0.6206
  508MOL0     H68526   0.896   5.206   7.666 -1.4514 -0.2145 -0.2487
  508MOL0     H68527   1.107   5.248   7.513  3.1515  2.0236  2.3221
  508MOL0     H68528   1.148   5.073   7.544  0.6414 -0.2555  1.4495
  508MOL0     H68529   1.121   5.301   7.752 -1.2470 -1.7435  2.2976
  508MOL0     H68530   1.195   5.135   7.769  1.4154 -0.5201 -1.8964
  508MOL0     H68531   1.446   5.104   7.682 -0.9500 -0.6480  1.1165
  508MOL0     H68532   1.701   5.170   7.643 -0.1809 -1.4284 -0.7679
  508MOL0     H68533   1.695   5.230   7.466 -1.6956  0.8089 -0.5889
  508MOL0     H68534   1.714   5.457   7.554  1.8493  1.7309  1.7701
  508MOL0     H68535   1.745   5.381   7.715  1.5077 -1.2451  0.5696
  508MOL0     H68536   1.908   5.333   7.462  0.9409 -3.0444  0.5672
  508MOL0     H68537   1.943   5.264   7.617 -0.5857 -0.9282  0.7372
  508MOL0     H68538   1.988   5.480   7.714  0.4904  2.0860  0.0438
  508MOL0     H68539   1.923   5.571   7.582  1.3328  0.4025  0.4585
  508MOL0     H68540   2.120   5.631   7.761  0.0824  0.8399 -0.1824
  508MOL0     H68541   2.321   5.772   7.809 -0.6138  1.5743 -0.7761
  508MOL0     H68542   2.781   5.716   7.781 -0.1483  0.2081  0.1651
  508MOL0     H68543   3.021   5.768   7.819  0.3566 -1.0783 -1.4815
  508MOL0     H68544   3.127   6.111   7.685 -0.6532  0.0784  1.1931
  508MOL0     H68545   3.232   6.048   7.812  0.7166 -1.5656 -0.2168
  508MOL0     H68546   3.357   6.175   7.659 -0.9829  0.0160  2.5516
  508MOL0     H68547   3.416   6.014   7.687 -1.9592 -1.6125  0.9404
  508MOL0     H68548   3.321   5.940   7.467 -1.3009  0.5024  0.5213
  508MOL0     H68549   3.268   6.107   7.437 -2.0827 -0.1576  2.9655
  508MOL0     H68550   3.567   6.037   7.496  0.2515  0.5203  0.2781
  508MOL0     H68551   3.499   6.197   7.483 -1.1783 -0.4951  1.3169
  508MOL0     H68552   3.408   6.159   7.255 -0.4118  2.0499  3.5706
  508MOL0     H68553   3.489   5.991   7.266  2.6407  0.4222  0.2202
  508MOL0     H68554   3.654   6.244   7.272 -1.4359  0.6352 -0.0469
  508MOL0     H68555   3.710   6.073   7.268  0.3428 -0.2465 -2.1519
  508MOL0     H68556   3.581   6.243   7.050 -0.8219 -1.3785 -2.1120
  508MOL0     H68557   3.590   6.065   7.037 -0.0239  0.4148 -0.1956
  508MOL0     H68558   3.851   6.112   7.065  0.8411  1.1908 -1.3948
  508MOL0     H68559   3.758   6.145   6.913 -1.7734 -2.2352  0.8592
  508MOL0     H68560   3.007   6.040   7.487  0.9825 -0.7737  1.1318
  508MOL0     H68561   2.769   5.988   7.445 -2.3861 -0.1691  1.6752
  508MOL0     H68562   2.498   5.650   7.442 -0.5964 -0.1017 -0.1877
  508MOL0     H68563   2.295   5.517   7.389 -0.0953  0.0709  0.1545
  508MOL0     H68564   0.816   4.909   7.191 -2.5123  1.3318 -2.1649
  508MOL0     H68565   0.713   4.985   6.975  3.6818  2.5210  0.0939
  508MOL0     H68566   0.923   4.973   6.623 -1.4393 -0.3373  0.3141
  508MOL0     H68567   1.079   4.985   6.452 -3.7121  1.6090  0.3358
  508MOL0     H68568   1.047   4.778   6.074 -0.7950 -0.6664  1.0479
  508MOL0     H68569   1.116   4.641   6.160  0.4523 -0.8153 -2.1567
  508MOL0     H68570   1.346   4.750   6.117  2.0250  2.7829 -2.2989
  508MOL0     H68571   1.271   4.895   6.055  1.8122  0.0342 -0.6308
  508MOL0     H68572   1.169   4.710   5.876 -2.2508  2.0250  3.1471
  508MOL0     H68573   1.307   4.618   5.942  2.2156  2.1109  2.9145
  508MOL0     H68574   1.469   4.793   5.854  0.7244  1.0357 -1.2119
  508MOL0     H68575   1.365   4.740   5.723  2.8356 -0.5796  0.0845
  508MOL0     H68576   1.215   5.136   5.747 -0.4881 -1.4798  1.1736
  508MOL0     H68577   0.912   4.635   6.272  0.1247  2.7596 -2.5871
  508MOL0     H68578   0.750   4.518   6.556  0.1929  2.1344  1.2131
  508MOL0     H68579   0.652   4.563   6.416  0.3138 -1.1009  1.4321
  508MOL0     H68580   0.810   4.487   6.401  1.5395 -0.0584  0.1998
  509MOL0     O68581   6.938   9.816   1.806  0.0295  0.8885 -0.4373
  509MOL0     C68582   6.838   9.843   1.877 -0.6542 -0.5362 -0.7085
  509MOL0     O68583   6.846   9.856   2.008  1.1193  0.0653  0.2925
  509MOL0     C68584   6.966   9.870   2.063  0.0444  0.1964  0.2094
  509MOL0     C68585   7.018   9.996   2.108  0.1334  0.3632  0.1865
  509MOL0     C68586   7.146   9.999   2.175  0.7681 -0.0827  0.4424
  509MOL0     C68587   7.225   9.889   2.186  0.4989  0.4690  0.7591
  509MOL0     O68588   7.346   9.899   2.250 -0.1626 -0.7513  0.1295
  509MOL0     C68589   7.452   9.794   2.229 -0.8378  0.2414  0.0823
  509MOL0     C68590   7.586   9.853   2.270  0.6516  0.2296 -0.0134
  509MOL0     C68591   7.699   9.752   2.246 -0.6420 -0.3957  0.4406
  509MOL0     C68592   7.836   9.816   2.221  0.0394  0.2863  0.3196
  509MOL0     C68593   7.939   9.707   2.250  0.4582  0.9785  0.3618
  509MOL0     C68594   8.073   9.766   2.211 -1.0919  0.1432  0.3003
  509MOL0     C68595   8.175   9.651   2.183 -0.2861  0.7080 -1.2284
  509MOL0     C68596   8.150   9.582   2.057 -0.5902  0.8051 -0.3395
  509MOL0     N68597   8.244   9.478   2.033 -0.0686 -0.1777 -0.0142
  509MOL0     C68598   8.367   9.460   2.095 -0.2369  0.8906 -0.1663
  509MOL0     C68599   8.412   9.335   2.057 -0.1990 -0.5801 -0.5689
  509MOL0     C68600   8.540   9.264   2.103  0.9223 -0.1394  0.8852
  509MOL0     C68601   8.661   9.315   2.030 -0.1531  0.0022  0.5672
  509MOL0     C68602   8.779   9.232   2.091 -0.9645 -0.9533 -0.7807
  509MOL0     C68603   8.912   9.256   2.035 -0.1236  0.0105 -0.0552
  509MOL0     O68604   9.016   9.188   2.109 -0.3301 -0.2418 -0.2094
  509MOL0     C68605   9.151   9.235   2.105 -0.4418  0.1511  0.6056
  509MOL0     C68606   9.199   9.348   2.038  0.1532  0.8417 -0.0317
  509MOL0     C68607   9.338   9.377   2.033  0.0743 -0.3421  0.9436
  509MOL0     C68608   9.432   9.291   2.088 -0.2534  0.5776  0.1416
  509MOL0     C68609   9.575   9.316   2.058 -0.6836 -0.0720  0.0851
  509MOL0     O68610   9.594   9.420   1.972 -0.4074  0.4287 -0.0552
  509MOL0     C68611   9.721   9.461   1.964  0.6096  0.4086  0.4871
  509MOL0     C68612   9.740   9.600   1.967  0.8649 -0.3644 -0.1298
  509MOL0     C68613   9.863   9.649   1.929  0.0224 -0.0974  0.2415
  509MOL0     C68614   9.972   9.566   1.902  0.1822  0.2402 -0.0666
  509MOL0     O68615  10.092   9.623   1.886  0.4718  0.0575 -0.1918
  509MOL0     C68616  10.131   9.608   1.750 -0.6326 -0.2741  0.1680
  509MOL0     C68617  10.260   9.700   1.740 -0.0572  0.0669  0.1025
  509MOL0     C68618  10.373   9.675   1.828 -0.8390 -0.2936  0.0252
  509MOL0     C68619  10.486   9.776   1.796  0.0535  0.1666  0.1039
  509MOL0     C68620  10.592   9.780   1.902 -0.0173 -0.1837  0.2765
  509MOL0     C68621  10.710   9.874   1.893  0.1795  0.2924  0.3405
  509MOL0     C68622  10.806   9.854   2.011  0.3897  0.2359 -0.9228
  509MOL0     C68623  10.923   9.962   2.000 -0.0080 -0.0314  0.6012
  509MOL0    Cl68624  11.022   9.975   2.149  0.0783 -0.6382 -0.2246
  509MOL0     C68625   9.960   9.429   1.916  0.3953  0.0713 -0.4843
  509MOL0     C68626   9.830   9.372   1.933  0.3300 -1.3952  0.8242
  509MOL0     O68627   9.655   9.235   2.102  0.1267 -0.0398 -0.8165
  509MOL0     C68628   9.390   9.190   2.173 -0.8572  0.2225  0.4786
  509MOL0     C68629   9.251   9.163   2.176 -0.1551 -0.8203 -0.8079
  509MOL0     N68630   8.311   9.282   1.972  0.1353  0.0580  0.2035
  509MOL0     N68631   8.213   9.368   1.964  1.0928 -0.2192  0.2393
  509MOL0     C68632   7.167   9.763   2.144  0.0997  0.5307 -0.3914
  509MOL0     C68633   7.039   9.755   2.093 -0.0098 -0.5797  0.7430
  509MOL0     C68634   6.717   9.890   1.799  0.3423 -0.5273  0.2100
  509MOL0     C68635   6.686   9.828   1.673  0.4426  0.0163  0.4767
  509MOL0     C68636   6.583   9.880   1.591 -0.0390  0.2824  0.0222
  509MOL0     C68637   6.514   9.988   1.638 -0.3613 -0.0179 -0.8597
  509MOL0     O68638   6.408  10.038   1.570  0.4008 -0.1535 -0.0600
  509MOL0     C68639   6.299   9.941   1.565 -0.1475 -0.3151 -0.5232
  509MOL0     C68640   6.154   9.992   1.532 -0.0515  0.3751  0.4507
  509MOL0     C68641   6.119  10.135   1.582 -0.1131  0.4164  0.3103
  509MOL0     C68642   5.974  10.145   1.586  1.6173 -0.3750 -0.0224
  509MOL0     C68643   5.921  10.280   1.582 -1.4817 -0.0520  0.2666
  509MOL0     C68644   5.875  10.393   1.609  0.4747 -0.2055 -0.3383
  509MOL0     C68645   6.550  10.054   1.758  0.7086  0.2565  0.3576
  509MOL0     C68646   6.648  10.009   1.839 -1.2481 -0.3284 -0.0937
  509MOL0     C68647   6.682  10.090   1.961  0.3002 -0.0054 -0.5626
  509MOL0     H68648   6.961  10.085   2.081  1.3019  0.4067 -2.4708
  509MOL0     H68649   7.184  10.095   2.209 -1.8657  2.4882 -3.1854
  509MOL0     H68650   7.441   9.706   2.293 -0.0551 -0.1651 -0.3190
  509MOL0     H68651   7.461   9.773   2.122  0.2878 -0.4295  0.2837
  509MOL0     H68652   7.580   9.880   2.376 -1.5076  1.1455 -0.3173
  509MOL0     H68653   7.598   9.943   2.209  2.8327 -0.8683 -1.3154
  509MOL0     H68654   7.675   9.686   2.162 -0.2195 -1.9023  1.4507
  509MOL0     H68655   7.720   9.697   2.338  0.8012 -1.1738 -0.3113
  509MOL0     H68656   7.851   9.853   2.119  2.4925 -3.1606 -0.7376
  509MOL0     H68657   7.835   9.905   2.286 -2.5865  0.6900 -0.1354
  509MOL0     H68658   7.949   9.683   2.357  0.0739 -2.0209 -0.1993
  509MOL0     H68659   7.922   9.616   2.192  2.2858  1.4881 -1.0837
  509MOL0     H68660   8.073   9.825   2.119 -1.4169 -0.3516 -0.0222
  509MOL0     H68661   8.109   9.825   2.296  2.2699  0.1622 -0.9812
  509MOL0     H68662   8.179   9.577   2.263  0.0789  0.2931 -1.6287
  509MOL0     H68663   8.270   9.704   2.178  0.2501  0.6574  3.8150
  509MOL0     H68664   8.050   9.539   2.066 -0.1458  0.2805  3.3084
  509MOL0     H68665   8.152   9.653   1.973  2.1349  0.7949 -0.3621
  509MOL0     H68666   8.410   9.509   2.181 -1.5531 -0.0439  1.0712
  509MOL0     H68667   8.553   9.279   2.210  2.8490  1.8461  0.4476
  509MOL0     H68668   8.533   9.157   2.081  1.4058  0.1819 -1.0529
  509MOL0     H68669   8.661   9.294   1.923  1.5316  0.4322  0.4532
  509MOL0     H68670   8.677   9.422   2.039 -2.0931  0.5114 -1.3065
  509MOL0     H68671   8.745   9.129   2.079 -1.1273 -1.1886  1.3335
  509MOL0     H68672   8.780   9.257   2.197 -1.2255 -0.1581 -0.9588
  509MOL0     H68673   8.923   9.365   2.033 -0.0567  0.0017 -1.1303
  509MOL0     H68674   8.921   9.232   1.928 -1.8542 -0.6765 -0.0817
  509MOL0     H68675   9.137   9.420   1.985  1.6130  0.4645 -2.4200
  509MOL0     H68676   9.368   9.465   1.976 -1.1039  0.3266  1.3219
  509MOL0     H68677   9.648   9.658   1.968 -0.7969 -2.5815 -3.7397
  509MOL0     H68678   9.879   9.757   1.928 -0.8082  0.0497 -1.9950
  509MOL0     H68679  10.163   9.505   1.734  1.7082  0.0339  2.3571
  509MOL0     H68680  10.049   9.635   1.683 -2.3477 -0.6137  2.0419
  509MOL0     H68681  10.290   9.704   1.635  0.9412  2.7877  0.4226
  509MOL0     H68682  10.215   9.798   1.756  0.4834  0.5792 -1.3294
  509MOL0     H68683  10.339   9.682   1.932  1.3263  1.7513  0.6867
  509MOL0     H68684  10.418   9.576   1.815 -0.2665 -0.2406  1.4768
  509MOL0     H68685  10.453   9.880   1.803  1.8808  0.6778  3.5641
  509MOL0     H68686  10.517   9.760   1.692  0.0468  1.6746 -0.1538
  509MOL0     H68687  10.623   9.675   1.909 -1.0119 -0.8432 -3.1089
  509MOL0     H68688  10.537   9.806   1.993 -1.0299  1.4672 -0.7652
  509MOL0     H68689  10.771   9.850   1.806  1.4112  0.1444  1.2104
  509MOL0     H68690  10.671   9.976   1.890  1.2002  0.7168  0.7848
  509MOL0     H68691  10.846   9.753   2.021  0.5428  0.4830  1.6461
  509MOL0     H68692  10.749   9.868   2.104  0.3559 -0.6550 -0.7967
  509MOL0     H68693  10.986   9.929   1.917 -2.1121 -2.1129 -0.2723
  509MOL0     H68694  10.901  10.066   1.973  2.1276  0.6328  1.2345
  509MOL0     H68695  10.052   9.384   1.882  3.1970  4.8949 -0.2431
  509MOL0     H68696   9.810   9.267   1.917 -0.2562 -1.4391  1.7901
  509MOL0     H68697   9.462   9.136   2.234  0.2956  1.5681  0.3750
  509MOL0     H68698   9.211   9.085   2.240  0.0886  1.0919  1.8176
  509MOL0     H68699   7.211   9.665   2.159  0.1597  0.5871 -0.1917
  509MOL0     H68700   6.996   9.660   2.063 -1.3584  0.5569 -1.2371
  509MOL0     H68701   6.737   9.739   1.636 -2.4093 -1.6497  0.2803
  509MOL0     H68702   6.559   9.827   1.499 -0.2031 -0.2808  0.3857
  509MOL0     H68703   6.282   9.900   1.665  0.1187 -1.9100 -1.0852
  509MOL0     H68704   6.326   9.861   1.495 -0.8769 -0.0465 -1.1203
  509MOL0     H68705   6.093   9.925   1.594 -0.6842  0.1378 -0.4134
  509MOL0     H68706   6.127   9.981   1.426 -1.0348 -0.8651  0.7961
  509MOL0     H68707   6.161  10.213   1.517  0.3397 -0.3292 -0.2990
  509MOL0     H68708   6.156  10.145   1.684 -0.0893 -0.6177  0.4053
  509MOL0     H68709   5.946  10.096   1.492  2.1408  0.5793 -0.6948
  509MOL0     H68710   5.942  10.094   1.677 -0.2222  1.4242  0.4246
  509MOL0     H68711   5.833  10.491   1.627  3.9257  1.4974 -0.8579
  509MOL0     H68712   6.489  10.140   1.782  0.7301  0.8387 -1.5024
  509MOL0     H68713   6.768  10.156   1.946 -0.7115  2.5233  3.3037
  509MOL0     H68714   6.597  10.156   1.982  1.2301  0.7049  1.1688
  509MOL0     H68715   6.705  10.032   2.051  0.7596 -1.4767 -1.5933
  510MOL0     O68716   5.203   9.327   6.445 -0.0953 -0.8518  0.7811
  510MOL0     C68717   5.161   9.441   6.446 -0.0417 -0.1532  0.0293
  510MOL0     O68718   5.226   9.553   6.499  0.2133  0.8631  0.9653
  510MOL0     C68719   5.353   9.553   6.554  0.0571 -0.1742 -0.6680
  510MOL0     C68720   5.401   9.688   6.576 -0.3457 -0.1688 -0.0076
  510MOL0     C68721   5.520   9.708   6.647 -0.4958 -0.1587  0.2324
  510MOL0     C68722   5.593   9.594   6.685 -0.0132  0.7105  0.8130
  510MOL0     O68723   5.708   9.622   6.749  0.3802  0.5440  0.6756
  510MOL0     C68724   5.793   9.522   6.801 -0.3133  0.0272  0.0598
  510MOL0     C68725   5.733   9.462   6.934  0.3684  0.4148 -0.2019
  510MOL0     C68726   5.844   9.401   7.030  1.2483  0.4318  0.4873
  510MOL0     C68727   5.937   9.498   7.100 -0.3243  0.0002  0.8925
  510MOL0     C68728   6.069   9.438   7.136  0.5086  0.5874 -0.5273
  510MOL0     C68729   6.056   9.311   7.223  0.0253 -0.8451 -0.2082
  510MOL0     C68730   6.200   9.261   7.264 -0.0784 -0.6250 -0.2932
  510MOL0     C68731   6.187   9.117   7.294  0.3115 -0.2880  0.1518
  510MOL0     N68732   6.306   9.057   7.347  0.5867  0.5092 -0.7690
  510MOL0     C68733   6.371   9.084   7.468  0.5038 -0.2151 -0.6829
  510MOL0     C68734   6.489   9.021   7.463  0.0024  0.0366 -0.1116
  510MOL0     C68735   6.599   9.015   7.569  0.1971  0.0320 -0.4653
  510MOL0     C68736   6.729   9.085   7.536 -0.3211  0.0048  0.8819
  510MOL0     C68737   6.814   9.007   7.437 -0.7694  0.6152  0.3876
  510MOL0     C68738   6.953   9.065   7.410 -0.3702 -0.1413  0.4216
  510MOL0     O68739   7.017   8.977   7.314 -0.1983 -0.2745  0.6593
  510MOL0     C68740   7.153   8.981   7.291 -0.0911  0.6051 -0.1485
  510MOL0     C68741   7.205   9.090   7.218 -0.9096  0.2776 -0.0968
  510MOL0     C68742   7.346   9.105   7.210  0.8496  0.0220  0.0194
  510MOL0     C68743   7.431   9.003   7.256  0.6395 -0.2734 -1.0373
  510MOL0     C68744   7.576   9.026   7.230 -0.0732 -0.1635 -0.5032
  510MOL0     O68745   7.653   8.941   7.299  0.0901 -0.1503 -0.5677
  510MOL0     C68746   7.789   8.953   7.305 -0.1967 -0.8746  0.3235
  510MOL0     C68747   7.855   9.072   7.321  0.2905 -1.0207  0.7959
  510MOL0     C68748   7.992   9.078   7.341 -0.1826 -0.5979 -0.5829
  510MOL0     C68749   8.066   8.957   7.333  0.5094 -0.2536  0.7899
  510MOL0     O68750   8.203   8.948   7.328  0.1533  0.6032  0.0196
  510MOL0     C68751   8.282   9.065   7.361 -0.3794  0.6457  0.1007
  510MOL0     C68752   8.424   9.028   7.394 -0.3151  0.3611  0.2490
  510MOL0     C68753   8.513   9.149   7.407  0.0005 -0.5909 -0.2414
  510MOL0     C68754   8.659   9.121   7.434  0.6507  0.1582  0.4804
  510MOL0     C68755   8.741   9.256   7.435  0.5550 -0.5078  0.4438
  510MOL0     C68756   8.880   9.232   7.510 -0.0386 -0.1121  0.2331
  510MOL0     C68757   8.954   9.368   7.538  0.2225 -0.7306  0.2025
  510MOL0     C68758   9.077   9.350   7.627  0.0076 -0.2415 -0.3821
  510MOL0    Cl68759   9.150   9.506   7.672 -0.2585 -0.1647 -0.2037
  510MOL0     C68760   8.002   8.832   7.327  1.0218 -0.2094  0.7240
  510MOL0     C68761   7.867   8.832   7.311  1.0203 -0.6795 -0.9600
  510MOL0     O68762   7.616   9.122   7.160  0.2381  0.0031 -0.0163
  510MOL0     C68763   7.374   8.904   7.336 -0.4703  1.0443  0.9691
  510MOL0     C68764   7.236   8.895   7.356  1.0291  0.1712  0.0456
  510MOL0     N68765   6.493   8.966   7.335 -0.1972 -0.5196 -0.5509
  510MOL0     N68766   6.392   8.991   7.267  0.0597  0.2426  0.3494
  510MOL0     C68767   5.552   9.465   6.657 -0.1132 -0.2683 -0.2331
  510MOL0     C68768   5.425   9.440   6.594 -0.7081 -0.4735 -0.2423
  510MOL0     C68769   5.032   9.484   6.399 -0.5485 -0.4961 -0.0144
  510MOL0     C68770   4.935   9.504   6.493 -0.2799 -0.2823 -0.3124
  510MOL0     C68771   4.802   9.530   6.436 -0.3387  0.2640 -0.6005
  510MOL0     C68772   4.778   9.569   6.306 -0.7158  0.3752 -0.2560
  510MOL0     O68773   4.664   9.629   6.264  0.1553  0.4632  0.5102
  510MOL0     C68774   4.549   9.586   6.327 -0.0721 -0.0964 -0.0933
  510MOL0     C68775   4.433   9.644   6.256  1.6822  0.3370  0.4132
  510MOL0     C68776   4.446   9.801   6.241  0.4246 -0.4271  0.6691
  510MOL0     C68777   4.311   9.873   6.242 -0.5486  0.2416 -0.0894
  510MOL0     C68778   4.322  10.016   6.263 -0.4163 -0.2974 -0.0095
  510MOL0     C68779   4.316  10.134   6.274  0.1313 -0.2601 -0.1338
  510MOL0     C68780   4.890   9.557   6.226  0.9734  0.0368  0.6701
  510MOL0     C68781   5.018   9.509   6.263  1.0195 -0.4309  0.2476
  510MOL0     C68782   5.124   9.505   6.165  0.6432  0.0065 -0.1031
  510MOL0     H68783   5.328   9.759   6.537 -1.5772 -1.9026 -0.9835
  510MOL0     H68784   5.568   9.802   6.674  0.3705 -1.0548  1.9648
  510MOL0     H68785   5.815   9.446   6.724 -2.2015  1.3747 -1.9348
  510MOL0     H68786   5.882   9.580   6.828  0.1713  0.7244 -2.7354
  510MOL0     H68787   5.659   9.387   6.905 -1.9551  2.0388  1.1897
  510MOL0     H68788   5.686   9.544   6.989 -1.2576  0.2573 -1.3245
  510MOL0     H68789   5.900   9.323   6.978  1.2983  0.0351  1.1313
  510MOL0     H68790   5.783   9.358   7.110  1.5636 -0.3591  0.3046
  510MOL0     H68791   5.958   9.588   7.042  0.6947 -1.6774 -1.4946
  510MOL0     H68792   5.881   9.527   7.190 -0.4575  1.8973  0.2336
  510MOL0     H68793   6.127   9.413   7.047 -0.2500 -2.2995 -0.2982
  510MOL0     H68794   6.125   9.510   7.198 -1.1022  1.2642  0.1913
  510MOL0     H68795   5.992   9.346   7.305  0.3915  0.3903 -0.4287
  510MOL0     H68796   6.002   9.231   7.172 -2.6820  1.3334 -1.0406
  510MOL0     H68797   6.229   9.309   7.358 -0.9841  2.1609 -1.3117
  510MOL0     H68798   6.283   9.278   7.195 -0.1370 -1.4023 -0.5613
  510MOL0     H68799   6.111   9.101   7.372 -0.1619 -0.1853 -0.2871
  510MOL0     H68800   6.156   9.070   7.200 -1.2162 -0.6931  0.8224
  510MOL0     H68801   6.346   9.151   7.550  1.1052  0.1590 -0.7962
  510MOL0     H68802   6.566   9.047   7.668  0.8024 -0.6595 -0.0275
  510MOL0     H68803   6.619   8.910   7.592 -0.8282  0.0997  0.8574
  510MOL0     H68804   6.698   9.180   7.491  0.8946 -0.3653 -0.8905
  510MOL0     H68805   6.783   9.101   7.629 -1.7771 -0.0198  1.7603
  510MOL0     H68806   6.768   9.001   7.338 -0.0013 -5.3896  0.0210
  510MOL0     H68807   6.839   8.913   7.487 -2.7447 -0.0142  0.2500
  510MOL0     H68808   7.010   9.072   7.503  0.8545  1.0650 -0.3896
  510MOL0     H68809   6.951   9.168   7.376  0.6552  0.2854  1.5880
  510MOL0     H68810   7.129   9.153   7.172 -0.4474 -0.0052 -1.2888
  510MOL0     H68811   7.387   9.198   7.172 -2.7504  3.9332  4.4212
  510MOL0     H68812   7.806   9.167   7.340 -1.8620 -2.1679  1.3013
  510MOL0     H68813   8.043   9.173   7.337 -0.3123 -0.5245 -0.5021
  510MOL0     H68814   8.290   9.132   7.275 -0.3184  0.0901 -0.3352
  510MOL0     H68815   8.242   9.117   7.448 -1.4315 -0.0366  0.0395
  510MOL0     H68816   8.440   8.970   7.485 -0.0364  1.0664  0.6578
  510MOL0     H68817   8.464   8.963   7.316  0.0138 -0.2620  0.9298
  510MOL0     H68818   8.513   9.203   7.312 -0.9490  0.3405  0.2748
  510MOL0     H68819   8.460   9.207   7.482  0.9937  0.2000 -0.1316
  510MOL0     H68820   8.694   9.057   7.352 -1.5532  1.0404 -1.2483
  510MOL0     H68821   8.685   9.074   7.529  0.1426 -0.4710  0.3093
  510MOL0     H68822   8.690   9.327   7.501  1.8370  0.4584  0.4149
  510MOL0     H68823   8.737   9.299   7.334 -2.6098 -0.4689  0.4601
  510MOL0     H68824   8.846   9.186   7.603 -1.6050  0.7933  0.1280
  510MOL0     H68825   8.942   9.162   7.454 -0.4965  0.8540 -1.5663
  510MOL0     H68826   8.891   9.438   7.594  2.0777 -0.5156  2.1438
  510MOL0     H68827   8.988   9.411   7.444  1.0143 -2.2945 -0.2566
  510MOL0     H68828   9.047   9.300   7.719 -3.6855  0.8008 -0.8488
  510MOL0     H68829   9.154   9.295   7.572 -0.9156  1.1810 -3.3477
  510MOL0     H68830   8.046   8.733   7.334  1.0349 -0.4175 -1.5296
  510MOL0     H68831   7.809   8.741   7.314  0.5011 -0.3334 -0.0033
  510MOL0     H68832   7.437   8.827   7.381 -1.4079 -0.5704 -0.3714
  510MOL0     H68833   7.183   8.821   7.415  1.6943 -0.1066  0.2948
  510MOL0     H68834   5.612   9.376   6.675 -1.3709 -0.7800  1.7282
  510MOL0     H68835   5.401   9.337   6.570 -1.6846 -0.5391  0.9359
  510MOL0     H68836   4.946   9.477   6.598 -0.1338 -0.4631 -0.3736
  510MOL0     H68837   4.722   9.528   6.510  1.0825  0.3798  1.0242
  510MOL0     H68838   4.546   9.609   6.434 -1.0992 -1.6160  0.2378
  510MOL0     H68839   4.548   9.477   6.318 -1.6437  0.0050 -1.6046
  510MOL0     H68840   4.339   9.625   6.309  0.1081 -0.9355 -2.5892
  510MOL0     H68841   4.414   9.604   6.156 -0.7176  1.0971  0.4922
  510MOL0     H68842   4.489   9.819   6.142  1.9744 -0.3641  1.3225
  510MOL0     H68843   4.517   9.839   6.315  0.7052  1.4297 -0.4846
  510MOL0     H68844   4.274   9.848   6.142  1.2404 -3.3509 -0.0222
  510MOL0     H68845   4.240   9.828   6.312 -0.6422  0.4259 -0.0632
  510MOL0     H68846   4.315  10.241   6.287  3.8473 -0.3990  3.2863
  510MOL0     H68847   4.870   9.591   6.125 -0.8471 -1.4622  0.4672
  510MOL0     H68848   5.210   9.448   6.201  1.5230  2.7780  2.7058
  510MOL0     H68849   5.088   9.461   6.072  2.5719  0.8057 -1.2752
  510MOL0     H68850   5.166   9.603   6.140  1.7581 -0.1360  1.1255
  511MOL0     O68851   6.207  10.154   7.392  0.6315 -0.2011  0.3493
  511MOL0     C68852   6.156  10.237   7.309  0.0913 -0.0786 -0.5577
  511MOL0     O68853   6.218  10.290   7.204  0.5470  0.1827 -0.5780
  511MOL0     C68854   6.330  10.223   7.157 -0.0451 -0.7154 -0.3040
  511MOL0     C68855   6.453  10.245   7.220  1.0576 -0.1254  0.4593
  511MOL0     C68856   6.565  10.173   7.180  0.1204  0.1781  0.5185
  511MOL0     C68857   6.557  10.086   7.074 -0.0734  0.2120  0.3102
  511MOL0     O68858   6.658  10.015   7.008 -0.1714  0.6249  0.6721
  511MOL0     C68859   6.800  10.054   7.028  0.2417  0.0872  0.4325
  511MOL0     C68860   6.871   9.921   7.026  0.4488 -0.1818  0.0463
  511MOL0     C68861   6.870   9.866   6.879 -0.0721  0.3530 -0.6722
  511MOL0     C68862   6.956   9.744   6.857 -0.3764  0.5051 -0.2931
  511MOL0     C68863   7.111   9.762   6.860 -0.6951  0.7001  0.4244
  511MOL0     C68864   7.187   9.640   6.795 -0.5196 -0.3264  0.6620
  511MOL0     C68865   7.278   9.702   6.682 -0.6889 -0.8984 -1.0431
  511MOL0     C68866   7.372   9.603   6.620 -0.1320 -0.6779 -0.1039
  511MOL0     N68867   7.316   9.551   6.494 -0.3627 -0.3732 -0.3818
  511MOL0     C68868   7.258   9.430   6.479  0.6325 -0.1556  0.6564
  511MOL0     C68869   7.276   9.413   6.343 -0.2911 -0.2382  0.0038
  511MOL0     C68870   7.251   9.289   6.263 -0.6318  0.3559  0.4827
  511MOL0     C68871   7.344   9.167   6.296 -0.8583 -0.4896 -1.4510
  511MOL0     C68872   7.432   9.138   6.182  0.1228 -0.6163  0.2473
  511MOL0     C68873   7.520   9.014   6.183  0.3670 -0.5548  0.3089
  511MOL0     O68874   7.605   9.015   6.066  0.4364 -0.0976 -0.9594
  511MOL0     C68875   7.720   9.092   6.072 -1.0144  0.3421 -0.0057
  511MOL0     C68876   7.816   9.062   5.973 -0.8550 -0.1001 -1.0700
  511MOL0     C68877   7.940   9.128   5.972  0.0542 -0.2097 -0.5916
  511MOL0     C68878   7.963   9.231   6.066 -0.7140 -0.4694 -0.0481
  511MOL0     C68879   8.105   9.298   6.057  0.0537  0.1985 -0.5794
  511MOL0     O68880   8.202   9.232   5.983 -0.1947 -0.1407  0.1306
  511MOL0     C68881   8.322   9.294   5.964 -0.0633 -0.6528  0.5490
  511MOL0     C68882   8.327   9.412   5.884 -0.0807  1.0344  0.6408
  511MOL0     C68883   8.449   9.487   5.860 -0.8209  0.2671  0.6772
  511MOL0     C68884   8.568   9.437   5.921 -0.0720 -0.6024 -0.1483
  511MOL0     O68885   8.691   9.496   5.896  0.0678 -1.2669  0.6156
  511MOL0     C68886   8.771   9.418   5.813 -0.2593 -0.3090  0.0524
  511MOL0     C68887   8.898   9.356   5.877 -0.1676  0.0566  0.4064
  511MOL0     C68888   8.957   9.253   5.769 -0.7464 -0.1317 -0.2903
  511MOL0     C68889   9.073   9.172   5.840  0.6467 -0.3366  0.1046
  511MOL0     C68890   9.160   9.102   5.736  0.4630  0.1752 -0.5261
  511MOL0     C68891   9.269   9.020   5.807 -0.1469  0.6977  0.3882
  511MOL0     C68892   9.373   9.110   5.868  0.2317 -0.2490 -0.3783
  511MOL0     C68893   9.505   9.027   5.895  0.4633 -1.4353  0.6673
  511MOL0    Cl68894   9.598   8.967   5.752  0.4736  0.2971 -0.4060
  511MOL0     C68895   8.561   9.329   6.011  0.6446 -0.2224 -0.2795
  511MOL0     C68896   8.439   9.256   6.032 -0.2081  0.1144  0.0754
  511MOL0     O68897   8.118   9.409   6.120  0.3728  0.1791  0.0286
  511MOL0     C68898   7.878   9.259   6.159  1.1219  0.3938  0.1210
  511MOL0     C68899   7.755   9.195   6.163 -0.7000  0.2362 -0.1010
  511MOL0     N68900   7.317   9.533   6.289  0.3969 -0.2939 -0.5016
  511MOL0     N68901   7.338   9.617   6.379 -0.3787 -0.2302 -0.1438
  511MOL0     C68902   6.432  10.056   7.012  0.2683 -0.3763  1.0850
  511MOL0     C68903   6.316  10.127   7.053  0.5217 -0.1205 -0.5059
  511MOL0     C68904   6.016  10.294   7.337  0.2584  0.2354 -0.7607
  511MOL0     C68905   5.982  10.400   7.263 -0.5526 -0.0638 -0.1138
  511MOL0     C68906   5.849  10.452   7.258  0.0685  0.3736  0.6735
  511MOL0     C68907   5.752  10.407   7.352  0.2787 -0.7919 -0.1292
  511MOL0     O68908   5.627  10.453   7.372  0.0052 -0.0483  0.0490
  511MOL0     C68909   5.577  10.564   7.296 -0.5276  0.0637 -0.1749
  511MOL0     C68910   5.642  10.697   7.338 -0.2277 -0.2486  0.1299
  511MOL0     C68911   5.535  10.803   7.301 -0.4802 -1.1129 -0.8203
  511MOL0     C68912   5.587  10.942   7.342  0.0388  0.2713 -0.3859
  511MOL0     C68913   5.569  10.965   7.485  0.4205  0.0657  0.1325
  511MOL0     C68914   5.544  10.992   7.601 -0.2548  0.4480 -0.3766
  511MOL0     C68915   5.786  10.294   7.424 -0.0038  0.4388 -0.3795
  511MOL0     C68916   5.918  10.238   7.423 -0.5980  0.1715  0.3029
  511MOL0     C68917   5.934  10.108   7.498  0.3989 -0.7073 -0.0582
  511MOL0     H68918   6.474  10.319   7.297  1.3102 -0.5750  0.8264
  511MOL0     H68919   6.654  10.183   7.241  1.2954  0.0781 -1.1169
  511MOL0     H68920   6.836  10.120   6.948 -1.4316 -0.0450 -0.4925
  511MOL0     H68921   6.816  10.109   7.121 -0.6633  2.5546 -0.7752
  511MOL0     H68922   6.823   9.847   7.091  2.4218 -2.8510 -1.3148
  511MOL0     H68923   6.973   9.927   7.065  0.3017 -3.1886  1.1971
  511MOL0     H68924   6.897   9.946   6.809 -0.2637 -0.6260 -1.8940
  511MOL0     H68925   6.765   9.848   6.858 -1.2023  3.9554  1.0630
  511MOL0     H68926   6.933   9.672   6.937  0.0351  0.4207 -0.2451
  511MOL0     H68927   6.920   9.700   6.764 -2.2058  0.5038  0.3835
  511MOL0     H68928   7.122   9.851   6.798 -0.5339 -0.0912 -0.7113
  511MOL0     H68929   7.149   9.776   6.961 -1.9006 -1.9076  1.3312
  511MOL0     H68930   7.251   9.589   6.868  0.3748  1.2570  1.0491
  511MOL0     H68931   7.109   9.569   6.767 -0.7781 -0.1514  0.9198
  511MOL0     H68932   7.343   9.765   6.744  0.4076 -1.6534 -1.3974
  511MOL0     H68933   7.214   9.749   6.607 -0.4678 -0.4648 -0.9661
  511MOL0     H68934   7.458   9.664   6.588  0.1198 -2.2185 -2.5622
  511MOL0     H68935   7.412   9.532   6.693  0.2644 -2.0123 -1.5581
  511MOL0     H68936   7.200   9.364   6.542 -0.9782  0.2784 -0.2900
  511MOL0     H68937   7.145   9.268   6.278 -0.4611 -0.1451  0.9772
  511MOL0     H68938   7.261   9.298   6.154 -0.4376 -0.4784  0.4292
  511MOL0     H68939   7.402   9.187   6.386 -2.7761 -0.0901 -0.2491
  511MOL0     H68940   7.278   9.080   6.306  0.1671 -1.4882 -2.9345
  511MOL0     H68941   7.489   9.230   6.175  1.9956 -1.6826  0.8250
  511MOL0     H68942   7.377   9.130   6.088  0.9196  2.3794 -0.5803
  511MOL0     H68943   7.455   8.927   6.179 -1.3852  0.6419  1.3235
  511MOL0     H68944   7.577   9.018   6.276  1.0414  0.0690 -0.1112
  511MOL0     H68945   7.789   8.979   5.908 -1.0363 -0.5710 -0.3962
  511MOL0     H68946   8.020   9.110   5.902  1.4866  1.0972  0.6318
  511MOL0     H68947   8.241   9.427   5.820  0.5848  4.0383  0.2885
  511MOL0     H68948   8.451   9.575   5.796  0.2799 -0.2009  0.0526
  511MOL0     H68949   8.714   9.335   5.771 -1.3341 -0.0042  0.8635
  511MOL0     H68950   8.801   9.473   5.724  0.0492 -1.5314 -0.6200
  511MOL0     H68951   8.973   9.432   5.899 -0.0208 -0.2624  1.0146
  511MOL0     H68952   8.877   9.315   5.976  0.7531  1.0496  1.0407
  511MOL0     H68953   8.886   9.175   5.738 -0.1666 -0.0416 -1.9030
  511MOL0     H68954   8.998   9.303   5.681 -0.0882 -2.8781 -1.6304
  511MOL0     H68955   9.027   9.102   5.910 -2.7738  2.1674  0.6128
  511MOL0     H68956   9.133   9.249   5.888 -0.8057  1.1176 -0.3018
  511MOL0     H68957   9.207   9.179   5.673 -2.5541  2.8026  0.1873
  511MOL0     H68958   9.094   9.031   5.686  0.3840 -1.6903  2.0186
  511MOL0     H68959   9.214   8.964   5.883 -3.4613  2.1943 -0.7368
  511MOL0     H68960   9.322   8.942   5.752  2.5059 -0.2949  3.9280
  511MOL0     H68961   9.336   9.142   5.966 -0.0449 -3.0371  0.5404
  511MOL0     H68962   9.395   9.198   5.807  0.7035 -0.9313 -1.2173
  511MOL0     H68963   9.567   9.081   5.967 -0.2693 -0.1658  0.3723
  511MOL0     H68964   9.454   8.948   5.950 -0.4944 -3.4508 -2.7753
  511MOL0     H68965   8.644   9.307   6.077 -0.1892  1.2849  1.3293
  511MOL0     H68966   8.430   9.171   6.098  1.1519 -1.6729 -1.9020
  511MOL0     H68967   7.891   9.336   6.235  1.1924 -0.8884  1.4685
  511MOL0     H68968   7.691   9.220   6.248 -2.0483  1.1211 -1.3224
  511MOL0     H68969   6.424   9.986   6.930  0.4206  0.5685  0.2395
  511MOL0     H68970   6.214  10.105   7.022 -0.7154  0.5582  2.6506
  511MOL0     H68971   6.059  10.441   7.198  1.1733  1.6568  2.7972
  511MOL0     H68972   5.822  10.531   7.189 -0.5892  0.7018  1.2909
  511MOL0     H68973   5.468  10.558   7.306 -0.6854  0.9530 -1.2287
  511MOL0     H68974   5.600  10.544   7.191  0.7600  3.7406 -0.7235
  511MOL0     H68975   5.732  10.729   7.283 -0.7735 -1.2848 -1.4319
  511MOL0     H68976   5.669  10.701   7.444  1.5592  1.8887 -0.3109
  511MOL0     H68977   5.437  10.778   7.344  0.5791 -1.8600  1.3258
  511MOL0     H68978   5.506  10.815   7.196  1.9148 -0.6871 -1.4958
  511MOL0     H68979   5.696  10.955   7.332  0.2669  1.0016  2.2971
  511MOL0     H68980   5.531  11.014   7.281 -0.5238  0.2090  0.0531
  511MOL0     H68981   5.537  11.008   7.707  0.9272 -2.4091  0.2221
  511MOL0     H68982   5.714  10.240   7.484 -0.0819 -0.4090 -1.2098
  511MOL0     H68983   5.842  10.089   7.554 -1.7286  1.1843 -2.6272
  511MOL0     H68984   5.949  10.017   7.439  0.0032 -1.4876  1.0134
  511MOL0     H68985   6.022  10.112   7.563  0.2254  0.7662  0.1127
  512MOL0     O68986   7.583   4.384   8.610  0.4802  0.8869 -0.5669
  512MOL0     C68987   7.495   4.308   8.585 -0.0847 -0.6785 -0.1998
  512MOL0     O68988   7.498   4.176   8.620  0.1524  0.1503 -0.5224
  512MOL0     C68989   7.608   4.120   8.684 -0.0158 -0.0776  0.0551
  512MOL0     C68990   7.692   4.023   8.616  0.3896 -0.2495 -0.7924
  512MOL0     C68991   7.811   3.983   8.681  0.6256  0.5825  0.4419
  512MOL0     C68992   7.834   4.023   8.813 -0.5274  0.4456 -1.1983
  512MOL0     O68993   7.945   3.964   8.877  0.0010 -0.2424  0.4461
  512MOL0     C68994   7.984   4.019   9.000 -0.1213 -0.1708 -0.1630
  512MOL0     C68995   8.123   3.970   9.048 -0.2386 -0.1527 -0.1412
  512MOL0     C68996   8.236   3.982   8.941 -0.3917 -1.0939 -0.2324
  512MOL0     C68997   8.369   3.944   9.013  0.5806  0.1319 -0.7087
  512MOL0     C68998   8.500   3.941   8.928 -0.2153 -1.0853  0.7621
  512MOL0     C68999   8.624   3.861   8.975 -0.0373 -0.2008 -0.2197
  512MOL0     C69000   8.715   3.791   8.870  0.1013 -0.8132 -0.4078
  512MOL0     C69001   8.818   3.878   8.796 -0.2967  0.3147 -0.3876
  512MOL0     N69002   8.923   3.915   8.893 -0.0845 -0.5372  0.3888
  512MOL0     C69003   9.006   3.825   8.961 -0.6083 -0.1065 -0.2348
  512MOL0     C69004   9.083   3.907   9.038  0.6845  0.1044 -0.5517
  512MOL0     C69005   9.176   3.860   9.138  0.6689  0.1522  0.0979
  512MOL0     C69006   9.266   3.965   9.206  0.4107 -0.4048  0.3959
  512MOL0     C69007   9.337   3.921   9.330  0.5986 -0.9803 -0.6859
  512MOL0     C69008   9.454   4.014   9.384  0.5089  0.0540 -0.1211
  512MOL0     O69009   9.539   4.074   9.285  0.3404  0.8484 -0.6905
  512MOL0     C69010   9.652   4.138   9.317 -0.6678 -0.0718  0.2258
  512MOL0     C69011   9.735   4.181   9.211  0.3624  0.1481  0.2414
  512MOL0     C69012   9.862   4.234   9.224  0.6026 -0.1730  0.0357
  512MOL0     C69013   9.909   4.264   9.357 -0.2876 -0.8534  0.1925
  512MOL0     C69014  10.044   4.332   9.379 -0.2725  0.6857 -0.4684
  512MOL0     O69015  10.104   4.316   9.503  0.4897 -0.2335  0.3309
  512MOL0     C69016  10.218   4.376   9.543 -0.6503 -0.2042  0.0285
  512MOL0     C69017  10.280   4.312   9.654  0.5909 -0.0233  0.1585
  512MOL0     C69018  10.413   4.354   9.691 -0.3260 -0.6158  0.0611
  512MOL0     C69019  10.484   4.456   9.617  1.0049 -0.6991 -0.2597
  512MOL0     O69020  10.593   4.519   9.670  0.0545 -0.5085  0.0709
  512MOL0     C69021  10.684   4.437   9.744 -0.1301  0.1225 -0.2340
  512MOL0     C69022  10.811   4.524   9.766  0.0296  1.2452  0.5807
  512MOL0     C69023  10.923   4.426   9.812 -0.0957 -0.6532  0.7250
  512MOL0     C69024  11.064   4.448   9.741 -0.3578 -0.1537  0.4445
  512MOL0     C69025  11.156   4.335   9.784  0.6042  0.3766 -0.1258
  512MOL0     C69026  11.295   4.366   9.724  0.0499  0.0043  0.3022
  512MOL0     C69027  11.402   4.264   9.753  0.4956  0.2814 -0.6326
  512MOL0     C69028  11.533   4.305   9.688  0.2991  0.0513  0.1274
  512MOL0    Cl69029  11.671   4.213   9.771 -0.3103  0.4125 -0.1104
  512MOL0     C69030  10.418   4.509   9.512 -0.0453 -0.7242 -0.0625
  512MOL0     C69031  10.288   4.474   9.476 -0.2842  0.3377 -0.5388
  512MOL0     O69032  10.096   4.378   9.274 -0.0767 -0.2441 -0.4661
  512MOL0     C69033   9.828   4.223   9.462 -0.3119 -1.0598 -0.3609
  512MOL0     C69034   9.700   4.158   9.449 -0.4015  0.0058  0.1546
  512MOL0     N69035   9.057   4.043   9.004 -0.4749  0.3704  0.1567
  512MOL0     N69036   8.964   4.049   8.912  0.2855  0.2625  0.0588
  512MOL0     C69037   7.741   4.107   8.882 -0.1456  0.8008  0.0007
  512MOL0     C69038   7.630   4.153   8.819  0.0479  0.1893 -0.5882
  512MOL0     C69039   7.380   4.371   8.507 -0.0602 -0.2353  0.2874
  512MOL0     C69040   7.370   4.511   8.498 -0.4104  0.2446  1.0947
  512MOL0     C69041   7.271   4.586   8.443  1.0665 -0.8509  0.6442
  512MOL0     C69042   7.188   4.517   8.356 -0.2399  0.6229  0.6156
  512MOL0     O69043   7.117   4.590   8.262  0.5855 -0.5909 -0.0835
  512MOL0     C69044   6.974   4.584   8.280 -0.3111  0.1997  1.1030
  512MOL0     C69045   6.933   4.668   8.399 -0.1399 -0.8260  0.0917
  512MOL0     C69046   6.781   4.667   8.413 -0.2035 -0.6279  0.0939
  512MOL0     C69047   6.740   4.789   8.492  0.2535 -0.4321  0.4933
  512MOL0     C69048   6.602   4.822   8.476  0.3090 -0.2294 -0.8967
  512MOL0     C69049   6.478   4.833   8.467 -0.1520  0.0005  1.3477
  512MOL0     C69050   7.195   4.377   8.358  0.1845  0.8664 -0.3895
  512MOL0     C69051   7.281   4.296   8.434  0.4338 -0.7103 -0.3436
  512MOL0     C69052   7.268   4.147   8.425 -0.1472 -0.0294  0.3989
  512MOL0     H69053   7.658   3.987   8.520 -2.9079  0.8551 -0.1629
  512MOL0     H69054   7.872   3.910   8.629 -0.4630  1.0520 -1.5811
  512MOL0     H69055   7.969   4.127   9.000  1.3042  0.0603 -0.8087
  512MOL0     H69056   7.922   3.975   9.079  0.0747  0.4355  0.3299
  512MOL0     H69057   8.105   3.864   9.069 -0.3294  0.3286  2.6264
  512MOL0     H69058   8.140   4.017   9.145  0.2561 -0.2418 -0.1805
  512MOL0     H69059   8.248   4.085   8.907  1.4038 -0.9944  0.5630
  512MOL0     H69060   8.219   3.908   8.862 -0.8247  0.3418 -1.5245
  512MOL0     H69061   8.387   4.003   9.104  0.3755 -1.4624  0.4129
  512MOL0     H69062   8.355   3.845   9.056 -0.1989  1.2027  1.6819
  512MOL0     H69063   8.479   3.894   8.832  0.0809  1.3820 -0.5989
  512MOL0     H69064   8.534   4.043   8.908 -1.6157 -0.4353  1.6100
  512MOL0     H69065   8.680   3.913   9.054  1.9955 -0.5850 -1.3551
  512MOL0     H69066   8.582   3.782   9.038 -0.0348  2.1027  2.9352
  512MOL0     H69067   8.649   3.759   8.789  0.0367  0.2533 -0.7928
  512MOL0     H69068   8.768   3.702   8.905 -0.5556 -0.8366  0.5686
  512MOL0     H69069   8.866   3.841   8.705 -0.6145  0.8087 -0.7675
  512MOL0     H69070   8.771   3.972   8.765  0.7763  1.3297  0.9505
  512MOL0     H69071   9.003   3.717   8.949  1.9261 -0.3153  0.5845
  512MOL0     H69072   9.110   3.805   9.206  1.6195 -0.9132  0.1905
  512MOL0     H69073   9.237   3.783   9.088  2.1673  0.2622  1.6701
  512MOL0     H69074   9.335   4.003   9.131 -1.6132  2.2763 -0.2657
  512MOL0     H69075   9.208   4.051   9.240  1.0029 -0.2471  1.0245
  512MOL0     H69076   9.371   3.817   9.328 -2.1731 -2.1392  2.8643
  512MOL0     H69077   9.253   3.922   9.399  0.8486  1.4363 -0.3169
  512MOL0     H69078   9.513   3.947   9.448 -1.2682 -2.0146 -0.5062
  512MOL0     H69079   9.408   4.089   9.449 -0.0074  0.2091 -0.6491
  512MOL0     H69080   9.688   4.164   9.115 -0.6482  0.3566  0.6902
  512MOL0     H69081   9.922   4.255   9.136  1.6921 -4.2752 -0.3679
  512MOL0     H69082  10.234   4.228   9.706  0.1763  0.4003  0.4808
  512MOL0     H69083  10.466   4.306   9.772  0.3650 -1.7836 -1.0450
  512MOL0     H69084  10.640   4.390   9.832  2.2366 -1.2413  0.3121
  512MOL0     H69085  10.717   4.351   9.685 -0.6721 -1.1247  1.2104
  512MOL0     H69086  10.842   4.563   9.669 -1.1976  1.6487  0.3282
  512MOL0     H69087  10.791   4.608   9.832 -2.4533  0.7219  0.6073
  512MOL0     H69088  10.929   4.444   9.919 -1.6747  0.8636  0.6124
  512MOL0     H69089  10.894   4.322   9.793 -0.8004 -0.1355 -1.3467
  512MOL0     H69090  11.111   4.545   9.758 -1.7496  0.9156 -1.3846
  512MOL0     H69091  11.054   4.450   9.632 -0.3248 -0.4585  0.4371
  512MOL0     H69092  11.122   4.239   9.744  1.6802 -0.2372  0.3613
  512MOL0     H69093  11.164   4.323   9.892 -4.4827  2.4302  0.7648
  512MOL0     H69094  11.283   4.368   9.615 -0.3112 -1.6508  0.2849
  512MOL0     H69095  11.332   4.459   9.768  0.6800 -0.4732  0.7868
  512MOL0     H69096  11.369   4.168   9.713 -1.7033  0.3677  0.7854
  512MOL0     H69097  11.406   4.262   9.862 -3.4995  2.1479 -0.2944
  512MOL0     H69098  11.538   4.286   9.580  3.0467 -1.6081  0.4422
  512MOL0     H69099  11.553   4.412   9.704  1.0864 -0.0525 -0.1252
  512MOL0     H69100  10.451   4.604   9.472 -1.7662  0.9014  2.1096
  512MOL0     H69101  10.243   4.528   9.393 -0.4574  2.4133  0.8506
  512MOL0     H69102   9.875   4.239   9.559 -0.4899  0.9849 -0.5705
  512MOL0     H69103   9.649   4.118   9.536 -1.1710 -1.1403 -0.7884
  512MOL0     H69104   7.740   4.112   8.990 -1.1507 -2.6111  0.2746
  512MOL0     H69105   7.550   4.202   8.875 -1.0622 -2.9795  0.8791
  512MOL0     H69106   7.446   4.574   8.544  1.2814 -0.2082 -0.9122
  512MOL0     H69107   7.275   4.693   8.462  0.4594 -1.1677  2.7494
  512MOL0     H69108   6.923   4.489   8.301 -0.7936  0.5194  1.4023
  512MOL0     H69109   6.913   4.615   8.195 -1.1806 -0.1996  1.5656
  512MOL0     H69110   6.962   4.769   8.368 -1.2345 -0.6640 -0.4605
  512MOL0     H69111   6.969   4.641   8.498 -0.5521 -1.7545  0.0029
  512MOL0     H69112   6.745   4.573   8.456 -3.5541 -1.6726 -4.2709
  512MOL0     H69113   6.719   4.672   8.323 -0.0498  0.1087  0.0221
  512MOL0     H69114   6.756   4.775   8.599  0.7311  0.4406  0.5468
  512MOL0     H69115   6.790   4.880   8.457 -0.6906  0.4164  1.2863
  512MOL0     H69116   6.374   4.844   8.445 -0.3782 -2.4123  0.8776
  512MOL0     H69117   7.123   4.329   8.294  2.5245 -2.2225 -0.9144
  512MOL0     H69118   7.345   4.104   8.360 -0.8470  1.5917 -1.6047
  512MOL0     H69119   7.275   4.104   8.526  0.1374  0.8965  0.7790
  512MOL0     H69120   7.175   4.122   8.373 -0.9776  1.4663  1.1057
  513MOL0     O69121   8.855   5.938   9.732 -0.4721 -0.9229  0.2820
  513MOL0     C69122   8.755   5.887   9.784  0.6211 -0.5936 -0.6209
  513MOL0     O69123   8.742   5.750   9.784  0.0685  0.0620  0.0139
  513MOL0     C69124   8.791   5.673   9.682  0.1008  0.7413  0.1807
  513MOL0     C69125   8.699   5.653   9.570 -0.7454 -0.3475 -1.5964
  513MOL0     C69126   8.753   5.581   9.466 -0.2789  0.8924  0.5862
  513MOL0     C69127   8.878   5.511   9.465 -0.0614 -0.0244 -0.2086
  513MOL0     O69128   8.917   5.425   9.366  0.0275 -0.2980  0.0106
  513MOL0     C69129   8.870   5.289   9.377 -0.0563 -0.7294  0.4397
  513MOL0     C69130   8.953   5.197   9.283 -0.0179  0.4256  0.0940
  513MOL0     C69131   9.103   5.168   9.300  0.4200  0.0665  0.9409
  513MOL0     C69132   9.190   5.286   9.254  0.5332 -0.6768  0.7761
  513MOL0     C69133   9.332   5.276   9.299  0.9341 -0.7610 -0.2061
  513MOL0     C69134   9.419   5.325   9.192  0.2538 -0.5240  0.0693
  513MOL0     C69135   9.564   5.280   9.216  0.2280  0.6154  0.2063
  513MOL0     C69136   9.635   5.334   9.091  0.0360  0.0648 -0.2179
  513MOL0     N69137   9.780   5.339   9.100  0.4531 -0.1646 -0.5571
  513MOL0     C69138   9.855   5.223   9.116 -0.2933 -0.9537  0.3671
  513MOL0     C69139   9.983   5.263   9.102 -0.5404 -0.2959  0.3070
  513MOL0     C69140  10.105   5.173   9.089 -0.0109  0.2662  0.6357
  513MOL0     C69141  10.126   5.124   8.942  0.2729 -0.4479  0.2721
  513MOL0     C69142  10.238   5.012   8.929  1.0235 -0.1898 -0.6062
  513MOL0     C69143  10.375   5.052   8.983 -0.1258 -0.0432  0.2427
  513MOL0     O69144  10.448   4.931   9.011 -0.6751  0.1373 -0.2880
  513MOL0     C69145  10.560   4.961   9.088 -0.0311  0.3926  0.5644
  513MOL0     C69146  10.594   4.867   9.180 -0.6075  0.1542  0.5648
  513MOL0     C69147  10.706   4.888   9.260 -0.6332 -0.2898  0.3000
  513MOL0     C69148  10.793   4.991   9.242  0.2680 -0.7978  0.4833
  513MOL0     C69149  10.930   4.991   9.310 -0.3837 -0.2736 -0.6804
  513MOL0     O69150  10.999   5.114   9.300  0.7513  0.8411 -0.2461
  513MOL0     C69151  11.126   5.104   9.356 -0.1325  0.7850 -0.7496
  513MOL0     C69152  11.144   5.148   9.492 -0.2984  0.0027  0.1615
  513MOL0     C69153  11.276   5.137   9.545 -0.3816  0.1877 -0.0376
  513MOL0     C69154  11.386   5.102   9.460 -1.2253  0.3429 -1.1318
  513MOL0     O69155  11.516   5.099   9.517 -0.0153 -0.2487 -0.4813
  513MOL0     C69156  11.540   4.976   9.578  0.4020 -0.0453  0.3459
  513MOL0     C69157  11.654   4.901   9.503  0.7581 -0.4826  0.5457
  513MOL0     C69158  11.775   4.987   9.478 -0.5147 -0.2333 -0.0414
  513MOL0     C69159  11.833   5.023   9.621 -0.4596  0.1866  0.5880
  513MOL0     C69160  11.979   5.072   9.613 -0.0893  0.3691 -0.0910
  513MOL0     C69161  12.045   5.102   9.742 -0.2927  0.1575 -0.2067
  513MOL0     C69162  12.179   5.175   9.711  0.4089  0.2973  1.1787
  513MOL0     C69163  12.228   5.230   9.837  0.3753  0.1623  0.3312
  513MOL0    Cl69164  12.353   5.343   9.807  0.1727 -0.1939 -0.3404
  513MOL0     C69165  11.359   5.058   9.332 -0.1049  0.5994 -0.2896
  513MOL0     C69166  11.233   5.061   9.282 -0.3093 -0.6642 -0.1858
  513MOL0     O69167  10.970   4.888   9.367 -0.5328 -0.1585  0.4614
  513MOL0     C69168  10.749   5.097   9.166  0.4948 -0.7329  0.5182
  513MOL0     C69169  10.642   5.074   9.072 -0.1355  0.0146 -0.2692
  513MOL0     N69170   9.981   5.399   9.111  0.5294 -0.4173  0.4250
  513MOL0     N69171   9.858   5.448   9.106  0.0784  0.1102 -0.3657
  513MOL0     C69172   8.950   5.521   9.589 -0.2080  0.0550 -0.1334
  513MOL0     C69173   8.905   5.601   9.692 -0.4311 -0.1782  0.3173
  513MOL0     C69174   8.661   5.977   9.858  0.0578  0.5917  0.2608
  513MOL0     C69175   8.576   5.917   9.958  0.0341 -0.0806  0.3141
  513MOL0     C69176   8.495   5.992  10.043  0.6695  0.3546  0.1256
  513MOL0     C69177   8.472   6.130  10.006  0.2094  1.0062 -0.5362
  513MOL0     O69178   8.377   6.209  10.073 -0.6550  0.5675  0.3106
  513MOL0     C69179   8.255   6.158  10.096  1.2366 -0.5034 -0.0818
  513MOL0     C69180   8.231   6.195  10.242  0.3853  0.4755 -0.0960
  513MOL0     C69181   8.320   6.128  10.354 -0.4397  0.3771  0.2873
  513MOL0     C69182   8.274   6.190  10.486 -0.5081 -0.2943  0.3176
  513MOL0     C69183   8.373   6.152  10.591 -0.1318 -0.3851  0.0592
  513MOL0     C69184   8.447   6.128  10.684  0.6465 -0.2457 -0.3331
  513MOL0     C69185   8.552   6.184   9.909  0.6959 -0.1788 -0.3089
  513MOL0     C69186   8.650   6.120   9.840  0.4703  0.1061 -0.7238
  513MOL0     C69187   8.737   6.212   9.746  0.1939  0.4664  0.3933
  513MOL0     H69188   8.603   5.703   9.564 -0.6727 -0.3189 -2.7758
  513MOL0     H69189   8.686   5.575   9.381 -1.7528  0.9672  1.6910
  513MOL0     H69190   8.876   5.261   9.482  0.5450  2.6810  1.4090
  513MOL0     H69191   8.765   5.294   9.344  0.5143  2.3121 -1.2948
  513MOL0     H69192   8.949   5.233   9.179 -0.2567  0.7358  0.2051
  513MOL0     H69193   8.894   5.105   9.282  0.0855  0.3600 -0.4056
  513MOL0     H69194   9.129   5.083   9.236 -1.0451  0.1313  0.2126
  513MOL0     H69195   9.116   5.146   9.406  2.5523 -0.3453  0.6364
  513MOL0     H69196   9.169   5.293   9.147 -2.5879  0.6020  1.3418
  513MOL0     H69197   9.156   5.387   9.280  0.3567 -0.7632  0.8903
  513MOL0     H69198   9.349   5.333   9.391  0.4610  0.8601 -1.0928
  513MOL0     H69199   9.361   5.172   9.316 -2.5883 -1.4013  3.3449
  513MOL0     H69200   9.381   5.284   9.097 -0.5206  0.2980  0.0178
  513MOL0     H69201   9.405   5.433   9.195 -3.9374 -0.9127  1.9644
  513MOL0     H69202   9.582   5.172   9.216 -0.5563  0.4512 -1.6496
  513MOL0     H69203   9.593   5.325   9.311  0.0764  1.4013 -0.1178
  513MOL0     H69204   9.602   5.278   9.003 -1.4043 -0.7707  0.8034
  513MOL0     H69205   9.620   5.441   9.071  2.5115  0.6324  0.7017
  513MOL0     H69206   9.811   5.124   9.107 -2.2350 -0.2600  1.3561
  513MOL0     H69207  10.198   5.222   9.120  0.4333 -0.9222  1.2571
  513MOL0     H69208  10.083   5.091   9.158  0.1636 -0.7118 -0.4197
  513MOL0     H69209  10.033   5.081   8.903  1.1458  0.8101 -3.7041
  513MOL0     H69210  10.155   5.219   8.897  1.4307 -1.4099 -1.1294
  513MOL0     H69211  10.246   4.978   8.825  0.9837 -0.6005 -0.4792
  513MOL0     H69212  10.210   4.924   8.987  3.4275  0.3594  1.5663
  513MOL0     H69213  10.368   5.120   9.068 -0.3721 -0.9305  0.9508
  513MOL0     H69214  10.428   5.112   8.909  1.4160  0.1433  1.4552
  513MOL0     H69215  10.555   4.766   9.188  5.1076 -2.3372  1.9489
  513MOL0     H69216  10.750   4.808   9.318  1.8447  0.1152 -0.9046
  513MOL0     H69217  11.057   5.181   9.547  0.1995 -0.7685  1.4371
  513MOL0     H69218  11.294   5.166   9.648 -2.4249 -0.8928  0.6959
  513MOL0     H69219  11.582   4.990   9.678  0.7429  1.7628 -0.0067
  513MOL0     H69220  11.447   4.920   9.589  1.4625 -1.7881  0.8012
  513MOL0     H69221  11.676   4.827   9.581 -1.3037 -1.0350  0.6568
  513MOL0     H69222  11.617   4.845   9.417 -1.5332 -1.4539  2.0719
  513MOL0     H69223  11.848   4.923   9.426  0.4192 -1.9683  3.1681
  513MOL0     H69224  11.753   5.075   9.416 -2.0393 -0.8328 -0.3835
  513MOL0     H69225  11.820   4.943   9.695  1.8784 -1.5031 -0.6946
  513MOL0     H69226  11.770   5.106   9.656 -1.9067 -0.0430 -1.3494
  513MOL0     H69227  11.991   5.161   9.550  2.3327 -1.1222 -1.9322
  513MOL0     H69228  12.035   4.998   9.555  0.0283  0.1558  0.2962
  513MOL0     H69229  11.970   5.162   9.796  1.3293  0.9768  1.2502
  513MOL0     H69230  12.062   5.014   9.805 -1.0064  1.6160  2.1794
  513MOL0     H69231  12.171   5.243   9.626  0.0942 -2.8948 -1.5542
  513MOL0     H69232  12.253   5.098   9.686  0.2204  0.7282 -0.8678
  513MOL0     H69233  12.146   5.279   9.892  1.2543  1.4617  0.5378
  513MOL0     H69234  12.270   5.156   9.906 -1.5994 -0.9823  0.3953
  513MOL0     H69235  11.445   5.032   9.270  0.9077  2.7668  0.1059
  513MOL0     H69236  11.220   5.023   9.181 -1.6899 -4.6896  1.2749
  513MOL0     H69237  10.799   5.192   9.153 -0.3183 -0.4949 -1.2603
  513MOL0     H69238  10.627   5.145   8.991 -0.7789  0.5073  0.2778
  513MOL0     H69239   9.046   5.472   9.600  0.7442  1.9748  0.4756
  513MOL0     H69240   8.972   5.618   9.776  1.2133 -1.1453 -0.7359
  513MOL0     H69241   8.586   5.809   9.961  0.5865 -0.1134 -1.4085
  513MOL0     H69242   8.433   5.936  10.112 -0.4359  1.5692  0.1385
  513MOL0     H69243   8.248   6.050  10.077  0.0089 -1.2560  3.7776
  513MOL0     H69244   8.177   6.193  10.028  1.0007 -2.7283 -1.0416
  513MOL0     H69245   8.129   6.165  10.268  0.8444 -0.0723  1.1322
  513MOL0     H69246   8.235   6.304  10.252  1.0924  0.4135  0.3053
  513MOL0     H69247   8.424   6.149  10.327 -0.6922 -0.0838 -1.1548
  513MOL0     H69248   8.311   6.019  10.358 -1.2141  0.3974 -0.4655
  513MOL0     H69249   8.269   6.299  10.484  0.5653 -0.2336  0.3315
  513MOL0     H69250   8.170   6.159  10.506 -1.2760  1.1141 -1.2764
  513MOL0     H69251   8.496   6.114  10.778  0.0125 -2.1951 -0.2427
  513MOL0     H69252   8.534   6.291   9.897  0.5799  0.4912  3.9575
  513MOL0     H69253   8.841   6.205   9.780 -0.1223  0.9744  1.5234
  513MOL0     H69254   8.722   6.176   9.644 -0.0296  1.5169  0.0444
  513MOL0     H69255   8.708   6.317   9.752 -1.4119  0.0406  0.3424
  514MOL0     O69256   1.625   2.109   2.234  0.1343  0.2822  0.3539
  514MOL0     C69257   1.699   2.080   2.139  0.1170 -0.5898 -0.3703
  514MOL0     O69258   1.778   2.170   2.080 -0.2636 -0.9359  0.1287
  514MOL0     C69259   1.787   2.292   2.142  0.2397 -0.1803 -0.6539
  514MOL0     C69260   1.893   2.333   2.227  0.2615 -0.0322 -0.1098
  514MOL0     C69261   1.902   2.464   2.260  0.1940 -0.2715 -0.5804
  514MOL0     C69262   1.800   2.560   2.236 -0.6228 -0.6445 -0.4470
  514MOL0     O69263   1.832   2.691   2.283  0.2159 -0.3299  0.7261
  514MOL0     C69264   1.739   2.788   2.237 -1.0811 -0.4844  0.3480
  514MOL0     C69265   1.814   2.911   2.207  0.0234 -0.0789 -0.1971
  514MOL0     C69266   1.902   2.912   2.084  0.1809 -0.4377  0.4823
  514MOL0     C69267   2.031   2.992   2.101  0.3315 -0.8252 -0.7108
  514MOL0     C69268   2.128   2.988   1.981 -0.1512 -0.0579  0.1648
  514MOL0     C69269   2.254   3.061   2.015  0.7024  0.2657 -0.9212
  514MOL0     C69270   2.353   3.056   1.905 -0.2249 -0.5128  0.1437
  514MOL0     C69271   2.435   3.182   1.915  0.0397 -0.8144 -0.4317
  514MOL0     N69272   2.541   3.188   1.808 -0.2973  0.7616 -0.4665
  514MOL0     C69273   2.608   3.074   1.765  0.6949  0.0465  0.4720
  514MOL0     C69274   2.704   3.124   1.680  0.5294  0.6584 -1.1816
  514MOL0     C69275   2.807   3.036   1.616  0.7326  0.0089  0.6352
  514MOL0     C69276   2.920   2.983   1.708  0.1781  0.0129 -0.4667
  514MOL0     C69277   2.903   2.842   1.757  0.7816  0.8169 -0.4749
  514MOL0     C69278   2.926   2.735   1.651 -0.1685  0.3075 -0.4360
  514MOL0     O69279   2.904   2.611   1.710  0.1190  0.4370 -0.7491
  514MOL0     C69280   2.773   2.568   1.720  0.3973 -0.0454 -0.2457
  514MOL0     C69281   2.764   2.445   1.788 -0.6966  0.6573 -0.0208
  514MOL0     C69282   2.640   2.390   1.809 -0.9031 -0.2863  0.8433
  514MOL0     C69283   2.526   2.447   1.750  0.0444  0.2203  0.2907
  514MOL0     C69284   2.394   2.381   1.769  0.4573  0.0865 -0.0562
  514MOL0     O69285   2.381   2.263   1.848 -0.2155  0.8503  0.6288
  514MOL0     C69286   2.260   2.194   1.828  0.5179 -0.1207 -0.0980
  514MOL0     C69287   2.267   2.070   1.777 -0.4793  0.1502 -1.0465
  514MOL0     C69288   2.149   1.986   1.759 -0.3022 -0.3648  0.0770
  514MOL0     C69289   2.025   2.038   1.788 -0.0187 -0.0148  0.2551
  514MOL0     O69290   1.915   1.957   1.780 -0.1541 -0.2546  0.7005
  514MOL0     C69291   1.790   2.020   1.737 -0.9315  0.0720  0.1156
  514MOL0     C69292   1.719   1.910   1.646 -0.2102 -0.4411 -0.9880
  514MOL0     C69293   1.625   1.985   1.550 -0.2890  0.6167 -0.6206
  514MOL0     C69294   1.549   1.880   1.461 -0.1765  0.0070 -0.8834
  514MOL0     C69295   1.455   1.934   1.349 -0.0914 -1.6320 -0.3691
  514MOL0     C69296   1.411   1.829   1.254 -0.2817  0.0374  0.4957
  514MOL0     C69297   1.525   1.810   1.153  0.0542  0.3812  0.7463
  514MOL0     C69298   1.509   1.686   1.066  0.4234  0.4216  0.8420
  514MOL0    Cl69299   1.607   1.555   1.132 -0.5839 -0.0653  0.0199
  514MOL0     C69300   2.016   2.173   1.836 -0.5919 -0.1836 -0.0112
  514MOL0     C69301   2.132   2.248   1.862 -0.2684  0.0547  0.2540
  514MOL0     O69302   2.299   2.434   1.713  0.4500 -0.0410 -0.1537
  514MOL0     C69303   2.538   2.567   1.675  0.2263 -0.4510  0.1020
  514MOL0     C69304   2.661   2.623   1.655 -0.3600 -0.5200  0.9024
  514MOL0     N69305   2.701   3.261   1.674  0.5146  0.0109  0.1431
  514MOL0     N69306   2.605   3.294   1.751 -0.2546  0.3573  0.3261
  514MOL0     C69307   1.682   2.518   2.175  0.7730  0.3420  1.0920
  514MOL0     C69308   1.672   2.382   2.125 -0.5266 -0.4755  1.1168
  514MOL0     C69309   1.708   1.940   2.099  0.0385 -1.1881  0.3917
  514MOL0     C69310   1.830   1.901   2.066 -0.5478  0.1299  0.6608
  514MOL0     C69311   1.853   1.765   2.051  0.3192 -1.1848  0.5539
  514MOL0     C69312   1.755   1.671   2.057  0.1696 -0.5253  1.2479
  514MOL0     O69313   1.772   1.530   2.045 -0.3195 -0.3717 -0.2091
  514MOL0     C69314   1.906   1.486   2.045 -0.1965  0.4644 -0.1159
  514MOL0     C69315   1.956   1.462   2.184  0.4023  0.2352  0.3720
  514MOL0     C69316   1.852   1.399   2.292  0.1299  0.7643 -0.5286
  514MOL0     C69317   1.819   1.250   2.268 -0.2488  0.3588  0.0413
  514MOL0     C69318   1.740   1.193   2.371 -0.3347  0.8616 -0.9323
  514MOL0     C69319   1.672   1.152   2.460 -0.8905  0.1229 -0.0162
  514MOL0     C69320   1.626   1.717   2.077  0.8221  0.1077  1.6926
  514MOL0     C69321   1.599   1.851   2.102 -0.0908 -1.6300 -0.1826
  514MOL0     C69322   1.463   1.893   2.141 -0.8680  0.2632  0.4330
  514MOL0     H69323   1.964   2.262   2.269 -0.7554 -0.7279  0.4944
  514MOL0     H69324   1.988   2.494   2.319 -1.4968  1.0910  1.3328
  514MOL0     H69325   1.686   2.770   2.143  3.0162  2.4009 -2.8911
  514MOL0     H69326   1.675   2.809   2.323 -0.6796  2.3435  0.0628
  514MOL0     H69327   1.881   2.925   2.293 -1.5244 -0.7549  1.1756
  514MOL0     H69328   1.736   2.988   2.211 -0.4265 -0.4863  4.3006
  514MOL0     H69329   1.840   2.953   2.003 -1.0953 -1.8332  0.7149
  514MOL0     H69330   1.932   2.814   2.047 -1.1889 -0.4076 -0.8437
  514MOL0     H69331   2.012   3.096   2.128  1.8946 -0.7267  0.0949
  514MOL0     H69332   2.093   2.952   2.182  0.9794  1.7011  0.1441
  514MOL0     H69333   2.151   2.885   1.954  3.1972  0.6724 -0.2003
  514MOL0     H69334   2.077   3.039   1.899 -2.7271  0.2511  1.8374
  514MOL0     H69335   2.226   3.164   2.038  3.8760  0.9090  0.6356
  514MOL0     H69336   2.298   3.015   2.104 -0.4420 -1.9499 -1.4180
  514MOL0     H69337   2.302   3.054   1.808 -0.2269 -1.9663  0.1453
  514MOL0     H69338   2.412   2.966   1.924 -0.5831 -0.6375  0.7239
  514MOL0     H69339   2.375   3.272   1.904 -1.9748 -2.2659 -1.9870
  514MOL0     H69340   2.478   3.181   2.016 -0.1845  0.3426 -0.3133
  514MOL0     H69341   2.579   2.972   1.790 -0.5767 -0.1007 -1.4155
  514MOL0     H69342   2.749   2.955   1.571 -0.1285  1.4584 -0.9984
  514MOL0     H69343   2.862   3.076   1.530  1.0495  0.7108  1.1478
  514MOL0     H69344   3.021   2.996   1.669  0.1741  2.3051  0.1162
  514MOL0     H69345   2.909   3.050   1.794 -4.5050 -3.2308  1.9235
  514MOL0     H69346   2.805   2.833   1.806  1.8865  0.4478  1.8048
  514MOL0     H69347   2.976   2.814   1.833  1.1395  0.0636 -1.0871
  514MOL0     H69348   3.026   2.757   1.614 -0.2948  1.8784  0.1149
  514MOL0     H69349   2.863   2.754   1.563 -0.7172 -1.6160 -0.5234
  514MOL0     H69350   2.863   2.413   1.819 -0.9060  1.3628  1.4831
  514MOL0     H69351   2.636   2.297   1.864 -1.7467 -1.2592 -0.8092
  514MOL0     H69352   2.363   2.045   1.733  2.0863  2.0348  2.8412
  514MOL0     H69353   2.165   1.888   1.715  1.5323  0.6377 -1.6597
  514MOL0     H69354   1.738   2.051   1.828  2.0554  3.6821  0.8555
  514MOL0     H69355   1.808   2.107   1.673  1.0367 -0.2155  0.2186
  514MOL0     H69356   1.800   1.866   1.587  1.0751  1.3988 -0.6805
  514MOL0     H69357   1.667   1.842   1.714 -0.3126  1.7265  1.2507
  514MOL0     H69358   1.559   2.045   1.613  0.2232 -0.5685  1.1336
  514MOL0     H69359   1.668   2.063   1.487 -3.4354  2.4532 -0.6882
  514MOL0     H69360   1.480   1.818   1.518  2.3129 -3.4472 -1.3030
  514MOL0     H69361   1.611   1.794   1.432 -0.5668 -1.3769  2.0706
  514MOL0     H69362   1.509   2.011   1.294 -0.2218 -2.0506 -1.0860
  514MOL0     H69363   1.364   1.978   1.392 -0.7743 -2.4473 -0.9500
  514MOL0     H69364   1.386   1.741   1.314  1.0874 -0.8289 -0.1782
  514MOL0     H69365   1.322   1.872   1.205 -0.2263 -0.8436 -0.4106
  514MOL0     H69366   1.622   1.804   1.202  1.4247  1.7438 -1.6185
  514MOL0     H69367   1.521   1.895   1.085  1.4387  0.2567  0.4750
  514MOL0     H69368   1.404   1.658   1.079  0.7896 -2.0442 -0.8069
  514MOL0     H69369   1.532   1.699   0.960  0.3941  0.9189  0.8979
  514MOL0     H69370   1.922   2.219   1.862 -1.8195 -3.0887  1.1010
  514MOL0     H69371   2.132   2.345   1.912  2.0275 -0.4318  1.3542
  514MOL0     H69372   2.451   2.616   1.633  1.8289  1.1952 -1.5065
  514MOL0     H69373   2.672   2.716   1.599 -1.5283 -0.1214  1.3012
  514MOL0     H69374   1.602   2.590   2.162  0.3253 -0.5314 -1.4703
  514MOL0     H69375   1.582   2.355   2.070 -1.3371  2.2460  0.9831
  514MOL0     H69376   1.918   1.965   2.066  1.1216 -1.9323 -2.2910
  514MOL0     H69377   1.957   1.741   2.036  0.7703  1.1185 -0.5384
  514MOL0     H69378   1.978   1.553   1.996  2.2267 -0.5341  1.8196
  514MOL0     H69379   1.908   1.394   1.987  1.3009  0.8719 -0.7618
  514MOL0     H69380   2.005   1.557   2.205  0.2589  0.7841 -1.5304
  514MOL0     H69381   2.042   1.395   2.178  0.8783  0.9073 -0.4654
  514MOL0     H69382   1.757   1.454   2.290  0.8920  2.3201  2.0536
  514MOL0     H69383   1.898   1.411   2.390 -2.2758 -0.4046  0.8445
  514MOL0     H69384   1.760   1.251   2.176 -0.2434 -2.3867 -0.0628
  514MOL0     H69385   1.904   1.187   2.242 -0.2987  0.4567 -0.3595
  514MOL0     H69386   1.603   1.110   2.531  0.6689  1.7475  2.6240
  514MOL0     H69387   1.544   1.646   2.082 -2.7666  3.9076  3.8012
  514MOL0     H69388   1.395   1.816   2.104  3.7347 -4.3867  0.4612
  514MOL0     H69389   1.455   1.892   2.250 -2.2925 -1.2059  0.3479
  514MOL0     H69390   1.436   1.989   2.095 -2.3465 -0.2417  0.2079
  515MOL0     O69391   8.847   8.291   4.790  0.9351 -0.0119 -0.2051
  515MOL0     C69392   8.779   8.234   4.875  0.4636  0.2948 -0.3446
  515MOL0     O69393   8.823   8.189   4.996 -0.4530 -0.0798  0.0125
  515MOL0     C69394   8.958   8.183   5.011  0.4906  0.7826 -0.3113
  515MOL0     C69395   9.008   8.223   5.139  0.3476 -0.3849  0.3586
  515MOL0     C69396   9.146   8.210   5.157  0.2671 -0.2341  0.2570
  515MOL0     C69397   9.230   8.159   5.066  0.4588 -0.4864  0.4996
  515MOL0     O69398   9.363   8.164   5.105 -0.1325 -0.4247 -0.2423
  515MOL0     C69399   9.425   8.044   5.121  0.1478  0.1076  0.3042
  515MOL0     C69400   9.533   8.064   5.221  0.0025  0.3733 -0.5636
  515MOL0     C69401   9.656   8.148   5.179 -0.6517  0.8495 -0.2498
  515MOL0     C69402   9.776   8.118   5.273  0.6460  0.1435  0.1156
  515MOL0     C69403   9.892   8.208   5.234 -0.4820  0.4094 -0.4665
  515MOL0     C69404  10.012   8.189   5.338 -0.4862  0.2353 -0.5902
  515MOL0     C69405  10.109   8.304   5.326 -0.2571  0.4738  0.0893
  515MOL0     C69406  10.157   8.315   5.182  0.3364 -0.6868 -0.3051
  515MOL0     N69407  10.244   8.437   5.173  0.7800  0.3139  0.3129
  515MOL0     C69408  10.371   8.453   5.211 -0.4987 -0.0458  0.4663
  515MOL0     C69409  10.398   8.586   5.199 -0.6219  0.3224 -0.0028
  515MOL0     C69410  10.533   8.661   5.216  0.0131 -0.2272  0.5108
  515MOL0     C69411  10.532   8.709   5.360 -0.0386 -0.5359  0.0295
  515MOL0     C69412  10.572   8.599   5.464  0.7505 -0.3116  0.1412
  515MOL0     C69413  10.633   8.639   5.601 -0.1481  0.3342 -0.5626
  515MOL0     O69414  10.566   8.754   5.659 -0.3711 -0.9443 -0.1747
  515MOL0     C69415  10.646   8.825   5.746  0.2478  0.7032  0.2551
  515MOL0     C69416  10.639   8.800   5.883  0.4887  0.3667  0.4761
  515MOL0     C69417  10.731   8.852   5.966 -0.2562 -0.5248  0.0178
  515MOL0     C69418  10.830   8.933   5.922 -0.2504 -0.2830  0.9225
  515MOL0     C69419  10.920   9.001   6.012 -0.4896  0.1152 -0.4052
  515MOL0     O69420  10.977   9.123   5.991  0.8404  0.4837  0.1339
  515MOL0     C69421  11.048   9.180   6.086  0.3420  0.5807 -0.0825
  515MOL0     C69422  10.997   9.248   6.199  0.3161  0.1464 -0.0346
  515MOL0     C69423  11.076   9.310   6.290 -0.0349  0.6833  0.2209
  515MOL0     C69424  11.210   9.322   6.273 -0.5803  0.1322  0.8172
  515MOL0     O69425  11.283   9.387   6.373  0.4337  1.0201 -0.0305
  515MOL0     C69426  11.426   9.396   6.363 -0.7408 -0.0935 -0.9216
  515MOL0     C69427  11.479   9.471   6.484  0.2902  0.2826  0.3064
  515MOL0     C69428  11.607   9.550   6.440  0.2746  0.5295  0.4175
  515MOL0     C69429  11.655   9.636   6.556  0.3443 -1.2872 -0.2310
  515MOL0     C69430  11.791   9.593   6.601 -0.0852 -0.4980  0.4517
  515MOL0     C69431  11.845   9.688   6.702 -0.9203 -0.5332 -0.8207
  515MOL0     C69432  11.989   9.664   6.750  0.7013  0.5437  0.6513
  515MOL0     C69433  11.999   9.525   6.823 -0.5981  0.7537 -0.4045
  515MOL0    Cl69434  12.142   9.512   6.939  0.3284 -0.1760  0.2565
  515MOL0     C69435  11.259   9.280   6.151  0.0894 -0.4200 -0.6756
  515MOL0     C69436  11.185   9.203   6.064 -0.3240  0.2223 -0.1916
  515MOL0     O69437  10.939   8.944   6.117  0.5717  0.1048  0.2914
  515MOL0     C69438  10.851   8.946   5.782  0.3353 -0.8262 -0.0321
  515MOL0     C69439  10.757   8.895   5.694 -0.0836  0.4065  0.3354
  515MOL0     N69440  10.287   8.647   5.152 -0.1042 -0.2151 -0.1105
  515MOL0     N69441  10.193   8.556   5.133 -0.7220  0.0668 -0.1305
  515MOL0     C69442   9.188   8.099   4.950  0.0878  0.8351 -0.5686
  515MOL0     C69443   9.052   8.117   4.918  1.4016  0.6972 -0.2255
  515MOL0     C69444   8.631   8.237   4.847 -0.2184  0.3627 -0.4780
  515MOL0     C69445   8.551   8.271   4.953 -0.4248 -0.0887 -0.1484
  515MOL0     C69446   8.412   8.270   4.946  0.3787  0.2353 -0.1855
  515MOL0     C69447   8.357   8.230   4.827  0.6147  0.4036 -0.1438
  515MOL0     O69448   8.219   8.221   4.816 -0.1717 -0.0975  0.6713
  515MOL0     C69449   8.154   8.153   4.697 -0.2432 -0.3408  0.7811
  515MOL0     C69450   8.004   8.136   4.717  0.3787  0.8174 -0.5938
  515MOL0     C69451   7.964   8.063   4.851 -0.2534  0.5752 -0.4573
  515MOL0     C69452   7.816   8.079   4.886  0.4638 -0.4477 -0.4413
  515MOL0     C69453   7.768   7.977   4.983 -0.4151 -0.4267 -0.3952
  515MOL0     C69454   7.736   7.883   5.058 -0.2751  0.0318  0.4243
  515MOL0     C69455   8.441   8.201   4.717 -0.3525  0.0747 -0.2491
  515MOL0     C69456   8.581   8.186   4.724  0.1472  0.2736 -0.6495
  515MOL0     C69457   8.665   8.131   4.606 -0.2721 -0.1885 -0.2239
  515MOL0     H69458   8.941   8.270   5.210 -1.6769  2.5846 -3.1184
  515MOL0     H69459   9.185   8.235   5.254 -2.5101  0.4405  1.2913
  515MOL0     H69460   9.358   7.985   5.184 -2.2118  1.5197 -0.7160
  515MOL0     H69461   9.457   7.996   5.028 -0.3263 -2.1531  1.2438
  515MOL0     H69462   9.570   7.968   5.257  0.9275  0.7084 -0.5774
  515MOL0     H69463   9.490   8.108   5.311 -0.4254  1.7158 -1.3943
  515MOL0     H69464   9.632   8.254   5.190  0.3622  0.8254  3.4977
  515MOL0     H69465   9.676   8.138   5.072  1.6339  2.7831 -0.1037
  515MOL0     H69466   9.745   8.132   5.377 -2.2077  2.8739 -0.9726
  515MOL0     H69467   9.809   8.015   5.254 -1.9614 -0.2491 -3.2814
  515MOL0     H69468   9.916   8.193   5.128 -2.5946  0.5191 -0.9979
  515MOL0     H69469   9.857   8.311   5.240  2.4146  1.4830 -0.3322
  515MOL0     H69470   9.973   8.171   5.439 -1.1355 -1.0490 -1.0429
  515MOL0     H69471  10.070   8.102   5.306 -0.6762  0.5631 -1.8713
  515MOL0     H69472  10.197   8.282   5.388 -0.1788 -1.1823 -0.5633
  515MOL0     H69473  10.057   8.396   5.356 -0.7511 -0.1254  1.1266
  515MOL0     H69474  10.217   8.226   5.160  1.7236  0.3086 -0.6921
  515MOL0     H69475  10.078   8.337   5.110  0.3476  0.6982  0.0832
  515MOL0     H69476  10.440   8.375   5.240  0.4388  0.2243 -0.9396
  515MOL0     H69477  10.606   8.583   5.190 -0.6886 -0.4494 -0.8781
  515MOL0     H69478  10.548   8.749   5.153  0.3338 -1.3832 -1.0857
  515MOL0     H69479  10.609   8.783   5.381 -1.9235  1.3500  0.6191
  515MOL0     H69480  10.438   8.762   5.378  0.6996  0.7546  0.2278
  515MOL0     H69481  10.654   8.549   5.410  0.3239 -1.7059  0.7451
  515MOL0     H69482  10.484   8.537   5.478 -1.2743  2.7621  2.0965
  515MOL0     H69483  10.740   8.645   5.578  0.1159 -3.3171 -0.8125
  515MOL0     H69484  10.624   8.559   5.674  1.3683 -2.6241 -3.3586
  515MOL0     H69485  10.554   8.749   5.927  1.8120 -5.5427 -2.6534
  515MOL0     H69486  10.727   8.832   6.073  0.1742  0.8044  0.3033
  515MOL0     H69487  10.892   9.253   6.226  1.0111 -0.1048  3.1390
  515MOL0     H69488  11.027   9.356   6.375  0.1481 -2.0686  1.9405
  515MOL0     H69489  11.479   9.301   6.350  2.1372  1.4593 -1.4413
  515MOL0     H69490  11.446   9.449   6.269 -0.6764 -0.5706 -1.1858
  515MOL0     H69491  11.407   9.534   6.536  0.7616  1.3309 -0.2857
  515MOL0     H69492  11.512   9.387   6.546  0.1267  0.1448  0.2060
  515MOL0     H69493  11.685   9.483   6.403  0.8771  1.3051  0.2694
  515MOL0     H69494  11.586   9.610   6.352  3.1387 -1.6215 -1.9209
  515MOL0     H69495  11.582   9.626   6.638 -2.3294  2.0365 -1.9626
  515MOL0     H69496  11.655   9.741   6.528 -1.4448 -1.0007  0.6333
  515MOL0     H69497  11.854   9.588   6.512  0.4471  1.2149  0.7091
  515MOL0     H69498  11.783   9.494   6.648  0.2805 -1.0358 -0.5637
  515MOL0     H69499  11.848   9.781   6.645  0.9313 -2.3981 -4.0173
  515MOL0     H69500  11.778   9.691   6.788 -0.7696 -2.5069 -0.5854
  515MOL0     H69501  12.014   9.752   6.810  0.9658  1.0264 -0.1512
  515MOL0     H69502  12.065   9.661   6.672  1.5429 -1.8730  1.4929
  515MOL0     H69503  11.910   9.502   6.881  0.0712  1.1309  0.8031
  515MOL0     H69504  12.008   9.447   6.747  1.3643  0.4574  0.0715
  515MOL0     H69505  11.363   9.302   6.128  0.4199 -0.1856  0.8838
  515MOL0     H69506  11.232   9.170   5.972  3.8488  1.8531  1.1124
  515MOL0     H69507  10.932   9.001   5.736 -0.5449 -2.0133 -3.2635
  515MOL0     H69508  10.755   8.907   5.586  1.0953 -0.1610  0.2403
  515MOL0     H69509   9.255   8.056   4.877  1.5702 -2.0123  2.2472
  515MOL0     H69510   9.015   8.088   4.820  0.7301  0.0887  0.2015
  515MOL0     H69511   8.591   8.311   5.046 -1.0910 -1.7137  0.8718
  515MOL0     H69512   8.345   8.300   5.026  2.6173  1.0340  1.4809
  515MOL0     H69513   8.201   8.054   4.693 -0.9984 -0.6882 -1.7792
  515MOL0     H69514   8.163   8.202   4.600  1.4668  0.4433  1.3035
  515MOL0     H69515   7.961   8.079   4.634  3.0348 -0.8901 -0.9399
  515MOL0     H69516   7.971   8.240   4.722  0.0390  0.6675  2.0488
  515MOL0     H69517   8.024   8.095   4.937 -1.2257  0.8320  0.1345
  515MOL0     H69518   7.986   7.957   4.833  3.9370  1.3052 -0.5268
  515MOL0     H69519   7.787   8.179   4.919  0.3362 -1.1674  1.7925
  515MOL0     H69520   7.757   8.069   4.794 -0.6570 -0.3459  0.2430
  515MOL0     H69521   7.705   7.799   5.118 -3.1276 -0.4532 -1.5091
  515MOL0     H69522   8.389   8.174   4.625 -0.7214  1.8592 -0.6037
  515MOL0     H69523   8.747   8.079   4.656 -0.2198  1.2287  1.2031
  515MOL0     H69524   8.613   8.056   4.546  2.1061 -1.4550 -0.8347
  515MOL0     H69525   8.692   8.213   4.540  1.1523  1.4447  2.2381
  516MOL0     O69526   8.949   7.747   3.153 -0.6246  0.0603  0.4484
  516MOL0     C69527   8.892   7.649   3.110 -0.3754 -0.2544  1.0069
  516MOL0     O69528   8.945   7.558   3.018  0.0493  0.2886 -0.3611
  516MOL0     C69529   9.077   7.565   3.005 -0.2092 -1.3496 -0.1116
  516MOL0     C69530   9.142   7.655   2.913 -0.0400  0.1372  0.0638
  516MOL0     C69531   9.279   7.649   2.902 -0.9864  0.1469  0.5687
  516MOL0     C69532   9.353   7.550   2.974  0.6875 -0.1856 -0.1946
  516MOL0     O69533   9.485   7.538   2.971  0.1635 -0.0014 -0.5834
  516MOL0     C69534   9.562   7.652   2.936  0.5087  0.3923  0.7420
  516MOL0     C69535   9.699   7.615   2.990  0.4125  1.4004  1.3307
  516MOL0     C69536   9.809   7.709   2.950 -0.6787 -0.0277 -0.7848
  516MOL0     C69537   9.949   7.659   2.996 -0.3614  0.1983 -0.2254
  516MOL0     C69538  10.069   7.743   2.933  0.4953  0.4052  0.1139
  516MOL0     C69539  10.191   7.654   2.948 -0.6928  0.4362 -0.3305
  516MOL0     C69540  10.310   7.732   2.897  0.4782 -0.1881  0.0159
  516MOL0     C69541  10.437   7.648   2.900  1.1289  0.8997 -0.1311
  516MOL0     N69542  10.545   7.739   2.852  0.3690  0.3294  0.3473
  516MOL0     C69543  10.659   7.697   2.786  0.7575  0.6494  0.0051
  516MOL0     C69544  10.727   7.810   2.766  1.4054  0.6535 -0.4108
  516MOL0     C69545  10.843   7.810   2.690  0.2028 -0.2380  0.3529
  516MOL0     C69546  10.969   7.833   2.782  0.2440  0.1776  0.2270
  516MOL0     C69547  11.098   7.805   2.711 -0.5688 -0.1809  0.2177
  516MOL0     C69548  11.219   7.807   2.807  0.1869  0.5560  0.0268
  516MOL0     O69549  11.347   7.796   2.736 -0.0730  0.3929 -0.1902
  516MOL0     C69550  11.468   7.849   2.773  0.2733 -0.0697  0.3950
  516MOL0     C69551  11.489   7.911   2.898  0.6127 -0.0917 -0.4695
  516MOL0     C69552  11.615   7.948   2.939 -0.6206 -0.5566  1.1111
  516MOL0     C69553  11.726   7.925   2.856  0.0458  0.1153 -0.3798
  516MOL0     C69554  11.866   7.970   2.898  0.7081  0.3824  1.2199
  516MOL0     O69555  11.888   8.036   3.014  0.0267  0.5326  0.2037
  516MOL0     C69556  12.013   8.086   3.035 -0.2145 -0.0398  0.4863
  516MOL0     C69557  12.100   8.014   3.120  0.0513  0.7786  0.8950
  516MOL0     C69558  12.226   8.074   3.151  0.2246 -0.3753  0.2496
  516MOL0     C69559  12.276   8.187   3.084  0.1546 -0.2474 -0.4894
  516MOL0     O69560  12.394   8.247   3.116  0.0186  0.3134  0.6191
  516MOL0     C69561  12.485   8.177   3.202 -0.0643  0.2252 -0.5475
  516MOL0     C69562  12.621   8.233   3.189 -0.0520 -0.5859 -0.7356
  516MOL0     C69563  12.639   8.368   3.267 -0.0397  0.8196  0.3360
  516MOL0     C69564  12.577   8.365   3.403 -0.2361  0.1623 -0.6957
  516MOL0     C69565  12.595   8.499   3.478 -0.1029  0.2755  0.2696
  516MOL0     C69566  12.472   8.567   3.546  0.1042  0.2153  0.1476
  516MOL0     C69567  12.438   8.486   3.680 -0.0279 -0.3750  0.1348
  516MOL0     C69568  12.301   8.538   3.736 -0.0161  0.2344  0.5202
  516MOL0    Cl69569  12.257   8.472   3.893 -0.0958  0.2679 -0.1009
  516MOL0     C69570  12.197   8.244   2.984 -0.0853 -0.5790 -0.1786
  516MOL0     C69571  12.067   8.202   2.961  0.1897 -0.0715 -0.6323
  516MOL0     O69572  11.953   7.956   2.815 -0.1863 -1.1322 -0.0581
  516MOL0     C69573  11.702   7.864   2.730 -0.3647 -0.2733 -0.4858
  516MOL0     C69574  11.578   7.824   2.687  0.9005  0.8602 -0.0090
  516MOL0     N69575  10.672   7.911   2.842  0.7277  1.1617  0.0383
  516MOL0     N69576  10.560   7.873   2.884 -0.8451 -0.0909  0.0766
  516MOL0     C69577   9.289   7.466   3.062  0.1561  0.1047  0.6378
  516MOL0     C69578   9.148   7.471   3.074 -0.4667  0.0421  0.6793
  516MOL0     C69579   8.742   7.626   3.127 -0.0014 -0.1658 -0.9579
  516MOL0     C69580   8.696   7.503   3.093  0.9488  0.1717 -0.2587
  516MOL0     C69581   8.562   7.467   3.086  0.9759  0.0024 -0.0291
  516MOL0     C69582   8.472   7.563   3.129  0.1494  0.2900 -0.0747
  516MOL0     O69583   8.337   7.541   3.118 -0.3897 -0.1405  0.4712
  516MOL0     C69584   8.309   7.450   3.223 -0.2561  0.3754  0.6889
  516MOL0     C69585   8.164   7.449   3.227 -0.7994 -0.2138 -0.0042
  516MOL0     C69586   8.102   7.573   3.305  0.2207  0.3701  0.2550
  516MOL0     C69587   7.963   7.552   3.362  0.0891 -0.1555 -0.5385
  516MOL0     C69588   7.866   7.566   3.257  0.3584 -0.5352 -0.2752
  516MOL0     C69589   7.787   7.554   3.168 -0.9684 -0.1202  0.6176
  516MOL0     C69590   8.514   7.679   3.180 -0.1792 -0.1514 -0.2630
  516MOL0     C69591   8.648   7.721   3.176 -0.1374  0.1777  0.4059
  516MOL0     C69592   8.682   7.864   3.215  0.4998  0.8592  0.7468
  516MOL0     H69593   9.086   7.729   2.858 -0.5348 -0.1952  0.1115
  516MOL0     H69594   9.321   7.728   2.841  1.2100 -1.0926  0.3852
  516MOL0     H69595   9.565   7.655   2.827 -0.8936 -1.9721  0.5761
  516MOL0     H69596   9.520   7.742   2.981  0.1225  0.5214  0.1337
  516MOL0     H69597   9.728   7.513   2.961 -2.1028  2.0788 -5.4189
  516MOL0     H69598   9.684   7.618   3.098 -0.7791  1.3253  1.1902
  516MOL0     H69599   9.781   7.810   2.978  5.1850  1.6839  0.0445
  516MOL0     H69600   9.805   7.711   2.840  1.8910 -3.2988 -1.1181
  516MOL0     H69601   9.955   7.663   3.105 -0.2752 -0.9693 -0.1753
  516MOL0     H69602   9.958   7.555   2.961  1.7699  0.1924  0.1797
  516MOL0     H69603  10.050   7.765   2.827  2.9178  1.4998 -0.1510
  516MOL0     H69604  10.081   7.836   2.988  0.6311  0.9546 -0.8268
  516MOL0     H69605  10.211   7.629   3.053  1.4473  3.6784  0.1917
  516MOL0     H69606  10.196   7.564   2.886  0.5197  0.6073 -0.5244
  516MOL0     H69607  10.328   7.830   2.944  0.6454 -0.0802 -0.2675
  516MOL0     H69608  10.292   7.761   2.793 -0.1509  4.2754  1.1668
  516MOL0     H69609  10.460   7.604   2.998  2.4559  2.0931  0.1253
  516MOL0     H69610  10.422   7.561   2.835 -1.8447  0.8999  0.4193
  516MOL0     H69611  10.687   7.602   2.742  2.1351  1.0815 -0.1132
  516MOL0     H69612  10.856   7.713   2.640 -1.5391  0.7011 -2.1439
  516MOL0     H69613  10.831   7.887   2.613  0.1022  1.3079  1.8480
  516MOL0     H69614  10.956   7.933   2.824  1.6941  0.0106  1.1641
  516MOL0     H69615  10.971   7.768   2.870  2.1069  1.4756  1.2241
  516MOL0     H69616  11.113   7.877   2.630 -0.9077 -1.2619 -0.8508
  516MOL0     H69617  11.091   7.706   2.663 -1.8102  0.3224 -0.6823
  516MOL0     H69618  11.205   7.721   2.874 -1.5280  1.1433  0.4607
  516MOL0     H69619  11.213   7.897   2.870 -0.9110  0.5894 -0.1097
  516MOL0     H69620  11.411   7.920   2.973  0.6944  0.0568 -0.4008
  516MOL0     H69621  11.634   7.999   3.033  0.0788  0.4893  0.4244
  516MOL0     H69622  12.057   7.923   3.162  0.8909 -0.6290 -1.1519
  516MOL0     H69623  12.283   8.024   3.229  1.1889 -0.4408 -0.4890
  516MOL0     H69624  12.458   8.164   3.307  2.4802 -1.3062 -0.0062
  516MOL0     H69625  12.500   8.073   3.173 -1.1688 -0.0062 -0.3422
  516MOL0     H69626  12.691   8.153   3.212 -1.0191 -0.7188  2.0541
  516MOL0     H69627  12.643   8.268   3.087  0.5445  0.9521 -0.1078
  516MOL0     H69628  12.745   8.396   3.274  0.5334 -1.4149  1.6243
  516MOL0     H69629  12.587   8.442   3.206  0.7252 -0.3347 -1.8414
  516MOL0     H69630  12.620   8.290   3.469 -1.3798  0.6554  0.6570
  516MOL0     H69631  12.470   8.351   3.389 -0.2827  1.4540 -1.8973
  516MOL0     H69632  12.622   8.570   3.398  1.0364 -0.5447 -0.0939
  516MOL0     H69633  12.682   8.489   3.543 -0.2035 -1.2423  0.1923
  516MOL0     H69634  12.493   8.669   3.579  2.2375  0.5153 -1.8963
  516MOL0     H69635  12.388   8.577   3.476 -0.4874 -0.4821  0.7401
  516MOL0     H69636  12.516   8.512   3.752  0.9880  0.2280 -1.1396
  516MOL0     H69637  12.427   8.378   3.673 -0.9963 -0.3501  1.0765
  516MOL0     H69638  12.302   8.648   3.736 -0.1905  0.2400  0.0208
  516MOL0     H69639  12.223   8.497   3.671  1.1016 -1.6768  0.3325
  516MOL0     H69640  12.233   8.334   2.935 -1.0073  1.1764  2.1797
  516MOL0     H69641  12.009   8.258   2.888  0.1734  2.4966  1.2177
  516MOL0     H69642  11.785   7.856   2.661 -1.0730  0.7173 -1.4864
  516MOL0     H69643  11.570   7.768   2.594 -0.9218 -1.5742  1.4731
  516MOL0     H69644   9.354   7.409   3.127 -0.6457  0.3196  1.6546
  516MOL0     H69645   9.090   7.412   3.144 -1.4768 -0.8811 -0.8741
  516MOL0     H69646   8.760   7.428   3.047  1.4007  1.6273 -2.1625
  516MOL0     H69647   8.530   7.371   3.048  0.0073  0.0529  0.6123
  516MOL0     H69648   8.357   7.480   3.316  2.2228 -0.2402 -0.3193
  516MOL0     H69649   8.337   7.348   3.195 -1.4374  0.5095 -1.2347
  516MOL0     H69650   8.139   7.354   3.274 -1.3148 -1.1627 -2.0753
  516MOL0     H69651   8.128   7.432   3.125  1.2915 -1.5109 -0.5872
  516MOL0     H69652   8.100   7.660   3.239 -2.2414 -0.3638 -0.7474
  516MOL0     H69653   8.155   7.594   3.398 -2.1245 -0.9303  1.9938
  516MOL0     H69654   7.959   7.456   3.414 -2.6159  1.0196  1.6790
  516MOL0     H69655   7.941   7.629   3.436 -1.8377 -1.8550  0.7414
  516MOL0     H69656   7.721   7.551   3.084  0.0016 -2.5295 -0.1375
  516MOL0     H69657   8.431   7.743   3.207 -2.5439 -3.0658 -0.0310
  516MOL0     H69658   8.717   7.919   3.128  0.4059 -0.9066 -0.4459
  516MOL0     H69659   8.594   7.913   3.259  0.3885 -0.7669  2.4794
  516MOL0     H69660   8.768   7.867   3.283  2.5269 -0.4092 -1.6212
  517MOL0     O69661   4.843   6.514   9.694 -0.0658  0.3897  0.0312
  517MOL0     C69662   4.776   6.466   9.788 -0.4406 -0.3224  0.8241
  517MOL0     O69663   4.829   6.421   9.903  0.4558 -0.8004 -0.4194
  517MOL0     C69664   4.962   6.448   9.918 -0.1327  0.6971 -0.2384
  517MOL0     C69665   5.060   6.354   9.877  0.4170  0.2484 -0.1029
  517MOL0     C69666   5.196   6.365   9.911  0.5644 -0.1386 -0.1390
  517MOL0     C69667   5.247   6.470   9.989 -0.7094  0.9290 -0.1340
  517MOL0     O69668   5.384   6.490  10.017  0.2242 -0.0670  0.1212
  517MOL0     C69669   5.500   6.422   9.971 -0.6945 -0.4759  0.4649
  517MOL0     C69670   5.613   6.529   9.940  0.0800 -0.0272  0.6653
  517MOL0     C69671   5.747   6.462   9.887 -0.7829  0.9056  0.3283
  517MOL0     C69672   5.836   6.423  10.005  0.0542 -0.0526 -0.1876
  517MOL0     C69673   5.963   6.347   9.965 -0.5954 -0.2599 -0.1581
  517MOL0     C69674   6.093   6.432   9.969 -0.6373  0.2559  0.2006
  517MOL0     C69675   6.211   6.369   9.898  0.3593  0.2465  0.0921
  517MOL0     C69676   6.328   6.469   9.878  0.2780  0.2685  0.6974
  517MOL0     N69677   6.462   6.428   9.837 -0.2557 -0.4415 -0.4935
  517MOL0     C69678   6.537   6.488   9.736  0.6067 -0.4973  0.2197
  517MOL0     C69679   6.656   6.420   9.719  0.1262  0.0116 -0.7670
  517MOL0     C69680   6.775   6.452   9.642  0.6790 -0.2398  0.6237
  517MOL0     C69681   6.793   6.351   9.520  0.3815 -0.2833 -0.5160
  517MOL0     C69682   6.928   6.368   9.449 -0.4777  0.8467  0.0002
  517MOL0     C69683   6.930   6.263   9.335  0.2379 -0.0941 -0.1802
  517MOL0     O69684   7.031   6.300   9.237 -0.4176 -0.6442 -0.8777
  517MOL0     C69685   7.162   6.295   9.266 -0.3092 -0.4503  0.2531
  517MOL0     C69686   7.224   6.225   9.374 -0.2229  0.5636  0.5222
  517MOL0     C69687   7.363   6.227   9.379 -0.6862 -0.6945  0.5871
  517MOL0     C69688   7.442   6.293   9.291 -0.5897 -0.0979  1.1266
  517MOL0     C69689   7.587   6.282   9.297 -0.8982 -0.6091 -0.4876
  517MOL0     O69690   7.656   6.369   9.214  0.2852 -0.1656  0.3069
  517MOL0     C69691   7.796   6.355   9.199  0.1871 -0.1267 -0.6428
  517MOL0     C69692   7.882   6.370   9.313  0.4971  0.7733  0.5585
  517MOL0     C69693   8.022   6.391   9.285  0.3515 -0.6601 -0.4908
  517MOL0     C69694   8.077   6.394   9.162  0.2933  0.8180  0.5773
  517MOL0     O69695   8.212   6.407   9.152  0.6313  0.1095  0.4254
  517MOL0     C69696   8.271   6.316   9.059 -0.8321  0.3939  0.3313
  517MOL0     C69697   8.425   6.309   9.076  0.5878  0.5983  0.9877
  517MOL0     C69698   8.500   6.241   8.959  0.4701  0.1791 -0.4081
  517MOL0     C69699   8.653   6.265   8.990 -0.0451  0.1756  0.4970
  517MOL0     C69700   8.750   6.226   8.874  0.8673  0.1179 -0.7053
  517MOL0     C69701   8.717   6.089   8.816  0.4973  0.1383 -0.5587
  517MOL0     C69702   8.791   6.060   8.687 -0.1559 -1.1071  0.4161
  517MOL0     C69703   8.940   6.045   8.722  0.7938 -1.1355  0.8716
  517MOL0    Cl69704   8.984   5.896   8.803  0.0915  0.1223 -0.1646
  517MOL0     C69705   7.992   6.368   9.052 -0.2337 -0.8727  0.3661
  517MOL0     C69706   7.851   6.353   9.072 -0.0485  0.4998 -0.1321
  517MOL0     O69707   7.636   6.194   9.370  0.5074 -0.0055  0.3977
  517MOL0     C69708   7.377   6.375   9.193  0.0172  0.5736  1.0484
  517MOL0     C69709   7.246   6.378   9.177  0.5069  0.3209 -0.3718
  517MOL0     N69710   6.659   6.320   9.818  0.1990 -0.3274  0.3175
  517MOL0     N69711   6.543   6.332   9.885  1.3798  0.4512 -0.2443
  517MOL0     C69712   5.155   6.561  10.030  0.9057  0.0545  0.7064
  517MOL0     C69713   5.017   6.549  10.002  0.3648  0.2005  0.5673
  517MOL0     C69714   4.631   6.470   9.779  0.7525  1.1912  0.2940
  517MOL0     C69715   4.574   6.450   9.652  0.0314 -0.0376  0.5018
  517MOL0     C69716   4.433   6.461   9.639 -0.6346  0.0087  0.1896
  517MOL0     C69717   4.354   6.472   9.747  0.7130  0.1239  0.3241
  517MOL0     O69718   4.222   6.471   9.719 -0.2596 -0.4255  0.5732
  517MOL0     C69719   4.140   6.574   9.774  1.3667  0.0723  0.8329
  517MOL0     C69720   3.995   6.518   9.785  0.4368 -0.5777  0.7443
  517MOL0     C69721   3.888   6.609   9.842 -1.3269  0.1944 -0.5120
  517MOL0     C69722   3.896   6.650   9.991  0.2239 -0.1902 -0.2993
  517MOL0     C69723   3.989   6.760  10.029  0.5265  0.0549 -0.7311
  517MOL0     C69724   4.069   6.840  10.071  0.0038  0.2350  0.4264
  517MOL0     C69725   4.407   6.496   9.870  0.7628  0.3192 -0.0934
  517MOL0     C69726   4.541   6.497   9.884 -0.7503 -0.3953 -0.0072
  517MOL0     C69727   4.590   6.537  10.022  0.1268  0.2325 -0.0568
  517MOL0     H69728   5.025   6.275   9.811 -0.2629  0.3136  0.1749
  517MOL0     H69729   5.264   6.285   9.882 -0.0812 -1.3951  1.6491
  517MOL0     H69730   5.537   6.352  10.047 -1.5105 -0.1722  1.1542
  517MOL0     H69731   5.463   6.375   9.880  1.3590 -1.1657 -0.0600
  517MOL0     H69732   5.648   6.583  10.028 -1.6381  1.2440  0.6051
  517MOL0     H69733   5.579   6.608   9.873 -1.8694 -1.2931  0.0963
  517MOL0     H69734   5.791   6.537   9.820  1.6671 -0.9080 -0.2333
  517MOL0     H69735   5.719   6.378   9.823 -2.8869  2.6350 -1.2154
  517MOL0     H69736   5.870   6.511  10.061  2.7824 -1.2861  0.2680
  517MOL0     H69737   5.774   6.353  10.061  0.3538 -1.1247 -1.1569
  517MOL0     H69738   5.963   6.265  10.037  1.5008 -1.0292 -0.9586
  517MOL0     H69739   5.950   6.312   9.863  0.2053  0.5874 -0.5733
  517MOL0     H69740   6.066   6.528   9.923 -1.4161  0.2244  0.5562
  517MOL0     H69741   6.125   6.458  10.070 -0.2682 -1.2791  0.5011
  517MOL0     H69742   6.178   6.324   9.804 -2.4280 -3.9613  2.7350
  517MOL0     H69743   6.239   6.279   9.954  0.3778 -0.7206 -1.4024
  517MOL0     H69744   6.286   6.544   9.810 -2.3884  0.5034  2.4321
  517MOL0     H69745   6.342   6.523   9.972 -0.3647 -0.9688  1.5376
  517MOL0     H69746   6.512   6.558   9.658  2.9278  0.2597  0.0987
  517MOL0     H69747   6.752   6.546   9.592 -3.0997  0.1944  2.8530
  517MOL0     H69748   6.870   6.456   9.697  2.0782 -2.9833 -1.2988
  517MOL0     H69749   6.772   6.249   9.554 -0.5500  0.3805  1.0448
  517MOL0     H69750   6.722   6.390   9.446  0.4205 -1.4919 -1.2176
  517MOL0     H69751   7.009   6.350   9.521 -1.3643  0.0886  0.8463
  517MOL0     H69752   6.932   6.472   9.417  2.3853  1.1276  1.0187
  517MOL0     H69753   6.833   6.270   9.284  0.2239 -0.8005 -0.2634
  517MOL0     H69754   6.936   6.162   9.378  1.3664  0.5725  1.3089
  517MOL0     H69755   7.175   6.152   9.438  2.2301 -1.9210 -0.2354
  517MOL0     H69756   7.405   6.176   9.465  1.1582 -0.2412  0.0015
  517MOL0     H69757   7.845   6.362   9.415  2.0015 -1.7311  0.9979
  517MOL0     H69758   8.092   6.410   9.366 -0.3829 -0.4420  0.1070
  517MOL0     H69759   8.229   6.215   9.060 -2.2464  0.9566  2.0461
  517MOL0     H69760   8.252   6.354   8.958  0.7408 -0.0791 -0.1756
  517MOL0     H69761   8.473   6.407   9.079  0.7636  0.4982  1.4422
  517MOL0     H69762   8.439   6.251   9.167 -0.5552 -2.6350 -0.7054
  517MOL0     H69763   8.477   6.135   8.972 -0.1947  0.5213  1.6111
  517MOL0     H69764   8.459   6.282   8.866  1.6662  0.0302 -1.0187
  517MOL0     H69765   8.676   6.210   9.081  2.1779  0.1110 -0.0570
  517MOL0     H69766   8.672   6.371   9.006  1.7528 -0.3675  2.2464
  517MOL0     H69767   8.852   6.225   8.915  0.7628  0.1773 -0.4397
  517MOL0     H69768   8.731   6.307   8.803 -3.4717 -0.7229 -0.7430
  517MOL0     H69769   8.740   6.011   8.889 -1.9896  1.5829  1.9649
  517MOL0     H69770   8.608   6.080   8.804 -0.3056  3.8938  2.0511
  517MOL0     H69771   8.781   6.136   8.608 -0.0802 -1.4663  0.0601
  517MOL0     H69772   8.759   5.963   8.648 -0.3560 -2.3634  3.4933
  517MOL0     H69773   9.005   6.037   8.635  3.9330 -2.8750  3.1744
  517MOL0     H69774   8.975   6.125   8.788  0.6923 -1.4915  1.3649
  517MOL0     H69775   8.023   6.371   8.948 -1.4448 -0.1258  0.0015
  517MOL0     H69776   7.774   6.336   8.997 -0.9488 -0.8133  1.0432
  517MOL0     H69777   7.443   6.417   9.117 -1.2533 -0.2876 -0.5977
  517MOL0     H69778   7.199   6.439   9.101 -0.6886 -0.3768 -0.2183
  517MOL0     H69779   5.173   6.643  10.099 -1.1937  1.1728  0.0295
  517MOL0     H69780   4.940   6.613  10.044 -0.9285  0.1412 -1.5870
  517MOL0     H69781   4.642   6.433   9.570 -0.9171 -1.0790 -0.0956
  517MOL0     H69782   4.381   6.438   9.546 -1.5092  1.4386  0.2958
  517MOL0     H69783   4.139   6.656   9.701  1.4968  0.7287  1.5605
  517MOL0     H69784   4.166   6.608   9.875  0.7504 -2.3049  1.8516
  517MOL0     H69785   4.002   6.430   9.850 -0.7371  0.1970  1.9913
  517MOL0     H69786   3.958   6.486   9.687 -1.6925 -1.4668  1.7510
  517MOL0     H69787   3.786   6.589   9.808 -1.8259  0.6541  0.6505
  517MOL0     H69788   3.914   6.700   9.787 -2.0305  1.2235  0.7986
  517MOL0     H69789   3.796   6.683  10.021  0.3059 -1.9148  2.1496
  517MOL0     H69790   3.906   6.561  10.054 -1.8759  0.1926  0.7057
  517MOL0     H69791   4.140   6.901  10.123 -0.8392  1.0560  0.6469
  517MOL0     H69792   4.337   6.529   9.945 -2.8383 -2.2975 -2.0182
  517MOL0     H69793   4.513   6.593  10.077  1.2582  2.1955 -0.3736
  517MOL0     H69794   4.620   6.446  10.075  3.2830  0.5712 -1.1014
  517MOL0     H69795   4.676   6.604  10.013 -0.9312  2.0017  2.0683
  518MOL0     O69796   1.675   5.019  11.293 -0.0004  0.2203 -0.0206
  518MOL0     C69797   1.578   5.013  11.213  0.5107  0.1138  0.0836
  518MOL0     O69798   1.588   4.973  11.084  0.4938 -0.1637  0.2673
  518MOL0     C69799   1.707   4.966  11.026 -0.5007  1.3582 -0.2201
  518MOL0     C69800   1.768   5.069  10.964  0.7312 -0.2705 -0.0255
  518MOL0     C69801   1.889   5.065  10.895  1.2235 -0.3502 -0.2887
  518MOL0     C69802   1.957   4.944  10.878 -0.1724  0.7952 -0.1044
  518MOL0     O69803   2.066   4.917  10.799 -0.2254 -0.2551 -0.5278
  518MOL0     C69804   2.192   4.956  10.850  0.3995  0.2662 -0.4210
  518MOL0     C69805   2.302   4.891  10.771 -0.5517  0.4263  0.0933
  518MOL0     C69806   2.282   4.737  10.749  0.4328 -0.9424 -0.0799
  518MOL0     C69807   2.365   4.685  10.633  0.0635  0.1474 -0.5216
  518MOL0     C69808   2.522   4.708  10.640  0.5735 -0.0201  0.3232
  518MOL0     C69809   2.578   4.631  10.516 -0.6059  0.2975  0.4524
  518MOL0     C69810   2.733   4.626  10.519 -0.0465 -0.5933  0.1427
  518MOL0     C69811   2.802   4.762  10.528 -0.0129 -0.6184  0.2266
  518MOL0     N69812   2.943   4.736  10.507 -0.0828 -0.3737  0.5608
  518MOL0     C69813   3.000   4.707  10.382  0.3161  0.9078  0.6632
  518MOL0     C69814   3.130   4.703  10.399 -0.0864  0.5446  0.2117
  518MOL0     C69815   3.244   4.675  10.300  0.1639  0.1233  0.0262
  518MOL0     C69816   3.252   4.763  10.177 -0.6054  0.2808  0.3553
  518MOL0     C69817   3.303   4.904  10.201 -0.1160  0.1974  0.3204
  518MOL0     C69818   3.457   4.912  10.221  0.3711 -0.4566  0.5381
  518MOL0     O69819   3.498   5.047  10.242  0.4478 -0.0112  0.0720
  518MOL0     C69820   3.609   5.070  10.328  0.6343 -0.3633 -0.7137
  518MOL0     C69821   3.710   4.981  10.361 -1.0134 -0.0494  0.4214
  518MOL0     C69822   3.809   5.017  10.454 -0.9297  0.1957  0.1245
  518MOL0     C69823   3.818   5.150  10.498 -0.7028 -0.8283 -0.2033
  518MOL0     C69824   3.927   5.192  10.591  0.5997 -0.9028  0.6538
  518MOL0     O69825   3.991   5.085  10.656 -0.8744 -0.0870  0.4425
  518MOL0     C69826   4.095   5.099  10.746 -0.1160 -0.4881  0.0516
  518MOL0     C69827   4.220   5.048  10.728 -0.2122  0.6311  0.0872
  518MOL0     C69828   4.314   5.047  10.834  0.1588  0.0420  0.4243
  518MOL0     C69829   4.287   5.098  10.958 -0.0668  0.0272  0.4519
  518MOL0     O69830   4.372   5.096  11.065 -0.3207 -0.4955  0.5351
  518MOL0     C69831   4.504   5.047  11.040 -0.1598  0.4665 -1.0192
  518MOL0     C69832   4.593   5.065  11.167 -0.9540 -0.5534  0.5300
  518MOL0     C69833   4.739   5.034  11.147 -0.0936 -0.0091 -0.1805
  518MOL0     C69834   4.812   5.099  11.257  0.0622  0.1190  0.0224
  518MOL0     C69835   4.948   5.043  11.285  0.4113 -0.0407 -0.3439
  518MOL0     C69836   5.003   5.096  11.423  0.5745 -0.4481  0.4653
  518MOL0     C69837   5.140   5.037  11.440  0.3497 -0.4856  0.2515
  518MOL0     C69838   5.204   5.083  11.574  0.6620  0.0080 -0.8229
  518MOL0    Cl69839   5.367   5.020  11.604  0.4022 -0.0642  0.0865
  518MOL0     C69840   4.158   5.148  10.982  0.0967 -0.4397  0.6317
  518MOL0     C69841   4.063   5.146  10.878  0.0906 -0.1414  0.3765
  518MOL0     O69842   3.957   5.304  10.602  0.0567 -0.8427 -0.5454
  518MOL0     C69843   3.723   5.243  10.455 -0.1979 -0.4437  0.2331
  518MOL0     C69844   3.622   5.202  10.374 -0.0265 -0.9942 -0.2257
  518MOL0     N69845   3.147   4.731  10.531  0.2713  0.0549  0.1277
  518MOL0     N69846   3.042   4.755  10.601 -0.3833 -0.1661  0.2499
  518MOL0     C69847   1.895   4.835  10.944  0.4063  0.2229 -0.1685
  518MOL0     C69848   1.768   4.845  11.013 -0.4201  0.7268  0.1520
  518MOL0     C69849   1.441   5.076  11.246  0.2431 -0.8177  0.8990
  518MOL0     C69850   1.363   5.120  11.127  0.2045 -0.3165  0.3537
  518MOL0     C69851   1.243   5.179  11.149  0.7295  0.6474 -0.2543
  518MOL0     C69852   1.185   5.209  11.266 -0.0553  1.0946 -0.8589
  518MOL0     O69853   1.065   5.277  11.257  0.0247  0.2337 -0.2031
  518MOL0     C69854   1.006   5.335  11.375 -0.3706 -0.6482 -0.1160
  518MOL0     C69855   0.866   5.395  11.353  0.3585  0.7152  0.0345
  518MOL0     C69856   0.754   5.280  11.329 -0.6342 -0.1575 -0.1239
  518MOL0     C69857   0.663   5.288  11.203 -0.0583  0.0450 -0.7127
  518MOL0     C69858   0.739   5.260  11.073 -0.0895  0.1027 -0.3660
  518MOL0     C69859   0.806   5.220  10.975  0.8420 -0.1639  0.3259
  518MOL0     C69860   1.258   5.171  11.384  0.0328  0.8032  0.4441
  518MOL0     C69861   1.386   5.106  11.375 -0.2584 -0.4430 -0.0869
  518MOL0     C69862   1.453   5.061  11.505 -0.0085  0.3823 -0.3880
  518MOL0     H69863   1.727   5.169  10.959  0.3804 -0.4836 -1.6336
  518MOL0     H69864   1.915   5.157  10.842 -1.9131  3.6344  4.1687
  518MOL0     H69865   2.188   5.065  10.860 -0.6218  0.2983 -0.9733
  518MOL0     H69866   2.205   4.924  10.953 -0.0834  3.5209  0.7755
  518MOL0     H69867   2.392   4.900  10.832  0.0839  0.0314 -0.7649
  518MOL0     H69868   2.325   4.937  10.675  0.4496  0.3818  0.2932
  518MOL0     H69869   2.175   4.719  10.739 -0.4642  3.6633 -1.0062
  518MOL0     H69870   2.314   4.692  10.844  3.1901  1.9680  0.5203
  518MOL0     H69871   2.340   4.578  10.633  0.0643  0.1186  1.1657
  518MOL0     H69872   2.328   4.746  10.550  0.8768  1.2102 -0.1163
  518MOL0     H69873   2.539   4.816  10.638 -2.6729  0.5869 -0.0041
  518MOL0     H69874   2.553   4.657  10.732 -0.5047  0.8492  1.2064
  518MOL0     H69875   2.544   4.528  10.529 -1.9448  0.9209  2.2023
  518MOL0     H69876   2.546   4.679  10.423  2.2098  3.6752  1.0258
  518MOL0     H69877   2.766   4.563  10.436  2.0709 -0.3315  0.7487
  518MOL0     H69878   2.766   4.571  10.607  0.2648 -1.0599 -0.2597
  518MOL0     H69879   2.753   4.831  10.459 -1.0732 -1.6818 -0.1071
  518MOL0     H69880   2.794   4.801  10.630 -0.0932 -1.3348  0.5023
  518MOL0     H69881   2.937   4.682  10.297 -1.6065 -0.6903  2.4356
  518MOL0     H69882   3.343   4.681  10.345  0.0493  1.1691  0.1583
  518MOL0     H69883   3.236   4.575  10.257  1.7450 -0.1171  0.2242
  518MOL0     H69884   3.321   4.714  10.107 -0.0717  3.5517 -1.5763
  518MOL0     H69885   3.154   4.757  10.129 -0.8966  0.0816  0.9675
  518MOL0     H69886   3.254   4.955  10.285  0.4404  1.2693 -0.0000
  518MOL0     H69887   3.282   4.963  10.112  0.3500 -0.8515 -0.5040
  518MOL0     H69888   3.516   4.874  10.137  0.0818 -1.7513  0.8957
  518MOL0     H69889   3.482   4.849  10.307  2.6602  1.0155  1.0348
  518MOL0     H69890   3.721   4.879  10.327  1.7092 -0.0469  1.0611
  518MOL0     H69891   3.884   4.943  10.482  0.1635  1.7620  1.5402
  518MOL0     H69892   4.239   5.020  10.625 -0.1339  1.4385 -0.1262
  518MOL0     H69893   4.414   5.015  10.806  0.0978  0.7836 -0.6786
  518MOL0     H69894   4.505   4.939  11.026  3.4149  0.2398  0.0460
  518MOL0     H69895   4.550   5.097  10.954  3.0107  1.4119  1.0486
  518MOL0     H69896   4.582   5.168  11.204  0.0273 -0.8471  1.7215
  518MOL0     H69897   4.555   4.994  11.240 -0.4711 -2.5515 -1.0776
  518MOL0     H69898   4.756   4.926  11.147 -0.4606 -0.0691  0.2881
  518MOL0     H69899   4.765   5.062  11.045  0.9001 -1.2154 -0.2809
  518MOL0     H69900   4.762   5.081  11.352  0.2070 -2.3282 -0.2805
  518MOL0     H69901   4.815   5.206  11.238 -3.4140  0.2643 -0.3373
  518MOL0     H69902   5.014   5.065  11.200 -0.1927  2.5954 -0.2078
  518MOL0     H69903   4.943   4.935  11.298  2.2420 -0.0977  0.2707
  518MOL0     H69904   4.999   5.205  11.418 -1.8232 -0.5220 -0.2655
  518MOL0     H69905   4.943   5.068  11.511  2.8468  0.5089  2.4398
  518MOL0     H69906   5.205   5.064  11.357 -0.3405 -1.4111 -0.6211
  518MOL0     H69907   5.134   4.928  11.442  2.3830 -0.6487 -0.7550
  518MOL0     H69908   5.201   5.192  11.581  1.4685  0.1534 -2.3081
  518MOL0     H69909   5.148   5.036  11.655 -2.3143 -0.9336 -3.2197
  518MOL0     H69910   4.119   5.184  11.077 -0.2947  0.2843  0.2123
  518MOL0     H69911   3.967   5.193  10.898  1.8098  3.6406  0.6061
  518MOL0     H69912   3.730   5.345  10.491  0.6152 -1.4247  3.1363
  518MOL0     H69913   3.546   5.276  10.348  1.6797  0.5034 -1.1591
  518MOL0     H69914   1.943   4.737  10.945 -0.2547 -0.1357 -1.5132
  518MOL0     H69915   1.727   4.757  11.062  0.6629 -2.1167 -3.5948
  518MOL0     H69916   1.409   5.126  11.028 -1.4580 -0.7749 -0.4716
  518MOL0     H69917   1.190   5.197  11.056 -0.4863 -1.2613  0.0032
  518MOL0     H69918   1.063   5.422  11.408 -0.0747 -0.6381 -0.6437
  518MOL0     H69919   1.001   5.256  11.451 -0.5842  0.0624  0.6155
  518MOL0     H69920   0.870   5.461  11.266  0.7704  0.8611  0.1655
  518MOL0     H69921   0.839   5.458  11.438 -1.2526  1.0663 -0.6937
  518MOL0     H69922   0.679   5.287  11.409 -3.4041 -2.9477 -2.2322
  518MOL0     H69923   0.786   5.176  11.335  0.9999  0.2022 -1.8329
  518MOL0     H69924   0.587   5.210  11.214  2.2597 -2.1592  0.4756
  518MOL0     H69925   0.615   5.385  11.189  1.1844  0.6454 -0.9409
  518MOL0     H69926   0.850   5.201  10.880  0.4905 -2.3236  0.5568
  518MOL0     H69927   1.217   5.177  11.484  1.5713 -2.1304  1.3463
  518MOL0     H69928   1.548   5.115  11.511 -0.2299  0.7193  0.1442
  518MOL0     H69929   1.396   5.077  11.597  0.2343  1.1045 -0.3555
  518MOL0     H69930   1.479   4.957  11.485  0.9174  0.5995 -0.3630
  519MOL0     O69931   6.233   3.713   7.646 -0.0392  0.2684  0.5240
  519MOL0     C69932   6.144   3.713   7.727  0.3789  0.3076 -0.6837
  519MOL0     O69933   6.135   3.622   7.825 -0.2708 -0.0531  0.1462
  519MOL0     C69934   6.234   3.523   7.823  1.0321 -0.8238 -0.3744
  519MOL0     C69935   6.207   3.411   7.756  0.5984  0.7235  0.1104
  519MOL0     C69936   6.307   3.302   7.765  0.3254  0.2079  1.0070
  519MOL0     C69937   6.427   3.312   7.845  0.5885  0.3835 -0.1869
  519MOL0     O69938   6.528   3.217   7.861  0.0584  0.0728  0.2374
  519MOL0     C69939   6.515   3.084   7.805 -0.4574  0.3706 -0.0489
  519MOL0     C69940   6.649   3.004   7.812  0.0160  0.3168  0.2378
  519MOL0     C69941   6.738   3.028   7.686 -0.6443  1.3259  0.0655
  519MOL0     C69942   6.869   2.943   7.709  0.1878 -0.7029  0.5629
  519MOL0     C69943   6.979   3.008   7.622 -0.2358  0.1251  0.9968
  519MOL0     C69944   7.114   2.950   7.655  0.0250  0.7307 -0.5018
  519MOL0     C69945   7.223   3.031   7.586 -0.4402  0.3177 -0.1443
  519MOL0     C69946   7.363   2.968   7.613  0.7705 -0.1884 -0.0959
  519MOL0     N69947   7.457   3.063   7.546 -0.3391  0.6689 -0.1901
  519MOL0     C69948   7.517   3.159   7.624 -0.4837  0.6468 -0.0529
  519MOL0     C69949   7.598   3.218   7.538 -0.8519  0.6858  0.3485
  519MOL0     C69950   7.684   3.335   7.568 -0.4852  0.5258  0.5917
  519MOL0     C69951   7.831   3.302   7.550 -0.0692 -0.2542 -0.1584
  519MOL0     C69952   7.880   3.352   7.409  0.3313 -0.1087 -0.5510
  519MOL0     C69953   8.032   3.338   7.388  0.2143 -0.0921  0.2454
  519MOL0     O69954   8.102   3.445   7.463  0.1034  0.9163 -0.1631
  519MOL0     C69955   8.238   3.445   7.464 -0.4586  0.1767 -0.0206
  519MOL0     C69956   8.314   3.373   7.374  0.1039 -0.2086 -0.4256
  519MOL0     C69957   8.453   3.372   7.387  0.2883 -0.3988  0.2501
  519MOL0     C69958   8.518   3.449   7.490  0.2192 -0.0766  0.5341
  519MOL0     C69959   8.661   3.447   7.521 -0.7088  0.1236 -0.0192
  519MOL0     O69960   8.708   3.545   7.608  0.0374  0.2778 -0.1467
  519MOL0     C69961   8.847   3.535   7.638 -0.0364 -0.1048  0.0901
  519MOL0     C69962   8.955   3.552   7.546  1.0999 -1.4271 -0.3310
  519MOL0     C69963   9.088   3.576   7.589 -0.0264 -0.4682  0.4288
  519MOL0     C69964   9.120   3.564   7.725 -0.2392 -1.3857 -0.6028
  519MOL0     O69965   9.247   3.586   7.774 -0.6013  0.0061 -1.0226
  519MOL0     C69966   9.364   3.624   7.704  0.7211  0.0983  0.3995
  519MOL0     C69967   9.490   3.643   7.799  1.0405  0.1265 -1.0908
  519MOL0     C69968   9.604   3.732   7.744  0.9407 -0.2439 -0.3205
  519MOL0     C69969   9.738   3.670   7.769 -0.5913  0.5288 -0.7412
  519MOL0     C69970   9.855   3.777   7.722  0.5481  0.9714  0.0198
  519MOL0     C69971  10.001   3.725   7.752 -0.5963 -0.6996 -0.3697
  519MOL0     C69972  10.045   3.633   7.642  0.4432  0.1594  0.5384
  519MOL0     C69973  10.198   3.615   7.636  0.7225  0.5337  0.2489
  519MOL0    Cl69974  10.278   3.756   7.555 -0.0222  0.5979  0.3724
  519MOL0     C69975   9.014   3.540   7.816  0.0403  0.7483  1.4575
  519MOL0     C69976   8.881   3.517   7.769  0.5418 -0.7461  0.1480
  519MOL0     O69977   8.737   3.372   7.453  0.5183 -0.2915  0.2110
  519MOL0     C69978   8.439   3.534   7.565  0.0230 -0.0434  0.0907
  519MOL0     C69979   8.299   3.529   7.554  0.4944 -0.0798 -0.3489
  519MOL0     N69980   7.597   3.151   7.414 -0.4092  0.1708 -0.3577
  519MOL0     N69981   7.512   3.053   7.421  0.9902  0.2143 -0.4162
  519MOL0     C69982   6.452   3.437   7.917  0.9429  0.6465 -0.5443
  519MOL0     C69983   6.360   3.537   7.896  0.1910 -0.6939  0.3576
  519MOL0     C69984   6.018   3.800   7.708 -0.0853 -0.8163 -0.7648
  519MOL0     C69985   5.896   3.763   7.769 -0.5322 -0.2426 -0.4604
  519MOL0     C69986   5.787   3.847   7.747 -0.7619  0.3259 -0.9276
  519MOL0     C69987   5.798   3.964   7.679 -0.2683  0.0115  0.8589
  519MOL0     O69988   5.700   4.061   7.639  0.1703  0.6305  0.5031
  519MOL0     C69989   5.567   4.043   7.685  0.9210 -0.1704  0.6139
  519MOL0     C69990   5.477   4.174   7.645 -0.3013  0.4223 -0.8050
  519MOL0     C69991   5.470   4.206   7.502 -0.1403  0.4170 -0.2849
  519MOL0     C69992   5.376   4.112   7.426 -0.7808  0.9830  0.2407
  519MOL0     C69993   5.415   4.127   7.283 -0.1917  0.3258 -0.2754
  519MOL0     C69994   5.420   4.137   7.162  1.1229  0.3176 -0.6685
  519MOL0     C69995   5.923   4.010   7.635  0.1944 -0.2749 -0.2895
  519MOL0     C69996   6.036   3.928   7.644  0.6964  0.5802  0.4220
  519MOL0     C69997   6.154   3.966   7.566  0.0081 -0.8360  0.2996
  519MOL0     H69998   6.117   3.418   7.696  1.0219  1.5421 -0.4341
  519MOL0     H69999   6.307   3.217   7.698  0.8502  0.1211  1.1113
  519MOL0     H70000   6.438   3.036   7.865 -0.4691  0.8477  0.3273
  519MOL0     H70001   6.488   3.094   7.699  1.8417  1.1862 -0.6381
  519MOL0     H70002   6.636   2.895   7.814 -1.8518  0.5083  1.7009
  519MOL0     H70003   6.697   3.046   7.901 -1.9871  5.7184 -0.8432
  519MOL0     H70004   6.754   3.136   7.684 -0.1801  1.2676 -2.2673
  519MOL0     H70005   6.695   2.996   7.591 -2.6094 -0.2250  1.4049
  519MOL0     H70006   6.902   2.939   7.813 -0.8194  1.1907  1.0098
  519MOL0     H70007   6.852   2.840   7.677  2.0831 -0.7936 -0.2947
  519MOL0     H70008   6.961   3.014   7.514 -0.5005  2.7803  1.1362
  519MOL0     H70009   6.983   3.112   7.654  0.2516  0.0175  1.2983
  519MOL0     H70010   7.135   2.967   7.761  3.8979  1.4925 -1.2238
  519MOL0     H70011   7.120   2.844   7.628  2.1457  0.2713  1.4292
  519MOL0     H70012   7.230   3.135   7.620  1.1544 -0.1898  1.2006
  519MOL0     H70013   7.206   3.036   7.478 -0.2110 -0.4073 -0.2196
  519MOL0     H70014   7.381   2.953   7.719  2.6653 -4.5543 -0.8080
  519MOL0     H70015   7.356   2.863   7.582  2.4699 -0.2807 -0.2716
  519MOL0     H70016   7.491   3.173   7.728  2.8373 -1.3057  1.1919
  519MOL0     H70017   7.652   3.408   7.492 -1.7295 -0.9448 -0.3592
  519MOL0     H70018   7.667   3.376   7.668  2.7198  0.3294  1.3101
  519MOL0     H70019   7.890   3.355   7.626  1.8163  0.8222 -2.2675
  519MOL0     H70020   7.841   3.194   7.569 -0.5349 -0.3690 -0.5484
  519MOL0     H70021   7.845   3.456   7.401 -2.3005 -0.8848 -0.0223
  519MOL0     H70022   7.826   3.299   7.330  2.1761  0.2377 -2.1140
  519MOL0     H70023   8.058   3.348   7.282 -1.2575 -3.0218 -0.5007
  519MOL0     H70024   8.071   3.242   7.421  3.2914  0.2543 -2.0023
  519MOL0     H70025   8.272   3.319   7.290 -0.4583  0.8827 -0.8659
  519MOL0     H70026   8.512   3.313   7.318 -1.6447  1.0510 -2.8511
  519MOL0     H70027   8.927   3.572   7.444 -0.6275  1.1488  0.5591
  519MOL0     H70028   9.154   3.595   7.505  1.2456 -0.5470  1.3942
  519MOL0     H70029   9.386   3.555   7.622 -0.5056 -0.5825  0.6352
  519MOL0     H70030   9.341   3.714   7.645  1.0133 -1.7496 -2.7611
  519MOL0     H70031   9.451   3.701   7.883  1.2217  1.2563 -1.7637
  519MOL0     H70032   9.521   3.547   7.840  0.9612  0.2563 -0.7192
  519MOL0     H70033   9.586   3.748   7.637  1.0414  0.9645 -0.1636
  519MOL0     H70034   9.604   3.834   7.783 -0.2779  0.1875 -1.3727
  519MOL0     H70035   9.747   3.571   7.722  1.9687 -1.0817  2.7369
  519MOL0     H70036   9.747   3.665   7.878  0.8257 -3.3978 -0.8642
  519MOL0     H70037   9.849   3.876   7.768  0.3656  0.7447  0.4845
  519MOL0     H70038   9.854   3.797   7.614 -0.1444  0.1314 -0.1397
  519MOL0     H70039  10.070   3.809   7.750 -1.6443  0.3128  1.6946
  519MOL0     H70040  10.021   3.694   7.855  0.3889  3.1276  0.7811
  519MOL0     H70041  10.016   3.673   7.545  1.1816  0.2713  0.3584
  519MOL0     H70042  10.007   3.533   7.661  1.2120  0.3733  3.9941
  519MOL0     H70043  10.243   3.571   7.726  0.9465 -2.1000 -1.0397
  519MOL0     H70044  10.212   3.533   7.564  2.4080  1.5038 -0.5911
  519MOL0     H70045   9.040   3.528   7.921  3.3321 -1.7235  0.4989
  519MOL0     H70046   8.801   3.499   7.840 -1.6979 -1.5662 -2.3870
  519MOL0     H70047   8.474   3.601   7.643 -0.4473  0.6740 -0.2995
  519MOL0     H70048   8.237   3.596   7.612 -0.8499  1.3215 -3.2279
  519MOL0     H70049   6.538   3.460   7.979  2.4774 -1.1807 -1.8972
  519MOL0     H70050   6.392   3.636   7.926 -1.5003  0.9660 -2.8301
  519MOL0     H70051   5.881   3.670   7.823  0.1246 -0.0455  0.0830
  519MOL0     H70052   5.692   3.813   7.788  0.4460  0.5154  2.3821
  519MOL0     H70053   5.569   4.047   7.794  2.4317 -0.0345  0.6065
  519MOL0     H70054   5.513   3.952   7.657  2.9464 -1.2919  0.1841
  519MOL0     H70055   5.517   4.259   7.701  0.9854 -0.7583  0.1591
  519MOL0     H70056   5.376   4.156   7.685  0.7538 -0.7912  1.5253
  519MOL0     H70057   5.571   4.221   7.461  0.1198  2.5165  1.0049
  519MOL0     H70058   5.429   4.307   7.501  0.1141  0.5224 -1.2359
  519MOL0     H70059   5.406   4.011   7.454  1.0435  0.9719 -1.5322
  519MOL0     H70060   5.269   4.126   7.443 -1.0440 -0.8253  0.2602
  519MOL0     H70061   5.422   4.143   7.055 -1.4249  2.6861 -0.6947
  519MOL0     H70062   5.925   4.105   7.582 -1.5746  0.2418  0.5076
  519MOL0     H70063   6.138   4.062   7.515  0.4534 -1.6610 -1.4461
  519MOL0     H70064   6.245   3.972   7.628  1.6771 -1.6892 -1.9490
  519MOL0     H70065   6.175   3.897   7.484 -0.4694  0.3883 -0.8985
  520MOL0     O70066   5.843   5.174   8.751 -0.6160 -0.4307 -0.4680
  520MOL0     C70067   5.779   5.255   8.816 -0.0307 -0.3677  0.6550
  520MOL0     O70068   5.839   5.354   8.888 -0.0105  0.9967 -0.1814
  520MOL0     C70069   5.965   5.404   8.852  0.4901 -0.0242  0.3040
  520MOL0     C70070   6.035   5.452   8.961  0.0760 -0.3093  0.2522
  520MOL0     C70071   6.163   5.508   8.954  0.5804  0.3142 -0.3281
  520MOL0     C70072   6.227   5.518   8.829  0.0859  0.0929  0.3380
  520MOL0     O70073   6.343   5.576   8.799  0.2521 -0.3033 -0.5776
  520MOL0     C70074   6.414   5.648   8.900  0.5582 -0.4506 -0.1684
  520MOL0     C70075   6.509   5.764   8.847 -0.3428  0.0128  0.3279
  520MOL0     C70076   6.614   5.709   8.751  0.0255  0.1992  0.1395
  520MOL0     C70077   6.688   5.832   8.683  0.5512  0.4615  0.5003
  520MOL0     C70078   6.827   5.797   8.629  0.1820  0.3978 -0.8934
  520MOL0     C70079   6.900   5.937   8.600  0.5431 -0.8951 -0.9406
  520MOL0     C70080   7.054   5.933   8.616  0.0099  0.6287  0.6282
  520MOL0     C70081   7.118   5.820   8.535  0.5000  0.0742  0.0796
  520MOL0     N70082   7.262   5.847   8.522  0.8743 -0.0696 -0.3105
  520MOL0     C70083   7.349   5.796   8.613 -0.7530 -0.0965 -0.5591
  520MOL0     C70084   7.475   5.814   8.560 -0.0570  0.2937 -0.0350
  520MOL0     C70085   7.601   5.784   8.628  0.5879  1.0157  0.1506
  520MOL0     C70086   7.718   5.795   8.540 -0.0581 -0.7645  0.3739
  520MOL0     C70087   7.840   5.720   8.598  1.0292 -0.0304  0.1330
  520MOL0     C70088   7.961   5.760   8.524 -0.1512 -0.2456  0.8636
  520MOL0     O70089   8.075   5.720   8.599 -0.1802 -0.1887  0.2620
  520MOL0     C70090   8.197   5.755   8.540  0.5061  0.6161  0.1797
  520MOL0     C70091   8.211   5.832   8.419 -0.2648 -0.5612  0.3695
  520MOL0     C70092   8.342   5.848   8.369 -0.2994 -0.2857 -0.6888
  520MOL0     C70093   8.453   5.784   8.430  0.4677  0.4896  0.7930
  520MOL0     C70094   8.594   5.791   8.367 -0.6260  0.1005  0.2825
  520MOL0     O70095   8.701   5.702   8.394  0.3382  0.2151 -0.5437
  520MOL0     C70096   8.826   5.734   8.348  0.2356 -0.1632  0.3703
  520MOL0     C70097   8.928   5.772   8.435 -0.4675  0.4218  0.8061
  520MOL0     C70098   9.059   5.796   8.386 -0.5286 -0.0205 -0.5962
  520MOL0     C70099   9.094   5.780   8.254 -0.6999  0.1662  0.3620
  520MOL0     O70100   9.230   5.806   8.231  0.0415  0.0568  0.7030
  520MOL0     C70101   9.273   5.802   8.096  0.4854  0.6549 -0.3389
  520MOL0     C70102   9.417   5.748   8.099 -0.4170  1.2257 -0.7138
  520MOL0     C70103   9.401   5.597   8.131 -0.0800  0.9064  0.6223
  520MOL0     C70104   9.543   5.532   8.117 -0.7649  0.1345  0.0346
  520MOL0     C70105   9.564   5.392   8.171 -0.0159  0.2595 -0.1804
  520MOL0     C70106   9.488   5.287   8.086  0.1921  0.1898  0.6058
  520MOL0     C70107   9.337   5.278   8.117 -0.1635 -0.0534 -0.1315
  520MOL0     C70108   9.291   5.131   8.110 -0.1423 -0.2296 -0.3741
  520MOL0    Cl70109   9.109   5.117   8.095  0.1729 -0.6484  0.4362
  520MOL0     C70110   8.989   5.752   8.163  0.9924  0.0598  0.3258
  520MOL0     C70111   8.854   5.738   8.212 -0.6586  0.0637  1.0759
  520MOL0     O70112   8.608   5.882   8.285  0.2551  0.4530  0.3767
  520MOL0     C70113   8.435   5.716   8.555  0.4147  0.3211  0.0773
  520MOL0     C70114   8.305   5.706   8.611 -0.1256  0.5630  0.0648
  520MOL0     N70115   7.459   5.895   8.446  0.4362 -0.7928  0.0247
  520MOL0     N70116   7.328   5.903   8.415 -0.2848 -0.1830  0.3366
  520MOL0     C70117   6.160   5.465   8.718  0.0984  0.6152  0.9109
  520MOL0     C70118   6.026   5.416   8.724  0.2645 -0.0117  0.3875
  520MOL0     C70119   5.636   5.246   8.808  0.3101  0.7172 -0.2096
  520MOL0     C70120   5.558   5.343   8.743 -0.1260  0.1592 -0.8689
  520MOL0     C70121   5.419   5.340   8.736  0.1610  0.6681  0.0448
  520MOL0     C70122   5.351   5.234   8.798  0.0083  0.5703 -0.2954
  520MOL0     O70123   5.220   5.210   8.773 -0.5977 -0.2527 -0.4819
  520MOL0     C70124   5.151   5.084   8.790  0.1155 -0.0612  0.8310
  520MOL0     C70125   4.999   5.103   8.755  0.4932 -0.5427 -0.0437
  520MOL0     C70126   4.965   5.174   8.627  0.6414 -0.3042 -0.3094
  520MOL0     C70127   4.813   5.179   8.598 -0.7289 -0.4539 -1.2869
  520MOL0     C70128   4.724   5.184   8.722 -0.3776 -0.3282  0.3926
  520MOL0     C70129   4.654   5.206   8.818  0.0481 -0.0428  0.2756
  520MOL0     C70130   5.430   5.137   8.870 -0.3257 -0.3953 -0.1049
  520MOL0     C70131   5.566   5.144   8.877 -0.7287 -0.0153  0.3052
  520MOL0     C70132   5.641   5.035   8.952  0.3404  1.2877 -0.0805
  520MOL0     H70133   5.983   5.453   9.055 -3.1720 -0.7431 -1.4038
  520MOL0     H70134   6.184   5.556   9.049 -1.6450 -0.7298  0.7608
  520MOL0     H70135   6.340   5.691   8.969 -1.8329 -0.8268 -2.3736
  520MOL0     H70136   6.469   5.571   8.954 -3.9935 -2.0912  2.6254
  520MOL0     H70137   6.559   5.810   8.932  1.3460  2.3358 -1.7789
  520MOL0     H70138   6.450   5.841   8.795  0.9529  2.2791  2.0237
  520MOL0     H70139   6.568   5.657   8.667  3.2571 -2.7763 -0.0308
  520MOL0     H70140   6.685   5.649   8.809  1.5031  2.8315  1.2496
  520MOL0     H70141   6.622   5.882   8.613  2.6004  0.6591 -1.4220
  520MOL0     H70142   6.695   5.905   8.765 -3.1883  1.9478 -0.3138
  520MOL0     H70143   6.888   5.739   8.700 -1.2328  0.3611  0.3321
  520MOL0     H70144   6.819   5.737   8.537  0.7549 -0.9622 -0.0916
  520MOL0     H70145   6.877   5.963   8.496  0.8696 -0.6480 -0.9513
  520MOL0     H70146   6.864   6.019   8.662  1.5104 -0.3981 -1.0260
  520MOL0     H70147   7.072   5.926   8.724  1.9664  1.0072  0.3604
  520MOL0     H70148   7.090   6.031   8.584 -2.4940  1.7837  1.0650
  520MOL0     H70149   7.104   5.727   8.590 -0.6506  1.0040  1.4304
  520MOL0     H70150   7.064   5.821   8.440  3.3705  0.5683 -1.6904
  520MOL0     H70151   7.337   5.758   8.713  1.9015  0.2241 -0.0335
  520MOL0     H70152   7.599   5.841   8.721  1.7200 -0.1270  0.9032
  520MOL0     H70153   7.578   5.683   8.661 -0.5556  0.7473 -1.3533
  520MOL0     H70154   7.695   5.761   8.438  0.3797  1.3545 -0.4700
  520MOL0     H70155   7.739   5.902   8.541  0.0074 -0.7595 -0.5887
  520MOL0     H70156   7.823   5.612   8.596  0.2931  0.0819 -0.0228
  520MOL0     H70157   7.855   5.752   8.701 -1.7425  0.6227  0.4002
  520MOL0     H70158   7.960   5.868   8.512  1.4237 -0.5041 -2.8696
  520MOL0     H70159   7.955   5.703   8.431 -2.8383  0.8038  0.2925
  520MOL0     H70160   8.125   5.871   8.366  0.8357  0.2197 -0.8887
  520MOL0     H70161   8.354   5.898   8.273  3.4864  0.4592  0.0119
  520MOL0     H70162   8.900   5.794   8.537  3.0802  5.0521  1.1471
  520MOL0     H70163   9.134   5.830   8.457 -2.6698  1.3157  1.1770
  520MOL0     H70164   9.206   5.743   8.034 -1.5445  0.9752  1.4216
  520MOL0     H70165   9.275   5.904   8.055 -4.4893  0.1657 -2.5075
  520MOL0     H70166   9.470   5.754   8.004  0.3432 -1.7473 -0.5754
  520MOL0     H70167   9.473   5.807   8.173 -3.5847  0.5918  2.4893
  520MOL0     H70168   9.375   5.577   8.235  3.1559  2.6816  1.9174
  520MOL0     H70169   9.337   5.543   8.060  0.5141  0.8522  0.1168
  520MOL0     H70170   9.611   5.604   8.162 -0.0340 -0.0279 -0.7768
  520MOL0     H70171   9.561   5.525   8.009 -1.4492  0.6480 -0.1179
  520MOL0     H70172   9.552   5.389   8.280  3.3074  2.0066  0.3769
  520MOL0     H70173   9.668   5.364   8.152 -0.4382 -1.0317 -0.6523
  520MOL0     H70174   9.502   5.297   7.978  0.3926  0.6886  0.6759
  520MOL0     H70175   9.536   5.199   8.129  0.4155 -0.4908 -0.9872
  520MOL0     H70176   9.274   5.338   8.052  2.2679  2.3937 -0.4204
  520MOL0     H70177   9.315   5.314   8.218  1.9532 -0.6207  0.5739
  520MOL0     H70178   9.336   5.094   8.018  1.5424  0.3967  0.1639
  520MOL0     H70179   9.328   5.075   8.197  0.1554 -1.9197 -1.5496
  520MOL0     H70180   9.005   5.746   8.056 -0.7965  3.5577 -0.2862
  520MOL0     H70181   8.772   5.733   8.141  0.3014 -1.3396  0.0178
  520MOL0     H70182   8.519   5.678   8.612  1.4697  1.8374 -0.4162
  520MOL0     H70183   8.293   5.644   8.699  1.2495 -1.2157 -0.9282
  520MOL0     H70184   6.212   5.462   8.623 -0.0574 -1.0199  0.8558
  520MOL0     H70185   5.962   5.383   8.642 -0.6557  0.3593  0.9365
  520MOL0     H70186   5.610   5.432   8.708 -0.3314 -0.1440 -1.9838
  520MOL0     H70187   5.362   5.424   8.696 -1.7349  0.6767  2.5278
  520MOL0     H70188   5.162   5.039   8.889 -1.2937 -2.2697  0.0752
  520MOL0     H70189   5.174   5.014   8.708 -2.0848  1.4452 -1.2041
  520MOL0     H70190   4.962   5.155   8.844  0.7627  1.0735 -0.8409
  520MOL0     H70191   4.951   5.005   8.754  1.7255 -1.2506  2.3298
  520MOL0     H70192   5.019   5.139   8.539 -1.6593  1.4824 -2.5426
  520MOL0     H70193   4.991   5.279   8.645 -1.8609  0.1198  1.3060
  520MOL0     H70194   4.798   5.276   8.549  0.2879 -1.3798 -3.5448
  520MOL0     H70195   4.783   5.106   8.523  1.0640 -2.1429 -0.4545
  520MOL0     H70196   4.599   5.209   8.911  0.8382 -2.5213  0.9102
  520MOL0     H70197   5.371   5.065   8.926 -0.0597  0.1366  0.8898
  520MOL0     H70198   5.621   5.036   9.059 -0.7455  1.8934 -0.2713
  520MOL0     H70199   5.629   4.932   8.917  2.4605 -0.8415  4.6554
  520MOL0     H70200   5.749   5.048   8.942  0.9627 -1.6031  1.7289
  521MOL0     O70201   6.472   8.384   6.122 -0.0244  0.3385 -0.5271
  521MOL0     C70202   6.389   8.387   6.213 -0.6116 -0.1549 -1.1544
  521MOL0     O70203   6.404   8.312   6.322 -0.2495  0.4370 -0.4907
  521MOL0     C70204   6.530   8.291   6.380  0.2303  0.6210  0.9152
  521MOL0     C70205   6.620   8.398   6.398  0.3038 -0.2007 -0.5215
  521MOL0     C70206   6.747   8.376   6.453 -0.0723  0.0746 -0.2985
  521MOL0     C70207   6.773   8.245   6.508  0.1820 -1.0250 -0.3632
  521MOL0     O70208   6.897   8.216   6.562  0.0997 -0.3135  0.0334
  521MOL0     C70209   6.913   8.282   6.696  0.5872  0.2494  1.0411
  521MOL0     C70210   6.990   8.196   6.795 -0.1719 -0.2356  0.6336
  521MOL0     C70211   7.145   8.213   6.780 -0.1403  0.4169 -0.1518
  521MOL0     C70212   7.203   8.186   6.635  0.5680 -0.0212  0.2200
  521MOL0     C70213   7.359   8.193   6.645  0.5992 -0.7715 -0.5053
  521MOL0     C70214   7.422   8.203   6.504 -1.1167 -0.2370  0.5779
  521MOL0     C70215   7.570   8.227   6.504 -0.0675 -0.5778 -1.0112
  521MOL0     C70216   7.612   8.242   6.362 -0.1775  0.2846  0.1136
  521MOL0     N70217   7.752   8.290   6.353 -0.0127  0.4408  0.1254
  521MOL0     C70218   7.796   8.411   6.405  0.4658  0.3066 -0.4303
  521MOL0     C70219   7.923   8.416   6.375 -0.4315 -0.9186  0.0853
  521MOL0     C70220   8.026   8.503   6.425 -0.1025 -0.4427 -0.2061
  521MOL0     C70221   7.983   8.595   6.550  0.0459 -0.2702  0.8146
  521MOL0     C70222   8.105   8.646   6.628  0.7573 -0.0662 -0.4701
  521MOL0     C70223   8.147   8.552   6.747  0.4746 -0.0468  0.4436
  521MOL0     O70224   8.151   8.626   6.872 -0.2853 -0.1622  0.3732
  521MOL0     C70225   8.247   8.719   6.878  0.4887 -1.1632 -0.4081
  521MOL0     C70226   8.240   8.804   6.985  0.4717 -0.7807 -0.3050
  521MOL0     C70227   8.328   8.904   7.018  0.1413 -0.4009  0.0785
  521MOL0     C70228   8.445   8.925   6.936 -0.2005  0.4688  0.0342
  521MOL0     C70229   8.554   9.016   6.973 -0.0874  0.2519 -0.0195
  521MOL0     O70230   8.666   9.013   6.903 -0.5695  0.5368  0.3943
  521MOL0     C70231   8.765   9.090   6.960  0.0168  0.1371  0.3527
  521MOL0     C70232   8.832   9.042   7.071 -0.4068  0.0776 -0.2964
  521MOL0     C70233   8.925   9.121   7.146  0.2688 -0.2893 -0.1275
  521MOL0     C70234   8.948   9.251   7.094 -0.4339 -0.2691  0.0651
  521MOL0     O70235   9.030   9.342   7.163 -0.2293 -0.2449 -0.2610
  521MOL0     C70236   9.166   9.307   7.190 -0.6350  0.2155 -0.0038
  521MOL0     C70237   9.235   9.392   7.288 -0.0627 -0.6046 -0.6038
  521MOL0     C70238   9.386   9.369   7.288  0.1131 -0.9017  0.0483
  521MOL0     C70239   9.454   9.495   7.354 -0.2699 -0.1436 -0.4041
  521MOL0     C70240   9.600   9.459   7.365  0.0360  0.2687 -0.3476
  521MOL0     C70241   9.663   9.601   7.412 -0.2606 -0.4322 -1.6370
  521MOL0     C70242   9.816   9.590   7.435 -0.6589 -0.4011 -0.4712
  521MOL0     C70243   9.881   9.732   7.446  0.2799  0.5164  0.4387
  521MOL0    Cl70244  10.061   9.726   7.475 -0.1918 -0.1193 -0.0288
  521MOL0     C70245   8.880   9.299   6.982 -0.5504  0.2529 -0.3981
  521MOL0     C70246   8.785   9.219   6.923  0.1728 -0.4784 -0.2133
  521MOL0     O70247   8.530   9.080   7.076 -0.0193  0.8856 -0.0656
  521MOL0     C70248   8.466   8.842   6.825 -0.6852  1.0335 -0.1742
  521MOL0     C70249   8.369   8.739   6.796  0.2138  0.1729  0.2533
  521MOL0     N70250   7.966   8.293   6.322 -1.1127  0.8505 -0.5311
  521MOL0     N70251   7.858   8.221   6.303  0.7530 -0.1103  0.1252
  521MOL0     C70252   6.675   8.140   6.497  0.4645 -0.4708  0.1981
  521MOL0     C70253   6.561   8.163   6.428  0.5045 -0.2342 -0.0931
  521MOL0     C70254   6.258   8.441   6.193 -0.4247 -0.4127 -0.8243
  521MOL0     C70255   6.187   8.401   6.076 -0.3346 -0.1699 -0.7315
  521MOL0     C70256   6.051   8.433   6.066  0.5341 -0.2821  1.1630
  521MOL0     C70257   5.993   8.519   6.154 -0.5043 -0.1343 -0.8343
  521MOL0     O70258   5.860   8.561   6.148 -0.5500  0.0346 -0.2603
  521MOL0     C70259   5.794   8.560   6.013  0.5290 -0.5784 -0.1659
  521MOL0     C70260   5.666   8.472   6.016  0.9688  0.5526 -0.1755
  521MOL0     C70261   5.557   8.532   6.094  0.7648  0.4050 -0.5515
  521MOL0     C70262   5.425   8.452   6.103  0.0602 -0.3598 -0.2224
  521MOL0     C70263   5.371   8.408   5.977  0.4758 -0.1384 -0.5793
  521MOL0     C70264   5.331   8.367   5.868 -0.3303  0.5633 -0.1013
  521MOL0     C70265   6.058   8.569   6.270  0.3339 -0.0415 -0.6772
  521MOL0     C70266   6.192   8.522   6.293 -0.6873 -0.8538  0.1510
  521MOL0     C70267   6.262   8.558   6.422 -0.5439 -0.0439 -0.2918
  521MOL0     H70268   6.582   8.496   6.370 -0.0479 -0.4785 -1.0487
  521MOL0     H70269   6.821   8.454   6.470  0.0650  0.0880 -0.9590
  521MOL0     H70270   6.957   8.381   6.690  1.0184 -0.0335 -1.5507
  521MOL0     H70271   6.814   8.296   6.741  1.4592 -0.3470  3.3023
  521MOL0     H70272   6.955   8.093   6.779 -1.0724  0.3113 -1.2935
  521MOL0     H70273   6.962   8.223   6.896 -0.9496  0.7528  0.1664
  521MOL0     H70274   7.196   8.144   6.848  0.3904  1.6496  0.7317
  521MOL0     H70275   7.155   8.313   6.823  0.5399 -0.2880  1.3751
  521MOL0     H70276   7.174   8.085   6.605  0.6161  0.2314 -0.6933
  521MOL0     H70277   7.164   8.254   6.559  0.4389 -2.0611 -1.6425
  521MOL0     H70278   7.395   8.272   6.712  1.4355 -1.8565  0.3649
  521MOL0     H70279   7.395   8.103   6.697  2.5595  1.9447  3.3200
  521MOL0     H70280   7.400   8.112   6.447  1.5335  0.1463 -1.2285
  521MOL0     H70281   7.370   8.282   6.448 -1.0956 -0.4449  0.2580
  521MOL0     H70282   7.627   8.151   6.558  1.5963  1.4273  0.1952
  521MOL0     H70283   7.583   8.325   6.551  2.1329 -1.4291  0.3372
  521MOL0     H70284   7.601   8.144   6.315  0.4488  0.9335 -1.4389
  521MOL0     H70285   7.543   8.302   6.304 -0.6053 -2.1187 -2.0543
  521MOL0     H70286   7.729   8.480   6.457 -2.9713 -0.4480 -3.4442
  521MOL0     H70287   8.108   8.441   6.464 -0.1896  0.1274  0.9351
  521MOL0     H70288   8.063   8.575   6.352 -3.3184  0.9808 -0.5899
  521MOL0     H70289   7.924   8.676   6.505 -1.5545 -0.3792  2.6059
  521MOL0     H70290   7.921   8.539   6.620 -2.3449 -1.9111 -2.3531
  521MOL0     H70291   8.061   8.737   6.669 -0.9728 -0.5726 -1.1092
  521MOL0     H70292   8.191   8.666   6.564  1.7082 -1.3233  0.3657
  521MOL0     H70293   8.246   8.516   6.717  0.1453 -0.8423  0.2828
  521MOL0     H70294   8.083   8.463   6.754 -2.2830  1.6648 -1.2745
  521MOL0     H70295   8.156   8.778   7.049  1.0970 -1.7291  0.1419
  521MOL0     H70296   8.312   8.956   7.112 -1.9666  0.8700 -0.9241
  521MOL0     H70297   8.811   8.943   7.110  1.5178 -0.5814 -0.8173
  521MOL0     H70298   8.972   9.076   7.233 -2.3211 -3.4143 -0.1698
  521MOL0     H70299   9.189   9.205   7.223 -0.0638  0.3658  0.0805
  521MOL0     H70300   9.215   9.318   7.093 -1.0933 -1.2822 -0.4325
  521MOL0     H70301   9.216   9.498   7.267  0.6590 -1.0702 -4.3830
  521MOL0     H70302   9.188   9.358   7.381  0.1320 -2.0572 -1.0040
  521MOL0     H70303   9.413   9.286   7.354 -0.6610 -0.8508  0.4418
  521MOL0     H70304   9.427   9.359   7.187 -0.8490 -1.8463 -0.2605
  521MOL0     H70305   9.404   9.522   7.448 -0.2872 -0.8300 -0.2098
  521MOL0     H70306   9.442   9.580   7.286  1.6811  1.6729  1.3698
  521MOL0     H70307   9.636   9.433   7.265  1.4338 -1.9534  0.6602
  521MOL0     H70308   9.630   9.374   7.427 -0.9192 -2.7331 -3.6681
  521MOL0     H70309   9.645   9.664   7.325  1.2168  2.0079 -0.3008
  521MOL0     H70310   9.604   9.635   7.497  0.3777 -1.0256 -0.9409
  521MOL0     H70311   9.882   9.535   7.366  2.1436  0.8049  1.0816
  521MOL0     H70312   9.844   9.547   7.532  0.3060  1.0943 -0.0630
  521MOL0     H70313   9.850   9.778   7.352  0.6062 -0.0906  0.0231
  521MOL0     H70314   9.843   9.792   7.529  2.4697  0.2754  1.6945
  521MOL0     H70315   8.911   9.399   6.954  1.3935 -0.2508 -0.2278
  521MOL0     H70316   8.723   9.253   6.841  1.8955 -0.4491 -1.5538
  521MOL0     H70317   8.549   8.862   6.758  1.7642 -0.5224  2.1964
  521MOL0     H70318   8.392   8.683   6.705  1.5459 -2.0151  1.8311
  521MOL0     H70319   6.695   8.044   6.545  1.2691  1.0411  3.1240
  521MOL0     H70320   6.490   8.081   6.425  1.1772 -0.9968  2.4392
  521MOL0     H70321   6.228   8.339   5.997  0.1432 -0.3695 -0.3345
  521MOL0     H70322   6.001   8.385   5.983  2.2703 -1.1365  0.5611
  521MOL0     H70323   5.859   8.532   5.930  0.9387 -0.1929  0.0263
  521MOL0     H70324   5.770   8.664   5.989  2.1347  0.2016  1.4208
  521MOL0     H70325   5.697   8.375   6.057 -0.5505  1.0669  2.3956
  521MOL0     H70326   5.640   8.443   5.914  0.8464  0.2524 -0.0587
  521MOL0     H70327   5.551   8.629   6.045  3.8101 -0.2637 -2.5376
  521MOL0     H70328   5.595   8.545   6.196 -0.1006  0.5919 -0.2424
  521MOL0     H70329   5.424   8.363   6.166  1.2246 -1.0249 -1.1119
  521MOL0     H70330   5.364   8.523   6.160  0.4124 -0.6636  0.5499
  521MOL0     H70331   5.305   8.325   5.773  1.9234  3.0094 -1.9284
  521MOL0     H70332   6.012   8.638   6.340  0.4828 -0.1199 -0.5019
  521MOL0     H70333   6.208   8.612   6.499 -0.4628 -1.1378  0.5582
  521MOL0     H70334   6.308   8.471   6.471 -0.3725  0.1774 -0.0584
  521MOL0     H70335   6.347   8.621   6.394 -1.0333  0.2009 -1.2802
  522MOL0     O70336   8.684   2.650   9.067 -1.0864 -0.1548  0.3703
  522MOL0     C70337   8.700   2.630   8.941 -0.3984  0.5805 -0.2149
  522MOL0     O70338   8.824   2.629   8.888  0.2247 -0.1703 -0.0902
  522MOL0     C70339   8.937   2.646   8.959 -0.2109 -0.2074  0.1523
  522MOL0     C70340   9.038   2.553   8.939 -1.3956  0.8405 -0.5591
  522MOL0     C70341   9.166   2.553   8.991 -1.2032  1.0982  0.6310
  522MOL0     C70342   9.190   2.667   9.067 -0.6848 -0.6432  0.2799
  522MOL0     O70343   9.317   2.669   9.128 -0.6697  0.0045 -1.0187
  522MOL0     C70344   9.346   2.736   9.249  0.0187 -1.1491  0.2856
  522MOL0     C70345   9.485   2.695   9.310  0.2592  1.2330 -0.0407
  522MOL0     C70346   9.502   2.775   9.439  0.2258 -0.1416 -0.2059
  522MOL0     C70347   9.638   2.753   9.491  0.2114 -0.3540  0.3645
  522MOL0     C70348   9.668   2.815   9.628 -0.4796  0.6238 -0.1724
  522MOL0     C70349   9.655   2.715   9.746 -0.0541 -0.1250 -0.1577
  522MOL0     C70350   9.754   2.603   9.740 -0.5935  0.1228 -0.6955
  522MOL0     C70351   9.764   2.534   9.876  0.2981 -0.2279 -0.1575
  522MOL0     N70352   9.880   2.447   9.877  0.5251  0.5311  0.8513
  522MOL0     C70353   9.895   2.331   9.814  0.3445  1.5578 -0.2805
  522MOL0     C70354  10.022   2.294   9.852 -0.5184  0.4203  0.8227
  522MOL0     C70355  10.105   2.178   9.796  0.4375  0.0502 -0.6996
  522MOL0     C70356  10.255   2.212   9.789 -0.2351  0.0386  0.3781
  522MOL0     C70357  10.336   2.103   9.731 -0.2075 -0.3453  0.3175
  522MOL0     C70358  10.488   2.139   9.741 -0.2743 -0.0971 -0.6919
  522MOL0     O70359  10.564   2.071   9.639  0.4157  0.2192  0.4082
  522MOL0     C70360  10.688   2.032   9.685  0.1925  0.4597  0.4023
  522MOL0     C70361  10.702   1.905   9.743 -0.7159  0.5023 -0.2122
  522MOL0     C70362  10.827   1.863   9.783 -0.5277 -0.3963 -0.0266
  522MOL0     C70363  10.937   1.949   9.778 -0.7308  0.5094  0.6348
  522MOL0     C70364  11.071   1.908   9.836  0.5483 -0.2489 -0.1213
  522MOL0     O70365  11.158   2.018   9.849  0.1848 -0.1118  0.4267
  522MOL0     C70366  11.282   1.995   9.891  0.4578  0.7916 -0.9201
  522MOL0     C70367  11.387   1.992   9.803  0.7632 -0.1074  0.7783
  522MOL0     C70368  11.522   1.994   9.844  0.3325 -0.0910 -0.2113
  522MOL0     C70369  11.556   1.995   9.983  0.8035 -0.3406  0.5875
  522MOL0     O70370  11.682   2.011  10.020  0.0308  0.8177  0.0151
  522MOL0     C70371  11.786   1.929   9.952  0.5563 -0.6312 -0.6220
  522MOL0     C70372  11.897   2.029   9.917  0.5922  0.1610  0.7904
  522MOL0     C70373  11.967   2.059  10.048 -0.4799  0.6571 -0.0559
  522MOL0     C70374  12.086   2.153  10.029 -0.0498 -0.3995  1.2036
  522MOL0     C70375  12.050   2.289   9.971 -0.5779  0.5527 -0.0166
  522MOL0     C70376  12.179   2.372   9.969  0.2258 -0.3162 -0.2193
  522MOL0     C70377  12.150   2.505   9.902 -0.0321 -0.3531  0.1670
  522MOL0     C70378  12.282   2.577   9.865 -0.8707 -0.2546  0.5065
  522MOL0    Cl70379  12.361   2.632  10.023  0.1709 -0.4058  0.0253
  522MOL0     C70380  11.452   1.996  10.074 -0.4471 -0.3621  0.0600
  522MOL0     C70381  11.314   1.988  10.030  0.2125  0.1696  0.0003
  522MOL0     O70382  11.090   1.795   9.857 -0.7410  0.2900  0.0727
  522MOL0     C70383  10.923   2.073   9.714  0.0473 -1.0798  0.4656
  522MOL0     C70384  10.795   2.119   9.669  0.3340  0.1142  0.1275
  522MOL0     N70385  10.080   2.393   9.933 -0.4975  0.5338 -0.3094
  522MOL0     N70386   9.995   2.484   9.938  0.1729 -0.8162 -0.5818
  522MOL0     C70387   9.097   2.772   9.079  0.4319  0.5290  0.2554
  522MOL0     C70388   8.966   2.763   9.026 -0.4750  0.2126  0.1540
  522MOL0     C70389   8.584   2.621   8.847  0.1985 -0.1304 -0.9069
  522MOL0     C70390   8.611   2.593   8.710 -0.3544  0.6243 -0.5091
  522MOL0     C70391   8.509   2.588   8.621  0.7962  1.0126 -0.6948
  522MOL0     C70392   8.375   2.594   8.656 -0.4369 -0.1314 -0.4821
  522MOL0     O70393   8.273   2.572   8.574  0.6222  1.1429  0.0334
  522MOL0     C70394   8.292   2.585   8.429 -1.0769 -1.2113  0.4731
  522MOL0     C70395   8.169   2.657   8.364 -0.5566 -0.0709 -1.3284
  522MOL0     C70396   8.141   2.646   8.212  0.0306  0.4536  0.6422
  522MOL0     C70397   8.149   2.500   8.160  0.4094 -0.1464  0.6109
  522MOL0     C70398   8.124   2.486   8.013  0.5748  0.6107  0.1532
  522MOL0     C70399   8.115   2.481   7.891  0.4142  0.2827  0.6064
  522MOL0     C70400   8.346   2.634   8.792  0.5652  0.0886  0.6504
  522MOL0     C70401   8.453   2.642   8.885 -0.7872 -0.9143 -0.6179
  522MOL0     C70402   8.410   2.679   9.025  0.2254 -0.0998  0.1236
  522MOL0     H70403   9.019   2.474   8.867  0.7842  1.6513 -2.1474
  522MOL0     H70404   9.233   2.470   8.969 -1.5746  1.1062 -0.5821
  522MOL0     H70405   9.330   2.844   9.246 -2.4448 -1.4978 -1.8415
  522MOL0     H70406   9.277   2.704   9.328  0.7820 -2.8748  0.2996
  522MOL0     H70407   9.567   2.710   9.239  1.8643 -0.8684  1.2361
  522MOL0     H70408   9.485   2.587   9.325 -2.1907  0.9137 -1.8179
  522MOL0     H70409   9.428   2.758   9.517 -1.2008  0.7281 -1.3218
  522MOL0     H70410   9.485   2.879   9.410 -2.1328 -1.1087 -2.8324
  522MOL0     H70411   9.643   2.644   9.495 -1.2941 -0.9422 -5.2569
  522MOL0     H70412   9.717   2.787   9.424  1.8438 -2.1141  1.2936
  522MOL0     H70413   9.767   2.864   9.628  0.5571 -1.3619 -1.0663
  522MOL0     H70414   9.581   2.878   9.649 -2.8769 -2.2763 -0.7120
  522MOL0     H70415   9.666   2.778   9.834  0.1937 -0.6159  0.1686
  522MOL0     H70416   9.556   2.668   9.753 -0.0582 -0.6409 -2.6090
  522MOL0     H70417   9.855   2.645   9.732  1.2351 -3.9681 -1.3688
  522MOL0     H70418   9.745   2.530   9.660  1.6490 -2.5549  1.3013
  522MOL0     H70419   9.802   2.612   9.944 -0.4614  1.0621 -1.1700
  522MOL0     H70420   9.673   2.487   9.914  0.2860  1.1322  1.6336
  522MOL0     H70421   9.826   2.285   9.744 -0.8636 -0.4616  2.0451
  522MOL0     H70422  10.090   2.091   9.861  0.8057  1.3902  1.2576
  522MOL0     H70423  10.076   2.169   9.691 -1.9519 -0.4962 -0.0414
  522MOL0     H70424  10.269   2.298   9.723 -1.2869 -1.3938 -1.8760
  522MOL0     H70425  10.298   2.230   9.887  2.9055  1.3462 -1.1101
  522MOL0     H70426  10.303   2.083   9.629 -1.2899  1.3143  0.3035
  522MOL0     H70427  10.327   2.012   9.789  0.8816 -0.5711  0.1611
  522MOL0     H70428  10.525   2.105   9.839 -0.8351  2.9759  0.7229
  522MOL0     H70429  10.508   2.247   9.740 -0.2929 -0.1004 -1.3128
  522MOL0     H70430  10.610   1.847   9.755 -0.9120  1.0429  1.1068
  522MOL0     H70431  10.852   1.767   9.828  1.8847 -1.2165 -2.8226
  522MOL0     H70432  11.375   1.985   9.696  0.6727  0.9456  0.7075
  522MOL0     H70433  11.597   1.994   9.766  0.8886 -1.4121  0.2942
  522MOL0     H70434  11.831   1.854  10.019  0.5173  0.7790  1.0298
  522MOL0     H70435  11.756   1.888   9.855  1.1937 -2.0703 -0.2476
  522MOL0     H70436  11.958   1.988   9.836 -0.5309  1.2983 -0.6970
  522MOL0     H70437  11.852   2.122   9.880 -2.2187 -1.5446 -0.4239
  522MOL0     H70438  11.898   2.111  10.114  0.4280  0.0051  1.4630
  522MOL0     H70439  11.999   1.966  10.096 -0.2904 -1.0112 -3.1151
  522MOL0     H70440  12.158   2.094   9.971 -0.3782  0.8451 -0.5720
  522MOL0     H70441  12.135   2.178  10.123 -0.4191 -0.5704  1.4425
  522MOL0     H70442  11.967   2.337  10.024  1.6502  3.9033  0.7211
  522MOL0     H70443  12.019   2.278   9.867  0.6392  4.5629 -0.9806
  522MOL0     H70444  12.225   2.390  10.067  0.0332  1.4750 -0.4357
  522MOL0     H70445  12.246   2.317   9.902 -0.4594 -0.3559 -0.8814
  522MOL0     H70446  12.097   2.569   9.973  2.4274  1.0835  0.8026
  522MOL0     H70447  12.083   2.487   9.817  0.7445 -2.4793 -0.0543
  522MOL0     H70448  12.351   2.517   9.805  1.2392 -1.4393  3.8039
  522MOL0     H70449  12.251   2.666   9.810  2.4330 -0.8812 -2.7628
  522MOL0     H70450  11.475   1.997  10.181  1.8428 -4.1369 -0.2015
  522MOL0     H70451  11.235   1.985  10.105  0.0958  3.8711  0.2290
  522MOL0     H70452  11.006   2.143   9.711 -2.0032  1.4662 -2.1597
  522MOL0     H70453  10.779   2.214   9.619 -0.3857  0.4928  1.0632
  522MOL0     H70454   9.126   2.856   9.142  0.8182  1.2579 -0.8675
  522MOL0     H70455   8.889   2.839   9.037  0.0461  0.4375  3.6030
  522MOL0     H70456   8.712   2.578   8.673 -0.0024 -0.9470  0.9788
  522MOL0     H70457   8.537   2.574   8.517  1.9289  1.9718 -0.5416
  522MOL0     H70458   8.305   2.487   8.382 -0.5328 -0.0328 -1.9940
  522MOL0     H70459   8.383   2.640   8.404 -0.2696 -2.5831  0.2806
  522MOL0     H70460   8.189   2.762   8.388 -0.2447 -0.0313 -1.7434
  522MOL0     H70461   8.087   2.624   8.428 -0.3667  1.6211 -0.1559
  522MOL0     H70462   8.208   2.719   8.166  2.3007 -1.3425  0.9160
  522MOL0     H70463   8.043   2.689   8.189  0.4614  0.8523 -0.5419
  522MOL0     H70464   8.248   2.456   8.163 -0.0491 -1.3145 -0.4515
  522MOL0     H70465   8.076   2.435   8.209 -0.5641 -0.9488 -1.7288
  522MOL0     H70466   8.119   2.487   7.785  2.4689 -1.6288  0.5194
  522MOL0     H70467   8.242   2.650   8.818  0.9412  1.2909  1.4706
  522MOL0     H70468   8.456   2.614   9.100 -1.6067 -3.7438 -1.6484
  522MOL0     H70469   8.427   2.786   9.043  1.0609  0.0850 -1.6073
  522MOL0     H70470   8.302   2.667   9.031 -0.0296 -0.5636 -3.3851
  523MOL0     O70471   2.049   4.880   2.857  0.3673 -0.5142  0.0353
  523MOL0     C70472   2.037   4.884   2.734 -0.3069  0.2233 -1.1464
  523MOL0     O70473   2.146   4.889   2.654 -0.2451  0.2524 -0.2539
  523MOL0     C70474   2.267   4.856   2.708 -0.1710 -0.6166 -0.8003
  523MOL0     C70475   2.291   4.737   2.782 -0.1065  0.0320 -0.2090
  523MOL0     C70476   2.414   4.706   2.824 -0.0355 -0.6704  0.5115
  523MOL0     C70477   2.528   4.770   2.768  0.3054 -0.5251 -0.4149
  523MOL0     O70478   2.658   4.719   2.780 -0.8586 -0.6520  0.1086
  523MOL0     C70479   2.683   4.603   2.856 -0.7439 -0.1451 -0.0794
  523MOL0     C70480   2.834   4.567   2.850  0.3711  0.1716 -0.5588
  523MOL0     C70481   2.863   4.483   2.715  0.0635  0.3707  0.2613
  523MOL0     C70482   3.014   4.481   2.699  0.8459 -0.1984 -0.0035
  523MOL0     C70483   3.053   4.377   2.593 -0.6489  0.8680  0.1249
  523MOL0     C70484   3.024   4.411   2.446 -0.6319 -0.8377  0.7404
  523MOL0     C70485   3.081   4.316   2.334 -0.2114  0.4964 -0.9299
  523MOL0     C70486   2.993   4.326   2.208  0.7563 -0.6056 -1.0578
  523MOL0     N70487   3.060   4.260   2.090  0.1714  0.4624  1.0659
  523MOL0     C70488   3.100   4.127   2.092 -0.1524  0.5726 -0.1566
  523MOL0     C70489   3.160   4.106   1.975 -0.4563 -0.4817 -0.1633
  523MOL0     C70490   3.212   3.972   1.915 -0.3420  0.2305 -0.3425
  523MOL0     C70491   3.358   3.943   1.948  0.9280  0.3697  0.0510
  523MOL0     C70492   3.410   3.816   1.870 -0.2205 -0.2741  0.3894
  523MOL0     C70493   3.542   3.785   1.927 -0.2237  0.3513  0.1180
  523MOL0     O70494   3.584   3.669   1.851  0.2403 -0.1113 -0.3094
  523MOL0     C70495   3.715   3.641   1.863  0.0719 -0.2871 -0.4826
  523MOL0     C70496   3.768   3.534   1.785  0.4614 -0.1756  0.6735
  523MOL0     C70497   3.904   3.506   1.777  0.0761 -0.2855 -0.1507
  523MOL0     C70498   3.999   3.570   1.866  0.2638 -0.0686 -0.3465
  523MOL0     C70499   4.134   3.523   1.892 -0.3251 -0.4565  0.0565
  523MOL0     O70500   4.180   3.433   1.807  0.6956  0.4321 -0.2711
  523MOL0     C70501   4.307   3.391   1.799 -1.0280  0.5629  0.8271
  523MOL0     C70502   4.418   3.460   1.830 -0.5269 -0.5705  0.7688
  523MOL0     C70503   4.542   3.436   1.779 -0.0400  0.0654 -0.0729
  523MOL0     C70504   4.570   3.329   1.695  0.5781 -0.6029 -0.4413
  523MOL0     O70505   4.699   3.302   1.656  0.4435  0.1329 -0.1125
  523MOL0     C70506   4.715   3.287   1.516  0.7002  1.1200  0.7543
  523MOL0     C70507   4.863   3.267   1.500  0.0623 -0.5781  0.7981
  523MOL0     C70508   4.907   3.213   1.373 -1.0566 -0.7073  1.5024
  523MOL0     C70509   5.061   3.207   1.366  0.0628  0.0200  0.1289
  523MOL0     C70510   5.124   3.171   1.235  0.0498 -0.2851  0.1339
  523MOL0     C70511   5.279   3.202   1.234 -0.6686 -0.6256  0.1793
  523MOL0     C70512   5.310   3.342   1.191 -0.3102  0.4175  0.3456
  523MOL0     C70513   5.443   3.356   1.109  0.6029  0.0860 -0.0992
  523MOL0    Cl70514   5.506   3.528   1.101 -0.3200  0.0527  0.1665
  523MOL0     C70515   4.458   3.253   1.669  0.0796  0.0308  0.0994
  523MOL0     C70516   4.328   3.279   1.720  0.7030  0.5691 -0.1135
  523MOL0     O70517   4.193   3.561   1.992 -0.3809  0.1120 -0.5843
  523MOL0     C70518   3.945   3.674   1.951  0.3261 -0.5932 -0.1249
  523MOL0     C70519   3.809   3.706   1.944 -0.4799 -0.1988 -0.3905
  523MOL0     N70520   3.176   4.229   1.918 -0.1459 -1.2499 -0.0488
  523MOL0     N70521   3.120   4.321   1.991 -0.1392 -0.0843  0.0369
  523MOL0     C70522   2.509   4.884   2.698  0.2357  0.3993  0.7843
  523MOL0     C70523   2.379   4.937   2.672  0.6112  0.6683  0.9103
  523MOL0     C70524   1.901   4.892   2.674  0.5223 -0.4567 -0.4799
  523MOL0     C70525   1.890   4.933   2.540  0.3993  0.1119 -0.1680
  523MOL0     C70526   1.771   4.936   2.468 -0.2981  0.4735  0.1850
  523MOL0     C70527   1.649   4.912   2.541  0.5030  0.1934 -0.3851
  523MOL0     O70528   1.529   4.938   2.480 -0.0903  0.3717  0.5252
  523MOL0     C70529   1.412   4.902   2.545  0.1707 -0.3182 -0.0400
  523MOL0     C70530   1.307   4.880   2.432 -0.8959  0.5211 -1.3164
  523MOL0     C70531   1.273   5.022   2.382 -0.6085  0.1516  0.0260
  523MOL0     C70532   1.141   5.014   2.305 -0.4198 -0.4539  0.4628
  523MOL0     C70533   1.103   5.148   2.251  0.1771  0.2115 -0.8992
  523MOL0     C70534   1.085   5.257   2.200  0.1047 -0.3379  0.7175
  523MOL0     C70535   1.663   4.886   2.680  0.2658 -0.2750 -0.0851
  523MOL0     C70536   1.783   4.864   2.748 -0.2384 -0.2644 -0.2212
  523MOL0     C70537   1.773   4.824   2.887  0.3911 -1.1266  0.0719
  523MOL0     H70538   2.196   4.691   2.809 -0.5995 -0.2965 -2.3698
  523MOL0     H70539   2.421   4.618   2.888  1.1046 -0.1740  1.1035
  523MOL0     H70540   2.659   4.627   2.960 -1.7558 -2.0400  0.1759
  523MOL0     H70541   2.624   4.515   2.829  0.2487 -1.4519  1.8208
  523MOL0     H70542   2.850   4.503   2.937 -3.7071 -0.3167  0.0403
  523MOL0     H70543   2.896   4.657   2.844  1.1331 -0.3686 -0.8167
  523MOL0     H70544   2.826   4.536   2.627 -0.0674 -0.2812 -0.0859
  523MOL0     H70545   2.819   4.383   2.720  1.8543 -0.8426 -4.0282
  523MOL0     H70546   3.039   4.586   2.680 -1.2176  0.2133 -0.7482
  523MOL0     H70547   3.052   4.448   2.796  0.0321 -0.7908  0.1257
  523MOL0     H70548   3.163   4.378   2.598 -0.6087  1.4857 -0.7593
  523MOL0     H70549   3.008   4.280   2.617  1.1560  0.2559  1.3187
  523MOL0     H70550   2.915   4.414   2.443 -0.6074 -0.4490  0.1827
  523MOL0     H70551   3.060   4.510   2.419 -0.9718 -0.8502  0.2275
  523MOL0     H70552   3.069   4.213   2.369  0.4034  0.5511 -0.5504
  523MOL0     H70553   3.187   4.333   2.316  0.3372 -1.5630  0.0518
  523MOL0     H70554   2.896   4.277   2.221  1.7194 -2.8727 -1.7717
  523MOL0     H70555   2.973   4.429   2.178 -1.3297 -1.2706 -2.1896
  523MOL0     H70556   3.081   4.052   2.168  0.8204  1.4612  0.9947
  523MOL0     H70557   3.155   3.888   1.955 -1.5804  1.6038  0.9049
  523MOL0     H70558   3.194   3.981   1.808  0.0604 -0.2087 -0.4512
  523MOL0     H70559   3.423   4.027   1.924 -0.0380  1.4370  1.0377
  523MOL0     H70560   3.363   3.919   2.055  1.8196  2.5313  0.5441
  523MOL0     H70561   3.429   3.849   1.768  0.8250 -0.5165  0.4961
  523MOL0     H70562   3.340   3.732   1.859  1.4612 -1.4484 -2.0485
  523MOL0     H70563   3.522   3.762   2.032 -3.7737  0.0970 -0.4899
  523MOL0     H70564   3.607   3.872   1.916  1.2554 -0.8356 -1.0043
  523MOL0     H70565   3.693   3.474   1.735 -0.4622  0.7897  0.8605
  523MOL0     H70566   3.931   3.417   1.720 -0.7561 -1.3540  1.0550
  523MOL0     H70567   4.409   3.562   1.867 -1.3362  0.3813 -1.8388
  523MOL0     H70568   4.619   3.507   1.807 -1.8666  2.0721  0.0950
  523MOL0     H70569   4.660   3.196   1.490  1.4287  1.0160 -0.5341
  523MOL0     H70570   4.683   3.372   1.455  1.4128  0.7991 -0.0916
  523MOL0     H70571   4.904   3.366   1.520 -0.8010 -0.0533  0.0658
  523MOL0     H70572   4.908   3.198   1.572  1.8540  0.2353  0.5082
  523MOL0     H70573   4.859   3.116   1.358  2.3725 -2.2133 -1.3360
  523MOL0     H70574   4.880   3.284   1.295  1.0749  0.4137  1.7208
  523MOL0     H70575   5.097   3.141   1.446  3.0069 -0.0512 -1.1382
  523MOL0     H70576   5.093   3.310   1.387 -0.8639 -0.1045  2.5193
  523MOL0     H70577   5.080   3.221   1.148  2.9619 -1.0199 -1.9522
  523MOL0     H70578   5.117   3.063   1.216  0.4241 -0.1991 -0.5542
  523MOL0     H70579   5.317   3.197   1.337  1.7855  0.1105 -0.6232
  523MOL0     H70580   5.333   3.127   1.176  0.6028  1.0395 -0.8809
  523MOL0     H70581   5.314   3.408   1.278 -0.8227 -0.0204  0.7089
  523MOL0     H70582   5.232   3.381   1.126  1.4229  0.3311 -1.9172
  523MOL0     H70583   5.511   3.277   1.144 -0.8873 -1.6932 -1.0265
  523MOL0     H70584   5.424   3.327   1.005  2.2679 -1.4055 -0.0491
  523MOL0     H70585   4.462   3.168   1.602  0.6593 -0.2760  0.5104
  523MOL0     H70586   4.244   3.223   1.679 -1.0964  3.0680 -0.0837
  523MOL0     H70587   4.010   3.715   2.027 -0.0046 -1.5335  0.6917
  523MOL0     H70588   3.778   3.774   2.023 -2.2635 -1.0478 -0.3009
  523MOL0     H70589   2.593   4.936   2.653 -1.1874 -0.9655 -4.1394
  523MOL0     H70590   2.371   5.026   2.611 -0.7333 -1.1426 -1.7481
  523MOL0     H70591   1.985   4.952   2.493  1.5728 -0.4353  1.8513
  523MOL0     H70592   1.741   4.952   2.365 -2.1719 -1.5765  0.3162
  523MOL0     H70593   1.379   4.982   2.612 -0.8135 -1.2843  0.6621
  523MOL0     H70594   1.426   4.814   2.608 -0.2293  0.6671  1.4724
  523MOL0     H70595   1.221   4.838   2.485  1.4978 -1.0825  1.6468
  523MOL0     H70596   1.349   4.814   2.356 -0.7276  0.6581 -1.3426
  523MOL0     H70597   1.350   5.064   2.316  3.0183  0.0976  3.7890
  523MOL0     H70598   1.263   5.095   2.463 -0.8434  2.5598 -2.0222
  523MOL0     H70599   1.146   4.947   2.219  1.4001 -1.6083  1.3973
  523MOL0     H70600   1.059   4.995   2.375  0.6688 -0.1117  1.8803
  523MOL0     H70601   1.058   5.339   2.137  1.1624 -0.7203 -0.2693
  523MOL0     H70602   1.576   4.895   2.744  1.5567  3.2412  1.3897
  523MOL0     H70603   1.676   4.773   2.895 -0.9480  0.5998 -3.0432
  523MOL0     H70604   1.844   4.746   2.916 -1.3527 -2.6058  0.6301
  523MOL0     H70605   1.782   4.912   2.950 -0.2117 -0.1588 -1.1376
  524MOL0     O70606   9.312   2.631   3.708 -0.5447 -0.4390 -0.0365
  524MOL0     C70607   9.240   2.612   3.613 -0.5706  0.1837 -0.4275
  524MOL0     O70608   9.242   2.676   3.496 -1.1308  0.4357 -0.3338
  524MOL0     C70609   9.340   2.772   3.475  0.2462  0.6597 -0.3279
  524MOL0     C70610   9.441   2.739   3.384 -0.8711  0.1524  0.6095
  524MOL0     C70611   9.558   2.828   3.377  0.4899  0.4572 -0.0276
  524MOL0     C70612   9.557   2.952   3.449 -0.4718  0.8159  0.4342
  524MOL0     O70613   9.653   3.047   3.434  0.1131  0.0264  0.7705
  524MOL0     C70614   9.787   2.995   3.405  0.6168 -0.0803 -1.4022
  524MOL0     C70615   9.823   3.022   3.257  0.5206 -0.8557  0.0605
  524MOL0     C70616   9.953   2.949   3.230 -0.7986  0.3425  0.4245
  524MOL0     C70617  10.079   3.011   3.282 -0.3437  0.2511  0.0742
  524MOL0     C70618  10.087   3.165   3.261 -0.1020 -0.0474  0.0358
  524MOL0     C70619  10.225   3.202   3.288 -0.8092 -0.3315  0.3864
  524MOL0     C70620  10.271   3.343   3.248 -0.4200 -0.4633 -0.8420
  524MOL0     C70621  10.414   3.369   3.284 -0.1103 -0.1365  0.0691
  524MOL0     N70622  10.451   3.497   3.222 -0.5427  0.8741 -0.3953
  524MOL0     C70623  10.573   3.528   3.163 -0.1318  0.8514 -0.1435
  524MOL0     C70624  10.575   3.659   3.135 -0.5032 -0.6682  0.0385
  524MOL0     C70625  10.698   3.750   3.095  0.3897  0.5319  0.0588
  524MOL0     C70626  10.816   3.726   3.195  0.7595  0.2880  0.0433
  524MOL0     C70627  10.772   3.762   3.332 -0.5886  0.5864  0.2359
  524MOL0     C70628  10.871   3.712   3.436  0.0509 -0.2853  0.9141
  524MOL0     O70629  11.008   3.750   3.408  0.3448  0.5167  0.6810
  524MOL0     C70630  11.105   3.676   3.478 -0.1032 -0.5930  1.2497
  524MOL0     C70631  11.079   3.599   3.596  0.4332 -0.4155  0.2102
  524MOL0     C70632  11.185   3.538   3.661 -0.2144  0.2101 -0.2114
  524MOL0     C70633  11.319   3.541   3.619 -0.0344  0.0975  0.1399
  524MOL0     C70634  11.431   3.479   3.693  0.0320 -0.1243 -1.1875
  524MOL0     O70635  11.399   3.392   3.788 -0.3312 -0.2398 -0.0516
  524MOL0     C70636  11.483   3.342   3.884 -0.2145 -0.3913  0.6711
  524MOL0     C70637  11.421   3.250   3.958 -0.6180  0.2866  0.0264
  524MOL0     C70638  11.496   3.176   4.052 -0.2236 -1.0422  0.1602
  524MOL0     C70639  11.634   3.212   4.081  0.7478 -0.1044  0.0096
  524MOL0     O70640  11.710   3.141   4.174 -0.1736  0.1012  0.4532
  524MOL0     C70641  11.651   3.033   4.242  0.2151  0.3409  0.0312
  524MOL0     C70642  11.756   2.991   4.359 -0.3221  0.1610 -0.9511
  524MOL0     C70643  11.733   2.847   4.401  0.0660 -0.0089 -0.5839
  524MOL0     C70644  11.588   2.826   4.451  0.1126 -0.2408 -0.0317
  524MOL0     C70645  11.552   2.687   4.506 -0.3758  0.0702 -0.8272
  524MOL0     C70646  11.401   2.651   4.503  0.5701  0.0889 -0.5814
  524MOL0     C70647  11.314   2.771   4.552 -0.0800  0.5517 -0.9645
  524MOL0     C70648  11.195   2.725   4.627  0.5025 -0.6770 -0.2152
  524MOL0    Cl70649  11.057   2.835   4.614 -0.0181  0.2163 -0.1560
  524MOL0     C70650  11.689   3.313   4.009  0.7453  0.0299  0.2075
  524MOL0     C70651  11.616   3.378   3.905  0.8483  1.0229 -0.4254
  524MOL0     O70652  11.543   3.507   3.653  1.0375  0.1386  0.3677
  524MOL0     C70653  11.338   3.620   3.515  0.2689  0.4051  0.9647
  524MOL0     C70654  11.237   3.677   3.437  0.4356 -1.0781  0.0597
  524MOL0     N70655  10.464   3.705   3.199  0.3155 -0.5192 -0.0163
  524MOL0     N70656  10.397   3.616   3.261  0.1174 -0.1981  0.4177
  524MOL0     C70657   9.436   2.987   3.515  0.1887 -0.3200 -0.2712
  524MOL0     C70658   9.342   2.890   3.545  0.5952 -0.9971  0.4791
  524MOL0     C70659   9.136   2.511   3.623  0.4812  0.5583  0.7315
  524MOL0     C70660   9.028   2.519   3.530  0.7271  0.2214  0.6040
  524MOL0     C70661   8.921   2.427   3.533  0.0917 -0.0470 -0.1531
  524MOL0     C70662   8.913   2.323   3.626 -0.3741 -0.4455 -0.5688
  524MOL0     O70663   8.807   2.233   3.616  0.1329 -0.7945 -0.3097
  524MOL0     C70664   8.811   2.111   3.687  0.1177  1.2188 -0.1189
  524MOL0     C70665   8.937   2.031   3.650 -0.0994  0.2818  0.4064
  524MOL0     C70666   8.935   1.992   3.501  0.1097  0.1545  0.9038
  524MOL0     C70667   9.010   1.863   3.459 -0.1671 -0.7943  0.2420
  524MOL0     C70668   9.150   1.863   3.508  0.7233 -0.5617  0.8886
  524MOL0     C70669   9.259   1.900   3.550 -0.0169  1.3906 -0.2700
  524MOL0     C70670   9.023   2.317   3.727  0.0168 -0.0533  0.0955
  524MOL0     C70671   9.138   2.401   3.714 -0.1751  0.1097  0.0433
  524MOL0     C70672   9.249   2.379   3.819  0.7944  0.3653  0.3444
  524MOL0     H70673   9.434   2.651   3.321  2.3901  1.2392 -1.5210
  524MOL0     H70674   9.636   2.791   3.310 -0.9067 -0.1886 -1.3708
  524MOL0     H70675   9.851   3.062   3.463  1.4742  0.8204 -3.3177
  524MOL0     H70676   9.795   2.888   3.429 -0.1488 -0.3411 -2.2634
  524MOL0     H70677   9.834   3.129   3.234  1.3820 -1.4678 -2.6826
  524MOL0     H70678   9.748   2.990   3.184  2.9160 -2.0562 -2.0343
  524MOL0     H70679   9.961   2.941   3.121 -2.0613  0.7610  0.2865
  524MOL0     H70680   9.953   2.844   3.261 -3.9172 -0.5116 -2.0237
  524MOL0     H70681  10.094   2.998   3.389  1.2487  3.3191  0.3315
  524MOL0     H70682  10.160   2.955   3.235  0.4593  0.8007  0.7680
  524MOL0     H70683  10.063   3.199   3.160 -3.5350  0.0121  0.7628
  524MOL0     H70684  10.032   3.224   3.334  1.9890  2.4607 -0.2404
  524MOL0     H70685  10.253   3.189   3.393  4.2997  1.7129 -0.4431
  524MOL0     H70686  10.292   3.138   3.231 -0.8483 -0.3014  0.3067
  524MOL0     H70687  10.204   3.417   3.292  1.4375  1.3495 -0.9053
  524MOL0     H70688  10.270   3.353   3.139  0.3779 -2.6820 -1.1101
  524MOL0     H70689  10.424   3.386   3.391 -3.0077  2.3827  0.0919
  524MOL0     H70690  10.481   3.287   3.255  0.4933  0.7687 -1.2249
  524MOL0     H70691  10.654   3.459   3.144 -1.9824 -2.5724  2.9850
  524MOL0     H70692  10.717   3.726   2.990  1.1605  0.7361  0.1443
  524MOL0     H70693  10.676   3.857   3.102  0.0735  0.4153  0.9748
  524MOL0     H70694  10.852   3.623   3.188 -0.1543 -0.1073  0.9733
  524MOL0     H70695  10.893   3.802   3.178  1.2200 -0.1369  0.2345
  524MOL0     H70696  10.673   3.723   3.359  0.3209 -0.7354  1.8538
  524MOL0     H70697  10.762   3.870   3.341  0.9382  0.8629 -1.0091
  524MOL0     H70698  10.845   3.606   3.428  0.2748 -0.3824  1.4382
  524MOL0     H70699  10.842   3.741   3.537  2.5035  0.3886  1.4816
  524MOL0     H70700  10.978   3.574   3.628 -0.1132  0.5966 -0.6677
  524MOL0     H70701  11.153   3.486   3.750  0.5622 -0.8551 -0.5244
  524MOL0     H70702  11.319   3.220   3.937 -0.4440  0.0998 -0.5809
  524MOL0     H70703  11.450   3.088   4.094  0.0343 -0.2746  2.1739
  524MOL0     H70704  11.552   3.053   4.283 -0.7900 -0.6342 -1.8078
  524MOL0     H70705  11.637   2.950   4.172 -2.5447  1.0203 -0.3285
  524MOL0     H70706  11.853   3.005   4.310  0.2720 -0.7120 -0.0501
  524MOL0     H70707  11.740   3.060   4.442 -1.9799  1.3157 -2.1641
  524MOL0     H70708  11.750   2.781   4.316 -0.3498  0.4522 -1.0333
  524MOL0     H70709  11.796   2.823   4.487 -1.4502 -0.3647  0.4856
  524MOL0     H70710  11.514   2.835   4.370  0.3564 -3.8774 -0.8333
  524MOL0     H70711  11.564   2.905   4.522 -0.6198  2.6310 -3.1979
  524MOL0     H70712  11.592   2.677   4.608 -3.8739  1.8906  0.9313
  524MOL0     H70713  11.608   2.612   4.450  2.6125 -0.0393  1.9486
  524MOL0     H70714  11.373   2.628   4.399 -2.9710 -1.1529  0.4946
  524MOL0     H70715  11.390   2.563   4.567 -3.3366  0.6679 -0.1849
  524MOL0     H70716  11.270   2.826   4.468  1.9207  1.2307 -1.6110
  524MOL0     H70717  11.376   2.827   4.622 -0.0449  0.5972 -1.0328
  524MOL0     H70718  11.159   2.627   4.593  0.6043 -0.6166 -0.4966
  524MOL0     H70719  11.216   2.713   4.733 -1.1748 -1.2077  0.0862
  524MOL0     H70720  11.793   3.335   4.028  0.3542  1.6813  0.5881
  524MOL0     H70721  11.672   3.448   3.844  2.9352  0.0516  0.3033
  524MOL0     H70722  11.436   3.626   3.468  0.4054 -1.5294  0.9523
  524MOL0     H70723  11.252   3.730   3.343 -2.4849 -0.1379  0.0179
  524MOL0     H70724   9.434   3.087   3.557 -1.0506 -0.3225 -0.2986
  524MOL0     H70725   9.249   2.920   3.593  1.0152  1.3172 -0.0487
  524MOL0     H70726   9.016   2.605   3.465  3.0168 -0.0227 -0.2291
  524MOL0     H70727   8.837   2.446   3.468 -0.8135  0.6259  1.1648
  524MOL0     H70728   8.718   2.063   3.655 -0.6940  1.8407  1.2171
  524MOL0     H70729   8.800   2.131   3.794 -1.1844 -1.9968  0.4817
  524MOL0     H70730   8.945   1.945   3.717 -1.2805  1.8578  2.7418
  524MOL0     H70731   9.035   2.076   3.665  1.0424 -1.4379 -1.3569
  524MOL0     H70732   8.980   2.075   3.445 -1.2014 -0.1080 -0.6338
  524MOL0     H70733   8.831   1.982   3.467  1.1126 -3.3742 -1.7660
  524MOL0     H70734   8.958   1.781   3.510  0.2129 -1.1343  0.0860
  524MOL0     H70735   9.020   1.850   3.351 -0.2219  0.9621 -0.0011
  524MOL0     H70736   9.356   1.907   3.595 -0.1136 -1.8786  0.6903
  524MOL0     H70737   9.013   2.232   3.794 -1.7948 -0.6240 -0.8188
  524MOL0     H70738   9.218   2.299   3.887  0.9347  0.6695  0.7696
  524MOL0     H70739   9.341   2.348   3.769  1.3389  3.5238 -0.8877
  524MOL0     H70740   9.258   2.460   3.891  0.4467 -0.3792  1.2428
  525MOL0     O70741   1.711   5.738   0.243  0.3906  0.5121 -0.1169
  525MOL0     C70742   1.705   5.852   0.288  0.1392  0.1715 -0.5094
  525MOL0     O70743   1.811   5.938   0.283 -0.5949 -0.3583  0.1352
  525MOL0     C70744   1.916   5.908   0.194  0.3598  0.1207  0.3630
  525MOL0     C70745   1.898   5.845   0.067 -0.3935  0.6014  0.8286
  525MOL0     C70746   2.003   5.829  -0.026  0.0248  0.5293 -0.3101
  525MOL0     C70747   2.128   5.867   0.017 -0.4786 -0.1926  0.3159
  525MOL0     O70748   2.226   5.847  -0.072  0.1859  0.2300 -0.2114
  525MOL0     C70749   2.359   5.880  -0.041  0.0013  0.2473  0.7128
  525MOL0     C70750   2.436   5.887  -0.169 -0.3665  0.7557  0.2758
  525MOL0     C70751   2.588   5.915  -0.140 -0.1202  0.1726  0.6558
  525MOL0     C70752   2.651   5.775  -0.134  0.2483  0.3342 -0.2169
  525MOL0     C70753   2.798   5.764  -0.149  0.7932  0.0120 -0.9162
  525MOL0     C70754   2.867   5.878  -0.084 -0.3430 -0.1845 -0.2555
  525MOL0     C70755   3.017   5.885  -0.106  0.4520 -0.6853 -0.3464
  525MOL0     C70756   3.108   5.792  -0.028 -0.2539 -0.0400 -0.4298
  525MOL0     N70757   3.247   5.856  -0.020 -0.3650 -0.2808 -0.1589
  525MOL0     C70758   3.289   5.982   0.027 -0.5424 -0.0938  1.0332
  525MOL0     C70759   3.410   6.007  -0.031  0.5419  0.9055 -0.2591
  525MOL0     C70760   3.489   6.132  -0.008  0.1917 -0.0236 -0.4035
  525MOL0     C70761   3.631   6.086   0.021  0.0924  0.5310 -0.3079
  525MOL0     C70762   3.660   5.989   0.138  0.1831 -0.8737 -0.5757
  525MOL0     C70763   3.810   5.986   0.177  0.5629 -1.1303 -0.1779
  525MOL0     O70764   3.888   5.938   0.066  0.2962 -0.3152 -0.1462
  525MOL0     C70765   4.013   5.900   0.087 -0.7517  0.0280 -0.4430
  525MOL0     C70766   4.079   5.828  -0.010  0.1276 -0.2761 -0.1925
  525MOL0     C70767   4.206   5.779   0.012  0.0325 -0.3400  0.2197
  525MOL0     C70768   4.276   5.807   0.129 -0.0824  0.0258 -0.3329
  525MOL0     C70769   4.416   5.757   0.156 -0.6997 -1.1806 -0.2460
  525MOL0     O70770   4.485   5.693   0.053  0.1000 -0.0781 -0.1661
  525MOL0     C70771   4.615   5.653   0.070  0.6972  0.4011  0.2496
  525MOL0     C70772   4.718   5.738   0.040  0.6970 -0.1451  0.2344
  525MOL0     C70773   4.848   5.691   0.041 -0.3834 -0.4359 -0.0311
  525MOL0     C70774   4.869   5.554   0.086  0.1422  0.1332 -0.1254
  525MOL0     O70775   4.995   5.502   0.098  0.0234 -0.5231  0.4754
  525MOL0     C70776   5.111   5.581   0.056 -0.5516 -0.0306 -0.5703
  525MOL0     C70777   5.239   5.507   0.063  0.2625 -0.2085 -0.3139
  525MOL0     C70778   5.244   5.385  -0.031  0.6106 -0.6216 -0.4217
  525MOL0     C70779   5.388   5.334  -0.037  0.3439  0.0298 -0.4718
  525MOL0     C70780   5.417   5.222  -0.138  0.1934  0.4956  0.6281
  525MOL0     C70781   5.559   5.167  -0.126 -0.0787  0.8394  0.0625
  525MOL0     C70782   5.587   5.072  -0.241 -0.6184 -0.1277 -0.1128
  525MOL0     C70783   5.590   5.141  -0.372 -0.2805 -0.1733 -0.0159
  525MOL0    Cl70784   5.709   5.275  -0.377  0.0008 -0.1681  0.2525
  525MOL0     C70785   4.757   5.471   0.117 -0.2761 -0.0802  0.2472
  525MOL0     C70786   4.630   5.522   0.111  0.2410  0.8215 -0.1046
  525MOL0     O70787   4.462   5.779   0.269 -0.3930 -0.5950  0.4651
  525MOL0     C70788   4.218   5.889   0.232 -0.4626  0.5493  0.4710
  525MOL0     C70789   4.083   5.929   0.210  0.1916 -0.7821 -0.1203
  525MOL0     N70790   3.445   5.894  -0.104  0.0068 -0.5319  0.2594
  525MOL0     N70791   3.345   5.809  -0.103 -0.3187 -0.4161 -0.0229
  525MOL0     C70792   2.152   5.921   0.147 -0.7976  0.6086  0.3336
  525MOL0     C70793   2.044   5.938   0.233 -0.1104  0.8336 -0.6824
  525MOL0     C70794   1.591   5.894   0.370  0.2257  0.3080  0.7071
  525MOL0     C70795   1.477   5.811   0.360  0.3114  0.2522  0.1317
  525MOL0     C70796   1.361   5.835   0.436 -0.0645 -0.1662 -0.3017
  525MOL0     C70797   1.346   5.948   0.514 -0.2016  0.9260 -0.4948
  525MOL0     O70798   1.227   5.972   0.584  0.1459 -0.2232  0.6308
  525MOL0     C70799   1.208   6.095   0.656  0.2576 -1.2958  0.6701
  525MOL0     C70800   1.071   6.103   0.721 -0.3848  0.8578 -1.9979
  525MOL0     C70801   1.059   6.037   0.856 -0.0269  0.5564 -0.8547
  525MOL0     C70802   0.915   6.024   0.920  0.4943 -1.2024  0.2244
  525MOL0     C70803   0.903   6.151   0.997  0.0678  0.5219 -0.5007
  525MOL0     C70804   0.893   6.253   1.057 -0.0383 -0.4350 -0.4218
  525MOL0     C70805   1.463   6.027   0.533  0.0490  0.9257 -0.2000
  525MOL0     C70806   1.584   5.997   0.467  0.0506 -0.8556  0.3858
  525MOL0     C70807   1.708   6.079   0.511  0.4079 -0.2088  1.0604
  525MOL0     H70808   1.805   5.815   0.019 -0.7400  2.1450  0.4601
  525MOL0     H70809   1.995   5.795  -0.129 -0.9478  2.4156 -0.8960
  525MOL0     H70810   2.368   5.986  -0.014  0.6284  1.2057 -2.7552
  525MOL0     H70811   2.411   5.817   0.032 -0.0374  0.2900  0.7777
  525MOL0     H70812   2.405   5.973  -0.229  1.3008  0.0295 -1.7541
  525MOL0     H70813   2.420   5.800  -0.232 -3.0016  2.0263 -0.9413
  525MOL0     H70814   2.605   5.977  -0.051  3.0576  0.7259 -0.2140
  525MOL0     H70815   2.626   5.972  -0.226 -2.5670  2.4839  0.9769
  525MOL0     H70816   2.614   5.729  -0.042 -0.7522 -0.0495 -0.7975
  525MOL0     H70817   2.609   5.719  -0.219 -0.2788 -0.5045  0.5800
  525MOL0     H70818   2.840   5.679  -0.096  0.3884 -1.1836 -2.4369
  525MOL0     H70819   2.814   5.764  -0.257  0.3149  2.7906 -1.0624
  525MOL0     H70820   2.823   5.973  -0.119 -2.2727 -1.0145 -0.2124
  525MOL0     H70821   2.843   5.870   0.022  0.4871 -0.7382 -0.1085
  525MOL0     H70822   3.038   5.984  -0.063 -1.3698  1.3615 -3.7012
  525MOL0     H70823   3.052   5.886  -0.210  1.6128 -2.6009 -0.0195
  525MOL0     H70824   3.069   5.779   0.074 -0.6104  2.2030 -0.2259
  525MOL0     H70825   3.119   5.692  -0.072  1.8632  0.9375 -2.2423
  525MOL0     H70826   3.241   6.051   0.095  0.0363  3.6927 -2.0408
  525MOL0     H70827   3.488   6.204  -0.090  3.0551  1.2759  0.5628
  525MOL0     H70828   3.453   6.177   0.086 -2.2852 -1.4826 -0.5679
  525MOL0     H70829   3.674   6.055  -0.075 -0.0363  0.2639 -0.2794
  525MOL0     H70830   3.679   6.183   0.037  1.1150  0.1234 -0.8205
  525MOL0     H70831   3.620   5.889   0.119  0.0118 -1.2808  1.6129
  525MOL0     H70832   3.616   6.025   0.232  3.3415  0.3922  0.5451
  525MOL0     H70833   3.829   5.926   0.266  3.1109 -1.0569 -0.5706
  525MOL0     H70834   3.839   6.090   0.193 -2.2553 -0.4435  0.9635
  525MOL0     H70835   4.027   5.804  -0.103 -0.1957 -1.8419  0.3701
  525MOL0     H70836   4.254   5.717  -0.063  0.9694 -1.3175  1.5739
  525MOL0     H70837   4.688   5.834  -0.002 -1.2540 -2.2448 -3.6786
  525MOL0     H70838   4.922   5.759  -0.001 -3.5215  3.1648 -0.3167
  525MOL0     H70839   5.102   5.614  -0.048  4.1068  2.3297 -0.4594
  525MOL0     H70840   5.119   5.667   0.122  0.8176 -0.7333  0.2151
  525MOL0     H70841   5.323   5.572   0.040 -0.4719  1.6453  1.8464
  525MOL0     H70842   5.260   5.479   0.167 -2.4271 -0.4064  0.2612
  525MOL0     H70843   5.185   5.312   0.025  0.0073 -0.2369 -0.5491
  525MOL0     H70844   5.196   5.411  -0.126 -0.0782 -0.0556  0.0737
  525MOL0     H70845   5.416   5.302   0.064  0.1539 -0.1051 -0.4616
  525MOL0     H70846   5.462   5.410  -0.064  2.9066 -2.1948 -0.2164
  525MOL0     H70847   5.396   5.270  -0.234 -1.8380  0.7317  1.1349
  525MOL0     H70848   5.337   5.150  -0.115 -1.0307  2.5338  3.4148
  525MOL0     H70849   5.626   5.253  -0.119  0.0496  0.6314  1.9677
  525MOL0     H70850   5.570   5.111  -0.032 -0.7331 -1.9638 -1.4218
  525MOL0     H70851   5.513   4.991  -0.252 -0.0655 -0.9759  1.9397
  525MOL0     H70852   5.686   5.030  -0.219 -0.5939  0.1772  0.3823
  525MOL0     H70853   5.630   5.069  -0.444 -0.3853  0.7785 -1.0556
  525MOL0     H70854   5.488   5.158  -0.406 -0.4108  0.8971  0.8536
  525MOL0     H70855   4.774   5.364   0.123  2.7841  0.1271 -2.3517
  525MOL0     H70856   4.543   5.458   0.118  1.2629 -0.6990 -0.8152
  525MOL0     H70857   4.267   5.914   0.325  2.8719 -0.6831 -0.8024
  525MOL0     H70858   4.028   5.978   0.289  2.2374  2.8151 -0.6995
  525MOL0     H70859   2.249   5.954   0.184 -1.6286  0.5684  2.6663
  525MOL0     H70860   2.064   5.985   0.329 -0.0075 -1.6242  0.5648
  525MOL0     H70861   1.482   5.727   0.292  1.2767  1.1657 -0.9641
  525MOL0     H70862   1.281   5.762   0.424  0.2388 -1.0203  2.1724
  525MOL0     H70863   1.224   6.184   0.595  1.7033 -0.7614  1.7564
  525MOL0     H70864   1.284   6.103   0.735  1.3374 -1.0509 -0.3620
  525MOL0     H70865   0.994   6.055   0.660 -1.9013  1.9264 -0.9946
  525MOL0     H70866   1.045   6.206   0.744  2.2013  1.0033  1.0813
  525MOL0     H70867   1.120   6.094   0.927  0.2158 -0.7395  0.0260
  525MOL0     H70868   1.103   5.937   0.847 -2.4170 -0.4142 -2.3406
  525MOL0     H70869   0.836   6.019   0.845  1.2493  3.6684 -1.2266
  525MOL0     H70870   0.897   5.944   0.993 -1.2813 -0.4216  0.6907
  525MOL0     H70871   0.884   6.338   1.123  0.1143 -2.3845  2.2769
  525MOL0     H70872   1.460   6.122   0.586 -2.4978 -0.3804  2.1621
  525MOL0     H70873   1.787   6.015   0.551  1.0394  1.4327  2.5854
  525MOL0     H70874   1.737   6.139   0.425 -1.9061  1.8065  1.5612
  525MOL0     H70875   1.682   6.150   0.591  2.7638  2.3367 -0.2486
  526MOL0     O70876   0.867   8.651   0.044  0.3487 -0.1166 -0.0157
  526MOL0     C70877   0.898   8.736  -0.043 -1.2234  1.3873 -0.6684
  526MOL0     O70878   0.984   8.706  -0.150  0.0986  0.0375 -0.1792
  526MOL0     C70879   1.049   8.591  -0.143  0.2357  0.3088  0.3900
  526MOL0     C70880   1.039   8.505  -0.254  0.8806 -0.3029  0.4616
  526MOL0     C70881   1.112   8.389  -0.257  0.8615  0.6434 -0.6693
  526MOL0     C70882   1.189   8.351  -0.149  0.0045 -0.0273  0.3784
  526MOL0     O70883   1.254   8.236  -0.164  0.1648 -1.0355  0.8354
  526MOL0     C70884   1.296   8.156  -0.043  0.2272  0.0516 -0.6713
  526MOL0     C70885   1.448   8.153  -0.023  0.6891 -0.0604  0.4026
  526MOL0     C70886   1.514   8.075  -0.124  0.1266 -0.5449 -0.2662
  526MOL0     C70887   1.658   8.037  -0.084  0.2407  0.7247 -0.3001
  526MOL0     C70888   1.713   7.927  -0.172  0.1158  0.0793 -0.2278
  526MOL0     C70889   1.861   7.906  -0.153 -0.5021  0.1063  0.7185
  526MOL0     C70890   1.950   8.023  -0.210 -0.5644  0.2838 -0.2634
  526MOL0     C70891   2.100   8.006  -0.173  0.1300 -0.5287 -0.5722
  526MOL0     N70892   2.102   8.018  -0.019 -0.2883 -0.0017  0.0565
  526MOL0     C70893   2.074   8.137   0.045 -0.7180 -0.5345 -0.2170
  526MOL0     C70894   2.112   8.123   0.180  0.4067 -0.3537  0.5450
  526MOL0     C70895   2.114   8.241   0.282 -0.0715  0.5535  0.3391
  526MOL0     C70896   2.242   8.318   0.290  1.1386 -0.2245 -0.0656
  526MOL0     C70897   2.350   8.242   0.367  0.8094 -0.2900  0.0232
  526MOL0     C70898   2.482   8.296   0.330 -0.6254  0.7549 -0.3258
  526MOL0     O70899   2.582   8.213   0.391  0.1126 -0.4875 -0.1443
  526MOL0     C70900   2.715   8.235   0.369  0.0169 -0.1407  0.5378
  526MOL0     C70901   2.805   8.144   0.422 -0.9492 -0.1664 -0.2485
  526MOL0     C70902   2.939   8.162   0.401 -0.4226 -0.3142  0.4121
  526MOL0     C70903   2.992   8.274   0.337  0.1638 -0.5732  0.1494
  526MOL0     C70904   3.135   8.286   0.296 -0.3265 -0.4588 -0.8805
  526MOL0     O70905   3.214   8.183   0.333  0.1198  0.1224  0.3380
  526MOL0     C70906   3.341   8.191   0.295 -0.2120 -0.4191 -0.0318
  526MOL0     C70907   3.404   8.090   0.211  0.1603  0.1030 -1.0812
  526MOL0     C70908   3.542   8.090   0.188 -0.4313 -0.3652  0.3725
  526MOL0     C70909   3.615   8.190   0.251  0.5731 -0.0025 -0.5514
  526MOL0     O70910   3.749   8.198   0.244  0.0241 -0.6800 -1.0803
  526MOL0     C70911   3.826   8.120   0.150  0.4036 -0.1287 -0.3307
  526MOL0     C70912   3.963   8.180   0.103  1.1980 -0.6199  0.4880
  526MOL0     C70913   4.072   8.190   0.217 -0.5758  0.7091 -0.4221
  526MOL0     C70914   4.210   8.229   0.161  0.1225 -0.0689  0.1285
  526MOL0     C70915   4.330   8.198   0.258 -0.5706  0.6485  0.8353
  526MOL0     C70916   4.480   8.198   0.200  0.2627  0.0220 -0.0427
  526MOL0     C70917   4.527   8.338   0.165  0.1211 -0.1225  0.0377
  526MOL0     C70918   4.640   8.349   0.062 -0.4447 -0.0707  0.7336
  526MOL0    Cl70919   4.587   8.284  -0.099 -0.2487  0.0459 -0.8332
  526MOL0     C70920   3.559   8.295   0.327  1.2645  0.3000  0.0453
  526MOL0     C70921   3.424   8.290   0.354  0.7254 -0.2863  0.0702
  526MOL0     O70922   3.172   8.392   0.244 -0.7954  0.1056  0.4289
  526MOL0     C70923   2.900   8.373   0.291  0.1985  0.1673  0.2294
  526MOL0     C70924   2.769   8.349   0.304  0.5461  0.4579  0.0916
  526MOL0     N70925   2.154   7.993   0.186 -0.0147  0.3037  0.4100
  526MOL0     N70926   2.154   7.930   0.070  0.2355 -0.2425  0.2228
  526MOL0     C70927   1.196   8.431  -0.030 -0.4352  0.3674  0.2467
  526MOL0     C70928   1.143   8.563  -0.038  0.5941  0.2551 -0.2039
  526MOL0     C70929   0.836   8.866  -0.044 -0.5817 -0.6770 -0.1263
  526MOL0     C70930   0.826   8.942  -0.171 -0.1989 -0.0856 -0.4345
  526MOL0     C70931   0.755   9.067  -0.169 -0.1395  0.7473  0.1283
  526MOL0     C70932   0.692   9.119  -0.050  0.2611 -1.2037  1.1185
  526MOL0     O70933   0.618   9.243  -0.039  0.0519 -1.0917  0.6792
  526MOL0     C70934   0.587   9.319  -0.156  0.5271  0.5428  0.1618
  526MOL0     C70935   0.468   9.253  -0.236 -0.7984 -0.5821 -0.3675
  526MOL0     C70936   0.357   9.205  -0.143 -0.8982  0.0394  0.6073
  526MOL0     C70937   0.253   9.123  -0.230 -0.8840 -0.0672  0.5446
  526MOL0     C70938   0.145   9.076  -0.155  0.6577 -0.6533  0.3486
  526MOL0     C70939   0.035   9.056  -0.104  0.2944  0.6360 -0.0103
  526MOL0     C70940   0.708   9.043   0.064 -0.5449  0.5492 -0.1480
  526MOL0     C70941   0.775   8.922   0.075  0.1690 -0.3755 -0.3487
  526MOL0     C70942   0.785   8.854   0.215 -0.1871 -0.3938  0.4905
  526MOL0     H70943   0.993   8.529  -0.349  0.6825 -0.4201  0.5299
  526MOL0     H70944   1.089   8.324  -0.341  2.0578  1.9484 -2.0634
  526MOL0     H70945   1.256   8.185   0.055 -0.4489 -0.5675 -0.7536
  526MOL0     H70946   1.262   8.053  -0.050  0.3479 -0.0940  0.6134
  526MOL0     H70947   1.477   8.116   0.076 -1.0874 -1.3281  0.5087
  526MOL0     H70948   1.489   8.254  -0.026  0.6388 -0.0464  0.1067
  526MOL0     H70949   1.515   8.124  -0.222  0.7730 -0.1274 -0.0621
  526MOL0     H70950   1.449   7.988  -0.115 -1.7882  1.0297  2.5841
  526MOL0     H70951   1.726   8.123  -0.087 -0.0892  0.9669 -1.1032
  526MOL0     H70952   1.653   8.004   0.020  1.2984  1.8396  0.1364
  526MOL0     H70953   1.674   7.826  -0.156  1.3919 -0.4146 -0.0859
  526MOL0     H70954   1.697   7.957  -0.276 -1.6350  0.8832  0.2446
  526MOL0     H70955   1.885   7.893  -0.047  1.6529 -1.6576  0.0959
  526MOL0     H70956   1.901   7.818  -0.204  3.3588  2.4472 -0.7054
  526MOL0     H70957   1.916   8.120  -0.170  0.2789  0.6013 -0.2966
  526MOL0     H70958   1.941   8.035  -0.318  1.1983  0.6559 -0.3994
  526MOL0     H70959   2.135   7.907  -0.202  3.9728  0.2248  0.9510
  526MOL0     H70960   2.178   8.076  -0.204  1.3217 -1.0128  1.1946
  526MOL0     H70961   2.038   8.225  -0.007  1.3387 -0.2547 -1.2835
  526MOL0     H70962   2.044   8.315   0.243  0.4413  0.5877 -0.5393
  526MOL0     H70963   2.086   8.206   0.382 -0.8561 -1.1429 -0.4230
  526MOL0     H70964   2.270   8.326   0.185 -0.6896  1.1404 -0.4932
  526MOL0     H70965   2.228   8.419   0.330 -2.0150 -0.0356 -1.3483
  526MOL0     H70966   2.346   8.133   0.357 -0.5919 -0.2229 -0.4406
  526MOL0     H70967   2.333   8.265   0.473 -2.0822  1.9566 -0.7852
  526MOL0     H70968   2.496   8.397   0.369  2.1545  0.0463  0.8354
  526MOL0     H70969   2.503   8.303   0.223 -1.3713 -1.9750 -0.7289
  526MOL0     H70970   2.774   8.061   0.484 -0.0444 -1.0803 -0.9936
  526MOL0     H70971   3.011   8.101   0.454  0.2794  0.5508  0.4684
  526MOL0     H70972   3.342   8.017   0.160  0.9563 -0.2563 -1.5627
  526MOL0     H70973   3.586   8.010   0.129  0.2726 -0.7012  1.3371
  526MOL0     H70974   3.864   8.025   0.188  1.2925  0.7414  1.0457
  526MOL0     H70975   3.771   8.109   0.056  0.3056  0.4918 -0.3468
  526MOL0     H70976   4.007   8.113   0.029 -0.5751 -1.5986  0.2607
  526MOL0     H70977   3.944   8.282   0.067 -2.4118 -1.3104  0.0454
  526MOL0     H70978   4.031   8.244   0.303 -0.3977 -0.8537  0.6894
  526MOL0     H70979   4.091   8.096   0.269  3.3180  1.1479 -0.8004
  526MOL0     H70980   4.220   8.332   0.124 -0.3779 -0.1473 -0.2310
  526MOL0     H70981   4.214   8.173   0.068  1.3728  1.2032 -0.6247
  526MOL0     H70982   4.315   8.097   0.297 -1.5825  0.3386 -0.3084
  526MOL0     H70983   4.327   8.272   0.339 -1.0625  0.1085  1.3192
  526MOL0     H70984   4.546   8.170   0.282  0.6226 -0.5800 -0.5399
  526MOL0     H70985   4.487   8.124   0.120 -1.4062  0.6653 -0.8491
  526MOL0     H70986   4.556   8.388   0.258  1.1345 -0.4889 -0.0680
  526MOL0     H70987   4.436   8.385   0.127 -0.0571 -0.2270  0.3377
  526MOL0     H70988   4.675   8.452   0.048 -0.0592  0.0723  2.5852
  526MOL0     H70989   4.730   8.310   0.109 -0.4089 -0.1667  0.5874
  526MOL0     H70990   3.631   8.362   0.374  3.2755 -1.9077  0.3088
  526MOL0     H70991   3.376   8.348   0.432 -2.8607 -0.5920 -1.7211
  526MOL0     H70992   2.939   8.460   0.239 -0.2937  0.4648  0.3588
  526MOL0     H70993   2.700   8.430   0.281  0.6256  1.7838  3.7438
  526MOL0     H70994   1.246   8.403   0.063 -0.9174  2.7199  1.2932
  526MOL0     H70995   1.153   8.637   0.041  0.1086 -0.7248  0.8062
  526MOL0     H70996   0.873   8.894  -0.257  1.1751 -1.8554  1.2109
  526MOL0     H70997   0.776   9.110  -0.266  0.4592  0.7310  0.2451
  526MOL0     H70998   0.680   9.328  -0.212  0.8964  2.5284  0.9670
  526MOL0     H70999   0.564   9.425  -0.138  0.9185  0.4392  1.3739
  526MOL0     H71000   0.500   9.163  -0.288  0.2449 -0.4445  0.0002
  526MOL0     H71001   0.427   9.332  -0.299  2.6390 -1.2710 -3.8332
  526MOL0     H71002   0.306   9.284  -0.088 -0.0538  1.2809 -0.3613
  526MOL0     H71003   0.404   9.147  -0.063 -0.4316  3.0815  2.6945
  526MOL0     H71004   0.210   9.197  -0.298 -0.0387 -0.1173 -0.0597
  526MOL0     H71005   0.298   9.046  -0.293  0.2153  0.5731  0.5263
  526MOL0     H71006  -0.061   9.028  -0.067  0.3000  0.8082  0.1373
  526MOL0     H71007   0.668   9.079   0.159  1.2210 -0.8157  1.1740
  526MOL0     H71008   0.694   8.800   0.245  0.4930 -0.0959  3.3729
  526MOL0     H71009   0.872   8.788   0.222 -0.4307 -1.0840 -2.1067
  526MOL0     H71010   0.797   8.932   0.291 -0.6039  0.9110 -0.7396
  527MOL0     O71011   2.532   9.601   4.683 -0.2063 -0.6687 -0.2494
  527MOL0     C71012   2.482   9.643   4.791  0.8587 -0.6336  0.2072
  527MOL0     O71013   2.546   9.652   4.906  0.6225  0.3322  0.6179
  527MOL0     C71014   2.681   9.648   4.901 -0.2561  0.1685 -0.3758
  527MOL0     C71015   2.747   9.557   4.980 -0.3434  1.2030 -0.1725
  527MOL0     C71016   2.882   9.552   4.995 -0.9121 -0.0647  0.3122
  527MOL0     C71017   2.959   9.653   4.938 -0.0938 -0.6208 -0.3219
  527MOL0     O71018   3.093   9.669   4.964  0.4499  0.4937 -0.1449
  527MOL0     C71019   3.122   9.745   5.084  0.6794  0.8536  0.1818
  527MOL0     C71020   3.271   9.761   5.092  0.5447 -0.0363  0.2113
  527MOL0     C71021   3.351   9.644   5.122 -0.3975  0.4394  0.7513
  527MOL0     C71022   3.337   9.534   5.011 -0.7924  0.1277 -0.3311
  527MOL0     C71023   3.462   9.440   5.020  0.6007 -0.3539  0.8114
  527MOL0     C71024   3.469   9.346   4.909  0.4260 -0.3523 -0.3832
  527MOL0     C71025   3.579   9.236   4.934  0.0277  0.1404  0.2368
  527MOL0     C71026   3.574   9.134   4.824  0.5394 -0.1568  1.0402
  527MOL0     N71027   3.606   9.188   4.689  0.2521 -0.8426 -0.2134
  527MOL0     C71028   3.734   9.212   4.642  0.2209  0.3698  0.3773
  527MOL0     C71029   3.720   9.237   4.505 -0.0518  0.0824 -0.3161
  527MOL0     C71030   3.825   9.257   4.402  0.3006  0.3711 -0.3549
  527MOL0     C71031   3.955   9.314   4.469  0.0675 -0.9472  1.0148
  527MOL0     C71032   4.042   9.379   4.358  0.5155 -0.1700 -0.3725
  527MOL0     C71033   4.170   9.445   4.409  0.3046 -0.7732  0.2641
  527MOL0     O71034   4.245   9.343   4.467 -0.2594  0.6656  0.7876
  527MOL0     C71035   4.382   9.358   4.489  0.1251  0.2153 -0.9379
  527MOL0     C71036   4.454   9.239   4.501 -0.1560  0.1409 -0.1089
  527MOL0     C71037   4.595   9.236   4.527 -0.3117  0.0362  0.6435
  527MOL0     C71038   4.665   9.358   4.531 -1.6418 -0.5734 -0.5195
  527MOL0     C71039   4.810   9.352   4.549  0.2902 -0.1464  0.2669
  527MOL0     O71040   4.871   9.468   4.567 -0.7177  0.0495 -0.4100
  527MOL0     C71041   5.007   9.468   4.554 -0.0848  0.5477  0.5320
  527MOL0     C71042   5.073   9.501   4.437  0.5829  0.3925  0.0424
  527MOL0     C71043   5.220   9.510   4.433  0.2735  0.2883 -0.3554
  527MOL0     C71044   5.294   9.500   4.548 -0.5074  0.1164  0.8732
  527MOL0     O71045   5.428   9.529   4.544  0.1702 -0.3368 -1.8025
  527MOL0     C71046   5.516   9.429   4.599 -0.2252 -0.2794  0.2100
  527MOL0     C71047   5.658   9.485   4.613 -0.5743  0.5049  0.1488
  527MOL0     C71048   5.707   9.525   4.477  0.4001  0.8853 -0.9130
  527MOL0     C71049   5.862   9.513   4.465  0.1721 -0.3837 -0.2749
  527MOL0     C71050   5.900   9.549   4.325 -0.9221 -0.7857  0.4535
  527MOL0     C71051   6.057   9.557   4.316 -0.1015 -0.0334  0.4279
  527MOL0     C71052   6.111   9.574   4.170  0.0660 -0.2261 -0.0388
  527MOL0     C71053   6.260   9.609   4.160 -0.3037 -0.5190  0.2287
  527MOL0    Cl71054   6.361   9.519   4.286 -0.4544 -0.1424  0.6695
  527MOL0     C71055   5.219   9.463   4.666 -0.7615 -0.1180 -0.7393
  527MOL0     C71056   5.078   9.446   4.670 -0.6673  0.7622 -0.8877
  527MOL0     O71057   4.865   9.246   4.536  0.0993  0.5786 -0.1860
  527MOL0     C71058   4.594   9.481   4.536 -0.0622  0.3693 -0.5646
  527MOL0     C71059   4.452   9.475   4.524  0.2276 -0.3654 -0.3156
  527MOL0     N71060   3.583   9.239   4.477  0.3087  0.3300  0.0848
  527MOL0     N71061   3.519   9.196   4.583  0.6545 -0.3338 -0.3153
  527MOL0     C71062   2.893   9.753   4.868 -0.1045 -1.0071  0.7169
  527MOL0     C71063   2.755   9.746   4.843 -0.5109 -0.0124 -0.8582
  527MOL0     C71064   2.337   9.693   4.798  0.2387  0.1038  0.4991
  527MOL0     C71065   2.263   9.667   4.916 -0.4777  0.4007  0.7308
  527MOL0     C71066   2.126   9.710   4.918 -1.0515 -0.4257 -0.9974
  527MOL0     C71067   2.067   9.785   4.811  0.2648 -0.7703 -0.3282
  527MOL0     O71068   1.940   9.825   4.837  0.3863 -0.2147  0.7853
  527MOL0     C71069   1.858   9.904   4.742 -0.5648  0.6870  0.8827
  527MOL0     C71070   1.715   9.915   4.801 -0.2349 -0.1321 -0.9872
  527MOL0     C71071   1.655   9.770   4.820 -0.5453  0.2845 -1.7787
  527MOL0     C71072   1.641   9.722   4.963  0.3647  0.4897 -0.6785
  527MOL0     C71073   1.539   9.793   5.043 -0.5835  0.3855  0.0227
  527MOL0     C71074   1.465   9.860   5.105 -0.3110  0.8118 -1.3902
  527MOL0     C71075   2.148   9.811   4.704 -0.3969  0.5940 -0.0451
  527MOL0     C71076   2.283   9.772   4.696 -0.7361 -0.3110  0.1242
  527MOL0     C71077   2.370   9.810   4.574  0.2026 -0.1627  0.7882
  527MOL0     H71078   2.686   9.489   5.038  0.5117 -0.0962 -0.7566
  527MOL0     H71079   2.916   9.472   5.060 -1.1268  1.1395  1.9586
  527MOL0     H71080   3.061   9.836   5.086 -1.0530 -0.2137  2.8238
  527MOL0     H71081   3.089   9.691   5.173 -0.7915  1.5787  0.1193
  527MOL0     H71082   3.302   9.839   5.162  1.8088 -0.5235  0.2111
  527MOL0     H71083   3.307   9.797   4.996  1.3145  2.2565  1.2895
  527MOL0     H71084   3.323   9.606   5.220 -1.0628 -1.2064 -0.0396
  527MOL0     H71085   3.455   9.675   5.131  0.6800 -1.6887 -2.5431
  527MOL0     H71086   3.249   9.470   5.024  1.3426 -2.7806  1.0819
  527MOL0     H71087   3.343   9.593   4.920  0.1109  1.3236  0.4737
  527MOL0     H71088   3.558   9.492   5.025  0.1186  0.9503 -2.0714
  527MOL0     H71089   3.448   9.383   5.113  1.3472  1.2604  1.9711
  527MOL0     H71090   3.374   9.291   4.901  0.2561  0.2102 -3.5652
  527MOL0     H71091   3.478   9.405   4.818  2.3763  1.2311  0.7649
  527MOL0     H71092   3.554   9.184   5.027 -2.3277 -1.3351 -1.0901
  527MOL0     H71093   3.679   9.279   4.932 -0.0650  0.4832  1.8858
  527MOL0     H71094   3.640   9.050   4.846  0.8895 -0.5647 -1.3122
  527MOL0     H71095   3.470   9.101   4.813  0.8293 -0.8867  0.3681
  527MOL0     H71096   3.824   9.208   4.703  0.8254  0.0824 -0.5074
  527MOL0     H71097   3.850   9.163   4.353  2.2171  1.5226 -1.7162
  527MOL0     H71098   3.789   9.317   4.317  0.6591 -0.4360 -1.0893
  527MOL0     H71099   3.916   9.384   4.544 -0.0648  0.7064 -0.5325
  527MOL0     H71100   4.003   9.233   4.525  1.0804  0.2131  1.8672
  527MOL0     H71101   3.979   9.452   4.306 -0.9133 -1.1468 -0.0900
  527MOL0     H71102   4.075   9.312   4.278 -0.6367 -2.0371  0.6454
  527MOL0     H71103   4.140   9.517   4.487 -1.6924 -0.6762 -0.5246
  527MOL0     H71104   4.233   9.482   4.329  0.3123 -0.9876  0.1718
  527MOL0     H71105   4.397   9.150   4.480 -1.3954  0.9572 -0.3357
  527MOL0     H71106   4.643   9.139   4.525 -1.3018 -0.4992 -1.9193
  527MOL0     H71107   5.023   9.497   4.341  0.9967 -1.8554 -0.1366
  527MOL0     H71108   5.269   9.532   4.339  2.5269  1.2139  0.9762
  527MOL0     H71109   5.487   9.401   4.700 -0.9568  2.9877  1.0001
  527MOL0     H71110   5.501   9.339   4.537  1.1364  0.1494 -0.7916
  527MOL0     H71111   5.655   9.578   4.671  0.1040 -0.9719  2.6966
  527MOL0     H71112   5.726   9.414   4.661 -0.3950  0.1436 -0.6187
  527MOL0     H71113   5.670   9.454   4.402  2.7879 -0.9805 -0.4557
  527MOL0     H71114   5.666   9.623   4.452 -0.5682  0.6408 -0.3537
  527MOL0     H71115   5.893   9.410   4.481 -0.1674 -0.5761 -0.8335
  527MOL0     H71116   5.919   9.571   4.538  0.4062  1.6800 -2.0047
  527MOL0     H71117   5.856   9.646   4.299  0.8962 -0.4143 -1.5986
  527MOL0     H71118   5.866   9.473   4.254  1.2415 -1.1841 -0.2252
  527MOL0     H71119   6.097   9.636   4.380  0.5646  1.1023 -1.3200
  527MOL0     H71120   6.094   9.462   4.356 -1.0796  0.2553  2.1008
  527MOL0     H71121   6.056   9.652   4.115  1.6632  0.2061 -1.1056
  527MOL0     H71122   6.088   9.476   4.127 -2.8018  0.8829 -1.3495
  527MOL0     H71123   6.293   9.573   4.062 -0.5714  2.6803 -1.1718
  527MOL0     H71124   6.274   9.717   4.169 -2.2750 -0.0309 -1.7832
  527MOL0     H71125   5.263   9.467   4.765 -1.1299 -1.3401 -0.5016
  527MOL0     H71126   5.039   9.423   4.769  1.3124  1.9969  0.2631
  527MOL0     H71127   4.639   9.580   4.547  0.9897 -0.0335 -1.1401
  527MOL0     H71128   4.392   9.565   4.527  0.5505 -0.0884 -1.4698
  527MOL0     H71129   2.953   9.830   4.819 -1.6643 -1.9482 -3.0980
  527MOL0     H71130   2.709   9.825   4.785  1.0158  1.3039 -0.3355
  527MOL0     H71131   2.315   9.612   4.994 -1.1870 -0.8045  0.3757
  527MOL0     H71132   2.078   9.686   5.012  2.4645 -0.9984  0.8110
  527MOL0     H71133   1.874   9.864   4.642  0.6284  1.2210  0.8450
  527MOL0     H71134   1.887  10.009   4.736 -0.6610  0.6931  0.5328
  527MOL0     H71135   1.639   9.968   4.744 -0.1723 -0.1419 -1.0810
  527MOL0     H71136   1.718   9.964   4.899  3.0844  1.6600 -1.8402
  527MOL0     H71137   1.714   9.695   4.765 -0.7550 -1.1050 -0.1976
  527MOL0     H71138   1.551   9.774   4.788 -1.1981 -1.7634 -0.1224
  527MOL0     H71139   1.613   9.617   4.950 -0.2519  0.4408  0.9387
  527MOL0     H71140   1.739   9.725   5.012  0.8618  0.0168 -1.6137
  527MOL0     H71141   1.415   9.924   5.174  0.6910  1.2647 -1.0714
  527MOL0     H71142   2.107   9.867   4.621 -1.3351  1.3076  0.8708
  527MOL0     H71143   2.309   9.875   4.511  3.0486  1.6911 -0.2771
  527MOL0     H71144   2.464   9.850   4.615  0.1160  0.1775  0.6579
  527MOL0     H71145   2.385   9.722   4.511  0.0703  1.2605 -1.3552
  528MOL0     O71146   2.877   5.854   1.039  0.6419 -0.0355  0.3370
  528MOL0     C71147   2.862   5.771   0.945 -0.1603 -0.3141 -0.8920
  528MOL0     O71148   2.955   5.741   0.854  0.3485 -1.2224 -0.1116
  528MOL0     C71149   3.084   5.784   0.850 -0.1229  0.2261  0.6468
  528MOL0     C71150   3.157   5.730   0.735  0.2681  0.1303  1.2093
  528MOL0     C71151   3.284   5.767   0.708  0.0744  0.7892 -0.5498
  528MOL0     C71152   3.351   5.852   0.798 -0.5479  0.7085  0.3146
  528MOL0     O71153   3.484   5.878   0.799 -0.8988 -0.0349 -0.3748
  528MOL0     C71154   3.571   5.820   0.707  0.0534 -0.2087  0.0552
  528MOL0     C71155   3.705   5.884   0.742 -1.6586 -0.0078 -0.3425
  528MOL0     C71156   3.820   5.792   0.698  0.7943  0.1724 -0.3113
  528MOL0     C71157   3.955   5.811   0.769  0.1987  0.3002 -0.7567
  528MOL0     C71158   4.058   5.703   0.709  0.7707 -0.9530  0.2875
  528MOL0     C71159   4.180   5.690   0.801  0.0838 -0.2632  0.0314
  528MOL0     C71160   4.286   5.598   0.746  0.6933 -0.3496 -0.0996
  528MOL0     C71161   4.384   5.573   0.869  0.1338  0.0159  0.1191
  528MOL0     N71162   4.526   5.595   0.828  0.5450 -0.1670  0.0609
  528MOL0     C71163   4.576   5.526   0.723  0.0343  0.3050 -0.5896
  528MOL0     C71164   4.706   5.584   0.706  0.1921  0.4754 -1.0223
  528MOL0     C71165   4.810   5.567   0.591 -0.1840  0.3281  0.1059
  528MOL0     C71166   4.885   5.691   0.551 -0.0306 -0.2101 -0.6191
  528MOL0     C71167   4.956   5.675   0.412 -0.2601 -0.2054  0.8952
  528MOL0     C71168   5.109   5.693   0.418  0.1341  0.2228 -0.2480
  528MOL0     O71169   5.159   5.571   0.482 -0.1603  0.8045  0.2770
  528MOL0     C71170   5.296   5.540   0.455  0.3787 -0.2989  0.1309
  528MOL0     C71171   5.395   5.632   0.438 -0.7228 -0.9304 -0.2689
  528MOL0     C71172   5.527   5.592   0.428 -0.4364 -0.8447  0.3173
  528MOL0     C71173   5.565   5.455   0.422 -0.1688 -1.0000 -0.1364
  528MOL0     C71174   5.706   5.417   0.432 -0.5915 -0.3013  0.6059
  528MOL0     O71175   5.800   5.520   0.444  0.4833  0.3026 -0.4776
  528MOL0     C71176   5.926   5.486   0.404  0.3643 -0.3442 -0.7394
  528MOL0     C71177   6.004   5.403   0.486 -0.1057  0.1875 -0.6747
  528MOL0     C71178   6.136   5.370   0.445  0.1130  0.3248 -0.8051
  528MOL0     C71179   6.191   5.439   0.343 -0.2347 -0.4943 -0.5327
  528MOL0     O71180   6.323   5.410   0.321 -0.2517 -0.4110 -0.6974
  528MOL0     C71181   6.401   5.492   0.233 -0.3001 -0.4256  0.1502
  528MOL0     C71182   6.553   5.449   0.226 -0.8591  0.2904  0.0918
  528MOL0     C71183   6.628   5.411   0.357 -0.6590 -0.4533  0.6072
  528MOL0     C71184   6.601   5.268   0.405  0.0418  0.6422  0.5175
  528MOL0     C71185   6.687   5.210   0.521  0.7801 -0.5453 -0.4417
  528MOL0     C71186   6.831   5.219   0.469  0.1348 -0.3374 -0.4644
  528MOL0     C71187   6.930   5.135   0.554 -1.4719  0.4684  0.8607
  528MOL0     C71188   7.076   5.169   0.502 -0.2703  0.1776  0.5945
  528MOL0    Cl71189   7.191   5.042   0.551 -0.3643 -0.0127  0.1987
  528MOL0     C71190   6.117   5.545   0.281  0.6456  0.1544 -0.4573
  528MOL0     C71191   5.982   5.570   0.307 -0.3176  0.0972 -0.2203
  528MOL0     O71192   5.724   5.305   0.448  0.0796 -0.0716  0.0063
  528MOL0     C71193   5.456   5.365   0.431 -0.0096 -0.3123 -0.3142
  528MOL0     C71194   5.326   5.406   0.447 -0.6967 -0.4614  1.0042
  528MOL0     N71195   4.723   5.680   0.806  0.2561  0.2812  0.8256
  528MOL0     N71196   4.614   5.685   0.872  0.4605 -0.6196 -0.3501
  528MOL0     C71197   3.284   5.907   0.902 -0.7905  0.0668 -0.4907
  528MOL0     C71198   3.153   5.872   0.932  0.5508  0.3515  0.5786
  528MOL0     C71199   2.729   5.705   0.952  1.0078 -0.1745  0.2126
  528MOL0     C71200   2.627   5.775   1.017 -0.2745 -0.4730  0.0559
  528MOL0     C71201   2.496   5.712   1.031 -0.3282  0.3022  0.3966
  528MOL0     C71202   2.467   5.583   0.981  0.5300  0.4018  0.3203
  528MOL0     O71203   2.339   5.528   0.979 -0.6022 -0.3403 -0.0880
  528MOL0     C71204   2.332   5.389   1.008 -0.4579 -0.4292 -0.3780
  528MOL0     C71205   2.373   5.343   1.147 -0.0330 -0.4320  0.4005
  528MOL0     C71206   2.313   5.411   1.276 -0.1454  0.1271  0.0174
  528MOL0     C71207   2.159   5.443   1.267  0.4292 -0.3761 -0.0428
  528MOL0     C71208   2.106   5.483   1.396  0.0784  0.0904  0.0853
  528MOL0     C71209   2.055   5.538   1.493 -0.2473  0.3957  0.1640
  528MOL0     C71210   2.581   5.516   0.920  0.3532 -0.0438 -1.4211
  528MOL0     C71211   2.703   5.575   0.902 -0.7876 -0.0224 -0.3925
  528MOL0     C71212   2.815   5.496   0.832 -0.6033 -0.7147 -0.6731
  528MOL0     H71213   3.103   5.654   0.680 -1.6315  2.6597 -0.6002
  528MOL0     H71214   3.342   5.724   0.627  0.1096  0.3213 -0.2770
  528MOL0     H71215   3.560   5.712   0.725 -0.6804  0.0265  1.0873
  528MOL0     H71216   3.552   5.837   0.600  1.3277 -0.6083 -0.2569
  528MOL0     H71217   3.713   5.898   0.850 -0.8612  1.5897 -0.5871
  528MOL0     H71218   3.726   5.978   0.690 -1.3121  1.0006  1.5591
  528MOL0     H71219   3.832   5.796   0.590  1.0303  0.1280 -0.2870
  528MOL0     H71220   3.788   5.689   0.718  2.6651 -0.5522 -0.8365
  528MOL0     H71221   3.987   5.911   0.741  0.5188  0.4557  0.1184
  528MOL0     H71222   3.945   5.806   0.878 -1.5603  1.7767 -0.8221
  528MOL0     H71223   4.013   5.605   0.690  1.3075 -0.8835 -1.5813
  528MOL0     H71224   4.082   5.735   0.607 -1.6160 -2.1478 -0.7159
  528MOL0     H71225   4.226   5.788   0.818  1.8377 -0.8695 -0.8687
  528MOL0     H71226   4.153   5.646   0.897  2.0640 -1.9123 -0.0842
  528MOL0     H71227   4.337   5.651   0.665 -0.2461  1.1005  0.2301
  528MOL0     H71228   4.245   5.501   0.716 -1.9881  0.2380  1.3103
  528MOL0     H71229   4.363   5.640   0.953  1.8622  2.5230 -1.3037
  528MOL0     H71230   4.375   5.469   0.902 -1.8967 -0.1225 -0.7161
  528MOL0     H71231   4.522   5.453   0.664 -0.8089 -1.8414  2.5923
  528MOL0     H71232   4.873   5.481   0.614  0.5874  0.9881  0.5079
  528MOL0     H71233   4.756   5.522   0.508 -1.1779 -1.9870  1.8855
  528MOL0     H71234   4.816   5.775   0.537  0.2159  0.0113 -0.5123
  528MOL0     H71235   4.956   5.707   0.633 -1.1568  0.1364  0.3322
  528MOL0     H71236   4.911   5.746   0.342  0.1511 -1.7927 -1.0903
  528MOL0     H71237   4.930   5.578   0.368 -2.1816  0.5732  0.2050
  528MOL0     H71238   5.124   5.786   0.473 -3.4102  0.8836 -0.1831
  528MOL0     H71239   5.153   5.700   0.318  2.2768 -2.6558  0.3553
  528MOL0     H71240   5.375   5.738   0.426  1.4030 -0.2238  1.6426
  528MOL0     H71241   5.598   5.673   0.415 -0.1528 -1.1090  0.1986
  528MOL0     H71242   5.958   5.361   0.575  0.8791  0.1102 -0.1836
  528MOL0     H71243   6.192   5.298   0.504  0.6872  1.1181 -0.3711
  528MOL0     H71244   6.368   5.486   0.129  1.1260 -2.5902 -0.2496
  528MOL0     H71245   6.409   5.591   0.279 -0.9745 -0.3826  0.1778
  528MOL0     H71246   6.556   5.368   0.152  0.7807  0.3270  0.0783
  528MOL0     H71247   6.607   5.532   0.179 -1.8945  0.8976 -0.0541
  528MOL0     H71248   6.734   5.425   0.336 -0.3433 -2.2490  0.9023
  528MOL0     H71249   6.604   5.486   0.433 -1.8664 -2.2109  2.0449
  528MOL0     H71250   6.607   5.205   0.315  0.4140  0.9055  0.3523
  528MOL0     H71251   6.494   5.261   0.426  0.0355  2.6005  1.2709
  528MOL0     H71252   6.652   5.109   0.543  0.9480 -0.9708 -1.9994
  528MOL0     H71253   6.682   5.275   0.609 -1.4689  0.7039 -1.4166
  528MOL0     H71254   6.823   5.173   0.370  0.0489  0.2554 -0.7417
  528MOL0     H71255   6.851   5.327   0.467 -3.8923  0.5607 -1.2076
  528MOL0     H71256   6.910   5.027   0.552  1.1366 -0.0759  0.3625
  528MOL0     H71257   6.930   5.163   0.659 -0.8623 -1.5761  1.4474
  528MOL0     H71258   7.071   5.172   0.393  0.8309  0.5358  0.5487
  528MOL0     H71259   7.105   5.269   0.534 -1.2859  0.5988  0.2483
  528MOL0     H71260   6.163   5.591   0.194  0.5460 -3.7712 -2.8044
  528MOL0     H71261   5.924   5.643   0.250 -1.6935 -0.0548  0.9253
  528MOL0     H71262   5.486   5.261   0.421 -2.7825 -1.5502  2.5713
  528MOL0     H71263   5.251   5.330   0.470 -1.8592  0.0374 -0.9444
  528MOL0     H71264   3.342   5.971   0.968  0.5889 -1.3849 -0.2250
  528MOL0     H71265   3.095   5.905   1.018  0.1205 -0.5526  0.6487
  528MOL0     H71266   2.642   5.868   1.071 -0.3452 -0.5655  0.2374
  528MOL0     H71267   2.415   5.775   1.063  0.1285  0.3303  1.5407
  528MOL0     H71268   2.381   5.327   0.932  1.1112 -1.2659  1.2343
  528MOL0     H71269   2.225   5.365   1.003 -0.5344 -0.8523  2.0511
  528MOL0     H71270   2.482   5.352   1.147 -0.0568  0.3557  2.0817
  528MOL0     H71271   2.348   5.236   1.150  0.9094 -0.7622 -1.8518
  528MOL0     H71272   2.373   5.493   1.314 -1.1485  0.5308  0.7858
  528MOL0     H71273   2.318   5.340   1.360  0.0557 -0.0707 -0.1612
  528MOL0     H71274   2.147   5.516   1.187  0.8400 -1.9039 -1.5665
  528MOL0     H71275   2.097   5.355   1.247 -1.6730  0.2517  2.9343
  528MOL0     H71276   2.001   5.572   1.579 -1.9329  1.7377 -1.3477
  528MOL0     H71277   2.573   5.417   0.875  0.1961 -0.2172 -1.0209
  528MOL0     H71278   2.846   5.545   0.740  0.4821  0.4049  0.2511
  528MOL0     H71279   2.901   5.487   0.899 -1.4645 -1.4785  0.3732
  528MOL0     H71280   2.785   5.395   0.802 -1.6965 -0.8349  0.7068
  529MOL0     O71281   4.290   5.403   3.700 -1.0633 -0.0965 -0.2193
  529MOL0     C71282   4.298   5.278   3.718  1.1136  0.2603  0.1742
  529MOL0     O71283   4.399   5.216   3.787  0.4072 -0.1186  0.0163
  529MOL0     C71284   4.483   5.302   3.847 -0.4914 -0.2716 -0.1634
  529MOL0     C71285   4.589   5.350   3.766  0.0119 -0.1095 -0.0608
  529MOL0     C71286   4.699   5.412   3.829  0.0505  0.1774  0.3003
  529MOL0     C71287   4.691   5.449   3.969 -0.3847 -0.5607  0.5181
  529MOL0     O71288   4.810   5.502   4.020  0.7604 -0.6021 -0.5144
  529MOL0     C71289   4.847   5.467   4.153 -0.9863  0.8435 -0.1666
  529MOL0     C71290   4.912   5.332   4.151  0.3453  0.2330  0.3109
  529MOL0     C71291   5.048   5.332   4.088 -0.0129 -0.4127 -0.3448
  529MOL0     C71292   5.092   5.183   4.086 -0.2882  0.4905  0.0363
  529MOL0     C71293   5.226   5.175   4.013 -0.1434 -0.2598  0.4253
  529MOL0     C71294   5.268   5.030   4.007 -0.2808 -0.3587 -0.6105
  529MOL0     C71295   5.394   5.010   3.921 -0.0469  0.1167  0.7776
  529MOL0     C71296   5.449   4.869   3.925 -0.6018  0.1677 -0.1787
  529MOL0     N71297   5.591   4.869   3.888 -0.1028  0.3659 -0.1014
  529MOL0     C71298   5.696   4.921   3.959 -0.3934  0.4648  0.1109
  529MOL0     C71299   5.806   4.889   3.882 -0.4493  0.5780 -0.3499
  529MOL0     C71300   5.959   4.921   3.907  0.2494 -0.6761 -0.1482
  529MOL0     C71301   6.046   4.801   3.877  0.0146 -0.4432 -0.2005
  529MOL0     C71302   6.178   4.815   3.951  0.8389 -0.0719 -0.1265
  529MOL0     C71303   6.271   4.910   3.882 -0.4368  0.1299 -0.0526
  529MOL0     O71304   6.306   4.850   3.753 -0.3235  0.4000 -0.6663
  529MOL0     C71305   6.416   4.774   3.729  0.0030 -0.8434  0.7723
  529MOL0     C71306   6.515   4.736   3.822  0.3137  0.7640 -0.1095
  529MOL0     C71307   6.625   4.656   3.778 -0.1789  0.1516 -0.7993
  529MOL0     C71308   6.640   4.629   3.643 -0.2023 -0.6229  0.9236
  529MOL0     C71309   6.752   4.538   3.610 -0.3663 -0.3455 -0.3471
  529MOL0     O71310   6.831   4.515   3.712 -0.2584  0.7236  0.4834
  529MOL0     C71311   6.924   4.410   3.711  0.8106 -0.9031  0.3247
  529MOL0     C71312   6.946   4.303   3.621 -0.4369 -0.3542  0.4890
  529MOL0     C71313   7.045   4.208   3.647 -1.2587 -0.9563 -0.7915
  529MOL0     C71314   7.129   4.221   3.764  0.0339 -0.3421 -0.1149
  529MOL0     O71315   7.216   4.122   3.807  0.5904  0.4327  0.1944
  529MOL0     C71316   7.231   4.006   3.729  0.4840 -0.9099 -0.2651
  529MOL0     C71317   7.306   3.898   3.794 -1.0096  1.0402 -0.5790
  529MOL0     C71318   7.381   3.810   3.691 -0.4499 -0.6435  0.7178
  529MOL0     C71319   7.479   3.720   3.761  0.3734 -0.7111 -0.6063
  529MOL0     C71320   7.585   3.645   3.676  0.4520  0.2771 -0.0865
  529MOL0     C71321   7.669   3.549   3.773 -0.2215 -0.8086  0.9499
  529MOL0     C71322   7.750   3.449   3.690  1.1174 -0.0775  0.1408
  529MOL0     C71323   7.851   3.374   3.762 -0.7869  0.0971 -0.7763
  529MOL0    Cl71324   7.780   3.288   3.905  0.0491  0.3366 -0.1061
  529MOL0     C71325   7.103   4.329   3.848  0.7289 -0.6182  0.5086
  529MOL0     C71326   7.006   4.421   3.817 -0.2129 -0.4865  0.3140
  529MOL0     O71327   6.754   4.488   3.498  0.0256  0.2473 -0.4883
  529MOL0     C71328   6.551   4.681   3.548 -0.1269  0.2331  0.8348
  529MOL0     C71329   6.431   4.751   3.595  0.4537  0.0404 -0.7031
  529MOL0     N71330   5.757   4.858   3.760 -0.4062 -0.0010  0.9855
  529MOL0     N71331   5.634   4.836   3.762  0.3622 -0.0455 -0.3055
  529MOL0     C71332   4.583   5.409   4.040  0.2909  0.5436  0.1876
  529MOL0     C71333   4.484   5.335   3.985 -0.7312 -0.5678 -0.0332
  529MOL0     C71334   4.187   5.183   3.690 -0.6355  0.3213  0.5009
  529MOL0     C71335   4.215   5.050   3.698  0.0205  0.4057 -0.5016
  529MOL0     C71336   4.115   4.949   3.672  1.1229  0.1339 -0.1177
  529MOL0     C71337   3.983   4.979   3.647 -0.6418 -0.2791 -0.1591
  529MOL0     O71338   3.893   4.883   3.616  0.8454 -0.8224 -0.0507
  529MOL0     C71339   3.751   4.912   3.613  1.0157 -0.2412 -0.0275
  529MOL0     C71340   3.699   4.927   3.753 -0.3103  0.3466 -0.4169
  529MOL0     C71341   3.548   4.913   3.758 -0.0506  0.5547  0.2740
  529MOL0     C71342   3.496   4.921   3.895 -0.0701  0.2235 -0.1161
  529MOL0     C71343   3.537   4.822   3.990 -0.6885 -0.1446 -0.0356
  529MOL0     C71344   3.594   4.748   4.065  0.1700  0.5155 -0.6831
  529MOL0     C71345   3.956   5.119   3.645  0.7258  0.4850  0.0533
  529MOL0     C71346   4.054   5.222   3.663 -0.5902  1.1623 -0.2026
  529MOL0     C71347   4.007   5.365   3.656  0.0852 -0.5618  0.4211
  529MOL0     H71348   4.586   5.329   3.659  0.8204 -0.2032 -0.0690
  529MOL0     H71349   4.783   5.450   3.773  1.0904  0.0433  1.7068
  529MOL0     H71350   4.914   5.546   4.189 -3.1968  2.2089  1.2131
  529MOL0     H71351   4.775   5.467   4.236  0.9770  0.4897  1.6317
  529MOL0     H71352   4.844   5.264   4.099 -1.3716  2.6876 -0.8632
  529MOL0     H71353   4.918   5.308   4.258  0.0324  1.3452  0.5985
  529MOL0     H71354   5.115   5.398   4.143  0.5325 -1.6661  0.5311
  529MOL0     H71355   5.052   5.377   3.988  0.9038  1.2093  0.3937
  529MOL0     H71356   5.089   5.141   4.187 -3.0742  5.3677  2.3570
  529MOL0     H71357   5.023   5.121   4.029  2.3090 -2.4635 -0.1684
  529MOL0     H71358   5.230   5.230   3.919  0.4850  0.2079  0.7200
  529MOL0     H71359   5.294   5.234   4.076  1.1422  1.3204 -2.2759
  529MOL0     H71360   5.303   5.006   4.108  0.4060 -0.1826 -0.8000
  529MOL0     H71361   5.186   4.962   3.982 -0.6717 -1.4088  3.0172
  529MOL0     H71362   5.466   5.089   3.945  2.0203 -1.2743 -0.5311
  529MOL0     H71363   5.368   5.038   3.819  2.7512 -4.2123 -1.4127
  529MOL0     H71364   5.444   4.835   4.029 -0.7266 -1.7109 -0.7615
  529MOL0     H71365   5.394   4.798   3.863 -1.3712  1.0253 -0.4918
  529MOL0     H71366   5.695   4.960   4.060  1.5346  0.3050  0.2139
  529MOL0     H71367   5.988   4.997   3.834  0.4003 -1.0432 -0.4743
  529MOL0     H71368   5.973   4.956   4.010  0.4679  0.4488 -0.5460
  529MOL0     H71369   5.999   4.709   3.912  3.3006 -1.6440  1.4893
  529MOL0     H71370   6.072   4.787   3.772 -0.1263  1.6829 -0.5651
  529MOL0     H71371   6.226   4.717   3.949  0.9428 -0.0108 -0.7510
  529MOL0     H71372   6.157   4.848   4.053 -0.1029 -2.6712  0.5812
  529MOL0     H71373   6.364   4.930   3.937  0.0335 -0.3799 -0.6487
  529MOL0     H71374   6.214   5.002   3.870 -1.3836 -0.4680 -0.2477
  529MOL0     H71375   6.511   4.777   3.922 -1.2191  0.3198  0.0327
  529MOL0     H71376   6.685   4.619   3.860 -2.8683  1.3769  1.9091
  529MOL0     H71377   6.898   4.290   3.524 -0.1437 -0.6565  0.3829
  529MOL0     H71378   7.053   4.120   3.584  2.7442  1.1945 -3.7520
  529MOL0     H71379   7.136   3.955   3.709  1.2789 -2.5828  0.0865
  529MOL0     H71380   7.289   4.050   3.648 -1.2407  3.1075  0.4537
  529MOL0     H71381   7.379   3.935   3.867 -0.7543 -0.5513  0.0174
  529MOL0     H71382   7.239   3.835   3.853  1.9430  0.8037  2.9071
  529MOL0     H71383   7.306   3.743   3.650 -1.2923 -1.7729  3.7896
  529MOL0     H71384   7.436   3.871   3.619 -0.8738 -0.1011  0.8443
  529MOL0     H71385   7.413   3.652   3.817  0.0790  0.7189  0.8651
  529MOL0     H71386   7.532   3.778   3.837  2.6041 -0.2177 -2.4121
  529MOL0     H71387   7.654   3.712   3.625 -1.8741  1.6299 -1.6154
  529MOL0     H71388   7.542   3.578   3.601  1.6551  0.3620 -0.8830
  529MOL0     H71389   7.739   3.620   3.819  1.5896 -1.6361 -0.3812
  529MOL0     H71390   7.606   3.493   3.843 -2.8954 -0.0103 -0.7159
  529MOL0     H71391   7.801   3.497   3.606  0.9863 -2.2131 -1.2426
  529MOL0     H71392   7.678   3.377   3.652 -0.7700  1.0189  1.4515
  529MOL0     H71393   7.896   3.305   3.690  2.2310  2.9627 -1.8918
  529MOL0     H71394   7.930   3.438   3.801  1.1885 -2.1066 -0.9588
  529MOL0     H71395   7.164   4.346   3.936  0.7118 -0.8979  0.5736
  529MOL0     H71396   7.000   4.508   3.882  1.7146  0.4210 -0.6433
  529MOL0     H71397   6.551   4.656   3.442  0.0300  0.0822  0.8690
  529MOL0     H71398   6.362   4.791   3.521  0.3080  1.6650  0.2545
  529MOL0     H71399   4.576   5.440   4.144  3.0484 -2.6853  1.5133
  529MOL0     H71400   4.412   5.285   4.049 -0.0006 -1.6487 -0.0317
  529MOL0     H71401   4.311   5.011   3.731 -1.8352 -1.7353  3.0992
  529MOL0     H71402   4.144   4.844   3.677  0.2192 -0.0709  2.6027
  529MOL0     H71403   3.711   4.823   3.563  0.4780 -1.5781  2.5897
  529MOL0     H71404   3.719   4.999   3.557 -1.4951  0.9330  2.9285
  529MOL0     H71405   3.731   5.024   3.792 -2.2882  1.2499 -0.9096
  529MOL0     H71406   3.749   4.855   3.818 -0.0265 -0.9526 -2.0062
  529MOL0     H71407   3.511   4.822   3.710 -0.9979  1.7534 -1.3492
  529MOL0     H71408   3.507   5.001   3.709 -0.6751  0.4411  0.5821
  529MOL0     H71409   3.521   5.018   3.939  2.0530 -0.9423  1.4068
  529MOL0     H71410   3.386   4.920   3.892 -0.1660  2.1050  0.8618
  529MOL0     H71411   3.642   4.687   4.139 -0.6227 -1.8132 -1.9515
  529MOL0     H71412   3.858   5.150   3.611  0.8933  0.2417 -0.6664
  529MOL0     H71413   4.049   5.432   3.731 -0.5901 -1.5465  1.7317
  529MOL0     H71414   4.046   5.409   3.564 -1.4810 -0.3814 -0.1883
  529MOL0     H71415   3.898   5.368   3.659 -0.0383 -3.3132  2.0167
  530MOL0     O71416   5.026   7.715   1.375  0.3645 -0.0741 -0.4114
  530MOL0     C71417   5.014   7.681   1.494 -0.7315 -0.7540  0.4595
  530MOL0     O71418   5.043   7.556   1.549  0.4750 -0.0923 -0.3167
  530MOL0     C71419   5.088   7.462   1.465  0.4106 -0.4513 -0.6038
  530MOL0     C71420   5.227   7.453   1.447  0.1466 -0.6573  0.2894
  530MOL0     C71421   5.286   7.358   1.365  0.0679 -0.8364  0.5165
  530MOL0     C71422   5.209   7.274   1.285  0.2401  0.8378  0.4626
  530MOL0     O71423   5.285   7.181   1.213 -0.0823  0.3850  0.2664
  530MOL0     C71424   5.242   7.042   1.220  0.0915  0.0319 -0.6884
  530MOL0     C71425   5.244   6.972   1.363  0.5330 -0.0388  0.5544
  530MOL0     C71426   5.179   6.831   1.336  0.1050 -0.1121  0.0284
  530MOL0     C71427   5.275   6.738   1.261 -0.1661 -0.1179 -0.0630
  530MOL0     C71428   5.223   6.596   1.255  0.1519  0.2147  0.5987
  530MOL0     C71429   5.338   6.496   1.213  0.5925 -0.1838  0.1028
  530MOL0     C71430   5.294   6.347   1.217  0.2835  0.0706 -0.4247
  530MOL0     C71431   5.383   6.266   1.117 -0.8415  0.3760  0.6337
  530MOL0     N71432   5.519   6.252   1.167 -1.0961  0.0343  0.0056
  530MOL0     C71433   5.634   6.272   1.099 -0.0337 -0.0167  0.0624
  530MOL0     C71434   5.729   6.249   1.191 -0.8643 -0.0585  0.1034
  530MOL0     C71435   5.881   6.259   1.165  0.8007  1.2256 -0.3807
  530MOL0     C71436   5.948   6.135   1.229 -0.3795  1.0327  0.1720
  530MOL0     C71437   6.097   6.133   1.208  0.5555 -0.2157 -0.1365
  530MOL0     C71438   6.162   6.007   1.273  0.3868  0.0008  0.2941
  530MOL0     O71439   6.291   6.053   1.311 -0.2018  0.2905 -0.0220
  530MOL0     C71440   6.402   6.007   1.252  0.3573 -0.2852 -0.4670
  530MOL0     C71441   6.416   5.893   1.174  0.4682 -0.6868  0.5376
  530MOL0     C71442   6.541   5.851   1.123 -0.2672  0.4619  0.2540
  530MOL0     C71443   6.661   5.907   1.168 -0.6567  0.0742 -0.1408
  530MOL0     C71444   6.785   5.856   1.127 -0.5808 -0.1061 -0.5264
  530MOL0     O71445   6.890   5.930   1.180 -0.0704 -0.2857 -0.1073
  530MOL0     C71446   7.021   5.896   1.165 -0.3122 -0.4389  1.1021
  530MOL0     C71447   7.077   5.844   1.049 -0.2675  0.0034  0.6310
  530MOL0     C71448   7.216   5.819   1.025 -0.9678  0.3440 -0.4160
  530MOL0     C71449   7.308   5.839   1.133  1.1067 -0.4118  0.1997
  530MOL0     O71450   7.448   5.822   1.125  0.6305 -0.6337  0.8791
  530MOL0     C71451   7.496   5.715   1.051  0.5927  0.0292 -0.1772
  530MOL0     C71452   7.646   5.701   1.055  0.2345  0.8108 -0.3188
  530MOL0     C71453   7.708   5.633   0.931 -0.7562 -0.2561 -1.1895
  530MOL0     C71454   7.862   5.661   0.930  0.0431 -0.1271  0.7192
  530MOL0     C71455   7.932   5.578   0.825  0.1087 -0.0953 -0.0398
  530MOL0     C71456   8.081   5.611   0.838 -0.5957  0.1589  0.9091
  530MOL0     C71457   8.169   5.538   0.727  0.5846 -0.1288  0.5463
  530MOL0     C71458   8.316   5.562   0.770  0.0374  0.4268  0.5264
  530MOL0    Cl71459   8.390   5.700   0.682  0.2943  0.4482 -0.2307
  530MOL0     C71460   7.243   5.881   1.253 -1.1680  0.0000  0.2792
  530MOL0     C71461   7.106   5.917   1.270  0.6670  0.0428 -0.4324
  530MOL0     O71462   6.789   5.750   1.067  0.6228  0.0117 -0.4541
  530MOL0     C71463   6.653   6.019   1.257  0.1830 -0.2060  1.4414
  530MOL0     C71464   6.525   6.068   1.287  0.0050  0.4068 -0.0020
  530MOL0     N71465   5.673   6.209   1.308  0.6891 -0.0121  0.3872
  530MOL0     N71466   5.545   6.218   1.292  0.4996 -0.1580  0.2932
  530MOL0     C71467   5.069   7.281   1.301  0.8016  0.3013  0.1459
  530MOL0     C71468   5.009   7.376   1.389  0.6242  0.2095  0.5720
  530MOL0     C71469   4.968   7.788   1.581 -0.2869 -0.0420 -0.0524
  530MOL0     C71470   5.018   7.787   1.713 -0.5673  0.3519  0.0437
  530MOL0     C71471   4.992   7.892   1.804 -0.1016 -0.3277 -0.7165
  530MOL0     C71472   4.910   8.001   1.761  0.8715 -0.3712 -0.3619
  530MOL0     O71473   4.863   8.106   1.833 -0.7674  0.9287 -0.0222
  530MOL0     C71474   4.899   8.116   1.969  1.7687 -0.1343  0.1188
  530MOL0     C71475   4.851   8.246   2.031  0.4846 -0.5526 -0.0417
  530MOL0     C71476   4.694   8.257   2.023  0.3894  0.0785  0.4213
  530MOL0     C71477   4.636   8.323   2.147  0.2191 -0.4112 -0.1843
  530MOL0     C71478   4.663   8.249   2.268  0.8553  0.2794 -0.2459
  530MOL0     C71479   4.689   8.187   2.362 -0.3250 -0.9171  0.6711
  530MOL0     C71480   4.858   7.997   1.633 -0.4484  0.0875  0.5255
  530MOL0     C71481   4.894   7.907   1.540 -0.0615  0.2118  0.3409
  530MOL0     C71482   4.832   7.920   1.405 -0.0925 -0.1893 -0.1840
  530MOL0     H71483   5.285   7.523   1.506 -2.2867  2.5186 -0.7660
  530MOL0     H71484   5.394   7.362   1.352 -0.1854  1.6900 -1.7770
  530MOL0     H71485   5.150   7.018   1.167  1.7775 -1.7293 -3.0430
  530MOL0     H71486   5.323   6.989   1.168  0.3050  0.3326 -0.6686
  530MOL0     H71487   5.195   7.037   1.436  0.2339  1.0419 -0.5838
  530MOL0     H71488   5.347   6.961   1.397  0.4750 -0.2718  0.6606
  530MOL0     H71489   5.085   6.848   1.282 -1.3088 -1.6868  1.8405
  530MOL0     H71490   5.159   6.795   1.437  3.0673  0.6943  0.9938
  530MOL0     H71491   5.300   6.787   1.167 -1.4256  0.0550 -0.3256
  530MOL0     H71492   5.361   6.733   1.328  0.0440 -0.4063 -0.3561
  530MOL0     H71493   5.187   6.566   1.354 -0.3922 -3.2406 -0.5283
  530MOL0     H71494   5.135   6.599   1.190  0.9076  1.4800 -0.3996
  530MOL0     H71495   5.365   6.531   1.113  2.5296  2.8573  1.5400
  530MOL0     H71496   5.424   6.503   1.281  0.0409  0.3554  0.7710
  530MOL0     H71497   5.190   6.340   1.182  0.2962  0.1182 -0.4729
  530MOL0     H71498   5.299   6.303   1.317 -1.8311  1.4608  0.3667
  530MOL0     H71499   5.355   6.166   1.084 -1.5644  0.9602 -0.5862
  530MOL0     H71500   5.382   6.315   1.019 -0.6102  1.1763  1.0222
  530MOL0     H71501   5.643   6.307   0.997  0.1515  2.2759  0.8114
  530MOL0     H71502   5.896   6.250   1.057 -1.7858  1.0163 -0.7840
  530MOL0     H71503   5.931   6.344   1.210  1.5410 -0.5550  2.4150
  530MOL0     H71504   5.922   6.130   1.335 -0.7970 -1.2043  0.0132
  530MOL0     H71505   5.911   6.040   1.189  0.8689  1.0851 -1.1643
  530MOL0     H71506   6.142   6.225   1.246  1.5489 -1.1376  0.9793
  530MOL0     H71507   6.117   6.135   1.100 -1.6646 -0.6653 -0.6128
  530MOL0     H71508   6.152   5.924   1.203 -1.9998  0.5751 -0.1240
  530MOL0     H71509   6.107   5.987   1.366 -0.5166  2.2559  0.2863
  530MOL0     H71510   6.330   5.831   1.150 -1.3245  1.5510  0.7677
  530MOL0     H71511   6.531   5.754   1.075 -1.8902  0.1431  1.1524
  530MOL0     H71512   7.016   5.826   0.960 -1.1253  0.3366  1.1372
  530MOL0     H71513   7.261   5.783   0.933  2.4005 -0.0459  1.2542
  530MOL0     H71514   7.449   5.622   1.085  0.7203  0.3450  0.9154
  530MOL0     H71515   7.462   5.733   0.949  0.6339 -0.5706 -0.3020
  530MOL0     H71516   7.693   5.800   1.065  0.5658  0.7049 -0.7772
  530MOL0     H71517   7.671   5.647   1.147  2.7235  0.1034 -1.3327
  530MOL0     H71518   7.687   5.526   0.942  2.6787 -0.8753  0.8325
  530MOL0     H71519   7.661   5.674   0.842  0.2021  0.7223 -1.2624
  530MOL0     H71520   7.909   5.631   1.025  0.2256  0.4446  0.8160
  530MOL0     H71521   7.890   5.766   0.912 -3.6875  0.8925  0.1281
  530MOL0     H71522   7.891   5.609   0.729 -0.7986  3.4267  1.3215
  530MOL0     H71523   7.912   5.474   0.852 -3.2861  0.9615  2.2027
  530MOL0     H71524   8.085   5.719   0.823 -1.1559  0.5604  3.2309
  530MOL0     H71525   8.128   5.595   0.936  2.2750 -4.1333 -0.8774
  530MOL0     H71526   8.154   5.577   0.625  0.2002  1.3411  1.1389
  530MOL0     H71527   8.143   5.432   0.727 -2.2250  0.4695 -0.6030
  530MOL0     H71528   8.310   5.577   0.878 -0.4373  2.3810  0.2482
  530MOL0     H71529   8.376   5.472   0.750  0.7110  0.8910  0.4156
  530MOL0     H71530   7.308   5.892   1.340 -0.5580 -1.1434 -0.0209
  530MOL0     H71531   7.053   5.944   1.360 -2.9476  2.1436 -2.9614
  530MOL0     H71532   6.738   6.074   1.294 -0.4550 -0.3313  3.2069
  530MOL0     H71533   6.525   6.155   1.353 -1.3023 -0.4753  1.2016
  530MOL0     H71534   5.009   7.209   1.246 -2.9107 -0.8229  5.0532
  530MOL0     H71535   4.904   7.386   1.416  0.9308  2.0657  1.2350
  530MOL0     H71536   5.073   7.700   1.750 -0.2574 -0.2569 -1.7531
  530MOL0     H71537   5.025   7.900   1.907  2.3228 -2.6873 -1.2044
  530MOL0     H71538   5.005   8.094   1.984  1.4728 -0.2400  2.3393
  530MOL0     H71539   4.850   8.041   2.032  3.5290  0.8856  2.8844
  530MOL0     H71540   4.893   8.323   1.966  0.3507 -0.1888  0.3015
  530MOL0     H71541   4.898   8.235   2.129 -0.3398 -1.6119  0.2574
  530MOL0     H71542   4.651   8.157   2.010  1.6081 -0.6807  1.8983
  530MOL0     H71543   4.660   8.306   1.931 -1.1813 -0.5579  0.6242
  530MOL0     H71544   4.689   8.419   2.147  2.0659 -1.3704 -1.3888
  530MOL0     H71545   4.527   8.333   2.148  0.0825 -1.7677  0.2257
  530MOL0     H71546   4.701   8.128   2.451 -1.2816 -3.0333 -0.5303
  530MOL0     H71547   4.795   8.078   1.599  0.0457  1.0116  1.7332
  530MOL0     H71548   4.902   7.979   1.345  1.0858  0.3291  1.6410
  530MOL0     H71549   4.812   7.822   1.359 -0.0736 -1.2774  2.0142
  530MOL0     H71550   4.735   7.970   1.412 -0.3835 -0.8031  0.2876
  531MOL0     O71551   5.792   7.196   9.732  0.0421 -0.3634 -0.3007
  531MOL0     C71552   5.758   7.292   9.670 -0.3113  0.5250 -0.4117
  531MOL0     O71553   5.838   7.391   9.624  0.6813  0.2550  0.0002
  531MOL0     C71554   5.978   7.392   9.641  0.2988 -1.0764 -0.1542
  531MOL0     C71555   6.047   7.457   9.540  0.1126  1.0683  0.6490
  531MOL0     C71556   6.187   7.470   9.557 -0.5013 -0.5104  0.2176
  531MOL0     C71557   6.259   7.398   9.645 -0.2818 -0.2812 -1.2177
  531MOL0     O71558   6.392   7.401   9.651 -0.1835  0.6556 -0.4257
  531MOL0     C71559   6.460   7.373   9.537  0.3896  0.2975  0.5798
  531MOL0     C71560   6.609   7.352   9.583  0.0174 -0.4301  0.7540
  531MOL0     C71561   6.706   7.303   9.476 -0.3154  0.6297  0.5617
  531MOL0     C71562   6.727   7.416   9.372  0.2992 -0.1927  0.0213
  531MOL0     C71563   6.842   7.403   9.277 -0.7147 -0.3290 -0.2884
  531MOL0     C71564   6.842   7.271   9.197  0.6761 -0.5656 -0.5281
  531MOL0     C71565   6.960   7.252   9.092  0.6856 -0.8608 -0.2975
  531MOL0     C71566   7.095   7.266   9.165  0.0045  0.6162 -0.3007
  531MOL0     N71567   7.167   7.404   9.169 -0.2866 -0.8212  0.2608
  531MOL0     C71568   7.231   7.447   9.056 -0.2539 -0.9770 -0.0545
  531MOL0     C71569   7.264   7.575   9.084  0.1002  0.9782 -0.1565
  531MOL0     C71570   7.337   7.664   8.992 -0.1044 -0.1118  0.0487
  531MOL0     C71571   7.484   7.669   9.038  0.2541 -0.4877 -0.5723
  531MOL0     C71572   7.566   7.542   9.026 -0.2405 -0.4566 -1.2240
  531MOL0     C71573   7.712   7.566   9.069 -0.0118  0.0845  0.7996
  531MOL0     O71574   7.781   7.634   8.963  0.0381 -0.2123 -0.1016
  531MOL0     C71575   7.917   7.635   8.961  0.7766 -0.1385 -0.3302
  531MOL0     C71576   7.981   7.708   8.864  0.3407  0.7288  0.0452
  531MOL0     C71577   8.120   7.708   8.849 -0.0678  0.7314  0.3518
  531MOL0     C71578   8.193   7.642   8.951 -0.8063 -0.1909  0.9775
  531MOL0     C71579   8.340   7.637   8.944  0.3380  1.0187  0.0086
  531MOL0     O71580   8.402   7.612   9.066 -0.1187  0.4341  0.1375
  531MOL0     C71581   8.541   7.603   9.074 -0.3582 -0.1676  0.5192
  531MOL0     C71582   8.624   7.512   9.016  1.3989 -0.7193  0.3257
  531MOL0     C71583   8.764   7.519   9.029  0.4507 -0.0634  0.4351
  531MOL0     C71584   8.824   7.618   9.115  0.9039  0.1692  0.6285
  531MOL0     O71585   8.954   7.636   9.129  0.5160  0.1503 -0.0602
  531MOL0     C71586   9.047   7.533   9.118 -0.5999 -0.3986  1.1073
  531MOL0     C71587   9.171   7.592   9.180 -0.2850  0.4166 -0.5325
  531MOL0     C71588   9.159   7.618   9.329  0.4793  0.8190 -0.2300
  531MOL0     C71589   9.306   7.654   9.366  0.7348  0.4019 -0.0115
  531MOL0     C71590   9.329   7.706   9.509 -0.3970  0.2597 -0.1235
  531MOL0     C71591   9.477   7.726   9.550  0.0037 -0.2725  0.4433
  531MOL0     C71592   9.485   7.761   9.693 -0.1206  0.1629 -0.1390
  531MOL0     C71593   9.423   7.891   9.742 -1.5616 -1.0836 -0.0848
  531MOL0    Cl71594   9.502   7.933   9.898  0.1298  0.1402  0.4340
  531MOL0     C71595   8.735   7.714   9.179 -0.0938 -0.4626 -0.3147
  531MOL0     C71596   8.600   7.700   9.154 -0.3305  0.7095 -0.8466
  531MOL0     O71597   8.397   7.661   8.842  0.1759  0.2200  0.8817
  531MOL0     C71598   8.132   7.559   9.039  0.7533 -0.4963 -0.5198
  531MOL0     C71599   7.994   7.552   9.045  0.1151 -0.3437 -0.6240
  531MOL0     N71600   7.218   7.609   9.206  0.1161  0.2387 -0.4458
  531MOL0     N71601   7.172   7.501   9.266 -0.1275 -0.5984 -0.1113
  531MOL0     C71602   6.191   7.321   9.735  0.1624 -0.1069  0.0182
  531MOL0     C71603   6.052   7.319   9.739  0.4420 -0.7532 -0.0961
  531MOL0     C71604   5.611   7.317   9.642  0.1060  0.3921 -0.6367
  531MOL0     C71605   5.520   7.252   9.728 -0.2166  0.2068 -0.0316
  531MOL0     C71606   5.385   7.278   9.729  1.4496 -0.2289  0.0312
  531MOL0     C71607   5.330   7.370   9.631  0.6665  0.0855 -0.5432
  531MOL0     O71608   5.196   7.407   9.611  0.1119  0.1312  0.1769
  531MOL0     C71609   5.106   7.416   9.724 -0.0413  0.6300 -0.0715
  531MOL0     C71610   5.009   7.301   9.720  0.7846  0.2852 -0.2075
  531MOL0     C71611   4.906   7.322   9.606  0.1799 -0.0011 -0.1704
  531MOL0     C71612   4.801   7.211   9.629  0.0303  0.0811  0.9586
  531MOL0     C71613   4.685   7.241   9.705 -0.0445 -0.3195  0.0900
  531MOL0     C71614   4.589   7.279   9.764  0.0514 -0.6272  0.3847
  531MOL0     C71615   5.419   7.421   9.545 -0.0603 -0.3689 -0.6827
  531MOL0     C71616   5.557   7.412   9.548 -0.2209 -0.2100  0.7131
  531MOL0     C71617   5.633   7.497   9.444 -0.4421 -0.1996 -0.0834
  531MOL0     H71618   5.992   7.511   9.463 -1.5333 -0.3312  0.7646
  531MOL0     H71619   6.241   7.538   9.493 -0.6802  0.5884  1.1921
  531MOL0     H71620   6.420   7.290   9.478  3.4576  0.8222 -2.6138
  531MOL0     H71621   6.456   7.463   9.475 -0.4773 -0.5957 -0.7175
  531MOL0     H71622   6.616   7.275   9.661 -1.4823  0.0176  1.3775
  531MOL0     H71623   6.649   7.450   9.613  2.2710 -0.0122 -3.0424
  531MOL0     H71624   6.668   7.212   9.430 -3.0247  1.9683 -0.0529
  531MOL0     H71625   6.805   7.279   9.514  0.3473 -1.3098 -2.1372
  531MOL0     H71626   6.640   7.410   9.306  0.4399 -2.4968 -0.0317
  531MOL0     H71627   6.732   7.509   9.429  0.3676  0.9299 -1.7213
  531MOL0     H71628   6.840   7.488   9.208 -1.8958  1.1359  1.4504
  531MOL0     H71629   6.921   7.406   9.352 -1.4189 -0.7075  0.4907
  531MOL0     H71630   6.838   7.184   9.263  0.3164 -0.8204 -0.8790
  531MOL0     H71631   6.750   7.272   9.138 -0.5837  0.2358  1.3615
  531MOL0     H71632   6.953   7.332   9.017  0.6549 -0.7440 -0.1723
  531MOL0     H71633   6.950   7.161   9.034 -3.0381 -0.7297 -0.1039
  531MOL0     H71634   7.100   7.224   9.266  3.6804 -1.2066 -1.0784
  531MOL0     H71635   7.168   7.210   9.106 -1.3400  0.6761 -2.1118
  531MOL0     H71636   7.246   7.387   8.967 -1.6021 -0.6743 -0.5113
  531MOL0     H71637   7.330   7.632   8.888 -1.3422  1.0152 -0.2440
  531MOL0     H71638   7.300   7.765   9.015 -0.9159 -0.8865  2.4978
  531MOL0     H71639   7.535   7.742   8.973  1.4019  0.9667  1.8128
  531MOL0     H71640   7.488   7.731   9.128  1.6065  2.9060 -2.7630
  531MOL0     H71641   7.562   7.503   8.924 -1.2878  2.0657 -2.2394
  531MOL0     H71642   7.517   7.469   9.091  0.4943  0.8365  0.8913
  531MOL0     H71643   7.738   7.462   9.088  2.9670  0.1399 -2.0319
  531MOL0     H71644   7.713   7.617   9.166  0.0851  0.0887  0.7969
  531MOL0     H71645   7.918   7.761   8.793  0.1348 -0.3828 -0.6299
  531MOL0     H71646   8.170   7.764   8.771 -1.2095  0.2894 -0.7418
  531MOL0     H71647   8.580   7.442   8.945  0.8332 -0.2676  0.2196
  531MOL0     H71648   8.822   7.445   8.975 -2.7739 -0.7535 -2.4695
  531MOL0     H71649   9.012   7.436   9.154 -0.1037 -0.9902  0.0662
  531MOL0     H71650   9.073   7.530   9.011  0.7307  0.6715  1.3701
  531MOL0     H71651   9.258   7.536   9.145 -0.9201  0.0277 -1.5194
  531MOL0     H71652   9.188   7.691   9.138 -1.6711 -0.9411 -4.8458
  531MOL0     H71653   9.105   7.712   9.343  0.4342  0.9876 -1.4609
  531MOL0     H71654   9.127   7.532   9.390  2.1869 -0.1098 -0.5747
  531MOL0     H71655   9.356   7.728   9.302  1.9930  0.3727  0.8948
  531MOL0     H71656   9.364   7.562   9.358  0.9918  0.4446  1.1839
  531MOL0     H71657   9.278   7.636   9.577  2.1210 -0.9662  0.6010
  531MOL0     H71658   9.294   7.808   9.523  1.3113  1.0024 -1.0239
  531MOL0     H71659   9.542   7.642   9.524 -0.1617  0.3150 -2.1797
  531MOL0     H71660   9.525   7.804   9.490 -1.5434 -1.1336 -2.0665
  531MOL0     H71661   9.592   7.761   9.716 -0.0677 -3.5763  0.3374
  531MOL0     H71662   9.428   7.687   9.750  2.4575 -1.9677 -0.1241
  531MOL0     H71663   9.444   7.971   9.669 -0.5876 -1.8374 -0.6683
  531MOL0     H71664   9.314   7.883   9.745 -1.4978 -3.0410  4.3902
  531MOL0     H71665   8.769   7.800   9.235  2.4094 -1.5302 -0.0321
  531MOL0     H71666   8.537   7.768   9.210 -1.2961 -0.8435  0.0275
  531MOL0     H71667   8.173   7.482   9.103 -1.2131 -2.0732 -1.0759
  531MOL0     H71668   7.944   7.480   9.108  0.7245 -3.1975 -3.1361
  531MOL0     H71669   6.253   7.274   9.811  2.1922 -0.6818 -1.9112
  531MOL0     H71670   6.007   7.254   9.814 -4.9275  1.2288 -1.1758
  531MOL0     H71671   5.537   7.192   9.816 -2.1463 -1.2697 -0.6010
  531MOL0     H71672   5.315   7.237   9.801  0.7968 -0.1980 -0.5758
  531MOL0     H71673   5.055   7.512   9.711 -0.1958  0.5662  0.0623
  531MOL0     H71674   5.151   7.424   9.823 -1.5316 -0.9609  0.7924
  531MOL0     H71675   4.957   7.304   9.817 -0.0433 -0.3362 -0.6185
  531MOL0     H71676   5.056   7.202   9.726 -3.2120 -2.0653 -2.6850
  531MOL0     H71677   4.960   7.300   9.514  2.1352  1.9005  0.4270
  531MOL0     H71678   4.869   7.425   9.604  2.3513  1.0031  2.7740
  531MOL0     H71679   4.771   7.178   9.528  0.9210 -2.0808  1.3422
  531MOL0     H71680   4.856   7.127   9.671  0.4608 -0.0370  0.1881
  531MOL0     H71681   4.500   7.305   9.817 -0.6386 -1.4434 -0.3291
  531MOL0     H71682   5.373   7.483   9.468  0.3569  1.4119  0.4366
  531MOL0     H71683   5.570   7.558   9.378  2.0245 -0.8114 -3.2518
  531MOL0     H71684   5.698   7.565   9.500 -1.8883  2.0496 -1.0018
  531MOL0     H71685   5.685   7.431   9.375  0.2095  0.2076  0.0020
  532MOL0     O71686   0.228   8.881   1.620 -0.2221  0.0846 -0.7201
  532MOL0     C71687   0.141   8.835   1.692  0.0064 -0.0876 -0.5726
  532MOL0     O71688   0.144   8.828   1.827 -0.2243  0.1731  0.1632
  532MOL0     C71689   0.267   8.800   1.890  0.1856 -0.2118 -0.1674
  532MOL0     C71690   0.279   8.857   2.021  0.7318 -0.9961 -0.9724
  532MOL0     C71691   0.393   8.838   2.095 -0.8964  0.4702  0.1663
  532MOL0     C71692   0.502   8.769   2.043  0.9689 -0.9366 -0.1220
  532MOL0     O71693   0.610   8.771   2.124  0.1952  0.3524  0.1159
  532MOL0     C71694   0.600   8.663   2.221 -0.4413  0.0103 -0.1574
  532MOL0     C71695   0.732   8.645   2.292 -0.0054  0.4968 -0.0926
  532MOL0     C71696   0.861   8.676   2.208  0.7928 -0.4688 -0.7928
  532MOL0     C71697   0.988   8.637   2.276  0.2441 -0.7634 -0.3075
  532MOL0     C71698   1.112   8.700   2.198  0.7200 -0.5200  0.1164
  532MOL0     C71699   1.240   8.704   2.285  0.6942  0.7868 -0.9163
  532MOL0     C71700   1.226   8.807   2.394 -0.7238 -0.1220 -1.0355
  532MOL0     C71701   1.333   8.781   2.503 -0.7062  0.0451  0.4463
  532MOL0     N71702   1.469   8.791   2.450 -0.1413 -0.2502 -0.2296
  532MOL0     C71703   1.533   8.910   2.448 -0.0507  0.0518  0.2759
  532MOL0     C71704   1.651   8.890   2.377  0.4391  1.6674 -0.0593
  532MOL0     C71705   1.747   9.002   2.336  0.2009  0.2866  0.1285
  532MOL0     C71706   1.883   8.941   2.313  0.9452 -0.5337 -0.3365
  532MOL0     C71707   1.960   9.042   2.230 -0.1219 -0.0792  0.8459
  532MOL0     C71708   2.013   9.160   2.309  0.1674 -0.5756  0.5043
  532MOL0     O71709   2.141   9.195   2.256 -0.5035  0.4150  0.4103
  532MOL0     C71710   2.234   9.272   2.313 -0.8842 -0.3158 -0.1744
  532MOL0     C71711   2.225   9.351   2.429  0.0434 -0.4551  0.7203
  532MOL0     C71712   2.334   9.430   2.461  0.5209  0.5225 -0.8549
  532MOL0     C71713   2.453   9.423   2.392 -0.4126  0.0937 -0.0565
  532MOL0     C71714   2.563   9.503   2.450  0.4379 -0.4555  0.1554
  532MOL0     O71715   2.679   9.492   2.378  0.4343  0.0317 -0.1087
  532MOL0     C71716   2.793   9.542   2.438  0.4757  0.0184  0.9198
  532MOL0     C71717   2.803   9.677   2.451 -0.2405 -0.5023  0.2236
  532MOL0     C71718   2.929   9.729   2.504 -0.4371 -0.6037 -0.4476
  532MOL0     C71719   3.036   9.648   2.547  0.0695 -0.8292 -0.0409
  532MOL0     O71720   3.163   9.696   2.585 -0.1483 -0.6707  0.8306
  532MOL0     C71721   3.180   9.812   2.670  0.0711 -0.0238 -0.3003
  532MOL0     C71722   3.320   9.867   2.661 -0.3018 -0.7441 -0.8872
  532MOL0     C71723   3.353   9.971   2.772 -0.2063  0.0777 -0.0502
  532MOL0     C71724   3.496   9.998   2.774 -0.9555 -0.6158 -0.1858
  532MOL0     C71725   3.545  10.113   2.685  0.2616 -0.2315  0.2042
  532MOL0     C71726   3.688  10.145   2.710 -0.2523  0.0811 -0.7422
  532MOL0     C71727   3.785  10.023   2.698  0.1998 -0.4111  1.3156
  532MOL0     C71728   3.933  10.068   2.655  0.3226 -0.1039  0.1956
  532MOL0    Cl71729   4.053   9.928   2.644  0.0752  0.2872 -0.3632
  532MOL0     C71730   3.025   9.510   2.529  0.2383 -0.1996  0.0224
  532MOL0     C71731   2.899   9.462   2.475  0.9016 -0.2144  0.2909
  532MOL0     O71732   2.543   9.579   2.545 -0.3076  0.4615 -0.4798
  532MOL0     C71733   2.462   9.346   2.276 -0.1575 -0.0876  0.2681
  532MOL0     C71734   2.351   9.269   2.239 -0.3609  0.3766 -1.3077
  532MOL0     N71735   1.656   8.751   2.346 -0.4598 -0.1264 -1.0562
  532MOL0     N71736   1.547   8.697   2.391 -0.1286 -0.3943 -0.6304
  532MOL0     C71737   0.496   8.723   1.913 -0.6610  0.2328 -0.3121
  532MOL0     C71738   0.379   8.736   1.832 -0.2710 -0.3262  0.5969
  532MOL0     C71739   0.012   8.777   1.633  0.1453  0.1151  0.5473
  532MOL0     C71740  -0.094   8.742   1.720  0.0899 -1.1018 -0.0847
  532MOL0     C71741  -0.217   8.702   1.667 -0.2769  0.4317  0.2535
  532MOL0     C71742  -0.246   8.716   1.532 -0.7276  0.1255 -0.3835
  532MOL0     O71743  -0.378   8.709   1.496  0.8220 -0.1579  0.1026
  532MOL0     C71744  -0.416   8.769   1.373 -0.1887  0.4216  0.4439
  532MOL0     C71745  -0.556   8.817   1.374 -0.7949 -0.1648 -1.2688
  532MOL0     C71746  -0.645   8.729   1.461 -0.3810  0.0626 -1.2122
  532MOL0     C71747  -0.648   8.576   1.440  1.1371 -0.0748  0.5420
  532MOL0     C71748  -0.681   8.537   1.297 -0.4908  0.6770 -0.6643
  532MOL0     C71749  -0.709   8.497   1.179 -0.1538 -0.6867  0.1754
  532MOL0     C71750  -0.144   8.731   1.440  0.1656  0.3889 -0.3404
  532MOL0     C71751  -0.016   8.775   1.493  0.2129  1.5870  0.1945
  532MOL0     C71752   0.093   8.796   1.398  0.0855 -0.4123 -0.8198
  532MOL0     H71753   0.192   8.899   2.070  2.8393  1.7058  0.7565
  532MOL0     H71754   0.408   8.868   2.198 -1.5660 -2.9720  1.3940
  532MOL0     H71755   0.520   8.682   2.294 -0.8257 -0.3375 -0.4814
  532MOL0     H71756   0.562   8.568   2.183 -2.6232 -0.3466  2.5600
  532MOL0     H71757   0.738   8.537   2.312  2.9581  0.2229 -1.9289
  532MOL0     H71758   0.730   8.697   2.388 -2.2976  0.2557  0.0529
  532MOL0     H71759   0.856   8.784   2.191 -2.2017 -0.2297  0.9854
  532MOL0     H71760   0.862   8.624   2.111  0.4469 -0.6358 -0.7091
  532MOL0     H71761   0.993   8.685   2.374  1.2793 -0.4498 -0.5009
  532MOL0     H71762   1.000   8.528   2.281 -0.5853 -0.8206  1.0341
  532MOL0     H71763   1.135   8.661   2.099 -2.4463 -0.1116 -0.8888
  532MOL0     H71764   1.071   8.800   2.185 -1.6592 -1.4375 -0.0505
  532MOL0     H71765   1.244   8.610   2.341 -2.8462  0.9857 -0.1256
  532MOL0     H71766   1.333   8.703   2.227  0.3674 -1.2645 -1.4862
  532MOL0     H71767   1.131   8.808   2.448 -1.4997  1.2749 -2.3681
  532MOL0     H71768   1.243   8.909   2.357  2.6054 -0.4001 -0.5813
  532MOL0     H71769   1.313   8.847   2.589  1.3267  0.2853  0.7784
  532MOL0     H71770   1.300   8.679   2.525 -2.1785 -0.3181 -2.7892
  532MOL0     H71771   1.488   9.008   2.466 -2.1178 -0.0232 -3.3199
  532MOL0     H71772   1.704   9.055   2.250  0.1502  3.0293  1.7216
  532MOL0     H71773   1.747   9.078   2.415 -1.9673  3.2180 -2.4638
  532MOL0     H71774   1.931   8.924   2.410  1.4526  0.3311 -0.4318
  532MOL0     H71775   1.873   8.842   2.266  2.0343 -1.4158  1.1875
  532MOL0     H71776   1.906   9.082   2.144  0.3580  0.0803  0.6154
  532MOL0     H71777   2.039   8.992   2.173 -0.1796  0.0084  0.6885
  532MOL0     H71778   2.037   9.141   2.414  1.8292 -0.1691  0.2304
  532MOL0     H71779   1.954   9.251   2.299 -1.5667 -1.6945  0.2685
  532MOL0     H71780   2.127   9.367   2.475 -0.9617 -0.5639 -1.2827
  532MOL0     H71781   2.318   9.496   2.546  0.1381 -0.5816 -0.0481
  532MOL0     H71782   2.725   9.739   2.409 -0.6777 -0.6758  0.7621
  532MOL0     H71783   2.951   9.836   2.500 -2.3319 -0.1463  0.5321
  532MOL0     H71784   3.098   9.883   2.662  0.3505  0.1570 -2.2075
  532MOL0     H71785   3.164   9.777   2.772 -3.6495 -2.1762 -1.4277
  532MOL0     H71786   3.395   9.789   2.650  1.4304  0.2071  2.5670
  532MOL0     H71787   3.326   9.921   2.566  0.9346  2.3857  0.8193
  532MOL0     H71788   3.300  10.059   2.736 -0.4705 -0.1125 -0.1244
  532MOL0     H71789   3.308   9.938   2.866 -0.4589  0.1348 -0.1506
  532MOL0     H71790   3.551   9.906   2.749 -1.9818 -1.5775  0.9571
  532MOL0     H71791   3.518  10.022   2.878 -1.8648  1.7828 -0.4814
  532MOL0     H71792   3.487  10.205   2.689  0.3305 -0.2168  1.0489
  532MOL0     H71793   3.530  10.078   2.582 -0.6555 -1.0904  0.6223
  532MOL0     H71794   3.715  10.219   2.633  2.0279  1.4840  1.2744
  532MOL0     H71795   3.695  10.201   2.803  2.3682 -0.0561 -0.7974
  532MOL0     H71796   3.742   9.956   2.623 -0.7932  1.8503 -0.2612
  532MOL0     H71797   3.793   9.968   2.792 -0.9657 -1.7830  0.6519
  532MOL0     H71798   3.920  10.121   2.560 -0.2969 -0.0152  0.3219
  532MOL0     H71799   3.976  10.130   2.735 -0.4605  0.9084 -0.1509
  532MOL0     H71800   3.114   9.452   2.550  0.5503 -0.4039 -1.7403
  532MOL0     H71801   2.893   9.357   2.450 -0.5854 -0.1633  0.3511
  532MOL0     H71802   2.557   9.347   2.223  0.3385  2.2976  1.0991
  532MOL0     H71803   2.366   9.202   2.155 -0.8201 -1.3416 -0.0852
  532MOL0     H71804   0.591   8.683   1.877 -0.2708  0.8223  0.0470
  532MOL0     H71805   0.372   8.706   1.728  2.4924 -0.1318  0.2862
  532MOL0     H71806  -0.085   8.742   1.828 -0.1730 -2.0145 -0.0526
  532MOL0     H71807  -0.296   8.663   1.730 -0.6059 -0.2905 -0.5932
  532MOL0     H71808  -0.397   8.692   1.297  2.9520 -0.7354  2.2089
  532MOL0     H71809  -0.353   8.853   1.342  0.4965 -0.7658 -1.6849
  532MOL0     H71810  -0.587   8.815   1.269 -1.6195  1.6965 -1.0874
  532MOL0     H71811  -0.566   8.921   1.404  0.9191 -0.0910 -0.8722
  532MOL0     H71812  -0.749   8.763   1.452 -0.8435 -1.2864 -1.1859
  532MOL0     H71813  -0.619   8.746   1.566  2.0028  2.3264 -2.0532
  532MOL0     H71814  -0.545   8.539   1.447  1.0211 -0.4712  0.1822
  532MOL0     H71815  -0.708   8.523   1.514  1.2359  0.1285  0.7685
  532MOL0     H71816  -0.734   8.478   1.076  0.8235 -1.0400  0.0017
  532MOL0     H71817  -0.150   8.711   1.333  4.3886 -1.8551 -0.4009
  532MOL0     H71818   0.114   8.903   1.407 -1.7431  0.0785 -2.0270
  532MOL0     H71819   0.188   8.742   1.405  1.4380  1.8264 -0.6719
  532MOL0     H71820   0.050   8.781   1.299 -1.4027  0.4758 -0.3416
  533MOL0     O71821   4.944   0.243   8.476  0.8386 -0.1199  0.0208
  533MOL0     C71822   4.906   0.127   8.503  0.2605  0.0672 -0.1085
  533MOL0     O71823   4.985   0.025   8.523  0.1620 -0.9758  0.2119
  533MOL0     C71824   5.123   0.030   8.490 -0.2105  0.3209 -0.1522
  533MOL0     C71825   5.198  -0.056   8.571  0.1856 -0.5375  0.2098
  533MOL0     C71826   5.337  -0.059   8.544  1.2235 -0.2841 -0.5554
  533MOL0     C71827   5.389  -0.005   8.430  0.2795  0.2889  0.2543
  533MOL0     O71828   5.518  -0.051   8.401  0.2184 -0.8381  0.1331
  533MOL0     C71829   5.601   0.025   8.303  0.5925  0.6920  0.2566
  533MOL0     C71830   5.757   0.005   8.319  1.3324 -0.3362  0.2283
  533MOL0     C71831   5.825   0.089   8.437  0.1597 -1.1068 -0.4186
  533MOL0     C71832   5.975   0.080   8.433 -0.6514 -0.2974 -0.3380
  533MOL0     C71833   6.029   0.146   8.560  1.1817  0.9225  1.0067
  533MOL0     C71834   6.183   0.148   8.546  0.5750  0.1752  0.2073
  533MOL0     C71835   6.259   0.228   8.658  0.1315 -0.0493 -0.2320
  533MOL0     C71836   6.414   0.268   8.632 -0.1393 -0.3381 -0.2234
  533MOL0     N71837   6.488   0.163   8.563  0.3578 -0.5730  0.2801
  533MOL0     C71838   6.510   0.046   8.611  0.6999  0.1416 -0.2336
  533MOL0     C71839   6.533  -0.035   8.502  0.4455 -0.7631  0.4253
  533MOL0     C71840   6.561  -0.184   8.497 -0.2307  0.0206  0.1913
  533MOL0     C71841   6.438  -0.270   8.512  0.0748 -0.3651 -0.4539
  533MOL0     C71842   6.364  -0.302   8.386 -0.5892 -0.2571  0.4322
  533MOL0     C71843   6.449  -0.347   8.272 -0.9620  0.3794  0.0134
  533MOL0     O71844   6.382  -0.440   8.188  0.0775  0.0938 -0.2696
  533MOL0     C71845   6.429  -0.454   8.055  0.6212 -0.2891  0.6714
  533MOL0     C71846   6.333  -0.432   7.950 -0.2156  0.6755 -0.0449
  533MOL0     C71847   6.372  -0.434   7.818 -0.0122  0.0720 -0.3235
  533MOL0     C71848   6.510  -0.448   7.782  0.7331  0.0060  0.2475
  533MOL0     C71849   6.554  -0.441   7.643  0.4304  0.1877 -0.1716
  533MOL0     O71850   6.687  -0.474   7.628  0.0036  0.2399  0.0932
  533MOL0     C71851   6.729  -0.489   7.494 -0.1772  0.2088 -0.7084
  533MOL0     C71852   6.698  -0.401   7.394 -0.5647 -0.6251 -0.3458
  533MOL0     C71853   6.757  -0.430   7.262  0.4641 -0.2340 -1.1907
  533MOL0     C71854   6.831  -0.541   7.240 -0.3550 -0.1373  0.3991
  533MOL0     O71855   6.877  -0.565   7.111  0.1287  0.0570  0.7174
  533MOL0     C71856   7.007  -0.620   7.096 -0.2476 -0.6405  0.0499
  533MOL0     C71857   7.065  -0.589   6.955 -0.8878 -0.3660 -0.3757
  533MOL0     C71858   7.016  -0.691   6.857 -0.5452  0.0644 -0.3707
  533MOL0     C71859   7.102  -0.694   6.731 -0.2124 -0.3905  0.0051
  533MOL0     C71860   7.054  -0.797   6.629  0.0553  0.2864  0.6327
  533MOL0     C71861   7.136  -0.801   6.493  0.1615 -0.0861 -0.4391
  533MOL0     C71862   7.276  -0.858   6.521 -0.4693  0.5307 -0.4941
  533MOL0     C71863   7.352  -0.888   6.393 -0.1909 -0.0024  0.2187
  533MOL0    Cl71864   7.417  -0.743   6.301  0.1101 -0.0430  0.1987
  533MOL0     C71865   6.861  -0.620   7.347  0.0819  0.3724  0.4847
  533MOL0     C71866   6.809  -0.592   7.471 -0.2386  0.1676  0.1259
  533MOL0     O71867   6.467  -0.430   7.555 -0.1437 -0.0137 -0.3855
  533MOL0     C71868   6.600  -0.469   7.885  0.4850 -0.5478  0.4300
  533MOL0     C71869   6.566  -0.464   8.020 -0.1317 -0.5183  0.1749
  533MOL0     N71870   6.543   0.054   8.393 -0.3491 -0.6809  0.4702
  533MOL0     N71871   6.520   0.176   8.435 -0.2876  0.4976  1.4412
  533MOL0     C71872   5.307   0.065   8.341 -0.8644  0.3477  0.0840
  533MOL0     C71873   5.176   0.095   8.370  0.3419  0.3361 -0.3467
  533MOL0     C71874   4.754   0.108   8.535 -0.2943  0.4186  0.1192
  533MOL0     C71875   4.731   0.012   8.642 -0.8155 -0.2750 -0.1581
  533MOL0     C71876   4.604  -0.019   8.682 -0.1141 -0.6203  0.4856
  533MOL0     C71877   4.496   0.041   8.616 -0.3462 -0.7784  0.5739
  533MOL0     O71878   4.372   0.010   8.668 -0.1759 -0.3701  0.3966
  533MOL0     C71879   4.267  -0.011   8.568  0.3471  0.0129 -0.4433
  533MOL0     C71880   4.143  -0.071   8.619  0.4949 -0.1314  0.2879
  533MOL0     C71881   4.070   0.018   8.717  0.5927  0.2101 -0.5162
  533MOL0     C71882   3.914  -0.008   8.727 -0.4146 -0.3239  0.0695
  533MOL0     C71883   3.843   0.035   8.606 -0.0055 -0.2961  0.3238
  533MOL0     C71884   3.772   0.064   8.509  0.2565 -0.1474 -0.3604
  533MOL0     C71885   4.512   0.132   8.518 -0.1369  0.2191  0.0606
  533MOL0     C71886   4.643   0.178   8.477  0.2333 -0.1364 -0.6627
  533MOL0     C71887   4.663   0.291   8.388  0.2862 -0.8086  0.0553
  533MOL0     H71888   5.155  -0.114   8.652  0.5257  0.5582  1.1999
  533MOL0     H71889   5.398  -0.109   8.618  0.6815  1.1804  0.9256
  533MOL0     H71890   5.570   0.002   8.200  1.1715  0.1034  0.2075
  533MOL0     H71891   5.581   0.132   8.317 -0.3016  0.5299  0.2952
  533MOL0     H71892   5.804   0.041   8.227 -0.9291  0.3910 -0.7307
  533MOL0     H71893   5.771  -0.102   8.335 -0.3665 -0.7223 -0.5884
  533MOL0     H71894   5.784   0.061   8.534 -0.2519  0.9606  0.0453
  533MOL0     H71895   5.815   0.198   8.432  0.7912 -0.9719  0.8948
  533MOL0     H71896   6.005  -0.025   8.434 -1.0002 -0.4795 -2.6111
  533MOL0     H71897   6.007   0.134   8.343  0.8056  2.0582  1.5003
  533MOL0     H71898   5.994   0.249   8.578 -0.0557  0.3812  1.8197
  533MOL0     H71899   6.004   0.095   8.654  3.2768  0.2010  1.2026
  533MOL0     H71900   6.237   0.054   8.538  1.7390  0.8755 -0.4262
  533MOL0     H71901   6.209   0.195   8.451 -2.0948  2.1632  0.3133
  533MOL0     H71902   6.258   0.173   8.752 -0.4017  1.0993  0.4541
  533MOL0     H71903   6.215   0.324   8.685  0.8503  1.0934 -2.7748
  533MOL0     H71904   6.396   0.361   8.576 -1.8771  1.4315  3.0009
  533MOL0     H71905   6.470   0.299   8.721  0.6939  0.1989 -0.9109
  533MOL0     H71906   6.496   0.030   8.717 -1.7746 -2.0068 -0.7674
  533MOL0     H71907   6.616  -0.214   8.408 -1.3975  0.1673 -0.5995
  533MOL0     H71908   6.617  -0.208   8.588 -0.2165  1.0373  0.4557
  533MOL0     H71909   6.459  -0.365   8.563 -1.1118 -0.2038  0.3572
  533MOL0     H71910   6.383  -0.213   8.587 -0.7069  0.3439 -1.5374
  533MOL0     H71911   6.304  -0.218   8.351 -0.3842 -1.3614 -2.9815
  533MOL0     H71912   6.287  -0.378   8.404  0.9330 -2.0793 -0.3928
  533MOL0     H71913   6.530  -0.400   8.323 -0.8298  0.3426 -0.2311
  533MOL0     H71914   6.494  -0.254   8.236 -2.2401  1.7897  1.8553
  533MOL0     H71915   6.226  -0.431   7.971 -0.4328 -2.4179 -0.4989
  533MOL0     H71916   6.302  -0.423   7.736 -0.0221  1.6591 -0.1316
  533MOL0     H71917   6.655  -0.305   7.423  1.4624 -0.3710  2.2212
  533MOL0     H71918   6.734  -0.367   7.176 -1.1480  2.8412  1.2512
  533MOL0     H71919   7.067  -0.587   7.181 -2.5074  0.7734  1.1785
  533MOL0     H71920   6.999  -0.727   7.115  0.2004 -0.2008  3.3168
  533MOL0     H71921   7.030  -0.492   6.919  0.3668  0.3996  0.4032
  533MOL0     H71922   7.173  -0.588   6.970 -0.8091  1.8313 -0.6983
  533MOL0     H71923   7.013  -0.792   6.900  0.4002  0.0105 -0.4077
  533MOL0     H71924   6.918  -0.653   6.827 -0.5783  1.2876  1.1707
  533MOL0     H71925   7.205  -0.718   6.761 -1.2013 -1.3464  2.9701
  533MOL0     H71926   7.092  -0.595   6.685 -2.6405  0.2099  1.6474
  533MOL0     H71927   6.949  -0.777   6.609 -0.2550  0.6931  2.4568
  533MOL0     H71928   7.054  -0.898   6.671  1.2151  0.5377  1.2904
  533MOL0     H71929   7.091  -0.875   6.426 -2.5641  1.5861 -0.6139
  533MOL0     H71930   7.129  -0.704   6.442  3.8919 -0.7543 -2.5724
  533MOL0     H71931   7.265  -0.944   6.587  1.0115  2.4797  2.4828
  533MOL0     H71932   7.334  -0.787   6.580 -0.0002 -0.2689  0.0265
  533MOL0     H71933   7.439  -0.947   6.423  0.7187  1.0798 -0.1837
  533MOL0     H71934   7.293  -0.936   6.314 -1.2845  0.4690  0.7338
  533MOL0     H71935   6.932  -0.702   7.338  1.5995  1.6828  0.0208
  533MOL0     H71936   6.845  -0.657   7.550 -1.3629  0.3356  0.7953
  533MOL0     H71937   6.705  -0.489   7.864 -0.3505 -2.8685 -2.2058
  533MOL0     H71938   6.647  -0.484   8.090  0.0254 -0.0173  0.1387
  533MOL0     H71939   5.347   0.101   8.247 -0.2591 -0.5925 -0.0250
  533MOL0     H71940   5.114   0.160   8.309  0.2068 -1.0779 -1.7853
  533MOL0     H71941   4.810  -0.044   8.692 -2.0066 -1.1241  0.8424
  533MOL0     H71942   4.590  -0.092   8.761  4.4393 -0.9945  1.1871
  533MOL0     H71943   4.307  -0.069   8.484  0.4790 -0.6859  0.0945
  533MOL0     H71944   4.250   0.092   8.534 -1.2151  0.4123  1.3809
  533MOL0     H71945   4.166  -0.161   8.677  1.8334  0.9029  1.4537
  533MOL0     H71946   4.081  -0.089   8.531  4.3972  0.8605 -3.0168
  533MOL0     H71947   4.084   0.125   8.699  0.3589  0.9258  2.9148
  533MOL0     H71948   4.110   0.001   8.817 -0.1764 -0.1277 -0.2629
  533MOL0     H71949   3.910  -0.117   8.732  1.2149 -0.4213 -0.0312
  533MOL0     H71950   3.872   0.046   8.813 -2.3581  1.8038 -2.0825
  533MOL0     H71951   3.710   0.091   8.425  0.6514 -0.0931 -0.6356
  533MOL0     H71952   4.427   0.184   8.475 -0.9769 -0.8265  0.4356
  533MOL0     H71953   4.737   0.265   8.312  2.0253 -2.0188  2.0451
  533MOL0     H71954   4.574   0.322   8.334  0.8012  1.0309  0.1933
  533MOL0     H71955   4.701   0.376   8.447  0.0524 -1.4037  1.0964
  534MOL0     O71956   0.432   4.616   1.562 -0.5677  0.2579 -0.2623
  534MOL0     C71957   0.452   4.514   1.493 -0.1959 -0.2166 -0.2665
  534MOL0     O71958   0.575   4.440   1.489  0.8828  0.1178 -0.8937
  534MOL0     C71959   0.640   4.436   1.607  0.3150  0.4143  0.5719
  534MOL0     C71960   0.663   4.308   1.658 -0.4069  0.2151 -0.0862
  534MOL0     C71961   0.736   4.292   1.779  0.7320 -0.9247  0.7131
  534MOL0     C71962   0.773   4.406   1.849  0.4618  0.4674 -0.5523
  534MOL0     O71963   0.839   4.402   1.970 -0.4083  0.1882  0.0482
  534MOL0     C71964   0.949   4.312   1.992  0.2350  1.2668 -0.5805
  534MOL0     C71965   1.049   4.362   2.095  0.7636 -0.2563 -0.3335
  534MOL0     C71966   0.971   4.405   2.220 -0.8213 -0.2589  0.6303
  534MOL0     C71967   1.039   4.375   2.352  0.1554 -0.2278 -0.7870
  534MOL0     C71968   1.025   4.229   2.407 -0.2683 -0.1930 -1.2027
  534MOL0     C71969   1.095   4.111   2.344  0.5913 -0.4545 -0.4143
  534MOL0     C71970   1.249   4.129   2.360  0.4907  0.3644 -0.2764
  534MOL0     C71971   1.277   4.068   2.505 -0.3454 -0.7166 -0.4395
  534MOL0     N71972   1.418   4.013   2.508  1.0890 -0.1840 -0.0090
  534MOL0     C71973   1.528   4.103   2.518  0.0358 -0.3490 -0.0498
  534MOL0     C71974   1.635   4.041   2.469  0.1866 -0.4822 -0.2244
  534MOL0     C71975   1.771   4.100   2.473 -0.2091 -0.7019  0.9283
  534MOL0     C71976   1.836   4.109   2.609  0.8056  0.5872 -1.2679
  534MOL0     C71977   1.964   4.191   2.635  0.8543 -0.2715  1.4381
  534MOL0     C71978   2.085   4.156   2.551  0.7989 -0.8608 -0.7098
  534MOL0     O71979   2.198   4.228   2.595  0.0596 -0.5865 -0.4278
  534MOL0     C71980   2.322   4.188   2.540 -0.1110 -0.0419  0.3141
  534MOL0     C71981   2.350   4.073   2.468 -0.8971 -0.9130  0.2820
  534MOL0     C71982   2.491   4.038   2.436  0.4876 -0.0292  0.0961
  534MOL0     C71983   2.592   4.134   2.455  0.0557 -0.8355 -0.5277
  534MOL0     C71984   2.725   4.099   2.415  1.0454  0.6793  0.1479
  534MOL0     O71985   2.747   3.971   2.375  0.4007  0.0876  0.2381
  534MOL0     C71986   2.873   3.924   2.352  0.2777 -0.2935 -0.8929
  534MOL0     C71987   2.976   3.947   2.440  0.3766  0.0624  0.0923
  534MOL0     C71988   3.107   3.907   2.427 -0.1191 -0.3579 -0.6822
  534MOL0     C71989   3.140   3.835   2.314  0.9663 -0.2530 -0.3788
  534MOL0     O71990   3.269   3.785   2.317  0.2998 -0.2261  1.0792
  534MOL0     C71991   3.277   3.655   2.248  0.1792 -0.4016  0.8611
  534MOL0     C71992   3.417   3.585   2.267  0.8502 -0.7582  0.4639
  534MOL0     C71993   3.444   3.473   2.172 -1.3742 -0.2529  0.7728
  534MOL0     C71994   3.560   3.389   2.212  0.0265  0.7168  0.4206
  534MOL0     C71995   3.690   3.468   2.249  0.7704 -0.3466  0.4515
  534MOL0     C71996   3.807   3.368   2.254  0.1349  0.2612  0.7153
  534MOL0     C71997   3.850   3.340   2.110 -0.1715  0.2257  0.5852
  534MOL0     C71998   3.986   3.279   2.112 -0.4232  0.2363 -0.3134
  534MOL0    Cl71999   4.016   3.225   1.952  0.1477 -0.2441  0.3987
  534MOL0     C72000   3.040   3.811   2.213  0.8016  0.8405 -0.2544
  534MOL0     C72001   2.905   3.846   2.240  0.1271 -0.6064 -0.7977
  534MOL0     O72002   2.805   4.187   2.433 -0.3140  0.5975 -0.2245
  534MOL0     C72003   2.555   4.253   2.521  0.2242 -0.0248 -0.0979
  534MOL0     C72004   2.427   4.275   2.573  0.4265 -0.6556 -0.2006
  534MOL0     N72005   1.599   3.920   2.426 -0.9319  0.3744  0.1749
  534MOL0     N72006   1.469   3.901   2.443  0.2949 -1.1617  0.5229
  534MOL0     C72007   0.742   4.527   1.799  0.1800 -0.1050 -0.0723
  534MOL0     C72008   0.690   4.544   1.674  0.0919 -0.4404 -0.4248
  534MOL0     C72009   0.345   4.488   1.399  0.5884 -0.7646 -0.5880
  534MOL0     C72010   0.312   4.354   1.403  0.3744 -0.3278  0.1337
  534MOL0     C72011   0.190   4.303   1.342 -0.3200 -0.3311 -0.3460
  534MOL0     C72012   0.124   4.393   1.259 -0.3790 -0.4679 -0.6620
  534MOL0     O72013   0.021   4.334   1.191  0.2550 -0.0446 -0.0833
  534MOL0     C72014  -0.043   4.421   1.105  0.0464 -0.3581 -0.5457
  534MOL0     C72015  -0.137   4.345   1.022 -0.3233  0.8269 -0.5130
  534MOL0     C72016  -0.238   4.287   1.112  0.4441  0.0352 -1.3022
  534MOL0     C72017  -0.332   4.195   1.025  0.0677  0.5653 -0.1722
  534MOL0     C72018  -0.450   4.150   1.106 -0.0245 -0.5312 -0.9663
  534MOL0     C72019  -0.553   4.112   1.166  0.4777  0.5983  0.0768
  534MOL0     C72020   0.159   4.530   1.251 -0.0395 -0.6510  0.1293
  534MOL0     C72021   0.254   4.589   1.341 -0.6644  0.9853  0.2301
  534MOL0     C72022   0.261   4.742   1.358 -1.1380  0.4216 -0.0946
  534MOL0     H72023   0.640   4.219   1.600  1.5130 -1.4059  1.5074
  534MOL0     H72024   0.753   4.194   1.823 -1.4390 -0.9037  1.7359
  534MOL0     H72025   0.906   4.219   2.030  0.5027  0.3794 -2.3154
  534MOL0     H72026   0.997   4.291   1.895 -1.6602 -3.0602 -0.8102
  534MOL0     H72027   1.114   4.439   2.054 -2.4200  1.5672 -2.3795
  534MOL0     H72028   1.118   4.282   2.125  1.6977  0.7882  0.3614
  534MOL0     H72029   0.872   4.360   2.222 -0.1561 -2.1974 -2.8030
  534MOL0     H72030   0.961   4.513   2.205 -4.0106 -0.5101  0.3811
  534MOL0     H72031   1.142   4.408   2.337 -0.5311  1.7441 -1.4349
  534MOL0     H72032   0.995   4.442   2.426  3.1419  3.9768 -2.4250
  534MOL0     H72033   1.061   4.231   2.510 -2.0867  0.6322 -0.5368
  534MOL0     H72034   0.918   4.206   2.419 -0.4918  0.9899 -0.8272
  534MOL0     H72035   1.058   4.029   2.407 -0.5034  0.4134  0.1140
  534MOL0     H72036   1.065   4.106   2.239  1.8467 -1.2262 -0.7579
  534MOL0     H72037   1.267   4.236   2.344 -0.0319  0.3852 -0.7431
  534MOL0     H72038   1.308   4.072   2.288  0.1925  1.2180 -1.2153
  534MOL0     H72039   1.265   4.140   2.586  0.7231 -0.8710 -0.1230
  534MOL0     H72040   1.207   3.986   2.522 -0.3857 -0.5557  0.1972
  534MOL0     H72041   1.529   4.204   2.557  1.9135  0.0090 -0.8988
  534MOL0     H72042   1.837   4.038   2.412 -1.6139  0.2988 -1.7736
  534MOL0     H72043   1.758   4.196   2.422 -1.4252 -1.8712 -1.0944
  534MOL0     H72044   1.767   4.168   2.670 -0.1117 -0.1388 -1.5742
  534MOL0     H72045   1.844   4.010   2.654 -0.9219 -0.5352 -3.2487
  534MOL0     H72046   1.992   4.177   2.740 -0.7044  0.1394  1.9316
  534MOL0     H72047   1.942   4.295   2.611  0.4634  0.1299  3.3735
  534MOL0     H72048   2.059   4.190   2.450  2.0388  3.4761  0.2009
  534MOL0     H72049   2.105   4.049   2.560  0.3214 -1.1177 -2.2894
  534MOL0     H72050   2.275   4.003   2.434 -0.8348 -0.2143 -1.3821
  534MOL0     H72051   2.514   3.939   2.397  1.7412  0.8022 -1.4123
  534MOL0     H72052   2.953   4.001   2.531 -0.3061 -0.4268  0.2236
  534MOL0     H72053   3.177   3.939   2.504 -1.1603  0.7876 -0.1898
  534MOL0     H72054   3.205   3.579   2.280 -2.1820 -0.0809 -3.0950
  534MOL0     H72055   3.261   3.675   2.142 -0.4369 -0.4843  0.9377
  534MOL0     H72056   3.490   3.663   2.245  0.2448 -0.1402  0.6275
  534MOL0     H72057   3.424   3.546   2.370  1.2612  0.8899  1.0892
  534MOL0     H72058   3.353   3.415   2.157 -0.4670 -1.3567 -0.8938
  534MOL0     H72059   3.460   3.521   2.075 -0.6499  0.6317  1.3118
  534MOL0     H72060   3.589   3.328   2.127  0.4376  2.6130 -0.8776
  534MOL0     H72061   3.533   3.316   2.289  0.4702  1.0547  0.9099
  534MOL0     H72062   3.661   3.515   2.343 -2.5669 -0.1981 -0.4920
  534MOL0     H72063   3.711   3.544   2.174  1.4202 -2.0436 -1.1761
  534MOL0     H72064   3.895   3.409   2.305  1.8513  1.3048 -2.7482
  534MOL0     H72065   3.785   3.275   2.306 -0.0383 -0.8064 -1.1867
  534MOL0     H72066   3.854   3.432   2.052  0.6514  0.6575  1.3046
  534MOL0     H72067   3.779   3.270   2.065 -1.0518  0.6362  1.2986
  534MOL0     H72068   4.064   3.350   2.139  0.1209 -0.0594 -1.0917
  534MOL0     H72069   3.983   3.191   2.177 -0.0270  1.6106  1.6831
  534MOL0     H72070   3.062   3.765   2.117 -0.4193  2.7520 -1.5413
  534MOL0     H72071   2.826   3.817   2.172 -0.9828  1.0560 -0.2757
  534MOL0     H72072   2.636   4.318   2.552  1.3768 -1.8549  0.8941
  534MOL0     H72073   2.389   4.363   2.625  0.4663 -0.2876 -0.7859
  534MOL0     H72074   0.785   4.612   1.851  1.6941 -0.1928 -1.1195
  534MOL0     H72075   0.688   4.637   1.618 -0.9949 -1.1403 -1.5884
  534MOL0     H72076   0.382   4.286   1.451  2.6682  2.5466  1.1279
  534MOL0     H72077   0.168   4.197   1.350  0.5462 -0.4443  0.7751
  534MOL0     H72078   0.013   4.485   1.037  0.0519 -0.4324 -0.6126
  534MOL0     H72079  -0.092   4.495   1.169  0.5488 -0.3668 -0.1479
  534MOL0     H72080  -0.091   4.273   0.954  0.6625  0.3112  0.6629
  534MOL0     H72081  -0.190   4.419   0.961  1.5195  1.5189 -1.3554
  534MOL0     H72082  -0.299   4.370   1.148  0.2636 -0.4187 -0.5430
  534MOL0     H72083  -0.188   4.232   1.192  0.6397  0.3240 -1.2241
  534MOL0     H72084  -0.370   4.240   0.933  0.5926 -2.5313 -2.0440
  534MOL0     H72085  -0.280   4.109   0.980 -1.6951  0.0149 -1.2864
  534MOL0     H72086  -0.631   4.072   1.227  0.1911  1.6154  0.4048
  534MOL0     H72087   0.089   4.596   1.201  2.4236  1.6227 -0.5113
  534MOL0     H72088   0.346   4.777   1.418 -0.5357  2.1810 -1.8616
  534MOL0     H72089   0.276   4.792   1.261  0.5749 -1.9143 -1.1296
  534MOL0     H72090   0.171   4.775   1.411 -0.8571 -0.2251  0.8130
  535MOL0     O72091   5.650   6.423   0.658  0.1573 -0.2497 -0.0546
  535MOL0     C72092   5.767   6.423   0.693  0.0510  0.3962 -0.2580
  535MOL0     O72093   5.826   6.502   0.786 -0.3779 -0.5317 -0.0558
  535MOL0     C72094   5.763   6.613   0.834  0.2701  0.2999 -0.1030
  535MOL0     C72095   5.838   6.731   0.849 -0.3690 -0.3223  0.6289
  535MOL0     C72096   5.793   6.839   0.928  0.6309 -0.7628 -0.0266
  535MOL0     C72097   5.664   6.838   0.984 -0.9756  0.6372 -0.2463
  535MOL0     O72098   5.610   6.942   1.051 -0.8760 -0.0014  0.1674
  535MOL0     C72099   5.661   7.078   1.038  1.0551  0.2647 -0.3150
  535MOL0     C72100   5.561   7.173   1.105  0.6873 -0.1016 -0.3841
  535MOL0     C72101   5.613   7.314   1.100  0.1250  0.4158  0.3344
  535MOL0     C72102   5.745   7.355   1.182 -0.5735  0.1340  0.2219
  535MOL0     C72103   5.776   7.505   1.157 -0.8212 -0.2952  0.2418
  535MOL0     C72104   5.910   7.548   1.222  0.4545 -0.2762 -0.0491
  535MOL0     C72105   5.964   7.677   1.155  0.5636  0.6286 -0.2734
  535MOL0     C72106   6.109   7.706   1.190 -0.2817  0.8095 -0.6168
  535MOL0     N72107   6.212   7.638   1.102 -0.5289 -0.7680  0.0011
  535MOL0     C72108   6.245   7.505   1.084  0.0683 -0.9743  0.0935
  535MOL0     C72109   6.350   7.514   0.997  0.3110  0.5001 -0.1912
  535MOL0     C72110   6.410   7.383   0.954  0.8850 -0.0479  0.4647
  535MOL0     C72111   6.544   7.347   0.992 -0.4888 -0.5622  0.2914
  535MOL0     C72112   6.644   7.470   0.973 -0.0785  0.2960  0.0863
  535MOL0     C72113   6.788   7.444   1.016  0.1320  0.4982  0.3448
  535MOL0     O72114   6.845   7.334   0.930  1.2652 -0.0615  0.3593
  535MOL0     C72115   6.965   7.366   0.879  0.1111 -0.0058 -0.4014
  535MOL0     C72116   6.984   7.447   0.766 -0.2919 -0.5721  0.3034
  535MOL0     C72117   7.118   7.482   0.739 -0.1200  0.2691 -0.2317
  535MOL0     C72118   7.223   7.440   0.812  0.1736  0.5672 -0.1419
  535MOL0     C72119   7.358   7.489   0.786 -0.3572 -0.5690  0.2166
  535MOL0     O72120   7.456   7.441   0.875  0.5779 -0.5466  0.2495
  535MOL0     C72121   7.585   7.489   0.891 -0.4137  0.3077 -0.5968
  535MOL0     C72122   7.674   7.412   0.976  0.1668 -0.4454 -0.3358
  535MOL0     C72123   7.805   7.448   1.007 -0.1019 -0.1097  0.0358
  535MOL0     C72124   7.851   7.564   0.952  0.3747  0.9231 -0.6762
  535MOL0     O72125   7.970   7.615   0.995 -0.0915  0.2049 -0.4248
  535MOL0     C72126   8.059   7.671   0.891 -0.3641 -0.2872  0.3390
  535MOL0     C72127   8.198   7.687   0.957 -0.3822 -0.3984  0.4767
  535MOL0     C72128   8.278   7.560   0.953  0.1209 -0.7159  0.2739
  535MOL0     C72129   8.399   7.555   1.055  0.1926  0.4343 -0.0048
  535MOL0     C72130   8.489   7.678   1.039 -0.5690 -0.1724 -0.2078
  535MOL0     C72131   8.629   7.651   1.109  0.1021 -0.6289 -0.1601
  535MOL0     C72132   8.620   7.675   1.261  0.2935 -0.3117 -0.0394
  535MOL0     C72133   8.758   7.630   1.323  0.2732 -0.0679  0.1091
  535MOL0    Cl72134   8.727   7.597   1.498  0.1389  0.3453 -0.1101
  535MOL0     C72135   7.760   7.640   0.875 -0.9113 -0.1396 -0.4625
  535MOL0     C72136   7.635   7.602   0.841  0.1694 -1.3088  0.0741
  535MOL0     O72137   7.369   7.579   0.697  0.0262 -0.4475  0.9180
  535MOL0     C72138   7.201   7.343   0.917  0.5389 -0.2694  0.3553
  535MOL0     C72139   7.073   7.309   0.953  0.5153 -0.3204  0.1341
  535MOL0     N72140   6.368   7.644   0.956 -0.9925 -0.1077  0.2171
  535MOL0     N72141   6.288   7.714   1.022  0.3644  0.2160  0.2351
  535MOL0     C72142   5.583   6.723   0.962 -0.1531 -0.1847  0.1217
  535MOL0     C72143   5.627   6.612   0.890 -0.0150 -0.7156  0.9177
  535MOL0     C72144   5.864   6.315   0.648 -0.1442 -0.0183  0.2030
  535MOL0     C72145   5.959   6.275   0.738 -0.6625 -0.1380 -0.2460
  535MOL0     C72146   6.053   6.180   0.699  0.3254  1.0030  0.1561
  535MOL0     C72147   6.057   6.120   0.572 -0.1669 -0.0714  0.7473
  535MOL0     O72148   6.135   6.009   0.554  0.4257  0.2243  0.3621
  535MOL0     C72149   6.095   5.913   0.460  0.0436  0.4091 -0.1933
  535MOL0     C72150   6.169   5.949   0.332  0.0024  0.1437  0.5118
  535MOL0     C72151   6.322   5.929   0.350  0.7036 -0.7499 -1.6344
  535MOL0     C72152   6.398   6.002   0.251 -0.3707 -0.5573  0.2787
  535MOL0     C72153   6.378   5.963   0.112  0.2526  0.7913  0.7439
  535MOL0     C72154   6.346   5.928   0.001 -0.7996 -0.1965 -0.0450
  535MOL0     C72155   5.961   6.170   0.482  0.4550  0.4002 -0.5113
  535MOL0     C72156   5.862   6.265   0.516 -0.2743  0.6081 -0.1040
  535MOL0     C72157   5.748   6.309   0.426 -0.4067 -0.1867 -0.4286
  535MOL0     H72158   5.937   6.736   0.805 -0.6700  2.0212  0.0744
  535MOL0     H72159   5.856   6.927   0.929 -0.5592  0.1219 -0.5008
  535MOL0     H72160   5.758   7.077   1.090  0.7105 -1.0269  0.3506
  535MOL0     H72161   5.679   7.104   0.933  2.4574 -4.5292 -1.5038
  535MOL0     H72162   5.540   7.143   1.208  0.2872 -0.2854 -0.5161
  535MOL0     H72163   5.466   7.169   1.051 -0.0412  0.5419  0.8170
  535MOL0     H72164   5.536   7.373   1.150  0.9573  3.2031 -1.5109
  535MOL0     H72165   5.626   7.346   0.997 -0.9408 -3.8684 -1.3782
  535MOL0     H72166   5.738   7.336   1.289 -2.2284  0.8040  0.2532
  535MOL0     H72167   5.825   7.290   1.144 -0.1596  0.9086 -0.2654
  535MOL0     H72168   5.782   7.515   1.049  3.8668 -1.3394  0.1978
  535MOL0     H72169   5.691   7.569   1.182 -0.1434  0.5564  0.3926
  535MOL0     H72170   5.893   7.574   1.326  1.1163 -0.9244  0.2375
  535MOL0     H72171   5.981   7.465   1.231  0.8305  0.0594  0.1055
  535MOL0     H72172   5.909   7.767   1.184 -0.3397  0.8171 -2.3936
  535MOL0     H72173   5.952   7.677   1.046 -1.8365  4.5295 -0.2145
  535MOL0     H72174   6.123   7.812   1.165 -0.8782  1.3133  1.0138
  535MOL0     H72175   6.121   7.694   1.298  0.4841  2.9175 -0.4091
  535MOL0     H72176   6.194   7.425   1.138  0.2338 -2.1715 -1.4587
  535MOL0     H72177   6.336   7.304   0.969 -3.2670  3.3566 -0.1151
  535MOL0     H72178   6.417   7.390   0.845  0.1962 -0.7885  0.3649
  535MOL0     H72179   6.534   7.320   1.098 -0.1657  1.4455  0.8703
  535MOL0     H72180   6.572   7.254   0.941 -2.0978 -0.3289 -1.0891
  535MOL0     H72181   6.605   7.557   1.026 -3.2132 -0.9756  0.1110
  535MOL0     H72182   6.648   7.500   0.868 -0.7309  1.1531  0.2928
  535MOL0     H72183   6.789   7.400   1.116 -0.3680 -0.2156  0.0362
  535MOL0     H72184   6.841   7.540   1.023 -0.7729  0.8824  3.5210
  535MOL0     H72185   6.906   7.501   0.713  1.9037  0.2592 -2.3398
  535MOL0     H72186   7.141   7.544   0.653 -2.0276 -0.1197 -1.0811
  535MOL0     H72187   7.634   7.318   1.012  0.3683  0.2192  1.7162
  535MOL0     H72188   7.881   7.399   1.066  0.3869  0.3832 -0.1681
  535MOL0     H72189   8.059   7.598   0.810  2.8515  2.0385 -1.9809
  535MOL0     H72190   8.022   7.766   0.852  0.2428  0.2418  1.0124
  535MOL0     H72191   8.251   7.767   0.905 -2.5482  2.0584  1.7749
  535MOL0     H72192   8.188   7.707   1.064  1.7450 -0.1843  0.6796
  535MOL0     H72193   8.207   7.480   0.979  0.5203 -0.3810  2.5602
  535MOL0     H72194   8.315   7.543   0.852  1.3528 -0.5616  0.6909
  535MOL0     H72195   8.464   7.468   1.044  0.0356  0.3423 -0.1969
  535MOL0     H72196   8.354   7.557   1.155 -0.2226  1.8768 -0.1926
  535MOL0     H72197   8.437   7.768   1.072 -0.0034 -0.1299  0.6275
  535MOL0     H72198   8.501   7.702   0.933 -1.8482  0.1200 -0.3039
  535MOL0     H72199   8.654   7.547   1.084 -0.1258 -0.1088 -2.7945
  535MOL0     H72200   8.705   7.709   1.058 -0.3614 -0.6749 -0.9129
  535MOL0     H72201   8.542   7.604   1.289 -0.0734 -0.5758 -1.6409
  535MOL0     H72202   8.591   7.776   1.290  0.0791 -0.4253  0.1449
  535MOL0     H72203   8.793   7.544   1.266  0.2164 -0.5992  0.8520
  535MOL0     H72204   8.832   7.709   1.315 -0.3328  0.5664  0.6103
  535MOL0     H72205   7.796   7.741   0.856  1.2949 -0.9023 -0.6831
  535MOL0     H72206   7.563   7.671   0.799 -1.9921 -2.7977  1.1348
  535MOL0     H72207   7.280   7.307   0.982  0.3025  0.6992  1.2130
  535MOL0     H72208   7.051   7.235   1.029 -0.5332 -1.0663 -0.8621
  535MOL0     H72209   5.482   6.730   1.002 -0.7582  0.6857 -1.4713
  535MOL0     H72210   5.566   6.525   0.911 -1.8927  0.5275  0.8355
  535MOL0     H72211   5.960   6.329   0.832 -2.1132 -1.8842  0.8481
  535MOL0     H72212   6.123   6.141   0.772  0.5558  0.4212 -0.3689
  535MOL0     H72213   5.989   5.902   0.437  0.1535 -0.7506 -0.2298
  535MOL0     H72214   6.122   5.810   0.488  2.4476  0.7492 -1.0442
  535MOL0     H72215   6.155   6.054   0.303 -1.4263 -0.2453 -0.2891
  535MOL0     H72216   6.140   5.886   0.248 -0.9864  2.0639 -0.6710
  535MOL0     H72217   6.345   5.822   0.345  0.4558 -0.9398  0.4739
  535MOL0     H72218   6.353   5.955   0.451  0.3584 -4.8484 -0.2680
  535MOL0     H72219   6.381   6.110   0.246  1.0795 -0.1800  2.1345
  535MOL0     H72220   6.500   5.984   0.286  0.5924  1.1835 -1.3866
  535MOL0     H72221   6.327   5.905  -0.102  0.5975  0.0482 -0.3795
  535MOL0     H72222   5.955   6.130   0.381 -2.0397 -0.5724 -0.0441
  535MOL0     H72223   5.648   6.286   0.463 -0.0975 -0.6056  0.1387
  535MOL0     H72224   5.750   6.418   0.411 -0.0629  0.0275  1.0649
  535MOL0     H72225   5.763   6.257   0.331  0.4770  0.6218 -0.7415
  536MOL0     O72226   4.733   7.314   4.461 -0.1302 -0.0062 -0.3358
  536MOL0     C72227   4.630   7.286   4.396  0.7042  0.2103 -0.1072
  536MOL0     O72228   4.617   7.237   4.267 -0.2960  0.0117  0.0584
  536MOL0     C72229   4.726   7.238   4.181  0.1819  0.6279  0.7637
  536MOL0     C72230   4.726   7.322   4.069  1.1369  0.7322  0.1277
  536MOL0     C72231   4.841   7.319   3.985  0.1639  0.4969  0.1464
  536MOL0     C72232   4.955   7.252   4.017 -0.8785 -0.2931 -0.0039
  536MOL0     O72233   5.068   7.271   3.937  0.6889  0.0849  0.5922
  536MOL0     C72234   5.189   7.244   3.998 -0.3174 -0.4280  0.3971
  536MOL0     C72235   5.293   7.302   3.904 -0.1430 -0.2200  0.4233
  536MOL0     C72236   5.310   7.458   3.906 -0.3983 -0.6715 -0.4355
  536MOL0     C72237   5.391   7.513   3.792  0.1517 -0.4178  1.0457
  536MOL0     C72238   5.537   7.472   3.794  0.2455  0.2432 -1.0466
  536MOL0     C72239   5.640   7.573   3.858 -0.1871 -0.0019  0.6738
  536MOL0     C72240   5.775   7.516   3.895 -0.5933  0.2950  0.5307
  536MOL0     C72241   5.846   7.459   3.771 -0.0799 -0.3578  0.2444
  536MOL0     N72242   5.888   7.571   3.682 -0.2372 -0.1257 -0.0173
  536MOL0     C72243   5.975   7.675   3.719 -0.4315 -0.2930  0.1662
  536MOL0     C72244   5.973   7.764   3.614 -0.0137  0.4263  0.2960
  536MOL0     C72245   6.036   7.905   3.598 -0.4187  0.6871  0.2460
  536MOL0     C72246   6.190   7.885   3.605  0.0590  1.0578  0.1679
  536MOL0     C72247   6.272   8.003   3.569 -0.3330  0.6024 -0.6162
  536MOL0     C72248   6.418   7.981   3.562  0.1222  0.3847  0.4132
  536MOL0     O72249   6.435   7.875   3.468 -0.9821  0.1740  0.1613
  536MOL0     C72250   6.561   7.853   3.427 -0.1595  0.1946  0.1958
  536MOL0     C72251   6.566   7.765   3.314  1.4084 -0.5988  0.2898
  536MOL0     C72252   6.676   7.760   3.232 -0.2106  0.3678  0.0539
  536MOL0     C72253   6.795   7.824   3.277  0.2632  0.5250 -0.4913
  536MOL0     C72254   6.924   7.818   3.199 -0.0038  0.2215  0.8934
  536MOL0     O72255   7.032   7.868   3.264  0.2354 -0.0150 -0.1844
  536MOL0     C72256   7.144   7.896   3.200  0.2071  1.0246  0.7763
  536MOL0     C72257   7.179   8.033   3.166  0.4069 -0.2909 -0.4800
  536MOL0     C72258   7.291   8.062   3.092 -0.0987  0.5073 -0.1663
  536MOL0     C72259   7.384   7.965   3.062  0.0466  0.6167 -0.1104
  536MOL0     O72260   7.508   7.989   3.019 -0.4828 -0.3001 -0.0785
  536MOL0     C72261   7.554   8.126   3.016  0.1228  0.8996 -0.1947
  536MOL0     C72262   7.709   8.129   2.993 -0.2584 -0.2746  0.3536
  536MOL0     C72263   7.785   8.046   3.098  0.1369  0.4995 -0.1873
  536MOL0     C72264   7.919   7.988   3.042 -0.0288 -0.6097  0.3582
  536MOL0     C72265   7.984   7.890   3.134  0.4020 -0.1118  0.5509
  536MOL0     C72266   8.057   7.967   3.250  0.0119  0.2669 -0.7083
  536MOL0     C72267   8.167   8.067   3.204  0.4811 -0.2409 -0.6441
  536MOL0     C72268   8.261   7.993   3.107 -0.7780 -1.1849  0.0756
  536MOL0    Cl72269   8.406   8.102   3.100  0.0588 -0.1273 -0.2166
  536MOL0     C72270   7.356   7.834   3.099  0.6613 -0.4057 -0.1485
  536MOL0     C72271   7.241   7.799   3.168  0.4135  0.1109 -0.7466
  536MOL0     O72272   6.920   7.778   3.083  1.0151 -0.0790  0.1303
  536MOL0     C72273   6.794   7.894   3.394 -0.5962  1.0598 -0.0157
  536MOL0     C72274   6.677   7.919   3.468 -0.5304  0.2481  0.2433
  536MOL0     N72275   5.887   7.712   3.517  0.4274 -0.0068 -0.7131
  536MOL0     N72276   5.852   7.594   3.550  0.1437  0.0679 -0.7116
  536MOL0     C72277   4.952   7.176   4.133  0.0527  0.3031  0.1531
  536MOL0     C72278   4.838   7.159   4.206 -0.8410  0.0817 -0.4292
  536MOL0     C72279   4.503   7.305   4.480  0.6542 -0.1576  0.4206
  536MOL0     C72280   4.493   7.416   4.558  1.2840 -0.4138  0.0134
  536MOL0     C72281   4.385   7.428   4.650 -0.0805 -0.6696  0.2643
  536MOL0     C72282   4.279   7.350   4.642 -0.5183 -1.0986 -0.3163
  536MOL0     O72283   4.167   7.367   4.726 -0.1161 -0.3339 -0.1935
  536MOL0     C72284   4.127   7.500   4.767 -0.2559  0.2101 -0.6254
  536MOL0     C72285   3.970   7.504   4.754 -0.2651  0.9315 -0.5476
  536MOL0     C72286   3.894   7.641   4.754 -0.7075  0.1333 -0.6384
  536MOL0     C72287   3.941   7.723   4.876  0.0880 -0.2054 -0.3900
  536MOL0     C72288   3.841   7.829   4.898  0.1262 -0.3234  0.1624
  536MOL0     C72289   3.757   7.913   4.912  0.3825  0.6795 -0.6654
  536MOL0     C72290   4.286   7.243   4.560  0.0360 -0.3321 -0.4252
  536MOL0     C72291   4.395   7.211   4.484 -0.4256 -0.5447  0.4879
  536MOL0     C72292   4.389   7.098   4.388 -0.0285  0.0320 -0.1919
  536MOL0     H72293   4.639   7.379   4.036 -0.0656 -1.3932 -0.6402
  536MOL0     H72294   4.836   7.366   3.888 -0.8811  2.0729  0.9164
  536MOL0     H72295   5.201   7.293   4.095 -4.2988  0.4985  0.5778
  536MOL0     H72296   5.199   7.136   4.010  0.4322 -0.6147 -1.5655
  536MOL0     H72297   5.288   7.254   3.806  1.8104 -0.3673  0.3561
  536MOL0     H72298   5.389   7.262   3.938 -2.1793 -3.7489  2.6432
  536MOL0     H72299   5.359   7.491   3.998 -2.0578 -0.2498  0.3328
  536MOL0     H72300   5.210   7.503   3.907 -0.4592 -0.6417 -2.4038
  536MOL0     H72301   5.344   7.485   3.697 -0.9826  1.2962  1.0392
  536MOL0     H72302   5.382   7.622   3.797  0.0102 -0.3282 -0.6006
  536MOL0     H72303   5.550   7.377   3.846  1.7157  0.7170 -0.4907
  536MOL0     H72304   5.574   7.462   3.691  3.8036  3.1472 -0.2588
  536MOL0     H72305   5.639   7.647   3.778 -0.5465 -1.7648 -1.0251
  536MOL0     H72306   5.602   7.620   3.949 -1.3194  0.0624  0.1937
  536MOL0     H72307   5.759   7.433   3.964 -0.4668  0.0392  0.2572
  536MOL0     H72308   5.832   7.589   3.952 -2.7046 -0.3249  3.7294
  536MOL0     H72309   5.933   7.399   3.801  0.9180  1.0411  0.2748
  536MOL0     H72310   5.784   7.384   3.722  1.7488 -3.0497  1.7417
  536MOL0     H72311   6.028   7.690   3.812  0.3580 -0.6273 -0.2202
  536MOL0     H72312   6.008   7.953   3.504  2.5730  0.2023 -1.0270
  536MOL0     H72313   6.001   7.966   3.682  1.3121  2.4571 -0.2484
  536MOL0     H72314   6.220   7.865   3.708  0.9317  0.7359 -0.1430
  536MOL0     H72315   6.224   7.800   3.544  0.3675  2.2808 -1.4369
  536MOL0     H72316   6.270   8.081   3.645 -0.4962 -1.3857  1.5377
  536MOL0     H72317   6.229   8.041   3.475  0.0796 -0.9703 -1.4808
  536MOL0     H72318   6.457   7.952   3.661 -0.8563 -0.3848  0.5827
  536MOL0     H72319   6.482   8.066   3.536  2.0159 -0.4063  2.1518
  536MOL0     H72320   6.471   7.725   3.283  0.0420  1.8345  1.0341
  536MOL0     H72321   6.682   7.701   3.140 -4.3270  0.2713 -0.3585
  536MOL0     H72322   7.113   8.113   3.197  0.3688 -0.5994  0.2708
  536MOL0     H72323   7.302   8.166   3.064 -0.0127  0.0670 -1.9299
  536MOL0     H72324   7.504   8.193   2.946 -0.3918  2.8208  1.8863
  536MOL0     H72325   7.545   8.166   3.117  0.3207 -1.3684  0.7963
  536MOL0     H72326   7.748   8.098   2.895  0.9324  1.6512  0.1675
  536MOL0     H72327   7.744   8.231   3.008  1.3872 -0.8456  0.6124
  536MOL0     H72328   7.818   8.110   3.180 -2.2990 -0.3972  1.5732
  536MOL0     H72329   7.725   7.961   3.131  0.5694  0.9109  1.7695
  536MOL0     H72330   7.985   8.069   3.012  0.9370 -1.3544  0.4304
  536MOL0     H72331   7.905   7.933   2.949  0.9403 -0.6460  0.2278
  536MOL0     H72332   8.050   7.821   3.080  1.1853  0.4271  0.7943
  536MOL0     H72333   7.911   7.829   3.186  0.3126 -1.2384 -0.8495
  536MOL0     H72334   7.981   8.029   3.299  1.4852  1.7176 -0.1735
  536MOL0     H72335   8.092   7.885   3.312  0.4095 -2.6310 -4.4346
  536MOL0     H72336   8.236   8.095   3.283 -1.1652  0.3571  0.6401
  536MOL0     H72337   8.111   8.151   3.162 -3.3381 -1.8318  0.8472
  536MOL0     H72338   8.298   7.900   3.151 -2.2682 -1.3320  1.0846
  536MOL0     H72339   8.212   7.978   3.010 -1.7246 -0.7265  0.4686
  536MOL0     H72340   7.418   7.753   3.062 -1.6724 -2.8657  0.9882
  536MOL0     H72341   7.240   7.691   3.178 -0.5625  0.1719  0.0555
  536MOL0     H72342   6.879   7.947   3.435 -0.6484 -0.8125  2.7910
  536MOL0     H72343   6.694   7.993   3.545  2.2037  3.3638 -2.9763
  536MOL0     H72344   5.036   7.121   4.174 -1.0565  0.1604  2.3458
  536MOL0     H72345   4.839   7.091   4.291 -1.1810  2.4232  1.5509
  536MOL0     H72346   4.571   7.492   4.560 -1.2858  2.3794  0.4314
  536MOL0     H72347   4.387   7.509   4.722 -0.7715 -1.4841  1.2286
  536MOL0     H72348   4.169   7.579   4.704  2.0447  1.0852  1.7849
  536MOL0     H72349   4.154   7.524   4.871 -0.8218  1.0744 -0.6706
  536MOL0     H72350   3.929   7.454   4.842  2.1730  0.6168  0.4906
  536MOL0     H72351   3.958   7.450   4.659  2.2960  1.7117 -1.4028
  536MOL0     H72352   3.785   7.643   4.744 -1.0630 -3.3496  0.7323
  536MOL0     H72353   3.928   7.695   4.666  4.6135 -2.2451 -0.4169
  536MOL0     H72354   3.955   7.665   4.967 -0.2322  1.3835  0.7278
  536MOL0     H72355   4.037   7.766   4.845 -0.4546  2.4317  1.2404
  536MOL0     H72356   3.678   7.981   4.936 -1.6202 -1.4969 -0.7153
  536MOL0     H72357   4.197   7.184   4.541 -0.5189  1.3167 -3.3215
  536MOL0     H72358   4.305   7.030   4.407  0.2387 -0.6426 -1.3331
  536MOL0     H72359   4.383   7.132   4.284  1.4329  1.9500  0.2912
  536MOL0     H72360   4.474   7.031   4.401  1.0764  1.5671  0.9391
  537MOL0     O72361   8.004   4.587   5.904 -0.2375 -0.0458  0.3099
  537MOL0     C72362   7.985   4.549   5.786 -0.2313 -0.4383 -0.3705
  537MOL0     O72363   8.085   4.533   5.684 -0.1546 -0.7351 -0.3605
  537MOL0     C72364   8.194   4.601   5.709 -0.8905  0.4531 -0.4573
  537MOL0     C72365   8.297   4.553   5.794  0.0480  0.3502  0.9235
  537MOL0     C72366   8.419   4.618   5.806 -0.5253 -0.0117 -0.2303
  537MOL0     C72367   8.440   4.747   5.735 -0.4189  0.4792  0.0627
  537MOL0     O72368   8.549   4.829   5.746  0.4920 -0.2202  0.6516
  537MOL0     C72369   8.629   4.831   5.860 -0.3658  0.2495 -0.5187
  537MOL0     C72370   8.751   4.926   5.846 -0.0478 -0.7514 -0.1257
  537MOL0     C72371   8.710   5.067   5.815 -0.2494 -0.5033  0.7403
  537MOL0     C72372   8.708   5.167   5.928 -0.2990  0.1623 -0.4702
  537MOL0     C72373   8.593   5.148   6.029 -0.9536 -0.5718  0.0387
  537MOL0     C72374   8.458   5.193   5.980 -0.2226 -0.0356 -0.3439
  537MOL0     C72375   8.343   5.162   6.086 -0.2435 -0.4295 -0.2779
  537MOL0     C72376   8.208   5.207   6.018 -0.2554  1.0084 -0.3951
  537MOL0     N72377   8.088   5.149   6.086  0.2729 -0.3582  0.0337
  537MOL0     C72378   7.970   5.128   6.025  0.6063 -0.6148  0.5600
  537MOL0     C72379   7.897   5.058   6.121  0.3622 -0.0018  1.0282
  537MOL0     C72380   7.749   5.017   6.105 -0.3978 -0.2131  0.5867
  537MOL0     C72381   7.717   4.914   6.214  0.0646  0.2576  0.0316
  537MOL0     C72382   7.580   4.848   6.206 -0.0860 -0.2434 -0.4234
  537MOL0     C72383   7.464   4.946   6.232  0.0191  0.0145 -0.1536
  537MOL0     O72384   7.490   5.030   6.344  0.1143 -0.4201 -0.1878
  537MOL0     C72385   7.417   5.142   6.368  0.7471 -0.1650  0.1625
  537MOL0     C72386   7.290   5.165   6.321 -0.0144  0.1063 -0.9877
  537MOL0     C72387   7.227   5.291   6.364 -0.0994 -0.2425 -0.1936
  537MOL0     C72388   7.293   5.383   6.445  0.5519 -0.9286 -0.2653
  537MOL0     C72389   7.235   5.519   6.480 -0.0157 -0.1456  0.9188
  537MOL0     O72390   7.319   5.602   6.557  0.7548 -0.1119  1.2973
  537MOL0     C72391   7.268   5.729   6.595 -0.2801  1.7322  0.3464
  537MOL0     C72392   7.199   5.816   6.509  0.6082 -0.8960  0.5834
  537MOL0     C72393   7.155   5.942   6.556 -0.0001  0.6676  0.0316
  537MOL0     C72394   7.177   5.978   6.691 -0.3703 -0.0829 -0.0312
  537MOL0     O72395   7.138   6.097   6.752  0.1837 -0.3455 -0.1606
  537MOL0     C72396   7.251   6.192   6.740 -0.3740  0.1101 -0.3086
  537MOL0     C72397   7.209   6.319   6.828 -0.3544 -0.3332 -0.5949
  537MOL0     C72398   7.070   6.373   6.805 -1.1572  0.6498  0.3741
  537MOL0     C72399   7.065   6.524   6.843  0.3157  0.1808  0.1911
  537MOL0     C72400   6.928   6.581   6.844  1.1459  0.0829 -0.5471
  537MOL0     C72401   6.820   6.538   6.743 -0.3541  0.1609 -0.3737
  537MOL0     C72402   6.688   6.616   6.758 -0.2362  0.0427 -0.4401
  537MOL0     C72403   6.611   6.611   6.893  0.3134 -0.8322  0.1706
  537MOL0    Cl72404   6.440   6.668   6.877 -0.4792  0.2413  0.1907
  537MOL0     C72405   7.238   5.886   6.779 -0.3416  0.0006 -0.3854
  537MOL0     C72406   7.286   5.766   6.730 -0.3210 -0.8864  0.4706
  537MOL0     O72407   7.131   5.547   6.419  0.4843 -0.4878 -0.1789
  537MOL0     C72408   7.424   5.351   6.486 -0.9977  0.3971  0.2458
  537MOL0     C72409   7.482   5.230   6.443  0.2070 -0.2490  0.6155
  537MOL0     N72410   7.962   5.066   6.242 -0.0038  0.0946 -0.2766
  537MOL0     N72411   8.085   5.114   6.221 -0.1634 -0.4359 -0.3718
  537MOL0     C72412   8.341   4.792   5.647 -0.2429  1.1922  0.2141
  537MOL0     C72413   8.227   4.714   5.637 -0.2786  1.0266 -0.3204
  537MOL0     C72414   7.845   4.510   5.759  0.7759 -0.1074  0.7319
  537MOL0     C72415   7.811   4.490   5.621  1.2259  0.1440 -0.5901
  537MOL0     C72416   7.675   4.464   5.587  0.2284 -0.4904 -0.1689
  537MOL0     C72417   7.570   4.438   5.685  0.1501  0.1588 -0.1617
  537MOL0     O72418   7.446   4.378   5.653 -0.5826 -0.5114 -0.1934
  537MOL0     C72419   7.419   4.395   5.513 -0.8374 -0.9401  1.0544
  537MOL0     C72420   7.261   4.406   5.487 -0.4033 -0.7996 -1.7672
  537MOL0     C72421   7.237   4.384   5.335  0.2426  0.2027  0.4837
  537MOL0     C72422   7.300   4.485   5.244 -0.4830 -0.0119  0.3515
  537MOL0     C72423   7.246   4.625   5.268  0.1662  0.2430 -1.0697
  537MOL0     C72424   7.220   4.723   5.336  0.4343 -0.7397  0.0230
  537MOL0     C72425   7.610   4.441   5.819  0.0396  0.1056  0.2976
  537MOL0     C72426   7.738   4.495   5.856 -0.1423 -0.0821  0.2639
  537MOL0     C72427   7.764   4.509   6.003 -0.0764  0.2915  0.3113
  537MOL0     H72428   8.281   4.460   5.847  4.9948 -0.4186  1.6003
  537MOL0     H72429   8.489   4.565   5.870 -2.4952 -1.3329  0.9437
  537MOL0     H72430   8.562   4.861   5.942  0.5222 -2.8884  1.5468
  537MOL0     H72431   8.666   4.731   5.886 -0.3962  0.3048 -0.2518
  537MOL0     H72432   8.806   4.884   5.761 -2.0669 -2.8835 -0.4877
  537MOL0     H72433   8.807   4.925   5.940  1.7023 -0.2918 -1.1063
  537MOL0     H72434   8.615   5.074   5.762  0.6998  0.6759 -0.9079
  537MOL0     H72435   8.781   5.104   5.740  1.2314 -0.1006  2.2848
  537MOL0     H72436   8.806   5.169   5.977  0.4851  1.7996 -1.9895
  537MOL0     H72437   8.698   5.261   5.874  3.3038 -0.4713 -2.6043
  537MOL0     H72438   8.594   5.047   6.071 -0.7454  0.9147  4.0479
  537MOL0     H72439   8.599   5.211   6.119  1.0930 -0.0350 -0.4360
  537MOL0     H72440   8.454   5.302   5.972  1.3022  0.2156  1.6131
  537MOL0     H72441   8.426   5.146   5.886 -2.8499  1.6749 -0.4202
  537MOL0     H72442   8.356   5.214   6.181 -1.5572 -1.1762  0.3329
  537MOL0     H72443   8.330   5.056   6.109 -0.6257 -0.8527 -2.2611
  537MOL0     H72444   8.206   5.316   6.031  1.4922  0.9740  0.4409
  537MOL0     H72445   8.199   5.169   5.916 -2.9517 -1.7306  0.7120
  537MOL0     H72446   7.939   5.151   5.924  2.4473 -1.6388 -0.2894
  537MOL0     H72447   7.689   5.105   6.129  1.6445  1.6188 -0.6021
  537MOL0     H72448   7.739   4.981   6.002  0.0714  2.0409 -0.2962
  537MOL0     H72449   7.796   4.837   6.215  0.0631  0.2182 -1.2988
  537MOL0     H72450   7.720   4.974   6.305 -0.5265  0.3894 -0.0329
  537MOL0     H72451   7.562   4.765   6.276  1.2643 -0.9009 -0.8265
  537MOL0     H72452   7.582   4.804   6.106  1.4965 -0.9146 -0.1171
  537MOL0     H72453   7.375   4.883   6.246  0.8667 -1.6816 -1.9396
  537MOL0     H72454   7.457   4.998   6.136  2.9099 -0.6356 -0.7976
  537MOL0     H72455   7.241   5.092   6.257 -0.4947 -1.4096  1.0113
  537MOL0     H72456   7.131   5.330   6.334 -0.3530  3.7049  4.5136
  537MOL0     H72457   7.184   5.795   6.404  0.4128 -0.4418  0.5158
  537MOL0     H72458   7.091   6.007   6.497 -1.5400  0.9937  1.9583
  537MOL0     H72459   7.352   6.153   6.752 -0.3772 -0.1523 -1.0568
  537MOL0     H72460   7.244   6.224   6.635 -2.0099 -0.7712 -0.5137
  537MOL0     H72461   7.203   6.286   6.933 -0.7354  2.9170  0.5144
  537MOL0     H72462   7.285   6.398   6.825  0.5841 -1.1159  0.8696
  537MOL0     H72463   7.052   6.351   6.700 -0.0929  0.2379  0.2589
  537MOL0     H72464   6.991   6.318   6.859 -0.5545  0.0677  0.6888
  537MOL0     H72465   7.129   6.577   6.772 -0.4621  1.9260  0.7351
  537MOL0     H72466   7.109   6.535   6.942  1.9157 -1.1690 -0.3220
  537MOL0     H72467   6.929   6.690   6.839 -3.2646  0.4262  1.2134
  537MOL0     H72468   6.895   6.564   6.947 -2.0095  2.4045 -1.0038
  537MOL0     H72469   6.861   6.548   6.642  0.7425  0.7364  0.1117
  537MOL0     H72470   6.808   6.429   6.750  3.2343 -0.3379  0.0795
  537MOL0     H72471   6.614   6.588   6.682 -0.8631  2.3235 -0.7583
  537MOL0     H72472   6.708   6.721   6.733 -0.6822  0.2376  0.0093
  537MOL0     H72473   6.610   6.513   6.941 -3.7870 -1.3984 -0.7351
  537MOL0     H72474   6.659   6.685   6.957  0.3283 -1.7127  1.2146
  537MOL0     H72475   7.240   5.912   6.884  2.6835 -3.3069  0.5528
  537MOL0     H72476   7.325   5.698   6.805  1.5120 -2.1451 -1.5185
  537MOL0     H72477   7.486   5.413   6.550  0.4105  2.7516 -3.1082
  537MOL0     H72478   7.573   5.197   6.492  1.6541  2.1683 -0.2492
  537MOL0     H72479   8.343   4.877   5.579 -1.9039  1.1798  0.0967
  537MOL0     H72480   8.161   4.741   5.556 -0.7488  0.2843 -0.1938
  537MOL0     H72481   7.886   4.513   5.546  0.8164  0.3431 -0.9427
  537MOL0     H72482   7.670   4.460   5.479  2.4362  0.0453 -0.3428
  537MOL0     H72483   7.466   4.315   5.455  0.6014  2.9247 -3.8390
  537MOL0     H72484   7.458   4.490   5.476 -3.1696 -0.3376 -0.1150
  537MOL0     H72485   7.237   4.506   5.524 -0.2786 -1.5462  0.4731
  537MOL0     H72486   7.215   4.326   5.546  0.8661  0.8086  1.6506
  537MOL0     H72487   7.128   4.380   5.332  0.2611 -0.9919  0.8080
  537MOL0     H72488   7.281   4.289   5.306  0.0317  0.9594 -2.5982
  537MOL0     H72489   7.406   4.485   5.270 -0.7906 -0.9039  1.7304
  537MOL0     H72490   7.279   4.448   5.143  0.3567 -1.7220  0.7620
  537MOL0     H72491   7.213   4.811   5.398  1.4162 -0.2845 -0.4780
  537MOL0     H72492   7.535   4.412   5.892 -1.6523 -0.1676 -1.4893
  537MOL0     H72493   7.857   4.453   6.017  1.5397  1.7054 -3.4368
  537MOL0     H72494   7.776   4.614   6.032  0.4869  0.9592 -2.0709
  537MOL0     H72495   7.684   4.456   6.056  1.8005 -2.2080  0.8379
  538MOL0     O72496   9.423   2.711   6.985  0.0027 -0.6191  0.1920
  538MOL0     C72497   9.340   2.622   6.968 -0.3277 -0.1811 -0.3075
  538MOL0     O72498   9.351   2.497   7.037 -0.6629 -0.2783 -0.4482
  538MOL0     C72499   9.466   2.467   7.116 -0.5894  0.2120  0.0351
  538MOL0     C72500   9.590   2.460   7.051  0.0723  1.2867  0.3856
  538MOL0     C72501   9.707   2.425   7.132  0.9232  0.4709  0.7990
  538MOL0     C72502   9.688   2.386   7.266 -0.7418  0.2859 -0.2187
  538MOL0     O72503   9.804   2.358   7.332 -0.1117  0.4727  0.1009
  538MOL0     C72504   9.802   2.316   7.469  0.5427 -0.4505 -0.2463
  538MOL0     C72505   9.937   2.311   7.530 -1.0601  0.4901 -1.2852
  538MOL0     C72506   9.934   2.267   7.675  0.2006  0.2125  0.3602
  538MOL0     C72507   9.875   2.367   7.772 -0.1250  0.4358  0.6478
  538MOL0     C72508   9.964   2.442   7.863 -0.1350 -0.0005  0.0044
  538MOL0     C72509  10.037   2.357   7.965 -0.4018  0.0325  0.1600
  538MOL0     C72510   9.956   2.315   8.087  0.6973  0.7582  0.0997
  538MOL0     C72511   9.969   2.399   8.211  0.1603  0.3829  0.3739
  538MOL0     N72512  10.100   2.382   8.267  0.4238 -0.1193 -0.2422
  538MOL0     C72513  10.198   2.476   8.246 -0.2190 -0.0147 -0.4069
  538MOL0     C72514  10.310   2.426   8.318  1.0022 -0.1411  0.3706
  538MOL0     C72515  10.437   2.491   8.345  0.0399  0.3490 -0.8776
  538MOL0     C72516  10.425   2.649   8.339 -0.2366  0.1080  0.4158
  538MOL0     C72517  10.551   2.713   8.397 -0.2463  0.4173  0.1912
  538MOL0     C72518  10.529   2.863   8.416  0.0816  0.2310  0.5045
  538MOL0     O72519  10.522   2.942   8.293 -0.4043 -0.0398 -0.3181
  538MOL0     C72520  10.649   2.974   8.249  0.6487 -1.0130 -0.2727
  538MOL0     C72521  10.694   2.929   8.124  0.3559 -1.1018  1.0523
  538MOL0     C72522  10.824   2.952   8.078  0.4368 -0.4115  0.4710
  538MOL0     C72523  10.914   3.031   8.160  0.6035  0.7337  0.1635
  538MOL0     C72524  11.058   3.050   8.127 -0.0074  0.1930  0.2441
  538MOL0     O72525  11.104   3.026   7.996 -0.4278 -0.0536  0.0157
  538MOL0     C72526  11.236   3.035   7.955 -0.2474  0.1778 -0.5110
  538MOL0     C72527  11.262   2.957   7.846  0.2945 -0.6257 -0.9385
  538MOL0     C72528  11.390   2.946   7.796 -0.5583  0.2556 -0.3226
  538MOL0     C72529  11.493   3.028   7.852 -0.2837 -0.8692 -0.5743
  538MOL0     O72530  11.624   3.047   7.816  0.1473  0.1573 -0.4409
  538MOL0     C72531  11.652   3.016   7.678  0.9220 -0.0233 -0.5169
  538MOL0     C72532  11.802   3.001   7.667  1.2130  0.2418 -0.1643
  538MOL0     C72533  11.871   3.143   7.693  0.4181  0.5157  0.7901
  538MOL0     C72534  11.997   3.161   7.617  0.0739  0.5250 -0.2793
  538MOL0     C72535  12.080   3.280   7.673  0.3587  1.0911  0.1518
  538MOL0     C72536  12.210   3.300   7.589  0.6904  0.3990  0.1805
  538MOL0     C72537  12.282   3.428   7.625 -0.1705 -1.2255  0.4949
  538MOL0     C72538  12.412   3.448   7.542  0.8344 -0.5093  0.2497
  538MOL0    Cl72539  12.507   3.581   7.609  0.3028 -0.3371  0.2033
  538MOL0     C72540  11.458   3.095   7.971 -0.3921  0.0920 -0.4579
  538MOL0     C72541  11.335   3.102   8.025  0.6909 -1.3369 -0.7421
  538MOL0     O72542  11.135   3.072   8.221  0.3254  0.0650  0.0390
  538MOL0     C72543  10.867   3.091   8.283  0.4042  0.6162 -0.5037
  538MOL0     C72544  10.740   3.059   8.330 -0.2360 -0.9647 -0.1390
  538MOL0     N72545  10.271   2.302   8.371 -0.1366  0.2645 -0.3992
  538MOL0     N72546  10.144   2.280   8.341  1.4714 -0.2556  0.1828
  538MOL0     C72547   9.558   2.372   7.318 -0.0546 -0.5073 -0.8269
  538MOL0     C72548   9.450   2.425   7.247  0.2871  0.4672  0.5987
  538MOL0     C72549   9.214   2.648   6.898  0.6082  0.6248 -0.4603
  538MOL0     C72550   9.100   2.561   6.926 -0.2797 -0.0743  0.3660
  538MOL0     C72551   8.977   2.591   6.863 -0.2964  0.1174  0.4268
  538MOL0     C72552   8.966   2.691   6.761 -0.2783  0.0034  0.1495
  538MOL0     O72553   8.862   2.721   6.674  0.1328  0.3773  0.1370
  538MOL0     C72554   8.750   2.627   6.680 -0.1230  0.3936  0.4690
  538MOL0     C72555   8.668   2.635   6.544  1.0176 -0.0423 -0.4105
  538MOL0     C72556   8.560   2.532   6.542  1.0144  0.5135 -0.2538
  538MOL0     C72557   8.489   2.515   6.404  0.7214  0.4696 -0.1210
  538MOL0     C72558   8.380   2.620   6.402  0.1557  0.0640  0.4049
  538MOL0     C72559   8.291   2.701   6.403  0.0225 -0.6125  0.3457
  538MOL0     C72560   9.075   2.778   6.743  0.1705  0.2947 -0.4661
  538MOL0     C72561   9.199   2.760   6.806 -0.7052  1.0060  0.1337
  538MOL0     C72562   9.302   2.860   6.766  0.0477 -0.0207 -0.3604
  538MOL0     H72563   9.605   2.481   6.946  1.7223 -2.6249 -0.3479
  538MOL0     H72564   9.808   2.419   7.094  0.7458 -2.4576  0.4962
  538MOL0     H72565   9.740   2.381   7.531  0.2260 -0.1117 -0.9121
  538MOL0     H72566   9.752   2.220   7.474 -0.1845 -0.0685 -0.1173
  538MOL0     H72567   9.990   2.407   7.520 -3.0334  1.5992 -1.5132
  538MOL0     H72568  10.002   2.248   7.469 -3.1773 -1.8021 -1.3202
  538MOL0     H72569  10.038   2.242   7.698 -0.1348 -1.3544  0.2598
  538MOL0     H72570   9.872   2.177   7.675 -1.5945  1.3809 -1.0994
  538MOL0     H72571   9.823   2.448   7.722 -0.9040 -0.9976 -0.9542
  538MOL0     H72572   9.798   2.306   7.821 -0.9092 -0.8872 -2.0696
  538MOL0     H72573  10.039   2.485   7.795 -0.6787  0.4229 -0.3373
  538MOL0     H72574   9.906   2.522   7.909  0.3590  1.0496 -1.1259
  538MOL0     H72575  10.067   2.263   7.918 -0.1580  0.2681 -0.1597
  538MOL0     H72576  10.125   2.410   8.004 -0.9448  0.2317  1.1589
  538MOL0     H72577   9.985   2.214   8.116  0.7109  1.1373  1.5216
  538MOL0     H72578   9.851   2.320   8.059  1.0065  2.0553 -0.9048
  538MOL0     H72579   9.941   2.502   8.189  1.2551  0.4401 -0.8707
  538MOL0     H72580   9.896   2.351   8.278 -1.0435  1.5839 -0.0303
  538MOL0     H72581  10.192   2.576   8.205 -3.7207  1.1464  2.4760
  538MOL0     H72582  10.470   2.459   8.444 -1.1363  2.0287  0.0993
  538MOL0     H72583  10.506   2.452   8.269 -0.3605 -2.3254  0.0144
  538MOL0     H72584  10.425   2.679   8.234  2.0151 -0.1955  0.2780
  538MOL0     H72585  10.344   2.689   8.400  0.8898 -0.2114  2.1986
  538MOL0     H72586  10.640   2.697   8.335 -0.2405 -0.6906  0.4508
  538MOL0     H72587  10.568   2.661   8.492  1.0951 -1.6513 -1.0815
  538MOL0     H72588  10.611   2.911   8.470  1.3189  0.4264 -1.4455
  538MOL0     H72589  10.435   2.877   8.471  0.5046  2.1165  0.8351
  538MOL0     H72590  10.622   2.881   8.059 -0.8261  1.3220  0.4456
  538MOL0     H72591  10.855   2.915   7.981 -4.5427 -3.5384 -0.2900
  538MOL0     H72592  11.178   2.901   7.807 -1.1136 -0.0155  1.0752
  538MOL0     H72593  11.391   2.884   7.707 -1.7000  1.0433 -0.9117
  538MOL0     H72594  11.602   2.923   7.652  2.2433 -1.0047  0.3166
  538MOL0     H72595  11.614   3.092   7.608  0.1111 -2.1261 -2.4958
  538MOL0     H72596  11.836   2.932   7.745  0.2721 -0.3292 -0.2491
  538MOL0     H72597  11.837   2.960   7.571  0.0725 -0.9023 -0.1213
  538MOL0     H72598  11.810   3.231   7.670  1.2429  0.2664 -2.9201
  538MOL0     H72599  11.891   3.147   7.801  2.3996 -0.7457  0.5158
  538MOL0     H72600  11.967   3.178   7.513  1.1159  0.0807 -0.6667
  538MOL0     H72601  12.051   3.066   7.611 -0.2758  0.3636 -5.4118
  538MOL0     H72602  12.104   3.264   7.778  1.2234 -1.3425 -0.3515
  538MOL0     H72603  12.022   3.372   7.669 -2.7127 -0.7231  0.2447
  538MOL0     H72604  12.270   3.210   7.607  1.0449  0.7549  0.8267
  538MOL0     H72605  12.176   3.300   7.485 -3.0416 -0.6378  1.2349
  538MOL0     H72606  12.310   3.417   7.730 -0.0160  0.9903  0.7463
  538MOL0     H72607  12.227   3.523   7.627  1.4428 -0.1632 -1.2625
  538MOL0     H72608  12.473   3.358   7.535  1.1946 -0.3809  1.5083
  538MOL0     H72609  12.372   3.474   7.444 -1.0625  0.1647  1.1536
  538MOL0     H72610  11.544   3.154   8.001 -0.0692  0.1241 -1.4067
  538MOL0     H72611  11.323   3.167   8.112  1.6132 -1.8854 -0.1927
  538MOL0     H72612  10.931   3.155   8.343 -0.3488  1.5753 -0.7038
  538MOL0     H72613  10.710   3.088   8.430  0.7428  0.0082 -0.1088
  538MOL0     H72614   9.545   2.334   7.419  0.7048  0.1345 -0.4774
  538MOL0     H72615   9.346   2.418   7.276  0.0941  2.0833  0.4030
  538MOL0     H72616   9.093   2.480   6.998  0.7461 -0.7695 -0.2692
  538MOL0     H72617   8.892   2.528   6.883 -0.3468  0.7324  2.3168
  538MOL0     H72618   8.676   2.649   6.758 -2.0388 -3.3572 -0.0932
  538MOL0     H72619   8.792   2.526   6.683 -3.0596 -0.9037  1.6329
  538MOL0     H72620   8.728   2.600   6.459 -0.0906 -1.9777 -0.4628
  538MOL0     H72621   8.632   2.737   6.532  0.2849 -0.4561 -2.0909
  538MOL0     H72622   8.484   2.542   6.620  0.7221 -1.5176 -0.2168
  538MOL0     H72623   8.607   2.437   6.569 -0.4417  0.4553  2.4739
  538MOL0     H72624   8.570   2.534   6.333  1.8044 -0.5731  0.7917
  538MOL0     H72625   8.427   2.427   6.379 -0.5268  1.5630 -1.0697
  538MOL0     H72626   8.221   2.781   6.411  0.9856  0.1648  1.3027
  538MOL0     H72627   9.065   2.837   6.652 -0.2864  0.3289 -0.3951
  538MOL0     H72628   9.360   2.803   6.692  1.2719 -1.0872  1.3455
  538MOL0     H72629   9.263   2.955   6.730  0.7021  0.4865  0.2220
  538MOL0     H72630   9.372   2.894   6.843 -0.9522 -0.0697  0.5866
  539MOL0     O72631   3.902   1.504   0.887 -0.6823 -0.0056  0.4516
  539MOL0     C72632   3.899   1.375   0.869 -0.4930 -0.8636  0.0186
  539MOL0     O72633   3.978   1.307   0.784 -0.3629  0.0316  0.0192
  539MOL0     C72634   4.077   1.373   0.711  0.3845  0.7055 -0.3968
  539MOL0     C72635   4.050   1.461   0.601 -0.3877  0.4487 -0.3758
  539MOL0     C72636   4.152   1.529   0.541 -0.6571 -0.4941  0.2718
  539MOL0     C72637   4.282   1.521   0.584 -0.5575 -0.2630 -0.4147
  539MOL0     O72638   4.378   1.591   0.517  0.5076  0.1315 -0.1238
  539MOL0     C72639   4.516   1.551   0.530 -0.2800  0.2643 -0.8040
  539MOL0     C72640   4.616   1.648   0.478 -0.6093  0.0370  0.0423
  539MOL0     C72641   4.765   1.617   0.531  0.5382 -0.1111 -0.5481
  539MOL0     C72642   4.856   1.654   0.403  0.1293  0.3128  0.4998
  539MOL0     C72643   4.996   1.596   0.403  0.4921  0.9490 -0.0486
  539MOL0     C72644   5.064   1.636   0.530  0.4660  0.5539  0.0385
  539MOL0     C72645   5.213   1.587   0.538 -0.1007  0.0751 -0.0759
  539MOL0     C72646   5.291   1.637   0.650 -0.1841 -0.0471 -0.6076
  539MOL0     N72647   5.439   1.623   0.650  0.4109 -0.0740  0.4641
  539MOL0     C72648   5.526   1.631   0.542 -0.4260  0.4620 -0.2224
  539MOL0     C72649   5.648   1.577   0.587 -0.0778 -0.4503 -0.0434
  539MOL0     C72650   5.777   1.552   0.510  0.5130 -0.0515 -0.1159
  539MOL0     C72651   5.886   1.651   0.559  0.5279 -0.2428  0.2576
  539MOL0     C72652   6.034   1.606   0.540 -0.4954  0.1931  0.0097
  539MOL0     C72653   6.068   1.469   0.604  0.0099 -0.1293 -0.0989
  539MOL0     O72654   6.070   1.474   0.749 -0.0350 -0.6274 -0.4681
  539MOL0     C72655   6.159   1.383   0.798 -0.2571 -0.9244 -0.1968
  539MOL0     C72656   6.134   1.251   0.812  0.8412 -0.1069  0.2902
  539MOL0     C72657   6.228   1.159   0.863 -0.3317 -0.0117 -0.7054
  539MOL0     C72658   6.354   1.208   0.904 -0.5181 -0.0621 -0.1099
  539MOL0     C72659   6.454   1.109   0.946 -0.2746  0.6709  0.5505
  539MOL0     O72660   6.420   0.977   0.935  0.6103  0.5044  0.3898
  539MOL0     C72661   6.502   0.874   0.957  0.2181  0.9987  0.2372
  539MOL0     C72662   6.490   0.790   1.069  0.3771 -0.0982  0.9921
  539MOL0     C72663   6.582   0.683   1.097  0.2527 -0.9362  0.1523
  539MOL0     C72664   6.679   0.657   1.006  0.0856  0.7929  1.0301
  539MOL0     O72665   6.760   0.551   1.037 -0.4951  0.4754 -0.2952
  539MOL0     C72666   6.899   0.547   0.994  0.1498  0.5593  0.2174
  539MOL0     C72667   6.975   0.433   1.064 -0.0475 -0.0142  0.0855
  539MOL0     C72668   7.120   0.425   1.010 -0.7143  0.4176  0.0038
  539MOL0     C72669   7.212   0.348   1.111  0.3803  0.0610  0.5733
  539MOL0     C72670   7.349   0.334   1.048 -0.5412  0.0092  0.2120
  539MOL0     C72671   7.446   0.289   1.147 -0.3042 -0.5024 -0.4142
  539MOL0     C72672   7.575   0.245   1.074  0.6145  0.4363 -0.2023
  539MOL0     C72673   7.693   0.251   1.178  0.4718  0.0333 -0.6768
  539MOL0    Cl72674   7.665   0.110   1.297 -0.1004 -0.2395 -0.3052
  539MOL0     C72675   6.702   0.739   0.895  0.3184  0.4651  0.1567
  539MOL0     C72676   6.619   0.850   0.869 -1.3975  0.4654  0.4622
  539MOL0     O72677   6.559   1.154   0.992  0.0204  0.6513 -0.3205
  539MOL0     C72678   6.380   1.347   0.909  0.1127  0.0128 -0.2693
  539MOL0     C72679   6.281   1.432   0.853 -0.3407  0.3250  0.6318
  539MOL0     N72680   5.628   1.543   0.720 -0.3907 -0.5993 -0.4415
  539MOL0     N72681   5.504   1.578   0.755 -0.4723  0.2111  0.5177
  539MOL0     C72682   4.317   1.428   0.689  0.0012  0.4216 -0.2687
  539MOL0     C72683   4.209   1.360   0.753 -0.5186  0.2683 -0.8281
  539MOL0     C72684   3.804   1.304   0.954 -0.6021 -0.2407 -0.5406
  539MOL0     C72685   3.868   1.194   1.022 -0.1903  0.2038  0.7442
  539MOL0     C72686   3.794   1.110   1.103  0.5187 -1.2298 -0.1705
  539MOL0     C72687   3.662   1.124   1.129  0.1013 -0.0695 -0.2326
  539MOL0     O72688   3.585   1.044   1.216  0.2143  0.0021  0.3832
  539MOL0     C72689   3.494   0.946   1.162  1.1474  0.1152  0.5834
  539MOL0     C72690   3.543   0.852   1.057  0.5194  0.0677  0.9026
  539MOL0     C72691   3.664   0.776   1.112  0.1822  0.8460 -0.6925
  539MOL0     C72692   3.738   0.687   1.019  0.1409  0.5943  1.3049
  539MOL0     C72693   3.847   0.756   0.943 -0.6075  0.0158  0.5101
  539MOL0     C72694   3.936   0.821   0.892 -0.3455  0.2813  0.5893
  539MOL0     C72695   3.597   1.231   1.066 -0.3027 -0.2136  0.2735
  539MOL0     C72696   3.667   1.315   0.977 -0.5640  0.5184  0.3241
  539MOL0     C72697   3.591   1.419   0.903 -0.3752  0.0749 -0.2176
  539MOL0     H72698   3.951   1.483   0.562 -0.1832  0.2375 -1.0292
  539MOL0     H72699   4.145   1.595   0.455 -2.0108 -0.4122  0.4266
  539MOL0     H72700   4.543   1.548   0.636  0.6504  0.2923 -1.0320
  539MOL0     H72701   4.539   1.451   0.492  0.5914 -0.1294  0.6478
  539MOL0     H72702   4.594   1.750   0.511 -0.9009 -0.5930  1.8680
  539MOL0     H72703   4.606   1.646   0.369  1.5487 -2.3506 -0.1956
  539MOL0     H72704   4.769   1.511   0.557  0.5018  0.4611  2.0394
  539MOL0     H72705   4.777   1.682   0.618 -1.1469  0.1023 -0.4488
  539MOL0     H72706   4.808   1.622   0.310 -1.1687  0.2414  1.1692
  539MOL0     H72707   4.859   1.763   0.408  0.1385  0.4161 -1.1707
  539MOL0     H72708   4.992   1.487   0.398  2.3667  0.8846 -0.9352
  539MOL0     H72709   5.045   1.638   0.315 -0.7583  0.3695 -1.0617
  539MOL0     H72710   5.041   1.741   0.553 -0.1938  0.4466 -0.1055
  539MOL0     H72711   5.011   1.588   0.612 -1.9285  3.2741  0.2772
  539MOL0     H72712   5.273   1.613   0.451  1.6344  2.6014  1.7068
  539MOL0     H72713   5.202   1.480   0.555 -2.5760  0.4926  1.5346
  539MOL0     H72714   5.275   1.745   0.637  0.0582 -0.0859 -1.2740
  539MOL0     H72715   5.258   1.608   0.750  0.3942  1.6746  0.1220
  539MOL0     H72716   5.490   1.659   0.444  2.1844 -0.3043 -1.4973
  539MOL0     H72717   5.806   1.449   0.534  3.4359 -0.1990 -3.4163
  539MOL0     H72718   5.757   1.558   0.402 -2.0026 -1.4080  0.1914
  539MOL0     H72719   5.874   1.741   0.497  1.1462 -0.5517 -0.3302
  539MOL0     H72720   5.873   1.685   0.662 -0.0015 -0.7596  0.3652
  539MOL0     H72721   6.107   1.680   0.575  1.5470 -0.9700 -1.5343
  539MOL0     H72722   6.044   1.599   0.431  0.6404 -1.9776  0.1837
  539MOL0     H72723   6.167   1.444   0.564 -0.0708  0.9881 -1.0545
  539MOL0     H72724   6.010   1.384   0.566 -0.1603 -0.0280 -0.0653
  539MOL0     H72725   6.051   1.204   0.760 -0.3732  0.0394  1.9973
  539MOL0     H72726   6.221   1.051   0.852  0.4570 -0.2617  0.9429
  539MOL0     H72727   6.413   0.813   1.142  0.6669 -1.6192  1.8145
  539MOL0     H72728   6.569   0.622   1.186 -0.4131 -3.5520 -1.6031
  539MOL0     H72729   6.903   0.527   0.886  0.9339 -2.9664  0.7928
  539MOL0     H72730   6.950   0.641   1.017 -0.2417  1.2196 -1.4228
  539MOL0     H72731   6.959   0.458   1.169  1.4507 -0.8696  0.5588
  539MOL0     H72732   6.918   0.342   1.042 -0.4279  0.2936 -0.2143
  539MOL0     H72733   7.125   0.380   0.911  0.7452 -0.4495  0.4408
  539MOL0     H72734   7.167   0.523   1.003  2.1571 -0.7713  0.9175
  539MOL0     H72735   7.170   0.250   1.134 -1.2360  1.0395  2.0477
  539MOL0     H72736   7.229   0.408   1.200  0.9529  1.3797 -0.3856
  539MOL0     H72737   7.391   0.432   1.023  1.1270 -0.6839  0.1424
  539MOL0     H72738   7.359   0.260   0.968  1.6496 -1.9851  2.1304
  539MOL0     H72739   7.473   0.372   1.214  0.7562 -0.5291 -0.7900
  539MOL0     H72740   7.405   0.208   1.207 -0.5092 -1.2572 -1.5469
  539MOL0     H72741   7.590   0.310   0.988  1.0630  1.6179  0.7467
  539MOL0     H72742   7.570   0.143   1.033 -2.2285  0.0697  0.8597
  539MOL0     H72743   7.782   0.225   1.120 -0.6558  0.4225 -2.6524
  539MOL0     H72744   7.707   0.350   1.221  0.7794  1.0051 -2.8742
  539MOL0     H72745   6.786   0.730   0.827 -0.3400  1.4989 -0.8297
  539MOL0     H72746   6.631   0.928   0.794 -1.0686 -0.3830 -0.3829
  539MOL0     H72747   6.470   1.387   0.955  0.2422 -2.2822  1.6476
  539MOL0     H72748   6.300   1.539   0.846  3.0663 -0.2907 -2.3673
  539MOL0     H72749   4.420   1.408   0.716 -0.7029 -1.0971  1.4434
  539MOL0     H72750   4.247   1.294   0.830 -0.0516 -0.9838 -2.0751
  539MOL0     H72751   3.975   1.179   1.008 -0.2840 -0.0629  0.2993
  539MOL0     H72752   3.835   1.030   1.164 -3.6824 -2.1046  1.8745
  539MOL0     H72753   3.395   0.977   1.130  1.3765  0.3767  0.1156
  539MOL0     H72754   3.470   0.884   1.249 -1.0651 -0.2305 -0.2165
  539MOL0     H72755   3.570   0.912   0.970 -3.1106  1.5588  0.6458
  539MOL0     H72756   3.463   0.781   1.035  0.2458  1.0830 -1.7052
  539MOL0     H72757   3.613   0.726   1.195 -1.8289  0.2187 -2.2333
  539MOL0     H72758   3.735   0.854   1.143  0.4690  0.0542  0.7224
  539MOL0     H72759   3.774   0.600   1.075 -1.3849 -0.0480  1.3576
  539MOL0     H72760   3.667   0.651   0.944  1.8581 -2.8366  1.1136
  539MOL0     H72761   4.005   0.878   0.834 -2.2640 -0.6744 -2.8690
  539MOL0     H72762   3.492   1.253   1.084 -0.2030 -0.1510  0.7997
  539MOL0     H72763   3.631   1.517   0.931  0.0091 -0.1619  0.0764
  539MOL0     H72764   3.607   1.405   0.796  0.5726 -1.9019  0.1415
  539MOL0     H72765   3.484   1.412   0.923 -0.4077  1.3439  0.1266
  540MOL0     O72766   2.866   1.273   9.604 -0.0118  0.1793  0.5325
  540MOL0     C72767   2.888   1.203   9.498 -0.1259 -0.2774  0.5646
  540MOL0     O72768   3.012   1.164   9.457 -0.0814 -0.1508 -0.4370
  540MOL0     C72769   3.119   1.173   9.542  0.2632  0.0541 -0.7335
  540MOL0     C72770   3.116   1.141   9.678  0.2617  0.4047  0.2366
  540MOL0     C72771   3.217   1.149   9.761 -0.2322 -0.1907  0.9901
  540MOL0     C72772   3.340   1.196   9.710 -0.6089 -0.6541  0.4875
  540MOL0     O72773   3.452   1.209   9.798  0.6950 -0.1665 -0.2412
  540MOL0     C72774   3.515   1.084   9.817 -0.9187 -0.2020 -0.7677
  540MOL0     C72775   3.658   1.114   9.773 -0.0699  0.0893  0.4049
  540MOL0     C72776   3.752   0.994   9.788  0.2261 -1.1349 -0.2497
  540MOL0     C72777   3.797   0.978   9.933 -0.5471  0.3656 -0.0326
  540MOL0     C72778   3.928   0.895   9.952 -0.4669  0.0273  0.0916
  540MOL0     C72779   3.929   0.757   9.881  0.0375 -1.0912 -0.8681
  540MOL0     C72780   4.053   0.679   9.930  0.2187 -0.1671 -0.0760
  540MOL0     C72781   4.107   0.568   9.840  0.0996  0.0270 -0.0738
  540MOL0     N72782   4.239   0.535   9.896  0.0625 -0.0682  0.6249
  540MOL0     C72783   4.360   0.543   9.825  0.3462  0.8328  0.7127
  540MOL0     C72784   4.449   0.505   9.917  0.2154  0.0184 -0.5546
  540MOL0     C72785   4.598   0.482   9.896  0.4931 -0.4378  0.3336
  540MOL0     C72786   4.686   0.601   9.925 -0.1250 -0.1840 -0.2909
  540MOL0     C72787   4.821   0.552   9.950  0.2250  0.4131 -1.5130
  540MOL0     C72788   4.916   0.669   9.990  0.2271  0.0416  0.3924
  540MOL0     O72789   4.919   0.756   9.874 -0.4073  0.1559 -0.2368
  540MOL0     C72790   5.030   0.839   9.866  0.1130  0.3215 -0.5699
  540MOL0     C72791   5.044   0.906   9.749 -0.2607  0.6945  0.4675
  540MOL0     C72792   5.148   0.994   9.727 -0.0152 -0.8177 -0.0641
  540MOL0     C72793   5.254   1.012   9.824 -0.7765  1.3209  0.0453
  540MOL0     C72794   5.379   1.086   9.796 -0.0567 -0.5472 -0.0356
  540MOL0     O72795   5.464   1.089   9.893  0.1295  0.3245 -0.1066
  540MOL0     C72796   5.558   1.188   9.875  0.5389  0.7516 -0.0871
  540MOL0     C72797   5.530   1.318   9.839 -0.0234  0.5010 -0.1208
  540MOL0     C72798   5.635   1.405   9.846  0.4616 -0.2906  0.2041
  540MOL0     C72799   5.765   1.375   9.876  0.6805  0.0396 -0.3545
  540MOL0     O72800   5.873   1.459   9.883  0.1611 -0.2680 -0.6036
  540MOL0     C72801   5.840   1.601   9.873 -0.9831 -0.4560 -0.1130
  540MOL0     C72802   5.978   1.667   9.898  0.0884 -0.8092  0.5061
  540MOL0     C72803   6.064   1.643   9.772 -0.2476  0.8293 -0.3957
  540MOL0     C72804   6.183   1.726   9.763 -0.8598 -0.7176  0.0356
  540MOL0     C72805   6.258   1.695   9.625  0.9267  0.0724  0.3997
  540MOL0     C72806   6.394   1.769   9.625  0.3641 -0.4597  0.5420
  540MOL0     C72807   6.461   1.740   9.493  0.2637  0.6935 -0.2284
  540MOL0     C72808   6.602   1.800   9.491 -0.8505 -0.2076  0.8341
  540MOL0    Cl72809   6.616   1.969   9.539 -0.2859  0.0945  0.4707
  540MOL0     C72810   5.796   1.241   9.896  0.0017  0.8482 -0.2312
  540MOL0     C72811   5.689   1.147   9.902 -0.6701 -0.7247 -0.0998
  540MOL0     O72812   5.386   1.135   9.681  0.2809  0.1806  0.3749
  540MOL0     C72813   5.235   0.951   9.949  0.2893  1.2435 -0.1358
  540MOL0     C72814   5.121   0.870   9.970  0.2207 -0.4400 -0.9199
  540MOL0     N72815   4.394   0.487  10.042  0.3870  0.2750  0.2871
  540MOL0     N72816   4.264   0.493  10.028 -0.1763  0.2863 -0.2138
  540MOL0     C72817   3.348   1.235   9.573 -0.0646  0.2804 -1.2656
  540MOL0     C72818   3.237   1.220   9.493  0.4823  0.8544  0.1730
  540MOL0     C72819   2.777   1.146   9.421  0.3709 -0.0229 -0.8615
  540MOL0     C72820   2.797   1.015   9.361  0.7132  0.3486  0.8029
  540MOL0     C72821   2.695   0.952   9.289  0.7498 -0.1965  0.5233
  540MOL0     C72822   2.566   1.009   9.276  0.5058 -0.8460  0.3577
  540MOL0     O72823   2.460   0.968   9.191 -0.1871  0.1197 -0.4832
  540MOL0     C72824   2.480   0.841   9.119  0.9682  0.1017  0.0350
  540MOL0     C72825   2.346   0.790   9.062 -0.0418 -0.1877 -0.6524
  540MOL0     C72826   2.233   0.775   9.165  0.1034 -0.2147 -0.0038
  540MOL0     C72827   2.123   0.693   9.109  0.7832  0.0996 -0.3086
  540MOL0     C72828   2.092   0.708   8.962  0.8815 -0.1704  0.9271
  540MOL0     C72829   2.071   0.746   8.849 -0.2970 -0.2316 -0.5357
  540MOL0     C72830   2.546   1.133   9.340  0.6292  0.0493 -0.6789
  540MOL0     C72831   2.643   1.204   9.409  0.0993  0.0523  0.0995
  540MOL0     C72832   2.619   1.344   9.466  0.1344 -1.3074 -0.2715
  540MOL0     H72833   3.026   1.105   9.727 -0.1296  1.0131 -0.0286
  540MOL0     H72834   3.224   1.117   9.864  0.3176 -0.6738  0.8074
  540MOL0     H72835   3.521   1.057   9.923  1.0024 -2.3114 -1.3282
  540MOL0     H72836   3.469   1.008   9.754 -1.3639 -1.3858  0.9371
  540MOL0     H72837   3.692   1.195   9.837  1.6134 -0.1988 -0.0685
  540MOL0     H72838   3.656   1.150   9.670 -0.8908 -1.3084 -0.1029
  540MOL0     H72839   3.844   1.022   9.737  0.7259  0.6651  1.5149
  540MOL0     H72840   3.709   0.906   9.738  0.3009 -0.8645 -0.7987
  540MOL0     H72841   3.821   1.079   9.968  0.9896 -0.1707  0.5399
  540MOL0     H72842   3.714   0.936   9.989  0.1500 -0.3121  0.5221
  540MOL0     H72843   4.012   0.950   9.908 -0.8612  0.8237  0.3290
  540MOL0     H72844   3.952   0.887  10.058 -1.2296 -1.2497  0.1873
  540MOL0     H72845   3.836   0.711   9.916  0.7543 -1.4172  0.7207
  540MOL0     H72846   3.935   0.773   9.773  0.9292  3.5035 -0.3514
  540MOL0     H72847   4.027   0.631  10.025  0.8038  1.6865  1.0708
  540MOL0     H72848   4.130   0.755   9.943  3.0251 -2.4509 -2.0913
  540MOL0     H72849   4.038   0.484   9.856 -1.3883  0.8878 -1.5840
  540MOL0     H72850   4.116   0.598   9.735  0.2152 -2.0171 -0.6866
  540MOL0     H72851   4.392   0.569   9.725  1.9507 -1.8122  0.4493
  540MOL0     H72852   4.629   0.394   9.953  0.4910 -0.6693 -0.0165
  540MOL0     H72853   4.613   0.457   9.790 -1.5800  0.8604 -0.3232
  540MOL0     H72854   4.678   0.682   9.852  0.3726  0.8678  0.7829
  540MOL0     H72855   4.656   0.651  10.018  2.4168  2.0907 -0.5619
  540MOL0     H72856   4.862   0.499   9.864  0.6059 -1.6849 -0.1162
  540MOL0     H72857   4.829   0.477  10.029  0.0004 -1.6411 -3.3521
  540MOL0     H72858   5.011   0.616   9.997  1.6559  1.5228 -3.9783
  540MOL0     H72859   4.880   0.723  10.078  0.3348 -1.4081  1.3614
  540MOL0     H72860   4.975   0.891   9.666 -0.3788 -0.9291  0.8235
  540MOL0     H72861   5.158   1.045   9.631 -0.0176 -0.1979  0.2572
  540MOL0     H72862   5.429   1.358   9.827 -0.7375 -1.0996  0.2951
  540MOL0     H72863   5.610   1.509   9.828 -0.4168 -0.1119  2.1111
  540MOL0     H72864   5.802   1.642   9.779  2.2880  2.3162 -0.4226
  540MOL0     H72865   5.771   1.632   9.952 -1.9526  0.1111 -1.1625
  540MOL0     H72866   5.965   1.774   9.916  0.6322 -0.5224 -0.6929
  540MOL0     H72867   6.022   1.617   9.984  0.6024  0.1959  0.8473
  540MOL0     H72868   6.101   1.540   9.781 -1.5307  0.4638  1.0445
  540MOL0     H72869   6.004   1.642   9.682  0.1379  0.6083 -0.6551
  540MOL0     H72870   6.251   1.709   9.846  1.0654 -0.1998 -1.3654
  540MOL0     H72871   6.170   1.835   9.756  2.4868 -0.1763  0.6827
  540MOL0     H72872   6.194   1.712   9.538  1.3824  0.6258  0.1675
  540MOL0     H72873   6.274   1.587   9.618  2.9333  0.2821  1.0900
  540MOL0     H72874   6.368   1.875   9.626 -1.0221 -0.7836  1.2436
  540MOL0     H72875   6.450   1.751   9.717  0.2018  1.0456  0.9598
  540MOL0     H72876   6.407   1.782   9.407  0.9261  1.7846 -0.1318
  540MOL0     H72877   6.466   1.633   9.471 -3.4113  0.2061  0.5974
  540MOL0     H72878   6.667   1.741   9.556 -0.2562  0.6679  1.0608
  540MOL0     H72879   6.633   1.787   9.387  1.0951  2.1602  1.0334
  540MOL0     H72880   5.900   1.210   9.901  0.1817  1.0568 -1.9148
  540MOL0     H72881   5.707   1.040   9.902  0.4192 -0.5954  2.2742
  540MOL0     H72882   5.303   0.964  10.032  0.4282  3.5558 -0.5296
  540MOL0     H72883   5.119   0.847  10.076  2.7200  0.1100 -0.6881
  540MOL0     H72884   3.438   1.285   9.537 -1.2454  1.8907 -2.0858
  540MOL0     H72885   3.252   1.239   9.387 -0.8057 -1.3754 -0.4827
  540MOL0     H72886   2.890   0.961   9.371  1.7062  1.3045 -2.1427
  540MOL0     H72887   2.703   0.854   9.243  0.3867 -0.5546  1.2118
  540MOL0     H72888   2.512   0.759   9.183  1.2261  0.1913  0.0205
  540MOL0     H72889   2.548   0.866   9.037 -0.8728  0.8150 -1.3463
  540MOL0     H72890   2.356   0.694   9.010 -0.9726  0.9590 -3.1223
  540MOL0     H72891   2.315   0.861   8.984 -0.2277  1.2160  0.6699
  540MOL0     H72892   2.197   0.873   9.199 -0.0111 -0.1049 -0.4328
  540MOL0     H72893   2.277   0.720   9.249  1.5473  0.4854 -0.2727
  540MOL0     H72894   2.138   0.586   9.124 -0.6433  0.2301  3.0035
  540MOL0     H72895   2.028   0.720   9.156  0.1653  0.9790 -1.9470
  540MOL0     H72896   2.060   0.783   8.749 -1.8129  1.2766  0.1206
  540MOL0     H72897   2.449   1.177   9.320  0.2859 -0.2511  0.2793
  540MOL0     H72898   2.709   1.403   9.447 -0.5920  0.0267  0.2639
  540MOL0     H72899   2.539   1.402   9.418  0.9184 -0.4436 -0.5549
  540MOL0     H72900   2.607   1.336   9.574  0.3265 -1.7672 -0.2824
  541MOL0     O72901  10.160   9.441  11.243  0.8462 -0.0906 -0.2188
  541MOL0     C72902  10.104   9.434  11.132  0.0168  0.2971  0.8840
  541MOL0     O72903  10.153   9.490  11.016 -0.5570  0.1782 -0.4398
  541MOL0     C72904  10.229   9.605  11.027 -0.6249  0.2462  0.0222
  541MOL0     C72905  10.359   9.603  10.968 -0.2073 -0.0262 -0.2292
  541MOL0     C72906  10.449   9.707  10.982  0.7919 -0.1764 -0.0560
  541MOL0     C72907  10.406   9.821  11.062 -0.7505  0.2064 -0.2161
  541MOL0     O72908  10.503   9.916  11.084  0.3692  0.3709  0.0060
  541MOL0     C72909  10.469  10.051  11.122  0.3829  0.5798 -0.1914
  541MOL0     C72910  10.572  10.148  11.084  0.3007  0.0855 -0.3696
  541MOL0     C72911  10.707  10.141  11.152 -1.0772  0.0277  0.8374
  541MOL0     C72912  10.703  10.100  11.303  0.1921 -0.0560  0.5153
  541MOL0     C72913  10.845  10.105  11.360  0.1699 -0.7052  0.1399
  541MOL0     C72914  10.935   9.983  11.327  0.3288 -0.3092 -0.6366
  541MOL0     C72915  11.062   9.972  11.402  0.0449 -0.5298  0.6389
  541MOL0     C72916  11.148  10.089  11.372 -0.5105  0.3311 -0.5268
  541MOL0     N72917  11.283  10.067  11.451  0.0327  0.0602 -0.0683
  541MOL0     C72918  11.402  10.107  11.395 -0.3721  0.0650 -0.2919
  541MOL0     C72919  11.487  10.118  11.504  0.6530 -0.5705 -0.5484
  541MOL0     C72920  11.639  10.140  11.498  1.4827  0.3917  0.4865
  541MOL0     C72921  11.715  10.029  11.578 -0.2560  0.1849  0.3028
  541MOL0     C72922  11.721   9.901  11.499 -0.1043  0.6522 -0.1852
  541MOL0     C72923  11.846   9.913  11.415 -0.5135  0.4823 -0.2634
  541MOL0     O72924  11.964   9.904  11.510  0.1950 -0.1414  0.6693
  541MOL0     C72925  12.014   9.777  11.536 -0.4187 -0.1378 -0.3499
  541MOL0     C72926  12.041   9.770  11.673 -0.5653  0.0761 -0.0133
  541MOL0     C72927  12.086   9.652  11.729 -0.3228 -0.1739 -0.3691
  541MOL0     C72928  12.098   9.535  11.651 -0.7920  0.4428  0.0747
  541MOL0     C72929  12.129   9.407  11.708  0.3023  0.0008 -0.3116
  541MOL0     O72930  12.149   9.300  11.627 -0.1396  0.0600  0.3700
  541MOL0     C72931  12.233   9.203  11.660 -0.1647 -0.0523  0.4410
  541MOL0     C72932  12.206   9.128  11.772 -0.0858  0.1943  0.4703
  541MOL0     C72933  12.292   9.028  11.812 -0.2625 -0.0344 -0.5065
  541MOL0     C72934  12.407   9.005  11.731  0.4734  0.5585 -1.2153
  541MOL0     O72935  12.506   8.925  11.763  1.1192  0.1690  0.1349
  541MOL0     C72936  12.549   8.944  11.899 -0.4017  0.6546 -0.2275
  541MOL0     C72937  12.700   8.973  11.890  0.3368 -0.4000  0.6017
  541MOL0     C72938  12.720   9.100  11.806  0.4359  0.6031  0.0338
  541MOL0     C72939  12.870   9.123  11.811  0.6556  0.6256  1.1510
  541MOL0     C72940  12.893   9.249  11.724 -0.4984 -0.3058 -0.3665
  541MOL0     C72941  13.043   9.293  11.732 -0.4023 -0.2088  0.2691
  541MOL0     C72942  13.062   9.444  11.712  0.2278  0.1610 -0.3682
  541MOL0     C72943  13.208   9.492  11.730  1.2849 -0.5249  0.5336
  541MOL0    Cl72944  13.208   9.669  11.716  0.2637  0.3483 -0.0994
  541MOL0     C72945  12.431   9.075  11.616  0.9199 -0.5320 -0.2338
  541MOL0     C72946  12.344   9.175  11.581  0.2412  0.6921  0.7831
  541MOL0     O72947  12.135   9.402  11.828  0.3021 -0.0781 -0.2663
  541MOL0     C72948  12.079   9.542  11.513 -0.2635 -0.8247 -0.3956
  541MOL0     C72949  12.031   9.666  11.452 -0.0216 -0.5172  0.1512
  541MOL0     N72950  11.415  10.089  11.623  0.1902  0.0461 -0.8218
  541MOL0     N72951  11.294  10.070  11.587 -0.2291 -0.9384  0.3586
  541MOL0     C72952  10.280   9.819  11.123 -0.0496  0.2884  0.2259
  541MOL0     C72953  10.190   9.716  11.105 -0.4730 -0.0483 -0.3757
  541MOL0     C72954   9.986   9.347  11.119 -0.6069  0.7236 -0.6374
  541MOL0     C72955   9.916   9.349  10.995  0.3738  0.3942 -0.2188
  541MOL0     C72956   9.809   9.264  10.960 -0.3927 -0.7835 -0.6469
  541MOL0     C72957   9.766   9.177  11.058 -0.3346  0.2603  0.1047
  541MOL0     O72958   9.667   9.089  11.040 -0.2323  0.1648  0.7306
  541MOL0     C72959   9.552   9.132  10.966  0.0712  0.8185 -0.9810
  541MOL0     C72960   9.551   9.089  10.817 -0.6991 -0.7817  1.2181
  541MOL0     C72961   9.482   9.195  10.724  0.1714  0.8469  0.5253
  541MOL0     C72962   9.558   9.213  10.591  0.5067  0.1287  0.5898
  541MOL0     C72963   9.502   9.320  10.511  0.4651  0.1002 -1.1670
  541MOL0     C72964   9.463   9.404  10.438 -0.7963 -0.6988  1.0234
  541MOL0     C72965   9.828   9.172  11.189  0.0813  0.4994 -0.3353
  541MOL0     C72966   9.931   9.254  11.224  0.1821  0.3904  1.0594
  541MOL0     C72967   9.977   9.258  11.369  0.4818 -0.1881 -0.3912
  541MOL0     H72968  10.387   9.515  10.911  1.4973 -0.2108  0.8355
  541MOL0     H72969  10.548   9.704  10.937 -0.3079  0.5712 -2.7400
  541MOL0     H72970  10.377  10.078  11.070  0.3032 -1.1183 -1.0125
  541MOL0     H72971  10.454  10.051  11.231 -0.4231 -4.4458 -0.0768
  541MOL0     H72972  10.542  10.250  11.107 -1.2841 -1.1240  4.1146
  541MOL0     H72973  10.577  10.127  10.977 -0.9195 -0.9883 -0.2484
  541MOL0     H72974  10.755  10.238  11.137  0.0544 -0.5752  0.4788
  541MOL0     H72975  10.768  10.067  11.100  0.3492  2.2891 -0.8907
  541MOL0     H72976  10.643  10.169  11.362 -0.1825  0.8648 -0.8767
  541MOL0     H72977  10.670   9.996  11.301  0.0088 -0.0137  1.1607
  541MOL0     H72978  10.893  10.191  11.314  0.7417  0.1099  2.1330
  541MOL0     H72979  10.858  10.122  11.467  2.8917 -0.0791 -0.2263
  541MOL0     H72980  10.870   9.897  11.346 -1.7132  1.6565  1.8724
  541MOL0     H72981  10.957   9.978  11.220 -2.6398  2.3828 -1.5221
  541MOL0     H72982  11.114   9.885  11.362  1.5434 -0.4637  2.3521
  541MOL0     H72983  11.052   9.956  11.509  1.6309 -2.9048  0.4996
  541MOL0     H72984  11.155  10.096  11.263 -0.6783 -1.5228 -0.6901
  541MOL0     H72985  11.100  10.182  11.404 -0.2406  0.5863 -0.8556
  541MOL0     H72986  11.423  10.114  11.289  1.5405  0.0567  0.0485
  541MOL0     H72987  11.669  10.139  11.393 -0.7286  0.1512 -0.2045
  541MOL0     H72988  11.674  10.237  11.534 -1.8158  1.6196  0.7436
  541MOL0     H72989  11.813  10.071  11.602 -0.5722  0.4309  1.2062
  541MOL0     H72990  11.661  10.010  11.671 -1.2185  3.2732  0.5156
  541MOL0     H72991  11.627   9.895  11.444 -0.9867  0.6905  1.2610
  541MOL0     H72992  11.716   9.809  11.558  1.9832 -1.5651 -3.1660
  541MOL0     H72993  11.847  10.003  11.352 -0.4183  0.2218 -0.6352
  541MOL0     H72994  11.839   9.837  11.337 -1.5176 -0.5113  0.7437
  541MOL0     H72995  12.045   9.860  11.733  3.0413 -0.1203  0.2390
  541MOL0     H72996  12.110   9.660  11.835  1.3548  1.9173 -0.8422
  541MOL0     H72997  12.118   9.139  11.835  0.3300 -3.0428  1.8051
  541MOL0     H72998  12.280   8.976  11.907  1.0861 -0.5684 -0.6046
  541MOL0     H72999  12.506   9.037  11.938 -2.6109  0.0284 -1.0596
  541MOL0     H73000  12.529   8.853  11.956 -1.2934 -0.4746 -2.2529
  541MOL0     H73001  12.724   8.994  11.995  1.6186 -1.4212  0.5394
  541MOL0     H73002  12.760   8.887  11.858  0.2690 -0.9347  1.8352
  541MOL0     H73003  12.696   9.076  11.702 -0.9625 -1.2188  0.7213
  541MOL0     H73004  12.653   9.180  11.837  0.0074  1.3300 -2.5392
  541MOL0     H73005  12.929   9.040  11.771 -1.9824 -0.7985 -0.1334
  541MOL0     H73006  12.895   9.134  11.916  2.1669 -1.5663  1.0763
  541MOL0     H73007  12.832   9.334  11.753  2.1183  1.3375  0.6509
  541MOL0     H73008  12.876   9.228  11.618 -0.0659 -0.3057 -0.4375
  541MOL0     H73009  13.082   9.262  11.830 -1.1666 -4.3482 -0.5487
  541MOL0     H73010  13.101   9.250  11.650 -0.7695  1.6414 -1.0144
  541MOL0     H73011  13.008   9.505  11.785  0.6307  0.6140 -0.4446
  541MOL0     H73012  13.032   9.481  11.614 -1.1270 -1.7500 -0.7309
  541MOL0     H73013  13.249   9.464  11.828 -0.2200 -2.4397  0.6771
  541MOL0     H73014  13.274   9.445  11.656 -0.1151 -0.8433 -0.5484
  541MOL0     H73015  12.513   9.052  11.548 -0.8312 -1.5088 -2.1216
  541MOL0     H73016  12.361   9.235  11.492 -1.4071  2.9721  1.9099
  541MOL0     H73017  12.094   9.452  11.453  1.7038 -0.0132 -1.1932
  541MOL0     H73018  12.004   9.668  11.347 -0.4805  3.5285  0.1805
  541MOL0     H73019  10.249   9.898  11.190  1.7843  0.1191  1.3272
  541MOL0     H73020  10.098   9.714  11.162 -0.3483  0.2862 -0.1570
  541MOL0     H73021   9.935   9.416  10.912 -1.3297  0.8417 -0.2935
  541MOL0     H73022   9.772   9.268  10.858 -0.0080  1.0335 -0.7471
  541MOL0     H73023   9.544   9.241  10.980  1.2214  0.7934  0.0643
  541MOL0     H73024   9.461   9.091  11.011  1.0015 -2.9860 -2.2022
  541MOL0     H73025   9.504   8.991  10.805 -3.2271  0.5942 -1.6048
  541MOL0     H73026   9.657   9.086  10.791 -0.7649  0.3672  0.7794
  541MOL0     H73027   9.473   9.290  10.778  0.4871  1.8590 -1.1160
  541MOL0     H73028   9.386   9.148  10.699 -0.0183  1.4757  0.0496
  541MOL0     H73029   9.663   9.239  10.609  0.0822  3.2926 -0.8165
  541MOL0     H73030   9.557   9.123  10.529 -0.6035  0.0869  0.6408
  541MOL0     H73031   9.407   9.473  10.378  1.5383  0.0382 -0.4672
  541MOL0     H73032   9.796   9.102  11.265  2.2932  0.7568  0.9055
  541MOL0     H73033   9.896   9.317  11.414  0.0250 -2.7303  2.4575
  541MOL0     H73034   9.985   9.164  11.425  2.4334  1.1035  1.6595
  541MOL0     H73035  10.064   9.315  11.403 -0.6288  0.5376  1.3587
  542MOL0     O73036   3.235   0.370   0.102 -0.3523  0.8219 -0.0847
  542MOL0     C73037   3.148   0.431   0.034 -0.2516 -0.4506  0.5587
  542MOL0     O73038   3.178   0.500  -0.087 -0.2251 -0.2710  0.5087
  542MOL0     C73039   3.309   0.492  -0.128 -0.3040  0.5957  0.3186
  542MOL0     C73040   3.346   0.392  -0.231  0.2377 -0.1602  0.3393
  542MOL0     C73041   3.481   0.390  -0.272 -0.5772  0.3479 -0.6029
  542MOL0     C73042   3.579   0.485  -0.227  0.1180 -0.1617  0.0546
  542MOL0     O73043   3.708   0.470  -0.263 -0.6169  0.5472  0.7984
  542MOL0     C73044   3.808   0.573  -0.239 -0.7550 -0.0457 -0.8571
  542MOL0     C73045   3.947   0.535  -0.290  0.5718 -0.5930  0.3117
  542MOL0     C73046   4.024   0.667  -0.289  0.1160  0.0613  0.3645
  542MOL0     C73047   4.150   0.640  -0.372  0.5921 -0.3751 -0.2626
  542MOL0     C73048   4.232   0.760  -0.403 -0.2206  0.0773  1.3813
  542MOL0     C73049   4.348   0.711  -0.494 -0.5397  0.3996 -0.7179
  542MOL0     C73050   4.435   0.822  -0.538  0.1219  1.0563 -0.1667
  542MOL0     C73051   4.553   0.768  -0.619  0.2839  0.2023 -0.5094
  542MOL0     N73052   4.657   0.870  -0.627 -0.2098 -0.5632  0.9224
  542MOL0     C73053   4.783   0.882  -0.566  0.3900  0.4680  0.0015
  542MOL0     C73054   4.839   0.993  -0.617  0.0917 -0.0681 -0.1016
  542MOL0     C73055   4.973   1.055  -0.593  0.1208 -0.1941  0.4522
  542MOL0     C73056   5.080   0.981  -0.673 -0.0087  0.2077  0.0235
  542MOL0     C73057   5.212   1.036  -0.635  0.4201  0.6335 -0.1729
  542MOL0     C73058   5.319   1.033  -0.737 -0.7593 -0.6242 -0.3227
  542MOL0     O73059   5.433   1.074  -0.663 -0.5797  0.5601 -0.1881
  542MOL0     C73060   5.555   1.032  -0.716  0.5990 -0.4770 -0.4726
  542MOL0     C73061   5.658   1.009  -0.621  0.3667 -0.3904  0.4129
  542MOL0     C73062   5.776   0.938  -0.665  0.0174 -0.0673 -0.3776
  542MOL0     C73063   5.795   0.914  -0.806  0.0390  0.0519  0.2912
  542MOL0     C73064   5.920   0.866  -0.858 -0.3002  0.4700  1.1322
  542MOL0     O73065   5.930   0.823  -0.991  0.5315 -0.4768 -0.5230
  542MOL0     C73066   6.035   0.750  -1.050 -0.3136  0.0690 -0.7851
  542MOL0     C73067   6.024   0.729  -1.189  0.1465 -0.4349 -0.1384
  542MOL0     C73068   6.128   0.665  -1.260  0.9739  0.3598  0.2237
  542MOL0     C73069   6.244   0.612  -1.199 -0.4910  0.3118  0.4759
  542MOL0     O73070   6.346   0.575  -1.276  0.1058  0.2944  0.2072
  542MOL0     C73071   6.406   0.451  -1.249 -0.1957  0.2084 -0.3694
  542MOL0     C73072   6.454   0.384  -1.375 -0.3563  0.0621  0.0507
  542MOL0     C73073   6.334   0.370  -1.470 -0.3054 -0.2399 -0.6502
  542MOL0     C73074   6.222   0.293  -1.406 -0.0900  0.5392 -0.3425
  542MOL0     C73075   6.112   0.276  -1.511 -0.7090 -0.7299 -0.3504
  542MOL0     C73076   6.006   0.176  -1.461 -1.2762  0.1492 -0.9221
  542MOL0     C73077   5.881   0.174  -1.556  0.7102 -0.5438 -0.3892
  542MOL0     C73078   5.798   0.050  -1.545 -0.4903  0.1363  0.4071
  542MOL0    Cl73079   5.888  -0.077  -1.646 -0.0248 -0.1111 -0.0128
  542MOL0     C73080   6.256   0.637  -1.060 -0.8230 -0.1086  0.0391
  542MOL0     C73081   6.147   0.690  -0.986 -0.6660  0.1151 -0.5283
  542MOL0     O73082   6.003   0.835  -0.771  0.0570  1.1502  0.2981
  542MOL0     C73083   5.688   0.937  -0.897 -0.8020 -0.3263 -0.1114
  542MOL0     C73084   5.573   0.999  -0.855 -0.4841  0.8785  0.2355
  542MOL0     N73085   4.742   1.055  -0.698  0.5568 -0.0765  0.1249
  542MOL0     N73086   4.634   0.983  -0.702 -0.0800  0.0898 -0.3705
  542MOL0     C73087   3.532   0.580  -0.133  0.2751  0.0162 -0.2708
  542MOL0     C73088   3.409   0.582  -0.077  0.3127  0.6992 -0.3542
  542MOL0     C73089   3.014   0.467   0.092  0.7488  0.6814  0.0279
  542MOL0     C73090   2.956   0.586   0.045 -0.3111 -0.8851 -0.6648
  542MOL0     C73091   2.829   0.625   0.086 -0.2600  0.4264 -0.3456
  542MOL0     C73092   2.760   0.541   0.178  0.5622  0.7035 -0.4038
  542MOL0     O73093   2.640   0.590   0.235  0.5387  0.4609  0.6785
  542MOL0     C73094   2.547   0.500   0.292 -0.2539 -0.1096 -0.0625
  542MOL0     C73095   2.491   0.408   0.184  0.0319  0.2645 -0.0333
  542MOL0     C73096   2.385   0.482   0.096 -0.5423  1.3744  0.4040
  542MOL0     C73097   2.336   0.385  -0.027 -0.4244 -0.7607 -0.4832
  542MOL0     C73098   2.276   0.264   0.034  0.0588  0.7561  0.4325
  542MOL0     C73099   2.240   0.164   0.088 -0.3692  0.5113  0.0866
  542MOL0     C73100   2.819   0.421   0.226 -0.1936  0.1134  0.1993
  542MOL0     C73101   2.950   0.383   0.187 -0.6954  0.4577  0.5795
  542MOL0     C73102   3.008   0.256   0.248  0.4346 -0.3427  0.1541
  542MOL0     H73103   3.265   0.328  -0.264 -0.5081  0.0869  1.6209
  542MOL0     H73104   3.506   0.313  -0.344  1.7723  0.0565  0.4193
  542MOL0     H73105   3.777   0.667  -0.285  2.5496  1.6274  0.0049
  542MOL0     H73106   3.823   0.594  -0.132  0.8766  0.1079 -1.0903
  542MOL0     H73107   3.931   0.491  -0.389 -0.5923  0.2123  0.1271
  542MOL0     H73108   4.006   0.461  -0.235  2.2739 -1.2400 -2.1861
  542MOL0     H73109   4.055   0.702  -0.190 -0.0654  2.5116 -0.3703
  542MOL0     H73110   3.973   0.749  -0.341  0.2341 -0.0831  0.0245
  542MOL0     H73111   4.218   0.573  -0.318  1.9481  1.5696  0.5404
  542MOL0     H73112   4.122   0.592  -0.466 -0.5887 -2.6506  1.1540
  542MOL0     H73113   4.170   0.839  -0.446 -0.6233 -0.4555  0.9568
  542MOL0     H73114   4.265   0.803  -0.308 -1.7989 -0.0790  2.0476
  542MOL0     H73115   4.399   0.628  -0.444 -0.7594  0.7072  0.0270
  542MOL0     H73116   4.306   0.662  -0.582  0.6589  1.9498 -2.2314
  542MOL0     H73117   4.463   0.872  -0.445 -1.2036  1.7423 -0.1105
  542MOL0     H73118   4.370   0.889  -0.595 -0.9125 -1.1847 -1.7552
  542MOL0     H73119   4.602   0.676  -0.587  3.1328  1.4856 -0.9177
  542MOL0     H73120   4.514   0.760  -0.721  1.0382  1.2574 -0.8914
  542MOL0     H73121   4.843   0.808  -0.514 -1.3429 -1.3452 -0.4457
  542MOL0     H73122   4.977   1.161  -0.616 -0.2074 -0.6908 -2.2891
  542MOL0     H73123   4.997   1.041  -0.487  1.4557 -0.3900  0.1451
  542MOL0     H73124   5.081   0.872  -0.675 -0.5422  0.1377 -3.6877
  542MOL0     H73125   5.054   0.997  -0.778 -3.5018  0.0737  0.7627
  542MOL0     H73126   5.243   0.975  -0.550 -0.9607  0.5486  0.2942
  542MOL0     H73127   5.199   1.140  -0.604 -0.4198  0.0569  1.4947
  542MOL0     H73128   5.301   1.103  -0.820 -2.1034 -1.5154 -0.8113
  542MOL0     H73129   5.336   0.937  -0.786  4.0140  2.0290 -5.0370
  542MOL0     H73130   5.650   1.042  -0.518  1.4250  2.2283 -0.2562
  542MOL0     H73131   5.855   0.930  -0.591  1.2839  1.9323 -1.4400
  542MOL0     H73132   5.931   0.764  -1.232 -0.4246  2.4725  3.0354
  542MOL0     H73133   6.112   0.642  -1.365  0.1474  0.7469  0.2585
  542MOL0     H73134   6.493   0.467  -1.184 -1.8224  1.1438  1.6804
  542MOL0     H73135   6.348   0.383  -1.186  0.6959 -0.4866 -0.2728
  542MOL0     H73136   6.529   0.449  -1.419 -2.7031  1.5838 -1.9871
  542MOL0     H73137   6.504   0.289  -1.352  0.8150  0.1124 -2.0564
  542MOL0     H73138   6.298   0.468  -1.501  2.6837  0.9363 -0.6897
  542MOL0     H73139   6.367   0.310  -1.555  0.8531  0.8619 -0.9945
  542MOL0     H73140   6.182   0.344  -1.318  0.6426  1.7931 -0.7232
  542MOL0     H73141   6.248   0.189  -1.383 -0.7413  0.9618  2.9390
  542MOL0     H73142   6.145   0.249  -1.611 -2.8400 -3.5511 -0.4146
  542MOL0     H73143   6.058   0.371  -1.516  1.3975  0.5023 -0.7244
  542MOL0     H73144   6.053   0.078  -1.473 -0.8616  0.1058  0.7590
  542MOL0     H73145   5.976   0.195  -1.358 -0.1542  1.2607 -0.7793
  542MOL0     H73146   5.912   0.183  -1.660 -2.9651  0.7699 -1.4998
  542MOL0     H73147   5.809   0.254  -1.537  0.2970 -0.3310 -2.6095
  542MOL0     H73148   5.771   0.022  -1.443 -0.3628 -0.2483  0.3349
  542MOL0     H73149   5.703   0.062  -1.598 -3.2137 -0.0838  4.7137
  542MOL0     H73150   6.344   0.612  -1.002 -2.4268 -2.5158  1.6383
  542MOL0     H73151   6.152   0.697  -0.878 -3.5428  1.6954 -0.3959
  542MOL0     H73152   5.708   0.918  -1.003 -0.9834  3.4481 -0.9624
  542MOL0     H73153   5.487   1.007  -0.919 -1.0076 -1.0892  0.6361
  542MOL0     H73154   3.609   0.645  -0.092  1.6239 -0.3168 -2.1157
  542MOL0     H73155   3.385   0.666  -0.013 -2.3252  1.0364 -1.6614
  542MOL0     H73156   3.005   0.652  -0.026  0.7833 -0.8925  0.0699
  542MOL0     H73157   2.787   0.717   0.046 -0.9065 -0.2633 -1.2686
  542MOL0     H73158   2.468   0.561   0.337 -0.7669 -2.5586  2.6379
  542MOL0     H73159   2.589   0.449   0.379 -0.1844 -0.4833 -0.3111
  542MOL0     H73160   2.449   0.323   0.238 -0.7254  0.9006  0.4064
  542MOL0     H73161   2.577   0.372   0.127 -0.4075 -0.1905 -0.4228
  542MOL0     H73162   2.423   0.577   0.059  0.5913  1.2808  1.2725
  542MOL0     H73163   2.307   0.511   0.167 -0.2475  0.3273  1.1867
  542MOL0     H73164   2.267   0.443  -0.089 -0.4186  0.0087  0.2317
  542MOL0     H73165   2.426   0.356  -0.083 -0.5015 -0.3923 -0.8020
  542MOL0     H73166   2.212   0.077   0.144  1.1803  0.8074  1.3995
  542MOL0     H73167   2.764   0.359   0.296  2.1204 -1.2564  0.9466
  542MOL0     H73168   3.083   0.293   0.319  2.9941 -0.5502 -2.2435
  542MOL0     H73169   2.937   0.188   0.296  2.5706 -1.6267  1.6806
  542MOL0     H73170   3.061   0.195   0.173 -0.9146 -1.8280  0.3395
  543MOL0     O73171   3.937   4.610   8.498  0.2900 -0.2977 -0.2011
  543MOL0     C73172   3.944   4.564   8.619  0.1848 -0.5294 -0.2578
  543MOL0     O73173   4.054   4.582   8.702 -0.0738 -0.8317 -0.3222
  543MOL0     C73174   4.159   4.662   8.662 -0.6735 -0.4807 -0.0285
  543MOL0     C73175   4.262   4.616   8.576  0.6321  0.2608 -0.5519
  543MOL0     C73176   4.356   4.705   8.522  0.3116 -0.1711 -0.6093
  543MOL0     C73177   4.369   4.838   8.570 -0.2648  0.0136 -0.0376
  543MOL0     O73178   4.466   4.927   8.522  0.0523 -0.2155 -0.6750
  543MOL0     C73179   4.584   4.876   8.459  0.1955 -0.4761 -1.3233
  543MOL0     C73180   4.665   4.800   8.563 -0.4396 -0.1251 -1.1157
  543MOL0     C73181   4.808   4.768   8.511  0.6623  0.4673  0.2423
  543MOL0     C73182   4.794   4.656   8.403  0.0146 -0.3346 -1.0051
  543MOL0     C73183   4.942   4.619   8.361 -0.8873  0.1952 -0.8047
  543MOL0     C73184   4.945   4.513   8.248  0.0595 -0.0330  0.0972
  543MOL0     C73185   5.080   4.442   8.206  0.4364  0.0557 -0.4239
  543MOL0     C73186   5.163   4.531   8.118 -0.0219 -0.5938  0.5429
  543MOL0     N73187   5.297   4.482   8.091  0.6255 -0.7139  0.1795
  543MOL0     C73188   5.419   4.514   8.156 -0.2711 -0.1793  0.1796
  543MOL0     C73189   5.508   4.447   8.078  0.8778 -0.0028 -0.0294
  543MOL0     C73190   5.651   4.446   8.122  0.0049  0.0168  0.4504
  543MOL0     C73191   5.739   4.395   8.015 -0.9714 -0.1554  1.1942
  543MOL0     C73192   5.747   4.471   7.886 -0.2882 -0.4510 -0.2832
  543MOL0     C73193   5.863   4.439   7.791 -0.7031  0.3627 -0.1573
  543MOL0     O73194   5.989   4.459   7.865 -0.1255 -0.3863  0.5094
  543MOL0     C73195   6.100   4.400   7.813  0.1397  0.5177  0.1884
  543MOL0     C73196   6.212   4.400   7.893  0.0120 -0.2511  0.4625
  543MOL0     C73197   6.331   4.352   7.845 -0.6451 -0.1288  0.4085
  543MOL0     C73198   6.356   4.304   7.711 -0.2847  0.9039 -0.0174
  543MOL0     C73199   6.481   4.255   7.660 -0.2491 -0.9001 -0.5905
  543MOL0     O73200   6.583   4.255   7.750  0.0493  0.0445 -0.1940
  543MOL0     C73201   6.702   4.200   7.706  0.5904  0.2096  0.4313
  543MOL0     C73202   6.818   4.271   7.716 -0.1524  0.2217  0.3398
  543MOL0     C73203   6.937   4.225   7.662 -0.3964  0.3529 -0.1207
  543MOL0     C73204   6.945   4.103   7.594 -0.2440  0.7747  0.0375
  543MOL0     O73205   7.058   4.045   7.535  0.3735  0.0208  0.7433
  543MOL0     C73206   7.170   4.021   7.606  0.5797  0.1839 -1.1230
  543MOL0     C73207   7.186   3.875   7.652  0.1482 -0.4517  0.4690
  543MOL0     C73208   7.136   3.776   7.544 -0.0404  0.0051  0.1252
  543MOL0     C73209   7.173   3.629   7.551  0.7529 -1.1441 -0.3003
  543MOL0     C73210   7.179   3.557   7.408 -1.0313 -0.1597 -0.6274
  543MOL0     C73211   7.207   3.408   7.437 -0.0828  0.5942  0.1409
  543MOL0     C73212   7.184   3.327   7.308 -0.2280  0.1507 -0.0710
  543MOL0     C73213   7.032   3.293   7.279 -1.3298  0.0615  0.9636
  543MOL0    Cl73214   7.022   3.261   7.106 -0.3207 -0.1377 -0.1407
  543MOL0     C73215   6.827   4.030   7.581 -0.5281 -0.1994 -0.6912
  543MOL0     C73216   6.707   4.077   7.634  0.3620  1.0252 -0.3685
  543MOL0     O73217   6.486   4.231   7.542 -0.7826  0.2949  0.5961
  543MOL0     C73218   6.238   4.299   7.632 -0.6183 -0.1903  0.0555
  543MOL0     C73219   6.112   4.348   7.681  0.2336  0.3517 -0.8040
  543MOL0     N73220   5.447   4.372   7.980  0.2090 -0.4384  0.9928
  543MOL0     N73221   5.320   4.398   7.985 -0.6216  0.2181 -0.2493
  543MOL0     C73222   4.268   4.883   8.664  0.6129 -1.3871  0.4544
  543MOL0     C73223   4.166   4.797   8.702 -0.6726 -0.6561  0.4986
  543MOL0     C73224   3.839   4.483   8.674 -0.4702  0.8427 -1.1768
  543MOL0     C73225   3.834   4.468   8.814 -0.2493  0.1844 -0.5126
  543MOL0     C73226   3.741   4.395   8.886  0.1069 -0.2512  0.3504
  543MOL0     C73227   3.641   4.319   8.823 -0.7720 -0.4981  0.3038
  543MOL0     O73228   3.559   4.246   8.902  0.0309  0.8298 -0.9692
  543MOL0     C73229   3.423   4.224   8.848  0.3730 -0.8424 -0.3222
  543MOL0     C73230   3.322   4.179   8.967 -0.0675 -0.5271  0.9361
  543MOL0     C73231   3.181   4.150   8.911  0.7673 -0.3356 -0.0748
  543MOL0     C73232   3.111   4.285   8.880  0.1267 -0.1706  0.1694
  543MOL0     C73233   2.976   4.265   8.847 -0.4418 -0.7040  0.2478
  543MOL0     C73234   2.860   4.254   8.810  0.1411  0.6903  0.6890
  543MOL0     C73235   3.639   4.320   8.682 -0.5958  0.1519  0.7540
  543MOL0     C73236   3.732   4.411   8.614  0.3644 -0.1356  0.6086
  543MOL0     C73237   3.711   4.412   8.455 -0.4994 -0.3746  0.3689
  543MOL0     H73238   4.250   4.510   8.559  1.1767 -0.9335  4.6474
  543MOL0     H73239   4.422   4.670   8.443  1.8576 -0.2133  0.6488
  543MOL0     H73240   4.561   4.820   8.367 -0.7441 -1.8149 -0.3155
  543MOL0     H73241   4.641   4.965   8.430  0.4748  0.0472  0.7063
  543MOL0     H73242   4.618   4.705   8.589 -0.5180  0.2639  0.2411
  543MOL0     H73243   4.673   4.861   8.654 -1.2032  0.4164 -1.3969
  543MOL0     H73244   4.872   4.729   8.591  0.6621 -0.5787 -0.2532
  543MOL0     H73245   4.857   4.857   8.469  1.6935  1.2444  2.8972
  543MOL0     H73246   4.735   4.573   8.441  0.3995  0.2443  0.9600
  543MOL0     H73247   4.742   4.696   8.315  0.5337  0.3134 -1.0277
  543MOL0     H73248   5.014   4.698   8.340  0.8170 -0.5447  1.7459
  543MOL0     H73249   4.996   4.561   8.437  1.5491  1.0719 -1.7537
  543MOL0     H73250   4.887   4.427   8.280 -0.0672 -0.1599 -0.4734
  543MOL0     H73251   4.899   4.548   8.156  3.7095 -0.9687 -2.2911
  543MOL0     H73252   5.061   4.347   8.155 -3.1091 -0.0374  0.8098
  543MOL0     H73253   5.129   4.431   8.303 -1.6028  4.3373  1.3452
  543MOL0     H73254   5.105   4.564   8.031 -1.6239  1.6896  2.3387
  543MOL0     H73255   5.181   4.630   8.161 -1.7082  1.0568 -2.2301
  543MOL0     H73256   5.434   4.575   8.244 -2.0272 -0.5482  0.7606
  543MOL0     H73257   5.686   4.549   8.135  0.3050  0.0399 -0.4868
  543MOL0     H73258   5.655   4.388   8.215  2.3744  0.5011  0.7110
  543MOL0     H73259   5.836   4.401   8.066 -0.5305  2.8027  0.1744
  543MOL0     H73260   5.718   4.292   7.984  0.4332  0.4013 -1.9282
  543MOL0     H73261   5.755   4.578   7.911 -0.7890 -0.4049 -0.2920
  543MOL0     H73262   5.648   4.460   7.839 -1.1351  1.5655  0.8735
  543MOL0     H73263   5.862   4.510   7.708  2.1583  0.7831  0.0565
  543MOL0     H73264   5.848   4.336   7.756  1.4571 -0.2177  0.4286
  543MOL0     H73265   6.199   4.451   7.988 -0.2210 -0.7886  0.7209
  543MOL0     H73266   6.418   4.363   7.910 -0.8666  2.2652  0.3850
  543MOL0     H73267   6.808   4.370   7.759 -1.1587  1.8841 -3.3160
  543MOL0     H73268   7.019   4.296   7.670  0.8537 -0.9929 -0.4658
  543MOL0     H73269   7.256   4.054   7.547  2.0307 -1.6436 -0.1329
  543MOL0     H73270   7.179   4.086   7.694  0.2338  1.9294 -2.3334
  543MOL0     H73271   7.291   3.845   7.664  1.0400  1.5380 -1.5323
  543MOL0     H73272   7.130   3.858   7.744 -1.1918  0.0919 -0.2239
  543MOL0     H73273   7.027   3.773   7.546 -0.0466 -3.5607  1.1853
  543MOL0     H73274   7.163   3.802   7.441  1.7841  0.7523  0.7576
  543MOL0     H73275   7.096   3.574   7.607 -1.3317 -0.0178 -1.9073
  543MOL0     H73276   7.267   3.602   7.600  1.6371 -1.6145 -2.1391
  543MOL0     H73277   7.254   3.607   7.347 -2.1620  1.6690 -0.5995
  543MOL0     H73278   7.091   3.584   7.349 -0.8699 -0.4149 -0.9855
  543MOL0     H73279   7.309   3.400   7.475  0.2293  3.3226  0.0614
  543MOL0     H73280   7.139   3.377   7.517 -2.2824  0.7303 -1.5764
  543MOL0     H73281   7.246   3.238   7.320 -1.2262 -0.7426 -1.2379
  543MOL0     H73282   7.233   3.392   7.235 -0.4213 -1.3251 -1.5736
  543MOL0     H73283   6.994   3.209   7.338 -0.4858 -0.6120  0.5541
  543MOL0     H73284   6.980   3.385   7.310  1.0152  1.9565 -0.3426
  543MOL0     H73285   6.826   3.935   7.529  1.0044  0.9444 -2.9883
  543MOL0     H73286   6.615   4.021   7.617 -0.2437  1.2996  1.7853
  543MOL0     H73287   6.244   4.260   7.530 -2.1931  0.9196 -0.4970
  543MOL0     H73288   6.039   4.339   7.601  1.5407 -1.5362 -1.8662
  543MOL0     H73289   4.263   4.989   8.689 -0.1796 -0.9216 -1.4612
  543MOL0     H73290   4.083   4.838   8.757 -0.3438  0.6298  0.0715
  543MOL0     H73291   3.916   4.508   8.873 -1.9813  0.7535  1.6602
  543MOL0     H73292   3.737   4.403   8.994  1.6965 -2.6692  0.6496
  543MOL0     H73293   3.422   4.154   8.764 -0.1287 -0.7324 -0.4113
  543MOL0     H73294   3.391   4.320   8.806  0.4987 -1.3399 -1.6211
  543MOL0     H73295   3.314   4.242   9.056 -1.3178 -2.9814  2.6714
  543MOL0     H73296   3.352   4.082   9.007  0.9197  0.1804  1.9733
  543MOL0     H73297   3.121   4.085   8.974 -0.1519  0.7463  0.1970
  543MOL0     H73298   3.192   4.095   8.817 -0.6090 -2.1904  0.7794
  543MOL0     H73299   3.117   4.360   8.959  3.1095  2.6710 -2.4232
  543MOL0     H73300   3.158   4.326   8.789 -0.7124 -0.7592 -0.5473
  543MOL0     H73301   2.756   4.256   8.787  0.1728 -0.6804  0.3452
  543MOL0     H73302   3.565   4.261   8.628  3.4301 -1.8210 -3.2571
  543MOL0     H73303   3.629   4.354   8.414 -0.5889 -0.0638  0.0998
  543MOL0     H73304   3.692   4.512   8.414 -0.2434 -0.9796 -1.3313
  543MOL0     H73305   3.802   4.373   8.409 -2.0431 -1.1625 -2.2260
  544MOL0     O73306  10.028   4.735   4.028 -0.0637 -0.1430 -0.9149
  544MOL0     C73307  10.005   4.767   3.913 -0.2614 -0.0126 -0.0546
  544MOL0     O73308  10.065   4.863   3.843 -0.2236  0.4458 -0.0723
  544MOL0     C73309  10.184   4.904   3.884 -0.1102 -0.5272 -0.3296
  544MOL0     C73310  10.191   5.028   3.958  0.1409  0.3466  0.2815
  544MOL0     C73311  10.320   5.059   4.010  0.9764  0.1545  0.2613
  544MOL0     C73312  10.430   4.979   3.986 -0.7905  0.0731  0.2497
  544MOL0     O73313  10.553   5.014   4.030 -0.5043  0.6568  0.1008
  544MOL0     C73314  10.595   5.148   4.021 -0.7785  0.0352 -0.5534
  544MOL0     C73315  10.737   5.158   4.090  1.0807 -0.3387  0.0524
  544MOL0     C73316  10.835   5.250   4.020  0.1319 -0.3945  0.3716
  544MOL0     C73317  10.810   5.398   4.063 -1.0446  0.5211 -0.2972
  544MOL0     C73318  10.904   5.503   3.994  0.8078  0.2117  0.8722
  544MOL0     C73319  11.036   5.516   4.066 -0.4393 -0.6404 -0.5035
  544MOL0     C73320  11.123   5.615   3.987 -0.3786 -0.3736 -0.7717
  544MOL0     C73321  11.268   5.616   4.042  0.6806  0.1961  0.5801
  544MOL0     N73322  11.358   5.690   3.956  0.5136  0.0071 -0.0915
  544MOL0     C73323  11.456   5.630   3.882  0.3980  0.8388  0.0456
  544MOL0     C73324  11.522   5.736   3.836  0.6380  0.0514 -0.7258
  544MOL0     C73325  11.644   5.730   3.752 -0.0854  0.4491 -0.2875
  544MOL0     C73326  11.613   5.769   3.603  0.0251 -0.1913 -0.0496
  544MOL0     C73327  11.729   5.714   3.509  0.2126  0.1689  0.0261
  544MOL0     C73328  11.868   5.727   3.569  0.2209 -0.1698  0.2221
  544MOL0     O73329  11.881   5.871   3.596  0.0461 -0.4262  0.4892
  544MOL0     C73330  12.008   5.902   3.637 -0.0292  0.1064 -0.3938
  544MOL0     C73331  12.094   5.995   3.570 -0.1315  0.1209 -0.2555
  544MOL0     C73332  12.223   6.021   3.618  0.0966 -0.1230 -0.1938
  544MOL0     C73333  12.265   5.975   3.740  0.2306 -0.7770  0.9031
  544MOL0     C73334  12.396   6.015   3.791 -0.0308  0.5850 -0.9389
  544MOL0     O73335  12.405   6.017   3.920 -0.2618 -0.0782 -0.8985
  544MOL0     C73336  12.514   6.064   3.988 -0.1913  0.0546 -0.4700
  544MOL0     C73337  12.638   6.014   3.979 -0.3189 -0.2274  0.4412
  544MOL0     C73338  12.737   6.063   4.066  0.0176  0.9361  0.1515
  544MOL0     C73339  12.716   6.164   4.156 -0.5365 -0.2137 -0.3141
  544MOL0     O73340  12.822   6.196   4.237 -0.1446 -0.5312  0.5300
  544MOL0     C73341  12.810   6.316   4.319 -0.3234  0.9217 -0.0427
  544MOL0     C73342  12.932   6.316   4.414  0.0148  0.3522 -0.5269
  544MOL0     C73343  12.955   6.455   4.477  0.5186 -0.2188 -0.9508
  544MOL0     C73344  13.089   6.473   4.554  0.0188  0.3991  0.4870
  544MOL0     C73345  13.200   6.508   4.459 -0.7782 -0.3005  0.1613
  544MOL0     C73346  13.332   6.541   4.531 -0.1666  0.0657  0.2599
  544MOL0     C73347  13.383   6.414   4.602  0.2281 -0.1521  0.7797
  544MOL0     C73348  13.524   6.434   4.646 -0.0226 -0.7393 -0.7433
  544MOL0    Cl73349  13.580   6.282   4.688 -0.1308 -0.0945  0.3232
  544MOL0     C73350  12.590   6.220   4.159 -0.4434 -0.1499 -0.1024
  544MOL0     C73351  12.489   6.172   4.075 -1.1697 -0.3257  0.1107
  544MOL0     O73352  12.485   6.034   3.713 -0.1956 -0.4666  0.0809
  544MOL0     C73353  12.176   5.902   3.818  0.4300 -0.6972 -1.0207
  544MOL0     C73354  12.056   5.853   3.762 -0.2182  0.1952 -0.2128
  544MOL0     N73355  11.480   5.850   3.894  0.8995 -0.0884  0.5371
  544MOL0     N73356  11.378   5.823   3.964  0.3381 -1.2694 -0.3863
  544MOL0     C73357  10.425   4.865   3.908  0.9560 -0.1812 -0.7005
  544MOL0     C73358  10.295   4.822   3.860 -0.0436 -0.2631 -0.3984
  544MOL0     C73359   9.898   4.701   3.841 -0.1940  1.0486 -1.1195
  544MOL0     C73360   9.926   4.661   3.711 -0.2889 -0.2225 -0.3097
  544MOL0     C73361   9.840   4.578   3.636  0.0391 -0.4070  0.1532
  544MOL0     C73362   9.727   4.529   3.699 -0.4176 -0.2413  0.3227
  544MOL0     O73363   9.643   4.436   3.634  0.0492 -0.5346 -0.2077
  544MOL0     C73364   9.507   4.451   3.660  0.0211 -0.0658 -0.1191
  544MOL0     C73365   9.421   4.383   3.555  0.7547  0.0708  0.3395
  544MOL0     C73366   9.277   4.416   3.576 -0.0201 -0.1824 -0.2645
  544MOL0     C73367   9.203   4.325   3.477  1.0330 -0.0803 -0.0848
  544MOL0     C73368   9.058   4.322   3.502 -0.5190  0.6216  0.3517
  544MOL0     C73369   8.936   4.310   3.534  0.9502  0.0812 -0.1099
  544MOL0     C73370   9.690   4.575   3.830  0.4578 -0.1592  0.2136
  544MOL0     C73371   9.778   4.660   3.902  0.6320 -0.7472  0.0723
  544MOL0     C73372   9.723   4.706   4.032  0.5648 -0.4258 -0.0242
  544MOL0     H73373  10.097   5.082   3.965 -0.8467 -0.9462 -2.0982
  544MOL0     H73374  10.327   5.149   4.071  1.2181 -0.0875  0.5987
  544MOL0     H73375  10.606   5.186   3.919 -0.5539 -0.5309 -0.7451
  544MOL0     H73376  10.523   5.215   4.068  0.0733  2.4870 -2.5427
  544MOL0     H73377  10.787   5.061   4.085  0.8805 -0.4638  0.4975
  544MOL0     H73378  10.722   5.180   4.196 -0.0074 -1.2501  0.1116
  544MOL0     H73379  10.809   5.246   3.914 -0.9446  2.8622  0.3948
  544MOL0     H73380  10.939   5.218   4.031 -0.0260 -0.9841  0.1626
  544MOL0     H73381  10.704   5.415   4.041 -0.7845  3.1362  0.1040
  544MOL0     H73382  10.822   5.398   4.172  0.6209 -1.8412 -0.4143
  544MOL0     H73383  10.910   5.471   3.889 -1.7178  0.8665  0.4602
  544MOL0     H73384  10.853   5.599   3.988 -1.0553 -0.8108 -1.6708
  544MOL0     H73385  11.028   5.553   4.169  1.8217 -2.7377  0.5314
  544MOL0     H73386  11.089   5.421   4.064  1.0998  0.1375  0.7943
  544MOL0     H73387  11.072   5.711   3.987 -0.4330 -0.3348 -3.4779
  544MOL0     H73388  11.121   5.582   3.883  0.2360  1.2897 -1.3334
  544MOL0     H73389  11.267   5.663   4.141  0.2173  1.0483  0.1805
  544MOL0     H73390  11.300   5.513   4.056 -0.5957 -0.3863 -0.5734
  544MOL0     H73391  11.469   5.523   3.865 -0.3663  0.6582  0.5648
  544MOL0     H73392  11.715   5.805   3.789  0.1673 -0.3162  0.8090
  544MOL0     H73393  11.679   5.627   3.759 -1.6769 -0.1944 -1.2096
  544MOL0     H73394  11.516   5.728   3.573 -1.2299  2.4678  0.1444
  544MOL0     H73395  11.615   5.878   3.595  4.0509 -0.1218 -0.0590
  544MOL0     H73396  11.721   5.773   3.417 -1.0181  0.9854  0.6306
  544MOL0     H73397  11.713   5.608   3.490  3.7679 -0.4125 -0.3168
  544MOL0     H73398  11.946   5.688   3.504 -0.0785 -1.0526  0.3749
  544MOL0     H73399  11.879   5.662   3.656 -2.0200 -1.5078 -0.4135
  544MOL0     H73400  12.064   6.039   3.475  1.0547 -1.6203 -1.4885
  544MOL0     H73401  12.298   6.073   3.560  1.0503 -1.2360  0.0015
  544MOL0     H73402  12.659   5.931   3.912 -2.2411 -1.7740  1.6385
  544MOL0     H73403  12.837   6.021   4.070 -0.9905 -1.7184 -0.5424
  544MOL0     H73404  12.815   6.403   4.253 -4.4498  0.0882 -1.8126
  544MOL0     H73405  12.713   6.317   4.371 -0.9652 -1.6443 -0.9978
  544MOL0     H73406  12.923   6.244   4.495  2.1567  1.8830  1.1908
  544MOL0     H73407  13.021   6.301   4.353  1.4896 -1.3751  1.8945
  544MOL0     H73408  12.955   6.528   4.396 -5.2022  2.7948  1.1588
  544MOL0     H73409  12.872   6.474   4.546  2.5398 -0.2212  1.6443
  544MOL0     H73410  13.117   6.376   4.597 -0.5197  0.4641  1.0071
  544MOL0     H73411  13.076   6.545   4.635 -0.0785  0.7544  0.1579
  544MOL0     H73412  13.172   6.599   4.405 -1.4300 -1.4314 -1.4599
  544MOL0     H73413  13.216   6.431   4.383  0.8085  0.7772 -0.6456
  544MOL0     H73414  13.403   6.585   4.460 -0.3133  0.0407  0.0941
  544MOL0     H73415  13.310   6.619   4.604 -3.7564  1.4430 -2.0253
  544MOL0     H73416  13.379   6.328   4.535  1.6867 -2.4010  3.3747
  544MOL0     H73417  13.314   6.401   4.686  0.3666  0.8217  1.0592
  544MOL0     H73418  13.586   6.479   4.568 -0.5257 -0.5013 -1.0077
  544MOL0     H73419  13.522   6.503   4.731 -0.6299  0.4262 -1.6814
  544MOL0     H73420  12.566   6.307   4.219 -0.2038  0.0693 -0.3282
  544MOL0     H73421  12.391   6.219   4.071 -1.6779 -1.2965  0.8047
  544MOL0     H73422  12.196   5.878   3.921 -0.4594  1.7934 -0.1894
  544MOL0     H73423  11.997   5.791   3.829  0.4873 -0.5079 -0.2242
  544MOL0     H73424  10.521   4.821   3.883  0.3528 -1.3484 -1.0290
  544MOL0     H73425  10.277   4.738   3.794 -1.7496  0.5740 -1.0716
  544MOL0     H73426  10.028   4.675   3.678  0.7351 -0.0852  2.5877
  544MOL0     H73427   9.867   4.553   3.534  3.7684  0.7353  0.6959
  544MOL0     H73428   9.468   4.552   3.674 -1.5750 -1.0221  3.5734
  544MOL0     H73429   9.495   4.412   3.761  2.4957 -0.1513  0.2114
  544MOL0     H73430   9.445   4.277   3.551 -2.5155 -0.7712  0.5306
  544MOL0     H73431   9.441   4.415   3.452  2.4580  0.2468  0.6865
  544MOL0     H73432   9.251   4.520   3.553  0.1015 -0.5213 -2.0623
  544MOL0     H73433   9.249   4.401   3.681  3.6892  0.8759  1.0221
  544MOL0     H73434   9.220   4.356   3.373  1.0413 -0.7896 -0.2993
  544MOL0     H73435   9.233   4.220   3.472  0.7248 -0.1357 -0.8773
  544MOL0     H73436   8.840   4.297   3.580  1.5420  3.8377  2.7264
  544MOL0     H73437   9.605   4.539   3.886  2.2253 -0.3221  2.9718
  544MOL0     H73438   9.765   4.659   4.121 -1.6995 -2.6788 -0.0432
  544MOL0     H73439   9.735   4.814   4.044  1.8832 -0.8925  5.2883
  544MOL0     H73440   9.618   4.676   4.038  0.7374 -0.9269  0.5930
  545MOL0     O73441   2.999   0.610  10.842 -0.3273 -0.3131 -0.1627
  545MOL0     C73442   3.000   0.676  10.943  0.3903 -0.1042 -0.3396
  545MOL0     O73443   3.106   0.751  11.000  0.1040 -0.4415 -0.1590
  545MOL0     C73444   3.223   0.750  10.938 -0.4403 -0.1921 -0.2433
  545MOL0     C73445   3.280   0.641  10.880  0.2937  0.0980  0.3647
  545MOL0     C73446   3.411   0.652  10.818 -1.4747  0.3443  0.8953
  545MOL0     C73447   3.489   0.764  10.826  0.2222  0.9357 -0.5957
  545MOL0     O73448   3.616   0.758  10.784 -0.6317  1.0562  0.3309
  545MOL0     C73449   3.691   0.868  10.742  0.6183 -0.1466  0.2027
  545MOL0     C73450   3.792   0.820  10.649  0.1149  0.1841 -0.2019
  545MOL0     C73451   3.908   0.921  10.654 -0.2694  0.1824 -0.5349
  545MOL0     C73452   3.992   0.899  10.528 -0.2744  0.0205 -0.8735
  545MOL0     C73453   4.113   0.989  10.538 -0.5237 -0.5385  0.4833
  545MOL0     C73454   4.204   0.990  10.402  0.1113  0.3601 -0.1680
  545MOL0     C73455   4.321   1.078  10.418 -0.1660 -1.3031  0.4181
  545MOL0     C73456   4.290   1.230  10.435 -1.2120 -0.2553 -0.8733
  545MOL0     N73457   4.407   1.311  10.411 -0.3308  0.5710  0.6450
  545MOL0     C73458   4.531   1.282  10.465 -0.5350 -0.4664 -0.2471
  545MOL0     C73459   4.614   1.350  10.392 -0.4917 -0.8471 -0.7773
  545MOL0     C73460   4.766   1.359  10.409 -0.8562 -0.1869  0.7415
  545MOL0     C73461   4.807   1.451  10.530  0.2117  0.2632  0.5325
  545MOL0     C73462   4.765   1.594  10.514  0.3795 -0.2070  0.2698
  545MOL0     C73463   4.832   1.657  10.388 -0.2270 -1.0636 -0.2617
  545MOL0     O73464   4.977   1.653  10.383  0.2441 -0.2400  0.1575
  545MOL0     C73465   5.052   1.734  10.305 -0.2467 -1.3913  0.2062
  545MOL0     C73466   5.026   1.869  10.279 -0.6707  0.1030 -1.0268
  545MOL0     C73467   5.123   1.950  10.210 -0.3686 -0.1929 -0.1691
  545MOL0     C73468   5.244   1.896  10.155 -0.5205 -0.2589 -0.2289
  545MOL0     C73469   5.354   1.968  10.088 -0.6053  0.2429 -0.0313
  545MOL0     O73470   5.462   1.896  10.042  0.6267  0.6801 -0.6201
  545MOL0     C73471   5.561   1.955   9.979 -0.7565 -0.5119 -0.1794
  545MOL0     C73472   5.543   2.028   9.852  0.1681 -0.3979 -0.3995
  545MOL0     C73473   5.656   2.097   9.791 -0.0955  0.1493  0.6821
  545MOL0     C73474   5.782   2.081   9.846 -0.1048  0.3921 -0.0906
  545MOL0     O73475   5.893   2.136   9.782  0.1106 -1.0152  0.2658
  545MOL0     C73476   5.933   2.060   9.672 -0.4670  0.2690 -0.7345
  545MOL0     C73477   6.042   2.120   9.588  0.2222  0.3404 -0.3564
  545MOL0     C73478   6.174   2.144   9.660 -0.5304 -0.0718 -0.6320
  545MOL0     C73479   6.245   2.269   9.602  0.5821 -0.4796 -0.4375
  545MOL0     C73480   6.395   2.264   9.619 -1.3613  0.2732 -0.3216
  545MOL0     C73481   6.466   2.393   9.583 -0.1619  0.4333  0.4910
  545MOL0     C73482   6.617   2.366   9.596  0.0927  0.3000  0.2940
  545MOL0     C73483   6.680   2.486   9.540 -0.4949 -0.3692  0.0464
  545MOL0    Cl73484   6.690   2.609   9.674  0.2051 -0.3131  0.2287
  545MOL0     C73485   5.798   2.009   9.961 -0.6787 -0.7435 -0.0400
  545MOL0     C73486   5.688   1.951  10.036  0.1406  0.3900 -0.0696
  545MOL0     O73487   5.341   2.089  10.062  0.5543 -0.0771 -0.0722
  545MOL0     C73488   5.264   1.758  10.186 -0.7652 -0.7253  0.2118
  545MOL0     C73489   5.173   1.683  10.264  0.0996 -0.7549  0.1198
  545MOL0     N73490   4.544   1.420  10.294  0.2268 -0.0971 -0.5086
  545MOL0     N73491   4.423   1.396  10.305 -0.1175  0.5673  0.3217
  545MOL0     C73492   3.441   0.873  10.899 -0.0879  0.4066 -0.4701
  545MOL0     C73493   3.304   0.866  10.950  0.1390  0.2536 -0.5983
  545MOL0     C73494   2.866   0.692  10.991 -0.1594  0.2855  0.7784
  545MOL0     C73495   2.767   0.604  10.954 -0.1183  0.2952 -0.1043
  545MOL0     C73496   2.630   0.621  11.007  0.2377 -0.8821 -0.7474
  545MOL0     C73497   2.593   0.730  11.087  0.4397 -0.5282 -0.8260
  545MOL0     O73498   2.463   0.747  11.132  0.7322 -0.4535  0.1853
  545MOL0     C73499   2.430   0.843  11.230 -0.7406  0.4861  1.8680
  545MOL0     C73500   2.398   0.986  11.173 -0.1911  0.0003 -0.6078
  545MOL0     C73501   2.282   0.976  11.065  0.1357 -0.0401 -0.9056
  545MOL0     C73502   2.152   0.933  11.130 -0.4277  0.0963  0.1673
  545MOL0     C73503   2.038   0.944  11.042 -0.0661  0.3748 -0.6096
  545MOL0     C73504   1.946   0.945  10.965  0.0500  0.0373 -0.9688
  545MOL0     C73505   2.694   0.828  11.112  0.3475  0.0367 -0.4729
  545MOL0     C73506   2.829   0.803  11.074  0.3438 -0.5265  0.1867
  545MOL0     C73507   2.928   0.906  11.130  0.1370 -0.1603  0.0838
  545MOL0     H73508   3.224   0.549  10.879  3.3409 -1.9107  0.0495
  545MOL0     H73509   3.449   0.558  10.780  1.0212  1.5011  0.3020
  545MOL0     H73510   3.632   0.936  10.680  2.5178  2.3404  0.9248
  545MOL0     H73511   3.729   0.922  10.830  0.3174  0.9341 -0.3157
  545MOL0     H73512   3.751   0.812  10.548 -0.2156  1.6944 -0.2150
  545MOL0     H73513   3.838   0.728  10.687  0.0785  1.0180  1.9972
  545MOL0     H73514   3.966   0.909  10.746 -1.5269  3.7852  0.8936
  545MOL0     H73515   3.874   1.024  10.645  0.0278  0.4449  1.0109
  545MOL0     H73516   4.037   0.799  10.534  3.2676  1.5348  2.0846
  545MOL0     H73517   3.940   0.918  10.434 -0.8777 -0.9264 -0.7434
  545MOL0     H73518   4.074   1.091  10.545  1.2708  0.2069  0.4172
  545MOL0     H73519   4.169   0.959  10.627 -0.8213 -0.5221  0.6770
  545MOL0     H73520   4.242   0.891  10.378 -0.8964 -0.6025  1.9312
  545MOL0     H73521   4.142   1.016  10.316  2.4204  3.1039 -1.1691
  545MOL0     H73522   4.389   1.066  10.334  1.7228 -0.2222  1.7097
  545MOL0     H73523   4.379   1.051  10.507  2.2155 -0.0481 -0.6859
  545MOL0     H73524   4.203   1.262  10.378 -1.4485 -0.2736 -0.5213
  545MOL0     H73525   4.266   1.246  10.541  1.6687  1.4989 -0.3690
  545MOL0     H73526   4.567   1.224  10.550  0.7133  0.0010 -0.4333
  545MOL0     H73527   4.804   1.260  10.434  0.6499  0.8013  2.6107
  545MOL0     H73528   4.815   1.379  10.313 -2.1106 -0.2213  0.0660
  545MOL0     H73529   4.745   1.422  10.615 -2.0796  2.1882 -0.3766
  545MOL0     H73530   4.914   1.451  10.556  0.8848 -3.5973 -1.4501
  545MOL0     H73531   4.789   1.647  10.607  2.6538 -1.0851  0.2394
  545MOL0     H73532   4.656   1.604  10.512  0.5564  4.8454  2.0098
  545MOL0     H73533   4.805   1.763  10.389  0.8355 -0.7920  0.5659
  545MOL0     H73534   4.789   1.614  10.297 -0.2134  2.0724 -1.8847
  545MOL0     H73535   4.935   1.906  10.327 -2.5612 -3.5990 -1.4610
  545MOL0     H73536   5.095   2.055  10.205  2.7320  0.7423  0.0820
  545MOL0     H73537   5.447   2.028   9.801  0.4475 -1.7066 -0.9408
  545MOL0     H73538   5.649   2.146   9.695 -1.2907 -1.2412  0.0122
  545MOL0     H73539   5.958   1.956   9.698 -2.1471 -0.0610 -0.3572
  545MOL0     H73540   5.846   2.054   9.607  0.3251 -0.1117 -1.7890
  545MOL0     H73541   6.052   2.052   9.503  0.2456 -1.5405  1.0976
  545MOL0     H73542   6.001   2.215   9.552  0.0969  0.7538  0.8270
  545MOL0     H73543   6.167   2.145   9.769  2.1527  0.6633 -0.4019
  545MOL0     H73544   6.228   2.050   9.646 -0.2180  0.3083 -2.1069
  545MOL0     H73545   6.210   2.351   9.666  2.1513 -0.1439  0.0404
  545MOL0     H73546   6.217   2.284   9.498  0.4561 -0.3588 -0.3861
  545MOL0     H73547   6.429   2.181   9.556 -0.7543 -0.8944  1.4775
  545MOL0     H73548   6.420   2.250   9.724 -1.8112  2.3125  0.1045
  545MOL0     H73549   6.436   2.410   9.479  0.3812 -2.3512 -0.1926
  545MOL0     H73550   6.446   2.476   9.651  1.5502  0.5469  0.9106
  545MOL0     H73551   6.643   2.272   9.546 -2.4195 -1.0439  1.3768
  545MOL0     H73552   6.641   2.350   9.702  1.5048  1.1954  0.1444
  545MOL0     H73553   6.780   2.450   9.515  0.6974  2.1946  0.6864
  545MOL0     H73554   6.633   2.527   9.450 -1.3818  3.8674  2.1423
  545MOL0     H73555   5.893   1.983  10.005 -0.6605 -2.3864 -0.9630
  545MOL0     H73556   5.699   1.895  10.129  0.9188  1.5219  0.5471
  545MOL0     H73557   5.355   1.717  10.144  0.0960  0.7107  0.5753
  545MOL0     H73558   5.196   1.577  10.267  3.8871 -0.1590  4.8608
  545MOL0     H73559   3.498   0.962  10.922 -0.0571  0.1734  0.3933
  545MOL0     H73560   3.255   0.943  11.009 -0.4833 -0.2284 -0.4877
  545MOL0     H73561   2.791   0.519  10.891  2.7673  0.4403  0.6343
  545MOL0     H73562   2.550   0.554  10.979 -0.6817  0.5670 -1.7195
  545MOL0     H73563   2.510   0.837  11.304  0.6571 -2.2353  0.2919
  545MOL0     H73564   2.345   0.802  11.286 -1.7317  0.0563  0.1146
  545MOL0     H73565   2.488   1.030  11.127 -0.6496  2.4232  0.6454
  545MOL0     H73566   2.367   1.048  11.257 -1.4059 -1.0537 -0.2412
  545MOL0     H73567   2.321   0.906  10.990  2.0282  3.2266 -3.2650
  545MOL0     H73568   2.264   1.073  11.019 -1.0379  1.7849  2.9631
  545MOL0     H73569   2.160   0.832  11.169  3.9012  0.9264  1.9717
  545MOL0     H73570   2.128   0.995  11.217 -0.9562  2.2158 -1.3868
  545MOL0     H73571   1.861   0.953  10.901  0.4994  1.1906 -1.4546
  545MOL0     H73572   2.679   0.914  11.177 -0.7253 -0.8238  0.4711
  545MOL0     H73573   2.965   0.978  11.057 -0.9532 -1.6042 -1.9815
  545MOL0     H73574   2.896   0.957  11.221  4.4893  2.4123  0.4535
  545MOL0     H73575   3.018   0.863  11.176  1.4418  0.9422 -1.3726
  546MOL0     O73576   7.519   7.244   1.602  0.1256  0.3625  0.0780
  546MOL0     C73577   7.473   7.305   1.507 -0.0644  0.0287  0.1112
  546MOL0     O73578   7.536   7.405   1.437  0.0831 -0.0991 -0.4117
  546MOL0     C73579   7.661   7.445   1.481 -0.2511  0.1056  0.5126
  546MOL0     C73580   7.726   7.440   1.610 -0.0694  0.5798 -0.1413
  546MOL0     C73581   7.846   7.491   1.631 -0.1312 -0.5609 -0.0291
  546MOL0     C73582   7.928   7.539   1.528  0.8709 -0.1956  0.7589
  546MOL0     O73583   8.056   7.576   1.539  0.0468 -0.2583 -0.9541
  546MOL0     C73584   8.126   7.607   1.672  0.3281  0.4307  1.2621
  546MOL0     C73585   8.272   7.582   1.655 -0.3305 -0.7504  0.4091
  546MOL0     C73586   8.327   7.553   1.793 -1.0777  0.0571  0.2646
  546MOL0     C73587   8.467   7.484   1.774  0.5249 -0.6271 -0.6733
  546MOL0     C73588   8.529   7.424   1.897 -0.4406  0.1597  0.6299
  546MOL0     C73589   8.596   7.521   2.002  0.0370 -0.5854 -0.1238
  546MOL0     C73590   8.676   7.451   2.119 -0.0715  0.1682  0.0291
  546MOL0     C73591   8.804   7.377   2.056 -0.0365 -0.1131 -0.1776
  546MOL0     N73592   8.911   7.466   2.009 -0.0146  0.6711 -0.7271
  546MOL0     C73593   8.989   7.441   1.905 -1.3088  0.3018 -0.6803
  546MOL0     C73594   9.069   7.552   1.895  0.3461  0.5516  0.1938
  546MOL0     C73595   9.160   7.591   1.782  1.2850  0.8219 -0.0171
  546MOL0     C73596   9.299   7.620   1.839  0.2530  0.1711  0.2919
  546MOL0     C73597   9.424   7.619   1.743  0.6153 -0.0457 -0.0837
  546MOL0     C73598   9.394   7.696   1.616  1.3850 -0.8857  0.5054
  546MOL0     O73599   9.515   7.699   1.539 -0.1134  0.0288 -0.0292
  546MOL0     C73600   9.619   7.785   1.567 -0.0493 -1.3865 -0.0065
  546MOL0     C73601   9.746   7.747   1.518 -0.1458 -0.8214 -0.0443
  546MOL0     C73602   9.858   7.832   1.538  0.4152 -0.7972 -0.6405
  546MOL0     C73603   9.851   7.957   1.609 -0.0083 -0.0551  0.6099
  546MOL0     C73604   9.965   8.045   1.620 -0.5387 -0.2611  0.0673
  546MOL0     O73605  10.071   8.015   1.542 -0.2569  0.3353 -0.3905
  546MOL0     C73606  10.186   8.092   1.552 -0.6253 -0.3648 -1.0594
  546MOL0     C73607  10.268   8.092   1.435 -0.4105 -0.7925 -0.0847
  546MOL0     C73608  10.396   8.149   1.433 -0.3806  0.3752 -0.0616
  546MOL0     C73609  10.455   8.200   1.555 -0.5094  0.4731 -0.3536
  546MOL0     O73610  10.582   8.260   1.562 -0.2967 -0.2068  0.2572
  546MOL0     C73611  10.684   8.209   1.657  0.0512  0.7902  0.6370
  546MOL0     C73612  10.797   8.322   1.676 -0.9903 -0.9658  0.3886
  546MOL0     C73613  10.904   8.271   1.770 -0.7683 -0.0728 -0.0736
  546MOL0     C73614  11.028   8.360   1.794  0.1923  0.2301 -0.6417
  546MOL0     C73615  11.103   8.302   1.910 -0.8980 -0.2367 -0.1392
  546MOL0     C73616  11.210   8.406   1.944 -0.4143 -0.1561 -0.5817
  546MOL0     C73617  11.267   8.382   2.087  0.3492 -0.2384 -0.6071
  546MOL0     C73618  11.365   8.494   2.132 -0.1166  0.1904 -0.0305
  546MOL0    Cl73619  11.487   8.447   2.264 -0.1267  0.4130  0.2071
  546MOL0     C73620  10.381   8.203   1.673  0.9303  0.2710  0.1999
  546MOL0     C73621  10.252   8.154   1.671  0.3022 -0.0396 -0.6316
  546MOL0     O73622   9.951   8.144   1.686 -0.1857 -0.4178  0.3777
  546MOL0     C73623   9.725   7.994   1.652  0.4837 -0.1261 -0.9724
  546MOL0     C73624   9.612   7.915   1.632  0.0445 -0.2433  1.2144
  546MOL0     N73625   9.043   7.635   2.005  0.0819 -0.2404 -0.1651
  546MOL0     N73626   8.949   7.584   2.074  0.2759  0.0804  0.5436
  546MOL0     C73627   7.870   7.538   1.395  0.4013  0.6436 -0.3264
  546MOL0     C73628   7.737   7.493   1.375  0.4755 -0.0388  0.3062
  546MOL0     C73629   7.338   7.270   1.462 -0.6075 -0.5377  0.2899
  546MOL0     C73630   7.268   7.370   1.387  0.3322 -0.0774  0.0353
  546MOL0     C73631   7.138   7.352   1.343  1.0216  0.4028  0.0817
  546MOL0     C73632   7.063   7.240   1.376 -0.6408 -0.0767  0.3301
  546MOL0     O73633   6.951   7.225   1.303  0.5800  0.4766  0.4515
  546MOL0     C73634   6.843   7.148   1.343 -0.3469 -0.2943  0.4337
  546MOL0     C73635   6.771   7.104   1.213 -0.0434 -0.6327 -1.1015
  546MOL0     C73636   6.633   7.046   1.248 -0.3749 -0.3791 -0.5088
  546MOL0     C73637   6.546   6.995   1.132 -0.0110  0.2109  0.2235
  546MOL0     C73638   6.417   6.942   1.182 -0.6299  0.0529  0.3517
  546MOL0     C73639   6.324   6.904   1.239 -0.4863 -0.1075  0.2174
  546MOL0     C73640   7.133   7.134   1.450 -1.3755 -0.4011 -0.9471
  546MOL0     C73641   7.264   7.149   1.490 -0.0284 -0.5616  0.0242
  546MOL0     C73642   7.324   7.029   1.565 -0.6992 -0.0360 -0.2845
  546MOL0     H73643   7.672   7.408   1.698  2.6858 -0.5439  1.2725
  546MOL0     H73644   7.883   7.493   1.732  0.8453  1.3837 -0.3752
  546MOL0     H73645   8.114   7.712   1.700  1.3264  0.3117  2.2034
  546MOL0     H73646   8.088   7.543   1.752 -0.9699 -0.1806  0.1982
  546MOL0     H73647   8.326   7.658   1.597 -2.6966 -1.3100 -2.7824
  546MOL0     H73648   8.286   7.493   1.594 -2.4618 -2.0309  1.6562
  546MOL0     H73649   8.270   7.476   1.847  1.6829 -3.1811 -1.0517
  546MOL0     H73650   8.325   7.651   1.841  1.5324 -0.9027  2.6538
  546MOL0     H73651   8.473   7.400   1.705  2.1466 -1.4081  0.3609
  546MOL0     H73652   8.543   7.550   1.731  1.9092 -3.4222 -2.8229
  546MOL0     H73653   8.459   7.369   1.961  0.8659 -1.2490  0.9255
  546MOL0     H73654   8.609   7.355   1.865  0.2740  1.6072 -0.8470
  546MOL0     H73655   8.663   7.590   1.951 -1.3335  1.2454  0.4453
  546MOL0     H73656   8.515   7.583   2.042  1.7144  1.1174  0.7824
  546MOL0     H73657   8.614   7.383   2.179  0.1518 -0.2212 -0.1734
  546MOL0     H73658   8.709   7.533   2.183 -0.1463  0.5376 -0.4034
  546MOL0     H73659   8.849   7.318   2.136 -3.0802 -2.5861 -0.0907
  546MOL0     H73660   8.767   7.306   1.982  0.6080  0.8027 -1.4093
  546MOL0     H73661   8.986   7.354   1.841 -2.8040 -2.4261  2.7577
  546MOL0     H73662   9.164   7.509   1.709 -2.4191  1.3048 -1.0155
  546MOL0     H73663   9.113   7.672   1.725  0.0213  1.3882  1.7373
  546MOL0     H73664   9.294   7.715   1.892 -0.5469 -0.2677  1.0428
  546MOL0     H73665   9.327   7.554   1.922  2.2807  3.0538  2.0751
  546MOL0     H73666   9.451   7.514   1.735  1.6395  0.1519  0.5902
  546MOL0     H73667   9.506   7.669   1.796  0.0184  1.8786 -0.8960
  546MOL0     H73668   9.351   7.790   1.651 -1.4043 -2.0757  0.6063
  546MOL0     H73669   9.315   7.647   1.558  2.7385  0.9716 -3.2196
  546MOL0     H73670   9.746   7.647   1.475  0.6887 -1.4946  1.4494
  546MOL0     H73671   9.954   7.790   1.508  0.6657 -1.5116  1.0321
  546MOL0     H73672  10.239   8.029   1.352 -0.4941  0.1463 -0.7774
  546MOL0     H73673  10.464   8.130   1.351 -0.1593  0.7188  0.0387
  546MOL0     H73674  10.654   8.157   1.748  1.3887  0.6918  1.0520
  546MOL0     H73675  10.740   8.129   1.606 -0.9503 -0.7132  1.8220
  546MOL0     H73676  10.845   8.345   1.580  1.4393  0.7852  1.9086
  546MOL0     H73677  10.754   8.416   1.711  1.8197  0.8528 -0.6685
  546MOL0     H73678  10.856   8.273   1.869 -0.7259  2.3109 -0.0391
  546MOL0     H73679  10.933   8.172   1.733 -0.9616  0.1924 -0.9581
  546MOL0     H73680  10.988   8.458   1.819  1.1638  0.5046 -0.0859
  546MOL0     H73681  11.085   8.361   1.700 -0.5542 -4.1176 -1.3894
  546MOL0     H73682  11.157   8.212   1.879 -0.0452  0.2535 -0.1290
  546MOL0     H73683  11.046   8.284   2.002 -0.2731 -6.6328 -0.5316
  546MOL0     H73684  11.297   8.413   1.877 -0.2044 -0.6406 -0.3689
  546MOL0     H73685  11.171   8.507   1.959  3.9407  1.4765  1.4133
  546MOL0     H73686  11.318   8.286   2.100  1.5392  0.7865  3.7584
  546MOL0     H73687  11.188   8.389   2.161  0.7978  0.4023 -0.1854
  546MOL0     H73688  11.430   8.534   2.054  2.7483  0.1295  2.1861
  546MOL0     H73689  11.316   8.585   2.169 -0.3654 -0.5842  1.6511
  546MOL0     H73690  10.433   8.251   1.756  3.1001  2.4652 -2.2279
  546MOL0     H73691  10.197   8.158   1.764 -0.8786 -1.4629 -1.2411
  546MOL0     H73692   9.726   8.089   1.705  3.0353 -2.1747  3.1113
  546MOL0     H73693   9.518   7.954   1.670 -2.2535 -0.9623 -3.0346
  546MOL0     H73694   7.939   7.563   1.315  0.5925 -0.9663 -0.6986
  546MOL0     H73695   7.694   7.500   1.275 -2.0843  0.1096  1.3427
  546MOL0     H73696   7.305   7.469   1.363  0.2289  0.0878  0.5396
  546MOL0     H73697   7.077   7.429   1.296 -0.3666 -1.7381 -1.8374
  546MOL0     H73698   6.786   7.223   1.397  1.0238  1.6207 -0.6605
  546MOL0     H73699   6.864   7.063   1.409 -0.4159 -0.3202  0.4230
  546MOL0     H73700   6.825   7.023   1.164 -0.0204 -2.8003  2.2091
  546MOL0     H73701   6.758   7.185   1.140  3.6065  1.1498 -0.0027
  546MOL0     H73702   6.578   7.130   1.292  2.1690  0.5421  1.1805
  546MOL0     H73703   6.651   6.974   1.329  0.1154 -1.0314 -1.1873
  546MOL0     H73704   6.526   7.079   1.064 -0.2405 -2.5165 -3.3956
  546MOL0     H73705   6.597   6.919   1.072 -1.0388 -0.3405  0.0219
  546MOL0     H73706   6.234   6.867   1.285 -1.2344  0.9204 -0.3663
  546MOL0     H73707   7.081   7.046   1.487 -0.7293 -0.5306 -0.3246
  546MOL0     H73708   7.384   7.066   1.648  0.7382  1.4984 -1.9123
  546MOL0     H73709   7.252   6.959   1.607 -1.0144 -0.4907 -1.5391
  546MOL0     H73710   7.389   6.974   1.496  2.3422 -0.7513  2.9060
  547MOL0     O73711  10.040  10.650   3.173 -0.2051  0.5204  0.1528
  547MOL0     C73712   9.999  10.573   3.084 -0.0244  0.2456 -0.4221
  547MOL0     O73713  10.073  10.525   2.978  0.0391 -0.0505 -0.1900
  547MOL0     C73714  10.158  10.612   2.904  0.3950  0.5940 -1.3518
  547MOL0     C73715  10.256  10.555   2.826  0.0553  0.1530 -0.0242
  547MOL0     C73716  10.351  10.629   2.752  0.0920  0.2866  0.0283
  547MOL0     C73717  10.348  10.768   2.765  0.4538 -0.3894 -0.0475
  547MOL0     O73718  10.439  10.859   2.706  0.7403 -0.0674 -0.4734
  547MOL0     C73719  10.566  10.805   2.666 -0.3138  0.0250 -0.7309
  547MOL0     C73720  10.654  10.912   2.602 -0.8033 -0.6664  0.0190
  547MOL0     C73721  10.770  10.861   2.521 -0.5736  0.6133  0.2088
  547MOL0     C73722  10.826  10.983   2.433  0.0242 -0.2678 -0.2587
  547MOL0     C73723  10.980  10.958   2.399  0.2084  0.4968 -0.1977
  547MOL0     C73724  11.037  11.076   2.319  0.4945 -0.2764  0.5025
  547MOL0     C73725  11.190  11.069   2.305 -0.3011 -0.1163  0.3361
  547MOL0     C73726  11.259  11.206   2.302  0.3354  0.1349 -0.6284
  547MOL0     N73727  11.402  11.184   2.275 -0.4161 -0.4601  0.2028
  547MOL0     C73728  11.507  11.146   2.354  0.0020  1.7220 -0.1833
  547MOL0     C73729  11.617  11.157   2.270  0.0317  0.2222 -0.5544
  547MOL0     C73730  11.755  11.121   2.320  0.9615  0.5921 -0.4161
  547MOL0     C73731  11.881  11.194   2.273  0.6789 -0.2724  0.3666
  547MOL0     C73732  11.867  11.339   2.288  0.7608  0.0401  0.0123
  547MOL0     C73733  11.996  11.413   2.272 -0.1723  0.0683 -0.5594
  547MOL0     O73734  12.080  11.370   2.379  0.2250 -0.9718 -0.1676
  547MOL0     C73735  12.214  11.416   2.370 -0.2178  0.4404  0.2766
  547MOL0     C73736  12.262  11.516   2.289 -0.2503  0.8871 -0.3020
  547MOL0     C73737  12.399  11.538   2.282  0.2413 -0.2788 -0.3677
  547MOL0     C73738  12.488  11.458   2.359 -0.3041 -0.7354  0.7870
  547MOL0     C73739  12.640  11.497   2.363  0.0081 -0.0925 -0.4594
  547MOL0     O73740  12.679  11.608   2.297  0.6181 -0.5875 -0.1608
  547MOL0     C73741  12.810  11.638   2.284  0.0459 -1.4755 -0.5169
  547MOL0     C73742  12.899  11.546   2.231 -0.9288 -0.7650 -0.1475
  547MOL0     C73743  13.036  11.581   2.203 -0.2607  0.2420 -0.4992
  547MOL0     C73744  13.081  11.705   2.235 -0.0839 -0.3910 -0.2711
  547MOL0     O73745  13.210  11.747   2.211 -0.1283  0.7478 -0.4469
  547MOL0     C73746  13.223  11.826   2.099 -0.8353  0.0398  0.2894
  547MOL0     C73747  13.276  11.745   1.970  1.0218 -0.4115 -1.0278
  547MOL0     C73748  13.309  11.835   1.852  0.0629 -0.1438  1.3780
  547MOL0     C73749  13.432  11.918   1.869  0.2918  0.8498 -1.0374
  547MOL0     C73750  13.460  12.021   1.752 -0.3246 -0.5337  0.4860
  547MOL0     C73751  13.461  11.960   1.612  0.3661  0.0431  0.2925
  547MOL0     C73752  13.586  11.870   1.593  0.1722 -0.2695 -0.6332
  547MOL0     C73753  13.598  11.821   1.452 -0.0074 -0.1617  0.5422
  547MOL0    Cl73754  13.572  11.946   1.327 -0.0204  0.0674 -0.0342
  547MOL0     C73755  12.993  11.791   2.301  0.0046  0.1283 -0.3973
  547MOL0     C73756  12.856  11.763   2.328  0.0993  0.0029 -0.2206
  547MOL0     O73757  12.715  11.437   2.444 -0.2965 -0.0122  0.7313
  547MOL0     C73758  12.436  11.355   2.449 -0.6416 -1.0614  0.2719
  547MOL0     C73759  12.301  11.334   2.441  0.3244 -0.7837  0.8463
  547MOL0     N73760  11.584  11.203   2.146  0.2414 -0.2458  0.5367
  547MOL0     N73761  11.455  11.221   2.153 -0.0515  0.5855 -0.0045
  547MOL0     C73762  10.246  10.827   2.835 -0.0593 -0.3207  0.4159
  547MOL0     C73763  10.159  10.751   2.911 -0.2416  0.4455 -0.6379
  547MOL0     C73764   9.857  10.525   3.089  0.0894  0.5092  0.3210
  547MOL0     C73765   9.836  10.409   3.003  0.3177  0.1013 -0.5027
  547MOL0     C73766   9.704  10.354   2.989 -0.5590 -0.5935  0.9241
  547MOL0     C73767   9.603  10.399   3.071 -0.0523 -0.3623  0.6021
  547MOL0     O73768   9.479  10.349   3.047 -0.2369  0.2629  0.0047
  547MOL0     C73769   9.367  10.388   3.133 -0.9608  0.2374 -0.4040
  547MOL0     C73770   9.258  10.282   3.112 -0.5137 -0.4415 -0.5071
  547MOL0     C73771   9.232  10.240   2.973  0.0492  0.9956  0.6691
  547MOL0     C73772   9.083  10.196   2.956 -0.5778  1.0210 -0.0059
  547MOL0     C73773   9.047  10.055   2.995  0.3129 -0.2317  0.3817
  547MOL0     C73774   9.012   9.941   3.020  0.7804 -0.7026  0.6237
  547MOL0     C73775   9.626  10.511   3.156  0.5899 -0.3759  0.1370
  547MOL0     C73776   9.747  10.584   3.158  1.1699  0.3729  0.1564
  547MOL0     C73777   9.763  10.699   3.257  0.0250 -0.9393  0.1246
  547MOL0     H73778  10.263  10.447   2.831  1.3050  0.2715  1.5503
  547MOL0     H73779  10.418  10.583   2.681 -1.7700  0.3460 -1.8746
  547MOL0     H73780  10.627  10.783   2.754  0.6126 -1.2377 -1.6383
  547MOL0     H73781  10.555  10.717   2.601  0.1078 -1.2469  0.8362
  547MOL0     H73782  10.697  10.978   2.678  1.4343 -2.0304 -0.0075
  547MOL0     H73783  10.582  10.960   2.535 -0.5960 -1.7985 -1.0584
  547MOL0     H73784  10.730  10.781   2.459 -0.5695  0.3536  0.5364
  547MOL0     H73785  10.846  10.812   2.582 -0.2005  0.1667 -0.5936
  547MOL0     H73786  10.771  11.002   2.341  0.4798 -0.8097 -0.6524
  547MOL0     H73787  10.803  11.074   2.489 -0.8478 -0.0442 -0.9483
  547MOL0     H73788  11.028  10.948   2.496 -2.6013  1.0531  1.3426
  547MOL0     H73789  10.977  10.860   2.350 -3.4982 -0.0918  0.9265
  547MOL0     H73790  10.981  11.071   2.226 -1.0723 -1.1119  1.4415
  547MOL0     H73791  11.011  11.169   2.370  0.7765  0.9359 -1.4903
  547MOL0     H73792  11.205  11.031   2.203 -0.5822  1.4570 -0.3257
  547MOL0     H73793  11.244  11.016   2.384 -0.2501  2.3053  2.0426
  547MOL0     H73794  11.213  11.275   2.231  0.5249  0.8017 -0.1177
  547MOL0     H73795  11.243  11.257   2.397 -1.2630  0.5924 -1.1173
  547MOL0     H73796  11.507  11.112   2.457 -1.6318 -0.7187 -0.8848
  547MOL0     H73797  11.749  11.146   2.426  2.0565  4.2656 -1.0755
  547MOL0     H73798  11.775  11.013   2.320 -1.4105  0.0757 -1.7665
  547MOL0     H73799  11.962  11.140   2.323 -0.7739 -1.2308  1.7827
  547MOL0     H73800  11.891  11.176   2.166  3.1926  0.6524  0.3845
  547MOL0     H73801  11.830  11.359   2.389  2.0685 -2.5090  1.0691
  547MOL0     H73802  11.798  11.379   2.213  2.3784  1.4162 -0.7858
  547MOL0     H73803  11.958  11.515   2.287 -0.1678  0.2094 -1.4449
  547MOL0     H73804  12.047  11.414   2.176  2.2003  2.3564  0.5912
  547MOL0     H73805  12.193  11.585   2.242 -0.5391  3.9356  3.9249
  547MOL0     H73806  12.433  11.620   2.221  3.3698  1.5604  3.3998
  547MOL0     H73807  12.868  11.448   2.195 -0.9902 -0.6389 -0.4353
  547MOL0     H73808  13.106  11.521   2.147  0.0572  0.0072  0.1406
  547MOL0     H73809  13.127  11.870   2.069 -0.3405  0.5385 -0.6425
  547MOL0     H73810  13.295  11.906   2.121  0.2827 -0.9208  0.2041
  547MOL0     H73811  13.361  11.680   1.992  2.5012  1.3658 -1.2583
  547MOL0     H73812  13.190  11.685   1.938 -0.6293  1.8457 -1.0414
  547MOL0     H73813  13.324  11.761   1.774 -0.2236  0.8922  0.3181
  547MOL0     H73814  13.233  11.906   1.818  0.6791  1.2152  2.7178
  547MOL0     H73815  13.509  11.842   1.885 -3.4289 -2.6027  3.3079
  547MOL0     H73816  13.431  11.978   1.961  1.1620  2.0641 -1.7877
  547MOL0     H73817  13.553  12.068   1.787 -1.0998  0.0385  1.8446
  547MOL0     H73818  13.387  12.102   1.763  0.9883  0.5649  1.4827
  547MOL0     H73819  13.372  11.897   1.602  0.7023 -0.4494  0.3532
  547MOL0     H73820  13.457  12.040   1.539 -1.9816 -0.4454 -0.1922
  547MOL0     H73821  13.578  11.784   1.659 -4.8067  1.1157  1.0124
  547MOL0     H73822  13.672  11.929   1.625  0.3510 -0.6902 -0.3340
  547MOL0     H73823  13.694  11.771   1.438 -0.9245 -1.4914 -1.4482
  547MOL0     H73824  13.517  11.751   1.426 -0.2228  0.2762  0.0145
  547MOL0     H73825  13.037  11.888   2.322  2.8369 -0.6606 -2.1343
  547MOL0     H73826  12.779  11.830   2.364  0.2810 -0.5723  1.3191
  547MOL0     H73827  12.510  11.301   2.506  1.7489 -0.3044 -1.9393
  547MOL0     H73828  12.255  11.268   2.515  0.7798 -2.4621 -0.2956
  547MOL0     H73829  10.232  10.934   2.826  0.0995 -0.4411 -1.7693
  547MOL0     H73830  10.088  10.802   2.974 -1.1110  1.1255 -2.1102
  547MOL0     H73831   9.904  10.360   2.934 -0.2463 -2.0399  0.4040
  547MOL0     H73832   9.686  10.274   2.919  1.7545 -0.3246 -0.0440
  547MOL0     H73833   9.324  10.485   3.107 -2.6729 -0.7826 -1.5950
  547MOL0     H73834   9.405  10.394   3.235  0.7110 -2.5009 -0.7537
  547MOL0     H73835   9.170  10.333   3.153 -0.8760 -0.9809 -0.6074
  547MOL0     H73836   9.282  10.186   3.158 -2.0461 -1.6801 -2.1145
  547MOL0     H73837   9.308  10.167   2.942  1.0802  0.9411  3.1046
  547MOL0     H73838   9.231  10.328   2.909 -3.1561  0.0647 -0.7723
  547MOL0     H73839   9.030  10.258   3.028  0.6174  3.4940 -1.1552
  547MOL0     H73840   9.048  10.233   2.859  1.9348  1.7986 -0.6948
  547MOL0     H73841   8.983   9.843   3.052  0.6421 -1.3387 -1.3082
  547MOL0     H73842   9.544  10.551   3.214  1.9822 -0.8408  2.5653
  547MOL0     H73843   9.671  10.730   3.307  1.7564  2.3454  1.6311
  547MOL0     H73844   9.833  10.676   3.338 -2.2075 -2.1282  1.8048
  547MOL0     H73845   9.791  10.785   3.195 -0.6589 -1.0792 -0.3855
  548MOL0     O73846   0.842   0.144   3.260  0.9370 -0.3483  0.3198
  548MOL0     C73847   0.814   0.167   3.144 -0.2395 -0.5630 -0.2463
  548MOL0     O73848   0.911   0.192   3.046  0.1169 -0.5632 -0.2291
  548MOL0     C73849   1.045   0.176   3.080 -0.3164  0.0650 -0.0724
  548MOL0     C73850   1.134   0.283   3.062  0.1881  0.2126  0.2940
  548MOL0     C73851   1.277   0.264   3.072  0.4284 -0.2109  0.0403
  548MOL0     C73852   1.327   0.136   3.089 -0.2729 -0.0126 -0.1411
  548MOL0     O73853   1.461   0.093   3.086  0.2078 -0.0774 -0.4529
  548MOL0     C73854   1.556   0.181   3.036 -0.9203  0.3802 -0.1999
  548MOL0     C73855   1.610   0.258   3.156  0.0467 -0.2020 -0.0539
  548MOL0     C73856   1.735   0.179   3.208 -0.9794  0.3134  0.7478
  548MOL0     C73857   1.781   0.247   3.339  0.4329 -0.2035  0.0738
  548MOL0     C73858   1.922   0.217   3.376 -1.0002  1.3756 -0.4991
  548MOL0     C73859   1.965   0.264   3.522  0.8182  0.3961  0.2739
  548MOL0     C73860   1.998   0.416   3.512 -0.4644  0.0852  0.2641
  548MOL0     C73861   2.043   0.467   3.644  0.0856 -0.4630 -0.6623
  548MOL0     N73862   2.115   0.588   3.632 -0.1826 -0.1207 -0.0974
  548MOL0     C73863   2.067   0.704   3.600 -0.8778 -0.0149  0.3051
  548MOL0     C73864   2.181   0.777   3.564  0.2414 -0.6910 -0.0011
  548MOL0     C73865   2.189   0.927   3.527  0.2625 -0.0721  0.0079
  548MOL0     C73866   2.223   0.963   3.372  0.5251 -0.5278 -0.1084
  548MOL0     C73867   2.246   1.118   3.377  0.3233  0.3564  0.7838
  548MOL0     C73868   2.299   1.165   3.241 -0.2642 -0.3106  0.7106
  548MOL0     O73869   2.425   1.098   3.199  0.9642  0.3785 -0.0011
  548MOL0     C73870   2.485   1.143   3.084  0.0353 -1.1188 -0.2929
  548MOL0     C73871   2.610   1.090   3.057  0.0063 -0.1101  0.0034
  548MOL0     C73872   2.687   1.131   2.952 -0.3271  0.2936  0.0298
  548MOL0     C73873   2.642   1.235   2.868 -0.0563 -0.3443  0.3828
  548MOL0     C73874   2.744   1.277   2.768  0.5108 -0.3630  0.0751
  548MOL0     O73875   2.834   1.185   2.719  0.4883  0.5154  0.2250
  548MOL0     C73876   2.933   1.228   2.632 -0.0799  0.0560  0.6786
  548MOL0     C73877   2.905   1.274   2.508  0.2140 -0.1846  0.0358
  548MOL0     C73878   2.999   1.317   2.408 -0.1031 -0.1991 -1.0743
  548MOL0     C73879   3.135   1.301   2.447 -0.7393 -0.2482 -0.5762
  548MOL0     O73880   3.224   1.353   2.360  0.3895  0.1885  0.6317
  548MOL0     C73881   3.364   1.322   2.365 -0.1700  0.7979 -0.2105
  548MOL0     C73882   3.455   1.390   2.260  0.3217  0.0075 -0.7947
  548MOL0     C73883   3.594   1.329   2.289 -0.5031  0.1758  0.7333
  548MOL0     C73884   3.696   1.389   2.177 -0.1089 -0.1848  0.0503
  548MOL0     C73885   3.837   1.322   2.194 -0.1024  0.1011  0.2119
  548MOL0     C73886   3.938   1.385   2.100  0.2036  0.3304  0.2146
  548MOL0     C73887   3.978   1.524   2.144 -0.6331  1.2332 -0.0192
  548MOL0     C73888   4.084   1.570   2.045  0.0586 -0.0807  0.4975
  548MOL0    Cl73889   4.010   1.591   1.876 -0.0358 -0.0237  0.2748
  548MOL0     C73890   3.171   1.248   2.574  0.6745  0.3880  0.0254
  548MOL0     C73891   3.066   1.217   2.667 -0.4076  0.4904  0.1735
  548MOL0     O73892   2.723   1.391   2.721  0.1174  0.5352 -0.4289
  548MOL0     C73893   2.509   1.283   2.882  0.2912  0.5971 -0.5294
  548MOL0     C73894   2.436   1.240   2.995  0.3294  0.1110 -0.3369
  548MOL0     N73895   2.292   0.704   3.595 -0.0670 -0.2726  0.6902
  548MOL0     N73896   2.247   0.584   3.628 -0.2337 -0.2298  0.1283
  548MOL0     C73897   1.236   0.036   3.123 -0.3957 -0.2127 -0.0804
  548MOL0     C73898   1.094   0.055   3.128  0.3085  1.7856  0.6595
  548MOL0     C73899   0.670   0.173   3.108 -0.4674  0.2217  0.6743
  548MOL0     C73900   0.645   0.217   2.977  0.4545 -0.3989  0.3237
  548MOL0     C73901   0.510   0.236   2.938  0.4701 -0.0907 -0.2910
  548MOL0     C73902   0.402   0.213   3.029  0.4662  0.3745 -0.7654
  548MOL0     O73903   0.270   0.207   2.986 -0.0736  0.3441  0.6702
  548MOL0     C73904   0.241   0.283   2.865 -0.8123 -0.2302 -0.4997
  548MOL0     C73905   0.086   0.317   2.857 -0.0737 -0.4764 -0.4271
  548MOL0     C73906  -0.000   0.184   2.868 -0.7293 -0.0543 -0.1837
  548MOL0     C73907  -0.138   0.219   2.904 -0.7064 -0.4314  0.2011
  548MOL0     C73908  -0.212   0.112   2.968  0.5879 -0.3986  0.5218
  548MOL0     C73909  -0.269   0.024   3.034 -1.0440  0.1194 -0.2998
  548MOL0     C73910   0.431   0.159   3.154 -0.2645 -0.5146  0.1093
  548MOL0     C73911   0.562   0.132   3.189  0.2916  0.2464 -0.0340
  548MOL0     C73912   0.578   0.072   3.330 -0.1791  0.4785 -0.1048
  548MOL0     H73913   1.101   0.385   3.044 -2.9192 -0.3059  2.3125
  548MOL0     H73914   1.343   0.346   3.046  0.1790  0.6609  1.9886
  548MOL0     H73915   1.628   0.121   2.979 -1.0820  0.5602 -0.6021
  548MOL0     H73916   1.506   0.256   2.973 -2.4564 -1.8339 -1.7776
  548MOL0     H73917   1.534   0.271   3.234 -0.8327 -0.5493 -0.8393
  548MOL0     H73918   1.646   0.351   3.111 -1.5041  0.3351 -0.2449
  548MOL0     H73919   1.823   0.195   3.145 -0.1456 -0.5626  1.6377
  548MOL0     H73920   1.718   0.073   3.225  0.8569 -0.2952 -0.8736
  548MOL0     H73921   1.776   0.354   3.317  2.7006 -0.1688 -0.5065
  548MOL0     H73922   1.711   0.213   3.415 -0.5139  2.8171  0.6942
  548MOL0     H73923   1.948   0.111   3.367  0.4454  1.8459 -2.9992
  548MOL0     H73924   1.975   0.271   3.297  1.0951  0.6627  0.3468
  548MOL0     H73925   1.878   0.263   3.588 -0.4756  0.1835 -1.3705
  548MOL0     H73926   2.044   0.209   3.575 -0.0189 -0.2307  0.8848
  548MOL0     H73927   1.919   0.480   3.472  1.6448  2.4952 -0.3012
  548MOL0     H73928   2.080   0.434   3.442 -0.1301  2.8261  1.2630
  548MOL0     H73929   1.947   0.473   3.697  0.5430  1.3449  0.0330
  548MOL0     H73930   2.100   0.389   3.696  0.0334  1.4442  2.4825
  548MOL0     H73931   1.964   0.738   3.599 -1.1985 -0.4474 -4.8886
  548MOL0     H73932   2.086   0.960   3.546  0.3556  0.4219 -0.3170
  548MOL0     H73933   2.251   0.975   3.604 -0.1143 -2.3382  1.8531
  548MOL0     H73934   2.308   0.910   3.329  0.4913 -0.2725 -0.4916
  548MOL0     H73935   2.136   0.936   3.311  2.7311 -0.5733 -3.4746
  548MOL0     H73936   2.307   1.159   3.458 -0.9876  2.4128  0.7992
  548MOL0     H73937   2.154   1.174   3.393  0.0728  2.0413 -4.5347
  548MOL0     H73938   2.329   1.269   3.257  0.9391 -0.4794 -0.3729
  548MOL0     H73939   2.220   1.155   3.166 -0.0219 -1.2106  0.5565
  548MOL0     H73940   2.653   1.014   3.121 -1.8202  1.9031  3.9258
  548MOL0     H73941   2.789   1.095   2.954  0.1990  1.7625  0.7775
  548MOL0     H73942   2.800   1.287   2.483  0.4489  1.2493 -0.2545
  548MOL0     H73943   2.962   1.348   2.311 -2.7927  1.4146  0.3256
  548MOL0     H73944   3.399   1.355   2.464 -1.3375  0.8758  0.1967
  548MOL0     H73945   3.390   1.217   2.352 -2.1771  0.4371 -1.8599
  548MOL0     H73946   3.420   1.372   2.158 -2.8658 -0.2949  0.2232
  548MOL0     H73947   3.449   1.497   2.281 -0.9468 -0.3986  1.3079
  548MOL0     H73948   3.630   1.353   2.389  4.6321 -1.8799 -0.3406
  548MOL0     H73949   3.603   1.220   2.287 -0.3452  0.1477  2.1695
  548MOL0     H73950   3.692   1.498   2.186 -1.1101 -0.3847  2.8289
  548MOL0     H73951   3.669   1.367   2.073  2.6532  1.4868 -1.1325
  548MOL0     H73952   3.820   1.217   2.169 -0.1670  0.4366 -1.2129
  548MOL0     H73953   3.865   1.304   2.299  0.1307  0.7203  0.2570
  548MOL0     H73954   4.021   1.313   2.102  0.1313  0.2598  1.3881
  548MOL0     H73955   3.903   1.398   1.997  0.6274  0.1508  0.0413
  548MOL0     H73956   4.023   1.526   2.244 -1.4513 -0.6915  0.4393
  548MOL0     H73957   3.897   1.595   2.164 -0.4637  0.5348  4.1030
  548MOL0     H73958   4.139   1.660   2.074 -0.9720  0.5297  0.5701
  548MOL0     H73959   4.159   1.490   2.038  1.9935  1.5995  0.8344
  548MOL0     H73960   3.277   1.252   2.596  0.9727  0.1408 -1.3109
  548MOL0     H73961   3.095   1.176   2.763 -2.3624 -1.9244 -0.1648
  548MOL0     H73962   2.472   1.368   2.827  0.1925 -0.0816 -1.5374
  548MOL0     H73963   2.338   1.288   2.990  1.4813  2.5197 -1.3739
  548MOL0     H73964   1.288  -0.056   3.149  0.9392  0.7685  0.8670
  548MOL0     H73965   1.025  -0.023   3.158  0.3639  1.9396  1.1810
  548MOL0     H73966   0.718   0.247   2.903 -0.8686  1.2864 -0.3726
  548MOL0     H73967   0.494   0.259   2.834  4.8142 -3.2700 -1.9956
  548MOL0     H73968   0.274   0.236   2.771  0.4544 -0.2567 -0.0649
  548MOL0     H73969   0.301   0.374   2.871  2.2748 -2.0155 -1.4137
  548MOL0     H73970   0.063   0.373   2.766  3.5262 -0.5745 -1.5482
  548MOL0     H73971   0.069   0.375   2.948  1.9691 -0.5006  0.0253
  548MOL0     H73972   0.045   0.122   2.946  1.1785  1.0518 -0.3516
  548MOL0     H73973   0.006   0.130   2.773  0.5759  2.1036 -1.4357
  548MOL0     H73974  -0.130   0.288   2.989 -1.6451 -2.3383  1.9129
  548MOL0     H73975  -0.198   0.263   2.824 -0.4138 -2.0254 -0.9438
  548MOL0     H73976  -0.311  -0.060   3.085  0.1769  0.2697  1.0245
  548MOL0     H73977   0.351   0.132   3.221 -0.0767  1.3215  1.1312
  548MOL0     H73978   0.611   0.146   3.404  0.1287  0.5528 -0.3129
  548MOL0     H73979   0.477   0.046   3.364 -0.6043  0.0360 -1.6000
  548MOL0     H73980   0.648  -0.013   3.330 -0.9296 -0.1773  1.3466
  549MOL0     O73981   8.564   2.360   8.327 -0.1260 -1.1503 -0.0262
  549MOL0     C73982   8.533   2.243   8.346  0.2464 -0.2495  0.8492
  549MOL0     O73983   8.568   2.162   8.450 -0.1259  0.1650 -0.1513
  549MOL0     C73984   8.619   2.217   8.560  0.2675 -0.2463 -0.3482
  549MOL0     C73985   8.746   2.272   8.575 -0.4798  0.3924 -0.3243
  549MOL0     C73986   8.790   2.305   8.711  0.3716  0.5270 -0.2583
  549MOL0     C73987   8.708   2.268   8.826  0.5640  0.5483 -0.4641
  549MOL0     O73988   8.761   2.282   8.946  0.1499  0.0963  0.2706
  549MOL0     C73989   8.670   2.304   9.059  0.8859  1.0271 -0.4507
  549MOL0     C73990   8.748   2.366   9.172 -0.8986  0.7683 -0.5037
  549MOL0     C73991   8.870   2.274   9.234 -0.1784 -0.2117  0.0205
  549MOL0     C73992   8.942   2.362   9.339  0.1619 -0.5025 -0.0097
  549MOL0     C73993   9.079   2.299   9.382  0.2166  0.3829  0.4230
  549MOL0     C73994   9.179   2.377   9.456 -0.4356  0.4406 -0.6545
  549MOL0     C73995   9.120   2.441   9.573  0.8194  0.4289 -0.6389
  549MOL0     C73996   9.221   2.496   9.675 -0.3436  0.0632 -0.5524
  549MOL0     N73997   9.317   2.399   9.739 -0.0511  0.6860 -0.4340
  549MOL0     C73998   9.273   2.286   9.816 -0.0674 -0.1829  0.7885
  549MOL0     C73999   9.393   2.247   9.869  0.9977  1.0106  0.1993
  549MOL0     C74000   9.391   2.146   9.984 -0.0279 -1.0886  0.2610
  549MOL0     C74001   9.540   2.118  10.003 -0.1351  0.2093 -1.4044
  549MOL0     C74002   9.561   2.027  10.123 -0.7537 -0.9500 -0.2074
  549MOL0     C74003   9.698   1.953  10.115 -0.1310 -0.3300  0.0930
  549MOL0     O74004   9.813   2.040  10.133  0.7277  0.5659 -0.7845
  549MOL0     C74005   9.934   1.985  10.122 -0.6279  0.3538 -0.3453
  549MOL0     C74006  10.045   2.077  10.134  1.0803 -1.1842  0.6205
  549MOL0     C74007  10.171   2.039  10.117 -0.1974  1.1584 -0.6202
  549MOL0     C74008  10.204   1.896  10.105  0.8753  0.6288  0.5456
  549MOL0     C74009  10.339   1.846  10.123  0.4624  1.0665  0.4996
  549MOL0     O74010  10.442   1.931  10.118  0.3090  0.4591  0.4937
  549MOL0     C74011  10.569   1.879  10.142  0.6803 -0.7500 -0.1312
  549MOL0     C74012  10.677   1.956  10.079 -0.2701  1.3836  0.6287
  549MOL0     C74013  10.815   1.924  10.113  0.0661 -0.5216  0.0742
  549MOL0     C74014  10.845   1.823  10.207  0.1088  0.1331  0.2552
  549MOL0     O74015  10.972   1.808  10.251 -0.4985 -0.1360  0.2034
  549MOL0     C74016  11.007   1.675  10.300  0.2838 -0.1518 -0.3343
  549MOL0     C74017  11.146   1.667  10.240  0.3131 -0.1534 -0.4620
  549MOL0     C74018  11.250   1.722  10.339 -0.1682 -0.1893 -0.5431
  549MOL0     C74019  11.386   1.727  10.265  0.2499  0.2308  0.6871
  549MOL0     C74020  11.490   1.801  10.350  0.8789  0.3572  0.0931
  549MOL0     C74021  11.633   1.757  10.329  0.0235 -0.5454 -0.4903
  549MOL0     C74022  11.737   1.860  10.372 -0.9529 -0.2090 -0.0060
  549MOL0     C74023  11.884   1.827  10.339 -0.6175 -0.1014 -0.5338
  549MOL0    Cl74024  11.953   1.711  10.461 -0.1247  0.0029 -0.5857
  549MOL0     C74025  10.738   1.755  10.268  0.4159 -0.3449  1.2369
  549MOL0     C74026  10.596   1.790  10.246 -0.0385  0.6260 -0.2223
  549MOL0     O74027  10.343   1.725  10.136 -0.1647 -0.6781  0.8386
  549MOL0     C74028  10.096   1.808  10.070 -0.0478 -0.3578 -0.3909
  549MOL0     C74029   9.967   1.851  10.078 -0.0240  0.1466 -0.0405
  549MOL0     N74030   9.496   2.321   9.820 -0.4834  0.1715 -0.1883
  549MOL0     N74031   9.449   2.415   9.754  0.0877 -0.2220  0.2073
  549MOL0     C74032   8.582   2.225   8.804 -0.3837  0.5915 -0.2774
  549MOL0     C74033   8.540   2.204   8.677 -0.7967 -0.8481 -0.7832
  549MOL0     C74034   8.438   2.196   8.239 -0.8008 -0.3482  0.3132
  549MOL0     C74035   8.466   2.226   8.099  0.6109  0.4230 -0.4513
  549MOL0     C74036   8.371   2.192   7.999  0.1593 -0.1707 -1.5460
  549MOL0     C74037   8.247   2.132   8.039  0.4594 -0.2771 -0.5255
  549MOL0     O74038   8.153   2.116   7.942 -0.1107 -0.4568  0.3505
  549MOL0     C74039   8.008   2.110   7.967  0.9124 -0.0405 -0.6349
  549MOL0     C74040   7.935   2.108   7.831 -0.2071 -1.0913 -0.1329
  549MOL0     C74041   7.792   2.152   7.854 -0.0485 -0.0680 -0.5255
  549MOL0     C74042   7.693   2.127   7.737 -0.8094 -0.3209  0.1040
  549MOL0     C74043   7.717   2.219   7.626 -0.0461 -0.2429 -0.5918
  549MOL0     C74044   7.757   2.299   7.541 -0.4645  0.0299  0.0040
  549MOL0     C74045   8.221   2.108   8.174 -0.3773  0.2360  0.4302
  549MOL0     C74046   8.313   2.140   8.273  0.0895  0.4430 -0.1056
  549MOL0     C74047   8.249   2.135   8.415 -0.2056 -0.1332  0.8295
  549MOL0     H74048   8.812   2.283   8.490 -1.0812  2.7458 -0.5443
  549MOL0     H74049   8.887   2.349   8.732  0.4878  0.7448 -1.2115
  549MOL0     H74050   8.588   2.370   9.030  0.5445  0.7736 -0.0754
  549MOL0     H74051   8.629   2.211   9.098  2.0808  0.2436 -0.9921
  549MOL0     H74052   8.675   2.403   9.245  1.8675  3.4281  1.1367
  549MOL0     H74053   8.797   2.453   9.128 -0.4316  2.6233  3.3151
  549MOL0     H74054   8.940   2.240   9.157 -0.6543  1.4037 -1.1796
  549MOL0     H74055   8.835   2.177   9.272 -1.8691  1.1361  2.0766
  549MOL0     H74056   8.961   2.463   9.300 -3.5485 -0.3314 -1.8238
  549MOL0     H74057   8.878   2.373   9.427  1.8878 -1.2460  1.4026
  549MOL0     H74058   9.064   2.202   9.429 -2.8198  1.2668  1.5101
  549MOL0     H74059   9.133   2.284   9.288  2.4768  1.0384  1.5380
  549MOL0     H74060   9.250   2.297   9.477 -2.2726 -0.9255  0.6518
  549MOL0     H74061   9.222   2.452   9.388  3.8776 -0.7062  0.4853
  549MOL0     H74062   9.059   2.363   9.620 -1.2099  1.9263 -0.6819
  549MOL0     H74063   9.047   2.516   9.541  1.4970  0.4208 -2.3123
  549MOL0     H74064   9.288   2.575   9.638  2.5234 -1.5915  0.7693
  549MOL0     H74065   9.166   2.539   9.760  2.0620 -0.0258  1.1628
  549MOL0     H74066   9.170   2.256   9.828  0.0335 -0.4668  0.9657
  549MOL0     H74067   9.343   2.194  10.070  0.6426 -1.4611  0.8584
  549MOL0     H74068   9.342   2.052   9.955 -0.6170  0.0960 -3.0534
  549MOL0     H74069   9.568   2.067   9.910  1.1532 -0.2599 -0.7778
  549MOL0     H74070   9.606   2.204  10.017  0.0879 -0.4154  2.4519
  549MOL0     H74071   9.486   1.948  10.114 -0.8730 -0.6337 -3.2517
  549MOL0     H74072   9.548   2.088  10.212  0.2455  0.6610 -1.1266
  549MOL0     H74073   9.700   1.911  10.014 -0.0437 -0.2249  0.0524
  549MOL0     H74074   9.705   1.878  10.195  3.7147 -1.3085 -0.9462
  549MOL0     H74075  10.020   2.181  10.151  0.5663 -0.8025 -2.0744
  549MOL0     H74076  10.253   2.110  10.126  1.0474 -0.1037 -1.5648
  549MOL0     H74077  10.649   2.040  10.016  0.4501  2.4530  1.6884
  549MOL0     H74078  10.892   1.992  10.077 -0.3424  1.4672  2.6753
  549MOL0     H74079  11.016   1.670  10.409  0.7183  1.2937 -0.2879
  549MOL0     H74080  10.933   1.603  10.267 -1.2060  1.3196 -0.3241
  549MOL0     H74081  11.149   1.558  10.227 -2.3156 -0.0911 -2.5237
  549MOL0     H74082  11.153   1.718  10.143  2.2987  0.4805 -0.0268
  549MOL0     H74083  11.219   1.823  10.367 -1.4651 -0.9488  0.9922
  549MOL0     H74084  11.267   1.665  10.431  2.8412 -0.0441 -0.9222
  549MOL0     H74085  11.374   1.777  10.169  2.8281  0.1484  0.2673
  549MOL0     H74086  11.412   1.624  10.242  0.8152  0.3857  0.6200
  549MOL0     H74087  11.467   1.768  10.451 -1.0266 -1.0761 -0.7628
  549MOL0     H74088  11.476   1.909  10.336 -2.4506 -0.3005 -3.1399
  549MOL0     H74089  11.642   1.663  10.383  0.0935 -1.9015 -2.7647
  549MOL0     H74090  11.645   1.742  10.222  0.7272 -0.1409 -0.4729
  549MOL0     H74091  11.733   1.876  10.480  0.7183  4.6597 -0.3799
  549MOL0     H74092  11.704   1.957  10.333 -3.8408 -0.8541  0.6172
  549MOL0     H74093  11.900   1.782  10.241  1.2610 -0.0950 -0.2573
  549MOL0     H74094  11.939   1.922  10.335 -2.9116  1.3328 -0.1533
  549MOL0     H74095  10.754   1.680  10.345  0.9850 -1.9124 -0.3407
  549MOL0     H74096  10.514   1.740  10.295  0.2144 -0.3566 -0.7927
  549MOL0     H74097  10.119   1.704  10.050  2.5791  0.3066 -1.1378
  549MOL0     H74098   9.897   1.769  10.082 -1.1161  1.1078  1.6316
  549MOL0     H74099   8.509   2.209   8.883 -0.7012  1.1925 -0.4418
  549MOL0     H74100   8.438   2.167   8.665 -0.9595 -0.0075 -2.1747
  549MOL0     H74101   8.548   2.279   8.053  1.1352 -0.7442 -0.9192
  549MOL0     H74102   8.377   2.227   7.897 -1.5934  1.8888 -1.0149
  549MOL0     H74103   7.987   2.193   8.035  2.9950  0.4818 -0.5676
  549MOL0     H74104   7.984   2.022   8.028  2.9849  2.4090  4.2764
  549MOL0     H74105   7.936   2.002   7.803 -1.1928 -1.7783  2.1567
  549MOL0     H74106   7.967   2.180   7.756 -0.0602 -0.7201  0.2834
  549MOL0     H74107   7.786   2.258   7.880 -0.2690 -0.4416  1.0433
  549MOL0     H74108   7.755   2.110   7.948  0.4528  1.4992  0.4361
  549MOL0     H74109   7.697   2.029   7.688  1.1291 -0.1491 -0.1616
  549MOL0     H74110   7.599   2.146   7.790 -0.2557 -0.7231  1.2826
  549MOL0     H74111   7.805   2.360   7.468 -0.1131 -1.2951 -0.9149
  549MOL0     H74112   8.125   2.071   8.206  0.6334 -2.1407  0.9293
  549MOL0     H74113   8.327   2.122   8.491  0.0402  3.9255  1.4934
  549MOL0     H74114   8.208   2.232   8.446  2.0208  1.8274 -1.9069
  549MOL0     H74115   8.173   2.056   8.419  0.8982 -1.3734 -1.3496
  550MOL0     O74116  10.870   2.097   0.668 -0.1110 -0.0679 -0.2412
  550MOL0     C74117  10.843   2.211   0.628 -0.3263  0.3624 -0.3254
  550MOL0     O74118  10.924   2.322   0.652  0.7082  0.2985  0.3171
  550MOL0     C74119  11.060   2.307   0.666 -0.1044 -0.5551  0.6698
  550MOL0     C74120  11.143   2.332   0.558  0.2557  0.2245 -0.1392
  550MOL0     C74121  11.283   2.328   0.574 -0.0441 -0.1805  0.9896
  550MOL0     C74122  11.348   2.297   0.699  0.5526  0.6796 -0.1437
  550MOL0     O74123  11.483   2.290   0.691  0.1890 -0.1915  0.6532
  550MOL0     C74124  11.557   2.306   0.812  0.0429  0.5568  0.1595
  550MOL0     C74125  11.708   2.311   0.776  0.2305  0.1331 -0.0423
  550MOL0     C74126  11.784   2.366   0.898  0.4183 -0.2712  0.2412
  550MOL0     C74127  11.931   2.382   0.861  0.2817  0.0733 -0.0362
  550MOL0     C74128  12.031   2.429   0.974  0.1075 -0.0788 -0.3221
  550MOL0     C74129  12.022   2.578   1.026  0.2465  0.2354 -0.4895
  550MOL0     C74130  12.104   2.601   1.151  0.3782  0.0268  0.4957
  550MOL0     C74131  12.122   2.746   1.192  0.2028  0.1066 -0.0166
  550MOL0     N74132  12.182   2.752   1.327 -0.2006 -0.2439  0.0195
  550MOL0     C74133  12.303   2.693   1.365  0.8474  0.3995  0.0463
  550MOL0     C74134  12.319   2.724   1.496 -0.2337  0.4038  0.1908
  550MOL0     C74135  12.421   2.671   1.589  0.3450  0.1471 -0.4988
  550MOL0     C74136  12.534   2.778   1.596  0.3184  0.3851 -0.2039
  550MOL0     C74137  12.641   2.750   1.705  0.4002 -0.3523  0.1588
  550MOL0     C74138  12.754   2.849   1.694  0.6630  0.5516 -0.2743
  550MOL0     O74139  12.831   2.798   1.585 -0.1238  0.1558  0.1899
  550MOL0     C74140  12.969   2.816   1.577 -0.3832 -0.7478 -0.0651
  550MOL0     C74141  13.039   2.883   1.681 -0.2483 -0.0424  0.1075
  550MOL0     C74142  13.174   2.905   1.674  0.2139 -0.5992 -0.6808
  550MOL0     C74143  13.251   2.862   1.572 -0.1414 -0.0051  0.1417
  550MOL0     C74144  13.402   2.875   1.574 -0.3807 -0.6583 -0.4533
  550MOL0     O74145  13.465   2.815   1.471  0.0462  0.2463  0.4286
  550MOL0     C74146  13.604   2.820   1.444 -1.0683 -0.1205  0.0958
  550MOL0     C74147  13.683   2.932   1.472  0.9421  0.1483 -0.5872
  550MOL0     C74148  13.816   2.935   1.445 -0.6720 -1.0334  0.6194
  550MOL0     C74149  13.877   2.829   1.383 -0.4849 -0.4418 -1.1112
  550MOL0     O74150  14.015   2.839   1.374  0.0764 -0.7629 -0.7842
  550MOL0     C74151  14.087   2.776   1.260  0.0904  0.0913  0.3685
  550MOL0     C74152  14.144   2.878   1.180 -0.1539  0.1649 -1.1643
  550MOL0     C74153  14.239   2.966   1.256 -0.0446 -0.4390 -0.5211
  550MOL0     C74154  14.366   2.897   1.315  0.7520 -0.2696  0.6973
  550MOL0     C74155  14.445   3.010   1.364 -0.4813 -0.1632 -0.8882
  550MOL0     C74156  14.550   2.971   1.468 -0.3620 -0.4629  0.7325
  550MOL0     C74157  14.621   3.100   1.539  1.3438  0.2343 -0.5030
  550MOL0     C74158  14.720   3.067   1.642  0.4280 -0.6670  0.0202
  550MOL0    Cl74159  14.818   3.211   1.698 -0.1953  0.2653  0.0072
  550MOL0     C74160  13.801   2.721   1.355  0.1036  0.1931 -0.5524
  550MOL0     C74161  13.665   2.708   1.391  0.1633  0.0475  0.2751
  550MOL0     O74162  13.457   2.947   1.656 -0.1094  0.3097 -0.0375
  550MOL0     C74163  13.189   2.787   1.469  0.1156 -0.1292 -0.6064
  550MOL0     C74164  13.051   2.768   1.469  1.0454  0.3219  0.0832
  550MOL0     N74165  12.212   2.802   1.532  0.4195  0.2021 -0.4907
  550MOL0     N74166  12.130   2.816   1.434  0.3140  0.1060 -0.2566
  550MOL0     C74167  11.262   2.263   0.804 -0.0125  0.1680 -0.4569
  550MOL0     C74168  11.119   2.272   0.794  0.3938 -0.2759  0.1543
  550MOL0     C74169  10.732   2.238   0.542  0.1083  0.5126 -0.0999
  550MOL0     C74170  10.719   2.355   0.469  0.4297 -0.3156  0.0290
  550MOL0     C74171  10.616   2.382   0.382 -0.9590 -0.1523  1.0249
  550MOL0     C74172  10.515   2.296   0.371 -1.0014 -0.0606  0.2073
  550MOL0     O74173  10.425   2.323   0.272  0.0322 -0.1045 -0.3732
  550MOL0     C74174  10.320   2.233   0.247  0.3012 -0.1356  0.0686
  550MOL0     C74175  10.209   2.297   0.161  0.1889  0.6028  0.5046
  550MOL0     C74176  10.266   2.377   0.036  0.2372 -0.1479 -0.1642
  550MOL0     C74177  10.184   2.502   0.010 -0.2604  0.2144 -0.3438
  550MOL0     C74178  10.052   2.463  -0.027  0.0248 -0.4488  0.0749
  550MOL0     C74179   9.946   2.436  -0.084  0.6388 -0.6828  0.7592
  550MOL0     C74180  10.512   2.181   0.455  0.1800 -0.1262 -0.5342
  550MOL0     C74181  10.616   2.156   0.546  0.1457  0.1310  0.0391
  550MOL0     C74182  10.604   2.035   0.637  0.3358  0.2651  0.5991
  550MOL0     H74183  11.095   2.365   0.467  0.5752  2.7831  0.5315
  550MOL0     H74184  11.337   2.348   0.482  2.1731 -1.9296  1.7899
  550MOL0     H74185  11.517   2.388   0.873  2.5488  0.2026  2.4861
  550MOL0     H74186  11.541   2.228   0.887 -0.3508  1.6932  1.2958
  550MOL0     H74187  11.718   2.386   0.697 -0.0930  1.8729  1.4996
  550MOL0     H74188  11.752   2.215   0.748  2.6484  1.4780 -1.1281
  550MOL0     H74189  11.763   2.318   0.994  1.9308 -1.1091  0.1838
  550MOL0     H74190  11.761   2.471   0.921  0.1873 -0.5027  1.1184
  550MOL0     H74191  11.965   2.285   0.822  3.0734  1.6824 -1.9289
  550MOL0     H74192  11.938   2.438   0.768 -1.8829 -2.4513 -1.8636
  550MOL0     H74193  12.007   2.367   1.061 -0.2607  1.6389  0.8379
  550MOL0     H74194  12.131   2.404   0.937  0.5831 -1.0176  1.4655
  550MOL0     H74195  12.051   2.655   0.954  1.8376  0.4144  0.2821
  550MOL0     H74196  11.918   2.588   1.057 -0.5886 -4.6168 -0.9774
  550MOL0     H74197  12.203   2.556   1.138  1.1488  2.1275 -1.7382
  550MOL0     H74198  12.040   2.555   1.226 -0.8645  0.0817 -0.4858
  550MOL0     H74199  12.186   2.801   1.122 -0.6793 -0.4325 -1.2735
  550MOL0     H74200  12.024   2.795   1.191  0.6482  1.0219 -0.4267
  550MOL0     H74201  12.373   2.635   1.305  1.2362 -1.3589  2.0485
  550MOL0     H74202  12.368   2.659   1.684 -0.3908  1.9481 -0.6433
  550MOL0     H74203  12.464   2.576   1.557 -0.7103 -0.6189  0.2916
  550MOL0     H74204  12.560   2.798   1.492 -0.5110 -3.2157 -1.2521
  550MOL0     H74205  12.481   2.863   1.640  0.7132 -1.4119  4.3747
  550MOL0     H74206  12.681   2.649   1.696  1.0721 -0.0788  0.0728
  550MOL0     H74207  12.592   2.759   1.802 -0.4475  0.2364 -0.3053
  550MOL0     H74208  12.795   2.858   1.795 -1.2337  1.1956  0.4831
  550MOL0     H74209  12.703   2.939   1.659 -2.0904 -1.0215 -0.5881
  550MOL0     H74210  12.998   2.919   1.775 -0.2612  0.7416 -0.1928
  550MOL0     H74211  13.221   2.943   1.763 -1.2881  0.6396 -0.3744
  550MOL0     H74212  13.625   3.016   1.510 -2.5496 -1.6387 -1.5461
  550MOL0     H74213  13.877   3.017   1.483 -0.6972 -1.5279  1.7797
  550MOL0     H74214  14.159   2.700   1.293  1.1787  1.1884  0.6165
  550MOL0     H74215  14.020   2.731   1.187  0.1435  0.9716 -0.2447
  550MOL0     H74216  14.182   2.826   1.091 -0.0059 -2.4956  0.3586
  550MOL0     H74217  14.068   2.951   1.152  1.7962  3.9357  2.3511
  550MOL0     H74218  14.275   3.041   1.186 -0.2022  1.2738  1.1609
  550MOL0     H74219  14.174   3.026   1.321 -1.6386 -0.6044 -1.9035
  550MOL0     H74220  14.416   2.851   1.230  0.5801  1.7690 -0.5984
  550MOL0     H74221  14.340   2.823   1.390  0.0954 -0.5217  0.2391
  550MOL0     H74222  14.382   3.081   1.420 -0.4326 -0.2153 -0.7678
  550MOL0     H74223  14.494   3.065   1.283 -1.2534 -0.8957 -1.8861
  550MOL0     H74224  14.516   2.909   1.551  2.6268  0.3228  2.6927
  550MOL0     H74225  14.628   2.912   1.419 -1.1540 -0.8107 -0.1526
  550MOL0     H74226  14.544   3.152   1.597  1.3106 -0.7702  0.3621
  550MOL0     H74227  14.656   3.167   1.459 -3.5380  0.7689 -2.5289
  550MOL0     H74228  14.677   3.019   1.731  0.1386 -3.1517 -1.3771
  550MOL0     H74229  14.782   2.993   1.590  0.4233  1.2837 -2.9982
  550MOL0     H74230  13.845   2.635   1.306  0.9772  1.0788 -1.3625
  550MOL0     H74231  13.605   2.619   1.378  0.5213 -0.0069 -1.1567
  550MOL0     H74232  13.251   2.740   1.394  2.3585 -1.2840  1.8065
  550MOL0     H74233  13.003   2.704   1.394  3.7678  1.3409 -2.7346
  550MOL0     H74234  11.308   2.244   0.900 -1.8458 -0.0791  0.4046
  550MOL0     H74235  11.062   2.245   0.882  2.5413 -3.4261  0.7478
  550MOL0     H74236  10.792   2.434   0.473  1.1361 -0.8806 -1.0572
  550MOL0     H74237  10.624   2.476   0.328  0.5131  0.2179  1.8166
  550MOL0     H74238  10.276   2.206   0.343 -0.3908 -1.2593 -0.5354
  550MOL0     H74239  10.356   2.140   0.201  0.6380 -0.5769  1.1941
  550MOL0     H74240  10.159   2.359   0.236 -1.0214  0.9172 -0.5388
  550MOL0     H74241  10.138   2.220   0.131  2.3859 -0.9763 -0.9243
  550MOL0     H74242  10.262   2.316  -0.054  1.3723 -3.0148  1.5874
  550MOL0     H74243  10.367   2.413   0.057  0.3649  1.3916 -2.9014
  550MOL0     H74244  10.182   2.564   0.101  2.2510  0.3145 -0.2914
  550MOL0     H74245  10.219   2.562  -0.074 -0.5859 -0.4533 -0.9644
  550MOL0     H74246   9.849   2.416  -0.124  0.0588 -0.9535  2.2218
  550MOL0     H74247  10.428   2.113   0.446  0.4302 -0.3493 -1.2361
  550MOL0     H74248  10.675   1.955   0.612 -0.1514 -0.2747  0.9246
  550MOL0     H74249  10.613   2.069   0.741  2.1416 -1.0359  0.9167
  550MOL0     H74250  10.505   1.996   0.616  0.4364 -0.1889  0.9512
  551MOL0     O74251  10.576   2.804   7.407  0.5218 -0.2633 -0.4851
  551MOL0     C74252  10.497   2.765   7.494  1.2022 -0.4491 -0.4058
  551MOL0     O74253  10.533   2.721   7.619 -0.4229  0.1011 -0.6185
  551MOL0     C74254  10.666   2.703   7.636  0.5711 -1.2280 -0.1410
  551MOL0     C74255  10.749   2.807   7.680 -0.3119 -0.6534 -0.3813
  551MOL0     C74256  10.882   2.789   7.699 -0.1984 -0.0641 -0.3345
  551MOL0     C74257  10.940   2.666   7.656  0.7432  0.5329 -0.3803
  551MOL0     O74258  11.078   2.655   7.663  0.5855 -0.1829  0.8005
  551MOL0     C74259  11.126   2.521   7.679 -0.7545 -0.1866  0.0304
  551MOL0     C74260  11.254   2.538   7.759  0.9144 -0.3374 -0.0750
  551MOL0     C74261  11.369   2.579   7.677 -0.3269 -0.4125 -0.0989
  551MOL0     C74262  11.484   2.602   7.766  0.4079  1.2050  0.0156
  551MOL0     C74263  11.606   2.598   7.678  0.3447 -0.2184  0.5899
  551MOL0     C74264  11.729   2.653   7.753  0.4278 -0.2410 -1.4482
  551MOL0     C74265  11.855   2.595   7.674  1.0119 -0.0074  0.0573
  551MOL0     C74266  11.888   2.455   7.740 -0.3074 -0.2076  0.3937
  551MOL0     N74267  12.029   2.431   7.746  0.7543  0.1110  0.1164
  551MOL0     C74268  12.091   2.383   7.863 -0.2422  0.6534  0.2524
  551MOL0     C74269  12.196   2.314   7.811 -0.3157 -0.4104  0.0254
  551MOL0     C74270  12.287   2.238   7.892 -0.0492  0.4144 -0.4971
  551MOL0     C74271  12.394   2.339   7.947  0.0906  1.1442  0.4011
  551MOL0     C74272  12.336   2.448   8.041 -0.0080 -0.0480  0.5644
  551MOL0     C74273  12.448   2.549   8.072 -0.4510 -0.3809  0.3890
  551MOL0     O74274  12.416   2.625   8.186  0.6607 -0.6094 -0.7177
  551MOL0     C74275  12.504   2.720   8.229 -1.0250  0.5719  0.4293
  551MOL0     C74276  12.554   2.818   8.150  0.3326 -0.7294 -0.1946
  551MOL0     C74277  12.644   2.917   8.193 -0.5333  0.7255 -1.3282
  551MOL0     C74278  12.701   2.902   8.324 -0.5747 -0.4028  0.5492
  551MOL0     C74279  12.797   3.012   8.374  0.6924  0.3536  0.0773
  551MOL0     O74280  12.830   3.117   8.295  0.2909 -0.9553  0.4130
  551MOL0     C74281  12.927   3.206   8.339  0.7524  1.2236 -0.6458
  551MOL0     C74282  12.901   3.343   8.320 -0.0038  0.2056  0.8082
  551MOL0     C74283  13.010   3.429   8.346  0.8946 -0.9163  0.0552
  551MOL0     C74284  13.135   3.389   8.399  0.4396 -0.3277 -0.4591
  551MOL0     O74285  13.245   3.470   8.424  0.1735 -0.3343 -0.1793
  551MOL0     C74286  13.217   3.587   8.501  0.3947 -0.4552 -0.2717
  551MOL0     C74287  13.334   3.672   8.505  0.1242  0.8217  0.0677
  551MOL0     C74288  13.446   3.601   8.589 -0.5904  0.2198 -0.5608
  551MOL0     C74289  13.421   3.640   8.738  0.2168  0.4676 -0.4208
  551MOL0     C74290  13.510   3.556   8.828  1.1085  0.7263 -0.6378
  551MOL0     C74291  13.504   3.583   8.978  0.2156 -0.1101 -0.1895
  551MOL0     C74292  13.584   3.490   9.088 -0.1629 -0.4049 -0.0630
  551MOL0     C74293  13.562   3.341   9.071 -0.1077  0.2695  0.8500
  551MOL0    Cl74294  13.381   3.303   9.102 -0.0646  0.1194  0.1538
  551MOL0     C74295  13.150   3.259   8.413 -0.5873  0.2990  0.4424
  551MOL0     C74296  13.050   3.162   8.388  0.1741 -0.3406  0.1127
  551MOL0     O74297  12.844   2.986   8.483  0.0923  0.4710  0.0099
  551MOL0     C74298  12.655   2.796   8.405  0.7100 -0.6798  0.0235
  551MOL0     C74299  12.556   2.706   8.360  0.1723  0.6992 -0.4567
  551MOL0     N74300  12.193   2.314   7.673 -0.1042  0.1402 -0.3137
  551MOL0     N74301  12.089   2.378   7.635 -0.2771 -0.0929  0.2715
  551MOL0     C74302  10.853   2.566   7.608  0.1137  0.2547  0.0145
  551MOL0     C74303  10.718   2.582   7.607  0.0969  0.2740  0.3776
  551MOL0     C74304  10.352   2.752   7.470  0.3907 -0.3131 -0.1785
  551MOL0     C74305  10.270   2.725   7.589 -0.0894 -0.2284  0.1366
  551MOL0     C74306  10.133   2.700   7.576 -0.8392 -0.5626  0.3372
  551MOL0     C74307  10.061   2.718   7.458 -0.7254  1.5046 -0.8648
  551MOL0     O74308   9.926   2.697   7.462 -0.1023 -0.1943  0.2509
  551MOL0     C74309   9.851   2.676   7.335 -0.6220 -0.1581 -0.4239
  551MOL0     C74310   9.816   2.813   7.271  0.4620  0.2752 -0.8402
  551MOL0     C74311   9.740   2.812   7.140  0.2256  0.3577 -0.9018
  551MOL0     C74312   9.822   2.775   7.016  0.1042  0.2177 -0.1932
  551MOL0     C74313   9.953   2.844   7.001  0.3120  0.2418 -0.1539
  551MOL0     C74314  10.059   2.905   6.977  0.2185  0.2747  0.1591
  551MOL0     C74315  10.144   2.725   7.344  0.4778 -0.6167 -0.0974
  551MOL0     C74316  10.283   2.746   7.349 -0.7497  0.0151  0.6129
  551MOL0     C74317  10.348   2.742   7.216 -0.4129  0.3034 -0.0257
  551MOL0     H74318  10.708   2.906   7.700 -1.8340 -1.4093  0.3850
  551MOL0     H74319  10.951   2.867   7.729 -0.6883 -0.0660  0.8268
  551MOL0     H74320  11.051   2.458   7.727 -1.3227 -0.4271 -1.1425
  551MOL0     H74321  11.163   2.473   7.588  2.7808 -1.6363  2.0129
  551MOL0     H74322  11.271   2.442   7.808 -0.3419 -0.8239 -0.5419
  551MOL0     H74323  11.234   2.622   7.826  0.3866 -1.4389  1.1827
  551MOL0     H74324  11.338   2.673   7.631  3.0284  1.1060  0.4755
  551MOL0     H74325  11.391   2.501   7.605 -0.6682 -0.2144 -0.4217
  551MOL0     H74326  11.476   2.692   7.828  1.0761  0.1478  1.7432
  551MOL0     H74327  11.492   2.523   7.841 -0.0266 -2.0534 -3.1065
  551MOL0     H74328  11.625   2.498   7.638  1.2630  0.8274 -1.7716
  551MOL0     H74329  11.587   2.663   7.592 -0.9394  1.2295  1.8989
  551MOL0     H74330  11.726   2.762   7.765 -3.6201 -0.4069  0.5584
  551MOL0     H74331  11.722   2.621   7.858  0.5982  0.9970 -1.0440
  551MOL0     H74332  11.942   2.660   7.687  1.1622 -0.2572  0.3309
  551MOL0     H74333  11.845   2.594   7.565 -1.2502  3.8766  0.0724
  551MOL0     H74334  11.846   2.449   7.841 -2.3345  1.7022 -0.2633
  551MOL0     H74335  11.843   2.378   7.677  3.3828  0.9273 -4.2256
  551MOL0     H74336  12.065   2.386   7.968 -0.2235 -1.8745  0.4060
  551MOL0     H74337  12.242   2.173   7.967 -0.1159 -1.5354 -2.1441
  551MOL0     H74338  12.330   2.163   7.825  1.3418 -1.5126  2.3685
  551MOL0     H74339  12.455   2.279   8.015 -2.8244 -0.6256  1.6679
  551MOL0     H74340  12.450   2.392   7.869  1.3320 -2.7497 -1.6403
  551MOL0     H74341  12.300   2.409   8.137 -0.8794  3.0938  1.6327
  551MOL0     H74342  12.257   2.513   8.004 -0.3382 -0.9706 -0.4300
  551MOL0     H74343  12.473   2.605   7.981  1.4278  0.9020  1.6174
  551MOL0     H74344  12.543   2.499   8.095  1.1952 -0.3048 -4.9184
  551MOL0     H74345  12.516   2.817   8.048 -1.8280 -2.1770  0.5444
  551MOL0     H74346  12.682   2.998   8.131 -1.2312  0.2161 -2.4529
  551MOL0     H74347  12.804   3.375   8.281  0.8709  1.5523 -0.3703
  551MOL0     H74348  13.001   3.534   8.320 -1.1119 -0.3530  2.6207
  551MOL0     H74349  13.144   3.653   8.453 -1.7785  0.0922  3.4365
  551MOL0     H74350  13.186   3.559   8.601  0.5218  3.9270  1.2115
  551MOL0     H74351  13.373   3.671   8.403  2.7269  0.9174  0.9953
  551MOL0     H74352  13.306   3.769   8.547  3.0134  0.7261  2.5829
  551MOL0     H74353  13.444   3.492   8.580 -1.1774  0.1731  0.0810
  551MOL0     H74354  13.547   3.637   8.569  0.2311 -2.0170 -0.8204
  551MOL0     H74355  13.316   3.615   8.758  0.6399  0.7175  2.5239
  551MOL0     H74356  13.435   3.748   8.749 -1.0148  0.6934 -0.9327
  551MOL0     H74357  13.612   3.582   8.797 -0.0869  2.6322 -3.4174
  551MOL0     H74358  13.484   3.450   8.821  0.7853  0.8059 -0.6520
  551MOL0     H74359  13.533   3.688   8.991 -2.3165  0.6666 -0.2005
  551MOL0     H74360  13.397   3.578   9.001  0.5565  0.0514  1.5716
  551MOL0     H74361  13.573   3.520   9.192  1.1672 -0.4358  0.0920
  551MOL0     H74362  13.692   3.497   9.078 -0.1294 -0.5219  0.2291
  551MOL0     H74363  13.588   3.306   8.970  0.2131  0.7286  0.7691
  551MOL0     H74364  13.631   3.289   9.139 -2.1035  0.3162  3.0220
  551MOL0     H74365  13.247   3.224   8.446 -1.3587 -2.6212 -0.1002
  551MOL0     H74366  13.068   3.056   8.403  0.1391 -0.1758  1.5021
  551MOL0     H74367  12.690   2.797   8.508  0.1383 -1.4464  0.2320
  551MOL0     H74368  12.523   2.633   8.434  2.3822  1.3932  1.3184
  551MOL0     H74369  10.892   2.467   7.588 -1.4145 -0.5947  1.0851
  551MOL0     H74370  10.662   2.497   7.569  2.5201 -1.1863 -0.1642
  551MOL0     H74371  10.302   2.708   7.691 -2.6506 -1.8550  0.7833
  551MOL0     H74372  10.071   2.676   7.661 -2.7406 -0.8677 -1.0699
  551MOL0     H74373   9.760   2.621   7.358 -1.0872  0.5361 -0.5862
  551MOL0     H74374   9.908   2.609   7.269  0.5124 -0.1738  0.5306
  551MOL0     H74375   9.907   2.871   7.254  1.4611 -0.4922  1.4544
  551MOL0     H74376   9.750   2.865   7.341  0.0197 -3.2058  1.5843
  551MOL0     H74377   9.702   2.911   7.116 -0.2982  0.2368 -0.5922
  551MOL0     H74378   9.656   2.741   7.149  1.1210 -0.6952 -0.6302
  551MOL0     H74379   9.838   2.667   7.020 -0.4768  0.1332  3.8048
  551MOL0     H74380   9.754   2.786   6.931 -2.0217  0.5003  1.4609
  551MOL0     H74381  10.157   2.928   6.939  1.3612 -1.6489  1.7175
  551MOL0     H74382  10.091   2.726   7.249 -1.5168  1.0070  0.9664
  551MOL0     H74383  10.277   2.699   7.146 -2.1041 -0.7027  2.1855
  551MOL0     H74384  10.388   2.834   7.174  0.5927 -0.8997 -1.8368
  551MOL0     H74385  10.439   2.681   7.210 -0.6741 -0.4355  2.4429
  552MOL0     O74386   4.054   4.377   4.581 -0.5499 -0.2710  0.2921
  552MOL0     C74387   4.059   4.486   4.515  0.6651 -0.1265  0.3470
  552MOL0     O74388   4.169   4.551   4.467  0.8641 -0.0030 -0.0888
  552MOL0     C74389   4.295   4.490   4.457  0.5301 -0.2162 -0.1047
  552MOL0     C74390   4.323   4.353   4.461  0.2349 -0.1072  0.3156
  552MOL0     C74391   4.448   4.294   4.438 -1.0155 -0.8266  0.5575
  552MOL0     C74392   4.559   4.382   4.415 -0.8323 -0.4126  0.5111
  552MOL0     O74393   4.681   4.326   4.393  0.1986 -0.9127 -0.0808
  552MOL0     C74394   4.788   4.392   4.451 -0.0228 -0.3698  0.4465
  552MOL0     C74395   4.910   4.319   4.405 -0.0444  0.0760  0.1468
  552MOL0     C74396   5.029   4.383   4.476 -0.2663  0.9864 -0.0873
  552MOL0     C74397   5.166   4.310   4.464 -0.1881  0.4274 -0.3906
  552MOL0     C74398   5.231   4.329   4.323 -0.1372 -0.0665 -0.2209
  552MOL0     C74399   5.296   4.205   4.275  0.2756 -0.7210  0.7095
  552MOL0     C74400   5.408   4.156   4.376 -0.1241  0.0499 -0.1504
  552MOL0     C74401   5.491   4.271   4.436  0.6378  0.0515 -0.1348
  552MOL0     N74402   5.629   4.230   4.487  0.1989 -0.1413  0.3710
  552MOL0     C74403   5.661   4.161   4.604  0.3217  0.3390 -0.0291
  552MOL0     C74404   5.800   4.178   4.613  0.5657  0.5255 -0.4033
  552MOL0     C74405   5.892   4.119   4.710 -0.5458  0.7539 -0.6568
  552MOL0     C74406   5.906   3.973   4.677 -0.0523 -0.1244  0.3202
  552MOL0     C74407   6.053   3.943   4.641 -0.1907  0.4188  0.1711
  552MOL0     C74408   6.063   3.791   4.627 -0.0489  1.0477  0.0992
  552MOL0     O74409   6.201   3.738   4.604  0.2102  0.4255 -0.6458
  552MOL0     C74410   6.224   3.646   4.504 -0.5233 -0.2265  0.3263
  552MOL0     C74411   6.366   3.625   4.494  0.5013  0.4740 -0.3953
  552MOL0     C74412   6.418   3.547   4.391 -0.3523  0.3835 -0.2680
  552MOL0     C74413   6.332   3.471   4.310 -0.5644  0.1992  0.4665
  552MOL0     C74414   6.397   3.399   4.195 -0.8019 -0.0236  0.5528
  552MOL0     O74415   6.520   3.432   4.158  0.1241 -0.0362  0.1046
  552MOL0     C74416   6.592   3.357   4.069 -0.4277 -0.8850 -0.7886
  552MOL0     C74417   6.588   3.219   4.055  0.8578  0.0162 -0.3238
  552MOL0     C74418   6.682   3.147   3.972  0.4606  0.5249  0.5693
  552MOL0     C74419   6.762   3.212   3.886  0.1176  0.7272  0.1066
  552MOL0     O74420   6.842   3.137   3.802 -0.6263 -0.4740  0.3570
  552MOL0     C74421   6.930   3.200   3.706 -0.4039 -0.3247 -0.0147
  552MOL0     C74422   6.851   3.252   3.586  0.0358 -0.0209 -0.0753
  552MOL0     C74423   6.930   3.275   3.456 -0.1592  0.4119 -0.7132
  552MOL0     C74424   6.856   3.302   3.324  0.2570  0.1414  1.1614
  552MOL0     C74425   6.948   3.299   3.199  0.2795 -0.0428  0.1574
  552MOL0     C74426   6.916   3.416   3.103  0.0788  0.1828  0.3858
  552MOL0     C74427   7.009   3.412   2.975  0.2760  0.3094  0.0189
  552MOL0     C74428   6.953   3.516   2.882 -0.0699 -0.6357 -0.1094
  552MOL0    Cl74429   7.053   3.501   2.735  0.3255  0.2836  0.0832
  552MOL0     C74430   6.764   3.353   3.899 -0.0322  0.4541 -0.4031
  552MOL0     C74431   6.685   3.424   3.992 -0.5005  0.3253  0.2939
  552MOL0     O74432   6.325   3.315   4.137  0.2995 -0.5008 -0.9401
  552MOL0     C74433   6.189   3.475   4.329 -0.0945 -0.5933 -0.0126
  552MOL0     C74434   6.135   3.575   4.424  0.2678 -0.2587  0.8365
  552MOL0     N74435   5.842   4.242   4.499  0.3379 -0.1683  0.3861
  552MOL0     N74436   5.741   4.276   4.430 -1.0911  0.2607  0.4734
  552MOL0     C74437   4.534   4.520   4.402 -0.3324  0.0881 -0.0745
  552MOL0     C74438   4.405   4.570   4.421 -0.3245  0.4079 -0.1959
  552MOL0     C74439   3.936   4.559   4.497 -0.2171 -0.5647 -0.1212
  552MOL0     C74440   3.855   4.557   4.608  0.4839  0.2113  0.1536
  552MOL0     C74441   3.729   4.626   4.616 -0.8539 -0.1112  0.0263
  552MOL0     C74442   3.696   4.718   4.516  0.6629  0.2876 -0.4264
  552MOL0     O74443   3.586   4.803   4.527 -0.2277  0.4720 -0.1749
  552MOL0     C74444   3.584   4.920   4.453 -0.0888  1.5194 -0.0720
  552MOL0     C74445   3.449   4.996   4.488  0.2107  0.4072  0.2227
  552MOL0     C74446   3.314   4.922   4.448 -0.7877  0.3702  0.7711
  552MOL0     C74447   3.288   4.953   4.308 -0.1912  0.4017  0.0946
  552MOL0     C74448   3.206   4.855   4.236  0.0354  0.1002 -0.7059
  552MOL0     C74449   3.134   4.775   4.181  0.6401 -0.6862  0.1455
  552MOL0     C74450   3.787   4.729   4.410 -0.1026  0.7987 -0.1747
  552MOL0     C74451   3.905   4.653   4.395 -0.2903 -0.3347  0.0437
  552MOL0     C74452   3.990   4.693   4.276  0.3109  0.1530 -0.2327
  552MOL0     H74453   4.237   4.289   4.479 -2.8802  2.9405 -2.4830
  552MOL0     H74454   4.463   4.187   4.433 -3.4473 -1.1794 -3.2036
  552MOL0     H74455   4.781   4.499   4.426 -5.8776 -0.6187 -0.3426
  552MOL0     H74456   4.780   4.365   4.557 -0.8223 -2.8291 -0.1856
  552MOL0     H74457   4.913   4.323   4.295 -2.5199 -1.6457 -0.0811
  552MOL0     H74458   4.904   4.212   4.427 -0.8764 -0.1924 -1.2065
  552MOL0     H74459   5.006   4.400   4.582 -0.9431 -2.0052  0.3524
  552MOL0     H74460   5.037   4.483   4.435  0.7958  1.2956  0.8080
  552MOL0     H74461   5.235   4.337   4.545  0.3510 -1.1774 -0.2908
  552MOL0     H74462   5.140   4.206   4.482 -1.2533  0.4643 -1.5809
  552MOL0     H74463   5.153   4.347   4.249  0.1551 -2.6716 -1.2674
  552MOL0     H74464   5.291   4.421   4.322 -0.3699  0.1024  0.5363
  552MOL0     H74465   5.230   4.119   4.262  0.2648 -0.3514 -2.6502
  552MOL0     H74466   5.332   4.223   4.174 -3.9789 -1.3175 -1.1493
  552MOL0     H74467   5.477   4.098   4.313 -0.6401 -1.1243  0.3302
  552MOL0     H74468   5.373   4.084   4.451 -0.4675 -0.3313 -0.6662
  552MOL0     H74469   5.497   4.355   4.367  0.1655 -1.3912 -2.0319
  552MOL0     H74470   5.439   4.314   4.523  1.7288  1.5604 -0.1898
  552MOL0     H74471   5.595   4.116   4.678  1.8731 -0.8066  0.7028
  552MOL0     H74472   5.982   4.179   4.699 -1.3250  2.7159  2.4697
  552MOL0     H74473   5.860   4.133   4.813  0.2959  0.7788 -0.3880
  552MOL0     H74474   5.868   3.907   4.756 -1.1418  0.5708  0.3895
  552MOL0     H74475   5.851   3.953   4.584  0.8168  0.4106 -0.3195
  552MOL0     H74476   6.124   3.956   4.723 -1.1727  0.0548  1.1082
  552MOL0     H74477   6.074   4.001   4.551 -1.2855  1.0486  0.2977
  552MOL0     H74478   5.996   3.753   4.548 -1.8134  4.1384 -0.0670
  552MOL0     H74479   6.033   3.748   4.723 -2.3267 -0.9166 -1.3775
  552MOL0     H74480   6.433   3.681   4.557  1.9505 -0.8375 -0.6911
  552MOL0     H74481   6.526   3.546   4.380 -0.4543  0.2610 -1.3495
  552MOL0     H74482   6.515   3.162   4.111 -0.9377  0.6133 -1.9343
  552MOL0     H74483   6.683   3.039   3.968 -0.7554  0.4815  0.8877
  552MOL0     H74484   6.980   3.281   3.759  0.6230 -2.3046  2.2268
  552MOL0     H74485   7.002   3.125   3.671 -0.8644 -0.9979  0.4551
  552MOL0     H74486   6.774   3.177   3.566 -1.5803  1.5136  0.1357
  552MOL0     H74487   6.801   3.343   3.622 -0.4085 -0.6451  0.9270
  552MOL0     H74488   6.999   3.358   3.474  1.9885 -1.1112 -1.5910
  552MOL0     H74489   6.983   3.182   3.435 -3.4635 -1.3565 -2.1449
  552MOL0     H74490   6.802   3.397   3.334 -0.2294 -0.1587  1.4431
  552MOL0     H74491   6.773   3.232   3.307 -0.7011  1.4880  0.1494
  552MOL0     H74492   6.948   3.201   3.150  5.7530 -0.1166 -0.2935
  552MOL0     H74493   7.051   3.293   3.236  0.4524  2.0702  0.1274
  552MOL0     H74494   6.809   3.413   3.079 -0.2195  1.3062  1.4320
  552MOL0     H74495   6.937   3.513   3.150 -1.0573 -0.0163  1.3577
  552MOL0     H74496   6.999   3.314   2.927  1.3359  1.4564 -2.8011
  552MOL0     H74497   7.114   3.430   2.998  0.5048  2.2913 -2.1479
  552MOL0     H74498   6.849   3.496   2.857 -0.2272  0.4415 -0.3392
  552MOL0     H74499   6.966   3.616   2.923 -0.7091 -1.5903  2.5990
  552MOL0     H74500   6.832   3.406   3.834  1.0581 -0.9014 -0.4221
  552MOL0     H74501   6.685   3.532   3.998 -0.4218  0.2759  1.5427
  552MOL0     H74502   6.117   3.424   4.266  0.3441  0.2512 -1.2416
  552MOL0     H74503   6.027   3.582   4.437 -0.5811 -1.1928 -4.0043
  552MOL0     H74504   4.609   4.592   4.370  0.2670 -1.6087 -2.8268
  552MOL0     H74505   4.381   4.674   4.398 -3.4697 -0.5664 -1.8908
  552MOL0     H74506   3.869   4.498   4.698  0.8530  1.7854  1.1753
  552MOL0     H74507   3.671   4.618   4.708 -0.2618  0.0842  0.4238
  552MOL0     H74508   3.567   4.884   4.351 -0.9062 -0.2950  0.6616
  552MOL0     H74509   3.674   4.982   4.456  0.8275  0.3135 -1.5401
  552MOL0     H74510   3.451   5.101   4.456  0.2890  0.9186  1.8275
  552MOL0     H74511   3.443   5.000   4.597  0.2731 -0.6858  0.2749
  552MOL0     H74512   3.225   4.961   4.499 -0.1809  1.7463  0.8336
  552MOL0     H74513   3.326   4.814   4.463 -0.0019  0.4508  0.7671
  552MOL0     H74514   3.239   5.050   4.314 -1.7676 -0.3990  0.8485
  552MOL0     H74515   3.382   4.963   4.253 -0.1212  1.6905  0.4237
  552MOL0     H74516   3.080   4.699   4.128 -1.1945  0.4232  0.3566
  552MOL0     H74517   3.758   4.785   4.322  0.0758 -0.4168 -1.0330
  552MOL0     H74518   4.044   4.606   4.237 -1.0349 -0.0974 -1.6336
  552MOL0     H74519   3.925   4.728   4.195  0.6421 -0.1251 -0.6232
  552MOL0     H74520   4.052   4.780   4.303  2.1800 -1.7403  1.9615
  553MOL0     O74521  10.413   8.318   2.479 -0.1822  0.1972  0.3323
  553MOL0     C74522  10.298   8.271   2.482  0.6212  0.4173 -0.1214
  553MOL0     O74523  10.263   8.143   2.447  0.4502  0.6357  0.3032
  553MOL0     C74524  10.369   8.061   2.413 -0.1896 -0.1398 -0.0890
  553MOL0     C74525  10.410   8.052   2.283  0.0011  0.1907 -0.0555
  553MOL0     C74526  10.497   7.952   2.248 -0.3401  0.2022  0.7104
  553MOL0     C74527  10.566   7.880   2.344  0.7512 -0.8003 -0.5623
  553MOL0     O74528  10.654   7.775   2.316  0.4473  0.2248  0.3522
  553MOL0     C74529  10.653   7.721   2.183  0.7416  0.2781 -1.8882
  553MOL0     C74530  10.704   7.582   2.192 -0.2502  0.0318  0.0734
  553MOL0     C74531  10.859   7.582   2.192 -0.5799 -0.4065 -0.5149
  553MOL0     C74532  10.931   7.459   2.249  0.1058  0.1741 -0.2349
  553MOL0     C74533  11.083   7.479   2.248 -0.5636 -0.0809  0.8217
  553MOL0     C74534  11.137   7.558   2.378  0.0435 -0.1039  0.2539
  553MOL0     C74535  11.278   7.621   2.380 -0.1763  0.3470 -0.1553
  553MOL0     C74536  11.289   7.760   2.306 -0.0456  0.9835 -0.2046
  553MOL0     N74537  11.406   7.842   2.310 -0.3593  0.1692 -0.0728
  553MOL0     C74538  11.423   7.933   2.412  0.0435 -0.1415  0.3960
  553MOL0     C74539  11.535   7.999   2.382  0.2919  0.2478  0.4905
  553MOL0     C74540  11.590   8.122   2.440  0.5093 -0.2160  0.6437
  553MOL0     C74541  11.742   8.127   2.448  1.0747 -0.0051  0.1440
  553MOL0     C74542  11.795   8.259   2.496 -0.5210 -0.4916 -1.2626
  553MOL0     C74543  11.940   8.267   2.538  1.1956  0.1879 -0.1101
  553MOL0     O74544  11.941   8.383   2.622 -0.0920  0.2243 -0.5156
  553MOL0     C74545  12.061   8.437   2.646 -0.6787 -0.5008 -0.0754
  553MOL0     C74546  12.077   8.557   2.713 -0.3430  0.3867 -0.0165
  553MOL0     C74547  12.208   8.603   2.751  0.7311  0.0247  0.1431
  553MOL0     C74548  12.322   8.523   2.736  0.8422  0.3884  0.4223
  553MOL0     C74549  12.452   8.565   2.789 -0.6755 -0.7728 -0.5026
  553MOL0     O74550  12.561   8.488   2.780  0.5329  0.3409  0.1530
  553MOL0     C74551  12.684   8.542   2.782 -0.5676  0.4092  0.8672
  553MOL0     C74552  12.776   8.509   2.681  0.2171 -0.3590  1.6775
  553MOL0     C74553  12.909   8.562   2.681  0.1105 -0.3740  0.0563
  553MOL0     C74554  12.949   8.645   2.789 -0.2474 -0.3230 -0.3300
  553MOL0     O74555  13.076   8.686   2.817  0.0436  0.5418  0.6063
  553MOL0     C74556  13.175   8.647   2.717 -0.5661  0.8071 -0.1016
  553MOL0     C74557  13.306   8.691   2.767 -0.0158  0.2427  0.5224
  553MOL0     C74558  13.409   8.663   2.660  1.1073  0.2311 -0.1905
  553MOL0     C74559  13.529   8.740   2.696  0.1779 -0.0505  0.2872
  553MOL0     C74560  13.649   8.686   2.621 -0.2461  0.8924  0.4171
  553MOL0     C74561  13.635   8.682   2.464 -0.3715 -0.3386 -0.5861
  553MOL0     C74562  13.611   8.829   2.415  0.0211 -0.1439  0.0948
  553MOL0     C74563  13.609   8.831   2.259  0.6745  0.0870 -0.1363
  553MOL0    Cl74564  13.463   8.746   2.205  0.0539  0.3789  0.0502
  553MOL0     C74565  12.863   8.658   2.899 -0.4018 -0.1158  0.8056
  553MOL0     C74566  12.734   8.604   2.898 -0.1517 -0.2065  0.0881
  553MOL0     O74567  12.455   8.672   2.854  0.2498  0.6358 -0.2641
  553MOL0     C74568  12.305   8.400   2.676  0.0308  0.2567  0.4258
  553MOL0     C74569  12.178   8.358   2.637  0.0854 -0.7268  0.7356
  553MOL0     N74570  11.604   7.927   2.278  0.1161 -0.6274 -0.0980
  553MOL0     N74571  11.528   7.833   2.243  0.3416  0.8282 -0.3609
  553MOL0     C74572  10.536   7.899   2.477 -0.3585 -0.0332  0.0885
  553MOL0     C74573  10.430   7.981   2.508  0.4445 -0.1281 -0.1771
  553MOL0     C74574  10.185   8.365   2.533 -0.3873 -0.0084 -0.3118
  553MOL0     C74575  10.053   8.315   2.535  0.5385  0.5705 -0.2278
  553MOL0     C74576   9.954   8.394   2.582  0.1444 -0.2805  1.3871
  553MOL0     C74577   9.972   8.525   2.624  1.1726  0.2741  0.5251
  553MOL0     O74578   9.867   8.617   2.654 -0.2754 -0.0935  0.0939
  553MOL0     C74579   9.744   8.606   2.582 -0.0762 -0.0272  0.7357
  553MOL0     C74580   9.640   8.530   2.662  0.8909  0.3331 -0.6228
  553MOL0     C74581   9.516   8.508   2.584 -0.7117 -0.2375  0.5547
  553MOL0     C74582   9.417   8.405   2.645 -0.4389  0.3102  1.2129
  553MOL0     C74583   9.286   8.408   2.581  0.3135 -0.3041  0.3897
  553MOL0     C74584   9.175   8.422   2.526  0.5775  0.1838 -0.6300
  553MOL0     C74585  10.099   8.577   2.624  0.5485  0.2015 -0.3424
  553MOL0     C74586  10.203   8.500   2.579 -0.2692 -0.1655  0.2722
  553MOL0     C74587  10.332   8.569   2.570 -0.3952 -0.1867  0.4084
  553MOL0     H74588  10.357   8.112   2.210  1.0020 -2.4080 -3.1388
  553MOL0     H74589  10.506   7.938   2.140 -0.8727  1.4075  0.4862
  553MOL0     H74590  10.551   7.713   2.145 -0.2154 -2.1614  0.9012
  553MOL0     H74591  10.709   7.791   2.118  1.2247  0.6703 -1.0681
  553MOL0     H74592  10.665   7.532   2.103 -0.3552  0.4439 -0.1179
  553MOL0     H74593  10.664   7.529   2.278 -0.3391 -3.0895 -1.7246
  553MOL0     H74594  10.892   7.674   2.243 -1.4842 -0.2980 -0.0970
  553MOL0     H74595  10.903   7.588   2.092 -2.5177  2.1310 -1.3264
  553MOL0     H74596  10.902   7.438   2.353 -1.2290 -3.5939 -1.2001
  553MOL0     H74597  10.891   7.372   2.196 -2.3365  0.6074  0.7662
  553MOL0     H74598  11.127   7.379   2.255 -0.2709  0.0005  0.2279
  553MOL0     H74599  11.116   7.530   2.157 -0.6849 -1.2295  0.1063
  553MOL0     H74600  11.064   7.639   2.389 -1.1747 -1.2579  0.9551
  553MOL0     H74601  11.129   7.497   2.469  1.2820 -2.1529 -0.9374
  553MOL0     H74602  11.354   7.556   2.337 -1.1733  1.7788 -4.5342
  553MOL0     H74603  11.311   7.647   2.482 -2.4981 -0.1270  0.7862
  553MOL0     H74604  11.257   7.738   2.204 -2.0804 -0.9707  0.7683
  553MOL0     H74605  11.206   7.819   2.348  1.0606  1.5573  1.2349
  553MOL0     H74606  11.347   7.946   2.488 -0.1538 -0.4778  0.2591
  553MOL0     H74607  11.551   8.201   2.376 -0.9236 -0.2027  1.5041
  553MOL0     H74608  11.553   8.140   2.541  1.3491 -0.7834  1.0693
  553MOL0     H74609  11.769   8.039   2.507 -1.5987 -0.4736  0.8179
  553MOL0     H74610  11.783   8.117   2.347  0.8368  0.8251 -0.0446
  553MOL0     H74611  11.741   8.271   2.591  0.6443  1.1339 -0.7794
  553MOL0     H74612  11.779   8.340   2.425  1.2726  3.0077  1.9659
  553MOL0     H74613  12.006   8.265   2.451  3.8946 -0.1134  1.8177
  553MOL0     H74614  11.965   8.173   2.588  0.5954 -0.4901 -1.0541
  553MOL0     H74615  11.985   8.611   2.732 -1.5233 -2.1355  2.2243
  553MOL0     H74616  12.212   8.701   2.799 -0.4536 -0.0059  0.3436
  553MOL0     H74617  12.747   8.455   2.592  2.5782  2.0802 -0.7529
  553MOL0     H74618  12.969   8.541   2.593  0.2079  2.0664 -0.5476
  553MOL0     H74619  13.166   8.538   2.719 -3.2709  0.9504  1.5770
  553MOL0     H74620  13.147   8.694   2.622 -3.1508 -0.2970  0.0221
  553MOL0     H74621  13.294   8.800   2.772 -3.7604 -0.0070 -0.4480
  553MOL0     H74622  13.338   8.649   2.863  0.6279 -3.0100 -0.9967
  553MOL0     H74623  13.423   8.554   2.658 -1.2110 -0.1433  0.8140
  553MOL0     H74624  13.366   8.685   2.561  0.3674  3.4231  0.7239
  553MOL0     H74625  13.544   8.717   2.802 -0.5114  0.7031  0.5663
  553MOL0     H74626  13.505   8.846   2.683 -0.1948 -0.4596 -3.1287
  553MOL0     H74627  13.664   8.588   2.668 -0.2362  1.0576  0.7615
  553MOL0     H74628  13.739   8.747   2.634  1.2540 -0.5975 -2.2360
  553MOL0     H74629  13.724   8.642   2.415 -0.2919 -1.1652  0.1932
  553MOL0     H74630  13.549   8.625   2.428 -0.0969 -0.5958 -0.8370
  553MOL0     H74631  13.686   8.895   2.458 -0.1817 -0.7532  1.4522
  553MOL0     H74632  13.519   8.878   2.449  0.3568  1.8184 -1.6121
  553MOL0     H74633  13.601   8.932   2.217 -0.8608  0.4215  0.8522
  553MOL0     H74634  13.698   8.792   2.210 -0.4742  0.7250 -2.8966
  553MOL0     H74635  12.886   8.717   2.987 -0.2876  2.2415 -0.7077
  553MOL0     H74636  12.665   8.613   2.981 -0.5613 -3.2132  0.1643
  553MOL0     H74637  12.389   8.332   2.677  0.5977  0.7340  4.3608
  553MOL0     H74638  12.172   8.260   2.592 -2.1951 -0.4401  0.2725
  553MOL0     H74639  10.588   7.852   2.560  3.1478  0.3612 -1.6845
  553MOL0     H74640  10.399   7.988   2.612  0.4523 -1.5470 -0.0634
  553MOL0     H74641  10.020   8.217   2.503  1.3806  0.0396  0.4983
  553MOL0     H74642   9.858   8.344   2.590 -0.7053  1.0221 -0.1938
  553MOL0     H74643   9.757   8.561   2.483  1.1838  1.1576  0.3237
  553MOL0     H74644   9.715   8.707   2.549 -2.0962 -0.4572  1.1022
  553MOL0     H74645   9.611   8.594   2.745  0.3361  0.2190 -0.7266
  553MOL0     H74646   9.685   8.438   2.701  0.4088  0.6536  0.7434
  553MOL0     H74647   9.542   8.469   2.485 -1.2671 -0.1621  0.3763
  553MOL0     H74648   9.464   8.604   2.575  2.4385  1.5073 -0.5532
  553MOL0     H74649   9.447   8.302   2.625  0.8857  0.6653  1.3243
  553MOL0     H74650   9.401   8.428   2.750 -1.4199  0.6466  0.9999
  553MOL0     H74651   9.074   8.435   2.491 -0.3884  0.0908  1.8644
  553MOL0     H74652  10.107   8.683   2.647  1.0247  0.2511 -0.7443
  553MOL0     H74653  10.341   8.670   2.609  1.8007 -1.4446  3.6469
  553MOL0     H74654  10.405   8.512   2.630  3.0703  2.1514 -1.2296
  553MOL0     H74655  10.365   8.567   2.465  0.7068 -2.5071  0.7290
  554MOL0     O74656   1.884   1.433   8.810 -0.3130 -0.8221 -0.3955
  554MOL0     C74657   1.885   1.458   8.687  0.0374 -0.1027 -0.7747
  554MOL0     O74658   1.962   1.551   8.624  0.2850  0.2824 -0.7515
  554MOL0     C74659   2.040   1.633   8.705  0.1127  0.2615  0.3280
  554MOL0     C74660   2.167   1.598   8.748  0.3125  0.6559  0.1730
  554MOL0     C74661   2.249   1.683   8.829 -0.3035  0.2273  0.2688
  554MOL0     C74662   2.212   1.814   8.845  0.0399 -0.6094  0.1494
  554MOL0     O74663   2.298   1.910   8.902  0.1757 -0.4229 -0.5606
  554MOL0     C74664   2.251   2.043   8.917 -0.0609 -0.5585  0.2644
  554MOL0     C74665   2.336   2.123   9.018  0.8598  0.3946 -0.2216
  554MOL0     C74666   2.283   2.131   9.162  0.2822 -0.0231  0.6799
  554MOL0     C74667   2.391   2.200   9.251  0.6423 -0.5885  0.0853
  554MOL0     C74668   2.328   2.199   9.388 -1.2867 -0.1468 -0.1914
  554MOL0     C74669   2.421   2.236   9.498  0.6284  0.3697  0.0246
  554MOL0     C74670   2.350   2.216   9.628  0.0326 -0.3619 -0.8302
  554MOL0     C74671   2.438   2.233   9.754 -1.1017 -0.2421 -0.0343
  554MOL0     N74672   2.557   2.154   9.761 -0.6747  0.8787 -0.3325
  554MOL0     C74673   2.560   2.013   9.763  0.4833 -0.3408  0.5997
  554MOL0     C74674   2.691   1.983   9.780  0.1903  0.3050  0.2817
  554MOL0     C74675   2.773   1.858   9.778 -0.0380 -0.9792 -0.7471
  554MOL0     C74676   2.687   1.739   9.728 -0.9958 -0.7099  0.2301
  554MOL0     C74677   2.751   1.603   9.758 -0.0820 -1.2025 -0.0428
  554MOL0     C74678   2.900   1.578   9.734 -0.2996 -0.3140 -0.6085
  554MOL0     O74679   2.941   1.604   9.601  0.1117 -0.0221 -0.3307
  554MOL0     C74680   3.070   1.621   9.572 -0.4107  0.9567  1.4395
  554MOL0     C74681   3.174   1.590   9.663  0.6869 -0.7483 -0.2769
  554MOL0     C74682   3.306   1.608   9.634  0.0819  0.0022  0.0308
  554MOL0     C74683   3.343   1.652   9.508  0.1144 -0.0488  0.0974
  554MOL0     C74684   3.486   1.660   9.475 -0.2282  0.2852 -0.7372
  554MOL0     O74685   3.561   1.544   9.491  0.2497  0.1731 -0.4568
  554MOL0     C74686   3.694   1.547   9.469 -0.1605  0.2559  0.0390
  554MOL0     C74687   3.767   1.475   9.568 -0.3232 -0.1910 -0.3828
  554MOL0     C74688   3.906   1.476   9.561  0.8973  0.0817  0.7814
  554MOL0     C74689   3.978   1.547   9.456 -0.7381 -0.2831  0.2091
  554MOL0     O74690   4.124   1.565   9.450 -0.0927 -0.8125  0.5975
  554MOL0     C74691   4.211   1.507   9.552 -0.2253 -0.1205 -0.1613
  554MOL0     C74692   4.237   1.356   9.545  1.1300 -1.0027  0.1146
  554MOL0     C74693   4.308   1.317   9.413  0.0054  0.4185 -0.4785
  554MOL0     C74694   4.341   1.165   9.407 -0.9421  1.0761  0.8560
  554MOL0     C74695   4.379   1.125   9.263 -0.0639 -0.2131  0.0151
  554MOL0     C74696   4.511   1.187   9.210  0.5851  0.8615  0.4285
  554MOL0     C74697   4.558   1.125   9.077 -0.4809 -0.8643  0.3374
  554MOL0     C74698   4.521   1.204   8.948  0.1911  0.0159 -0.2892
  554MOL0    Cl74699   4.348   1.252   8.952  0.0405 -0.1919 -0.1686
  554MOL0     C74700   3.899   1.608   9.359  0.8940 -0.0846 -0.2015
  554MOL0     C74701   3.758   1.605   9.359  0.0508  0.4566 -0.1568
  554MOL0     O74702   3.524   1.764   9.419 -0.4003  0.0522  0.2567
  554MOL0     C74703   3.240   1.658   9.410 -0.3413 -0.6113  1.0998
  554MOL0     C74704   3.110   1.647   9.442  0.2831 -0.2471  0.6487
  554MOL0     N74705   2.759   2.104   9.769  0.3141 -0.7633 -0.8519
  554MOL0     N74706   2.684   2.206   9.769  0.0417 -0.2937  0.1234
  554MOL0     C74707   2.091   1.853   8.787  0.6932 -0.1834 -0.3821
  554MOL0     C74708   1.998   1.761   8.729 -0.2395 -0.9652  0.8233
  554MOL0     C74709   1.799   1.372   8.611  0.6374  0.1011 -0.3216
  554MOL0     C74710   1.660   1.419   8.593 -0.1064 -0.0136  0.6294
  554MOL0     C74711   1.583   1.344   8.506  0.2753 -0.0090 -0.0627
  554MOL0     C74712   1.628   1.228   8.437 -0.7760 -0.2572 -0.2400
  554MOL0     O74713   1.541   1.159   8.349  0.3478 -0.0850  0.1254
  554MOL0     C74714   1.582   1.125   8.224 -0.9779 -1.2278 -0.3269
  554MOL0     C74715   1.469   1.081   8.141 -0.2612  0.2472 -0.2696
  554MOL0     C74716   1.356   1.189   8.127  0.1593  0.7984 -0.1720
  554MOL0     C74717   1.275   1.172   8.012  0.4820 -0.2311  0.9777
  554MOL0     C74718   1.213   1.042   8.032 -0.0613  0.9831  0.0352
  554MOL0     C74719   1.161   0.933   8.046 -0.7046  0.4238  0.1229
  554MOL0     C74720   1.761   1.191   8.466  0.6371  0.8591  0.3643
  554MOL0     C74721   1.844   1.256   8.556 -0.0015 -0.1871  0.6312
  554MOL0     C74722   1.988   1.198   8.567  0.9498 -0.1617  0.0829
  554MOL0     H74723   2.205   1.500   8.721 -1.1497 -0.3020  1.4225
  554MOL0     H74724   2.349   1.651   8.859  0.3702  0.7005 -1.3799
  554MOL0     H74725   2.252   2.096   8.821 -2.9669 -1.4593 -0.3614
  554MOL0     H74726   2.149   2.053   8.957 -0.5332 -0.0677 -1.0163
  554MOL0     H74727   2.320   2.229   8.997 -0.5711  0.2839  0.1834
  554MOL0     H74728   2.442   2.100   9.003  1.1270  2.0955 -1.2711
  554MOL0     H74729   2.274   2.025   9.187 -0.0547 -1.3954 -4.2084
  554MOL0     H74730   2.190   2.185   9.180  0.4799  0.6335 -0.1915
  554MOL0     H74731   2.484   2.144   9.245 -0.2558 -2.0173 -3.5737
  554MOL0     H74732   2.411   2.304   9.224 -0.0704 -0.7045 -0.9613
  554MOL0     H74733   2.245   2.271   9.387 -0.0709  1.2996  0.1286
  554MOL0     H74734   2.286   2.099   9.399  2.1544 -1.5865  1.3214
  554MOL0     H74735   2.513   2.177   9.498  1.0143  0.9297 -1.1081
  554MOL0     H74736   2.467   2.334   9.481  0.7474  0.3158  0.0380
  554MOL0     H74737   2.318   2.111   9.621 -1.0474  0.0183 -1.9693
  554MOL0     H74738   2.260   2.274   9.649  0.6214  0.7047 -1.1772
  554MOL0     H74739   2.486   2.331   9.746  1.2267 -1.4532 -2.2752
  554MOL0     H74740   2.376   2.217   9.843 -0.4323 -2.1513  0.1297
  554MOL0     H74741   2.485   1.937   9.740  2.1137 -1.5319 -1.0339
  554MOL0     H74742   2.851   1.875   9.703  0.1065 -1.9371 -0.8247
  554MOL0     H74743   2.820   1.837   9.874 -0.3750  1.4588  0.0094
  554MOL0     H74744   2.593   1.746   9.782 -1.1349  2.5817 -0.2400
  554MOL0     H74745   2.658   1.745   9.623 -3.1367  1.8936  0.8957
  554MOL0     H74746   2.692   1.535   9.695  1.4054  0.8939 -4.1299
  554MOL0     H74747   2.737   1.580   9.864  2.1032  3.7850  1.6038
  554MOL0     H74748   2.931   1.477   9.762  0.4522  0.9545  3.8924
  554MOL0     H74749   2.953   1.645   9.802 -0.3005 -1.2465  0.3327
  554MOL0     H74750   3.155   1.546   9.761  1.2380  0.4657  0.3886
  554MOL0     H74751   3.376   1.587   9.714 -0.5338  0.9899  0.8653
  554MOL0     H74752   3.732   1.437   9.663 -1.0400  1.2343 -0.0458
  554MOL0     H74753   3.949   1.425   9.647 -0.2863 -1.0727  0.7242
  554MOL0     H74754   4.304   1.564   9.545 -0.9014  1.3514  1.9427
  554MOL0     H74755   4.168   1.529   9.650  1.6692 -2.2376  1.2385
  554MOL0     H74756   4.311   1.336   9.624  0.3275  0.8151  1.3903
  554MOL0     H74757   4.147   1.295   9.551  0.7066 -0.6954 -2.0945
  554MOL0     H74758   4.241   1.333   9.328 -0.5486 -3.9335 -1.1167
  554MOL0     H74759   4.404   1.368   9.399  1.3484 -2.2088 -1.7802
  554MOL0     H74760   4.256   1.112   9.449 -0.4812 -2.4122 -2.0705
  554MOL0     H74761   4.434   1.147   9.462  0.6193 -0.2714 -1.9525
  554MOL0     H74762   4.294   1.151   9.199 -0.1330 -1.1152 -0.2736
  554MOL0     H74763   4.390   1.016   9.267  2.5260  0.0291  2.3915
  554MOL0     H74764   4.509   1.296   9.202  2.0884  0.8126 -1.4987
  554MOL0     H74765   4.587   1.161   9.284  0.9507  1.3628  0.2361
  554MOL0     H74766   4.526   1.021   9.070 -0.0879 -0.9307 -0.7918
  554MOL0     H74767   4.668   1.122   9.077  0.1300  5.7365  0.1497
  554MOL0     H74768   4.589   1.290   8.946 -1.1901  1.1379 -0.1140
  554MOL0     H74769   4.551   1.145   8.861  2.0039 -0.8922  0.9039
  554MOL0     H74770   3.942   1.649   9.268 -1.3993  0.7422 -0.9727
  554MOL0     H74771   3.703   1.650   9.277 -0.6558 -2.6106 -1.5185
  554MOL0     H74772   3.272   1.684   9.310 -0.7876  0.0074  1.1105
  554MOL0     H74773   3.031   1.645   9.368 -0.1736 -1.6258  1.1383
  554MOL0     H74774   2.051   1.953   8.788  1.3920  0.1130 -0.9540
  554MOL0     H74775   1.906   1.801   8.686  0.0008  0.8856  1.9063
  554MOL0     H74776   1.614   1.507   8.638  1.6606  0.5147  1.5044
  554MOL0     H74777   1.479   1.369   8.488 -0.2691 -0.6061  1.9222
  554MOL0     H74778   1.653   1.042   8.236  0.2250 -0.1572  0.2365
  554MOL0     H74779   1.631   1.210   8.175 -1.0083  0.3754  2.2303
  554MOL0     H74780   1.434   0.988   8.186 -0.2362 -0.4408 -1.6222
  554MOL0     H74781   1.497   1.050   8.040 -1.9404 -0.4571 -0.5631
  554MOL0     H74782   1.395   1.291   8.122  0.4157  0.6526 -1.7667
  554MOL0     H74783   1.286   1.189   8.211 -2.0635  4.1682 -1.8288
  554MOL0     H74784   1.201   1.251   8.003  1.5152  0.6836  0.3109
  554MOL0     H74785   1.330   1.179   7.918 -1.7647 -0.9741 -0.4836
  554MOL0     H74786   1.102   0.851   8.081  1.0226 -1.1870 -0.5886
  554MOL0     H74787   1.797   1.099   8.421  0.0768  1.6254 -1.7784
  554MOL0     H74788   1.995   1.127   8.484 -4.0529  0.7060 -1.4510
  554MOL0     H74789   2.057   1.282   8.559  1.7462 -0.4460  2.8523
  554MOL0     H74790   1.993   1.152   8.666 -2.7857  2.0786  1.5226
  555MOL0     O74791   5.155   9.693   2.551  0.4615  0.2948 -0.1301
  555MOL0     C74792   5.084   9.739   2.461  0.0561  0.0364 -0.2926
  555MOL0     O74793   5.122   9.753   2.332 -0.4141 -0.0173  0.0799
  555MOL0     C74794   5.251   9.730   2.293 -0.2132 -1.0313 -0.2759
  555MOL0     C74795   5.295   9.611   2.243 -0.1123 -0.1780 -0.4540
  555MOL0     C74796   5.429   9.588   2.215 -0.7401 -0.0496  0.1583
  555MOL0     C74797   5.521   9.690   2.231  0.0704 -0.0098 -0.7092
  555MOL0     O74798   5.657   9.673   2.206  0.0160  0.1713  0.1486
  555MOL0     C74799   5.761   9.736   2.291  0.0109 -0.0177  0.2510
  555MOL0     C74800   5.902   9.693   2.250  0.0834 -0.5393  0.0534
  555MOL0     C74801   5.999   9.751   2.349 -0.9156 -0.3750 -0.0278
  555MOL0     C74802   6.128   9.667   2.358 -0.1492 -0.6010 -1.0024
  555MOL0     C74803   6.121   9.522   2.411  0.2669  0.3670 -0.3088
  555MOL0     C74804   6.266   9.463   2.437 -0.1892  0.6273 -0.7007
  555MOL0     C74805   6.356   9.465   2.306  0.6255 -0.5379 -0.0686
  555MOL0     C74806   6.465   9.359   2.323 -0.0680  0.1511  0.5021
  555MOL0     N74807   6.565   9.392   2.424 -0.7143 -0.0180  0.0637
  555MOL0     C74808   6.609   9.296   2.514 -0.2707  0.1850 -0.3573
  555MOL0     C74809   6.706   9.357   2.594 -0.3219  0.1668  1.0190
  555MOL0     C74810   6.777   9.306   2.717 -0.7034 -0.6053  0.0345
  555MOL0     C74811   6.935   9.287   2.695  0.2841  0.2892  0.5189
  555MOL0     C74812   7.018   9.250   2.828  0.4504 -0.8546  0.9289
  555MOL0     C74813   7.167   9.241   2.785  0.2100 -0.7210  0.5533
  555MOL0     O74814   7.242   9.222   2.893 -0.1659  0.5093  0.3499
  555MOL0     C74815   7.375   9.238   2.881 -0.0858 -0.0874  0.5817
  555MOL0     C74816   7.443   9.282   2.991  0.1926  0.1743 -0.6182
  555MOL0     C74817   7.576   9.332   2.993  0.4641  0.6388  0.1922
  555MOL0     C74818   7.647   9.329   2.868  0.6547  0.5661  0.0793
  555MOL0     C74819   7.782   9.364   2.873 -0.5639  0.2624  0.2083
  555MOL0     O74820   7.842   9.424   2.977  0.3407 -0.0602 -0.7079
  555MOL0     C74821   7.972   9.466   2.991 -0.1151 -0.3836  0.0392
  555MOL0     C74822   7.990   9.593   3.039  0.0157 -0.3878  0.0105
  555MOL0     C74823   8.117   9.644   3.035  0.5366 -0.7714 -0.0936
  555MOL0     C74824   8.227   9.563   2.992 -0.6301 -0.4708 -0.4717
  555MOL0     O74825   8.352   9.615   2.996  0.3798 -0.0037  0.0472
  555MOL0     C74826   8.466   9.549   2.940 -0.6043 -0.7095 -0.0924
  555MOL0     C74827   8.586   9.648   2.945  0.2209  0.7803 -0.5579
  555MOL0     C74828   8.544   9.783   2.904 -0.2974 -0.1617  0.3432
  555MOL0     C74829   8.666   9.869   2.861 -0.6900  0.5419  0.2056
  555MOL0     C74830   8.631  10.008   2.828 -0.3102 -0.1889  0.7676
  555MOL0     C74831   8.612  10.100   2.943 -0.1300  0.9503  1.3563
  555MOL0     C74832   8.587  10.242   2.900 -0.1856  0.1203  0.6871
  555MOL0     C74833   8.580  10.340   3.014  0.3806 -0.6058  0.6576
  555MOL0    Cl74834   8.558  10.504   2.955  0.4210 -0.1315 -0.1321
  555MOL0     C74835   8.211   9.436   2.946  0.5715 -1.0522 -0.0441
  555MOL0     C74836   8.074   9.395   2.930 -0.7684  0.1633 -0.8120
  555MOL0     O74837   7.843   9.343   2.768  0.1767 -0.5129  0.1087
  555MOL0     C74838   7.580   9.282   2.754  0.5741  0.9114 -0.4608
  555MOL0     C74839   7.443   9.243   2.751 -0.6164 -0.5185 -0.1989
  555MOL0     N74840   6.736   9.473   2.522 -1.0882  1.0508  0.1903
  555MOL0     N74841   6.653   9.492   2.419  0.1854  0.2327 -0.6953
  555MOL0     C74842   5.474   9.818   2.270 -0.2840  0.2844 -0.6694
  555MOL0     C74843   5.338   9.838   2.304 -0.9905  0.0004  0.2834
  555MOL0     C74844   4.953   9.779   2.496  0.8384  0.0697 -0.7721
  555MOL0     C74845   4.860   9.762   2.400  0.8206 -0.1315  0.1317
  555MOL0     C74846   4.723   9.798   2.420 -0.5590 -0.5758 -0.0194
  555MOL0     C74847   4.693   9.862   2.542  0.8833  0.0794  0.9886
  555MOL0     O74848   4.570   9.908   2.566  0.0553  0.0099  0.8849
  555MOL0     C74849   4.444   9.839   2.515  0.4579 -0.0474 -0.9806
  555MOL0     C74850   4.400   9.729   2.610  0.4597  0.1084  0.4326
  555MOL0     C74851   4.381   9.782   2.751  0.1025 -0.7687  0.2996
  555MOL0     C74852   4.312   9.676   2.831  0.1620 -0.5143  0.1858
  555MOL0     C74853   4.186   9.618   2.765 -0.0262  0.1463  0.1305
  555MOL0     C74854   4.082   9.586   2.703  0.3724 -0.4777 -0.5842
  555MOL0     C74855   4.778   9.875   2.641 -0.0963  0.6299 -0.7332
  555MOL0     C74856   4.918   9.839   2.623  0.9341 -0.2589  0.0649
  555MOL0     C74857   5.024   9.877   2.723 -0.1494 -0.0121  0.4174
  555MOL0     H74858   5.222   9.533   2.224 -2.1612  1.0050  2.0268
  555MOL0     H74859   5.460   9.491   2.178 -3.1326 -0.0260 -2.2033
  555MOL0     H74860   5.762   9.844   2.276 -3.4031 -0.1263 -1.7976
  555MOL0     H74861   5.738   9.714   2.396 -3.5510  1.3704 -0.1009
  555MOL0     H74862   5.927   9.732   2.151  0.0888  1.4603  0.8053
  555MOL0     H74863   5.918   9.584   2.254 -0.0675 -0.6143 -1.0757
  555MOL0     H74864   5.956   9.766   2.449 -1.5925  2.2225 -0.6289
  555MOL0     H74865   6.030   9.846   2.303  2.7168 -2.3109 -1.9390
  555MOL0     H74866   6.184   9.665   2.265 -0.3069 -0.9715 -1.0899
  555MOL0     H74867   6.182   9.727   2.432 -1.6834  0.3501 -0.5821
  555MOL0     H74868   6.085   9.525   2.514  3.9662 -1.9767  1.2464
  555MOL0     H74869   6.065   9.453   2.347  0.6422 -0.7859  0.5816
  555MOL0     H74870   6.323   9.524   2.508 -0.2805  2.6501 -2.2700
  555MOL0     H74871   6.246   9.363   2.476 -1.0501  0.9446 -0.3119
  555MOL0     H74872   6.400   9.564   2.295 -0.9814  0.1492 -0.6877
  555MOL0     H74873   6.306   9.441   2.212  0.5773  0.8647 -0.4084
  555MOL0     H74874   6.423   9.264   2.359  0.2670  0.8336  2.9322
  555MOL0     H74875   6.516   9.358   2.227 -0.8787  1.5866  0.0298
  555MOL0     H74876   6.565   9.198   2.525  4.4070 -2.5014 -2.4356
  555MOL0     H74877   6.769   9.370   2.806  2.2067  0.3110 -0.2383
  555MOL0     H74878   6.726   9.212   2.738 -1.9178 -0.3695 -1.6436
  555MOL0     H74879   6.962   9.213   2.619  3.6227  1.8512  0.0257
  555MOL0     H74880   6.976   9.381   2.657 -0.6455 -0.0552 -1.4751
  555MOL0     H74881   6.971   9.162   2.872 -1.5248 -0.4256 -0.2176
  555MOL0     H74882   7.007   9.333   2.898 -0.6647 -0.2999  0.1271
  555MOL0     H74883   7.202   9.320   2.719  0.0206  1.8615  3.3462
  555MOL0     H74884   7.171   9.150   2.724 -3.7216 -1.1896  0.7503
  555MOL0     H74885   7.390   9.278   3.085  1.5644 -3.4825  0.1723
  555MOL0     H74886   7.624   9.365   3.084  0.4879  5.1334 -1.2198
  555MOL0     H74887   7.904   9.655   3.063 -2.1145 -2.1678 -2.4591
  555MOL0     H74888   8.126   9.747   3.068  1.1830 -0.8630  0.0233
  555MOL0     H74889   8.500   9.472   3.009  1.3056  0.1717  0.0202
  555MOL0     H74890   8.455   9.507   2.839 -0.2769  0.9609 -0.8760
  555MOL0     H74891   8.629   9.656   3.045 -1.7129  1.1725  0.2816
  555MOL0     H74892   8.662   9.601   2.882 -1.9816 -0.6525 -2.2506
  555MOL0     H74893   8.481   9.771   2.816  2.3556 -1.1319 -1.5458
  555MOL0     H74894   8.497   9.830   2.992  0.4625 -0.2242  0.7925
  555MOL0     H74895   8.718   9.831   2.773  0.6738 -1.2915  1.7023
  555MOL0     H74896   8.740   9.870   2.942 -0.2291  0.9195 -0.2147
  555MOL0     H74897   8.545  10.016   2.762  0.7723  0.7167 -0.6052
  555MOL0     H74898   8.710  10.048   2.764 -0.8329 -1.1387 -0.4964
  555MOL0     H74899   8.518  10.075   2.994 -0.1659 -1.5224  0.2188
  555MOL0     H74900   8.701  10.104   3.006  0.5463  0.4625  0.4560
  555MOL0     H74901   8.493  10.246   2.845  1.4580  2.4573 -2.3168
  555MOL0     H74902   8.667  10.277   2.833 -1.8164  1.1027 -0.8356
  555MOL0     H74903   8.488  10.327   3.072 -0.1224 -0.8721 -0.1907
  555MOL0     H74904   8.670  10.337   3.076  1.9329  0.4264 -1.4235
  555MOL0     H74905   8.288   9.375   2.901  1.4355  1.1632 -1.7259
  555MOL0     H74906   8.049   9.296   2.891  1.2074 -0.8440  0.3256
  555MOL0     H74907   7.626   9.269   2.656 -0.7040  0.3011 -0.9966
  555MOL0     H74908   7.380   9.206   2.671 -3.3149  2.2489  0.4590
  555MOL0     H74909   5.534   9.908   2.267  0.4233 -0.0681 -5.5528
  555MOL0     H74910   5.301   9.933   2.342  1.5208  0.7285  1.1108
  555MOL0     H74911   4.888   9.716   2.306 -3.3328  0.2231 -1.4641
  555MOL0     H74912   4.659   9.765   2.340 -1.4092 -1.5669  1.0422
  555MOL0     H74913   4.471   9.797   2.417  0.3539 -0.8507 -0.6675
  555MOL0     H74914   4.360   9.908   2.502  0.7171  2.0219  5.0980
  555MOL0     H74915   4.475   9.649   2.613 -0.7518 -1.0735 -0.1264
  555MOL0     H74916   4.310   9.687   2.565  1.1858 -1.4987  0.4014
  555MOL0     H74917   4.318   9.871   2.753 -0.2167 -0.9968  1.5109
  555MOL0     H74918   4.475   9.819   2.794 -0.2185  2.6624 -1.6509
  555MOL0     H74919   4.377   9.589   2.837 -0.4168 -1.2434 -2.6452
  555MOL0     H74920   4.297   9.712   2.933  2.1859  0.1701  0.2740
  555MOL0     H74921   3.998   9.554   2.644 -1.3966  2.1105  0.3465
  555MOL0     H74922   4.752   9.936   2.728 -0.2937  0.0565 -0.3900
  555MOL0     H74923   5.010   9.961   2.791  4.4318  0.2226  1.3803
  555MOL0     H74924   5.062   9.790   2.776 -2.3510 -1.5370 -0.3748
  555MOL0     H74925   5.105   9.931   2.671  1.5676 -2.1607  0.7327
  556MOL0     O74926   9.136  11.270  10.443 -0.4069 -0.3334 -0.2415
  556MOL0     C74927   9.074  11.245  10.545 -0.7771  0.0980  0.2935
  556MOL0     O74928   9.119  11.243  10.675  0.4501  0.0366 -0.3402
  556MOL0     C74929   9.245  11.283  10.699  0.2265  0.6033 -0.0911
  556MOL0     C74930   9.279  11.410  10.648 -0.1917  0.2549 -0.3846
  556MOL0     C74931   9.410  11.450  10.657 -0.2051  0.2628 -0.4360
  556MOL0     C74932   9.499  11.380  10.732 -0.0831 -0.6131 -0.0590
  556MOL0     O74933   9.634  11.413  10.742  0.7766  0.0361  0.7914
  556MOL0     C74934   9.671  11.541  10.700  0.1061 -0.1861  0.9639
  556MOL0     C74935   9.814  11.567  10.738  0.6402  0.1686  0.0470
  556MOL0     C74936   9.848  11.706  10.796  0.4964  0.6870 -0.3783
  556MOL0     C74937   9.788  11.734  10.938  0.6583 -0.1512  0.1436
  556MOL0     C74938   9.882  11.822  11.019  0.3015  0.9590 -0.8667
  556MOL0     C74939   9.822  11.832  11.168  0.0722  0.6750  0.4292
  556MOL0     C74940   9.887  11.949  11.239  0.3055  1.0366  0.2023
  556MOL0     C74941  10.022  11.931  11.301  0.4493 -0.1736 -1.0558
  556MOL0     N74942  10.131  11.931  11.198 -0.4060 -0.3395  0.0753
  556MOL0     C74943  10.188  12.031  11.125  0.2214  1.0842  0.3846
  556MOL0     C74944  10.313  11.986  11.083  0.2656  0.0999  0.2779
  556MOL0     C74945  10.421  12.057  11.014 -0.2709 -1.3689 -0.1662
  556MOL0     C74946  10.560  12.026  11.058 -0.0741  0.5859 -0.0064
  556MOL0     C74947  10.664  12.095  10.972 -1.0159 -0.5758 -0.4846
  556MOL0     C74948  10.801  12.082  11.046 -0.8141 -0.1425  0.1136
  556MOL0     O74949  10.893  12.156  10.961  0.5320 -0.2219  0.7448
  556MOL0     C74950  11.011  12.179  11.023  0.1236 -0.1216  0.4533
  556MOL0     C74951  11.060  12.136  11.148  0.3037  0.5616  0.3958
  556MOL0     C74952  11.178  12.167  11.198 -0.5048  0.4254 -1.0810
  556MOL0     C74953  11.267  12.240  11.121 -0.0863 -0.6740  1.4191
  556MOL0     C74954  11.404  12.279  11.176  0.2342  0.0154 -0.1319
  556MOL0     O74955  11.500  12.318  11.087 -0.1399 -0.2168 -0.3458
  556MOL0     C74956  11.629  12.324  11.126 -0.2579  0.0344  0.0939
  556MOL0     C74957  11.724  12.290  11.023 -0.4051 -0.1730  0.6042
  556MOL0     C74958  11.861  12.305  11.034  0.3752 -0.1606  0.0116
  556MOL0     C74959  11.912  12.353  11.153  0.2888  0.1108 -0.1396
  556MOL0     O74960  12.043  12.385  11.176 -0.2948  0.1192 -0.3024
  556MOL0     C74961  12.141  12.317  11.088  0.3966  0.1400 -0.3815
  556MOL0     C74962  12.282  12.374  11.114  0.2054  0.2833  0.5871
  556MOL0     C74963  12.344  12.299  11.231 -1.1651  0.4383 -0.1653
  556MOL0     C74964  12.486  12.335  11.266 -0.0786 -0.8621  0.0594
  556MOL0     C74965  12.553  12.249  11.374  0.3573  0.0673 -0.0814
  556MOL0     C74966  12.526  12.275  11.519  0.0402  0.7991  1.0319
  556MOL0     C74967  12.558  12.411  11.572  0.1620 -0.4218  0.0637
  556MOL0     C74968  12.706  12.440  11.594  1.0209  0.2861 -0.3757
  556MOL0    Cl74969  12.801  12.492  11.457 -0.2707  0.2684 -0.2653
  556MOL0     C74970  11.821  12.377  11.259 -0.0853 -0.7125  0.5791
  556MOL0     C74971  11.680  12.371  11.244  0.5623 -0.0926 -0.0404
  556MOL0     O74972  11.412  12.260  11.296  0.2207  0.0367  1.1599
  556MOL0     C74973  11.226  12.272  10.989 -0.5677  0.5629 -0.8411
  556MOL0     C74974  11.100  12.245  10.949  0.2172 -0.8110  0.4089
  556MOL0     N74975  10.324  11.858  11.127 -0.2020 -0.3175  0.4765
  556MOL0     N74976  10.215  11.824  11.183  0.5330  0.2076 -0.3507
  556MOL0     C74977   9.460  11.263  10.791  0.5011  0.3470  0.8265
  556MOL0     C74978   9.330  11.206  10.768 -0.9728 -0.4388 -0.6280
  556MOL0     C74979   8.930  11.219  10.524 -0.1792 -0.2812  0.1236
  556MOL0     C74980   8.865  11.305  10.432 -0.6040 -0.2019 -0.2445
  556MOL0     C74981   8.734  11.286  10.386 -0.0245  0.2878  0.5507
  556MOL0     C74982   8.657  11.189  10.443  0.2524  0.5518  0.1548
  556MOL0     O74983   8.525  11.176  10.409 -0.2942 -0.4245 -0.5124
  556MOL0     C74984   8.499  11.111  10.286 -0.2807 -0.1483 -0.6604
  556MOL0     C74985   8.361  11.141  10.232 -0.2804  0.1961  0.4155
  556MOL0     C74986   8.300  11.262  10.298  0.0010 -0.2659 -0.1450
  556MOL0     C74987   8.147  11.269  10.283 -0.1386  1.0099  0.7150
  556MOL0     C74988   8.093  11.253  10.151  0.6561  0.6624 -0.4108
  556MOL0     C74989   8.061  11.249  10.035 -0.4629  0.6375  0.7806
  556MOL0     C74990   8.717  11.105  10.545  0.3124 -0.7494  0.6038
  556MOL0     C74991   8.855  11.114  10.576 -0.2160  0.3381 -0.5192
  556MOL0     C74992   8.905  11.011  10.677  0.1639 -0.1487  0.5187
  556MOL0     H74993   9.217  11.476  10.588 -4.0257 -0.2853  2.6051
  556MOL0     H74994   9.433  11.534  10.593 -1.3149  0.7188 -0.2693
  556MOL0     H74995   9.671  11.559  10.592  4.1929 -0.7307  0.7046
  556MOL0     H74996   9.612  11.619  10.749  2.4875  2.6661 -0.3380
  556MOL0     H74997   9.864  11.555  10.641  2.2173 -2.0811  1.0526
  556MOL0     H74998   9.851  11.492  10.809 -1.5944 -0.3270  0.7696
  556MOL0     H74999   9.799  11.779  10.731 -1.0105  0.4028  0.3931
  556MOL0     H75000   9.957  11.713  10.803  0.4381  0.9449  0.3341
  556MOL0     H75001   9.687  11.778  10.937  0.9599  0.7816  2.7935
  556MOL0     H75002   9.760  11.640  10.987  0.0673 -0.1286 -0.1376
  556MOL0     H75003   9.984  11.783  11.019  0.4445  1.3202 -0.3658
  556MOL0     H75004   9.872  11.924  10.979 -1.0062  0.2417 -2.4532
  556MOL0     H75005   9.715  11.849  11.154 -0.0946 -1.4399 -1.5702
  556MOL0     H75006   9.839  11.740  11.225  4.4057  2.0340  1.7487
  556MOL0     H75007   9.820  11.988  11.317  3.5337  1.6255  2.8974
  556MOL0     H75008   9.887  12.030  11.167 -2.2012 -0.2784 -1.4165
  556MOL0     H75009  10.053  12.014  11.365  2.8014 -2.7976  1.5040
  556MOL0     H75010  10.032  11.843  11.365 -2.1875 -0.1974 -0.5844
  556MOL0     H75011  10.155  12.134  11.119 -0.6161  0.8086  0.0428
  556MOL0     H75012  10.423  12.039  10.906  2.9610 -1.8496 -0.1184
  556MOL0     H75013  10.403  12.163  11.034 -2.4907 -1.8019  0.4613
  556MOL0     H75014  10.559  12.052  11.164  0.6376  1.0828 -0.1187
  556MOL0     H75015  10.577  11.918  11.054  1.5404  0.8512 -2.0401
  556MOL0     H75016  10.635  12.200  10.959 -2.4840 -1.0392 -1.1304
  556MOL0     H75017  10.681  12.046  10.876 -0.5835 -1.6719  0.1239
  556MOL0     H75018  10.821  11.975  11.056 -1.2262 -0.4156 -1.6090
  556MOL0     H75019  10.787  12.132  11.142 -0.5408 -0.4814  0.3322
  556MOL0     H75020  10.993  12.079  11.212 -1.7507  2.9676  0.5424
  556MOL0     H75021  11.205  12.133  11.297  0.7000 -0.2563 -1.6188
  556MOL0     H75022  11.685  12.251  10.930  1.2786 -1.6288  0.4550
  556MOL0     H75023  11.914  12.281  10.942  0.0940 -0.3666 -0.0972
  556MOL0     H75024  12.137  12.213  11.122 -2.4563 -0.4014 -2.0701
  556MOL0     H75025  12.120  12.312  10.981  0.4260 -2.3160 -0.3469
  556MOL0     H75026  12.339  12.347  11.024  0.6632  1.5755  0.4734
  556MOL0     H75027  12.281  12.482  11.126  0.5029 -0.0313  6.1500
  556MOL0     H75028  12.283  12.308  11.322 -1.1701 -3.7954  0.4133
  556MOL0     H75029  12.336  12.194  11.205 -3.0723 -0.1218  2.2576
  556MOL0     H75030  12.492  12.438  11.302 -0.8581 -1.0481  0.7418
  556MOL0     H75031  12.540  12.343  11.171  0.1557  4.3577  0.3065
  556MOL0     H75032  12.661  12.260  11.362  1.0642 -3.4401  1.6562
  556MOL0     H75033  12.531  12.145  11.346  5.3731 -1.5844  1.1953
  556MOL0     H75034  12.419  12.255  11.524  0.0000 -0.1253 -1.9240
  556MOL0     H75035  12.577  12.203  11.584  1.4831  2.0038  1.2977
  556MOL0     H75036  12.515  12.415  11.672  1.0983 -2.1935  0.5758
  556MOL0     H75037  12.524  12.496  11.512  0.4996 -0.3405 -0.0154
  556MOL0     H75038  12.716  12.527  11.659  1.6454  0.2312 -0.3916
  556MOL0     H75039  12.754  12.354  11.642 -1.7083 -1.6507 -0.8585
  556MOL0     H75040  11.862  12.411  11.354  0.7669  1.3008 -0.4387
  556MOL0     H75041  11.610  12.403  11.320 -1.7937 -1.9943 -1.2898
  556MOL0     H75042  11.297  12.323  10.925  1.4650  0.3542  1.1141
  556MOL0     H75043  11.068  12.266  10.847 -0.1486 -0.8289  0.5172
  556MOL0     H75044   9.528  11.203  10.851  0.9014  0.9819  1.0127
  556MOL0     H75045   9.297  11.117  10.820 -1.8175  0.7562  0.9931
  556MOL0     H75046   8.917  11.386  10.382 -0.9376  0.7051  0.8499
  556MOL0     H75047   8.694  11.359  10.316  1.7740  1.4852  0.6800
  556MOL0     H75048   8.510  11.003  10.292 -1.7321 -0.2342  3.5895
  556MOL0     H75049   8.574  11.150  10.217  3.8605 -1.8205  2.5306
  556MOL0     H75050   8.294  11.054  10.239 -0.4253  0.1778 -0.9036
  556MOL0     H75051   8.371  11.151  10.123  0.6580  0.3832  0.5133
  556MOL0     H75052   8.335  11.359  10.260 -0.1578 -0.0836  0.1652
  556MOL0     H75053   8.315  11.262  10.407 -0.9084 -2.7156  0.0330
  556MOL0     H75054   8.117  11.177  10.335  0.7349 -1.0471 -2.1732
  556MOL0     H75055   8.105  11.358  10.331 -0.9314 -0.0163  1.9744
  556MOL0     H75056   8.018  11.255   9.937 -1.6355  2.7176  1.3447
  556MOL0     H75057   8.653  11.023  10.575 -3.0876  1.4810  0.0859
  556MOL0     H75058   8.988  10.953  10.636  0.9156  0.9201  0.4791
  556MOL0     H75059   8.929  11.069  10.766 -2.6293 -0.3441  1.4825
  556MOL0     H75060   8.832  10.935  10.705  0.2763 -0.9988 -1.3541
  557MOL0     O75061   7.971  10.483   1.860  0.4625 -0.6613 -0.4178
  557MOL0     C75062   8.034  10.589   1.830  0.1128 -0.2016 -0.2374
  557MOL0     O75063   8.163  10.622   1.863 -0.4195  1.2687 -1.0038
  557MOL0     C75064   8.252  10.524   1.901  0.1656  0.1095 -0.0084
  557MOL0     C75065   8.380  10.571   1.921  0.0465  0.0996  0.2476
  557MOL0     C75066   8.488  10.488   1.954  0.2322 -0.1904  0.0867
  557MOL0     C75067   8.466  10.347   1.985 -0.7277 -0.9052 -0.0530
  557MOL0     O75068   8.562  10.252   2.011 -0.0934 -0.0004  0.0425
  557MOL0     C75069   8.681  10.305   2.058 -0.3430  0.0670  0.6481
  557MOL0     C75070   8.771  10.187   2.103 -0.0435 -1.0318  0.3199
  557MOL0     C75071   8.911  10.240   2.113 -0.0667  0.1340 -0.7915
  557MOL0     C75072   9.008  10.129   2.102 -0.3840  0.0451 -1.1633
  557MOL0     C75073   9.146  10.182   2.123 -0.8512 -0.1730 -0.5839
  557MOL0     C75074   9.247  10.068   2.119 -0.1460 -0.2460  0.9812
  557MOL0     C75075   9.385  10.121   2.100 -0.4309  0.0704  0.2553
  557MOL0     C75076   9.483  10.004   2.124  0.3960 -0.2436  0.2545
  557MOL0     N75077   9.617  10.036   2.073 -0.3696  0.1074  0.0240
  557MOL0     C75078   9.738  10.035   2.139 -1.0489 -0.5687 -0.5501
  557MOL0     C75079   9.831  10.071   2.040 -0.1450  0.6471  0.7034
  557MOL0     C75080   9.976  10.091   2.049 -0.0719 -0.2309  0.2233
  557MOL0     C75081  10.058   9.966   2.020  0.1574  0.0108  0.0455
  557MOL0     C75082  10.209   9.995   2.022  0.1177  0.0657  0.1525
  557MOL0     C75083  10.261  10.089   2.129 -0.6600  0.2496  0.5931
  557MOL0     O75084  10.406  10.097   2.111  0.5939 -0.0911  0.3577
  557MOL0     C75085  10.479  10.150   2.213 -0.4772  0.0910  0.6804
  557MOL0     C75086  10.432  10.210   2.329  0.4626 -0.2419 -0.3128
  557MOL0     C75087  10.524  10.281   2.416  0.6541  0.0866  0.2643
  557MOL0     C75088  10.661  10.274   2.395 -1.0264  0.2770  0.0710
  557MOL0     C75089  10.760  10.353   2.484  1.3098  0.5260  0.0783
  557MOL0     O75090  10.886  10.344   2.446  0.0265 -0.0520  0.4071
  557MOL0     C75091  10.975  10.432   2.501 -0.2169 -1.0887  0.3331
  557MOL0     C75092  10.988  10.564   2.448  0.2744  0.0253 -0.1452
  557MOL0     C75093  11.093  10.642   2.506  0.6681 -1.1100  0.0525
  557MOL0     C75094  11.159  10.605   2.623 -0.5413  0.5185  0.3655
  557MOL0     O75095  11.247  10.686   2.683 -0.2781 -0.0852 -0.8190
  557MOL0     C75096  11.375  10.636   2.729 -0.7498 -0.4664 -0.5236
  557MOL0     C75097  11.486  10.752   2.741  0.8240  1.2887 -0.3077
  557MOL0     C75098  11.630  10.703   2.738  1.0443  0.0818 -0.3579
  557MOL0     C75099  11.658  10.660   2.889 -0.3565 -0.5864  0.2511
  557MOL0     C75100  11.807  10.630   2.920  0.2284  0.2873 -0.0649
  557MOL0     C75101  11.889  10.756   2.913  0.5054 -0.4590  0.8918
  557MOL0     C75102  12.033  10.701   2.925  0.2399 -0.3360 -0.5791
  557MOL0     C75103  12.138  10.815   2.933  0.6201  0.0812 -0.1069
  557MOL0    Cl75104  12.307  10.760   2.939  0.0312  0.0507  0.3313
  557MOL0     C75105  11.128  10.489   2.684 -0.5717 -0.3025  0.8259
  557MOL0     C75106  11.042  10.405   2.621  0.2808 -0.2446  0.3754
  557MOL0     O75107  10.711  10.428   2.574 -0.2807 -0.0961 -0.1203
  557MOL0     C75108  10.707  10.216   2.274 -0.5086  0.3634 -0.8499
  557MOL0     C75109  10.621  10.152   2.188 -0.5575  0.4834  0.0960
  557MOL0     N75110   9.772  10.087   1.920 -0.0527  0.7176  0.0850
  557MOL0     N75111   9.644  10.065   1.944  0.3347  0.1172  0.1776
  557MOL0     C75112   8.341  10.299   1.967  0.3331 -0.8651  0.0148
  557MOL0     C75113   8.241  10.385   1.926  0.1841  0.3989  0.3090
  557MOL0     C75114   7.963  10.704   1.771 -0.1366 -0.5634  0.8897
  557MOL0     C75115   8.046  10.808   1.712  0.6120 -0.2975 -0.7124
  557MOL0     C75116   7.984  10.924   1.663 -0.6333 -0.6421 -0.0994
  557MOL0     C75117   7.840  10.948   1.669  0.6519 -0.2346  0.8567
  557MOL0     O75118   7.763  11.052   1.614  0.8746  0.0791  0.7217
  557MOL0     C75119   7.837  11.142   1.530 -0.8288 -0.0239  0.2835
  557MOL0     C75120   7.899  11.252   1.622  0.1406 -0.8459 -0.1011
  557MOL0     C75121   7.961  11.361   1.542  0.6908 -0.6888 -0.7339
  557MOL0     C75122   7.982  11.496   1.619  0.0412  0.5116  0.2289
  557MOL0     C75123   8.099  11.481   1.707  0.1273  0.6159  0.2626
  557MOL0     C75124   8.184  11.469   1.792  0.6595  0.0455 -0.3427
  557MOL0     C75125   7.765  10.839   1.722 -0.2596 -0.2333 -0.8008
  557MOL0     C75126   7.823  10.725   1.773  0.1518  0.0447 -0.5176
  557MOL0     C75127   7.733  10.629   1.847  0.7385 -0.1694  0.5027
  557MOL0     H75128   8.403  10.677   1.917  0.5320 -0.0381 -2.5324
  557MOL0     H75129   8.582  10.538   1.969 -0.6471  1.2793  0.8954
  557MOL0     H75130   8.737  10.358   1.981  1.4564  0.0395  1.8755
  557MOL0     H75131   8.662  10.373   2.142  3.1588  1.9403  0.1304
  557MOL0     H75132   8.767  10.111   2.024  0.1591  0.5867 -1.3266
  557MOL0     H75133   8.732  10.143   2.195 -3.3868  2.5563  0.9012
  557MOL0     H75134   8.926  10.282   2.213  1.2050 -0.6073 -0.6468
  557MOL0     H75135   8.943  10.319   2.043  0.3051 -0.4304 -1.2670
  557MOL0     H75136   8.976  10.054   2.175 -2.0494 -2.3373 -4.1070
  557MOL0     H75137   8.991  10.081   2.005  0.2793  1.8846 -2.2366
  557MOL0     H75138   9.173  10.253   2.045  0.8014  1.3720  1.2705
  557MOL0     H75139   9.144  10.225   2.224  0.1922 -1.0965 -0.1375
  557MOL0     H75140   9.234  10.006   2.208  0.1022 -1.8177 -0.0539
  557MOL0     H75141   9.221   9.996   2.041  1.4496 -1.6764  1.7116
  557MOL0     H75142   9.396  10.197   2.178 -0.1543 -0.8595  1.1635
  557MOL0     H75143   9.408  10.154   1.999  1.0052 -0.2857  0.4348
  557MOL0     H75144   9.483   9.964   2.226 -2.1523 -2.3918 -0.4829
  557MOL0     H75145   9.445   9.919   2.068 -2.1369  0.6084  0.5744
  557MOL0     H75146   9.752  10.017   2.245  0.1047  0.5312 -0.5023
  557MOL0     H75147  10.002  10.171   1.978 -0.6169 -1.5447 -1.5096
  557MOL0     H75148   9.983  10.123   2.154 -1.3433 -0.7540  0.4896
  557MOL0     H75149  10.035   9.886   2.091 -2.8006 -0.0830 -0.8998
  557MOL0     H75150  10.032   9.921   1.924 -1.7565 -0.4368  0.7344
  557MOL0     H75151  10.229  10.041   1.925  1.5350  2.0279  1.3067
  557MOL0     H75152  10.258   9.897   2.026 -1.5963 -0.8693 -0.4411
  557MOL0     H75153  10.228  10.046   2.224 -2.4992  1.2744  0.4660
  557MOL0     H75154  10.224  10.192   2.121  2.4467  1.4008 -0.3082
  557MOL0     H75155  10.325  10.215   2.350  0.5577 -1.1495  0.4195
  557MOL0     H75156  10.489  10.330   2.507  1.7036 -1.4171  1.5390
  557MOL0     H75157  10.920  10.590   2.367 -3.4457  1.5354  3.1628
  557MOL0     H75158  11.124  10.735   2.459 -0.8084 -0.1993  0.7909
  557MOL0     H75159  11.365  10.599   2.832 -2.7907 -0.2853 -0.6197
  557MOL0     H75160  11.408  10.555   2.664 -0.5645  0.3557 -1.4749
  557MOL0     H75161  11.487  10.814   2.650  2.6304  0.1638 -1.1207
  557MOL0     H75162  11.453  10.817   2.823  2.4704  0.2293  1.2613
  557MOL0     H75163  11.637  10.612   2.678 -1.6566  0.8849 -2.0572
  557MOL0     H75164  11.687  10.792   2.710  0.0941 -0.3609 -4.3289
  557MOL0     H75165  11.591  10.579   2.915  0.0656 -0.2821  2.5265
  557MOL0     H75166  11.631  10.749   2.948 -1.6894 -1.5074  1.0850
  557MOL0     H75167  11.838  10.562   2.840  4.1932  0.8003  0.8719
  557MOL0     H75168  11.828  10.577   3.013 -1.2088  0.5508  0.4501
  557MOL0     H75169  11.886  10.811   2.818  1.3270 -0.1082  1.0667
  557MOL0     H75170  11.867  10.827   2.994  2.2805  0.7283  0.3899
  557MOL0     H75171  12.056  10.641   2.836  1.0523 -0.7611 -0.0898
  557MOL0     H75172  12.027  10.623   3.001 -2.0020 -1.6593 -1.9853
  557MOL0     H75173  12.137  10.872   2.839 -0.2854 -2.5574 -1.8230
  557MOL0     H75174  12.118  10.886   3.014  2.0541 -0.9588  1.1988
  557MOL0     H75175  11.158  10.458   2.783 -1.1734 -0.9811  0.7994
  557MOL0     H75176  11.006  10.316   2.672  1.1796  0.6527  2.7199
  557MOL0     H75177  10.811  10.212   2.241 -1.1682  1.6837 -3.3267
  557MOL0     H75178  10.662  10.122   2.093  0.1222  1.0246  0.2075
  557MOL0     H75179   8.313  10.196   1.983 -2.6179 -0.2431 -0.5508
  557MOL0     H75180   8.144  10.340   1.907  0.7899  0.5442 -4.4588
  557MOL0     H75181   8.154  10.799   1.709  0.8191  1.3819  0.6126
  557MOL0     H75182   8.041  11.003   1.616 -1.7502  0.9687  1.1599
  557MOL0     H75183   7.773  11.199   1.463  1.5596 -0.8861 -3.0145
  557MOL0     H75184   7.904  11.086   1.463 -1.3571  0.1357 -0.3786
  557MOL0     H75185   7.974  11.211   1.690  0.1948  1.4561  1.3593
  557MOL0     H75186   7.816  11.290   1.682 -1.3344 -1.0485 -1.9172
  557MOL0     H75187   7.893  11.389   1.461  3.0695  1.1555 -2.2540
  557MOL0     H75188   8.053  11.326   1.492 -0.6196 -1.2631 -2.8998
  557MOL0     H75189   7.982  11.574   1.542 -4.2027 -0.9654 -1.6129
  557MOL0     H75190   7.898  11.523   1.683 -1.0869 -0.7165 -0.6708
  557MOL0     H75191   8.258  11.460   1.869 -0.8590 -2.3144  0.9426
  557MOL0     H75192   7.659  10.858   1.709 -0.4819 -1.1483 -0.3926
  557MOL0     H75193   7.627  10.646   1.827  0.7386 -1.2778 -0.5547
  557MOL0     H75194   7.753  10.526   1.816  0.6051  0.3807 -1.4998
  557MOL0     H75195   7.754  10.653   1.952  0.8023  5.2345 -0.4637
  558MOL0     O75196   8.812   6.160   5.654 -0.4344  0.3129 -0.0649
  558MOL0     C75197   8.828   6.061   5.727  0.0691  0.1665  0.5480
  558MOL0     O75198   8.934   6.040   5.803 -0.0427  0.0548  0.2366
  558MOL0     C75199   9.020   6.147   5.823 -0.3415 -0.1900 -1.2841
  558MOL0     C75200   9.084   6.222   5.723 -0.4381  0.2727  0.5281
  558MOL0     C75201   9.167   6.333   5.761  0.1718 -0.2675  0.7234
  558MOL0     C75202   9.195   6.359   5.891 -1.1816  0.5233 -0.1508
  558MOL0     O75203   9.278   6.465   5.919 -0.7778 -0.4238  0.9117
  558MOL0     C75204   9.234   6.554   6.018  0.7965  0.6856  0.4493
  558MOL0     C75205   9.344   6.666   6.022 -0.7693  0.4409  0.3328
  558MOL0     C75206   9.478   6.626   6.084  0.7238 -1.0312  0.1829
  558MOL0     C75207   9.462   6.581   6.225  0.0872  0.4498 -0.9801
  558MOL0     C75208   9.594   6.572   6.299 -0.3758 -0.2650 -0.8406
  558MOL0     C75209   9.576   6.569   6.449  0.5340  0.2047 -0.6856
  558MOL0     C75210   9.688   6.505   6.523  0.4094  0.1944 -0.1049
  558MOL0     C75211   9.821   6.565   6.482  0.4174  1.0532  0.4731
  558MOL0     N75212   9.925   6.524   6.585 -0.1652 -0.0137  0.9753
  558MOL0     C75213  10.053   6.568   6.579  0.1103  0.7742  0.3665
  558MOL0     C75214  10.104   6.540   6.701 -0.0129  0.5052  1.8472
  558MOL0     C75215  10.243   6.577   6.742  0.4226 -0.4372  0.7550
  558MOL0     C75216  10.259   6.717   6.778  0.2142  0.2161 -0.2454
  558MOL0     C75217  10.403   6.743   6.827  0.6421 -0.0640 -1.2653
  558MOL0     C75218  10.408   6.885   6.881 -0.7063 -0.2214 -0.0580
  558MOL0     O75219  10.519   6.916   6.967 -0.2765  0.1364  0.3416
  558MOL0     C75220  10.555   7.046   6.959  0.4029 -0.7147 -0.0328
  558MOL0     C75221  10.595   7.103   6.838 -0.4927  0.3813 -0.4209
  558MOL0     C75222  10.661   7.227   6.835 -0.1470  0.2311  0.1472
  558MOL0     C75223  10.695   7.302   6.948  0.5145 -0.3734  0.6128
  558MOL0     C75224  10.776   7.426   6.939 -1.2252 -0.0573 -0.1387
  558MOL0     O75225  10.822   7.470   7.051 -0.0234  0.3437 -1.3814
  558MOL0     C75226  10.895   7.584   7.078 -0.0382 -0.4548  0.1482
  558MOL0     C75227  10.989   7.645   6.986 -0.0231 -0.4872 -0.0479
  558MOL0     C75228  11.075   7.750   7.022 -0.4644 -0.4717 -0.0691
  558MOL0     C75229  11.070   7.803   7.152  0.8338 -0.9530 -0.6631
  558MOL0     O75230  11.142   7.913   7.204  0.0355 -0.1367  0.1108
  558MOL0     C75231  11.244   7.972   7.120 -0.8985 -0.7973  0.2223
  558MOL0     C75232  11.328   8.087   7.191  0.3085  0.2374 -0.1985
  558MOL0     C75233  11.436   8.165   7.109 -0.1968 -0.4040 -0.3792
  558MOL0     C75234  11.363   8.266   7.016  0.1201 -0.5766  0.5011
  558MOL0     C75235  11.323   8.388   7.093 -0.2950  0.6433 -0.1624
  558MOL0     C75236  11.245   8.488   7.007 -0.1925  0.0210 -0.0715
  558MOL0     C75237  11.207   8.603   7.098 -0.5873 -0.0873  1.0669
  558MOL0     C75238  11.131   8.711   7.026  0.3042  0.1449  0.2520
  558MOL0    Cl75239  11.107   8.842   7.137 -0.0007  0.1653 -0.2642
  558MOL0     C75240  10.972   7.753   7.240 -0.4249 -0.3378  0.4525
  558MOL0     C75241  10.881   7.649   7.203 -0.5016 -0.8717 -0.3498
  558MOL0     O75242  10.796   7.488   6.833  0.6541  0.2288  0.1811
  558MOL0     C75243  10.650   7.246   7.069 -0.0517 -0.1384  0.2265
  558MOL0     C75244  10.581   7.127   7.074  0.5477  0.3074 -0.1554
  558MOL0     N75245  10.009   6.470   6.775 -0.0753  0.2949 -0.4869
  558MOL0     N75246   9.905   6.454   6.701 -0.2336  0.3329  0.0295
  558MOL0     C75247   9.147   6.279   5.987  0.2171 -0.7563 -0.6982
  558MOL0     C75248   9.055   6.180   5.953  0.5211  0.6571 -0.2017
  558MOL0     C75249   8.723   5.959   5.740  0.2535  0.1693  0.0436
  558MOL0     C75250   8.723   5.877   5.854 -1.1040  0.9174  0.2899
  558MOL0     C75251   8.636   5.769   5.860 -0.4369  0.3398 -1.3799
  558MOL0     C75252   8.539   5.750   5.767  0.3580 -0.2465 -0.7112
  558MOL0     O75253   8.469   5.633   5.769  0.2846 -0.3214 -0.7322
  558MOL0     C75254   8.391   5.616   5.891 -0.0389 -0.4519  0.1263
  558MOL0     C75255   8.276   5.722   5.894 -0.0820 -0.0162 -0.5833
  558MOL0     C75256   8.186   5.701   6.024 -0.9122 -0.4537  0.3295
  558MOL0     C75257   8.077   5.805   6.033  0.6460  0.2095 -0.0458
  558MOL0     C75258   7.985   5.802   5.913  0.0832  0.3905 -0.3733
  558MOL0     C75259   7.919   5.802   5.808 -0.1407  0.2616 -0.6527
  558MOL0     C75260   8.516   5.844   5.670  0.5102  0.3998  0.1467
  558MOL0     C75261   8.617   5.941   5.644 -0.0684 -0.5691 -0.3026
  558MOL0     C75262   8.610   6.022   5.514 -0.4766  1.1027  0.4221
  558MOL0     H75263   9.063   6.197   5.620  0.2794  2.1671 -0.1153
  558MOL0     H75264   9.219   6.400   5.694 -1.1166 -1.8340 -2.0034
  558MOL0     H75265   9.136   6.599   5.999  0.6059 -0.6332 -2.1891
  558MOL0     H75266   9.220   6.504   6.114  1.9464  0.5265  0.5423
  558MOL0     H75267   9.299   6.748   6.079 -1.0806 -1.5486  3.1333
  558MOL0     H75268   9.351   6.702   5.919  0.7453  3.3360  1.3531
  558MOL0     H75269   9.551   6.707   6.076 -0.3946 -0.0948 -1.0654
  558MOL0     H75270   9.510   6.543   6.020  0.1263 -0.1712 -1.2884
  558MOL0     H75271   9.405   6.652   6.285 -0.7030 -0.8941 -0.0710
  558MOL0     H75272   9.414   6.482   6.219  1.4747 -0.2039 -1.7910
  558MOL0     H75273   9.651   6.481   6.279  3.1590  0.8574  2.8914
  558MOL0     H75274   9.656   6.657   6.266 -1.4056  2.0212  2.5600
  558MOL0     H75275   9.565   6.672   6.484 -0.1622  0.3200 -1.2299
  558MOL0     H75276   9.486   6.512   6.475 -0.0586  0.3500 -2.3248
  558MOL0     H75277   9.676   6.397   6.516  1.8339 -0.0225  0.5225
  558MOL0     H75278   9.677   6.525   6.630  0.9988 -1.7429  0.3661
  558MOL0     H75279   9.850   6.523   6.385 -1.3520  0.8002  0.0211
  558MOL0     H75280   9.819   6.674   6.480  1.8568  1.1036  0.7850
  558MOL0     H75281  10.108   6.617   6.499  2.1869  1.8698  2.3219
  558MOL0     H75282  10.274   6.525   6.833  1.8666 -0.1568  0.4477
  558MOL0     H75283  10.317   6.541   6.670  1.5301 -3.3103  3.0916
  558MOL0     H75284  10.226   6.775   6.691 -1.7808 -1.6470 -0.8422
  558MOL0     H75285  10.187   6.744   6.857 -0.6467 -0.4173 -0.7936
  558MOL0     H75286  10.471   6.727   6.743 -0.6522 -2.4121 -1.9345
  558MOL0     H75287  10.431   6.675   6.908 -0.7072  0.9137  0.0994
  558MOL0     H75288  10.321   6.907   6.943  0.3771 -0.3156  1.5602
  558MOL0     H75289  10.403   6.952   6.795 -0.8405  0.5622  0.5435
  558MOL0     H75290  10.559   7.055   6.747  0.4145 -0.3650 -0.3999
  558MOL0     H75291  10.691   7.259   6.735 -1.6446 -2.5840 -1.3453
  558MOL0     H75292  11.009   7.613   6.884 -1.4353  1.0896 -0.8700
  558MOL0     H75293  11.140   7.788   6.944  1.0221  0.4624  1.5369
  558MOL0     H75294  11.319   7.899   7.090  1.6255  1.6416  0.1906
  558MOL0     H75295  11.196   8.002   7.026 -1.3063 -1.2658  0.2763
  558MOL0     H75296  11.261   8.159   7.238  0.3815  2.5999 -3.3672
  558MOL0     H75297  11.379   8.037   7.274 -1.2654 -4.4368 -1.6800
  558MOL0     H75298  11.507   8.220   7.171 -1.4820  0.0478  0.7379
  558MOL0     H75299  11.510   8.107   7.053  0.4232  1.8935 -2.0762
  558MOL0     H75300  11.286   8.207   6.965  2.7187 -4.2162  0.3517
  558MOL0     H75301  11.428   8.298   6.934 -1.0331 -0.3369 -0.3396
  558MOL0     H75302  11.408   8.439   7.138 -0.3025  0.6960 -0.2083
  558MOL0     H75303  11.270   8.354   7.183  1.8534  1.2192  1.3779
  558MOL0     H75304  11.305   8.530   6.926 -1.6149 -1.4207 -1.9739
  558MOL0     H75305  11.153   8.447   6.965 -1.2891  2.6279 -0.3356
  558MOL0     H75306  11.305   8.642   7.129  1.4642 -3.5020 -0.5509
  558MOL0     H75307  11.157   8.563   7.187 -0.9022  0.0883  0.9714
  558MOL0     H75308  11.189   8.744   6.939 -0.1849 -3.1151 -1.4682
  558MOL0     H75309  11.035   8.668   6.997  0.2400 -0.2054  0.9650
  558MOL0     H75310  10.971   7.793   7.341 -2.2989  2.5454 -0.6036
  558MOL0     H75311  10.816   7.604   7.277 -0.7526 -0.8088 -0.5289
  558MOL0     H75312  10.648   7.293   7.166 -1.1308  1.1324 -0.3771
  558MOL0     H75313  10.536   7.089   7.165  1.4042 -0.2873  0.0303
  558MOL0     H75314   9.173   6.295   6.091  1.1353 -0.4367 -0.9681
  558MOL0     H75315   9.018   6.124   6.038  1.7447 -0.3320 -0.2999
  558MOL0     H75316   8.795   5.876   5.935 -2.0675  3.4627  1.2462
  558MOL0     H75317   8.658   5.693   5.934  1.5393  0.7706 -1.4738
  558MOL0     H75318   8.444   5.624   5.986 -1.6611  0.3382  1.0046
  558MOL0     H75319   8.329   5.526   5.883 -1.7626  0.7463 -0.4358
  558MOL0     H75320   8.219   5.704   5.802  1.1465 -2.9156 -0.8791
  558MOL0     H75321   8.316   5.823   5.895 -0.9191  0.3233 -0.4733
  558MOL0     H75322   8.247   5.706   6.115 -1.2210  0.0008  0.5121
  558MOL0     H75323   8.148   5.599   6.010 -1.5146  0.1955 -3.9229
  558MOL0     H75324   8.017   5.795   6.123  0.3153  2.5037  0.0485
  558MOL0     H75325   8.123   5.904   6.038 -1.2183  1.0565  1.1547
  558MOL0     H75326   7.867   5.810   5.714  0.1278  3.0589 -0.6517
  558MOL0     H75327   8.433   5.838   5.600  1.9581  0.7910 -1.6820
  558MOL0     H75328   8.704   6.035   5.459  0.2939 -3.1567  0.4189
  558MOL0     H75329   8.549   5.968   5.440  0.3665 -1.5066  1.5489
  558MOL0     H75330   8.565   6.121   5.528 -1.0187  1.3290 -2.2190
  559MOL0     O75331   6.526  10.102   2.820 -0.1542  0.2803  0.4768
  559MOL0     C75332   6.458  10.002   2.779  0.1177  0.3853 -0.3057
  559MOL0     O75333   6.504   9.870   2.778 -0.4145 -0.3400  0.1395
  559MOL0     C75334   6.630   9.825   2.826 -0.0998 -0.6794 -0.0710
  559MOL0     C75335   6.694   9.715   2.761 -0.4876 -0.4658 -0.6922
  559MOL0     C75336   6.813   9.663   2.810  0.8378  0.9454 -0.9281
  559MOL0     C75337   6.886   9.726   2.908 -0.2676 -0.2913 -0.5682
  559MOL0     O75338   6.989   9.664   2.968  0.2012 -0.6185  0.1469
  559MOL0     C75339   7.100   9.632   2.879 -0.4788 -0.0983  0.2386
  559MOL0     C75340   7.212   9.579   2.967 -0.9232  0.1671 -0.6440
  559MOL0     C75341   7.290   9.677   3.058  0.3132 -0.8993  1.1374
  559MOL0     C75342   7.222   9.702   3.195 -0.2940  0.2989  0.0704
  559MOL0     C75343   7.311   9.802   3.274  0.3994 -0.4369  1.0068
  559MOL0     C75344   7.254   9.824   3.417  0.4037 -0.0715  0.6278
  559MOL0     C75345   7.357   9.895   3.505 -1.5775  0.1441  0.1347
  559MOL0     C75346   7.356  10.049   3.482  0.4246 -0.3153  0.1237
  559MOL0     N75347   7.486  10.111   3.509 -0.4225  0.2595 -0.1505
  559MOL0     C75348   7.519  10.155   3.632  0.3717 -0.1966 -0.4080
  559MOL0     C75349   7.648  10.191   3.612  0.2319  0.0468  0.4242
  559MOL0     C75350   7.744  10.225   3.716 -0.7256 -0.0963 -1.1570
  559MOL0     C75351   7.803  10.097   3.786 -0.1750 -0.6522  0.1886
  559MOL0     C75352   7.869   9.998   3.689 -0.1529 -0.0589 -0.0381
  559MOL0     C75353   7.992  10.057   3.609  0.3811 -0.5812  0.5383
  559MOL0     O75354   8.107  10.113   3.686  0.5145  0.2628  0.3573
  559MOL0     C75355   8.230  10.120   3.627  0.1600 -0.4671  0.2965
  559MOL0     C75356   8.246  10.115   3.488 -0.2319  0.4620  0.6763
  559MOL0     C75357   8.372  10.128   3.427 -0.7100 -0.7107  0.0961
  559MOL0     C75358   8.485  10.157   3.503  0.6277 -0.4121  1.0314
  559MOL0     C75359   8.618  10.189   3.444 -0.5161  0.0207  0.5979
  559MOL0     O75360   8.723  10.171   3.529 -0.0108 -0.0273  0.0385
  559MOL0     C75361   8.851  10.173   3.494 -0.5313  0.4013  0.2473
  559MOL0     C75362   8.938  10.195   3.600 -0.0937  0.5704  1.2780
  559MOL0     C75363   9.075  10.204   3.578  1.0046 -0.4492 -0.2869
  559MOL0     C75364   9.126  10.178   3.454 -0.2636  0.6578  0.6161
  559MOL0     O75365   9.256  10.175   3.423  0.4840  0.8814 -0.2112
  559MOL0     C75366   9.351  10.217   3.527 -0.1638 -0.1250  0.5230
  559MOL0     C75367   9.494  10.192   3.468 -0.4825  0.4176 -0.1955
  559MOL0     C75368   9.592  10.301   3.529 -0.0596  0.5554  0.3105
  559MOL0     C75369   9.723  10.297   3.449  0.8433 -0.1949  0.1400
  559MOL0     C75370   9.830  10.376   3.519  0.0177  0.5480  0.0133
  559MOL0     C75371   9.951  10.350   3.422 -0.4708 -0.2888 -0.0538
  559MOL0     C75372  10.064  10.453   3.435  0.0447  0.2047 -0.2502
  559MOL0     C75373  10.169  10.421   3.542 -0.0343  0.0713 -0.8923
  559MOL0    Cl75374  10.314  10.532   3.535  0.5747 -0.1190 -0.0681
  559MOL0     C75375   9.042  10.154   3.348  0.0509 -0.5018  0.7744
  559MOL0     C75376   8.902  10.150   3.365  0.1249 -0.0382 -0.2390
  559MOL0     O75377   8.625  10.212   3.322  0.3939 -0.6780 -0.4670
  559MOL0     C75378   8.470  10.168   3.650  0.1293  0.0835  0.5467
  559MOL0     C75379   8.342  10.147   3.705 -0.0475 -0.3342  0.6208
  559MOL0     N75380   7.688  10.174   3.481  0.3119 -0.0101  0.5674
  559MOL0     N75381   7.590  10.124   3.419 -0.1708 -0.4528  0.0155
  559MOL0     C75382   6.830   9.840   2.972 -0.6951  0.1825  1.2288
  559MOL0     C75383   6.706   9.892   2.930  0.4840 -0.8501 -0.1001
  559MOL0     C75384   6.327  10.026   2.744  0.7202  0.0059  0.1136
  559MOL0     C75385   6.238   9.925   2.749  0.1566  0.2293 -0.3261
  559MOL0     C75386   6.113   9.932   2.705  0.3596 -0.3295 -0.2375
  559MOL0     C75387   6.067  10.052   2.654 -0.4545  0.9722 -0.1165
  559MOL0     O75388   5.938  10.075   2.606 -0.2904  0.1124  0.1206
  559MOL0     C75389   5.834   9.989   2.669 -0.2895  0.3406  0.0338
  559MOL0     C75390   5.698  10.009   2.607  0.0221  0.0790 -1.5593
  559MOL0     C75391   5.655  10.157   2.617 -0.0963 -1.1942  0.3038
  559MOL0     C75392   5.530  10.171   2.518 -0.4341  0.3781  0.0658
  559MOL0     C75393   5.453  10.296   2.526 -0.6780  0.9312  0.0276
  559MOL0     C75394   5.375  10.390   2.526  0.0813  0.3262 -0.5683
  559MOL0     C75395   6.153  10.157   2.646  0.1522 -0.6914 -0.9517
  559MOL0     C75396   6.283  10.148   2.689  0.2666 -0.0939 -0.3204
  559MOL0     C75397   6.371  10.274   2.665 -0.1643 -0.4901  1.0144
  559MOL0     H75398   6.643   9.670   2.676 -0.8625  1.1582 -1.3698
  559MOL0     H75399   6.854   9.581   2.751  0.4822 -0.9026  1.2711
  559MOL0     H75400   7.073   9.560   2.801  2.9470  2.1968 -3.4335
  559MOL0     H75401   7.128   9.728   2.836 -1.3459  1.9809  3.9311
  559MOL0     H75402   7.291   9.537   2.904  0.0720 -0.2012  0.7935
  559MOL0     H75403   7.169   9.494   3.022 -0.9590 -1.3883 -2.9271
  559MOL0     H75404   7.314   9.765   2.999  2.0919 -1.1121  1.4772
  559MOL0     H75405   7.388   9.634   3.081  1.1493  0.0843 -0.4014
  559MOL0     H75406   7.116   9.728   3.188 -0.0837  1.0487 -0.4431
  559MOL0     H75407   7.233   9.613   3.257  0.8319  0.3604 -0.0243
  559MOL0     H75408   7.416   9.773   3.279  0.0469 -1.7484  1.1653
  559MOL0     H75409   7.305   9.900   3.226  2.7013  0.2724  2.0249
  559MOL0     H75410   7.156   9.872   3.413 -0.2873 -1.4662  0.3386
  559MOL0     H75411   7.227   9.726   3.455 -2.3735  0.0186 -0.8827
  559MOL0     H75412   7.448   9.836   3.493 -1.5151  0.4993 -1.2835
  559MOL0     H75413   7.326   9.875   3.608  1.2434 -0.4110  0.9683
  559MOL0     H75414   7.318  10.067   3.381 -0.8633 -1.8298  0.3165
  559MOL0     H75415   7.283  10.101   3.544  0.2664 -1.4279  0.8827
  559MOL0     H75416   7.461  10.155   3.724 -1.7029  0.2797 -1.6384
  559MOL0     H75417   7.832  10.271   3.672  0.2891 -2.4738 -1.8082
  559MOL0     H75418   7.702  10.290   3.793  1.3101  1.1939 -1.0670
  559MOL0     H75419   7.880  10.126   3.859  3.0242 -0.6514 -2.8844
  559MOL0     H75420   7.722  10.039   3.832  2.3692 -1.2450  4.5573
  559MOL0     H75421   7.799   9.979   3.607  1.3698  1.8681 -1.9296
  559MOL0     H75422   7.909   9.908   3.737  2.3650  1.2568  0.5018
  559MOL0     H75423   7.955  10.134   3.541  0.4396 -1.9782 -1.1426
  559MOL0     H75424   8.021   9.969   3.551 -1.4760 -2.2687  2.0258
  559MOL0     H75425   8.168  10.092   3.417  2.2739  0.9832 -2.4346
  559MOL0     H75426   8.370  10.130   3.319 -0.1637 -0.5752  0.0839
  559MOL0     H75427   8.895  10.213   3.698 -2.4268 -0.8286  0.5795
  559MOL0     H75428   9.139  10.226   3.663  0.8827 -0.4762 -0.1883
  559MOL0     H75429   9.331  10.323   3.544 -0.7200  0.1265 -1.4462
  559MOL0     H75430   9.336  10.166   3.623  0.7354 -2.7432 -0.6165
  559MOL0     H75431   9.530  10.089   3.475  3.5540  1.6319 -0.3093
  559MOL0     H75432   9.496  10.215   3.362  0.2890 -0.5831 -0.4183
  559MOL0     H75433   9.551  10.403   3.525  2.3275  1.5394 -0.5800
  559MOL0     H75434   9.624  10.276   3.630 -2.1815  3.1036  1.7393
  559MOL0     H75435   9.696  10.332   3.349 -2.7972 -0.0094  1.0464
  559MOL0     H75436   9.761  10.195   3.447 -1.2802 -1.0346 -1.1529
  559MOL0     H75437   9.839  10.351   3.625 -1.3702  0.4582  0.1355
  559MOL0     H75438   9.799  10.481   3.514 -0.9240  0.2946  0.3042
  559MOL0     H75439   9.991  10.252   3.450  0.2236  0.2387  0.8671
  559MOL0     H75440   9.921  10.348   3.317  3.3235  0.8331 -1.2924
  559MOL0     H75441  10.016  10.552   3.436  0.3334  0.5012 -3.8386
  559MOL0     H75442  10.116  10.444   3.339 -1.8962  2.9159 -1.7041
  559MOL0     H75443  10.126  10.419   3.642  1.3903 -1.5878 -0.2846
  559MOL0     H75444  10.203  10.320   3.518  1.5587  0.2518  0.4397
  559MOL0     H75445   9.085  10.161   3.249 -0.6578 -0.4434  0.4657
  559MOL0     H75446   8.841  10.130   3.278 -0.6337 -2.9200  0.8227
  559MOL0     H75447   8.551  10.202   3.714  1.4061 -0.1033 -0.9254
  559MOL0     H75448   8.320  10.155   3.811 -3.4669 -0.5632  0.0481
  559MOL0     H75449   6.884   9.887   3.053 -0.3574 -0.5769  1.4597
  559MOL0     H75450   6.661   9.979   2.976  0.0206  0.1788 -2.3772
  559MOL0     H75451   6.276   9.825   2.770 -0.9845  0.1240  1.4891
  559MOL0     H75452   6.050   9.844   2.697 -0.9904  0.6991 -1.5807
  559MOL0     H75453   5.832  10.013   2.776  0.8168  0.3642  0.0599
  559MOL0     H75454   5.856   9.882   2.656  0.9352  0.0416  3.3893
  559MOL0     H75455   5.632   9.941   2.663  0.2380 -0.6324 -2.1420
  559MOL0     H75456   5.705   9.972   2.504 -0.9491 -1.2085 -1.1954
  559MOL0     H75457   5.742  10.217   2.589 -0.4298 -0.7388  0.2169
  559MOL0     H75458   5.626  10.190   2.717 -2.0181  3.1101 -1.3791
  559MOL0     H75459   5.564  10.170   2.414  1.6904 -2.9458  0.6533
  559MOL0     H75460   5.459  10.089   2.531 -1.3746  1.3759  1.5332
  559MOL0     H75461   5.323  10.484   2.522 -0.1450  0.3697  1.8003
  559MOL0     H75462   6.116  10.253   2.612  0.3520 -0.2963 -0.0782
  559MOL0     H75463   6.465  10.249   2.614 -0.6343  1.4789 -0.9633
  559MOL0     H75464   6.317  10.341   2.598 -0.2449 -2.1363 -0.6544
  559MOL0     H75465   6.392  10.333   2.754 -1.4767 -0.0426  1.0436
  560MOL0     O75466   8.316   5.702   9.458 -0.1927  0.0285  0.8238
  560MOL0     C75467   8.258   5.810   9.477 -0.0889 -1.2394  0.4489
  560MOL0     O75468   8.310   5.939   9.483 -0.2407  0.3925  0.1829
  560MOL0     C75469   8.429   5.956   9.418 -0.2470 -0.1608 -0.5858
  560MOL0     C75470   8.543   5.979   9.491 -0.9019  0.1076  0.1914
  560MOL0     C75471   8.675   5.985   9.438  0.3151 -0.2054 -0.3607
  560MOL0     C75472   8.684   5.943   9.301  0.2281  0.3687  0.1825
  560MOL0     O75473   8.805   5.938   9.234 -0.5377 -0.0469 -0.1971
  560MOL0     C75474   8.922   5.888   9.304  0.3616 -0.1125  0.3360
  560MOL0     C75475   9.005   5.828   9.188  0.2721  0.3794 -1.7691
  560MOL0     C75476   9.140   5.766   9.238 -0.5214  0.0690  0.2836
  560MOL0     C75477   9.244   5.862   9.295  0.0465 -0.4543  0.2362
  560MOL0     C75478   9.376   5.788   9.312  1.2387  0.3012  0.5781
  560MOL0     C75479   9.491   5.877   9.356 -0.2456  0.8221 -0.5179
  560MOL0     C75480   9.620   5.805   9.393 -1.3202 -0.2143 -0.4945
  560MOL0     C75481   9.744   5.890   9.370 -0.3858  0.5523  0.3514
  560MOL0     N75482   9.740   6.014   9.447  0.1304 -0.4277 -0.2698
  560MOL0     C75483   9.780   6.039   9.578 -0.0435 -0.8243 -0.4204
  560MOL0     C75484   9.784   6.176   9.588 -0.1808 -0.8820  0.0797
  560MOL0     C75485   9.825   6.249   9.713 -0.3071 -0.6961 -0.4985
  560MOL0     C75486   9.976   6.271   9.718  0.6639  0.2330  0.6868
  560MOL0     C75487  10.013   6.320   9.857 -0.6948  0.0198  0.0475
  560MOL0     C75488  10.163   6.361   9.854  0.0469 -0.5720 -0.5984
  560MOL0     O75489  10.254   6.257   9.827 -0.3786 -0.3836  0.0903
  560MOL0     C75490  10.388   6.276   9.819 -0.5306 -0.3508  0.2823
  560MOL0     C75491  10.466   6.173   9.767  0.8237  0.4612 -0.0381
  560MOL0     C75492  10.599   6.204   9.754  0.5675  0.4834 -0.2603
  560MOL0     C75493  10.665   6.330   9.783  0.1802 -0.0043 -0.1294
  560MOL0     C75494  10.804   6.358   9.746 -0.3097 -0.9501  0.0840
  560MOL0     O75495  10.854   6.482   9.772  0.0032  0.2611  0.0640
  560MOL0     C75496  10.989   6.504   9.766 -0.4445 -0.2338 -0.6551
  560MOL0     C75497  11.016   6.639   9.738 -0.4764  0.6986 -0.5020
  560MOL0     C75498  11.147   6.677   9.751  0.0668  0.5403 -0.2375
  560MOL0     C75499  11.247   6.594   9.799 -0.1030  0.0477  0.7869
  560MOL0     O75500  11.383   6.624   9.804  0.4042 -0.5267  0.7511
  560MOL0     C75501  11.409   6.733   9.893 -0.1990  0.3245 -0.9261
  560MOL0     C75502  11.528   6.809   9.845  0.2924 -0.7465 -0.2488
  560MOL0     C75503  11.647   6.718   9.832  0.4197 -0.7684 -0.9384
  560MOL0     C75504  11.717   6.720   9.969  0.2153 -0.2616 -0.3487
  560MOL0     C75505  11.803   6.594   9.989 -0.5591 -0.8847 -0.0139
  560MOL0     C75506  11.916   6.565   9.886 -0.1512  0.3270 -0.0923
  560MOL0     C75507  12.014   6.681   9.881 -0.3292 -0.9775 -0.7438
  560MOL0     C75508  12.128   6.639   9.787 -0.5008 -0.0599  0.0890
  560MOL0    Cl75509  12.257   6.534   9.849 -0.4126 -0.1998 -0.2554
  560MOL0     C75510  11.223   6.458   9.814  0.8444  0.2367 -0.5571
  560MOL0     C75511  11.093   6.413   9.793 -0.3541  0.2149  0.0174
  560MOL0     O75512  10.861   6.269   9.685  0.2165  0.3487 -0.3218
  560MOL0     C75513  10.582   6.422   9.850  0.1862  0.0966 -1.0663
  560MOL0     C75514  10.449   6.397   9.863  1.1639 -0.0170 -0.2697
  560MOL0     N75515   9.733   6.233   9.472  0.0618 -0.8697  0.1114
  560MOL0     N75516   9.717   6.144   9.388 -0.9580  1.0926  0.1934
  560MOL0     C75517   8.572   5.918   9.228 -0.7601 -0.4477  0.2707
  560MOL0     C75518   8.447   5.921   9.286 -0.3115  0.9167 -0.0734
  560MOL0     C75519   8.108   5.806   9.494 -0.3838  0.5130  0.5453
  560MOL0     C75520   8.060   5.687   9.551  0.2857  0.2678  0.0508
  560MOL0     C75521   7.923   5.681   9.592 -0.3112  0.0486 -0.3241
  560MOL0     C75522   7.834   5.778   9.557  0.2821 -0.6994 -0.5091
  560MOL0     O75523   7.702   5.769   9.588 -0.5423 -0.0913 -0.2743
  560MOL0     C75524   7.607   5.881   9.571  0.0785  0.3567  0.1264
  560MOL0     C75525   7.457   5.852   9.587  0.1759  0.3635 -0.6091
  560MOL0     C75526   7.409   5.733   9.510 -0.1981  0.2922 -0.1930
  560MOL0     C75527   7.271   5.699   9.562  0.7808 -0.5434 -0.2192
  560MOL0     C75528   7.166   5.803   9.555 -0.1478 -0.3414  0.1774
  560MOL0     C75529   7.069   5.877   9.558  0.0631  1.5769  0.4457
  560MOL0     C75530   7.881   5.887   9.485  0.1091 -0.4473  1.1889
  560MOL0     C75531   8.019   5.912   9.463 -0.2991  0.4506 -0.4860
  560MOL0     C75532   8.048   6.030   9.392 -0.4139 -0.5862 -0.3042
  560MOL0     H75533   8.517   5.998   9.595 -2.3528  0.7379 -0.2528
  560MOL0     H75534   8.761   6.010   9.498 -0.6858 -1.8737  1.9021
  560MOL0     H75535   8.978   5.978   9.333  2.3001 -1.1695  0.0419
  560MOL0     H75536   8.891   5.815   9.378 -1.5684 -0.8645 -1.1377
  560MOL0     H75537   9.026   5.910   9.119 -0.9471  1.3481 -1.0115
  560MOL0     H75538   8.935   5.756   9.144  0.4634 -0.9990  0.0718
  560MOL0     H75539   9.181   5.707   9.155  0.4199 -0.3502  1.0353
  560MOL0     H75540   9.114   5.693   9.315 -1.4566 -1.6636 -1.5600
  560MOL0     H75541   9.264   5.936   9.218  1.8918  1.9363  2.7867
  560MOL0     H75542   9.214   5.917   9.385  1.3082  1.5602 -0.5093
  560MOL0     H75543   9.367   5.705   9.383  0.1777  0.4397  0.6111
  560MOL0     H75544   9.387   5.741   9.213 -2.8790 -2.1704  1.0788
  560MOL0     H75545   9.513   5.946   9.274 -0.6412  1.0916 -0.3990
  560MOL0     H75546   9.463   5.929   9.447 -0.7996  1.1026 -0.8452
  560MOL0     H75547   9.623   5.710   9.339  1.7090 -1.8082  2.1937
  560MOL0     H75548   9.625   5.778   9.498  1.1276  0.6551 -0.3276
  560MOL0     H75549   9.836   5.833   9.391 -0.4129  0.2656 -0.2909
  560MOL0     H75550   9.757   5.928   9.269 -1.0825 -1.0711 -0.3793
  560MOL0     H75551   9.811   5.977   9.662 -0.6827  0.3152  0.6771
  560MOL0     H75552   9.779   6.348   9.715  0.1294 -0.4938 -0.3970
  560MOL0     H75553   9.796   6.202   9.807 -2.4699  0.7698 -0.3662
  560MOL0     H75554  10.026   6.176   9.695  1.3458  0.3637  1.6055
  560MOL0     H75555  10.015   6.333   9.636  2.0079  0.1493  1.2497
  560MOL0     H75556  10.019   6.240   9.931  2.6978 -1.7374 -1.8510
  560MOL0     H75557   9.959   6.410   9.886 -0.7361 -0.3584  1.1832
  560MOL0     H75558  10.182   6.407   9.952  0.0891 -1.0736 -0.3670
  560MOL0     H75559  10.165   6.446   9.785 -0.1524  0.9307  1.1683
  560MOL0     H75560  10.427   6.077   9.736  1.7507  0.7207 -2.1302
  560MOL0     H75561  10.653   6.131   9.696  0.8488  1.2048 -0.9279
  560MOL0     H75562  10.945   6.714   9.703  0.2401  0.9439 -1.4821
  560MOL0     H75563  11.180   6.772   9.711 -0.8920  1.3590  0.8819
  560MOL0     H75564  11.332   6.810   9.903 -0.4905 -0.2761  2.8667
  560MOL0     H75565  11.422   6.696   9.995 -3.9145 -0.3793 -0.5777
  560MOL0     H75566  11.506   6.862   9.752  0.8749  1.5105  0.8377
  560MOL0     H75567  11.545   6.888   9.917 -0.0266 -1.0035  0.1122
  560MOL0     H75568  11.628   6.619   9.791 -1.3287 -1.0524  0.4351
  560MOL0     H75569  11.723   6.758   9.764  1.1295  0.6814  0.6418
  560MOL0     H75570  11.641   6.719  10.048 -0.8963  0.5083 -1.3793
  560MOL0     H75571  11.781   6.809   9.970 -0.4648  0.3275 -3.1741
  560MOL0     H75572  11.742   6.503   9.990 -3.2033  0.7316 -1.4436
  560MOL0     H75573  11.838   6.587  10.092 -1.6471 -2.4617  0.2783
  560MOL0     H75574  11.952   6.474   9.936 -2.0292 -0.5382 -0.2311
  560MOL0     H75575  11.872   6.552   9.787 -1.8126  1.1826  0.4976
  560MOL0     H75576  12.055   6.716   9.976 -1.4809  0.7661 -0.8405
  560MOL0     H75577  11.966   6.771   9.842  1.6721  0.9269  0.9121
  560MOL0     H75578  12.085   6.584   9.703 -0.9925 -1.9354  1.5137
  560MOL0     H75579  12.174   6.725   9.737  2.5606 -1.6102  0.0475
  560MOL0     H75580  11.296   6.389   9.854 -0.6194 -0.9163  0.2107
  560MOL0     H75581  11.080   6.309   9.822  2.9579 -0.0064  1.1248
  560MOL0     H75582  10.621   6.521   9.871  2.1130 -0.5930 -1.1815
  560MOL0     H75583  10.384   6.480   9.890  1.2404 -0.4139  1.2148
  560MOL0     H75584   8.577   5.895   9.122 -1.4579  0.9312 -0.0768
  560MOL0     H75585   8.353   5.911   9.232  0.8968 -3.5469 -1.7997
  560MOL0     H75586   8.123   5.605   9.583 -0.2661 -0.4774 -0.7381
  560MOL0     H75587   7.884   5.592   9.642 -1.1921  0.2732 -0.6110
  560MOL0     H75588   7.626   5.915   9.469  0.7746 -3.3218 -1.1105
  560MOL0     H75589   7.632   5.955   9.648 -0.0030  0.9263 -0.3890
  560MOL0     H75590   7.396   5.937   9.554 -0.9435  0.1298  0.7690
  560MOL0     H75591   7.433   5.840   9.693 -2.3827  3.0936 -0.7367
  560MOL0     H75592   7.474   5.647   9.527 -1.3704 -0.4416  0.7058
  560MOL0     H75593   7.403   5.750   9.402  0.9932  2.1430 -0.0050
  560MOL0     H75594   7.232   5.613   9.508  0.3602  0.0372 -0.8541
  560MOL0     H75595   7.269   5.671   9.668 -1.6099  0.6464  0.1208
  560MOL0     H75596   6.981   5.938   9.558 -0.1652  1.3939 -2.6426
  560MOL0     H75597   7.821   5.968   9.444  0.9460 -1.1441 -1.6395
  560MOL0     H75598   8.110   6.002   9.306 -0.9694 -0.0862 -0.8732
  560MOL0     H75599   7.960   6.091   9.371  1.1081  1.7130 -0.3486
  560MOL0     H75600   8.111   6.093   9.456 -1.5472 -0.7489  1.0288
  561MOL0     O75601  10.083   0.732   4.222 -0.3697  0.6772 -0.0093
  561MOL0     C75602  10.045   0.643   4.289 -0.4951  0.1509 -0.4623
  561MOL0     O75603  10.119   0.602   4.395 -0.8305 -0.4143 -0.8277
  561MOL0     C75604  10.248   0.655   4.424  0.1233  0.3844 -0.1997
  561MOL0     C75605  10.360   0.614   4.363 -0.7697  0.0823  0.0076
  561MOL0     C75606  10.494   0.642   4.406 -0.1502 -0.3476 -0.3304
  561MOL0     C75607  10.507   0.731   4.510 -0.9694  0.0662 -0.0969
  561MOL0     O75608  10.631   0.761   4.558  0.0360  0.2766 -0.0555
  561MOL0     C75609  10.716   0.840   4.485  0.4821  1.4803  0.1187
  561MOL0     C75610  10.832   0.785   4.401 -0.0016  0.1373  1.3626
  561MOL0     C75611  10.957   0.746   4.495  0.0243 -0.0829 -0.8733
  561MOL0     C75612  11.076   0.705   4.415  1.0878  0.0567 -0.4619
  561MOL0     C75613  11.207   0.681   4.504 -0.1423 -0.2321 -0.5408
  561MOL0     C75614  11.274   0.814   4.535  0.4337  1.1966  0.6424
  561MOL0     C75615  11.391   0.811   4.629  0.3257  1.2402 -0.2425
  561MOL0     C75616  11.465   0.948   4.616  0.8359 -0.4241  0.2666
  561MOL0     N75617  11.585   0.954   4.705  0.1781 -0.2013  0.5565
  561MOL0     C75618  11.660   0.854   4.755 -0.9731  0.0861  0.2501
  561MOL0     C75619  11.771   0.915   4.813  0.7422 -0.4000  0.3960
  561MOL0     C75620  11.880   0.853   4.902  0.5481  0.1807  0.7676
  561MOL0     C75621  11.812   0.822   5.038 -0.8020 -0.6550  0.2968
  561MOL0     C75622  11.927   0.781   5.135 -0.0590  0.6752 -0.3960
  561MOL0     C75623  11.875   0.783   5.274  0.8986 -0.5107 -0.0552
  561MOL0     O75624  11.974   0.767   5.373  0.4422 -0.2784  0.1557
  561MOL0     C75625  12.069   0.866   5.382 -0.6116 -0.0254 -0.3835
  561MOL0     C75626  12.052   0.973   5.462  0.1157 -0.4576  0.1339
  561MOL0     C75627  12.157   1.060   5.489  0.1216 -0.0732  0.1140
  561MOL0     C75628  12.285   1.040   5.433 -0.4628 -0.2186 -0.3789
  561MOL0     C75629  12.401   1.140   5.468  0.2539 -0.4834 -0.5204
  561MOL0     O75630  12.365   1.242   5.555  0.1935 -0.4414 -0.0658
  561MOL0     C75631  12.454   1.327   5.609  0.4519  0.3647  0.7389
  561MOL0     C75632  12.531   1.288   5.727  0.1398 -0.5656 -0.7334
  561MOL0     C75633  12.623   1.377   5.780 -0.0444 -0.4214  0.5107
  561MOL0     C75634  12.631   1.508   5.726 -0.0582  0.9182  0.4700
  561MOL0     O75635  12.706   1.608   5.791 -0.2096  1.1249 -0.5998
  561MOL0     C75636  12.687   1.605   5.937 -0.1448  0.3042  0.9941
  561MOL0     C75637  12.544   1.648   5.968 -0.1224 -0.4456 -1.8213
  561MOL0     C75638  12.498   1.780   5.921 -0.7325  0.5108 -0.0860
  561MOL0     C75639  12.600   1.894   5.962  0.1053  0.8353 -0.3491
  561MOL0     C75640  12.536   2.039   5.941 -0.2001 -0.3255 -0.0236
  561MOL0     C75641  12.408   2.071   6.020  1.0603 -0.5889  0.2538
  561MOL0     C75642  12.367   2.224   6.018  0.0446  0.5476  0.4019
  561MOL0     C75643  12.229   2.243   6.073 -0.2732  0.1053 -0.2663
  561MOL0    Cl75644  12.120   2.176   5.953 -0.4306 -0.2594  0.1949
  561MOL0     C75645  12.561   1.547   5.608  0.3352  0.1571  0.0257
  561MOL0     C75646  12.470   1.454   5.555 -0.4933 -0.1383  0.3917
  561MOL0     O75647  12.515   1.112   5.430  0.3013 -0.1517 -0.2067
  561MOL0     C75648  12.308   0.935   5.344  0.1976 -0.0258  0.0864
  561MOL0     C75649  12.196   0.845   5.323  0.4953 -0.3765  0.7618
  561MOL0     N75650  11.758   1.055   4.780  0.0333 -0.3320 -0.3675
  561MOL0     N75651  11.646   1.071   4.727  0.3651  0.1085 -0.8665
  561MOL0     C75652  10.392   0.771   4.568 -0.6043 -0.0125 -0.8903
  561MOL0     C75653  10.266   0.726   4.540  0.0756 -0.9645  0.1201
  561MOL0     C75654   9.909   0.589   4.278  0.0191  0.9369 -0.3366
  561MOL0     C75655   9.843   0.557   4.406  1.1750 -1.2848  0.1196
  561MOL0     C75656   9.707   0.505   4.400 -0.3275  0.0908  0.1377
  561MOL0     C75657   9.641   0.488   4.269 -0.3603 -0.0355  0.7725
  561MOL0     O75658   9.508   0.452   4.277 -0.4703  0.0896  0.8811
  561MOL0     C75659   9.454   0.372   4.174 -0.5529 -1.5664 -0.6502
  561MOL0     C75660   9.317   0.327   4.227 -0.3109  0.2616 -0.3148
  561MOL0     C75661   9.205   0.428   4.232  0.2020 -0.8260  0.7843
  561MOL0     C75662   9.140   0.466   4.100  0.8556 -0.4162  0.3485
  561MOL0     C75663   9.015   0.538   4.128  0.2120  0.5461  0.1192
  561MOL0     C75664   8.906   0.584   4.138 -0.1555  0.2154  0.1572
  561MOL0     C75665   9.711   0.528   4.153  0.1528 -0.4112 -0.2331
  561MOL0     C75666   9.839   0.586   4.155  0.7225  0.3184 -0.6286
  561MOL0     C75667   9.899   0.624   4.014  0.3297 -0.2124 -1.4029
  561MOL0     H75668  10.335   0.549   4.280  1.3938 -1.1939  0.2772
  561MOL0     H75669  10.586   0.597   4.371  0.0634 -0.7408  0.6980
  561MOL0     H75670  10.651   0.903   4.424 -0.3663 -0.8814 -1.5440
  561MOL0     H75671  10.764   0.898   4.565 -1.0586 -1.1977  3.2353
  561MOL0     H75672  10.876   0.865   4.342 -0.6394 -0.5098 -0.0420
  561MOL0     H75673  10.796   0.697   4.347 -0.1419 -1.0957  3.3600
  561MOL0     H75674  10.935   0.661   4.560  3.3753  0.3444  1.0442
  561MOL0     H75675  10.980   0.835   4.554 -0.7507  0.6719 -1.6792
  561MOL0     H75676  11.053   0.604   4.381 -1.1742  1.0078 -1.9674
  561MOL0     H75677  11.096   0.767   4.327 -0.2261 -2.9287 -3.0514
  561MOL0     H75678  11.179   0.626   4.595  1.6839 -3.1410 -1.5995
  561MOL0     H75679  11.285   0.619   4.460  1.4906  0.1584  1.6397
  561MOL0     H75680  11.313   0.854   4.441  0.9552 -0.8297 -0.0585
  561MOL0     H75681  11.202   0.884   4.576  0.1612  1.2845  0.0261
  561MOL0     H75682  11.453   0.726   4.600  0.1544  2.1458 -3.7767
  561MOL0     H75683  11.353   0.802   4.731 -3.0088  0.2396 -1.4278
  561MOL0     H75684  11.492   0.957   4.510 -1.5613  2.0532 -0.2464
  561MOL0     H75685  11.411   1.041   4.633  0.5354 -0.4834 -0.3435
  561MOL0     H75686  11.644   0.747   4.747  1.0845 -0.2521  0.1941
  561MOL0     H75687  11.915   0.764   4.849 -0.6800  0.3010 -0.2896
  561MOL0     H75688  11.962   0.923   4.921 -0.0797  1.3851 -0.7952
  561MOL0     H75689  11.756   0.907   5.078 -1.5657 -0.0304 -1.9429
  561MOL0     H75690  11.743   0.740   5.019 -0.8351 -0.4779 -0.4084
  561MOL0     H75691  12.023   0.832   5.126  0.3214 -0.3262 -2.6656
  561MOL0     H75692  11.953   0.679   5.106 -0.4339  0.3913  0.2423
  561MOL0     H75693  11.803   0.703   5.293 -1.2421  1.4536  0.5249
  561MOL0     H75694  11.826   0.880   5.273 -0.2694 -1.0177 -3.0663
  561MOL0     H75695  11.950   0.985   5.496  0.1176  2.2154 -0.5652
  561MOL0     H75696  12.136   1.145   5.553  2.1319 -0.4848  1.4203
  561MOL0     H75697  12.517   1.193   5.778  1.3209 -1.3942 -1.8776
  561MOL0     H75698  12.684   1.341   5.863 -1.1227 -2.1981  0.5980
  561MOL0     H75699  12.716   1.509   5.980  0.6298  0.6001  1.1520
  561MOL0     H75700  12.761   1.670   5.986  1.8408 -0.6408 -0.6056
  561MOL0     H75701  12.476   1.565   5.947 -1.6858  0.0425  0.8611
  561MOL0     H75702  12.537   1.662   6.076  1.3103  0.2003 -1.7790
  561MOL0     H75703  12.488   1.776   5.812  1.6607 -1.0374 -0.3261
  561MOL0     H75704  12.396   1.798   5.953 -0.8449  1.1017 -0.7381
  561MOL0     H75705  12.697   1.890   5.912  0.5783  2.6868  0.3220
  561MOL0     H75706  12.615   1.889   6.070  1.7240 -0.5685 -0.5971
  561MOL0     H75707  12.510   2.047   5.835 -0.5439  0.1393  0.0939
  561MOL0     H75708  12.614   2.108   5.976  1.1373 -1.2316 -1.1010
  561MOL0     H75709  12.330   2.013   5.970 -0.1977 -0.1710  1.6604
  561MOL0     H75710  12.422   2.041   6.124 -0.2338  0.9127  0.8962
  561MOL0     H75711  12.380   2.268   5.918 -2.1290 -0.4633 -0.3734
  561MOL0     H75712  12.435   2.285   6.078 -0.6296  1.0926  0.6188
  561MOL0     H75713  12.209   2.195   6.169  1.6014  1.4792  0.8730
  561MOL0     H75714  12.212   2.351   6.074  0.5851  0.2473  0.3063
  561MOL0     H75715  12.565   1.641   5.554 -1.9030  0.3143  0.0153
  561MOL0     H75716  12.418   1.483   5.464  5.4395 -1.6359 -4.1615
  561MOL0     H75717  12.407   0.912   5.306  1.0994  0.8384  1.8040
  561MOL0     H75718  12.214   0.751   5.271 -1.2059 -0.1068 -0.3947
  561MOL0     H75719  10.405   0.848   4.643  3.5672  1.8996 -3.2656
  561MOL0     H75720  10.189   0.750   4.613  1.0867 -1.0878  1.2606
  561MOL0     H75721   9.894   0.571   4.501 -1.2347 -0.5488  1.4010
  561MOL0     H75722   9.656   0.487   4.494  0.1617  0.6023  0.5034
  561MOL0     H75723   9.520   0.288   4.151  1.7899  0.3083 -1.2041
  561MOL0     H75724   9.441   0.443   4.091  0.2486  0.8276  1.1868
  561MOL0     H75725   9.335   0.278   4.324 -0.6711 -2.6448 -1.6006
  561MOL0     H75726   9.280   0.253   4.156 -4.4085  0.6881  1.0740
  561MOL0     H75727   9.232   0.522   4.282 -3.7654  0.3979  0.9916
  561MOL0     H75728   9.128   0.379   4.292  1.7642 -4.1592  0.2966
  561MOL0     H75729   9.210   0.517   4.034  0.5793 -1.3647 -0.6980
  561MOL0     H75730   9.120   0.376   4.042 -1.2789  2.0898 -3.2069
  561MOL0     H75731   8.803   0.615   4.137  0.0913  1.3756 -3.1727
  561MOL0     H75732   9.666   0.519   4.055  2.0889 -0.0434 -1.2027
  561MOL0     H75733   9.872   0.729   3.995 -1.0363 -0.4011 -0.6156
  561MOL0     H75734  10.008   0.616   4.017  0.1590 -3.7760  0.7212
  561MOL0     H75735   9.855   0.566   3.932  0.3341  1.1127 -2.3934
  562MOL0     O75736   6.223   9.741   6.602 -0.8638 -0.2614  0.2175
  562MOL0     C75737   6.269   9.852   6.634 -0.2787  0.0471 -0.3514
  562MOL0     O75738   6.405   9.881   6.652  0.1524  0.1757 -0.0767
  562MOL0     C75739   6.487   9.779   6.626 -0.1637  0.1543  0.2055
  562MOL0     C75740   6.559   9.714   6.728  0.1658 -0.6121  0.2942
  562MOL0     C75741   6.657   9.611   6.705  1.3030 -0.3185 -0.1644
  562MOL0     C75742   6.685   9.575   6.570 -0.5817 -0.5139  0.1727
  562MOL0     O75743   6.786   9.484   6.533  0.7606 -0.2870  0.4438
  562MOL0     C75744   6.823   9.378   6.625  0.9960  0.0454 -0.0585
  562MOL0     C75745   6.915   9.274   6.572 -0.2679 -0.6771 -0.8104
  562MOL0     C75746   6.861   9.160   6.472 -0.6718 -0.2678 -0.7430
  562MOL0     C75747   6.968   9.047   6.466 -1.1636 -0.4687  0.0573
  562MOL0     C75748   6.930   8.927   6.388 -0.2668  0.2144 -0.2334
  562MOL0     C75749   7.055   8.848   6.370 -0.0863 -0.7826  0.4638
  562MOL0     C75750   7.030   8.706   6.313 -0.4838  0.2737  0.0102
  562MOL0     C75751   7.136   8.606   6.364  0.0332 -0.2106 -0.9111
  562MOL0     N75752   7.277   8.638   6.320 -0.1464  0.3392 -0.2140
  562MOL0     C75753   7.314   8.659   6.186  0.7798 -0.5913 -0.5033
  562MOL0     C75754   7.453   8.670   6.210  0.6824  0.4757 -0.8247
  562MOL0     C75755   7.557   8.673   6.096  0.2851 -0.3467  0.2392
  562MOL0     C75756   7.687   8.594   6.126 -0.5210  0.3043 -0.1733
  562MOL0     C75757   7.770   8.577   6.003 -0.1281  0.7232 -0.0566
  562MOL0     C75758   7.886   8.474   6.029 -0.2818  0.2303 -0.0303
  562MOL0     O75759   7.954   8.460   5.899  0.1842 -0.1127  0.1520
  562MOL0     C75760   8.070   8.390   5.880 -0.2611 -0.1445 -0.1423
  562MOL0     C75761   8.122   8.307   5.979  0.0650 -0.2709  0.5376
  562MOL0     C75762   8.229   8.231   5.940 -0.3765  0.8912  0.1296
  562MOL0     C75763   8.287   8.239   5.811  0.3637 -0.6182 -0.1283
  562MOL0     C75764   8.391   8.149   5.752  0.1084  0.8395 -0.1091
  562MOL0     O75765   8.393   8.021   5.801  0.4287  0.6609 -0.4441
  562MOL0     C75766   8.483   7.944   5.737  0.5938  0.2858 -0.4534
  562MOL0     C75767   8.448   7.862   5.628  0.6360  0.4479 -0.2890
  562MOL0     C75768   8.537   7.770   5.576  1.1449  1.1738  0.7303
  562MOL0     C75769   8.649   7.740   5.640  0.1771 -0.4264 -0.5220
  562MOL0     O75770   8.717   7.639   5.584 -0.1987  0.1186 -0.1513
  562MOL0     C75771   8.805   7.564   5.670 -0.3291  0.9007 -0.1844
  562MOL0     C75772   8.862   7.447   5.587  0.5320 -0.3346  0.0270
  562MOL0     C75773   8.956   7.486   5.471  0.8537  0.4225 -0.3351
  562MOL0     C75774   9.037   7.362   5.443 -0.5584  0.4287 -0.9557
  562MOL0     C75775   9.142   7.381   5.334 -0.5743 -0.5968 -0.4704
  562MOL0     C75776   9.266   7.459   5.389 -0.0897  0.0343 -0.0804
  562MOL0     C75777   9.360   7.489   5.276  0.4861  0.2863 -0.1315
  562MOL0     C75778   9.486   7.557   5.314 -0.0917 -0.2650  0.2806
  562MOL0    Cl75779   9.587   7.589   5.171  0.5363  0.2674  0.0172
  562MOL0     C75780   8.676   7.803   5.766 -0.5183 -0.7609  0.7950
  562MOL0     C75781   8.597   7.915   5.808  1.0236  0.0178 -0.5670
  562MOL0     O75782   8.476   8.190   5.675 -0.2825  0.0228 -0.0006
  562MOL0     C75783   8.237   8.324   5.715  0.4890  0.2447 -0.1455
  562MOL0     C75784   8.136   8.411   5.755  0.2602  0.6629  0.4840
  562MOL0     N75785   7.494   8.642   6.335  0.2815  0.4732 -0.0719
  562MOL0     N75786   7.384   8.630   6.400 -0.5271  0.0485  0.2428
  562MOL0     C75787   6.616   9.648   6.470 -0.0595  0.4283  0.5655
  562MOL0     C75788   6.513   9.740   6.493  0.0409 -0.0866 -0.6063
  562MOL0     C75789   6.172   9.964   6.647 -0.3081  1.0150  0.1591
  562MOL0     C75790   6.214  10.093   6.634 -0.0732 -0.4654  0.3327
  562MOL0     C75791   6.121  10.194   6.654  0.3499 -0.7872  0.9087
  562MOL0     C75792   5.984  10.179   6.691 -0.2911 -0.0591 -0.6094
  562MOL0     O75793   5.893  10.279   6.728  0.1437  0.5861 -0.5225
  562MOL0     C75794   5.939  10.404   6.771 -1.0615  0.1841 -0.0937
  562MOL0     C75795   5.830  10.511   6.810  0.1231  0.0273  1.1077
  562MOL0     C75796   5.886  10.632   6.887  0.6187  0.0265 -0.6270
  562MOL0     C75797   5.769  10.726   6.938 -0.9357 -0.7283 -1.1750
  562MOL0     C75798   5.836  10.818   7.024 -0.1910 -0.1090 -0.0936
  562MOL0     C75799   5.894  10.896   7.097  0.3404  0.2180 -0.6524
  562MOL0     C75800   5.946  10.050   6.709 -0.5425 -0.7584  0.7577
  562MOL0     C75801   6.031   9.945   6.674 -0.2602 -0.2151 -0.2685
  562MOL0     C75802   5.970   9.809   6.690 -0.3399  0.2029  0.4814
  562MOL0     H75803   6.550   9.749   6.831  2.1587 -0.6869  0.5316
  562MOL0     H75804   6.698   9.553   6.787  1.7922  0.1394 -0.0796
  562MOL0     H75805   6.871   9.434   6.705  0.8372  0.7315 -0.4342
  562MOL0     H75806   6.727   9.335   6.654  1.2690  0.1029  0.9475
  562MOL0     H75807   6.961   9.239   6.665  0.1283  0.3197 -0.6237
  562MOL0     H75808   7.004   9.317   6.526 -1.1044 -0.4062 -2.2342
  562MOL0     H75809   6.844   9.198   6.371  1.2868 -0.4507 -1.1910
  562MOL0     H75810   6.768   9.123   6.516  0.0252 -0.5354  0.5589
  562MOL0     H75811   7.054   9.093   6.418 -0.7771 -2.3383 -1.1107
  562MOL0     H75812   6.997   9.016   6.567 -1.1743 -0.8280 -0.0472
  562MOL0     H75813   6.849   8.867   6.430  1.3344 -1.5366  0.4796
  562MOL0     H75814   6.903   8.966   6.289  3.0436 -0.6154 -1.6133
  562MOL0     H75815   7.124   8.894   6.298 -1.6177  0.1931 -0.4302
  562MOL0     H75816   7.102   8.824   6.466  0.1298 -2.1024  0.0439
  562MOL0     H75817   7.014   8.701   6.205 -0.7417  0.2577  0.0475
  562MOL0     H75818   6.938   8.662   6.354  0.7213 -2.1908  0.2835
  562MOL0     H75819   7.132   8.611   6.473  1.1159  1.7385 -0.9235
  562MOL0     H75820   7.115   8.504   6.331 -0.6933 -0.0407 -0.9884
  562MOL0     H75821   7.255   8.660   6.096  1.3084  0.1590 -0.8516
  562MOL0     H75822   7.511   8.627   6.008  1.5202  0.9893 -1.1489
  562MOL0     H75823   7.583   8.775   6.069 -2.0704 -0.1055 -1.4793
  562MOL0     H75824   7.745   8.648   6.202  1.3747 -2.9477  0.8826
  562MOL0     H75825   7.663   8.493   6.159 -0.3698  0.8826  1.8289
  562MOL0     H75826   7.822   8.670   5.978 -2.3884  1.8222 -0.9503
  562MOL0     H75827   7.712   8.535   5.920  0.6909 -0.3716 -0.0977
  562MOL0     H75828   7.841   8.377   6.052  0.7211 -0.8136 -2.2161
  562MOL0     H75829   7.962   8.500   6.103  0.4251 -0.6743 -0.4226
  562MOL0     H75830   8.085   8.307   6.081  1.6087 -2.2960  1.1799
  562MOL0     H75831   8.254   8.152   6.011  0.4491  0.5135 -0.5562
  562MOL0     H75832   8.350   7.867   5.581 -0.8673 -0.8590  2.4331
  562MOL0     H75833   8.527   7.720   5.481  2.2826  1.9218  0.1882
  562MOL0     H75834   8.877   7.638   5.705 -2.8020  2.7290  1.3627
  562MOL0     H75835   8.748   7.522   5.753  2.1920  0.7890  1.5881
  562MOL0     H75836   8.917   7.386   5.659  1.0398 -1.2702 -1.1161
  562MOL0     H75837   8.774   7.387   5.561 -0.8486  1.9608 -0.9380
  562MOL0     H75838   8.901   7.517   5.382  2.0404 -0.1232 -1.2898
  562MOL0     H75839   9.020   7.568   5.506  0.8779  0.1541  0.2620
  562MOL0     H75840   8.967   7.287   5.406 -1.2500 -0.4284  1.8529
  562MOL0     H75841   9.091   7.316   5.526  2.0736 -0.9702 -3.2650
  562MOL0     H75842   9.104   7.437   5.248  1.2288  0.1055 -0.8407
  562MOL0     H75843   9.167   7.283   5.293  0.6768 -0.5429  0.1377
  562MOL0     H75844   9.234   7.557   5.426  1.0322  0.5827 -0.5051
  562MOL0     H75845   9.313   7.406   5.471 -0.6904  0.3821  0.5008
  562MOL0     H75846   9.314   7.558   5.205  0.4671  0.3699 -0.0392
  562MOL0     H75847   9.383   7.396   5.225 -1.7438  0.2304 -1.1273
  562MOL0     H75848   9.460   7.653   5.358  0.9830 -0.0338  0.4451
  562MOL0     H75849   9.544   7.502   5.389 -1.4544 -0.9440  0.8748
  562MOL0     H75850   8.754   7.766   5.831 -0.1902 -1.2276  0.1356
  562MOL0     H75851   8.598   7.958   5.908 -0.3453 -1.7983  0.3007
  562MOL0     H75852   8.278   8.331   5.615 -0.0658  0.0885 -0.3867
  562MOL0     H75853   8.095   8.482   5.683  0.6439  0.2898 -0.1030
  562MOL0     H75854   6.648   9.626   6.368  5.7783  0.5191  2.0481
  562MOL0     H75855   6.469   9.809   6.421  1.1526  1.1983 -0.1014
  562MOL0     H75856   6.315  10.116   6.604  0.9338 -1.7427  2.4758
  562MOL0     H75857   6.165  10.289   6.626 -0.3677  0.3027  3.2169
  562MOL0     H75858   6.005  10.438   6.691 -0.0681 -2.2006 -0.3753
  562MOL0     H75859   6.004  10.396   6.859 -2.0186  0.4307  0.6512
  562MOL0     H75860   5.741  10.473   6.860  0.0062 -1.4038 -0.1204
  562MOL0     H75861   5.797  10.554   6.715  0.8247 -1.7583  0.0108
  562MOL0     H75862   5.959  10.685   6.825  0.2790 -0.0824 -1.1236
  562MOL0     H75863   5.938  10.592   6.975 -1.4672 -1.1663  0.1244
  562MOL0     H75864   5.717  10.772   6.854 -0.0885  0.5686 -1.0302
  562MOL0     H75865   5.705  10.668   7.006 -1.0771 -1.1902 -1.6987
  562MOL0     H75866   5.934  10.967   7.167 -1.3509 -0.9317  1.5938
  562MOL0     H75867   5.842  10.034   6.734 -0.7485 -1.0942 -0.2448
  562MOL0     H75868   5.869   9.819   6.730 -1.3288  0.2440 -1.8444
  562MOL0     H75869   5.938   9.773   6.592 -2.7859  0.8351  0.9816
  562MOL0     H75870   6.024   9.740   6.756 -0.9684  1.6317  2.5934
  563MOL0     O75871   8.284   9.682   0.475  0.0857 -0.1970  0.4297
  563MOL0     C75872   8.235   9.591   0.539  1.0148 -0.8651 -0.1882
  563MOL0     O75873   8.289   9.535   0.651  0.4285  0.2674  0.2315
  563MOL0     C75874   8.424   9.533   0.650 -0.0219  0.2028 -0.4686
  563MOL0     C75875   8.494   9.632   0.721  0.2729  0.4526  0.3120
  563MOL0     C75876   8.635   9.634   0.724 -0.6982  0.2884 -0.4366
  563MOL0     C75877   8.708   9.528   0.653 -0.0011  0.3158 -0.3576
  563MOL0     O75878   8.841   9.503   0.663  0.4747 -0.4257  0.4645
  563MOL0     C75879   8.904   9.523   0.784 -0.5905 -0.1876 -0.1824
  563MOL0     C75880   8.996   9.637   0.765 -0.1314 -0.5155 -0.0414
  563MOL0     C75881   9.100   9.644   0.873 -0.5745  0.2094  0.4510
  563MOL0     C75882   9.192   9.770   0.864  0.6249 -0.0380 -0.1999
  563MOL0     C75883   9.284   9.784   0.986 -0.8378 -0.3692 -0.1561
  563MOL0     C75884   9.222   9.815   1.120  0.3646 -0.2419  0.6757
  563MOL0     C75885   9.310   9.766   1.235  1.0082 -0.0555 -0.2598
  563MOL0     C75886   9.264   9.822   1.370 -0.8012 -0.9940  0.8420
  563MOL0     N75887   9.220   9.966   1.377  0.5834  0.8346  0.3427
  563MOL0     C75888   9.090  10.004   1.374 -0.4462  0.9545  0.2431
  563MOL0     C75889   9.083  10.134   1.355 -0.2615  0.6158  0.4841
  563MOL0     C75890   8.969  10.215   1.333 -0.1370  0.5954  0.3391
  563MOL0     C75891   8.862  10.163   1.228 -0.1473 -0.0344  0.1137
  563MOL0     C75892   8.747  10.260   1.211 -0.5443  0.5986  0.1938
  563MOL0     C75893   8.616  10.190   1.223 -0.7987 -0.7467  1.0196
  563MOL0     O75894   8.507  10.288   1.205  1.4851 -0.3517 -0.2182
  563MOL0     C75895   8.389  10.248   1.159  1.0790 -0.0521 -0.4027
  563MOL0     C75896   8.344  10.118   1.137  0.2798 -0.2556 -0.2116
  563MOL0     C75897   8.218  10.094   1.078 -0.1775  0.3108 -0.2379
  563MOL0     C75898   8.135  10.205   1.053 -0.3809  0.1166  0.8971
  563MOL0     C75899   7.993  10.183   1.008  0.2463 -0.4360  0.4296
  563MOL0     O75900   7.934  10.062   1.014  0.1112 -0.0522 -0.6125
  563MOL0     C75901   7.798  10.047   1.014 -0.2027  0.6302  0.0310
  563MOL0     C75902   7.712  10.134   1.079  0.2443 -0.5072 -0.5602
  563MOL0     C75903   7.576  10.121   1.068  0.2052  0.6843 -0.1904
  563MOL0     C75904   7.531   9.997   1.011 -0.0231 -0.0064  0.2408
  563MOL0     O75905   7.398   9.972   1.019  0.5287  0.1900 -0.0972
  563MOL0     C75906   7.345   9.845   0.982 -0.8330  0.1998 -0.8131
  563MOL0     C75907   7.317   9.826   0.836  0.4524 -0.1839  0.3046
  563MOL0     C75908   7.233   9.942   0.775  1.1222  0.3872 -0.0356
  563MOL0     C75909   7.212   9.932   0.634 -0.1475  0.2165  0.5483
  563MOL0     C75910   7.166  10.063   0.571  1.1076  0.0139  0.7220
  563MOL0     C75911   7.027  10.116   0.620 -0.4406  0.2653  1.5850
  563MOL0     C75912   6.960  10.210   0.518 -0.1678  0.3267  0.1374
  563MOL0     C75913   6.871  10.142   0.416 -0.0712  0.4580 -0.4124
  563MOL0    Cl75914   6.937  10.070   0.273 -0.4492  0.4239  0.0194
  563MOL0     C75915   7.622   9.906   0.956  0.4156  0.5519 -0.9945
  563MOL0     C75916   7.753   9.932   0.951 -0.5412  0.0972 -0.4775
  563MOL0     O75917   7.934  10.286   0.970 -0.5789 -0.1805  0.1784
  563MOL0     C75918   8.170  10.333   1.089 -0.7347  0.1566  0.2828
  563MOL0     C75919   8.299  10.350   1.144 -0.0987  0.7334  0.1136
  563MOL0     N75920   9.216  10.172   1.353 -0.9840 -0.4058  0.0678
  563MOL0     N75921   9.296  10.076   1.376  0.3924 -0.0707 -1.3806
  563MOL0     C75922   8.635   9.433   0.583 -0.5665  0.0248 -0.7105
  563MOL0     C75923   8.491   9.433   0.579  0.1906  0.7495 -0.2550
  563MOL0     C75924   8.083   9.570   0.529  0.2239 -0.1103  0.0071
  563MOL0     C75925   8.019   9.458   0.592 -0.2585 -0.1119  0.5538
  563MOL0     C75926   7.881   9.423   0.575 -0.5143  0.8251 -0.0011
  563MOL0     C75927   7.802   9.514   0.496 -0.2575  0.0804  0.0844
  563MOL0     O75928   7.675   9.472   0.477  0.0672  0.3221  0.3168
  563MOL0     C75929   7.561   9.568   0.470  0.5456  0.8865  0.6522
  563MOL0     C75930   7.444   9.506   0.543 -0.3268  0.5177 -0.0700
  563MOL0     C75931   7.330   9.611   0.546 -0.8926  0.1518 -0.4171
  563MOL0     C75932   7.234   9.593   0.420 -0.7128  0.2403 -0.1833
  563MOL0     C75933   7.128   9.691   0.412  0.5602 -0.0367 -0.0285
  563MOL0     C75934   7.024   9.759   0.393 -0.1221  0.3297  0.1922
  563MOL0     C75935   7.855   9.623   0.445 -0.4115 -0.3254 -1.0001
  563MOL0     C75936   7.995   9.645   0.446  0.8924 -1.3741 -0.7651
  563MOL0     C75937   8.041   9.772   0.368 -0.2998  0.8631 -0.0246
  563MOL0     H75938   8.433   9.700   0.779 -2.1343 -1.5389  0.2610
  563MOL0     H75939   8.698   9.704   0.779  0.2644 -1.5683  0.9454
  563MOL0     H75940   8.834   9.542   0.866 -1.3121  1.2090 -1.0978
  563MOL0     H75941   8.971   9.437   0.798 -0.2053 -0.7045 -4.1410
  563MOL0     H75942   8.951   9.736   0.756  0.2227 -0.2836  0.6562
  563MOL0     H75943   9.055   9.627   0.674 -0.1944 -0.3053 -0.1049
  563MOL0     H75944   9.163   9.556   0.874  0.4598  0.9291  1.2850
  563MOL0     H75945   9.051   9.642   0.971  0.5678 -1.4950  1.0237
  563MOL0     H75946   9.253   9.756   0.774 -0.6024  2.1097 -1.4359
  563MOL0     H75947   9.137   9.864   0.863  0.9111  0.1506 -1.9683
  563MOL0     H75948   9.331   9.687   1.001 -0.0145 -0.0064 -0.3512
  563MOL0     H75949   9.360   9.859   0.963 -1.4847  0.1949 -0.5230
  563MOL0     H75950   9.215   9.924   1.128  2.9420  0.1745 -1.3074
  563MOL0     H75951   9.122   9.772   1.124  0.3479 -0.5407 -1.6429
  563MOL0     H75952   9.417   9.782   1.225  1.3984  1.0348  3.9044
  563MOL0     H75953   9.274   9.663   1.241 -1.0826  0.7237  2.1236
  563MOL0     H75954   9.187   9.755   1.407 -2.2137 -1.3698 -2.3988
  563MOL0     H75955   9.349   9.827   1.438  0.5713 -0.8919 -0.7892
  563MOL0     H75956   9.009   9.933   1.364  0.9271 -1.1077  2.4791
  563MOL0     H75957   8.912  10.231   1.425  0.2977 -1.6414  1.0754
  563MOL0     H75958   8.993  10.314   1.295 -0.8104  0.4573 -0.4644
  563MOL0     H75959   8.910  10.141   1.132 -0.7949 -1.7409  0.1518
  563MOL0     H75960   8.827  10.061   1.246 -2.7079  0.0111 -3.4784
  563MOL0     H75961   8.749  10.312   1.114  2.0072  0.3709  0.0618
  563MOL0     H75962   8.752  10.330   1.295 -3.0626 -1.8086  2.5362
  563MOL0     H75963   8.608  10.139   1.319 -2.4986 -1.2456  0.6524
  563MOL0     H75964   8.611  10.124   1.137  0.2445  0.5472 -0.0851
  563MOL0     H75965   8.412  10.037   1.158  0.5718  0.3780  1.4888
  563MOL0     H75966   8.174   9.996   1.064 -1.8391  0.9273  0.4571
  563MOL0     H75967   7.747  10.221   1.134 -0.3516 -0.2925 -0.5158
  563MOL0     H75968   7.499  10.177   1.121  0.2530  1.4711 -0.9184
  563MOL0     H75969   7.418   9.771   1.015  0.8699  1.3668 -1.7998
  563MOL0     H75970   7.251   9.836   1.038 -1.3612 -0.4780 -1.7840
  563MOL0     H75971   7.413   9.820   0.785  0.7577  0.2679  0.8150
  563MOL0     H75972   7.260   9.734   0.820  0.5192 -0.4299  1.3552
  563MOL0     H75973   7.136   9.947   0.827  1.3995  0.7159  0.4642
  563MOL0     H75974   7.291  10.032   0.800 -0.8214  1.2993  1.6178
  563MOL0     H75975   7.136   9.854   0.620 -2.4135  2.5829 -1.4619
  563MOL0     H75976   7.310   9.905   0.593  0.6337  0.8875  1.9011
  563MOL0     H75977   7.146  10.047   0.464 -0.4398  0.9072  0.8492
  563MOL0     H75978   7.241  10.140   0.593  1.6583 -0.2360 -0.2167
  563MOL0     H75979   6.970  10.030   0.654  0.3973 -0.3209  1.5259
  563MOL0     H75980   7.047  10.178   0.708  2.3668  5.3726 -2.0609
  563MOL0     H75981   7.034  10.271   0.465  1.4700 -0.1663  1.7710
  563MOL0     H75982   6.902  10.284   0.574 -5.1590 -2.0151 -1.3419
  563MOL0     H75983   6.796  10.077   0.464  1.4340 -1.0885 -0.0538
  563MOL0     H75984   6.803  10.219   0.379 -2.2823 -1.5753 -0.8526
  563MOL0     H75985   7.602   9.805   0.922  0.1996 -0.3127  1.4639
  563MOL0     H75986   7.825   9.867   0.902 -1.0099 -1.2261  0.5161
  563MOL0     H75987   8.096  10.413   1.091 -2.6364 -1.5054  2.6637
  563MOL0     H75988   8.319  10.446   1.191 -3.8363  0.9749  1.5801
  563MOL0     H75989   8.688   9.356   0.527 -0.4957 -1.3686  1.1868
  563MOL0     H75990   8.436   9.355   0.527 -0.6772  1.8415 -1.0182
  563MOL0     H75991   8.065   9.385   0.658  1.5488 -1.7737 -2.3748
  563MOL0     H75992   7.845   9.333   0.623  3.6805 -0.7853  0.5857
  563MOL0     H75993   7.535   9.583   0.365  1.0108  1.3036  0.5893
  563MOL0     H75994   7.589   9.663   0.518 -0.5751  1.7498 -0.3430
  563MOL0     H75995   7.476   9.493   0.647 -1.8269  0.6877  0.4269
  563MOL0     H75996   7.421   9.403   0.515  1.5519 -0.1352  0.6296
  563MOL0     H75997   7.379   9.709   0.548  2.3578 -1.2845  3.5036
  563MOL0     H75998   7.270   9.606   0.637  0.7087  2.5715  0.8735
  563MOL0     H75999   7.283   9.609   0.323  0.3233  0.4219  0.3595
  563MOL0     H76000   7.183   9.496   0.420 -1.2750  0.3936  3.4085
  563MOL0     H76001   6.930   9.809   0.385  0.5117  1.2411 -3.4358
  563MOL0     H76002   7.787   9.679   0.382 -3.4853 -1.3126  1.1891
  563MOL0     H76003   8.099   9.840   0.432 -0.2342  2.0115 -1.2582
  563MOL0     H76004   8.094   9.725   0.285 -2.8308 -2.7900  0.1794
  563MOL0     H76005   7.954   9.829   0.332 -0.3440  2.4307  2.3149
  564MOL0     O76006   9.057   6.704   1.883 -0.0484 -0.1994 -0.5665
  564MOL0     C76007   9.117   6.690   1.993  0.8351 -0.0096 -0.9789
  564MOL0     O76008   9.053   6.660   2.111 -0.9080  0.3364 -0.3947
  564MOL0     C76009   8.921   6.645   2.118  0.3811 -0.7132 -0.6764
  564MOL0     C76010   8.840   6.736   2.195  0.6154  0.1195 -0.3074
  564MOL0     C76011   8.705   6.709   2.214  0.2053 -0.7009  0.7715
  564MOL0     C76012   8.635   6.608   2.148  0.0487  0.0594 -0.5135
  564MOL0     O76013   8.501   6.598   2.154  0.2071  0.1695 -0.3831
  564MOL0     C76014   8.441   6.616   2.278 -0.0554  0.2347 -0.1545
  564MOL0     C76015   8.300   6.558   2.283 -0.4033  0.6529 -0.3542
  564MOL0     C76016   8.191   6.645   2.228  0.3240  0.6521 -0.3864
  564MOL0     C76017   8.053   6.587   2.269  0.4841  0.0267  0.1074
  564MOL0     C76018   7.941   6.682   2.231  0.6367 -0.3389  0.0874
  564MOL0     C76019   7.804   6.615   2.261 -0.2979 -0.4921  0.9789
  564MOL0     C76020   7.690   6.718   2.232  0.9974 -0.0846  0.4929
  564MOL0     C76021   7.546   6.664   2.254  0.3570 -0.1793  0.2013
  564MOL0     N76022   7.537   6.568   2.370  0.0046  0.5015  0.0781
  564MOL0     C76023   7.575   6.593   2.503  0.8130 -0.6705  1.4643
  564MOL0     C76024   7.566   6.470   2.570 -0.4949 -0.1572 -0.2631
  564MOL0     C76025   7.572   6.440   2.714 -0.9066 -0.7226  0.3517
  564MOL0     C76026   7.719   6.388   2.749  0.8433 -1.1385  0.8899
  564MOL0     C76027   7.718   6.326   2.880  0.0858  0.6661  0.3782
  564MOL0     C76028   7.683   6.416   3.002 -0.5746  1.2270  0.6598
  564MOL0     O76029   7.751   6.542   3.010  0.4250 -0.0718  0.4809
  564MOL0     C76030   7.887   6.548   3.035 -0.3693 -0.4196 -0.2692
  564MOL0     C76031   7.955   6.640   2.959 -0.1742 -0.0990  0.1463
  564MOL0     C76032   8.096   6.657   2.980  0.0612  0.0330 -0.5665
  564MOL0     C76033   8.165   6.582   3.074 -0.2696  0.3583  1.9330
  564MOL0     C76034   8.312   6.588   3.089 -0.7176  0.1271  0.8666
  564MOL0     O76035   8.387   6.660   3.006 -0.6233  0.1572  0.8515
  564MOL0     C76036   8.523   6.665   3.023  0.9166  0.4038  0.3757
  564MOL0     C76037   8.579   6.750   3.120 -0.4668  0.1036  0.0494
  564MOL0     C76038   8.715   6.744   3.147  1.3444  0.5235  0.1317
  564MOL0     C76039   8.803   6.672   3.057  0.2748 -0.3409  0.7438
  564MOL0     O76040   8.940   6.641   3.077  0.2690 -0.1524  0.1541
  564MOL0     C76041   8.999   6.675   3.203  0.7523  0.2122  0.4545
  564MOL0     C76042   9.140   6.617   3.198 -0.1454  0.0063 -0.1538
  564MOL0     C76043   9.217   6.683   3.323 -0.5842 -0.1139 -0.2362
  564MOL0     C76044   9.364   6.658   3.302 -0.8311  0.2408 -0.1811
  564MOL0     C76045   9.434   6.735   3.417  0.2975  0.3041  0.2651
  564MOL0     C76046   9.581   6.702   3.436 -0.0607  0.0451  0.2311
  564MOL0     C76047   9.631   6.763   3.564  0.5783 -0.3321  0.2128
  564MOL0     C76048   9.779   6.785   3.571 -0.0919  0.1723  0.2532
  564MOL0    Cl76049   9.822   6.815   3.743 -0.1597  0.3000 -0.6162
  564MOL0     C76050   8.746   6.598   2.954  0.8339 -0.0858  0.7657
  564MOL0     C76051   8.604   6.599   2.936  0.4203 -0.1906 -0.0563
  564MOL0     O76052   8.357   6.508   3.170 -0.1526 -0.6497  0.2882
  564MOL0     C76053   8.091   6.483   3.144 -0.2601  0.1086 -0.6667
  564MOL0     C76054   7.955   6.463   3.126 -0.4336 -0.5744 -0.7482
  564MOL0     N76055   7.546   6.376   2.469  0.2781  0.3832 -0.2434
  564MOL0     N76056   7.520   6.437   2.354 -0.3697  0.2382 -0.3463
  564MOL0     C76057   8.702   6.527   2.058  0.8403  0.3966 -0.0467
  564MOL0     C76058   8.850   6.542   2.049 -0.3038 -0.1568 -0.3469
  564MOL0     C76059   9.259   6.709   2.005  0.2758 -0.3201  0.2759
  564MOL0     C76060   9.323   6.712   2.126  0.1587 -0.9397 -0.0115
  564MOL0     C76061   9.455   6.726   2.141 -0.4383 -0.2279 -0.1549
  564MOL0     C76062   9.535   6.749   2.027  0.9222  0.3149 -0.8680
  564MOL0     O76063   9.667   6.765   2.056  0.3880 -0.3231  0.2289
  564MOL0     C76064   9.753   6.822   1.960  0.7428 -0.1206 -0.8424
  564MOL0     C76065   9.837   6.922   2.039  0.5737 -0.2589 -0.5820
  564MOL0     C76066   9.926   7.006   1.946 -0.1040 -0.3888  0.1236
  564MOL0     C76067  10.048   6.927   1.889 -0.1530  0.0809  0.3659
  564MOL0     C76068  10.122   7.021   1.800  0.4673  0.0487 -0.0231
  564MOL0     C76069  10.191   7.083   1.724 -0.8481  0.4452  0.1706
  564MOL0     C76070   9.481   6.750   1.904 -1.4122  0.3789  0.0944
  564MOL0     C76071   9.346   6.717   1.886 -0.5876  0.2833 -0.0579
  564MOL0     C76072   9.301   6.688   1.741  0.3730 -0.1789 -1.0664
  564MOL0     H76073   8.883   6.820   2.249  1.6046  0.8775 -2.1658
  564MOL0     H76074   8.648   6.770   2.284  1.1014 -2.6755  3.3591
  564MOL0     H76075   8.493   6.556   2.354 -2.2110 -1.9931 -0.3187
  564MOL0     H76076   8.445   6.725   2.290  0.6510  0.5770 -2.9697
  564MOL0     H76077   8.266   6.546   2.386 -0.8073  2.4449 -0.2422
  564MOL0     H76078   8.294   6.462   2.230 -3.2474  0.8617 -0.5521
  564MOL0     H76079   8.203   6.650   2.119  1.4648  4.2351 -0.2085
  564MOL0     H76080   8.197   6.748   2.263  1.3501  1.4517 -2.6938
  564MOL0     H76081   8.058   6.488   2.223 -0.6451 -0.4651  0.9866
  564MOL0     H76082   8.044   6.562   2.375  0.4836 -1.1086 -0.1461
  564MOL0     H76083   7.958   6.775   2.287 -0.6913  0.7797 -1.3036
  564MOL0     H76084   7.947   6.716   2.127  1.0540  0.5005  0.3732
  564MOL0     H76085   7.796   6.528   2.196  0.8266  1.4341 -1.9477
  564MOL0     H76086   7.797   6.595   2.369 -2.2750  0.9003  1.1693
  564MOL0     H76087   7.693   6.766   2.134 -0.1743  2.5427  1.6489
  564MOL0     H76088   7.698   6.805   2.298 -1.7697  0.7915 -0.1955
  564MOL0     H76089   7.481   6.748   2.278  1.6012  0.8067  0.1936
  564MOL0     H76090   7.508   6.620   2.161  2.8374 -0.2725 -0.8425
  564MOL0     H76091   7.592   6.696   2.535 -4.2861  0.1780  2.3536
  564MOL0     H76092   7.541   6.532   2.764  0.2325 -0.5400  0.7618
  564MOL0     H76093   7.509   6.356   2.741 -0.0720 -1.4354  0.1418
  564MOL0     H76094   7.744   6.311   2.675  0.4503 -0.0109 -0.4793
  564MOL0     H76095   7.782   6.477   2.755 -0.7877  0.1508 -0.2078
  564MOL0     H76096   7.817   6.284   2.900 -0.0892  1.5315  3.6640
  564MOL0     H76097   7.644   6.245   2.882  0.0135  0.6260 -1.9662
  564MOL0     H76098   7.712   6.350   3.084 -0.9738 -1.6705 -1.3939
  564MOL0     H76099   7.575   6.430   2.996 -1.0671 -1.5226  1.7922
  564MOL0     H76100   7.899   6.705   2.893  1.4587  0.2014 -1.0086
  564MOL0     H76101   8.142   6.729   2.914  1.1919  0.4083  0.6061
  564MOL0     H76102   8.518   6.814   3.183 -2.8983  0.2178 -2.2729
  564MOL0     H76103   8.760   6.797   3.231 -1.1019  0.3409  1.6785
  564MOL0     H76104   8.983   6.781   3.224 -1.5280  0.1939 -0.8073
  564MOL0     H76105   8.941   6.608   3.267  1.0513 -0.6103 -0.1206
  564MOL0     H76106   9.147   6.508   3.192 -0.4253  0.0174 -0.8596
  564MOL0     H76107   9.188   6.644   3.103 -0.4996 -0.4129 -0.4605
  564MOL0     H76108   9.199   6.789   3.341  2.7713  0.2366  1.8846
  564MOL0     H76109   9.181   6.626   3.409 -0.1501  1.2604  0.8915
  564MOL0     H76110   9.407   6.699   3.210  0.9791 -0.0360  0.5017
  564MOL0     H76111   9.382   6.550   3.302  3.1833  0.7752 -0.2857
  564MOL0     H76112   9.387   6.715   3.514  4.2879  0.5901  2.4346
  564MOL0     H76113   9.413   6.842   3.406 -0.9755  0.2629  1.9470
  564MOL0     H76114   9.590   6.593   3.442 -3.1063 -0.2386  2.5676
  564MOL0     H76115   9.638   6.739   3.351  0.9965 -0.8285  0.5466
  564MOL0     H76116   9.596   6.691   3.638 -1.9353 -0.8466 -1.3323
  564MOL0     H76117   9.582   6.858   3.589  0.0426 -0.6478  0.3816
  564MOL0     H76118   9.839   6.699   3.541  0.7758  0.8710 -0.0784
  564MOL0     H76119   9.814   6.869   3.509  0.7008 -0.5067 -0.2393
  564MOL0     H76120   8.814   6.535   2.897  1.6791  0.9896  0.5313
  564MOL0     H76121   8.556   6.529   2.868 -2.8545  0.0171  1.8281
  564MOL0     H76122   8.138   6.413   3.213 -0.3667  3.3462  3.0345
  564MOL0     H76123   7.899   6.383   3.174 -2.9417  1.6026  0.1890
  564MOL0     H76124   8.651   6.446   2.008 -1.8035  2.2556 -0.5962
  564MOL0     H76125   8.911   6.466   2.002 -2.5845 -2.2214 -0.1486
  564MOL0     H76126   9.257   6.713   2.212 -2.2907  1.3434 -1.7231
  564MOL0     H76127   9.494   6.709   2.241 -0.3359 -2.6614 -0.5325
  564MOL0     H76128   9.703   6.864   1.873 -1.8118 -1.3489 -0.0698
  564MOL0     H76129   9.814   6.742   1.916 -0.5325 -0.9266 -1.1917
  564MOL0     H76130   9.889   6.876   2.124  0.2856 -0.6760 -0.6288
  564MOL0     H76131   9.779   7.000   2.090  1.0347 -0.6657  0.6105
  564MOL0     H76132   9.967   7.089   2.004 -1.1285 -0.2751  0.7238
  564MOL0     H76133   9.866   7.052   1.867 -2.5222 -1.5332  1.1712
  564MOL0     H76134  10.110   6.890   1.972 -0.8003 -1.2936  0.2559
  564MOL0     H76135  10.019   6.835   1.837  3.2075 -1.3161  0.6917
  564MOL0     H76136  10.264   7.124   1.657  1.3570  0.6080  2.5143
  564MOL0     H76137   9.535   6.769   1.812 -0.9041  1.0493  0.5200
  564MOL0     H76138   9.387   6.657   1.681  1.1708 -0.2011  0.0471
  564MOL0     H76139   9.220   6.620   1.715  0.6983 -0.4335 -1.4327
  564MOL0     H76140   9.269   6.784   1.700  3.8229  0.1181 -3.4839
  565MOL0     O76141   7.261   9.972   0.007 -0.1704  0.0640  0.0564
  565MOL0     C76142   7.277   9.856  -0.020 -0.0852  0.1611  0.2118
  565MOL0     O76143   7.361   9.780   0.040  0.0032  0.8032 -1.1283
  565MOL0     C76144   7.446   9.838   0.130  0.2719  0.6497  0.3554
  565MOL0     C76145   7.578   9.808   0.117 -0.2464  0.4631 -0.2039
  565MOL0     C76146   7.667   9.845   0.217 -0.0619 -0.3821  0.3000
  565MOL0     C76147   7.624   9.916   0.330  0.6715  0.5079  0.1263
  565MOL0     O76148   7.727   9.969   0.404 -0.1280  0.4430 -0.7446
  565MOL0     C76149   7.693   9.994   0.546  0.2903 -0.4202  0.6373
  565MOL0     C76150   7.800  10.077   0.609 -0.2559  0.1789  0.3620
  565MOL0     C76151   7.934  10.012   0.590  0.0591 -0.4412  0.3401
  565MOL0     C76152   8.036  10.093   0.659 -0.1946 -0.7768 -0.2823
  565MOL0     C76153   8.184  10.047   0.631 -0.1079 -0.4249 -0.3325
  565MOL0     C76154   8.283  10.097   0.741 -0.1464  0.8508  0.2832
  565MOL0     C76155   8.429  10.100   0.687 -0.2950  0.5654  0.4687
  565MOL0     C76156   8.541  10.169   0.782  0.1694 -0.1955  0.5184
  565MOL0     N76157   8.678  10.117   0.765 -0.4939 -1.1403  0.5350
  565MOL0     C76158   8.775  10.201   0.717  0.0114  0.2013  0.8170
  565MOL0     C76159   8.887  10.127   0.744 -0.5636  0.3266 -0.4412
  565MOL0     C76160   9.029  10.184   0.726  0.1413  0.3191 -0.2993
  565MOL0     C76161   9.064  10.279   0.839 -0.4496 -0.1103 -1.0697
  565MOL0     C76162   9.134  10.213   0.962  0.6989 -0.5013 -0.1974
  565MOL0     C76163   9.261  10.140   0.923 -0.0602 -0.6338 -0.8280
  565MOL0     O76164   9.355  10.222   0.855 -0.0154 -0.4929 -0.6790
  565MOL0     C76165   9.443  10.316   0.911  0.1705 -0.1904  0.3860
  565MOL0     C76166   9.555  10.355   0.835  0.4668 -0.3320  0.2060
  565MOL0     C76167   9.651  10.441   0.888  0.1485 -0.1655 -0.9477
  565MOL0     C76168   9.640  10.486   1.027  0.6806 -0.3394  0.8547
  565MOL0     C76169   9.746  10.568   1.091  0.0527 -0.1371 -0.0555
  565MOL0     O76170   9.855  10.605   1.012 -0.6509 -0.7439 -0.6039
  565MOL0     C76171   9.952  10.688   1.064  0.4944 -0.2323  0.8763
  565MOL0     C76172  10.079  10.635   1.100  0.8472  0.2215 -0.7000
  565MOL0     C76173  10.177  10.712   1.163  0.3784 -0.2045  0.1547
  565MOL0     C76174  10.160  10.851   1.171  0.6790 -0.5976  0.3621
  565MOL0     O76175  10.257  10.944   1.215 -0.6634 -0.5126 -0.1745
  565MOL0     C76176  10.395  10.900   1.191  0.0372  0.2819 -0.2348
  565MOL0     C76177  10.503  10.999   1.238 -0.3830 -1.0791 -0.1812
  565MOL0     C76178  10.641  10.967   1.180 -0.1927 -0.0216  0.5650
  565MOL0     C76179  10.742  11.076   1.210  0.1625 -0.2433 -0.4023
  565MOL0     C76180  10.889  11.030   1.169 -0.1098  0.7668 -0.3610
  565MOL0     C76181  10.997  11.131   1.159  0.2484 -0.2765 -0.4925
  565MOL0     C76182  11.012  11.242   1.264 -0.2294 -0.7087  0.4844
  565MOL0     C76183  11.154  11.307   1.253 -0.3701 -0.3235 -0.0067
  565MOL0    Cl76184  11.291  11.220   1.327 -0.0364 -0.2536 -0.1976
  565MOL0     C76185  10.034  10.902   1.137  0.4009 -0.1350  0.2067
  565MOL0     C76186   9.930  10.822   1.086  0.1279 -0.1446 -0.7059
  565MOL0     O76187   9.727  10.595   1.208  0.3246  0.6704  0.8098
  565MOL0     C76188   9.523  10.455   1.094 -0.5690  0.5588  0.2335
  565MOL0     C76189   9.431  10.366   1.040 -0.3767 -0.8953 -0.2757
  565MOL0     N76190   8.858  10.011   0.815  0.0393 -0.5598 -0.5791
  565MOL0     N76191   8.733  10.008   0.828  0.6917 -0.6648  1.1674
  565MOL0     C76192   7.484   9.949   0.340 -0.2878 -0.2198 -1.3145
  565MOL0     C76193   7.397   9.900   0.244 -0.2734 -0.3696 -0.3706
  565MOL0     C76194   7.192   9.800  -0.120  0.0370 -0.1304 -0.7159
  565MOL0     C76195   7.263   9.736  -0.220 -0.1892  0.2951 -0.2908
  565MOL0     C76196   7.195   9.665  -0.327 -0.0222 -0.2292  0.8287
  565MOL0     C76197   7.059   9.691  -0.341 -0.1010 -0.1622  0.5920
  565MOL0     O76198   6.976   9.638  -0.439 -0.3005  0.3431 -0.1070
  565MOL0     C76199   7.026   9.542  -0.541  0.2331  0.9416 -0.0083
  565MOL0     C76200   7.076   9.408  -0.480 -0.6503 -0.1447 -0.2698
  565MOL0     C76201   6.977   9.335  -0.379  0.0982  0.1872 -1.1731
  565MOL0     C76202   6.855   9.276  -0.449 -0.6800  0.4208  0.1174
  565MOL0     C76203   6.882   9.185  -0.563  0.6620  0.1615 -0.0556
  565MOL0     C76204   6.908   9.105  -0.646  0.5218  0.4577 -0.4679
  565MOL0     C76205   6.982   9.751  -0.237 -0.8163  0.2397  0.7110
  565MOL0     C76206   7.050   9.813  -0.128 -0.1516 -0.2028  0.1716
  565MOL0     C76207   6.967   9.872  -0.012 -0.3799  0.3784  0.3682
  565MOL0     H76208   7.607   9.761   0.023  1.0960  1.4164 -0.2850
  565MOL0     H76209   7.772   9.829   0.196 -0.4213 -0.3307 -1.7564
  565MOL0     H76210   7.599  10.049   0.558 -1.7046 -3.2546 -0.9415
  565MOL0     H76211   7.696   9.898   0.599  2.2610 -0.1793  1.0459
  565MOL0     H76212   7.779  10.089   0.716  0.5161 -0.3602  0.5791
  565MOL0     H76213   7.793  10.179   0.570 -0.6899  0.6113  1.5402
  565MOL0     H76214   7.956   9.997   0.484  0.0786  0.6925  0.1662
  565MOL0     H76215   7.932   9.915   0.639  0.3465 -2.1480 -2.7275
  565MOL0     H76216   8.047  10.200   0.638  2.5900 -0.9916 -0.3581
  565MOL0     H76217   8.023  10.076   0.766  2.8775 -0.2032  0.3042
  565MOL0     H76218   8.203   9.940   0.621  4.0709  0.0560  0.5825
  565MOL0     H76219   8.224  10.100   0.544  0.0763 -0.7776 -0.4669
  565MOL0     H76220   8.250  10.199   0.765 -1.9524  0.8662 -1.9194
  565MOL0     H76221   8.286  10.034   0.830 -0.8932 -0.0354 -0.3056
  565MOL0     H76222   8.441  10.144   0.588 -0.2697  1.4499  0.8562
  565MOL0     H76223   8.454   9.994   0.678 -2.1059  0.2121 -0.9113
  565MOL0     H76224   8.544  10.276   0.761  0.5661 -0.4747 -1.0091
  565MOL0     H76225   8.509  10.172   0.886  2.6106  0.0035  1.3262
  565MOL0     H76226   8.767  10.306   0.690  0.0059  0.1045  0.4383
  565MOL0     H76227   9.099  10.103   0.708 -1.5916 -2.3778  3.7175
  565MOL0     H76228   9.024  10.250   0.638 -0.7299  1.7047  0.7320
  565MOL0     H76229   9.125  10.361   0.799  0.2466 -1.3725 -2.7674
  565MOL0     H76230   8.971  10.328   0.868 -0.5248  0.5401 -2.3587
  565MOL0     H76231   9.058  10.147   1.005  0.9636  0.4054  1.7411
  565MOL0     H76232   9.152  10.292   1.035 -1.9389  1.8203 -1.8308
  565MOL0     H76233   9.240  10.060   0.851  2.6358  0.5374 -3.0835
  565MOL0     H76234   9.308  10.094   1.011 -2.5926  2.6137  2.5768
  565MOL0     H76235   9.560  10.303   0.739  3.3272 -0.5599  0.3811
  565MOL0     H76236   9.747  10.455   0.839 -0.0831  0.2570 -1.2855
  565MOL0     H76237  10.097  10.530   1.079  2.7804  0.3636  0.0553
  565MOL0     H76238  10.271  10.663   1.189  0.3738  0.5285  1.6495
  565MOL0     H76239  10.428  10.805   1.234  0.6421  0.3998 -0.4290
  565MOL0     H76240  10.398  10.894   1.082 -0.0266 -1.5166 -0.1618
  565MOL0     H76241  10.458  11.094   1.210 -0.9568 -0.4932  2.4141
  565MOL0     H76242  10.525  11.004   1.345 -0.5677 -3.7689  0.0678
  565MOL0     H76243  10.687  10.872   1.209  0.4932 -0.3161 -1.2818
  565MOL0     H76244  10.633  10.974   1.071 -2.4499 -0.5530  0.6498
  565MOL0     H76245  10.754  11.109   1.314 -4.3673  1.4135 -0.1863
  565MOL0     H76246  10.716  11.169   1.159 -0.4521  0.0509  0.4256
  565MOL0     H76247  10.884  10.980   1.072 -0.9766 -0.7261  0.4107
  565MOL0     H76248  10.919  10.955   1.243  0.2910  2.8022  1.6486
  565MOL0     H76249  11.087  11.070   1.170 -1.3409 -2.4008  2.0757
  565MOL0     H76250  10.986  11.185   1.065  0.5241  3.3019  1.3626
  565MOL0     H76251  10.978  11.221   1.366 -3.4775 -1.3806 -0.6113
  565MOL0     H76252  10.939  11.320   1.242 -2.5952 -3.1075 -0.7402
  565MOL0     H76253  11.172  11.321   1.146 -5.3314  0.8490 -0.9695
  565MOL0     H76254  11.144  11.408   1.295  3.7515 -0.3315  1.4967
  565MOL0     H76255  10.025  11.010   1.131  1.0115  0.2231  3.5897
  565MOL0     H76256   9.833  10.859   1.055 -0.8693 -0.2667  2.0092
  565MOL0     H76257   9.504  10.499   1.192  3.6726  0.7027  1.1687
  565MOL0     H76258   9.354  10.358   1.116  1.9864  2.6661  2.8633
  565MOL0     H76259   7.439  10.018   0.411  2.4677  1.7460 -1.3307
  565MOL0     H76260   7.291   9.916   0.261 -0.2016 -0.3318  0.0526
  565MOL0     H76261   7.370   9.743  -0.211  0.0322 -2.7219  0.6071
  565MOL0     H76262   7.265   9.619  -0.395  0.0829 -1.7745  1.9213
  565MOL0     H76263   7.108   9.585  -0.599 -0.1550  0.0028 -1.3098
  565MOL0     H76264   6.954   9.508  -0.617  0.9279 -1.2467  0.2590
  565MOL0     H76265   7.168   9.432  -0.426 -1.0674 -0.6313  0.6617
  565MOL0     H76266   7.108   9.346  -0.564  1.5359  0.4191  0.0746
  565MOL0     H76267   6.940   9.409  -0.308 -2.6175 -1.3947 -0.8135
  565MOL0     H76268   7.021   9.258  -0.315 -3.6489 -0.3007  1.0969
  565MOL0     H76269   6.802   9.213  -0.377 -0.9889 -0.8201 -1.1525
  565MOL0     H76270   6.777   9.348  -0.474 -1.3465 -0.8481 -1.5988
  565MOL0     H76271   6.932   9.031  -0.720 -1.8469 -0.4274 -0.4524
  565MOL0     H76272   6.876   9.764  -0.258 -0.4399 -0.8598 -2.5232
  565MOL0     H76273   7.013   9.843   0.083 -1.0083 -0.4821  0.4311
  565MOL0     H76274   6.952   9.979  -0.028 -2.0938  0.7159  3.4635
  565MOL0     H76275   6.862   9.841  -0.009 -0.3839 -0.0850 -2.3650
  566MOL0     O76276   9.604   8.827   6.323 -0.0125  0.1656 -0.7654
  566MOL0     C76277   9.587   8.930   6.260  0.2939 -0.0732  0.2156
  566MOL0     O76278   9.684   9.006   6.202 -0.4491 -0.4609 -0.1639
  566MOL0     C76279   9.815   8.978   6.218 -0.4104  0.6522 -0.8252
  566MOL0     C76280   9.895   8.990   6.110 -0.2320  0.3255 -0.2106
  566MOL0     C76281  10.027   8.969   6.119  0.6671  0.5709 -0.1236
  566MOL0     C76282  10.093   8.950   6.244  0.1112 -0.2309 -0.1260
  566MOL0     O76283  10.221   8.919   6.238 -0.2933 -0.6335  0.2703
  566MOL0     C76284  10.299   9.010   6.320  0.7953  0.1177 -0.1717
  566MOL0     C76285  10.447   8.972   6.313  0.1107 -0.0190  0.0940
  566MOL0     C76286  10.502   9.064   6.421 -0.4382 -0.0190 -0.1124
  566MOL0     C76287  10.653   9.064   6.431  0.1280  0.2153  0.2794
  566MOL0     C76288  10.707   9.193   6.511 -0.0948 -1.0365  0.2159
  566MOL0     C76289  10.843   9.182   6.570  0.0766  0.1702  0.2389
  566MOL0     C76290  10.884   9.309   6.634  0.2576 -0.2753  0.5553
  566MOL0     C76291  11.028   9.318   6.675 -0.5637  0.3593 -0.7090
  566MOL0     N76292  11.056   9.451   6.716 -0.2182  0.5930 -0.2645
  566MOL0     C76293  11.106   9.545   6.640 -1.4756 -0.5467  0.8290
  566MOL0     C76294  11.136   9.644   6.721  0.0810  0.0860  0.0107
  566MOL0     C76295  11.211   9.768   6.680  0.6077  0.4941 -0.0230
  566MOL0     C76296  11.345   9.779   6.744 -0.7235 -0.4612  0.0096
  566MOL0     C76297  11.336   9.790   6.901 -0.4286 -0.2994  0.2610
  566MOL0     C76298  11.483   9.805   6.951 -0.2892  0.3767  0.8555
  566MOL0     O76299  11.487   9.825   7.095  0.3632  0.0932  1.1740
  566MOL0     C76300  11.616   9.838   7.149  1.1677  0.8711 -0.5680
  566MOL0     C76301  11.626   9.854   7.293  0.6817  0.1557  0.7515
  566MOL0     C76302  11.747   9.873   7.353 -0.3505 -0.2845 -0.5309
  566MOL0     C76303  11.862   9.881   7.272 -1.1734  0.6435 -0.8596
  566MOL0     C76304  11.992   9.903   7.338 -0.4464  0.4299 -0.2817
  566MOL0     O76305  12.094   9.933   7.263 -0.4178  0.0479  0.1098
  566MOL0     C76306  12.218   9.972   7.302  0.0023 -0.5239 -0.1603
  566MOL0     C76307  12.274   9.924   7.416 -0.3949  0.6979 -0.2229
  566MOL0     C76308  12.415   9.957   7.448  0.3376 -0.2516 -0.7223
  566MOL0     C76309  12.485  10.038   7.366  0.4991 -1.1508 -0.4109
  566MOL0     O76310  12.611  10.102   7.394  0.0776  0.2511  0.5262
  566MOL0     C76311  12.637  10.119   7.534 -0.6367  0.4782  0.0128
  566MOL0     C76312  12.747  10.216   7.553  0.4223 -0.0093 -0.2897
  566MOL0     C76313  12.693  10.366   7.549  0.3794  0.9448 -0.4101
  566MOL0     C76314  12.806  10.467   7.548 -0.1150 -1.2277 -0.1036
  566MOL0     C76315  12.773  10.610   7.528  0.7646 -0.1732 -0.1118
  566MOL0     C76316  12.880  10.687   7.444  0.1536  0.6239 -0.4028
  566MOL0     C76317  12.895  10.837   7.468 -0.0934 -0.5143  0.3070
  566MOL0     C76318  13.021  10.883   7.386 -0.4112  0.5723 -0.4608
  566MOL0    Cl76319  13.103  11.036   7.448  0.1424 -0.1659  0.3440
  566MOL0     C76320  12.424  10.086   7.255  0.1230  0.7111 -0.2433
  566MOL0     C76321  12.293  10.060   7.222 -0.0161  0.5021  0.2304
  566MOL0     O76322  12.001   9.885   7.456  0.1239 -0.2975 -0.1254
  566MOL0     C76323  11.848   9.870   7.135  0.1846 -0.7650  0.3580
  566MOL0     C76324  11.728   9.848   7.069 -0.4267 -0.0300  0.6184
  566MOL0     N76325  11.097   9.609   6.852 -0.2412  0.1247  0.9403
  566MOL0     N76326  11.050   9.491   6.846  0.6330  0.4560  0.1714
  566MOL0     C76327  10.014   8.940   6.355  0.8591 -0.5969  0.1771
  566MOL0     C76328   9.871   8.955   6.345  0.4231  1.0204  0.5320
  566MOL0     C76329   9.446   8.972   6.252 -0.3168  0.2206  1.1216
  566MOL0     C76330   9.355   8.884   6.190  0.2755 -0.5496 -0.5721
  566MOL0     C76331   9.224   8.927   6.170  0.4084  0.7855 -0.6953
  566MOL0     C76332   9.177   9.053   6.200 -0.2850  0.0164 -0.4022
  566MOL0     O76333   9.045   9.068   6.180  0.2826 -0.0580  0.0325
  566MOL0     C76334   8.978   9.171   6.252 -0.1432  0.1128  0.4809
  566MOL0     C76335   8.832   9.149   6.251  0.1958  0.3813 -0.5482
  566MOL0     C76336   8.796   9.016   6.328 -0.2669 -0.0769 -0.0663
  566MOL0     C76337   8.658   8.960   6.296  0.5605 -0.4321  0.6893
  566MOL0     C76338   8.554   9.046   6.378  0.2885 -0.2074  0.2890
  566MOL0     C76339   8.487   9.100   6.455 -0.1892  0.4832  0.0156
  566MOL0     C76340   9.271   9.145   6.256  0.2174 -0.4341 -0.7389
  566MOL0     C76341   9.403   9.108   6.277 -0.0014  0.6295 -1.2228
  566MOL0     C76342   9.504   9.220   6.317  0.1610 -0.2031 -0.4736
  566MOL0     H76343   9.844   9.004   6.015 -0.6253  2.6661  0.2784
  566MOL0     H76344  10.094   8.981   6.035 -1.1104 -3.5742 -2.3811
  566MOL0     H76345  10.294   9.113   6.284  3.4092  0.3576 -0.0318
  566MOL0     H76346  10.265   8.993   6.423  2.9115 -0.3183  0.5165
  566MOL0     H76347  10.499   8.987   6.218 -1.0411 -0.5557 -0.6357
  566MOL0     H76348  10.449   8.863   6.329 -3.2649 -0.3318 -1.0071
  566MOL0     H76349  10.459   9.037   6.518  1.2952  2.3389  1.4259
  566MOL0     H76350  10.470   9.169   6.414 -3.4178 -0.6406  1.9812
  566MOL0     H76351  10.684   8.971   6.481 -1.0137 -0.4759 -0.2706
  566MOL0     H76352  10.705   9.076   6.336  1.1683  0.9294  0.9052
  566MOL0     H76353  10.707   9.286   6.453  2.0770 -1.5242 -0.7055
  566MOL0     H76354  10.632   9.214   6.587 -0.8489 -1.4342 -0.4095
  566MOL0     H76355  10.837   9.100   6.643  0.8189 -0.1454 -0.0393
  566MOL0     H76356  10.914   9.153   6.492 -0.2322 -2.2435  0.7627
  566MOL0     H76357  10.833   9.326   6.730 -3.4449 -2.4522 -0.8245
  566MOL0     H76358  10.868   9.399   6.574  0.8996 -0.4509  0.1018
  566MOL0     H76359  11.039   9.256   6.765  3.6801  1.9381  0.0993
  566MOL0     H76360  11.102   9.278   6.604 -1.1058 -0.5887 -0.7591
  566MOL0     H76361  11.112   9.534   6.532 -1.2758 -0.7911  0.8651
  566MOL0     H76362  11.199   9.773   6.571 -1.8656  1.0235  0.2189
  566MOL0     H76363  11.150   9.851   6.716  1.3409  1.8372 -1.7190
  566MOL0     H76364  11.402   9.689   6.720 -1.3521 -1.1891  1.1251
  566MOL0     H76365  11.405   9.853   6.692  1.7788 -2.1637  0.2903
  566MOL0     H76366  11.284   9.709   6.954 -3.7693  1.4004 -0.1322
  566MOL0     H76367  11.279   9.877   6.935 -1.9281 -0.7377 -0.9888
  566MOL0     H76368  11.530   9.879   6.885 -1.3154  1.4134  1.2564
  566MOL0     H76369  11.543   9.716   6.933  0.2865  1.0587 -0.8204
  566MOL0     H76370  11.531   9.860   7.346  0.2252 -0.8411  0.0811
  566MOL0     H76371  11.746   9.892   7.460  0.0828 -2.2160 -0.1349
  566MOL0     H76372  12.227   9.843   7.472 -0.2473  0.6703 -0.1392
  566MOL0     H76373  12.460   9.901   7.530 -1.7443  0.4976  1.0328
  566MOL0     H76374  12.548  10.150   7.590  0.7014  1.5482  1.6370
  566MOL0     H76375  12.663  10.020   7.572  0.5880  0.4070 -0.9317
  566MOL0     H76376  12.789  10.192   7.651  2.1244 -2.3367 -1.5008
  566MOL0     H76377  12.818  10.204   7.470 -1.1295  0.0333 -1.6789
  566MOL0     H76378  12.630  10.369   7.459 -2.4284 -2.1553  1.2446
  566MOL0     H76379  12.628  10.380   7.636 -1.0202 -0.8282 -1.1097
  566MOL0     H76380  12.876  10.446   7.466 -1.8464 -1.4347 -1.5942
  566MOL0     H76381  12.861  10.462   7.642 -0.3764 -0.1337  0.1211
  566MOL0     H76382  12.755  10.660   7.624  1.0192 -0.8087  0.2754
  566MOL0     H76383  12.682  10.621   7.469  1.8029  0.2974 -1.6777
  566MOL0     H76384  12.980  10.651   7.468 -0.6606  0.0780  2.6327
  566MOL0     H76385  12.867  10.664   7.338 -1.2620 -1.7925  0.2241
  566MOL0     H76386  12.900  10.861   7.575 -3.3970  1.9986  0.0658
  566MOL0     H76387  12.805  10.879   7.424  0.9651 -0.7349 -2.2111
  566MOL0     H76388  13.100  10.811   7.407 -0.0383  1.8078  2.9464
  566MOL0     H76389  13.003  10.895   7.279 -2.2241 -0.1756 -0.2738
  566MOL0     H76390  12.477  10.163   7.201 -2.5777  3.3313  0.5598
  566MOL0     H76391  12.253  10.102   7.130  0.4812  0.8991  0.1923
  566MOL0     H76392  11.933   9.892   7.072  0.7311 -1.1822  0.9261
  566MOL0     H76393  11.719   9.844   6.961 -2.4820 -0.5532  0.7649
  566MOL0     H76394  10.063   8.927   6.451  1.1402  0.7542  0.2414
  566MOL0     H76395   9.824   8.952   6.443 -0.5214 -1.0653  0.0572
  566MOL0     H76396   9.360   8.782   6.153  0.4851  0.4355 -3.5026
  566MOL0     H76397   9.154   8.847   6.147 -1.6083  1.6923  1.8834
  566MOL0     H76398   9.009   9.262   6.201  0.7455  0.8125  2.1942
  566MOL0     H76399   9.006   9.174   6.358  0.0333 -0.7196  0.4631
  566MOL0     H76400   8.803   9.141   6.146  0.3237  1.5535 -0.6847
  566MOL0     H76401   8.779   9.235   6.292  0.4425  0.0246  0.5609
  566MOL0     H76402   8.812   9.022   6.436  0.6089 -3.1255  0.0756
  566MOL0     H76403   8.859   8.935   6.293 -0.0076  0.0505  0.1049
  566MOL0     H76404   8.636   8.963   6.189 -1.0815 -0.9343  0.9943
  566MOL0     H76405   8.647   8.857   6.329 -0.2689 -1.0768 -1.4281
  566MOL0     H76406   8.437   9.151   6.536  0.6316 -0.2524  1.0180
  566MOL0     H76407   9.240   9.245   6.286  0.0073 -0.3032 -1.3771
  566MOL0     H76408   9.584   9.177   6.377 -0.8408 -0.2827  0.8641
  566MOL0     H76409   9.540   9.266   6.224 -0.2422 -0.9026 -0.9820
  566MOL0     H76410   9.457   9.298   6.379  0.2836 -0.3498 -0.1956
  567MOL0     O76411   9.523   1.547   3.276 -0.5978 -0.0182 -0.4317
  567MOL0     C76412   9.431   1.467   3.286  0.0316  0.1875 -0.7508
  567MOL0     O76413   9.436   1.341   3.355  0.6963 -0.2526 -0.3205
  567MOL0     C76414   9.561   1.311   3.397 -0.1251  0.6325 -0.4448
  567MOL0     C76415   9.597   1.318   3.533 -0.1942  0.3355 -0.4086
  567MOL0     C76416   9.725   1.278   3.567  0.7447  0.3103 -0.0265
  567MOL0     C76417   9.814   1.245   3.472 -0.4836  0.2817  0.4822
  567MOL0     O76418   9.946   1.220   3.491 -0.1324  0.3003 -0.1559
  567MOL0     C76419   9.991   1.178   3.621 -0.2118 -0.4828 -0.0060
  567MOL0     C76420  10.114   1.082   3.602  0.3696  0.3584  0.0977
  567MOL0     C76421  10.237   1.137   3.531 -0.1675 -0.5806 -0.3780
  567MOL0     C76422  10.287   1.261   3.604 -0.1751 -0.7274 -0.1821
  567MOL0     C76423  10.438   1.268   3.594 -0.0728  0.0949 -0.2880
  567MOL0     C76424  10.492   1.385   3.668  0.2106 -0.4360  0.2507
  567MOL0     C76425  10.629   1.376   3.718 -0.3252 -0.6691  0.4521
  567MOL0     C76426  10.690   1.524   3.734 -0.7172 -0.2087 -0.6463
  567MOL0     N76427  10.795   1.524   3.841  0.6411 -0.1893 -0.3699
  567MOL0     C76428  10.927   1.484   3.822  0.5382 -0.4543  0.0150
  567MOL0     C76429  10.984   1.505   3.943  0.8809  0.5056 -0.3688
  567MOL0     C76430  11.124   1.483   3.983  0.3678  0.0320  0.0593
  567MOL0     C76431  11.170   1.343   3.980 -0.5325  0.7177  0.0365
  567MOL0     C76432  11.170   1.292   3.835 -1.0188 -0.1252 -0.2275
  567MOL0     C76433  11.292   1.199   3.805  0.5923 -0.0749 -0.1300
  567MOL0     O76434  11.412   1.266   3.844 -0.2067 -0.0180 -0.3247
  567MOL0     C76435  11.529   1.189   3.860  0.1380  1.0753 -0.3401
  567MOL0     C76436  11.612   1.247   3.957  0.2616  0.3069 -0.2879
  567MOL0     C76437  11.728   1.191   3.985 -0.7938  0.2859 -0.9447
  567MOL0     C76438  11.770   1.067   3.925 -0.7336 -0.1963  0.9366
  567MOL0     C76439  11.886   0.991   3.973  0.0236  0.2614 -0.9577
  567MOL0     O76440  11.944   1.031   4.097  0.1463  0.3692 -0.0148
  567MOL0     C76441  12.063   0.982   4.148  0.1914 -0.9664  0.4122
  567MOL0     C76442  12.100   1.047   4.264  0.5594  0.6781 -0.1895
  567MOL0     C76443  12.216   0.999   4.336 -0.3410 -0.0014  0.2964
  567MOL0     C76444  12.297   0.885   4.285 -1.1523  0.4512  0.0761
  567MOL0     O76445  12.397   0.844   4.370  0.2931 -0.0455 -1.2031
  567MOL0     C76446  12.422   0.704   4.399 -0.2680  0.2050 -0.5253
  567MOL0     C76447  12.515   0.637   4.294  0.3438 -0.2656 -0.4636
  567MOL0     C76448  12.656   0.680   4.316  0.3804  0.5356  0.1138
  567MOL0     C76449  12.764   0.650   4.201  0.5735  0.4599 -0.4725
  567MOL0     C76450  12.881   0.750   4.208 -0.4265  0.4238  0.4778
  567MOL0     C76451  12.978   0.711   4.326 -0.7833 -0.4787  0.3852
  567MOL0     C76452  13.090   0.821   4.318 -0.2590 -0.6384 -0.4847
  567MOL0     C76453  13.192   0.802   4.431  0.3306  0.2477  1.2513
  567MOL0    Cl76454  13.131   0.850   4.599  0.0575  0.2482  0.0515
  567MOL0     C76455  12.259   0.835   4.166  0.5062  0.7234 -0.6987
  567MOL0     C76456  12.150   0.885   4.103  0.4018  0.3705  0.6836
  567MOL0     O76457  11.925   0.896   3.907  0.0489  0.3845  0.8316
  567MOL0     C76458  11.686   1.012   3.835  0.0890 -0.1286  0.0595
  567MOL0     C76459  11.565   1.058   3.805  0.4845 -0.3391 -0.5936
  567MOL0     N76460  10.895   1.563   4.030  0.8647 -0.5324 -0.3589
  567MOL0     N76461  10.793   1.594   3.960 -0.4474  0.3964 -0.6800
  567MOL0     C76462   9.776   1.236   3.344 -0.1028  0.4951 -0.8326
  567MOL0     C76463   9.648   1.272   3.297 -1.1368  0.9692 -1.3067
  567MOL0     C76464   9.316   1.477   3.200 -0.2811  0.8940  0.5728
  567MOL0     C76465   9.243   1.363   3.162  0.0366  0.4519 -0.0160
  567MOL0     C76466   9.136   1.367   3.072  0.9106 -0.0219  0.3889
  567MOL0     C76467   9.090   1.494   3.025 -1.0821 -0.9189 -0.3484
  567MOL0     O76468   8.979   1.494   2.945 -0.2927 -0.1185 -0.1047
  567MOL0     C76469   8.880   1.583   2.986  0.1661 -0.4418 -1.2289
  567MOL0     C76470   8.817   1.553   3.126 -0.1771  0.2725  0.6665
  567MOL0     C76471   8.732   1.668   3.170  0.5334  0.1315 -1.0295
  567MOL0     C76472   8.616   1.618   3.259  0.9678 -0.0078  0.6203
  567MOL0     C76473   8.497   1.569   3.176 -0.1633 -0.4441 -0.5378
  567MOL0     C76474   8.409   1.498   3.124 -0.3918 -1.0281 -0.3874
  567MOL0     C76475   9.152   1.612   3.070 -0.1256 -0.2124  0.2790
  567MOL0     C76476   9.265   1.601   3.154 -0.7689  0.8960 -0.1894
  567MOL0     C76477   9.325   1.734   3.196 -0.1986  0.3953  0.8485
  567MOL0     H76478   9.525   1.356   3.604 -1.4847  0.2470 -1.6312
  567MOL0     H76479   9.766   1.283   3.668  3.1713 -2.2586 -0.7448
  567MOL0     H76480  10.026   1.262   3.681 -0.2472 -0.2463 -0.3183
  567MOL0     H76481   9.908   1.131   3.675 -0.2003 -0.2764  0.1967
  567MOL0     H76482  10.077   0.990   3.556 -1.3670  1.1386 -0.1850
  567MOL0     H76483  10.148   1.057   3.703 -0.1680 -0.1772  0.1531
  567MOL0     H76484  10.219   1.154   3.425  0.6244 -1.2687 -0.6275
  567MOL0     H76485  10.312   1.057   3.536  1.1540  0.5882 -0.9488
  567MOL0     H76486  10.251   1.353   3.557  1.8473  0.3058  0.1805
  567MOL0     H76487  10.258   1.253   3.710  2.1173 -3.1536  0.3699
  567MOL0     H76488  10.471   1.179   3.649 -0.2391  0.4120  0.3312
  567MOL0     H76489  10.466   1.259   3.489 -2.5290  2.8804 -1.3139
  567MOL0     H76490  10.482   1.468   3.598  1.7622 -0.3891  0.0430
  567MOL0     H76491  10.426   1.419   3.749 -1.7241  3.9221 -2.8048
  567MOL0     H76492  10.695   1.324   3.648  2.2234 -0.2937  2.4038
  567MOL0     H76493  10.646   1.308   3.802  2.9031 -1.5056 -0.7191
  567MOL0     H76494  10.744   1.566   3.649  0.5682  1.5185  0.9500
  567MOL0     H76495  10.612   1.591   3.769 -0.1940 -0.6536  1.5681
  567MOL0     H76496  10.980   1.443   3.737  2.4688  0.5870  0.6566
  567MOL0     H76497  11.195   1.550   3.933  0.0703 -0.3334 -0.8643
  567MOL0     H76498  11.140   1.504   4.090  2.3156 -0.1567 -0.1537
  567MOL0     H76499  11.269   1.345   4.026  0.6914 -0.0155 -2.3573
  567MOL0     H76500  11.099   1.288   4.042 -1.6942  1.9145 -0.1799
  567MOL0     H76501  11.176   1.373   3.761 -1.3117 -1.5277 -1.8409
  567MOL0     H76502  11.077   1.236   3.820 -1.5345  0.2041  1.4950
  567MOL0     H76503  11.301   1.182   3.698 -0.6914  2.2489 -0.6604
  567MOL0     H76504  11.270   1.108   3.862  0.6053  1.0820  1.8376
  567MOL0     H76505  11.578   1.337   4.007  0.0239  0.8715 -1.4358
  567MOL0     H76506  11.779   1.239   4.068 -0.3212 -1.1049 -0.3963
  567MOL0     H76507  12.033   1.116   4.313  0.8694  0.3296  0.7624
  567MOL0     H76508  12.238   1.042   4.433 -0.6499  0.1802  0.2862
  567MOL0     H76509  12.456   0.696   4.503 -4.9300 -1.2649  1.1414
  567MOL0     H76510  12.333   0.640   4.394  0.1057 -0.3688  0.1386
  567MOL0     H76511  12.505   0.529   4.310  3.8016 -0.5869  0.2349
  567MOL0     H76512  12.487   0.649   4.188  0.8003 -1.2781 -0.7102
  567MOL0     H76513  12.657   0.786   4.341  0.8614  1.8054 -4.4129
  567MOL0     H76514  12.686   0.624   4.405  1.3014  1.0797  0.1528
  567MOL0     H76515  12.713   0.676   4.107 -1.7038  1.0004  0.8394
  567MOL0     H76516  12.803   0.549   4.208  2.3896  0.9406 -2.4454
  567MOL0     H76517  12.836   0.850   4.217 -1.2378  0.0746  0.4466
  567MOL0     H76518  12.938   0.747   4.115 -0.2198 -4.4748  0.4919
  567MOL0     H76519  12.929   0.695   4.423 -3.6569 -2.0079 -1.1755
  567MOL0     H76520  13.021   0.613   4.305 -0.5422 -0.7549  2.0605
  567MOL0     H76521  13.050   0.922   4.329  1.1795 -0.0454 -0.5384
  567MOL0     H76522  13.140   0.812   4.222  1.0199  0.2181  0.0793
  567MOL0     H76523  13.211   0.695   4.436 -1.4912 -0.0575  2.9893
  567MOL0     H76524  13.286   0.849   4.401  1.1410 -2.2372 -0.4201
  567MOL0     H76525  12.302   0.753   4.110 -2.5295 -0.7032 -1.1445
  567MOL0     H76526  12.126   0.820   4.020  2.2665  2.3218 -1.5079
  567MOL0     H76527  11.705   0.909   3.807  0.0710 -1.1355  3.4194
  567MOL0     H76528  11.509   0.997   3.735 -1.2308  0.6378 -0.1186
  567MOL0     H76529   9.845   1.191   3.273  0.4311  0.2072 -0.1388
  567MOL0     H76530   9.612   1.258   3.196 -0.5923 -1.7423 -1.2197
  567MOL0     H76531   9.287   1.266   3.181  3.9983  1.9476 -0.5777
  567MOL0     H76532   9.089   1.275   3.040  3.5602 -1.0312 -0.9332
  567MOL0     H76533   8.799   1.581   2.912 -1.9398  2.5576  0.7316
  567MOL0     H76534   8.909   1.688   2.984  0.7909 -0.6238 -1.9263
  567MOL0     H76535   8.888   1.523   3.204  1.2758  0.3523 -0.5840
  567MOL0     H76536   8.758   1.466   3.100  2.0916 -0.2364 -3.7868
  567MOL0     H76537   8.692   1.729   3.088  0.9800  1.6544 -0.1550
  567MOL0     H76538   8.798   1.724   3.236  0.3714 -0.1826 -0.5978
  567MOL0     H76539   8.652   1.531   3.314  2.3522  0.1444 -0.0244
  567MOL0     H76540   8.575   1.689   3.332  1.9344  1.9884 -0.6917
  567MOL0     H76541   8.329   1.434   3.092 -0.2842 -1.1044 -0.5075
  567MOL0     H76542   9.106   1.702   3.030 -1.6153 -1.4864 -0.9689
  567MOL0     H76543   9.410   1.759   3.131 -0.4477 -1.2676 -0.1743
  567MOL0     H76544   9.258   1.820   3.192 -0.1857  0.4269  1.2870
  567MOL0     H76545   9.343   1.731   3.304 -1.7276 -0.9631  1.0989
  568MOL0     O76546   8.765   0.235  11.048 -0.2013  0.2309  0.1259
  568MOL0     C76547   8.818   0.131  11.076  0.6719 -0.1548  0.1050
  568MOL0     O76548   8.757   0.011  11.063 -0.4224 -0.5088  0.3422
  568MOL0     C76549   8.640   0.010  10.992 -0.2877 -0.7421  0.7781
  568MOL0     C76550   8.509  -0.017  11.051  0.1647  0.0297 -0.6317
  568MOL0     C76551   8.393   0.003  10.976  0.1905  0.0345 -0.3690
  568MOL0     C76552   8.400  -0.007  10.838  0.3077 -0.5341 -0.3623
  568MOL0     O76553   8.290  -0.036  10.758 -0.4746 -0.3659  0.2214
  568MOL0     C76554   8.157  -0.020  10.814 -0.0747 -0.2984  0.7599
  568MOL0     C76555   8.063  -0.057  10.701 -0.6445  0.3518  0.0214
  568MOL0     C76556   7.921  -0.004  10.733  0.6553 -0.0916  0.1803
  568MOL0     C76557   7.824   0.022  10.612  0.0285 -0.2061  0.0635
  568MOL0     C76558   7.674   0.013  10.657  0.3061 -0.6612 -0.2165
  568MOL0     C76559   7.632   0.145  10.739 -0.3973 -0.5320  0.5177
  568MOL0     C76560   7.476   0.135  10.770 -0.4042 -0.7127 -0.1601
  568MOL0     C76561   7.452   0.021  10.873  0.8476 -0.2162  0.9798
  568MOL0     N76562   7.318   0.014  10.916 -0.7181  0.9171 -0.1166
  568MOL0     C76563   7.262   0.087  11.020 -0.5615  0.0818  0.3486
  568MOL0     C76564   7.132   0.044  11.027  0.0751  0.5717  0.1513
  568MOL0     C76565   7.020   0.070  11.130 -0.7642 -0.2467  0.6678
  568MOL0     C76566   6.950   0.198  11.101  1.2179 -0.0872 -1.0929
  568MOL0     C76567   6.875   0.260  11.214  0.2498 -0.5968 -0.0770
  568MOL0     C76568   6.775   0.173  11.294  0.2764  0.3775  0.0015
  568MOL0     O76569   6.847   0.079  11.373 -0.3302 -0.0125  0.0837
  568MOL0     C76570   6.778  -0.035  11.423  1.7124 -0.1433 -0.8184
  568MOL0     C76571   6.828  -0.170  11.409 -1.2307 -0.7070  0.0163
  568MOL0     C76572   6.770  -0.281  11.476 -0.2988 -0.1310  0.2014
  568MOL0     C76573   6.660  -0.262  11.560  0.2614 -0.1208  0.7996
  568MOL0     C76574   6.584  -0.374  11.626 -0.7149  0.3136  0.7601
  568MOL0     O76575   6.466  -0.350  11.681  0.4971  0.4997 -0.2835
  568MOL0     C76576   6.411  -0.432  11.776  0.5852  0.9197 -0.5352
  568MOL0     C76577   6.484  -0.502  11.877  1.0474  0.2335 -0.8329
  568MOL0     C76578   6.419  -0.595  11.961 -0.2585  0.0853 -0.4264
  568MOL0     C76579   6.284  -0.623  11.946  1.2250 -0.2165 -0.1732
  568MOL0     O76580   6.209  -0.702  12.030  0.1859  0.5011  0.6811
  568MOL0     C76581   6.264  -0.796  12.118  0.3921 -0.7482 -0.1130
  568MOL0     C76582   6.149  -0.889  12.166 -0.0612 -0.1162 -0.3484
  568MOL0     C76583   6.202  -0.998  12.254  0.6111  0.3236 -0.2908
  568MOL0     C76584   6.217  -0.955  12.393  0.3424  0.0328 -0.0895
  568MOL0     C76585   6.285  -1.060  12.486  0.1761  0.3201 -0.4968
  568MOL0     C76586   6.423  -1.082  12.448 -0.2164  0.5850 -0.4219
  568MOL0     C76587   6.494  -1.162  12.559 -0.3588 -0.6361  0.7107
  568MOL0     C76588   6.457  -1.308  12.553 -0.2341  0.6413  0.7654
  568MOL0    Cl76589   6.532  -1.384  12.409  0.0738 -0.2029  0.2240
  568MOL0     C76590   6.209  -0.532  11.865  0.3251  0.2153  0.6564
  568MOL0     C76591   6.266  -0.438  11.779 -0.2567  0.3531 -0.5918
  568MOL0     O76592   6.635  -0.486  11.614 -0.1372  0.4857 -0.2202
  568MOL0     C76593   6.613  -0.133  11.572  0.0729  0.5139  0.8557
  568MOL0     C76594   6.659  -0.023  11.496 -0.3238 -0.1464  0.2215
  568MOL0     N76595   7.117  -0.052  10.932 -0.5348 -0.1127  0.2816
  568MOL0     N76596   7.229  -0.069  10.867  1.3463 -0.3623  0.6064
  568MOL0     C76597   8.526  -0.012  10.772 -0.2518 -0.0775 -0.7447
  568MOL0     C76598   8.644   0.004  10.846 -0.3524 -0.1663 -0.7692
  568MOL0     C76599   8.962   0.131  11.119  0.1139 -0.7477  0.2877
  568MOL0     C76600   9.013   0.234  11.207 -0.0134  0.5341  0.2321
  568MOL0     C76601   9.141   0.232  11.259  0.5390  0.3593 -0.4548
  568MOL0     C76602   9.233   0.138  11.216 -0.5060 -0.4790 -0.4398
  568MOL0     O76603   9.364   0.156  11.255 -0.4655 -0.0074 -0.1687
  568MOL0     C76604   9.439   0.234  11.162 -0.5092 -0.3151  0.1131
  568MOL0     C76605   9.409   0.379  11.174 -0.5157  0.4179  0.6942
  568MOL0     C76606   9.437   0.449  11.308 -0.1909  0.5297 -0.3931
  568MOL0     C76607   9.375   0.590  11.304 -0.5244  0.2083 -0.8894
  568MOL0     C76608   9.472   0.694  11.272  0.2848 -0.8802 -0.8130
  568MOL0     C76609   9.546   0.785  11.248 -0.0972  0.5020 -0.1415
  568MOL0     C76610   9.192   0.030  11.128  0.0863 -0.3607  0.0361
  568MOL0     C76611   9.057   0.023  11.086  0.9935 -0.0249 -0.0855
  568MOL0     C76612   9.023  -0.085  10.990 -0.9231  0.1763 -0.1198
  568MOL0     H76613   8.499  -0.025  11.159  2.5236  1.1265 -0.2646
  568MOL0     H76614   8.293   0.013  11.017 -0.5733  2.5920 -2.5305
  568MOL0     H76615   8.133  -0.087  10.897  0.0366 -1.5130 -0.1658
  568MOL0     H76616   8.147   0.087  10.836  0.2822  0.6392 -2.9688
  568MOL0     H76617   8.071  -0.166  10.706  3.3764  0.4341 -1.1979
  568MOL0     H76618   8.098  -0.013  10.608  0.2396  1.8727  1.0284
  568MOL0     H76619   7.915   0.088  10.791  1.0277 -0.2199  0.4268
  568MOL0     H76620   7.868  -0.082  10.788 -3.0206  0.0807 -2.7417
  568MOL0     H76621   7.848   0.120  10.569  3.8229 -1.3692 -0.8862
  568MOL0     H76622   7.853  -0.065  10.553 -0.8630  0.0686 -0.8008
  568MOL0     H76623   7.614   0.007  10.566  2.7441  1.1082 -2.0874
  568MOL0     H76624   7.648  -0.080  10.708  0.9957  0.1294  1.6434
  568MOL0     H76625   7.686   0.150  10.834  3.4430  1.8285 -1.5585
  568MOL0     H76626   7.671   0.230  10.683  1.4287 -0.6484  1.5314
  568MOL0     H76627   7.415   0.127  10.679 -0.2834  1.6667 -0.5023
  568MOL0     H76628   7.439   0.221  10.826 -2.0696 -1.0142 -0.7382
  568MOL0     H76629   7.469  -0.077  10.827  2.2998  0.0959  0.8065
  568MOL0     H76630   7.522   0.031  10.956  0.4770 -0.0524  1.2720
  568MOL0     H76631   7.300   0.160  11.091  1.3200 -2.3392  2.0155
  568MOL0     H76632   6.944  -0.007  11.146 -0.1867 -1.1451 -0.7157
  568MOL0     H76633   7.073   0.068  11.226  1.7244  2.4662 -0.4925
  568MOL0     H76634   7.019   0.273  11.060  4.1258 -0.1463  3.0044
  568MOL0     H76635   6.871   0.177  11.029 -0.8941  2.4007  0.3266
  568MOL0     H76636   6.816   0.334  11.160 -2.6806 -2.9179 -0.2915
  568MOL0     H76637   6.941   0.311  11.286 -3.3316  1.3785  2.0821
  568MOL0     H76638   6.714   0.112  11.226  1.6881 -3.5054  1.8883
  568MOL0     H76639   6.713   0.232  11.361  1.2502  0.8429  0.5144
  568MOL0     H76640   6.912  -0.196  11.345  0.7223 -0.2272  2.2514
  568MOL0     H76641   6.819  -0.374  11.447 -1.3528 -0.8061  0.5110
  568MOL0     H76642   6.589  -0.479  11.893  0.9121 -0.0931  0.6443
  568MOL0     H76643   6.467  -0.646  12.043 -2.6287 -0.5895  0.6037
  568MOL0     H76644   6.339  -0.849  12.059  2.0017  0.7620  0.5064
  568MOL0     H76645   6.308  -0.735  12.197 -0.5648  1.3387 -1.1114
  568MOL0     H76646   6.067  -0.842  12.222 -1.4750 -0.3097 -2.1799
  568MOL0     H76647   6.096  -0.938  12.085 -0.8797 -2.1521  1.3245
  568MOL0     H76648   6.144  -1.091  12.255  1.2028 -0.1072 -2.3211
  568MOL0     H76649   6.295  -1.041  12.216  1.8738  1.6216  1.2085
  568MOL0     H76650   6.121  -0.926  12.437  0.5378 -1.0184  1.0828
  568MOL0     H76651   6.285  -0.870  12.395 -0.3323  0.6076 -0.8739
  568MOL0     H76652   6.228  -1.153  12.483  1.3199 -0.3609 -2.2009
  568MOL0     H76653   6.287  -1.018  12.587  1.4655  2.1870 -1.2334
  568MOL0     H76654   6.436  -1.131  12.351 -1.9652 -0.0600 -0.3709
  568MOL0     H76655   6.476  -0.986  12.444 -1.7475  1.5502  0.8761
  568MOL0     H76656   6.467  -1.110  12.651 -1.3660 -1.9294  1.1806
  568MOL0     H76657   6.604  -1.156  12.560 -0.4457  1.7814  1.3388
  568MOL0     H76658   6.493  -1.353  12.646  0.8903  1.1681  0.6020
  568MOL0     H76659   6.352  -1.334  12.543 -0.1599  0.7824 -0.6880
  568MOL0     H76660   6.103  -0.554  11.876  0.2598  0.1621 -0.0542
  568MOL0     H76661   6.209  -0.375  11.711 -1.5120 -1.4240 -1.2403
  568MOL0     H76662   6.530  -0.105  11.636 -0.8074 -0.2866  0.0989
  568MOL0     H76663   6.603   0.069  11.507 -0.2963 -0.2683  1.4890
  568MOL0     H76664   8.527  -0.021  10.664  0.8159  1.8860 -0.9432
  568MOL0     H76665   8.736  -0.001  10.789  0.5452 -1.1654  0.7175
  568MOL0     H76666   8.943   0.306  11.246  0.5242  0.8894  0.5585
  568MOL0     H76667   9.151   0.308  11.335 -3.9273 -0.7038  1.5224
  568MOL0     H76668   9.424   0.200  11.059  2.2481  1.7585 -1.0835
  568MOL0     H76669   9.543   0.204  11.179 -1.1778 -4.0343 -1.5346
  568MOL0     H76670   9.301   0.381  11.157 -0.4986  0.1672  0.5547
  568MOL0     H76671   9.464   0.427  11.093  2.4581 -2.2277  0.9601
  568MOL0     H76672   9.543   0.446  11.336 -0.3475  2.6421  0.6176
  568MOL0     H76673   9.394   0.388  11.389  0.1978  0.9414  0.1353
  568MOL0     H76674   9.281   0.600  11.249 -0.6256  0.7815 -0.6186
  568MOL0     H76675   9.355   0.605  11.411 -1.6395 -0.0225 -1.0523
  568MOL0     H76676   9.611   0.867  11.225  1.7745 -1.4022 -2.2062
  568MOL0     H76677   9.268  -0.035  11.088 -0.6592 -0.7433 -0.8107
  568MOL0     H76678   8.958  -0.160  11.035  2.7048 -2.5782  1.0525
  568MOL0     H76679   8.976  -0.044  10.900 -0.7231 -1.2119 -0.8826
  568MOL0     H76680   9.115  -0.135  10.956  0.0355  0.6557  1.6620
  569MOL0     O76681   8.102   7.634  11.176  0.1004 -0.0797 -0.0401
  569MOL0     C76682   8.118   7.743  11.121 -0.8708 -0.4312  0.0205
  569MOL0     O76683   8.243   7.790  11.080 -0.1554  0.2963  0.2879
  569MOL0     C76684   8.359   7.716  11.084 -0.2850 -1.1821 -0.1133
  569MOL0     C76685   8.402   7.608  11.164  0.3996 -0.0154 -0.4025
  569MOL0     C76686   8.531   7.561  11.170  0.1038 -0.4969  0.7600
  569MOL0     C76687   8.630   7.616  11.089 -0.5260 -0.0502  0.3085
  569MOL0     O76688   8.763   7.576  11.075 -0.6770 -0.1865  0.8509
  569MOL0     C76689   8.814   7.462  11.139  0.7351 -0.0043  0.2231
  569MOL0     C76690   8.896   7.507  11.252  0.2346 -0.3149 -0.0694
  569MOL0     C76691   8.915   7.390  11.352 -0.4226  0.5614  0.4494
  569MOL0     C76692   8.944   7.237  11.295  0.1962 -0.5608  0.2746
  569MOL0     C76693   8.968   7.132  11.408  0.3597  0.2093  0.2784
  569MOL0     C76694   8.835   7.096  11.470 -0.6175 -0.1545  0.2924
  569MOL0     C76695   8.847   7.074  11.618 -0.3346 -0.0437 -0.0005
  569MOL0     C76696   8.708   7.021  11.670 -0.2780 -0.5093  0.2875
  569MOL0     N76697   8.681   6.886  11.632  0.7182 -0.0022 -0.7587
  569MOL0     C76698   8.566   6.834  11.571 -0.6229  0.3980  0.3672
  569MOL0     C76699   8.557   6.701  11.606 -0.5048  0.3254  0.1356
  569MOL0     C76700   8.462   6.608  11.554  0.5796 -0.8054 -0.5123
  569MOL0     C76701   8.455   6.470  11.614 -0.4393 -0.5036 -0.5463
  569MOL0     C76702   8.333   6.393  11.580  0.0721 -0.8427  1.2047
  569MOL0     C76703   8.263   6.400  11.445  0.3954 -0.0946  0.4198
  569MOL0     O76704   8.151   6.301  11.447 -0.6145 -0.0032 -0.1724
  569MOL0     C76705   8.036   6.312  11.372 -0.8733 -0.3406 -0.6651
  569MOL0     C76706   8.008   6.425  11.290 -0.6353 -0.1815  0.3999
  569MOL0     C76707   7.889   6.431  11.217 -0.7715 -0.1146  0.5148
  569MOL0     C76708   7.803   6.330  11.223  0.5490 -0.8831  0.1073
  569MOL0     C76709   7.665   6.342  11.166  0.3501  0.6810  0.2561
  569MOL0     O76710   7.599   6.219  11.168  0.2539  0.7459  0.3478
  569MOL0     C76711   7.465   6.208  11.148 -0.2608 -0.5157  0.4602
  569MOL0     C76712   7.366   6.314  11.144 -0.1331 -0.1782  0.3757
  569MOL0     C76713   7.230   6.280  11.141 -0.3450 -0.4096 -0.0949
  569MOL0     C76714   7.183   6.151  11.138  0.2103 -0.3018  0.2966
  569MOL0     O76715   7.049   6.126  11.142 -0.0236  0.8189 -0.3205
  569MOL0     C76716   6.998   6.061  11.023 -0.3834 -0.2183 -0.2918
  569MOL0     C76717   6.867   6.112  10.980 -0.7207 -0.0722  0.1340
  569MOL0     C76718   6.833   6.042  10.847 -0.2902  0.1115  0.6850
  569MOL0     C76719   6.687   6.072  10.809  0.1082 -0.4832 -0.0453
  569MOL0     C76720   6.645   6.014  10.670  0.7709  0.0134 -0.0866
  569MOL0     C76721   6.482   6.010  10.655 -0.6446 -0.4624  0.0473
  569MOL0     C76722   6.454   6.014  10.514 -0.2428 -0.7895  0.0573
  569MOL0     C76723   6.307   6.018  10.488  1.0722  0.7086  0.6004
  569MOL0    Cl76724   6.217   5.861  10.514 -0.1556  0.3841 -0.0753
  569MOL0     C76725   7.283   6.048  11.143  0.3565 -0.2837  0.1982
  569MOL0     C76726   7.423   6.074  11.143 -0.0637  0.4222 -0.2562
  569MOL0     O76727   7.629   6.442  11.102  0.2701  0.5821  0.0679
  569MOL0     C76728   7.838   6.218  11.301  0.2758 -0.3065 -0.1925
  569MOL0     C76729   7.958   6.200  11.378  0.4940  0.8754 -0.1672
  569MOL0     N76730   8.664   6.675  11.686  0.3507  0.4113  0.1468
  569MOL0     N76731   8.728   6.784  11.707  0.6148  0.0267 -0.4328
  569MOL0     C76732   8.598   7.720  11.011  0.3583 -1.2559 -0.3753
  569MOL0     C76733   8.462   7.768  11.001  0.0899  0.3023 -1.1440
  569MOL0     C76734   8.000   7.834  11.091 -0.3008 -0.3880 -0.8644
  569MOL0     C76735   8.021   7.967  11.057  0.5400  0.1623  0.1807
  569MOL0     C76736   7.911   8.044  11.024  0.2132  0.3803 -0.3803
  569MOL0     C76737   7.781   7.996  11.019 -0.1488  0.5309  0.4823
  569MOL0     O76738   7.662   8.067  11.003  0.2871 -0.0487  0.8645
  569MOL0     C76739   7.653   8.162  10.896  0.5713 -0.4772 -0.5217
  569MOL0     C76740   7.506   8.198  10.870 -0.4778 -0.6975 -0.1534
  569MOL0     C76741   7.424   8.082  10.803 -0.5865 -0.0542  0.1597
  569MOL0     C76742   7.285   8.129  10.764  0.7053 -0.1512  0.3994
  569MOL0     C76743   7.191   8.132  10.880 -0.5399  0.6925 -0.4465
  569MOL0     C76744   7.114   8.109  10.974 -0.3151 -0.1724 -0.5574
  569MOL0     C76745   7.761   7.869  11.055 -0.1537 -0.5132  0.2256
  569MOL0     C76746   7.864   7.784  11.091  0.2105 -0.4147 -0.0964
  569MOL0     C76747   7.824   7.642  11.126  0.2065 -0.1376  0.3445
  569MOL0     H76748   8.329   7.558  11.226 -0.7857  0.5455 -1.3014
  569MOL0     H76749   8.561   7.489  11.246 -1.5115  1.1241  3.0628
  569MOL0     H76750   8.738   7.391  11.173  1.1954  1.2475  4.4920
  569MOL0     H76751   8.887   7.407  11.079  0.5028  1.0369 -1.0509
  569MOL0     H76752   8.836   7.586  11.298  0.0227 -2.2528  3.3099
  569MOL0     H76753   8.996   7.534  11.219 -0.3073  0.6800 -0.9519
  569MOL0     H76754   8.822   7.380  11.409 -0.4836 -0.1238  0.2444
  569MOL0     H76755   9.009   7.412  11.403 -0.0359 -0.0368  0.0062
  569MOL0     H76756   8.862   7.228  11.223 -2.0833  1.4880  2.4074
  569MOL0     H76757   9.039   7.239  11.241  0.3920 -0.6901  0.6156
  569MOL0     H76758   9.005   7.046  11.353  1.3541  2.4595 -2.8482
  569MOL0     H76759   9.037   7.152  11.491 -2.6074 -0.7640  3.2061
  569MOL0     H76760   8.761   7.172  11.444  1.3688  1.4773 -0.8159
  569MOL0     H76761   8.803   7.005  11.417 -2.2026  0.2811  0.4323
  569MOL0     H76762   8.875   7.167  11.669  0.8251 -0.9669  1.1012
  569MOL0     H76763   8.928   7.008  11.650 -1.8726 -1.6948  0.6152
  569MOL0     H76764   8.721   7.030  11.779  2.5047  0.3940 -0.0494
  569MOL0     H76765   8.630   7.082  11.623  1.0562  0.6445 -0.4835
  569MOL0     H76766   8.490   6.881  11.510  1.4038  2.3200 -0.8529
  569MOL0     H76767   8.363   6.653  11.560  0.2017 -1.5985 -0.7336
  569MOL0     H76768   8.501   6.610  11.452  0.5603 -1.0705 -0.5253
  569MOL0     H76769   8.552   6.422  11.597  1.1674  0.4575  4.3104
  569MOL0     H76770   8.446   6.478  11.723  1.8053  0.1368 -0.3558
  569MOL0     H76771   8.255   6.402  11.656 -2.5473 -1.9165 -1.1447
  569MOL0     H76772   8.359   6.288  11.598 -0.3267 -0.7985  2.1293
  569MOL0     H76773   8.336   6.371  11.369  0.7813  0.4831  0.5604
  569MOL0     H76774   8.236   6.500  11.411 -1.1602 -0.6733 -0.0889
  569MOL0     H76775   8.074   6.511  11.285 -3.2403  1.9612  0.5878
  569MOL0     H76776   7.866   6.521  11.160 -1.8291  0.2377  1.4543
  569MOL0     H76777   7.399   6.416  11.160  0.8263 -0.3960 -0.1462
  569MOL0     H76778   7.170   6.368  11.119  0.7069  0.3336 -0.0943
  569MOL0     H76779   7.058   6.086  10.935 -1.6300  1.1525 -0.8023
  569MOL0     H76780   6.990   5.953  11.033  0.3406 -0.2464 -0.0022
  569MOL0     H76781   6.795   6.108  11.063  0.6306 -0.3986  1.3263
  569MOL0     H76782   6.873   6.221  10.967 -1.1885  0.3566  2.9047
  569MOL0     H76783   6.896   6.085  10.769  0.1006  0.3129  1.1046
  569MOL0     H76784   6.848   5.934  10.839  1.3994  0.4264 -1.2999
  569MOL0     H76785   6.662   6.178  10.817 -0.9602 -0.8458  1.9372
  569MOL0     H76786   6.630   6.032  10.892  1.3944 -0.7787  0.7267
  569MOL0     H76787   6.678   5.910  10.672 -3.0592 -1.4248 -1.3940
  569MOL0     H76788   6.687   6.070  10.586 -1.4061  1.4894 -0.2934
  569MOL0     H76789   6.451   5.916  10.702  2.4572 -1.5460  0.1678
  569MOL0     H76790   6.437   6.098  10.703 -0.2427 -0.7851  1.0491
  569MOL0     H76791   6.492   5.924  10.464 -0.0796 -0.2682 -0.7875
  569MOL0     H76792   6.506   6.104  10.478 -0.4171 -0.7398 -0.0691
  569MOL0     H76793   6.261   6.097  10.548  0.6323  0.4460  0.6108
  569MOL0     H76794   6.295   6.039  10.381 -0.3672 -2.3410  0.0649
  569MOL0     H76795   7.247   5.946  11.150  3.4339 -1.3567  3.9147
  569MOL0     H76796   7.502   6.000  11.130 -0.2697  0.6187 -3.1835
  569MOL0     H76797   7.770   6.134  11.307  0.8632 -0.7679  0.1736
  569MOL0     H76798   7.984   6.117  11.442  3.8941  1.2779 -0.8338
  569MOL0     H76799   8.679   7.759  10.949 -0.5060  0.8988 -0.2273
  569MOL0     H76800   8.420   7.839  10.930  0.6900 -0.2470 -2.0610
  569MOL0     H76801   8.117   8.018  11.062  0.5067  0.1780  0.7517
  569MOL0     H76802   7.933   8.147  10.999 -1.4865  0.4904 -1.5405
  569MOL0     H76803   7.703   8.119  10.809  0.9787 -2.8680  0.8039
  569MOL0     H76804   7.716   8.250  10.911  1.1502 -1.1453  1.2024
  569MOL0     H76805   7.511   8.277  10.795  2.5479  0.9173  1.5863
  569MOL0     H76806   7.461   8.229  10.965 -2.2133 -2.8727 -0.1640
  569MOL0     H76807   7.404   7.999  10.872  1.0543 -0.2598  0.4284
  569MOL0     H76808   7.481   8.045  10.718 -3.2876 -1.7755 -1.0519
  569MOL0     H76809   7.291   8.230  10.721  1.3066 -0.0481  0.7065
  569MOL0     H76810   7.246   8.067  10.683 -3.2346 -1.3847  2.9747
  569MOL0     H76811   7.046   8.086  11.054 -1.1718 -1.2712 -1.5569
  569MOL0     H76812   7.663   7.823  11.054  0.0980 -1.0786  1.1522
  569MOL0     H76813   7.872   7.615  11.221  2.5732  0.9358 -0.4891
  569MOL0     H76814   7.716   7.622  11.135  0.2498 -1.5325 -1.6002
  569MOL0     H76815   7.860   7.575  11.048  2.3067  1.2518  0.0614
  570MOL0     O76816   8.656   1.937   6.991  0.2021 -0.0298 -0.0255
  570MOL0     C76817   8.583   1.864   7.058  0.2349  0.2711 -0.5018
  570MOL0     O76818   8.615   1.796   7.183  0.7971 -0.2176 -0.1439
  570MOL0     C76819   8.740   1.808   7.223 -0.2743  0.5905 -1.2808
  570MOL0     C76820   8.803   1.931   7.252  0.9349  0.0890 -0.1055
  570MOL0     C76821   8.926   1.931   7.308 -1.1477  0.1310  0.1371
  570MOL0     C76822   8.984   1.809   7.344 -0.0271  0.0514 -0.5168
  570MOL0     O76823   9.107   1.807   7.394  0.0191  0.1701  0.0453
  570MOL0     C76824   9.165   1.915   7.468 -0.4113 -0.3525  0.2904
  570MOL0     C76825   9.283   1.866   7.550 -0.3260 -0.1845 -0.2655
  570MOL0     C76826   9.363   1.988   7.610 -0.1454  0.2091  0.1386
  570MOL0     C76827   9.487   1.942   7.685 -1.1458 -1.0638 -1.1251
  570MOL0     C76828   9.574   2.067   7.724 -0.5960  0.4775 -0.0820
  570MOL0     C76829   9.512   2.150   7.832 -0.6062 -0.0800  0.1961
  570MOL0     C76830   9.572   2.114   7.966  0.6803 -0.1297 -0.5098
  570MOL0     C76831   9.546   2.209   8.081 -0.2587 -0.4017 -1.1468
  570MOL0     N76832   9.560   2.160   8.216 -0.2249 -0.0588  0.0649
  570MOL0     C76833   9.465   2.126   8.309  1.2125 -0.5394 -0.6811
  570MOL0     C76834   9.528   2.076   8.411  0.0228  0.5642  0.2800
  570MOL0     C76835   9.467   2.017   8.542 -1.2097  0.1786  0.6134
  570MOL0     C76836   9.567   2.011   8.657  0.0697 -0.4179  0.2652
  570MOL0     C76837   9.632   2.155   8.686 -0.0667 -0.0548  0.8714
  570MOL0     C76838   9.773   2.143   8.739 -1.3348 -0.9136  0.1699
  570MOL0     O76839   9.810   2.279   8.780 -0.0834 -0.4393 -0.2674
  570MOL0     C76840   9.948   2.297   8.791 -0.7052 -0.5352 -0.5205
  570MOL0     C76841  10.012   2.276   8.911  0.2833  0.3197 -0.7073
  570MOL0     C76842  10.152   2.316   8.925  0.0373  0.7253 -0.2569
  570MOL0     C76843  10.225   2.362   8.812  0.0154  0.2691  1.2051
  570MOL0     C76844  10.350   2.417   8.833 -0.3144  0.0872 -0.1752
  570MOL0     O76845  10.371   2.456   8.964 -0.4129  0.2588 -0.1021
  570MOL0     C76846  10.495   2.519   8.987 -0.0134  0.2483 -0.5109
  570MOL0     C76847  10.501   2.646   9.044 -0.2008  0.1267 -0.8211
  570MOL0     C76848  10.616   2.711   9.077  0.1882 -0.4119 -0.0764
  570MOL0     C76849  10.741   2.648   9.056 -0.2086  0.7943 -0.4527
  570MOL0     O76850  10.865   2.707   9.080  0.1564  0.1421  0.4989
  570MOL0     C76851  10.987   2.667   9.011  0.6108  1.4760 -0.7191
  570MOL0     C76852  11.083   2.746   9.080 -0.3735 -0.0883  0.6199
  570MOL0     C76853  11.233   2.714   9.061 -0.5702 -1.2423 -0.9364
  570MOL0     C76854  11.322   2.819   9.133  0.3267  0.3740  0.1580
  570MOL0     C76855  11.466   2.792   9.121 -0.7266 -0.5109  0.3377
  570MOL0     C76856  11.509   2.814   8.978  0.1484  0.6907 -0.1410
  570MOL0     C76857  11.658   2.777   8.966 -0.2833  0.2592 -0.1980
  570MOL0     C76858  11.711   2.788   8.822  0.3817 -0.5127  0.0658
  570MOL0    Cl76859  11.859   2.700   8.794 -0.2202  0.3052 -0.3988
  570MOL0     C76860  10.734   2.516   9.004 -0.3657 -0.0121 -0.1173
  570MOL0     C76861  10.619   2.448   8.977  0.4639 -0.2799 -1.1680
  570MOL0     O76862  10.413   2.444   8.732 -0.7442 -0.8357 -0.6885
  570MOL0     C76863  10.159   2.359   8.682  0.3977 -0.6088 -0.3130
  570MOL0     C76864  10.020   2.336   8.682 -0.1704 -0.2075  0.5245
  570MOL0     N76865   9.661   2.077   8.379  0.0611 -0.6311  0.9867
  570MOL0     N76866   9.686   2.126   8.259 -0.3776 -0.0815  0.2915
  570MOL0     C76867   8.923   1.687   7.316 -0.0403  0.0859  0.0047
  570MOL0     C76868   8.804   1.686   7.250 -0.4695  0.2531 -0.2521
  570MOL0     C76869   8.433   1.859   7.032  0.8139 -1.5904  0.7196
  570MOL0     C76870   8.393   1.731   7.006 -0.1253  0.3187 -0.0769
  570MOL0     C76871   8.258   1.703   6.968 -0.0839  0.6355 -0.5302
  570MOL0     C76872   8.173   1.810   6.948  1.5593  1.1962  0.6791
  570MOL0     O76873   8.047   1.781   6.891 -0.1936 -0.0798 -0.0455
  570MOL0     C76874   7.970   1.888   6.835 -0.5994  0.4211 -0.8270
  570MOL0     C76875   8.010   1.931   6.694  0.3144 -1.2828  0.2402
  570MOL0     C76876   8.005   1.804   6.601 -0.0254  0.0892 -0.7307
  570MOL0     C76877   8.007   1.861   6.460 -0.5065 -0.1974  0.3061
  570MOL0     C76878   8.137   1.925   6.415 -0.3253  0.3318 -0.7910
  570MOL0     C76879   8.234   1.980   6.370  0.1427 -0.5125  0.8981
  570MOL0     C76880   8.216   1.945   6.966  0.3872 -0.6406 -0.7410
  570MOL0     C76881   8.345   1.971   7.013  0.1890 -0.3080  0.8544
  570MOL0     C76882   8.382   2.116   7.044  0.3307  0.4069 -0.3044
  570MOL0     H76883   8.763   2.028   7.223  1.0932 -0.1596 -1.1955
  570MOL0     H76884   8.981   2.022   7.326 -1.1723  0.6622 -2.1997
  570MOL0     H76885   9.202   1.991   7.398  1.1637 -0.3939  1.0335
  570MOL0     H76886   9.098   1.961   7.541 -0.5126 -1.4744  0.9327
  570MOL0     H76887   9.347   1.797   7.495 -1.0775 -1.0262 -0.1011
  570MOL0     H76888   9.249   1.799   7.630 -3.4401 -1.4737 -2.4788
  570MOL0     H76889   9.293   2.045   7.672 -1.5437 -2.3607  1.0851
  570MOL0     H76890   9.396   2.050   7.526 -2.3116  1.3923  0.0990
  570MOL0     H76891   9.466   1.912   7.788  3.3336  0.8968  0.6471
  570MOL0     H76892   9.537   1.866   7.625 -1.2173 -2.3598  0.3953
  570MOL0     H76893   9.678   2.042   7.745  0.0932  3.7081  1.0220
  570MOL0     H76894   9.588   2.133   7.638  0.1666 -0.4279 -0.6764
  570MOL0     H76895   9.536   2.253   7.805 -1.7547  0.3916  0.9005
  570MOL0     H76896   9.404   2.165   7.828 -0.4426  1.2811  0.4056
  570MOL0     H76897   9.681   2.117   7.955  0.9683  2.7395  1.8126
  570MOL0     H76898   9.540   2.014   7.997  1.0857 -0.3059 -0.6521
  570MOL0     H76899   9.602   2.303   8.079  3.3136 -2.1936  2.0803
  570MOL0     H76900   9.441   2.237   8.067 -0.5290  0.3149  1.7146
  570MOL0     H76901   9.357   2.137   8.306  1.0932 -1.8038 -2.4149
  570MOL0     H76902   9.384   2.080   8.576 -0.4851  1.9671 -0.7711
  570MOL0     H76903   9.430   1.919   8.510 -2.5235  0.9277 -0.2669
  570MOL0     H76904   9.517   1.972   8.746  1.6365  0.5681  1.6367
  570MOL0     H76905   9.645   1.943   8.624  0.4928  0.6331 -0.9982
  570MOL0     H76906   9.560   2.213   8.744  0.0157  0.8727  0.0763
  570MOL0     H76907   9.635   2.212   8.592 -3.0094 -2.8113 -1.1216
  570MOL0     H76908   9.843   2.114   8.660 -2.1542 -1.1442 -0.4950
  570MOL0     H76909   9.781   2.061   8.811 -1.8483  0.4520  1.8536
  570MOL0     H76910   9.958   2.253   9.002 -1.1718  2.9783 -0.7875
  570MOL0     H76911  10.187   2.304   9.027  1.6787 -1.4020 -1.0133
  570MOL0     H76912  10.404   2.692   9.056 -0.6663 -1.1978  0.8346
  570MOL0     H76913  10.608   2.812   9.116  4.1894  0.7541 -1.7825
  570MOL0     H76914  11.009   2.564   9.042  0.0199  2.2154  2.5196
  570MOL0     H76915  10.984   2.686   8.903  0.5134 -0.4333 -1.0775
  570MOL0     H76916  11.069   2.851   9.054  0.2095 -0.9010 -3.7897
  570MOL0     H76917  11.063   2.741   9.187  0.0080 -0.4683  0.6754
  570MOL0     H76918  11.258   2.617   9.105  0.0008  0.1021  1.9856
  570MOL0     H76919  11.261   2.731   8.956  0.5499 -1.2630 -0.6579
  570MOL0     H76920  11.305   2.820   9.241 -0.9625  1.2384 -0.0360
  570MOL0     H76921  11.303   2.921   9.097  2.5076 -0.0146 -2.3737
  570MOL0     H76922  11.491   2.699   9.173 -0.8724 -0.0476  1.2498
  570MOL0     H76923  11.514   2.872   9.178 -1.1023 -1.0419  1.4133
  570MOL0     H76924  11.451   2.762   8.901 -1.0339  1.4656  0.1955
  570MOL0     H76925  11.502   2.921   8.955  0.3176  0.2827 -2.3736
  570MOL0     H76926  11.671   2.671   8.991  1.0139  0.4201 -0.1160
  570MOL0     H76927  11.727   2.827   9.035  0.7974 -2.0886  0.5483
  570MOL0     H76928  11.633   2.759   8.751  1.7097  1.3185 -2.3066
  570MOL0     H76929  11.734   2.892   8.795  3.7203 -1.2435 -0.3285
  570MOL0     H76930  10.827   2.462   8.987  0.5803  1.8943 -1.4017
  570MOL0     H76931  10.595   2.351   8.934 -1.9705 -0.3943  0.2032
  570MOL0     H76932  10.205   2.397   8.591  3.5154 -1.0311  0.9622
  570MOL0     H76933   9.966   2.345   8.588  1.6485 -1.8398 -0.7472
  570MOL0     H76934   8.980   1.598   7.340  0.1536  0.4624  0.9863
  570MOL0     H76935   8.759   1.589   7.230 -1.5854  0.2953  1.8327
  570MOL0     H76936   8.461   1.646   7.009 -1.0424 -0.4284 -0.0285
  570MOL0     H76937   8.230   1.598   6.970  4.9451 -0.9816  2.3278
  570MOL0     H76938   7.967   1.970   6.908 -0.0351  0.1965 -0.5448
  570MOL0     H76939   7.865   1.854   6.836 -0.5108  0.0779  1.0042
  570MOL0     H76940   8.106   1.983   6.695  0.0469 -0.6803  2.7399
  570MOL0     H76941   7.930   2.000   6.666  2.3981  0.8777 -0.6610
  570MOL0     H76942   7.926   1.729   6.612 -0.5771  0.5404 -1.4910
  570MOL0     H76943   8.105   1.760   6.608 -0.2973 -0.4923 -0.4538
  570MOL0     H76944   7.989   1.780   6.389 -3.1810  0.7161 -0.1658
  570MOL0     H76945   7.923   1.931   6.452 -1.8925 -1.8184  0.1173
  570MOL0     H76946   8.324   2.014   6.323  1.2352 -1.9310  1.8871
  570MOL0     H76947   8.143   2.025   6.962  0.2783 -0.7887 -3.0583
  570MOL0     H76948   8.473   2.148   6.991  1.9042 -3.0250  0.0439
  570MOL0     H76949   8.297   2.178   7.014  1.0096  0.7570 -1.5903
  570MOL0     H76950   8.393   2.139   7.151  1.2867 -0.9400 -0.0805
  571MOL0     O76951   5.291   0.641   8.042 -0.2627  0.1141 -0.5250
  571MOL0     C76952   5.255   0.525   8.049 -0.1351 -0.2624  0.3899
  571MOL0     O76953   5.342   0.425   8.093 -0.7904  0.1004  0.3738
  571MOL0     C76954   5.475   0.441   8.131  0.3929 -0.0670  0.1154
  571MOL0     C76955   5.566   0.346   8.089 -0.9375 -0.0150 -0.0546
  571MOL0     C76956   5.696   0.350   8.119  0.3203 -0.5050  0.0448
  571MOL0     C76957   5.749   0.449   8.203  0.2571 -0.2586  0.1442
  571MOL0     O76958   5.887   0.441   8.225 -0.9434  0.5493 -0.5061
  571MOL0     C76959   5.961   0.525   8.321  1.0598  0.2691  0.2795
  571MOL0     C76960   6.100   0.480   8.326 -0.3646  1.0378  0.2069
  571MOL0     C76961   6.188   0.589   8.378 -0.2299  0.0993  0.0694
  571MOL0     C76962   6.341   0.551   8.366  0.0521 -0.7434 -0.8065
  571MOL0     C76963   6.423   0.642   8.465  0.0880 -0.7848  0.4932
  571MOL0     C76964   6.571   0.640   8.431 -0.1585  0.5131  0.8686
  571MOL0     C76965   6.623   0.494   8.457  0.5669 -0.3913 -0.3015
  571MOL0     C76966   6.773   0.498   8.439 -0.4543 -0.5404  0.4594
  571MOL0     N76967   6.832   0.376   8.472  0.0913  0.4356 -0.5964
  571MOL0     C76968   6.849   0.272   8.381  0.5450 -0.3442 -0.9582
  571MOL0     C76969   6.910   0.173   8.446  0.2190 -0.8380 -0.4641
  571MOL0     C76970   6.931   0.033   8.392  0.5382 -0.6356  0.1558
  571MOL0     C76971   7.027   0.028   8.276 -0.5039 -0.3807 -0.0437
  571MOL0     C76972   7.169   0.048   8.323 -0.7867 -0.0371 -1.0839
  571MOL0     C76973   7.271   0.081   8.210 -0.1955 -0.0315  0.4689
  571MOL0     O76974   7.404   0.065   8.256 -0.7035 -0.4790 -0.1957
  571MOL0     C76975   7.509   0.068   8.165 -0.1494 -0.5210  0.2925
  571MOL0     C76976   7.502   0.121   8.036  0.0783 -0.2242 -0.4322
  571MOL0     C76977   7.611   0.120   7.947  0.5191 -0.4547 -1.5315
  571MOL0     C76978   7.731   0.062   7.986 -0.0277 -0.6458  0.4080
  571MOL0     C76979   7.850   0.075   7.896  0.7142  0.3157 -0.2954
  571MOL0     O76980   7.825   0.125   7.770  0.2909  1.1239 -0.4508
  571MOL0     C76981   7.925   0.156   7.686  0.2826 -0.5475 -0.5711
  571MOL0     C76982   8.029   0.238   7.725  0.1367  0.4805  0.6980
  571MOL0     C76983   8.141   0.261   7.636  0.0043  0.0070 -0.8570
  571MOL0     C76984   8.139   0.227   7.503  0.4976  0.2178 -0.5827
  571MOL0     O76985   8.240   0.260   7.419 -0.0019  0.1418  0.2127
  571MOL0     C76986   8.260   0.174   7.302  0.1839  0.1597  0.2788
  571MOL0     C76987   8.400   0.176   7.242  0.5411  0.3148  0.4621
  571MOL0     C76988   8.411   0.291   7.134 -0.1956  0.9057 -0.7980
  571MOL0     C76989   8.376   0.232   6.996  0.9631  0.1216  0.3400
  571MOL0     C76990   8.387   0.339   6.884 -1.0241 -0.6283 -0.0625
  571MOL0     C76991   8.294   0.467   6.910  0.3648 -0.6175 -0.4675
  571MOL0     C76992   8.263   0.559   6.791 -0.1625  0.5125  0.0271
  571MOL0     C76993   8.385   0.600   6.712 -0.2075  0.8825 -0.8328
  571MOL0    Cl76994   8.471   0.727   6.801  0.4610 -0.0676  0.0330
  571MOL0     C76995   8.029   0.149   7.477  0.4211 -0.2104  0.1915
  571MOL0     C76996   7.934   0.097   7.565 -0.4810 -0.0280  0.5181
  571MOL0     O76997   7.958   0.034   7.940  0.1564 -0.3704 -0.1555
  571MOL0     C76998   7.743   0.015   8.120  0.1398  0.3870 -0.3866
  571MOL0     C76999   7.634   0.024   8.205 -0.1578 -0.0253  0.3312
  571MOL0     N77000   6.935   0.224   8.574  0.0364  0.3178  0.3295
  571MOL0     N77001   6.885   0.338   8.590 -0.8112  0.5935  0.4348
  571MOL0     C77002   5.653   0.548   8.247 -0.4699 -0.5607 -0.0593
  571MOL0     C77003   5.516   0.541   8.218 -0.1694 -0.6455  0.3551
  571MOL0     C77004   5.120   0.473   8.002 -0.4224 -0.0322 -0.0253
  571MOL0     C77005   5.085   0.344   8.039 -0.9591 -0.4070  0.2160
  571MOL0     C77006   4.959   0.296   8.004  0.5030 -0.3825  0.4274
  571MOL0     C77007   4.862   0.372   7.944  0.4293 -0.9982  0.2028
  571MOL0     O77008   4.735   0.326   7.918 -0.1213 -0.2347  0.5869
  571MOL0     C77009   4.685   0.209   7.990  0.1647  0.0507  0.0375
  571MOL0     C77010   4.535   0.201   7.996 -0.7733 -0.5531  0.1624
  571MOL0     C77011   4.493   0.143   7.863 -0.9241 -0.2346 -0.0019
  571MOL0     C77012   4.349   0.093   7.855  0.5710  0.1532 -0.2538
  571MOL0     C77013   4.263   0.203   7.892  0.8377  0.6289 -1.1503
  571MOL0     C77014   4.196   0.298   7.940 -0.5197  0.2611  0.2919
  571MOL0     C77015   4.895   0.504   7.911  0.2877 -0.1911 -0.1209
  571MOL0     C77016   5.020   0.552   7.934 -0.0111  0.0446 -0.1325
  571MOL0     C77017   5.039   0.695   7.883 -0.3519  0.2022 -0.4298
  571MOL0     H77018   5.533   0.259   8.033  1.3189 -0.9229 -0.0830
  571MOL0     H77019   5.768   0.277   8.085  2.1698 -0.0552  2.7266
  571MOL0     H77020   5.963   0.631   8.293  3.6219 -0.4153 -2.6674
  571MOL0     H77021   5.909   0.513   8.417  0.0295 -1.0342 -0.4090
  571MOL0     H77022   6.132   0.454   8.225  1.5771  4.4068 -0.1785
  571MOL0     H77023   6.111   0.390   8.388 -2.5190 -0.3090 -1.2259
  571MOL0     H77024   6.164   0.612   8.483 -1.1697  0.4083 -0.2036
  571MOL0     H77025   6.181   0.677   8.313  0.5475  0.6899  0.7593
  571MOL0     H77026   6.354   0.447   8.398  0.1847 -1.2501 -2.4576
  571MOL0     H77027   6.372   0.558   8.262 -1.1319 -0.5590 -1.1582
  571MOL0     H77028   6.397   0.747   8.450  2.2100 -0.3065 -0.1988
  571MOL0     H77029   6.406   0.604   8.566  1.8186 -4.3866 -0.4010
  571MOL0     H77030   6.613   0.665   8.333  2.3086 -0.2651  1.6467
  571MOL0     H77031   6.629   0.699   8.503 -0.5475 -0.1771  1.7718
  571MOL0     H77032   6.575   0.431   8.382  0.4513 -0.0162 -0.5442
  571MOL0     H77033   6.603   0.468   8.562  1.6197  2.0802  0.5888
  571MOL0     H77034   6.794   0.507   8.332  1.1057 -0.3301  0.7594
  571MOL0     H77035   6.823   0.579   8.494  1.9216 -0.5422 -1.4848
  571MOL0     H77036   6.807   0.266   8.281 -0.4023  2.1064 -0.7748
  571MOL0     H77037   6.987  -0.023   8.468  0.0780 -1.5657 -0.1627
  571MOL0     H77038   6.834  -0.016   8.380  0.7265 -0.5236 -2.3429
  571MOL0     H77039   7.010  -0.071   8.231 -3.4285  0.2896 -0.6478
  571MOL0     H77040   7.007   0.108   8.204 -1.4062  0.8917  1.5579
  571MOL0     H77041   7.208  -0.041   8.372 -0.6898  1.2789  1.3748
  571MOL0     H77042   7.169   0.133   8.392 -0.9111  0.1026 -1.2554
  571MOL0     H77043   7.256   0.183   8.176  2.1379  1.4871  3.4995
  571MOL0     H77044   7.260   0.007   8.130 -2.0955 -1.7433  2.1772
  571MOL0     H77045   7.416   0.177   8.000  0.0576 -0.2913 -0.4886
  571MOL0     H77046   7.602   0.168   7.851 -1.6576  1.5031 -0.4616
  571MOL0     H77047   8.038   0.274   7.827  5.0403 -1.0301  1.0888
  571MOL0     H77048   8.229   0.304   7.681 -0.8614 -0.1777  1.0959
  571MOL0     H77049   8.236   0.069   7.316  1.3447  0.0026  1.2818
  571MOL0     H77050   8.188   0.207   7.227 -0.2438  1.2616  1.1428
  571MOL0     H77051   8.479   0.184   7.317  0.9170  2.6491 -0.1023
  571MOL0     H77052   8.411   0.082   7.186  1.9772  1.7169 -1.8182
  571MOL0     H77053   8.341   0.369   7.166 -1.2532 -0.0881 -0.6114
  571MOL0     H77054   8.513   0.329   7.133 -0.1411  0.7788 -0.0743
  571MOL0     H77055   8.276   0.188   6.998  0.7161  0.6711  2.1661
  571MOL0     H77056   8.441   0.150   6.965  0.3932  0.0902 -0.8179
  571MOL0     H77057   8.377   0.302   6.782 -1.0510 -1.8429  0.3646
  571MOL0     H77058   8.485   0.384   6.903 -2.3047  3.3850 -1.8968
  571MOL0     H77059   8.194   0.431   6.934 -0.2411  0.1331 -1.7505
  571MOL0     H77060   8.329   0.530   6.992 -0.8165 -1.7906  0.9898
  571MOL0     H77061   8.208   0.643   6.835 -0.3925  0.8449 -0.8784
  571MOL0     H77062   8.201   0.500   6.723  0.8063  1.4642 -1.7291
  571MOL0     H77063   8.439   0.507   6.690 -1.2478  0.8483 -3.6988
  571MOL0     H77064   8.368   0.643   6.612  0.0383 -0.5316 -1.5166
  571MOL0     H77065   8.015   0.124   7.372 -2.1926  0.5433  0.2835
  571MOL0     H77066   7.859   0.029   7.527 -1.6732  1.9330 -0.8201
  571MOL0     H77067   7.833  -0.031   8.158 -0.0591  0.7291  0.5123
  571MOL0     H77068   7.648  -0.027   8.299  0.3176 -2.7556 -1.1077
  571MOL0     H77069   5.691   0.631   8.307  0.9770 -0.7969 -0.6094
  571MOL0     H77070   5.446   0.613   8.257 -0.3846  0.6113 -2.1794
  571MOL0     H77071   5.162   0.274   8.073 -0.1578  0.8094  0.9848
  571MOL0     H77072   4.950   0.189   8.020 -0.2728 -0.9436 -2.9446
  571MOL0     H77073   4.722   0.203   8.093  1.0795 -2.6309 -0.3726
  571MOL0     H77074   4.714   0.120   7.934 -3.7280 -1.3131 -0.1360
  571MOL0     H77075   4.487   0.298   8.012 -0.6067 -0.1910 -1.4330
  571MOL0     H77076   4.521   0.132   8.081  0.9381 -0.5978  0.4325
  571MOL0     H77077   4.558   0.065   7.823  1.8038  1.2258  1.3427
  571MOL0     H77078   4.509   0.227   7.794 -0.0097 -1.5393 -1.4211
  571MOL0     H77079   4.328   0.065   7.752  2.8640  1.6864 -1.2262
  571MOL0     H77080   4.335   0.009   7.923  1.7895  0.8137  0.8764
  571MOL0     H77081   4.144   0.385   7.973  1.0116  1.2461  0.2148
  571MOL0     H77082   4.817   0.568   7.871  0.4134 -0.9793 -1.6918
  571MOL0     H77083   4.940   0.727   7.849 -1.2814 -3.3978 -1.5275
  571MOL0     H77084   5.074   0.774   7.950  0.1245  2.4512 -3.1852
  571MOL0     H77085   5.122   0.693   7.812 -1.2569  2.7858 -1.6729
  572MOL0     O77086   7.218   1.118   1.868  0.3481 -0.3414  0.2309
  572MOL0     C77087   7.152   1.218   1.828 -0.4740 -0.1294  0.4163
  572MOL0     O77088   7.169   1.281   1.702  0.1306 -0.4358  0.3450
  572MOL0     C77089   7.277   1.246   1.632  0.6904 -0.1077  0.4410
  572MOL0     C77090   7.282   1.137   1.551 -0.4464  0.8254 -0.3101
  572MOL0     C77091   7.408   1.102   1.499 -0.3034 -0.4176  0.4956
  572MOL0     C77092   7.524   1.183   1.512  0.0760  0.1079 -0.6431
  572MOL0     O77093   7.632   1.147   1.446  0.0072 -0.3117  0.1298
  572MOL0     C77094   7.742   1.240   1.430  0.7050  0.9284  0.3981
  572MOL0     C77095   7.848   1.174   1.345 -0.1902  0.5540  0.5331
  572MOL0     C77096   7.955   1.268   1.299  0.2024  0.1047 -0.3479
  572MOL0     C77097   7.913   1.359   1.188  0.0230 -0.0018 -0.5243
  572MOL0     C77098   8.045   1.403   1.113  0.8938 -0.5249 -0.1140
  572MOL0     C77099   8.092   1.307   1.013  0.1482 -0.6945  0.4676
  572MOL0     C77100   8.189   1.364   0.903 -1.3993  0.1852 -0.1348
  572MOL0     C77101   8.326   1.404   0.959  0.2247  0.7439  0.3570
  572MOL0     N77102   8.405   1.290   1.006  0.2050  0.4819 -0.8731
  572MOL0     C77103   8.457   1.194   0.928  0.2600  0.3994 -0.1144
  572MOL0     C77104   8.549   1.133   1.008  0.0551  1.0175  0.5946
  572MOL0     C77105   8.637   1.023   0.957  0.0269 -0.4629 -0.1925
  572MOL0     C77106   8.771   1.001   1.029 -0.0552  0.2442 -0.4326
  572MOL0     C77107   8.853   1.125   1.012  0.4387 -0.3920 -0.4657
  572MOL0     C77108   8.984   1.133   1.093  0.1984 -0.3455  0.6902
  572MOL0     O77109   9.066   1.026   1.058  0.3657 -0.1175 -0.0730
  572MOL0     C77110   9.180   0.998   1.134  0.1380 -0.5503 -0.4146
  572MOL0     C77111   9.214   1.068   1.245 -0.1706 -1.1264  0.1139
  572MOL0     C77112   9.336   1.059   1.303  0.0924  0.6909 -0.3584
  572MOL0     C77113   9.435   0.972   1.250  0.6871 -0.3986  0.2651
  572MOL0     C77114   9.568   0.953   1.304 -0.5493  0.0457  0.2942
  572MOL0     O77115   9.590   1.010   1.427  0.1543 -0.4157  0.5117
  572MOL0     C77116   9.706   0.988   1.499 -0.3846  0.1995  0.2284
  572MOL0     C77117   9.810   1.079   1.483 -0.0229  0.1661 -0.2575
  572MOL0     C77118   9.932   1.072   1.547 -0.3623  0.1287  0.1585
  572MOL0     C77119   9.948   0.972   1.642 -0.2059  1.0270 -0.2083
  572MOL0     O77120  10.061   0.950   1.714  0.2698  0.6492 -0.1396
  572MOL0     C77121  10.180   1.017   1.674 -0.1519  0.3571 -0.0373
  572MOL0     C77122  10.289   0.946   1.756  0.0801 -0.7398  0.2824
  572MOL0     C77123  10.401   1.039   1.780 -0.4685 -0.2264  0.3307
  572MOL0     C77124  10.530   0.963   1.831  0.4053  0.2286  0.6231
  572MOL0     C77125  10.659   1.053   1.835 -0.2072  0.0026 -1.1302
  572MOL0     C77126  10.636   1.174   1.926  0.8548  0.0187  0.2554
  572MOL0     C77127  10.768   1.250   1.949  1.5681 -0.1310 -0.0384
  572MOL0     C77128  10.825   1.197   2.081  0.2432  0.0721 -0.3662
  572MOL0    Cl77129  10.748   1.278   2.228 -0.1966  0.2028  0.3768
  572MOL0     C77130   9.843   0.881   1.663  0.4408 -0.6637 -0.3800
  572MOL0     C77131   9.717   0.889   1.594 -0.5457 -0.2767  0.5549
  572MOL0     O77132   9.661   0.899   1.248 -0.3584 -0.0992  0.1682
  572MOL0     C77133   9.393   0.890   1.143  0.6640 -0.1262  0.1911
  572MOL0     C77134   9.262   0.901   1.088 -0.2049  0.0770  0.6585
  572MOL0     N77135   8.540   1.176   1.139 -0.4559 -0.2505  0.5369
  572MOL0     N77136   8.444   1.263   1.134 -0.6545 -0.1701 -0.9677
  572MOL0     C77137   7.508   1.292   1.601  0.4560  0.5719  0.8492
  572MOL0     C77138   7.391   1.324   1.662 -0.2420  0.1025  0.7791
  572MOL0     C77139   7.041   1.249   1.911  0.6027  0.3121 -0.6374
  572MOL0     C77140   6.984   1.152   2.002  1.2086  0.2707 -1.1471
  572MOL0     C77141   6.872   1.181   2.086 -0.0618 -0.0835 -0.0420
  572MOL0     C77142   6.813   1.306   2.075  0.2953 -0.9199 -0.7087
  572MOL0     O77143   6.715   1.355   2.152  0.2576  0.5959  0.5294
  572MOL0     C77144   6.656   1.290   2.259 -1.0321  1.2745 -0.8067
  572MOL0     C77145   6.732   1.291   2.392 -0.1707 -0.1607 -0.2480
  572MOL0     C77146   6.707   1.421   2.470  0.4300 -0.4352 -1.0048
  572MOL0     C77147   6.797   1.438   2.596 -0.6117 -0.1464 -0.2549
  572MOL0     C77148   6.942   1.440   2.564 -0.4684  0.4923 -0.3988
  572MOL0     C77149   7.062   1.423   2.536 -0.6804  0.0544 -0.1878
  572MOL0     C77150   6.866   1.394   1.986  0.0501  0.1121 -0.2369
  572MOL0     C77151   6.981   1.373   1.906  0.5540  0.3253 -0.6859
  572MOL0     C77152   7.029   1.491   1.820 -0.1854  0.6101 -0.1581
  572MOL0     H77153   7.200   1.065   1.551 -0.2651  0.5536  1.4675
  572MOL0     H77154   7.417   1.021   1.428 -1.7580  1.1710 -1.6394
  572MOL0     H77155   7.694   1.324   1.381 -1.9784 -0.9536 -0.4074
  572MOL0     H77156   7.784   1.263   1.529  0.8018  1.7649  0.1688
  572MOL0     H77157   7.807   1.135   1.252  2.0497 -1.2488  0.2139
  572MOL0     H77158   7.897   1.091   1.396 -0.9230  1.5169  2.9858
  572MOL0     H77159   8.040   1.213   1.257  0.5718  0.8932 -0.6558
  572MOL0     H77160   7.992   1.325   1.385  1.7529 -2.5684  0.8961
  572MOL0     H77161   7.845   1.302   1.124 -0.9452  1.0599 -0.4548
  572MOL0     H77162   7.862   1.450   1.220 -3.2710 -0.6129 -3.4368
  572MOL0     H77163   8.011   1.498   1.069 -2.3472 -0.9767  1.0986
  572MOL0     H77164   8.120   1.424   1.190  0.8545 -3.0605  0.6979
  572MOL0     H77165   8.145   1.228   1.067  0.7091  0.4789  1.6751
  572MOL0     H77166   8.003   1.265   0.966  0.2163 -1.5445  1.0674
  572MOL0     H77167   8.147   1.453   0.856  0.4385  1.4343  0.4909
  572MOL0     H77168   8.221   1.287   0.831  1.5323  1.1509  0.0112
  572MOL0     H77169   8.388   1.443   0.878 -0.7062 -3.5508 -2.8350
  572MOL0     H77170   8.312   1.473   1.042  0.3255  0.3131  0.7371
  572MOL0     H77171   8.426   1.173   0.826 -0.0410 -0.2016  0.0955
  572MOL0     H77172   8.588   0.925   0.961 -1.0110  0.0785  0.8904
  572MOL0     H77173   8.674   1.047   0.857  4.1152 -1.2862  0.9421
  572MOL0     H77174   8.768   0.994   1.138  1.6415  2.8954 -0.1465
  572MOL0     H77175   8.819   0.908   0.996 -0.0157 -0.4105  1.3640
  572MOL0     H77176   8.796   1.212   1.047 -0.5831 -1.3129  0.2054
  572MOL0     H77177   8.876   1.144   0.906 -0.8792  1.2521 -0.5031
  572MOL0     H77178   8.950   1.126   1.196 -0.5147  1.8131  0.6642
  572MOL0     H77179   9.023   1.232   1.066 -0.8538 -0.3010 -0.8054
  572MOL0     H77180   9.143   1.133   1.297  0.4287 -0.4039  0.0536
  572MOL0     H77181   9.349   1.114   1.395 -0.0086  3.2424 -1.7866
  572MOL0     H77182   9.791   1.168   1.423 -1.2312 -1.5302 -2.5794
  572MOL0     H77183  10.005   1.149   1.526 -1.4133  0.8615 -0.9447
  572MOL0     H77184  10.196   1.020   1.566 -2.0268  0.1542 -0.3552
  572MOL0     H77185  10.175   1.121   1.707  0.6739  0.6929 -0.9245
  572MOL0     H77186  10.254   0.906   1.851  0.5630 -1.3452  0.2106
  572MOL0     H77187  10.317   0.859   1.697  0.2250 -0.9440  0.6495
  572MOL0     H77188  10.425   1.087   1.685 -0.0951 -2.1221 -0.5915
  572MOL0     H77189  10.360   1.110   1.852  2.2595  0.6777  1.1267
  572MOL0     H77190  10.556   0.885   1.760 -0.0575 -0.3390  1.0714
  572MOL0     H77191  10.503   0.925   1.930 -0.7780  1.6674  0.8938
  572MOL0     H77192  10.700   1.075   1.736  1.9888 -0.9143 -0.4846
  572MOL0     H77193  10.742   1.000   1.882 -1.3753 -0.8057  0.1150
  572MOL0     H77194  10.556   1.238   1.887  0.3351  0.9355  2.6445
  572MOL0     H77195  10.608   1.133   2.023  2.1312  1.9886  1.5326
  572MOL0     H77196  10.752   1.358   1.958 -1.2066 -0.5802  1.6710
  572MOL0     H77197  10.843   1.231   1.871  0.8039 -0.9909 -0.5867
  572MOL0     H77198  10.823   1.088   2.086  0.1877  0.0793 -0.2291
  572MOL0     H77199  10.931   1.222   2.086 -0.4853  3.9997 -1.2787
  572MOL0     H77200   9.851   0.813   1.746 -0.0406  1.7674  1.7838
  572MOL0     H77201   9.645   0.818   1.632  2.8339 -2.3559  3.8709
  572MOL0     H77202   9.465   0.816   1.108  0.4358  0.0398 -0.6509
  572MOL0     H77203   9.231   0.837   1.006 -2.5586  0.3452  1.2691
  572MOL0     H77204   7.591   1.360   1.620  0.3546  0.8016  0.4887
  572MOL0     H77205   7.376   1.414   1.721  1.6899 -1.2347  3.5006
  572MOL0     H77206   7.024   1.051   2.004  1.1167  0.2403 -0.8587
  572MOL0     H77207   6.845   1.111   2.164 -0.4139  0.2091  0.0967
  572MOL0     H77208   6.647   1.183   2.241  1.4155  0.8424  0.2455
  572MOL0     H77209   6.555   1.329   2.278 -0.7516  1.4076  0.5334
  572MOL0     H77210   6.839   1.282   2.371 -0.3699  2.2048 -2.7002
  572MOL0     H77211   6.702   1.209   2.459 -0.1004  1.4530  1.8628
  572MOL0     H77212   6.607   1.418   2.514  0.7877 -1.8220 -0.2174
  572MOL0     H77213   6.725   1.508   2.406  0.1481 -1.0258 -1.9073
  572MOL0     H77214   6.781   1.540   2.632  1.1049  0.8226 -2.0131
  572MOL0     H77215   6.776   1.365   2.674  2.9033 -4.2389 -2.6971
  572MOL0     H77216   7.166   1.427   2.509 -0.6851 -0.3681 -0.2665
  572MOL0     H77217   6.822   1.493   1.979  2.7454  1.4344  0.1597
  572MOL0     H77218   6.966   1.578   1.841  0.4444  1.6254 -2.2199
  572MOL0     H77219   7.133   1.524   1.822 -0.4016  1.4615 -1.6641
  572MOL0     H77220   7.008   1.464   1.716  0.0609  0.0312 -0.0602
  573MOL0     O77221   3.385   6.102   6.831 -0.2400  0.2470  0.5028
  573MOL0     C77222   3.468   6.115   6.740 -0.0938  0.4440 -0.4735
  573MOL0     O77223   3.565   6.024   6.703 -0.2106 -0.0599 -0.5060
  573MOL0     C77224   3.608   5.920   6.779 -0.2904 -1.5342 -0.6127
  573MOL0     C77225   3.732   5.874   6.761 -0.9600 -0.3939  0.0535
  573MOL0     C77226   3.790   5.763   6.825 -0.1435 -0.1825  0.1489
  573MOL0     C77227   3.704   5.683   6.904 -0.7950 -0.1291  0.8531
  573MOL0     O77228   3.738   5.566   6.970  1.1790  0.2411  0.0853
  573MOL0     C77229   3.865   5.511   6.953  0.0944 -1.0101  0.1966
  573MOL0     C77230   3.868   5.440   6.816  0.8856 -0.0681 -0.4382
  573MOL0     C77231   4.000   5.389   6.788 -0.4238  0.4539 -0.7590
  573MOL0     C77232   3.989   5.308   6.656 -0.0806  0.2054  0.3070
  573MOL0     C77233   4.127   5.238   6.632  0.3821  0.2305  0.1865
  573MOL0     C77234   4.246   5.325   6.596 -0.0370 -0.0296 -0.3580
  573MOL0     C77235   4.232   5.386   6.459  0.3050 -0.0055  0.3332
  573MOL0     C77236   4.280   5.290   6.348  0.8862  0.1740 -0.0318
  573MOL0     N77237   4.412   5.234   6.363  0.4289  0.4419  0.7970
  573MOL0     C77238   4.529   5.304   6.369 -0.2847  0.5490  0.8368
  573MOL0     C77239   4.624   5.207   6.372 -0.0571  0.4203 -0.2612
  573MOL0     C77240   4.765   5.243   6.340 -0.1998  0.2747 -0.1115
  573MOL0     C77241   4.869   5.201   6.444  0.5279 -0.6607  0.0599
  573MOL0     C77242   4.841   5.263   6.576 -0.2525 -1.1875 -0.9243
  573MOL0     C77243   4.856   5.418   6.568  0.4860 -0.4036 -0.9281
  573MOL0     O77244   4.876   5.467   6.706  0.2623 -0.1678 -0.1243
  573MOL0     C77245   4.867   5.596   6.743  0.4094  0.1548 -0.0825
  573MOL0     C77246   4.889   5.612   6.882 -0.4037 -0.2298  0.4640
  573MOL0     C77247   4.885   5.736   6.938  0.6731 -1.1216  0.2637
  573MOL0     C77248   4.848   5.852   6.865  0.3890  0.0292  0.1533
  573MOL0     C77249   4.836   5.988   6.927 -0.2423  0.1257 -0.3027
  573MOL0     O77250   4.782   6.092   6.843  0.2049  1.0516 -0.2607
  573MOL0     C77251   4.809   6.215   6.884  0.1573 -0.1726  0.0749
  573MOL0     C77252   4.936   6.269   6.853  0.3863  0.3012  0.5395
  573MOL0     C77253   4.957   6.397   6.891 -0.2371 -0.8317 -0.3053
  573MOL0     C77254   4.858   6.470   6.950 -0.8139 -0.5763  0.0875
  573MOL0     O77255   4.862   6.596   6.990  0.3803 -0.7634 -0.6417
  573MOL0     C77256   4.964   6.688   6.954  0.0013 -0.9785  0.9337
  573MOL0     C77257   4.925   6.827   7.005  0.3548  0.2387  0.7656
  573MOL0     C77258   5.026   6.938   6.968  0.0458  1.1757  0.3314
  573MOL0     C77259   5.169   6.903   7.019 -0.3465  0.3034 -0.0198
  573MOL0     C77260   5.275   7.004   6.957  0.2667  0.2048 -0.3871
  573MOL0     C77261   5.296   6.960   6.814  0.1241 -0.4764  0.0404
  573MOL0     C77262   5.373   7.072   6.748  0.1804 -0.6326  0.3949
  573MOL0     C77263   5.382   7.044   6.604  0.4240  0.4817  0.1294
  573MOL0    Cl77264   5.484   6.890   6.580 -0.0709 -0.3940  0.0288
  573MOL0     C77265   4.737   6.413   6.981  0.1481  1.0532 -0.6897
  573MOL0     C77266   4.710   6.281   6.953  0.2820  0.2781 -0.5254
  573MOL0     O77267   4.885   6.000   7.046  0.2214  0.3028 -0.4993
  573MOL0     C77268   4.820   5.831   6.733  0.4235  0.8275  0.2359
  573MOL0     C77269   4.822   5.705   6.667 -0.4496 -1.3043 -0.0961
  573MOL0     N77270   4.565   5.085   6.367 -0.8503 -0.1495 -0.3755
  573MOL0     N77271   4.436   5.102   6.371 -0.0277 -0.3805 -0.2634
  573MOL0     C77272   3.567   5.719   6.911  0.1954  0.4128  0.2877
  573MOL0     C77273   3.520   5.830   6.846 -0.1312 -0.5401  0.0709
  573MOL0     C77274   3.483   6.241   6.656  0.8795  0.8648  0.7929
  573MOL0     C77275   3.561   6.248   6.536 -0.2385  0.6725 -0.1525
  573MOL0     C77276   3.584   6.366   6.468  0.0504  0.1151 -0.4324
  573MOL0     C77277   3.515   6.486   6.495  0.0690  0.4535 -0.2342
  573MOL0     O77278   3.536   6.585   6.404 -0.2050  0.4460 -0.8840
  573MOL0     C77279   3.451   6.697   6.424  0.4995  0.0162 -0.1866
  573MOL0     C77280   3.522   6.795   6.521  0.3870  0.0386  0.4219
  573MOL0     C77281   3.640   6.866   6.445  0.1215 -0.2079 -0.5639
  573MOL0     C77282   3.674   7.004   6.513 -0.1764  0.2232 -0.6365
  573MOL0     C77283   3.776   6.991   6.620  0.0297 -0.1450 -0.7160
  573MOL0     C77284   3.855   6.983   6.715  0.4562 -0.4793  0.5000
  573MOL0     C77285   3.438   6.486   6.611 -0.3146 -0.1466  0.4163
  573MOL0     C77286   3.428   6.370   6.696  0.1680 -0.5612 -0.7906
  573MOL0     C77287   3.349   6.389   6.824  0.6021  0.2204 -0.7370
  573MOL0     H77288   3.791   5.924   6.685 -0.0515 -1.1382  0.2455
  573MOL0     H77289   3.891   5.730   6.803  0.2744 -1.1450  3.0740
  573MOL0     H77290   3.939   5.591   6.960 -2.3401  1.4045  0.1769
  573MOL0     H77291   3.879   5.433   7.029 -2.9589  0.0065  2.0063
  573MOL0     H77292   3.848   5.513   6.737  1.2727  2.7872  1.8876
  573MOL0     H77293   3.797   5.357   6.804  1.5744 -1.8989  5.2319
  573MOL0     H77294   4.029   5.333   6.877 -1.0009  1.4189  0.0426
  573MOL0     H77295   4.069   5.472   6.773  2.8933 -1.2779  2.9835
  573MOL0     H77296   3.915   5.229   6.673  1.4038 -1.2025  0.5751
  573MOL0     H77297   3.953   5.370   6.574  2.1777  0.3983 -0.6082
  573MOL0     H77298   4.152   5.182   6.723 -1.9301  0.4712  1.0398
  573MOL0     H77299   4.106   5.167   6.552 -1.7180  0.8612  0.1297
  573MOL0     H77300   4.257   5.406   6.668 -2.2171  1.2908 -1.4263
  573MOL0     H77301   4.345   5.278   6.595  1.1481  2.3351 -1.5108
  573MOL0     H77302   4.296   5.474   6.466 -0.5794  0.6765  0.0005
  573MOL0     H77303   4.127   5.407   6.437 -0.6557 -2.1739  2.2895
  573MOL0     H77304   4.208   5.210   6.330  2.5261 -0.8047 -2.9124
  573MOL0     H77305   4.276   5.343   6.252  1.3605 -1.4237 -0.9602
  573MOL0     H77306   4.542   5.412   6.363 -0.9897  0.5682 -2.0944
  573MOL0     H77307   4.782   5.202   6.241 -1.7008 -2.8672  0.8229
  573MOL0     H77308   4.777   5.351   6.327 -0.4270  0.3939  0.6172
  573MOL0     H77309   4.873   5.093   6.463 -1.3436 -0.9756 -1.0493
  573MOL0     H77310   4.968   5.237   6.416  1.1037 -1.0304  1.5417
  573MOL0     H77311   4.926   5.240   6.642 -0.1738  1.7020  0.0994
  573MOL0     H77312   4.752   5.237   6.634 -0.4533  1.9023  0.3151
  573MOL0     H77313   4.772   5.463   6.514 -0.3850 -1.8843 -0.8454
  573MOL0     H77314   4.936   5.438   6.496  0.7769 -3.0015 -1.4240
  573MOL0     H77315   4.915   5.526   6.944 -1.9917 -1.0393  0.0583
  573MOL0     H77316   4.909   5.756   7.042 -0.6321  2.1217  0.0416
  573MOL0     H77317   5.014   6.209   6.807 -1.1394  1.0539 -3.4851
  573MOL0     H77318   5.051   6.443   6.865 -1.1144  0.3061 -1.6026
  573MOL0     H77319   5.057   6.659   7.004  0.9722  0.6951  0.1747
  573MOL0     H77320   4.979   6.686   6.846  0.4753 -1.7096  1.0068
  573MOL0     H77321   4.835   6.855   6.950  0.3059  0.1398  0.7937
  573MOL0     H77322   4.902   6.816   7.112 -0.7223 -2.4365  0.3364
  573MOL0     H77323   5.023   6.957   6.860 -0.1482  0.7880  0.2661
  573MOL0     H77324   4.996   7.035   7.007 -0.8396  1.4580 -0.9806
  573MOL0     H77325   5.209   6.802   7.004 -1.5176 -0.5281  2.0829
  573MOL0     H77326   5.153   6.904   7.127 -3.5396  0.4415 -0.3960
  573MOL0     H77327   5.362   7.001   7.023  0.3602 -0.3722 -0.5303
  573MOL0     H77328   5.236   7.106   6.969  2.1827  1.0072 -0.7324
  573MOL0     H77329   5.335   6.858   6.813  0.0783 -0.4924 -0.8233
  573MOL0     H77330   5.200   6.965   6.761  0.7217 -0.1416 -1.0266
  573MOL0     H77331   5.475   7.064   6.787  0.3430  0.4937  0.2558
  573MOL0     H77332   5.331   7.170   6.773 -0.0627 -0.8594  0.8925
  573MOL0     H77333   5.287   7.014   6.559  0.6017 -2.8375  1.6833
  573MOL0     H77334   5.420   7.130   6.549  1.3327 -0.0951 -0.1671
  573MOL0     H77335   4.651   6.468   7.017 -1.4020 -1.1221 -0.8879
  573MOL0     H77336   4.619   6.224   6.966 -0.4539  1.5648  0.2345
  573MOL0     H77337   4.800   5.919   6.672 -0.0513 -1.2008 -2.7515
  573MOL0     H77338   4.780   5.678   6.571 -0.1816 -3.2902  0.3146
  573MOL0     H77339   3.488   5.666   6.963  2.4785 -1.7537  1.7964
  573MOL0     H77340   3.415   5.846   6.868  0.5778  0.6646  2.9900
  573MOL0     H77341   3.612   6.157   6.505  2.8915  1.4341  2.2667
  573MOL0     H77342   3.645   6.373   6.379  0.1694  0.8990 -0.2978
  573MOL0     H77343   3.349   6.671   6.454 -0.4544  1.7123 -1.7952
  573MOL0     H77344   3.434   6.750   6.329 -0.7939 -1.9012 -1.0999
  573MOL0     H77345   3.569   6.732   6.597  1.2100  1.1566  0.8741
  573MOL0     H77346   3.451   6.867   6.561  0.8767  0.5189  0.4350
  573MOL0     H77347   3.609   6.892   6.344  0.7303  1.5914 -0.3194
  573MOL0     H77348   3.730   6.806   6.427 -0.9238 -1.3899 -2.1827
  573MOL0     H77349   3.717   7.078   6.445  1.8848 -0.5198 -0.2270
  573MOL0     H77350   3.581   7.042   6.554 -2.1406 -5.6570  1.4448
  573MOL0     H77351   3.929   6.969   6.791  1.6726 -2.9405 -0.9984
  573MOL0     H77352   3.396   6.582   6.640  3.4756  1.7861  0.0816
  573MOL0     H77353   3.413   6.381   6.912  0.9512  1.4474 -0.8667
  573MOL0     H77354   3.307   6.489   6.833 -0.4194 -0.2228 -0.4405
  573MOL0     H77355   3.263   6.322   6.818  1.6792 -1.1651 -1.2146
  574MOL0     O77356   1.114   0.521   6.072  1.2366 -0.1930  0.1409
  574MOL0     C77357   1.134   0.403   6.058 -0.3931  0.3812  0.1452
  574MOL0     O77358   1.254   0.346   6.021  0.6280 -0.8246 -0.1890
  574MOL0     C77359   1.369   0.418   6.005  0.6774  0.0425  0.2537
  574MOL0     C77360   1.438   0.433   5.881  0.1206  0.3898 -1.0082
  574MOL0     C77361   1.557   0.502   5.871 -0.0736  0.6566 -0.5784
  574MOL0     C77362   1.620   0.558   5.988  0.0807  0.5016 -0.4317
  574MOL0     O77363   1.747   0.613   5.983 -0.1680 -0.2694 -0.2830
  574MOL0     C77364   1.812   0.617   5.851  0.2531 -0.0186 -0.1997
  574MOL0     C77365   1.944   0.688   5.870  0.6477  0.2670 -0.4444
  574MOL0     C77366   2.035   0.621   5.982  0.7788  0.0767 -0.0780
  574MOL0     C77367   2.117   0.510   5.934  0.5899 -0.1426  0.0059
  574MOL0     C77368   2.266   0.537   5.891 -0.3496  0.2186 -0.1144
  574MOL0     C77369   2.345   0.567   6.013 -0.0063 -0.3291 -0.2296
  574MOL0     C77370   2.496   0.542   6.000  0.3947  0.3894  0.1377
  574MOL0     C77371   2.532   0.395   5.968  0.3168 -0.3713  0.1794
  574MOL0     N77372   2.669   0.363   5.980 -0.3994 -0.6323 -0.1482
  574MOL0     C77373   2.726   0.238   6.001  0.3471  0.1943 -0.0244
  574MOL0     C77374   2.862   0.262   5.982  0.2113  0.5464 -1.0607
  574MOL0     C77375   2.974   0.161   6.010  0.2229  0.0087  0.2028
  574MOL0     C77376   3.017   0.183   6.157  0.3603  0.8805 -0.3823
  574MOL0     C77377   3.087   0.324   6.183  0.2373  0.8782 -0.2752
  574MOL0     C77378   3.227   0.329   6.110 -0.6370  0.1416  0.1049
  574MOL0     O77379   3.333   0.254   6.171 -0.7972  0.4886 -0.3248
  574MOL0     C77380   3.452   0.238   6.097  0.0958 -0.2768  0.8707
  574MOL0     C77381   3.541   0.133   6.132  0.4755  0.6696 -0.3449
  574MOL0     C77382   3.659   0.104   6.060 -0.0068 -0.8043 -0.7139
  574MOL0     C77383   3.687   0.182   5.953 -1.2045 -0.1325  0.0298
  574MOL0     C77384   3.823   0.163   5.875 -0.3023 -0.1847  0.3759
  574MOL0     O77385   3.856   0.240   5.770 -0.6190  0.6848 -0.0999
  574MOL0     C77386   3.979   0.229   5.714 -0.1344  0.5598  0.7915
  574MOL0     C77387   3.989   0.171   5.586  0.8295  0.3443  0.2000
  574MOL0     C77388   4.111   0.142   5.527 -0.1172  0.0081 -0.3463
  574MOL0     C77389   4.235   0.179   5.589 -0.7647  0.9029  0.5871
  574MOL0     O77390   4.352   0.150   5.523 -0.1618  0.2349  0.2177
  574MOL0     C77391   4.466   0.133   5.608 -0.1732 -0.4896 -0.6315
  574MOL0     C77392   4.576   0.086   5.517 -0.0732  0.1926 -0.8181
  574MOL0     C77393   4.696   0.056   5.597 -0.2902  0.0790 -0.0102
  574MOL0     C77394   4.797  -0.023   5.516 -0.4378 -0.0694  0.4468
  574MOL0     C77395   4.926  -0.063   5.594 -0.4601  0.3655 -0.0502
  574MOL0     C77396   5.024  -0.143   5.514  0.9750 -0.5838 -0.1829
  574MOL0     C77397   5.159  -0.143   5.595 -0.0434  0.1874  0.2450
  574MOL0     C77398   5.263  -0.220   5.527  0.3479  0.6389  0.9384
  574MOL0    Cl77399   5.424  -0.223   5.615  0.5366  0.2693  0.1747
  574MOL0     C77400   4.228   0.251   5.713 -0.3793  0.5527  0.1880
  574MOL0     C77401   4.101   0.268   5.778  0.4291  0.0944 -0.5892
  574MOL0     O77402   3.899   0.077   5.922 -0.0711 -0.8303 -0.2807
  574MOL0     C77403   3.606   0.288   5.915  0.4813 -0.3191 -0.1403
  574MOL0     C77404   3.489   0.322   5.990  0.2613 -0.1778  0.1761
  574MOL0     N77405   2.882   0.398   5.952  0.6870 -0.2506  0.4670
  574MOL0     N77406   2.772   0.461   5.957 -0.7043  0.0620 -0.3828
  574MOL0     C77407   1.548   0.564   6.105 -0.0475  0.6964 -0.4922
  574MOL0     C77408   1.432   0.489   6.114  0.0801  0.2407 -0.6435
  574MOL0     C77409   1.032   0.295   6.095  1.0985  0.4970  0.6515
  574MOL0     C77410   1.066   0.159   6.087 -1.0744 -0.2133 -0.1290
  574MOL0     C77411   0.977   0.059   6.103 -0.9574 -0.5687  0.6487
  574MOL0     C77412   0.845   0.086   6.134 -0.0542  0.6242  0.4118
  574MOL0     O77413   0.745  -0.012   6.134 -0.3468 -0.5508 -0.4060
  574MOL0     C77414   0.781  -0.150   6.149 -0.7463  0.4845 -0.2316
  574MOL0     C77415   0.673  -0.240   6.202 -0.4715  0.5219  0.1194
  574MOL0     C77416   0.539  -0.230   6.136  1.0989  0.6279  0.3535
  574MOL0     C77417   0.467  -0.362   6.130  0.0530  0.4946  0.4309
  574MOL0     C77418   0.419  -0.401   6.263  0.8341  0.3006 -0.7753
  574MOL0     C77419   0.388  -0.448   6.372 -0.3091 -0.2893 -0.5250
  574MOL0     C77420   0.803   0.216   6.159 -0.1658  0.0797  0.2345
  574MOL0     C77421   0.893   0.323   6.138 -0.6970 -0.5671 -0.0894
  574MOL0     C77422   0.847   0.467   6.172 -0.2220  0.3557 -0.1554
  574MOL0     H77423   1.393   0.392   5.791 -1.4902  1.3534 -0.6810
  574MOL0     H77424   1.596   0.506   5.770 -0.0058  1.1153 -0.5364
  574MOL0     H77425   1.823   0.518   5.805 -1.5458 -0.5586  0.4501
  574MOL0     H77426   1.749   0.671   5.780 -2.3377 -1.3234  0.9970
  574MOL0     H77427   1.913   0.784   5.910  0.6713  0.1458 -0.1301
  574MOL0     H77428   1.991   0.705   5.772  1.7069 -2.5718 -0.5264
  574MOL0     H77429   1.965   0.586   6.058 -1.2674 -1.0017 -2.3137
  574MOL0     H77430   2.094   0.701   6.028 -2.4104  1.4215  2.0414
  574MOL0     H77431   2.122   0.425   6.003 -2.4391 -1.1606 -0.9021
  574MOL0     H77432   2.066   0.467   5.847  0.0967 -1.0077  0.7095
  574MOL0     H77433   2.296   0.441   5.850 -0.2765  0.0598  0.3068
  574MOL0     H77434   2.286   0.613   5.815 -2.3700  1.8044  0.8431
  574MOL0     H77435   2.335   0.675   6.029  1.8138  0.0961 -1.6176
  574MOL0     H77436   2.307   0.514   6.101 -2.6529  3.5168  1.2012
  574MOL0     H77437   2.540   0.578   6.093 -0.1880  1.0264  0.1730
  574MOL0     H77438   2.530   0.597   5.912 -1.2983 -3.0873 -2.9876
  574MOL0     H77439   2.474   0.320   6.022 -0.7061  0.3259  0.0865
  574MOL0     H77440   2.506   0.380   5.863 -0.4217  2.2586 -0.0815
  574MOL0     H77441   2.679   0.146   6.036 -0.1575  0.1154 -0.8636
  574MOL0     H77442   2.939   0.059   5.991 -0.4173  0.3456 -0.5322
  574MOL0     H77443   3.046   0.185   5.930 -1.3362  1.4752 -0.8477
  574MOL0     H77444   2.928   0.174   6.219 -0.5866 -0.6996 -1.8746
  574MOL0     H77445   3.092   0.109   6.189  0.0915  1.2822  1.2764
  574MOL0     H77446   3.103   0.328   6.291 -0.9829 -2.8465  0.2118
  574MOL0     H77447   3.023   0.408   6.156 -1.9098 -0.6097 -0.1221
  574MOL0     H77448   3.264   0.432   6.104  0.5642 -0.3646 -2.2737
  574MOL0     H77449   3.212   0.309   6.004 -0.9178  4.2177 -0.7988
  574MOL0     H77450   3.517   0.076   6.221  0.0283  0.5529 -0.5360
  574MOL0     H77451   3.711   0.015   6.093 -0.0954  0.2418  2.6317
  574MOL0     H77452   3.893   0.137   5.547 -0.8222  1.8705  2.6799
  574MOL0     H77453   4.114   0.093   5.430  2.0571  1.8569 -1.3014
  574MOL0     H77454   4.509   0.226   5.647  1.8865 -3.1333  4.4056
  574MOL0     H77455   4.437   0.070   5.693 -1.2439 -0.8898 -1.2760
  574MOL0     H77456   4.540   0.002   5.456  1.5244  0.7654 -2.6863
  574MOL0     H77457   4.588   0.168   5.444 -1.3525  2.4714  1.3715
  574MOL0     H77458   4.737   0.152   5.630 -1.3250  0.7350 -0.6128
  574MOL0     H77459   4.671  -0.006   5.684 -1.8808 -1.3665 -1.4320
  574MOL0     H77460   4.830   0.039   5.432 -1.0889  1.9016  1.5827
  574MOL0     H77461   4.752  -0.116   5.480  0.6646 -0.1538 -0.8095
  574MOL0     H77462   4.901  -0.119   5.685 -1.9027  1.2240  0.1081
  574MOL0     H77463   4.985   0.020   5.634  0.7553 -0.0281 -0.9663
  574MOL0     H77464   4.990  -0.245   5.496  2.3345 -0.7689 -2.1066
  574MOL0     H77465   5.046  -0.097   5.417 -0.4822  2.8162  0.9365
  574MOL0     H77466   5.141  -0.191   5.692  0.0132 -2.2093 -0.8627
  574MOL0     H77467   5.195  -0.044   5.624 -0.2703  0.3190  0.0802
  574MOL0     H77468   5.213  -0.316   5.517 -0.8156  1.4159 -1.3592
  574MOL0     H77469   5.280  -0.195   5.422 -2.7267 -0.5881  0.0386
  574MOL0     H77470   4.324   0.284   5.753  0.0589 -2.5890  2.0278
  574MOL0     H77471   4.094   0.332   5.865 -2.2211  0.5915 -1.0820
  574MOL0     H77472   3.640   0.344   5.829 -1.5757 -1.8177 -2.0469
  574MOL0     H77473   3.435   0.414   5.969  1.5715  0.5290 -0.1718
  574MOL0     H77474   1.588   0.617   6.191 -0.9649  1.1398 -0.3194
  574MOL0     H77475   1.386   0.503   6.211  3.2734  1.6455  0.7998
  574MOL0     H77476   1.164   0.134   6.047 -0.7631  1.3521 -0.4289
  574MOL0     H77477   1.014  -0.041   6.081 -1.2352 -0.4078 -0.6535
  574MOL0     H77478   0.876  -0.163   6.202  0.9880  0.6304 -3.1245
  574MOL0     H77479   0.807  -0.186   6.050 -2.8294 -1.8370 -0.0384
  574MOL0     H77480   0.663  -0.211   6.307 -1.6659 -0.0653  0.1830
  574MOL0     H77481   0.712  -0.341   6.219 -2.5673 -0.9843 -3.1358
  574MOL0     H77482   0.549  -0.195   6.033  2.3626 -1.1865 -0.1879
  574MOL0     H77483   0.482  -0.155   6.192 -1.5230 -1.4386  0.6499
  574MOL0     H77484   0.384  -0.355   6.059  2.1226 -2.4390 -2.5791
  574MOL0     H77485   0.532  -0.437   6.084  0.5676  0.5523  1.0473
  574MOL0     H77486   0.350  -0.481   6.467  0.1261 -2.3605 -1.0344
  574MOL0     H77487   0.698   0.234   6.180 -0.5270  0.5606 -1.8069
  574MOL0     H77488   0.929   0.512   6.229  1.8468 -0.8013 -2.0776
  574MOL0     H77489   0.842   0.516   6.075 -2.2905 -0.1832 -0.3591
  574MOL0     H77490   0.755   0.472   6.231 -0.1033 -2.0915  0.3245
  575MOL0     O77491   3.492   2.220  10.638  0.0786  0.8858 -0.4466
  575MOL0     C77492   3.410   2.305  10.671 -0.3480  0.4905 -0.4654
  575MOL0     O77493   3.437   2.439  10.657 -0.1840 -0.5671  0.2647
  575MOL0     C77494   3.559   2.474  10.597  0.4166  0.7025  0.0491
  575MOL0     C77495   3.659   2.543  10.663 -0.5418  0.7065 -0.0064
  575MOL0     C77496   3.782   2.578  10.609 -0.1989  1.1239  2.0412
  575MOL0     C77497   3.809   2.551  10.472  0.1570 -0.1215  0.1067
  575MOL0     O77498   3.927   2.592  10.412 -0.7174 -0.6570 -0.4610
  575MOL0     C77499   3.923   2.725  10.359 -0.3095 -0.2690  0.0224
  575MOL0     C77500   4.016   2.828  10.430  0.5772 -0.4197  0.1040
  575MOL0     C77501   4.164   2.789  10.425  0.0274  0.3054 -0.2801
  575MOL0     C77502   4.235   2.919  10.477 -0.3043  0.5240 -0.2235
  575MOL0     C77503   4.388   2.889  10.489 -0.5944  0.4960 -0.1888
  575MOL0     C77504   4.460   2.850  10.356  0.6039  0.2949 -0.2962
  575MOL0     C77505   4.605   2.883  10.351 -0.9173 -0.1630  0.2185
  575MOL0     C77506   4.639   3.029  10.300 -0.2070  0.3961  0.0425
  575MOL0     N77507   4.786   3.047  10.313 -0.1709  0.2679  0.3140
  575MOL0     C77508   4.882   2.994  10.229  0.2481 -0.4654 -0.2974
  575MOL0     C77509   5.000   3.015  10.292 -0.1935 -0.0562 -0.0227
  575MOL0     C77510   5.137   2.964  10.249  0.6985 -0.2206  0.2341
  575MOL0     C77511   5.149   2.917  10.101 -0.2618 -0.9969 -0.1427
  575MOL0     C77512   5.276   2.832  10.081 -0.6519  0.9201  0.2484
  575MOL0     C77513   5.416   2.907  10.067 -0.1379  0.2428 -0.5265
  575MOL0     O77514   5.429   2.949   9.935 -0.2709 -0.1027  0.6755
  575MOL0     C77515   5.545   3.005   9.890  0.0457  0.0917  0.2475
  575MOL0     C77516   5.555   3.031   9.754 -0.0224 -0.1233  0.0083
  575MOL0     C77517   5.672   3.078   9.689  0.2768 -0.7659 -0.1001
  575MOL0     C77518   5.790   3.112   9.770  0.4995 -0.1567 -0.3238
  575MOL0     C77519   5.899   3.197   9.712  0.6539  0.8647  0.0249
  575MOL0     O77520   5.989   3.238   9.803  0.7247  0.1784 -0.1138
  575MOL0     C77521   6.107   3.276   9.744  0.2224 -0.5635 -0.5034
  575MOL0     C77522   6.189   3.187   9.699  0.5857  0.2119 -0.2096
  575MOL0     C77523   6.301   3.211   9.614 -0.3929  0.6595 -0.0352
  575MOL0     C77524   6.327   3.348   9.601  0.6024  0.8500  0.4665
  575MOL0     O77525   6.445   3.370   9.533  0.2317  0.1464 -0.1770
  575MOL0     C77526   6.524   3.490   9.557  0.0063  0.7203  0.0088
  575MOL0     C77527   6.653   3.481   9.474  0.6581  0.7852  0.5819
  575MOL0     C77528   6.775   3.540   9.546  0.5748 -0.5915 -0.8506
  575MOL0     C77529   6.901   3.561   9.455 -0.0248  0.6718 -0.4679
  575MOL0     C77530   7.016   3.620   9.548  1.2467  0.5432 -0.3294
  575MOL0     C77531   7.132   3.644   9.459 -0.3559  0.1931  0.5029
  575MOL0     C77532   7.256   3.690   9.538 -0.5741 -0.0963 -0.0066
  575MOL0     C77533   7.338   3.570   9.598  0.5553  0.2097  0.8325
  575MOL0    Cl77534   7.489   3.611   9.684  0.0559 -0.0068  0.3111
  575MOL0     C77535   6.257   3.451   9.665  0.7987 -0.8811  0.4430
  575MOL0     C77536   6.143   3.414   9.734 -0.0747  0.9472 -0.7535
  575MOL0     O77537   5.900   3.204   9.586 -0.0871  0.1152  0.4607
  575MOL0     C77538   5.779   3.084   9.908 -0.3649  0.3324  0.5850
  575MOL0     C77539   5.656   3.028   9.965  0.3511 -0.5899 -0.5020
  575MOL0     N77540   4.975   3.096  10.396 -0.0218 -0.3304 -0.1515
  575MOL0     N77541   4.848   3.117  10.405  0.1266 -0.1817  0.0755
  575MOL0     C77542   3.708   2.473  10.400 -1.5712  0.6587 -0.4073
  575MOL0     C77543   3.590   2.430  10.468 -0.0791 -0.9895  0.2916
  575MOL0     C77544   3.289   2.256  10.734 -0.2286  1.2830  0.0815
  575MOL0     C77545   3.191   2.354  10.772  0.4418 -0.2487 -0.9841
  575MOL0     C77546   3.068   2.320  10.833  0.0061  0.3581 -0.1695
  575MOL0     C77547   3.052   2.193  10.880  0.5585 -0.6295  0.1762
  575MOL0     O77548   2.943   2.153  10.955 -1.0047 -0.0499  0.0193
  575MOL0     C77549   2.864   2.268  11.003  0.1831 -0.1478  0.0189
  575MOL0     C77550   2.773   2.218  11.112 -0.1612  0.2962 -0.0630
  575MOL0     C77551   2.662   2.112  11.083 -0.4035 -0.1805 -0.0103
  575MOL0     C77552   2.628   2.025  11.209  0.0332 -0.2181 -0.0762
  575MOL0     C77553   2.592   2.111  11.321  0.3047 -0.6614  0.1089
  575MOL0     C77554   2.570   2.158  11.433  0.4686 -1.0832 -0.6108
  575MOL0     C77555   3.140   2.091  10.854 -0.0544  0.3899 -0.9874
  575MOL0     C77556   3.259   2.119  10.780  0.0028 -0.5833 -0.1536
  575MOL0     C77557   3.337   1.995  10.744 -0.3457  0.3331 -0.2766
  575MOL0     H77558   3.643   2.562  10.768  1.4905  1.3836  0.2069
  575MOL0     H77559   3.841   2.638  10.677 -0.1619  0.5850  2.4880
  575MOL0     H77560   3.962   2.720  10.257 -0.9815  1.0673 -0.3318
  575MOL0     H77561   3.821   2.763  10.350  0.0459  1.3184  1.8359
  575MOL0     H77562   3.994   2.833  10.537 -0.3269  0.3162 -0.1062
  575MOL0     H77563   4.000   2.929  10.389  1.6225 -0.3784 -0.2351
  575MOL0     H77564   4.189   2.765  10.321 -0.3302  0.3102 -0.3694
  575MOL0     H77565   4.183   2.702  10.488  2.1751 -0.0695 -1.3376
  575MOL0     H77566   4.214   3.002  10.409 -0.5088 -0.9989 -2.0870
  575MOL0     H77567   4.190   2.954  10.570 -0.0822  1.4330 -0.4469
  575MOL0     H77568   4.438   2.980  10.524 -0.1499  0.0281  0.4185
  575MOL0     H77569   4.419   2.816  10.564 -0.9796 -1.3427 -1.7382
  575MOL0     H77570   4.445   2.744  10.330  0.3980 -0.5235  2.7340
  575MOL0     H77571   4.404   2.897  10.275 -0.4797  1.0805  0.8847
  575MOL0     H77572   4.644   2.810  10.279  0.4405  1.1704 -0.4441
  575MOL0     H77573   4.658   2.861  10.445 -0.6168  2.6888  0.7854
  575MOL0     H77574   4.605   3.050  10.198 -0.6099  0.5313  0.2059
  575MOL0     H77575   4.589   3.105  10.360 -0.4673  0.7750 -0.6420
  575MOL0     H77576   4.882   2.934  10.138 -1.8673  1.3707 -1.6084
  575MOL0     H77577   5.212   3.043  10.261  0.0735  0.4221  0.0160
  575MOL0     H77578   5.171   2.881  10.312  3.3119  0.6280  0.0652
  575MOL0     H77579   5.069   2.844  10.088 -1.7605  0.2975  1.2806
  575MOL0     H77580   5.139   3.002  10.033  0.0083 -1.0886 -0.2969
  575MOL0     H77581   5.260   2.776   9.989  2.9748  2.4084 -1.4633
  575MOL0     H77582   5.289   2.760  10.162  2.8602 -0.1097 -1.0907
  575MOL0     H77583   5.493   2.836  10.099  0.4940  1.5853  1.0503
  575MOL0     H77584   5.425   2.995  10.132  0.6059  0.1381 -0.4798
  575MOL0     H77585   5.461   3.019   9.701  0.5392  0.9684 -1.3043
  575MOL0     H77586   5.677   3.107   9.585 -2.6897 -0.6910 -0.3088
  575MOL0     H77587   6.164   3.081   9.702 -0.5273  0.4206 -1.2496
  575MOL0     H77588   6.378   3.145   9.576 -1.2910 -0.1348 -0.5273
  575MOL0     H77589   6.469   3.580   9.529 -1.1215 -0.6934 -2.6981
  575MOL0     H77590   6.556   3.494   9.662  0.2109 -0.7419  0.0324
  575MOL0     H77591   6.674   3.381   9.437 -0.3243  1.6748 -2.7462
  575MOL0     H77592   6.633   3.538   9.383  2.0782 -1.3135 -1.1499
  575MOL0     H77593   6.742   3.634   9.590 -3.0902 -2.7801  1.7319
  575MOL0     H77594   6.799   3.462   9.619 -2.3206 -2.1001 -1.3311
  575MOL0     H77595   6.881   3.621   9.366  0.6113 -1.6077 -2.2312
  575MOL0     H77596   6.924   3.461   9.419 -1.0308  0.2062  0.1238
  575MOL0     H77597   7.040   3.547   9.626 -2.0197  1.2171  1.4743
  575MOL0     H77598   6.988   3.704   9.611 -0.2528 -1.7790  2.3280
  575MOL0     H77599   7.160   3.573   9.381  1.7002 -0.1054  1.4553
  575MOL0     H77600   7.113   3.736   9.402  0.4390  0.5774  0.8533
  575MOL0     H77601   7.234   3.751   9.626  0.6059  0.0616  0.2014
  575MOL0     H77602   7.321   3.749   9.472 -0.8056 -0.1689 -0.2970
  575MOL0     H77603   7.273   3.516   9.668  0.7254 -0.7515  0.2631
  575MOL0     H77604   7.360   3.501   9.516 -1.6494 -0.4397  0.7221
  575MOL0     H77605   6.277   3.554   9.636  0.3639 -1.1364 -0.8307
  575MOL0     H77606   6.098   3.498   9.785  0.6440  2.1054 -1.9517
  575MOL0     H77607   5.865   3.107   9.970 -0.4381  1.0484  0.4331
  575MOL0     H77608   5.655   3.004  10.070 -1.6640  0.3617 -0.2583
  575MOL0     H77609   3.715   2.456  10.293 -2.1269  0.3316 -0.3974
  575MOL0     H77610   3.526   2.358  10.419  3.2683 -3.3334 -1.0302
  575MOL0     H77611   3.211   2.461  10.768 -0.2851  0.0274  1.4146
  575MOL0     H77612   3.003   2.404  10.851 -0.3583  0.5315 -2.0994
  575MOL0     H77613   2.804   2.311  10.922 -1.0375 -1.1902  0.3278
  575MOL0     H77614   2.933   2.339  11.048 -1.0634  1.2089 -0.1463
  575MOL0     H77615   2.737   2.312  11.155  3.2534  0.6178  2.4758
  575MOL0     H77616   2.843   2.176  11.184  0.4985  2.1896  0.4695
  575MOL0     H77617   2.705   2.058  10.998  0.2435 -0.5747  0.5539
  575MOL0     H77618   2.572   2.167  11.053 -0.0704  0.9565  0.9634
  575MOL0     H77619   2.541   1.964  11.183 -0.6761  0.7160  0.0449
  575MOL0     H77620   2.715   1.960  11.226  0.7247  0.2858 -1.4724
  575MOL0     H77621   2.554   2.215  11.522  1.8426  1.3543 -1.8334
  575MOL0     H77622   3.126   1.993  10.898 -0.4577  1.0775  0.4848
  575MOL0     H77623   3.423   1.983  10.811  0.5036  1.3950 -1.1491
  575MOL0     H77624   3.276   1.905  10.759 -0.0776  0.2358  0.2506
  575MOL0     H77625   3.371   1.994  10.640  0.2638 -4.4002 -0.2653
  576MOL0     O77626   9.118   2.818   9.581 -0.2544 -0.4139 -0.2878
  576MOL0     C77627   9.059   2.921   9.602 -0.4256  0.2049 -0.5874
  576MOL0     O77628   9.057   2.990   9.721  0.2669  0.5878 -0.0930
  576MOL0     C77629   9.151   2.978   9.819  0.1362 -0.2746  0.5567
  576MOL0     C77630   9.108   3.030   9.938 -0.6976 -0.4508 -0.2252
  576MOL0     C77631   9.191   3.049  10.043  0.4392  0.1050  0.2684
  576MOL0     C77632   9.310   2.994  10.049  0.4348  0.0586  0.6598
  576MOL0     O77633   9.376   3.010  10.165 -0.2834 -0.8944  0.4903
  576MOL0     C77634   9.508   2.957  10.178  0.4805 -0.5205 -0.4952
  576MOL0     C77635   9.542   2.964  10.333 -0.0951 -0.6645 -0.2022
  576MOL0     C77636   9.684   2.919  10.360  0.0961  0.0648  0.1264
  576MOL0     C77637   9.720   2.944  10.506  0.0415  0.4476 -1.0440
  576MOL0     C77638   9.857   2.897  10.549 -0.4585  0.4857  0.6174
  576MOL0     C77639   9.976   2.979  10.493 -0.1301 -0.2723 -0.1866
  576MOL0     C77640  10.114   2.923  10.548  0.4216 -0.3479 -0.5494
  576MOL0     C77641  10.234   2.942  10.448  0.1094 -0.0512 -0.0877
  576MOL0     N77642  10.361   2.938  10.526  0.8374  0.3755  0.4441
  576MOL0     C77643  10.432   2.827  10.574  0.5524 -0.0394  0.2081
  576MOL0     C77644  10.502   2.886  10.673 -0.0076 -0.7275 -0.1376
  576MOL0     C77645  10.604   2.821  10.765 -0.6482  0.5780  0.6306
  576MOL0     C77646  10.719   2.744  10.684 -0.0973  0.0637 -0.1317
  576MOL0     C77647  10.787   2.835  10.575  0.5891 -0.2144 -0.3842
  576MOL0     C77648  10.829   2.975  10.624  0.0616  0.5021 -0.4237
  576MOL0     O77649  10.930   3.010  10.526  0.0719 -0.2851 -0.0282
  576MOL0     C77650  11.016   3.111  10.566 -0.7559 -0.1863  0.1239
  576MOL0     C77651  10.996   3.200  10.667  0.8110 -0.0568  0.3706
  576MOL0     C77652  11.100   3.295  10.693 -0.6458 -0.3208  0.5978
  576MOL0     C77653  11.216   3.306  10.613  0.3325 -0.0902 -0.2029
  576MOL0     C77654  11.321   3.402  10.648  0.3493  0.1657  0.3463
  576MOL0     O77655  11.408   3.435  10.549  0.6114  0.4163 -0.8129
  576MOL0     C77656  11.524   3.497  10.573  0.2360  0.3895  0.9944
  576MOL0     C77657  11.638   3.442  10.508  0.6170 -0.2435  1.1760
  576MOL0     C77658  11.760   3.486  10.533 -0.3680 -0.5630 -0.4660
  576MOL0     C77659  11.784   3.594  10.622 -0.3586  0.0221  0.3603
  576MOL0     O77660  11.904   3.649  10.651  0.2715 -0.1958  0.3548
  576MOL0     C77661  12.024   3.630  10.571 -1.0786 -0.5551 -0.1591
  576MOL0     C77662  12.135   3.707  10.634  0.3686  0.4862 -0.7797
  576MOL0     C77663  12.197   3.635  10.758  0.1395  0.3856 -0.4506
  576MOL0     C77664  12.333   3.694  10.775 -0.1435  0.0742  1.0881
  576MOL0     C77665  12.433   3.618  10.862  0.1755  0.2502 -0.2008
  576MOL0     C77666  12.571   3.662  10.883 -0.4158  0.4374 -0.6264
  576MOL0     C77667  12.674   3.592  10.785  0.0618  0.2543 -0.1671
  576MOL0     C77668  12.647   3.608  10.641 -0.1627  0.0406 -0.0456
  576MOL0    Cl77669  12.789   3.527  10.540 -0.2250 -0.1971  0.0174
  576MOL0     C77670  11.674   3.658  10.674 -0.2327 -0.1866 -0.4260
  576MOL0     C77671  11.541   3.609  10.653 -0.0633 -0.2480  0.5383
  576MOL0     O77672  11.333   3.421  10.770 -0.2782 -0.4975 -0.3212
  576MOL0     C77673  11.233   3.216  10.510 -0.1285  0.7349 -0.2158
  576MOL0     C77674  11.133   3.116  10.488 -0.1318 -0.8343  0.5935
  576MOL0     N77675  10.486   3.027  10.673 -0.5939 -0.0824 -0.3827
  576MOL0     N77676  10.399   3.052  10.582 -0.3875 -0.5790  0.4307
  576MOL0     C77677   9.358   2.927   9.931  0.1210 -0.6938 -0.2287
  576MOL0     C77678   9.274   2.920   9.813  0.0792  0.8221  0.0251
  576MOL0     C77679   8.947   2.967   9.512 -0.5620 -0.1984  0.9597
  576MOL0     C77680   8.897   3.094   9.515  0.3185 -0.4831 -0.1872
  576MOL0     C77681   8.793   3.135   9.441  0.4782 -0.4690 -0.3584
  576MOL0     C77682   8.737   3.059   9.341  1.0389  0.3728 -0.5194
  576MOL0     O77683   8.632   3.115   9.267  0.0167  0.0599 -0.4579
  576MOL0     C77684   8.538   3.027   9.207 -0.1041 -0.8017  0.5022
  576MOL0     C77685   8.425   2.977   9.298  0.2537 -0.8407  0.4131
  576MOL0     C77686   8.358   3.099   9.378  0.0644  0.5111  0.0462
  576MOL0     C77687   8.204   3.086   9.399  0.5629  0.2496 -0.4550
  576MOL0     C77688   8.172   2.960   9.470 -0.8722  0.4636 -0.6935
  576MOL0     C77689   8.150   2.853   9.529 -1.1194  0.4096 -0.1679
  576MOL0     C77690   8.781   2.928   9.330 -0.3773 -0.1095  0.3961
  576MOL0     C77691   8.888   2.880   9.410  0.2432 -0.0624 -0.0822
  576MOL0     C77692   8.919   2.733   9.403  0.6114  0.3209  0.0318
  576MOL0     H77693   9.015   3.085   9.951 -0.2851 -0.4209  3.8536
  576MOL0     H77694   9.157   3.102  10.131  2.2593 -0.1010  1.1420
  576MOL0     H77695   9.520   2.851  10.152  2.1091 -0.4436 -0.1392
  576MOL0     H77696   9.589   3.004  10.122  2.3083  0.3306  2.6228
  576MOL0     H77697   9.462   2.913  10.388  0.6044 -1.0595  0.4649
  576MOL0     H77698   9.532   3.072  10.350  0.7290 -0.6503  0.1861
  576MOL0     H77699   9.744   2.982  10.293 -0.5871  1.0307  0.3915
  576MOL0     H77700   9.694   2.814  10.332 -1.8952 -0.4743  1.2289
  576MOL0     H77701   9.708   3.047  10.542 -2.3763 -0.4097  0.8257
  576MOL0     H77702   9.649   2.892  10.570  0.9617  0.6926  0.2359
  576MOL0     H77703   9.865   2.900  10.658  0.9834 -0.8890  0.5930
  576MOL0     H77704   9.858   2.791  10.522  2.4028  0.2729  1.2126
  576MOL0     H77705   9.972   2.977  10.384 -1.2207 -2.3388 -0.1619
  576MOL0     H77706   9.965   3.085  10.515  3.8928  0.8757 -2.7583
  576MOL0     H77707  10.095   2.819  10.575 -1.9301 -0.1291 -1.1383
  576MOL0     H77708  10.127   2.984  10.639 -2.7273 -0.6075  0.1892
  576MOL0     H77709  10.226   2.850  10.389 -0.9675 -1.2047  1.7551
  576MOL0     H77710  10.222   3.030  10.384  1.7666 -0.6827 -1.3437
  576MOL0     H77711  10.425   2.726  10.536 -0.8458  1.1950 -3.1292
  576MOL0     H77712  10.652   2.885  10.840  0.5249  1.1466 -0.5483
  576MOL0     H77713  10.556   2.739  10.819  2.4683 -2.2404 -0.5245
  576MOL0     H77714  10.786   2.710  10.764 -1.3693 -1.3957  0.3446
  576MOL0     H77715  10.686   2.653  10.633  0.5076  0.9297 -2.1800
  576MOL0     H77716  10.713   2.863  10.499  0.0474 -0.1734  0.1455
  576MOL0     H77717  10.867   2.775  10.531  1.4348 -0.7289  1.7284
  576MOL0     H77718  10.865   2.972  10.728  0.6678 -1.4660 -0.6647
  576MOL0     H77719  10.748   3.048  10.618 -0.5647 -0.1974 -0.5513
  576MOL0     H77720  10.903   3.190  10.721  0.0699 -2.1355 -1.1474
  576MOL0     H77721  11.086   3.353  10.784  2.1855  0.8074  0.4143
  576MOL0     H77722  11.618   3.359  10.441 -5.0881  2.5099 -1.1794
  576MOL0     H77723  11.841   3.432  10.484 -1.6623 -1.6942 -1.4080
  576MOL0     H77724  12.059   3.527  10.563  0.8414  0.0123  0.3561
  576MOL0     H77725  12.009   3.676  10.473  2.1526  2.4724  0.5227
  576MOL0     H77726  12.210   3.721  10.556  1.1081  3.4890  0.3253
  576MOL0     H77727  12.102   3.807  10.664 -2.1854 -0.1729 -1.1247
  576MOL0     H77728  12.146   3.651  10.854 -0.1548 -2.0977 -0.1431
  576MOL0     H77729  12.190   3.528  10.739 -1.8049  0.5448 -0.8705
  576MOL0     H77730  12.339   3.799  10.805  0.8975  0.4159 -0.1971
  576MOL0     H77731  12.380   3.703  10.677  0.7823  1.3155  1.6268
  576MOL0     H77732  12.435   3.509  10.846 -0.8617  0.4881 -2.1878
  576MOL0     H77733  12.387   3.638  10.959 -2.3372  3.0591 -1.8032
  576MOL0     H77734  12.582   3.769  10.861  2.7863  0.3390  0.0102
  576MOL0     H77735  12.593   3.641  10.988 -0.1582 -2.4129 -1.1753
  576MOL0     H77736  12.675   3.486  10.811 -0.5181  0.5326  1.0712
  576MOL0     H77737  12.773   3.636  10.800  0.1106  0.3679 -0.8167
  576MOL0     H77738  12.555   3.555  10.612 -0.8372  2.6023 -3.0777
  576MOL0     H77739  12.650   3.712  10.609  3.7690  0.0380 -0.0761
  576MOL0     H77740  11.689   3.744  10.739  1.3826 -0.8083  0.0602
  576MOL0     H77741  11.450   3.651  10.695 -0.7407  0.2682 -1.3326
  576MOL0     H77742  11.325   3.205  10.454  1.2836  0.8656  1.9543
  576MOL0     H77743  11.158   3.038  10.416 -0.5754 -0.9331  0.5432
  576MOL0     H77744   9.452   2.873   9.933 -0.1910 -1.2344  0.0794
  576MOL0     H77745   9.320   2.881   9.723 -0.9426 -0.4919  0.0417
  576MOL0     H77746   8.926   3.157   9.599 -0.1470  0.6963 -0.8878
  576MOL0     H77747   8.755   3.233   9.467  3.0237  0.0121  2.0797
  576MOL0     H77748   8.592   2.944   9.160  1.3338  0.4144 -0.0717
  576MOL0     H77749   8.497   3.099   9.135  0.3309  2.7673  3.5248
  576MOL0     H77750   8.460   2.901   9.367 -2.0800 -3.0651 -0.6902
  576MOL0     H77751   8.349   2.940   9.229  0.8208 -0.3186 -0.5204
  576MOL0     H77752   8.363   3.188   9.315 -3.4136  0.4932 -0.4513
  576MOL0     H77753   8.414   3.109   9.472 -1.1736 -3.6545  1.4258
  576MOL0     H77754   8.176   3.168   9.466  0.6381  0.5083 -0.7363
  576MOL0     H77755   8.144   3.089   9.308 -0.5103  1.8625  0.2511
  576MOL0     H77756   8.117   2.758   9.566 -0.9698 -0.9978 -3.3231
  576MOL0     H77757   8.738   2.853   9.263  0.3596 -0.8510  0.7343
  576MOL0     H77758   9.023   2.723   9.368  0.8612  3.1338 -0.2089
  576MOL0     H77759   8.907   2.676   9.496 -0.1409 -3.0699 -1.9772
  576MOL0     H77760   8.859   2.674   9.333  2.5231  0.3179 -1.6908
  577MOL0     O77761   1.431  10.812  10.268  0.0695  0.2723 -0.7386
  577MOL0     C77762   1.346  10.733  10.242 -0.0094  0.8342 -0.4121
  577MOL0     O77763   1.377  10.613  10.192  0.2653 -0.6688 -0.7880
  577MOL0     C77764   1.503  10.564  10.167  0.6346 -0.8168 -0.0128
  577MOL0     C77765   1.610  10.644  10.125  0.2823 -0.5956 -0.2982
  577MOL0     C77766   1.737  10.591  10.095 -1.0155  0.1624  0.9842
  577MOL0     C77767   1.763  10.459  10.129  0.4842  1.1114 -0.2882
  577MOL0     O77768   1.883  10.404  10.105 -0.4161  0.0944  1.2337
  577MOL0     C77769   1.880  10.270  10.062 -0.5914  1.0931  0.4341
  577MOL0     C77770   2.021  10.238   9.991  0.8338  0.3470 -0.3060
  577MOL0     C77771   2.144  10.277  10.074  0.2797  0.5554  0.3362
  577MOL0     C77772   2.261  10.187  10.039 -0.0047 -0.6628 -0.7189
  577MOL0     C77773   2.376  10.178  10.132 -0.1932 -0.3468 -0.9152
  577MOL0     C77774   2.450  10.311  10.149 -0.7363 -0.2700  0.2072
  577MOL0     C77775   2.581  10.304  10.234 -0.9940 -0.7519  0.2808
  577MOL0     C77776   2.690  10.409  10.217 -0.8939 -0.0853  0.5099
  577MOL0     N77777   2.815  10.342  10.248 -0.3530 -0.8095 -0.5448
  577MOL0     C77778   2.935  10.401  10.225 -0.0796 -0.4255 -0.0325
  577MOL0     C77779   3.028  10.318  10.270 -0.5328  0.2109  0.0761
  577MOL0     C77780   3.178  10.338  10.261 -1.2839 -0.2734  0.4795
  577MOL0     C77781   3.249  10.206  10.276  0.9954  0.6646  0.5146
  577MOL0     C77782   3.391  10.186  10.221 -0.1154 -0.0105 -0.8054
  577MOL0     C77783   3.459  10.300  10.165 -0.2660 -0.1317 -0.0161
  577MOL0     O77784   3.586  10.246  10.120 -0.4774  0.2261 -0.4047
  577MOL0     C77785   3.696  10.316  10.089  0.0426  0.5277  0.5413
  577MOL0     C77786   3.695  10.453  10.067 -0.2461 -0.4507 -0.1621
  577MOL0     C77787   3.803  10.521  10.013  0.5364  0.1331  0.3791
  577MOL0     C77788   3.921  10.450   9.983  0.5701 -0.5566 -0.2313
  577MOL0     C77789   4.034  10.523   9.930 -0.7113 -0.0135  0.4905
  577MOL0     O77790   4.007  10.639   9.861 -0.3790  0.3960  0.1139
  577MOL0     C77791   4.092  10.749   9.884  0.0914  0.3962 -0.7558
  577MOL0     C77792   4.027  10.862   9.932 -0.5393 -1.0934  0.6583
  577MOL0     C77793   4.105  10.974   9.958  0.2441  0.0539 -0.2290
  577MOL0     C77794   4.238  10.982   9.923  0.2785  0.5718 -0.1225
  577MOL0     O77795   4.303  11.100   9.945  0.2266  0.2937 -0.4520
  577MOL0     C77796   4.418  11.120   9.869 -0.5135 -0.0655  0.5047
  577MOL0     C77797   4.446  11.277   9.866 -0.2720 -0.1073 -0.1492
  577MOL0     C77798   4.581  11.313   9.803 -0.0126  0.2649  0.0315
  577MOL0     C77799   4.601  11.460   9.804 -0.1156  0.5320  0.2437
  577MOL0     C77800   4.747  11.492   9.746  0.2446 -0.4493  0.6526
  577MOL0     C77801   4.858  11.476   9.855 -0.0740 -0.2346 -0.1678
  577MOL0     C77802   4.993  11.516   9.787  0.5301  0.4366 -0.0258
  577MOL0     C77803   5.102  11.477   9.874 -0.3565 -0.2326 -0.1385
  577MOL0    Cl77804   5.101  11.590  10.015 -0.0361  0.3436 -0.1728
  577MOL0     C77805   4.295  10.868   9.868 -0.4743  0.3284 -1.2210
  577MOL0     C77806   4.222  10.753   9.844  0.2959  0.0927  0.7089
  577MOL0     O77807   4.148  10.482   9.954  0.0289 -0.9389  0.1940
  577MOL0     C77808   3.923  10.310  10.003 -0.3418 -0.3268 -0.2501
  577MOL0     C77809   3.815  10.251  10.054  0.4530  0.5729  0.9142
  577MOL0     N77810   2.972  10.209  10.339  0.4246 -1.0017  0.6879
  577MOL0     N77811   2.842  10.220  10.308  0.5367 -0.4413  0.3316
  577MOL0     C77812   1.649  10.376  10.166 -0.2609  0.7532  0.5142
  577MOL0     C77813   1.522  10.426  10.185  0.1008  0.5896 -0.0996
  577MOL0     C77814   1.202  10.779  10.242 -0.4111  0.7134 -0.3806
  577MOL0     C77815   1.124  10.749  10.126  0.0791 -0.0243  0.1601
  577MOL0     C77816   0.988  10.793  10.119 -0.4069 -0.3703  0.1681
  577MOL0     C77817   0.934  10.870  10.222  0.1968 -0.0378  0.6000
  577MOL0     O77818   0.811  10.923  10.238 -0.0889  0.0515  0.3204
  577MOL0     C77819   0.713  10.896  10.141  1.5947 -0.7447  0.5227
  577MOL0     C77820   0.575  10.942  10.178  0.3310  0.7547  0.2290
  577MOL0     C77821   0.483  10.940  10.060 -0.1050  0.4210 -0.2751
  577MOL0     C77822   0.354  11.033  10.081 -0.9910 -0.0653 -0.1589
  577MOL0     C77823   0.384  11.169  10.060 -0.0366 -0.3531  0.1609
  577MOL0     C77824   0.416  11.285  10.052  0.4122  0.4717 -0.2610
  577MOL0     C77825   1.013  10.905  10.328 -0.6296  1.0251 -0.1555
  577MOL0     C77826   1.146  10.868  10.336 -0.2901  0.4532  0.0138
  577MOL0     C77827   1.220  10.907  10.461 -0.4192  0.8046 -0.5050
  577MOL0     H77828   1.599  10.751  10.106 -1.1952 -1.1537 -3.1880
  577MOL0     H77829   1.815  10.643  10.042 -0.5188 -0.9892  0.5465
  577MOL0     H77830   1.864  10.192  10.137 -0.4098 -0.4270 -1.0501
  577MOL0     H77831   1.807  10.249   9.984  1.7363 -5.9313 -0.5137
  577MOL0     H77832   2.019  10.289   9.894 -0.1717  3.5555  1.2682
  577MOL0     H77833   2.033  10.131   9.973  0.9962  0.2629  0.2863
  577MOL0     H77834   2.127  10.260  10.180 -1.8410 -0.0942 -0.0676
  577MOL0     H77835   2.165  10.383  10.054  2.4064  1.0055  4.0682
  577MOL0     H77836   2.235  10.081  10.025  1.5545 -0.9588 -1.6574
  577MOL0     H77837   2.292  10.231   9.944  0.8902 -0.5166 -0.3652
  577MOL0     H77838   2.360  10.141  10.233  4.7782  0.2908  0.3321
  577MOL0     H77839   2.455  10.112  10.096  2.1230  1.1227  1.1552
  577MOL0     H77840   2.488  10.337  10.050 -1.3817 -2.1614 -0.5755
  577MOL0     H77841   2.380  10.380  10.198 -0.0805 -0.2522  1.1443
  577MOL0     H77842   2.618  10.211  10.190 -1.0428 -0.7040  0.1378
  577MOL0     H77843   2.554  10.303  10.340 -0.8374 -0.2367  0.3309
  577MOL0     H77844   2.690  10.448  10.115  2.2382 -0.7379  0.1693
  577MOL0     H77845   2.654  10.490  10.281 -1.2344  0.0447  0.1599
  577MOL0     H77846   2.937  10.490  10.162 -1.1687 -0.6053 -0.3570
  577MOL0     H77847   3.213  10.390  10.171  1.9191  0.5072  2.0304
  577MOL0     H77848   3.204  10.407  10.342 -2.5999  0.1454  0.5760
  577MOL0     H77849   3.247  10.172  10.380 -1.5213  0.4246  0.4581
  577MOL0     H77850   3.191  10.131  10.221 -1.6982  2.4667  0.7250
  577MOL0     H77851   3.395  10.092  10.165 -0.5453 -2.3094  2.6861
  577MOL0     H77852   3.440  10.156  10.314 -1.0287  0.5304 -0.1238
  577MOL0     H77853   3.470  10.381  10.236  2.6021 -0.2719 -0.1864
  577MOL0     H77854   3.400  10.333  10.078 -0.6773  2.3415  1.1234
  577MOL0     H77855   3.600  10.504  10.081  0.9682  1.5663  1.4622
  577MOL0     H77856   3.779  10.627  10.007 -1.7513 -0.2715  1.2109
  577MOL0     H77857   3.920  10.860   9.950 -1.0678 -2.1830 -2.0740
  577MOL0     H77858   4.049  11.062   9.987 -2.1764 -1.7957  1.0759
  577MOL0     H77859   4.500  11.066   9.918 -1.5337 -0.3660  1.9402
  577MOL0     H77860   4.405  11.086   9.766  0.0880 -1.3911  0.8456
  577MOL0     H77861   4.365  11.328   9.813  0.1713 -0.1307 -0.8548
  577MOL0     H77862   4.437  11.313   9.969  3.2620 -1.2080  0.6832
  577MOL0     H77863   4.659  11.269   9.867  0.4274  1.1954  0.1445
  577MOL0     H77864   4.587  11.282   9.698 -0.9954  3.3204 -1.0184
  577MOL0     H77865   4.590  11.505   9.903 -2.4832  1.0029 -0.1772
  577MOL0     H77866   4.523  11.508   9.745 -0.0614  0.1890 -0.1102
  577MOL0     H77867   4.741  11.594   9.707  1.6278 -0.9411 -0.9817
  577MOL0     H77868   4.770  11.418   9.668  2.2936 -1.3170  2.0048
  577MOL0     H77869   4.837  11.533   9.946  3.2225  0.4365  0.2783
  577MOL0     H77870   4.861  11.370   9.882 -1.2529 -0.2457 -0.0058
  577MOL0     H77871   4.993  11.625   9.780 -2.7961  0.4246 -2.8073
  577MOL0     H77872   5.003  11.476   9.686  1.3840 -1.2686  0.6937
  577MOL0     H77873   5.087  11.374   9.909  0.7176 -0.4649 -0.3022
  577MOL0     H77874   5.202  11.486   9.831 -0.7501 -3.0518 -1.9071
  577MOL0     H77875   4.399  10.871   9.836  0.0580  0.5080  0.4022
  577MOL0     H77876   4.274  10.668   9.802  2.9905  2.7938 -1.9437
  577MOL0     H77877   4.017  10.257   9.995  0.6168  1.4988 -2.2006
  577MOL0     H77878   3.818  10.142  10.055  2.6623  0.5564 -0.2898
  577MOL0     H77879   1.660  10.268  10.168  0.0102  0.7836  0.9835
  577MOL0     H77880   1.436  10.361  10.194 -1.8089  2.8410 -1.0073
  577MOL0     H77881   1.163  10.686  10.047 -1.0329  0.0063 -0.4342
  577MOL0     H77882   0.932  10.770  10.029  2.0163  1.8563 -2.0710
  577MOL0     H77883   0.687  10.790  10.134 -3.0085  0.2196  0.0950
  577MOL0     H77884   0.740  10.949  10.049  1.0941 -0.3092  0.6182
  577MOL0     H77885   0.574  11.042  10.223  0.2479  0.4149  0.9987
  577MOL0     H77886   0.537  10.880  10.260 -1.6246  0.2691 -0.9619
  577MOL0     H77887   0.457  10.837  10.036  0.9417  0.1412 -0.2631
  577MOL0     H77888   0.544  10.978   9.978 -0.6706 -0.0617 -0.9316
  577MOL0     H77889   0.269  10.997  10.023 -2.9697  0.2660  2.3271
  577MOL0     H77890   0.323  11.025  10.186  0.3464  2.1938  0.4830
  577MOL0     H77891   0.433  11.390  10.044 -1.2140  1.1867  3.5416
  577MOL0     H77892   0.969  10.952  10.416 -1.3099 -0.2820  0.2337
  577MOL0     H77893   1.305  10.974  10.444  0.2192  1.2828  3.6150
  577MOL0     H77894   1.160  10.954  10.539  1.2076  2.1793 -0.0113
  577MOL0     H77895   1.270  10.822  10.507  1.1236  3.0606  2.3050
  578MOL0     O77896   3.015   8.911   9.024  0.0967 -0.0342 -0.2226
  578MOL0     C77897   2.996   8.790   9.033 -1.0805  0.5179 -0.1536
  578MOL0     O77898   3.097   8.699   9.039  0.1715 -0.6389 -0.4657
  578MOL0     C77899   3.227   8.726   9.076  0.1758 -1.1735 -0.0266
  578MOL0     C77900   3.273   8.836   9.159 -0.5957 -0.6920  0.3819
  578MOL0     C77901   3.408   8.849   9.184  0.7128 -0.3920 -0.2250
  578MOL0     C77902   3.500   8.758   9.121 -0.1289 -0.2429 -0.5354
  578MOL0     O77903   3.635   8.761   9.142  0.3732 -0.4705 -0.1790
  578MOL0     C77904   3.701   8.890   9.122  0.8004  1.0274 -0.1457
  578MOL0     C77905   3.826   8.866   9.035  0.2884  0.5508 -0.9094
  578MOL0     C77906   3.901   8.993   8.986  0.0470 -0.3591 -0.4460
  578MOL0     C77907   4.044   8.961   8.951 -0.0736  1.0462  0.4794
  578MOL0     C77908   4.115   9.100   8.932  0.3918 -0.1064 -0.2767
  578MOL0     C77909   4.266   9.073   8.896 -0.2705  0.0564 -0.3784
  578MOL0     C77910   4.329   9.207   8.865  1.0715  0.4466 -0.2316
  578MOL0     C77911   4.478   9.201   8.841 -0.3775 -0.3881 -0.0085
  578MOL0     N77912   4.542   9.332   8.823  0.5552 -0.1233  0.3058
  578MOL0     C77913   4.547   9.431   8.918 -0.3362  0.2957 -0.2496
  578MOL0     C77914   4.610   9.531   8.858 -0.1231 -0.1430  0.0659
  578MOL0     C77915   4.636   9.656   8.927 -0.1966  0.6107 -0.6178
  578MOL0     C77916   4.769   9.658   9.001  0.2166  0.0995  0.0200
  578MOL0     C77917   4.799   9.780   9.090  0.4817  0.2485 -0.0743
  578MOL0     C77918   4.943   9.827   9.075  0.1537  1.0966 -1.0819
  578MOL0     O77919   4.973   9.944   9.148 -0.3417  0.3928 -0.6450
  578MOL0     C77920   5.103   9.948   9.185  0.4868 -0.6434 -0.0146
  578MOL0     C77921   5.208   9.960   9.091 -0.0460  0.0383  0.3151
  578MOL0     C77922   5.345   9.961   9.119 -0.0024  0.8981  0.3148
  578MOL0     C77923   5.375   9.959   9.261  0.3247 -0.7486  0.6045
  578MOL0     C77924   5.512   9.958   9.308 -0.5463  0.4032  0.6602
  578MOL0     O77925   5.608   9.990   9.211  0.5169  0.1412 -0.4366
  578MOL0     C77926   5.741   9.961   9.226 -0.9353 -0.2653  0.2486
  578MOL0     C77927   5.820  10.021   9.131  0.6402  0.2336 -0.6748
  578MOL0     C77928   5.953  10.020   9.137 -1.1056  0.1354  0.0664
  578MOL0     C77929   6.020   9.925   9.214 -0.1194 -0.2063  0.6004
  578MOL0     O77930   6.161   9.903   9.214 -0.0304 -0.0977  0.0247
  578MOL0     C77931   6.243  10.019   9.166  1.1651  0.1032  0.0032
  578MOL0     C77932   6.397   9.983   9.160  0.3804  0.0998  0.0052
  578MOL0     C77933   6.466  10.059   9.057 -0.3385 -0.2911  0.5953
  578MOL0     C77934   6.615  10.023   9.062  0.3652  0.0621  0.3910
  578MOL0     C77935   6.704  10.120   8.980 -0.9925  0.7316  0.7574
  578MOL0     C77936   6.763  10.240   9.061 -0.4479  0.7941  0.0549
  578MOL0     C77937   6.800  10.361   8.969 -0.5042  0.6033  0.3152
  578MOL0     C77938   6.924  10.326   8.886 -0.1276  0.4620  0.9283
  578MOL0    Cl77939   7.058  10.234   8.969 -0.3168 -0.1653 -0.6151
  578MOL0     C77940   5.944   9.858   9.311  1.1479  0.1618 -0.1770
  578MOL0     C77941   5.804   9.879   9.323 -0.0886 -0.2024  0.0063
  578MOL0     O77942   5.531   9.912   9.424 -0.1876  0.2822  0.8812
  578MOL0     C77943   5.267   9.951   9.357 -0.2379 -0.5789  0.3345
  578MOL0     C77944   5.136   9.952   9.316 -0.4087 -0.0220  0.3296
  578MOL0     N77945   4.663   9.498   8.740  0.5612  0.1148  0.0041
  578MOL0     N77946   4.611   9.380   8.714 -0.0570  0.7243  0.4124
  578MOL0     C77947   3.461   8.670   9.033  0.1017  0.5284  0.2130
  578MOL0     C77948   3.324   8.650   9.010 -0.4912 -0.0716 -0.9896
  578MOL0     C77949   2.854   8.741   9.034  0.1968  0.1696 -1.3327
  578MOL0     C77950   2.841   8.604   9.056  0.0739  1.0045  0.2717
  578MOL0     C77951   2.725   8.537   9.055  0.3664 -0.3261  1.2105
  578MOL0     C77952   2.602   8.610   9.044  1.3188  0.3627 -0.0815
  578MOL0     O77953   2.487   8.534   9.052 -0.0218 -0.1333 -0.1765
  578MOL0     C77954   2.356   8.586   9.092 -0.0745  0.0437 -0.4418
  578MOL0     C77955   2.248   8.485   9.058 -0.3814  0.7163 -0.7101
  578MOL0     C77956   2.108   8.542   9.061  0.3212 -0.3972 -0.9628
  578MOL0     C77957   2.050   8.543   9.208 -0.6376 -0.2679 -0.2343
  578MOL0     C77958   1.942   8.636   9.230  0.1811 -0.7822 -0.3883
  578MOL0     C77959   1.847   8.709   9.247 -0.4007  0.2862 -0.0039
  578MOL0     C77960   2.608   8.743   9.053  0.8698  0.4099 -0.0325
  578MOL0     C77961   2.727   8.815   9.045  0.0322 -0.0157 -0.4431
  578MOL0     C77962   2.731   8.968   9.060  0.0723  1.2826 -0.0822
  578MOL0     H77963   3.204   8.912   9.194  1.2870  0.1520  2.5271
  578MOL0     H77964   3.446   8.927   9.250  0.6871 -0.2428 -0.3875
  578MOL0     H77965   3.630   8.956   9.071 -1.1410 -2.0505 -1.7571
  578MOL0     H77966   3.735   8.940   9.213  3.2194  1.3052 -1.1285
  578MOL0     H77967   3.805   8.803   8.948  1.1918 -2.2208  0.7445
  578MOL0     H77968   3.890   8.809   9.103 -3.5805 -1.3182  1.5534
  578MOL0     H77969   3.907   9.051   9.078  1.6376 -1.4958  0.2120
  578MOL0     H77970   3.852   9.064   8.918 -1.2547  0.6960  1.4950
  578MOL0     H77971   4.095   8.897   9.023  0.4906  1.4363  0.4369
  578MOL0     H77972   4.035   8.915   8.853 -1.0326  0.5865  0.7698
  578MOL0     H77973   4.073   9.145   8.841 -0.1414  0.4875  0.2566
  578MOL0     H77974   4.103   9.162   9.020  1.0819 -0.7223  0.2725
  578MOL0     H77975   4.317   9.025   8.981  0.0974  1.8972  0.4896
  578MOL0     H77976   4.278   9.007   8.810 -0.5694  1.4047 -1.4844
  578MOL0     H77977   4.300   9.282   8.939 -0.2857 -1.4869  1.2877
  578MOL0     H77978   4.270   9.238   8.778 -0.7841 -2.0724  0.0215
  578MOL0     H77979   4.526   9.157   8.929 -0.2495  0.4258  0.3347
  578MOL0     H77980   4.495   9.134   8.756  3.1815 -1.4640  1.3675
  578MOL0     H77981   4.518   9.433   9.023  3.8857 -0.3248  1.1044
  578MOL0     H77982   4.629   9.730   8.847  2.9155 -0.1470 -1.7388
  578MOL0     H77983   4.560   9.678   9.003 -0.0528  0.0298 -0.3060
  578MOL0     H77984   4.766   9.567   9.060 -1.1994  0.1787  0.1170
  578MOL0     H77985   4.845   9.653   8.922  0.4034 -0.6752  0.2502
  578MOL0     H77986   4.773   9.758   9.194 -0.1081 -1.4034 -0.5353
  578MOL0     H77987   4.729   9.859   9.062 -2.1871 -2.3406 -1.2370
  578MOL0     H77988   4.968   9.844   8.970  2.6200 -1.7897 -1.1078
  578MOL0     H77989   5.003   9.738   9.096  1.8576  2.0811 -1.5926
  578MOL0     H77990   5.183   9.972   8.986  2.8920  0.5427 -0.4021
  578MOL0     H77991   5.403   9.959   9.027 -0.4498 -1.2914  0.0179
  578MOL0     H77992   5.773  10.083   9.056 -0.7381 -1.3810 -1.2104
  578MOL0     H77993   6.000  10.082   9.061 -0.9579 -1.7173 -1.4237
  578MOL0     H77994   6.207  10.038   9.065 -0.4424  0.6009  0.6331
  578MOL0     H77995   6.226  10.113   9.219  0.0438 -0.1027  0.0361
  578MOL0     H77996   6.444  10.001   9.258 -0.0984 -2.3325  0.7534
  578MOL0     H77997   6.408   9.876   9.145  2.2721  0.4826 -1.6628
  578MOL0     H77998   6.416  10.044   8.961 -2.2800 -2.0382  1.8163
  578MOL0     H77999   6.464  10.167   9.072  1.6222  0.1936 -1.8739
  578MOL0     H78000   6.608   9.923   9.018 -0.4971 -0.3454  1.4040
  578MOL0     H78001   6.643  10.017   9.168 -2.8530 -0.0400  1.3279
  578MOL0     H78002   6.654  10.160   8.891 -0.8644  2.0345  1.2589
  578MOL0     H78003   6.790  10.069   8.934 -0.2315  3.1262 -0.6671
  578MOL0     H78004   6.689  10.276   9.134 -1.7951 -1.3669 -0.1751
  578MOL0     H78005   6.847  10.205   9.121 -1.0052  0.7348  0.8223
  578MOL0     H78006   6.824  10.444   9.036  1.5310 -1.6547  2.5747
  578MOL0     H78007   6.713  10.389   8.908 -0.2663  0.5427 -0.0580
  578MOL0     H78008   6.896  10.280   8.791  1.8384  3.2722 -1.1793
  578MOL0     H78009   6.969  10.419   8.849  0.3274  0.3266  1.1294
  578MOL0     H78010   5.992   9.787   9.377 -0.6685 -1.1028 -0.1206
  578MOL0     H78011   5.746   9.814   9.388 -0.2664  1.5058  1.6205
  578MOL0     H78012   5.293   9.953   9.462  0.8337  1.8383  0.0914
  578MOL0     H78013   5.059   9.964   9.391  0.0574  1.1394  0.6461
  578MOL0     H78014   3.533   8.608   8.981  0.5086 -0.5316  1.9318
  578MOL0     H78015   3.288   8.581   8.934 -1.3275 -1.3335  0.4962
  578MOL0     H78016   2.925   8.537   9.069 -2.8503 -3.1059 -0.1221
  578MOL0     H78017   2.730   8.429   9.054 -1.0929 -0.4126 -0.0355
  578MOL0     H78018   2.331   8.678   9.038  1.1699  1.5743  1.4311
  578MOL0     H78019   2.360   8.596   9.201 -0.9631 -0.7181 -0.3295
  578MOL0     H78020   2.255   8.397   9.124  0.9648  0.5031 -1.1051
  578MOL0     H78021   2.260   8.458   8.953 -1.6970  1.3755 -1.0535
  578MOL0     H78022   2.036   8.476   9.011 -0.8625  0.5603 -0.5716
  578MOL0     H78023   2.097   8.639   9.013  0.4218 -1.7247 -3.9442
  578MOL0     H78024   2.008   8.443   9.226  1.0684 -1.1308 -0.8131
  578MOL0     H78025   2.132   8.567   9.275 -0.4290  0.8913 -0.8786
  578MOL0     H78026   1.758   8.769   9.241 -1.8509 -1.6398  1.0940
  578MOL0     H78027   2.515   8.800   9.061  0.2232 -0.5531 -0.4675
  578MOL0     H78028   2.804   8.997   9.136  0.6124  0.3791 -0.2393
  578MOL0     H78029   2.759   8.996   8.958 -0.7531 -3.1196 -1.7476
  578MOL0     H78030   2.634   9.014   9.084 -0.0733  1.6006 -1.2298
  579MOL0     O78031   3.813   3.054   3.342  0.3235  0.0617  0.1496
  579MOL0     C78032   3.798   3.055   3.460 -0.2160  0.3939  0.3734
  579MOL0     O78033   3.884   3.002   3.554 -0.3347 -0.2652  0.0804
  579MOL0     C78034   3.996   2.928   3.520 -0.2115 -0.2721 -0.4461
  579MOL0     C78035   4.059   2.897   3.393  0.2776  0.5538  0.2986
  579MOL0     C78036   4.185   2.836   3.384  0.2311 -0.2943 -0.2898
  579MOL0     C78037   4.250   2.791   3.499 -0.5613  0.7442  0.4040
  579MOL0     O78038   4.366   2.724   3.494 -0.8525  0.3608  0.0546
  579MOL0     C78039   4.475   2.772   3.407  0.4625 -0.3257 -0.3909
  579MOL0     C78040   4.501   2.666   3.288  0.5802  0.1115  0.3340
  579MOL0     C78041   4.623   2.710   3.191  0.9464 -0.6012  0.2829
  579MOL0     C78042   4.766   2.690   3.256  0.1344 -0.6939 -0.1941
  579MOL0     C78043   4.877   2.708   3.153  0.1349  0.5129 -1.4602
  579MOL0     C78044   5.017   2.701   3.222 -0.0507 -1.0347  0.0741
  579MOL0     C78045   5.137   2.719   3.131 -0.6164 -0.2406  0.0543
  579MOL0     C78046   5.163   2.862   3.080  0.2339  0.1131 -0.4472
  579MOL0     N78047   5.287   2.873   2.996 -0.0779  0.4213 -0.2387
  579MOL0     C78048   5.316   2.980   2.915  0.0755 -0.5572 -0.3284
  579MOL0     C78049   5.434   2.929   2.864  0.9483 -0.0904  1.3226
  579MOL0     C78050   5.516   3.010   2.756  0.4092 -1.4277  0.2463
  579MOL0     C78051   5.424   3.042   2.641  0.0249  0.4708  0.5475
  579MOL0     C78052   5.473   3.147   2.546  0.4969 -0.4344  0.0256
  579MOL0     C78053   5.613   3.126   2.482  0.2253  0.2758  0.0230
  579MOL0     O78054   5.597   3.032   2.380 -0.1430  0.0514  0.6738
  579MOL0     C78055   5.711   3.016   2.306  0.0236 -0.1940  0.1800
  579MOL0     C78056   5.837   3.073   2.319 -0.3861  0.2868 -0.4294
  579MOL0     C78057   5.944   3.037   2.231  0.2031 -0.1118  0.4861
  579MOL0     C78058   5.926   2.942   2.125 -0.4842 -0.0940  0.3540
  579MOL0     C78059   6.030   2.898   2.033 -0.6310  0.2789 -0.8915
  579MOL0     O78060   5.993   2.811   1.937  0.6483 -1.0780  0.0051
  579MOL0     C78061   6.092   2.764   1.857 -0.0898 -0.3105 -0.0322
  579MOL0     C78062   6.067   2.754   1.720 -0.7169 -0.6457  0.8545
  579MOL0     C78063   6.153   2.683   1.633 -1.0206  0.4912  0.7331
  579MOL0     C78064   6.256   2.614   1.694 -0.0518  0.1571  0.1041
  579MOL0     O78065   6.335   2.549   1.609  0.1954  0.6823 -0.3613
  579MOL0     C78066   6.475   2.557   1.636 -0.4637  0.5595 -0.1984
  579MOL0     C78067   6.561   2.521   1.511 -0.4500 -0.5546  0.3789
  579MOL0     C78068   6.715   2.550   1.548  1.1247  0.5668 -0.0445
  579MOL0     C78069   6.800   2.511   1.417  0.3002 -0.4537 -0.2139
  579MOL0     C78070   6.952   2.545   1.444  0.3673  0.4588 -0.6952
  579MOL0     C78071   7.046   2.507   1.323  0.3492  0.8674  0.4042
  579MOL0     C78072   7.189   2.501   1.360  0.4871  0.7553 -1.0057
  579MOL0     C78073   7.286   2.479   1.238 -0.5432  0.3127 -0.3586
  579MOL0    Cl78074   7.249   2.586   1.098 -0.3016  0.3622  0.0628
  579MOL0     C78075   6.277   2.615   1.826 -0.3304  0.3755  0.2155
  579MOL0     C78076   6.196   2.683   1.910 -0.3772 -0.6553  0.3146
  579MOL0     O78077   6.137   2.952   2.040  0.6665  0.2397 -0.1597
  579MOL0     C78078   5.802   2.888   2.120 -0.7498 -0.5089 -0.1665
  579MOL0     C78079   5.689   2.933   2.203  0.4015  0.6204  0.0069
  579MOL0     N78080   5.475   2.810   2.918  0.7231 -0.6722  0.5636
  579MOL0     N78081   5.378   2.773   2.999 -0.6085 -0.0179 -0.2005
  579MOL0     C78082   4.190   2.818   3.624 -1.5862 -0.3270 -0.1082
  579MOL0     C78083   4.075   2.890   3.638  0.7848 -0.3418  0.0167
  579MOL0     C78084   3.699   3.141   3.524  0.4092  0.2913 -0.3288
  579MOL0     C78085   3.725   3.209   3.647 -0.5137 -0.0254 -0.0179
  579MOL0     C78086   3.644   3.305   3.706  0.1406 -0.5517  0.3788
  579MOL0     C78087   3.525   3.345   3.637  0.3020  0.4655 -0.6302
  579MOL0     O78088   3.442   3.453   3.678  0.4561  1.3656 -0.4527
  579MOL0     C78089   3.311   3.457   3.626  1.2061 -0.4106  0.1864
  579MOL0     C78090   3.232   3.566   3.698  0.5416  0.1645  0.3141
  579MOL0     C78091   3.231   3.528   3.845  0.8709  0.4335 -0.0751
  579MOL0     C78092   3.176   3.633   3.936 -0.1900  0.0335  0.8757
  579MOL0     C78093   3.037   3.671   3.906 -0.1186 -0.1193 -0.1097
  579MOL0     C78094   2.928   3.726   3.896 -0.4533  0.0479  0.3220
  579MOL0     C78095   3.494   3.282   3.518  0.0810  0.0533 -0.3488
  579MOL0     C78096   3.574   3.184   3.464  0.0827 -0.6064 -0.4981
  579MOL0     C78097   3.536   3.131   3.328  0.0376  0.4106 -0.0819
  579MOL0     H78098   4.008   2.925   3.301  2.2003  2.3670 -0.2921
  579MOL0     H78099   4.230   2.812   3.289 -0.2218  0.2474 -0.6484
  579MOL0     H78100   4.456   2.870   3.362  0.3699 -1.8446 -4.0090
  579MOL0     H78101   4.563   2.787   3.469 -0.2751  0.4017  0.5128
  579MOL0     H78102   4.405   2.652   3.238  1.2933 -0.8118 -0.8245
  579MOL0     H78103   4.515   2.570   3.338 -1.0061 -0.4910 -0.3055
  579MOL0     H78104   4.616   2.818   3.177 -1.2583 -0.5816  1.1281
  579MOL0     H78105   4.618   2.651   3.099  0.6212 -0.0698 -0.0428
  579MOL0     H78106   4.776   2.771   3.329  2.8020 -0.6199 -0.5335
  579MOL0     H78107   4.777   2.596   3.310  2.0653 -0.1620  0.3995
  579MOL0     H78108   4.873   2.621   3.087  0.5890 -2.4271  2.0392
  579MOL0     H78109   4.865   2.807   3.110 -1.1662  1.3375  0.6441
  579MOL0     H78110   5.012   2.789   3.286 -1.3443 -0.3416 -0.9349
  579MOL0     H78111   5.026   2.609   3.281 -0.4485  0.2214  2.1982
  579MOL0     H78112   5.138   2.640   3.056  1.1614  0.1348 -0.3561
  579MOL0     H78113   5.223   2.690   3.192 -0.3107  0.5908  0.0308
  579MOL0     H78114   5.082   2.889   3.012 -0.3125  1.5217  0.7060
  579MOL0     H78115   5.170   2.940   3.156 -0.9661 -1.2712  1.1651
  579MOL0     H78116   5.269   3.074   2.889 -0.4782 -0.7454 -0.0196
  579MOL0     H78117   5.555   3.099   2.805  1.7745 -1.3687 -0.8846
  579MOL0     H78118   5.606   2.955   2.728  1.4775  0.4945 -0.2568
  579MOL0     H78119   5.420   2.946   2.588 -0.9419  1.4897 -1.3172
  579MOL0     H78120   5.325   3.068   2.682 -0.7431  0.4682 -1.2152
  579MOL0     H78121   5.479   3.241   2.602  2.6365 -1.0517  0.9076
  579MOL0     H78122   5.406   3.159   2.460  0.7995  1.2559 -0.0227
  579MOL0     H78123   5.687   3.096   2.557 -0.5511 -1.8961 -0.0052
  579MOL0     H78124   5.643   3.219   2.433  0.8159 -0.6649 -1.4831
  579MOL0     H78125   5.856   3.148   2.395  2.1483 -2.8105  2.3261
  579MOL0     H78126   6.037   3.090   2.246 -0.1768  1.1436 -1.3229
  579MOL0     H78127   5.984   2.811   1.679 -0.8159 -1.6779 -0.4693
  579MOL0     H78128   6.154   2.677   1.525 -0.3885 -1.0067  0.7953
  579MOL0     H78129   6.505   2.652   1.682 -0.8749  0.2725  0.6807
  579MOL0     H78130   6.494   2.480   1.711  1.3308  0.2665 -0.8926
  579MOL0     H78131   6.551   2.422   1.465 -1.8420 -0.0521 -0.4437
  579MOL0     H78132   6.535   2.588   1.430  2.7374  0.9372  0.4230
  579MOL0     H78133   6.728   2.654   1.580  1.8415  1.0816 -1.8607
  579MOL0     H78134   6.757   2.493   1.631  2.0773  3.0039  1.2684
  579MOL0     H78135   6.772   2.579   1.336  1.8087 -2.4015 -2.4859
  579MOL0     H78136   6.789   2.411   1.375  2.6435 -1.6473  1.7795
  579MOL0     H78137   6.983   2.486   1.531 -1.8494 -0.5557 -0.5392
  579MOL0     H78138   6.956   2.650   1.475  1.0217  0.0582  0.6732
  579MOL0     H78139   7.008   2.411   1.288  0.8118  1.3753 -1.6028
  579MOL0     H78140   7.039   2.580   1.242  0.9363 -1.0843 -1.4936
  579MOL0     H78141   7.203   2.411   1.421 -0.9317 -0.4057 -2.3183
  579MOL0     H78142   7.197   2.592   1.419  0.4929 -0.9217  1.7370
  579MOL0     H78143   7.385   2.499   1.281 -0.1840 -1.5343 -0.2431
  579MOL0     H78144   7.294   2.377   1.200  1.8397  0.3066 -0.0065
  579MOL0     H78145   6.338   2.536   1.870  1.5351  0.8958 -1.3170
  579MOL0     H78146   6.207   2.684   2.018  1.5805  4.0621  0.3015
  579MOL0     H78147   5.778   2.814   2.044  0.3870 -0.8854 -0.1650
  579MOL0     H78148   5.590   2.899   2.176  1.1220 -1.9106  0.2444
  579MOL0     H78149   4.233   2.784   3.718  0.5416  0.9678 -0.5515
  579MOL0     H78150   4.019   2.915   3.727 -1.6979 -3.3321 -0.5414
  579MOL0     H78151   3.818   3.185   3.697 -0.1213  2.6218  0.6842
  579MOL0     H78152   3.669   3.361   3.796 -2.1664  1.3786 -0.0846
  579MOL0     H78153   3.260   3.365   3.656 -0.7402 -0.1294 -2.0231
  579MOL0     H78154   3.306   3.472   3.518 -2.4986  0.0432  0.3069
  579MOL0     H78155   3.128   3.556   3.665  1.0226 -2.7799 -0.6340
  579MOL0     H78156   3.276   3.663   3.671  1.8749 -0.2036  1.0658
  579MOL0     H78157   3.333   3.508   3.880  0.8236  0.7056  0.2150
  579MOL0     H78158   3.172   3.436   3.856 -0.0846  1.2659  2.4691
  579MOL0     H78159   3.172   3.600   4.040 -3.2285 -1.2114  0.4541
  579MOL0     H78160   3.246   3.717   3.923  1.5351 -1.5281 -0.6042
  579MOL0     H78161   2.833   3.775   3.885 -0.5204  0.5035  2.4922
  579MOL0     H78162   3.405   3.315   3.466 -0.0469  2.3728  1.1990
  579MOL0     H78163   3.574   3.194   3.247 -1.0304 -2.0799 -2.6857
  579MOL0     H78164   3.568   3.028   3.312  0.7689  0.6367 -0.0916
  579MOL0     H78165   3.427   3.125   3.314 -0.0668  2.5109 -0.4635
  580MOL0     O78166   1.325   4.391   2.695 -0.1430 -0.0893 -0.6079
  580MOL0     C78167   1.292   4.480   2.614  0.2726 -0.6782  0.1083
  580MOL0     O78168   1.338   4.501   2.480 -0.1247 -0.1639 -0.6223
  580MOL0     C78169   1.470   4.486   2.452 -0.7877 -0.1367 -0.3437
  580MOL0     C78170   1.576   4.476   2.544 -0.4669  1.0862  1.1538
  580MOL0     C78171   1.709   4.472   2.492 -0.6218 -0.2024 -0.2505
  580MOL0     C78172   1.744   4.464   2.360  0.8079  0.2802  0.7673
  580MOL0     O78173   1.871   4.444   2.313  0.1456 -0.2003 -0.3887
  580MOL0     C78174   1.983   4.506   2.388  0.3113  0.2131  0.6759
  580MOL0     C78175   2.119   4.483   2.318  0.5450 -0.3984  0.9446
  580MOL0     C78176   2.229   4.571   2.379  0.9454  0.0815  0.6601
  580MOL0     C78177   2.365   4.555   2.315 -0.0557  0.4199  0.5192
  580MOL0     C78178   2.474   4.636   2.395  0.1247 -0.0690  0.2650
  580MOL0     C78179   2.603   4.647   2.319  0.3218 -1.0912 -0.1967
  580MOL0     C78180   2.691   4.766   2.362 -0.0008 -0.3636  0.9525
  580MOL0     C78181   2.802   4.789   2.254 -0.0219  0.6587 -0.0870
  580MOL0     N78182   2.867   4.920   2.255 -0.1417 -0.1495 -0.6434
  580MOL0     C78183   2.805   5.041   2.262 -0.5497  0.2389 -0.5236
  580MOL0     C78184   2.908   5.135   2.254 -0.6836 -0.5304  0.3126
  580MOL0     C78185   2.902   5.284   2.260  0.7408 -0.0678  0.2973
  580MOL0     C78186   2.859   5.339   2.124 -0.0892  1.1968 -0.5193
  580MOL0     C78187   2.872   5.486   2.121 -0.2819 -0.4240  0.6808
  580MOL0     C78188   2.801   5.566   2.237  0.6545  0.2111 -1.2822
  580MOL0     O78189   2.674   5.510   2.265 -0.2912 -0.1393  0.2997
  580MOL0     C78190   2.561   5.531   2.185 -0.2970 -0.2599 -0.1602
  580MOL0     C78191   2.439   5.478   2.221  0.5704 -0.3306 -0.2067
  580MOL0     C78192   2.317   5.488   2.147 -0.8550  0.8001 -0.4199
  580MOL0     C78193   2.319   5.553   2.026  0.0396  0.4318  0.5064
  580MOL0     C78194   2.195   5.575   1.951 -0.2393 -0.0226  0.1420
  580MOL0     O78195   2.072   5.544   2.004 -0.1136  0.7312 -0.1392
  580MOL0     C78196   1.964   5.580   1.927  0.0936 -0.7246  0.3610
  580MOL0     C78197   1.892   5.485   1.860 -0.0532 -0.8425  1.3042
  580MOL0     C78198   1.791   5.509   1.766  0.2961 -0.1393  0.2251
  580MOL0     C78199   1.739   5.637   1.750 -0.0691  0.5533  0.5492
  580MOL0     O78200   1.625   5.655   1.675 -0.8424  0.3989 -0.2443
  580MOL0     C78201   1.543   5.762   1.718 -0.5840  0.7712 -0.0203
  580MOL0     C78202   1.417   5.779   1.630  0.8076  0.1476  0.4675
  580MOL0     C78203   1.336   5.904   1.659  0.7621 -0.5153  0.4377
  580MOL0     C78204   1.343   6.009   1.545 -0.2651  0.3888  0.4309
  580MOL0     C78205   1.254   6.123   1.580 -0.5169 -0.7249  1.7589
  580MOL0     C78206   1.230   6.230   1.475 -0.1893  0.3458 -0.3747
  580MOL0     C78207   1.152   6.357   1.516 -0.3157  0.0473 -0.1371
  580MOL0     C78208   1.063   6.397   1.405  0.7860  0.5984 -0.4797
  580MOL0    Cl78209   0.919   6.286   1.384 -0.5195 -0.2084  0.2305
  580MOL0     C78210   1.810   5.743   1.821 -0.1099  0.6540 -0.5654
  580MOL0     C78211   1.916   5.710   1.906 -0.4195  0.0821 -0.4670
  580MOL0     O78212   2.214   5.644   1.851  0.7145 -0.0336 -0.5139
  580MOL0     C78213   2.448   5.603   1.975  0.6861  0.0421  0.7226
  580MOL0     C78214   2.560   5.592   2.058 -1.1604  0.0182 -0.2001
  580MOL0     N78215   3.026   5.068   2.235  0.0159 -0.2159  0.3291
  580MOL0     N78216   2.998   4.944   2.247  0.2970  0.3436 -0.4304
  580MOL0     C78217   1.637   4.477   2.267 -1.1594 -0.8067  0.6177
  580MOL0     C78218   1.506   4.501   2.317  0.2152 -0.2137  0.1846
  580MOL0     C78219   1.192   4.577   2.664 -0.0114  0.0161  0.6499
  580MOL0     C78220   1.098   4.634   2.569 -0.2502 -0.1556  0.1316
  580MOL0     C78221   1.002   4.726   2.614 -0.7139  0.3925  0.2015
  580MOL0     C78222   0.991   4.764   2.746  0.3187  0.4927  0.3841
  580MOL0     O78223   0.882   4.826   2.805  0.3431 -0.2912  0.0343
  580MOL0     C78224   0.782   4.879   2.719  0.7137 -0.7196  0.0773
  580MOL0     C78225   0.826   5.015   2.650  0.1021 -0.4100 -0.0927
  580MOL0     C78226   0.726   5.063   2.538 -0.0630  0.3806 -0.5258
  580MOL0     C78227   0.787   5.175   2.454 -0.2567 -0.0373 -0.1081
  580MOL0     C78228   0.699   5.211   2.344  0.3504 -0.4453  0.1560
  580MOL0     C78229   0.638   5.214   2.236  0.9712 -0.4567  0.1110
  580MOL0     C78230   1.082   4.705   2.837 -0.1176 -0.2236  0.0786
  580MOL0     C78231   1.181   4.615   2.797  0.1702 -0.3239 -1.0361
  580MOL0     C78232   1.265   4.566   2.917 -1.1925 -0.1392 -1.0376
  580MOL0     H78233   1.564   4.474   2.652  0.9863  0.7559  1.3277
  580MOL0     H78234   1.786   4.459   2.568  1.2595 -1.4468 -2.2609
  580MOL0     H78235   1.949   4.609   2.399 -0.8384  0.3201 -2.7476
  580MOL0     H78236   1.987   4.452   2.484 -3.4192 -0.2954  0.6958
  580MOL0     H78237   2.121   4.516   2.214 -0.2542 -1.9109  0.4194
  580MOL0     H78238   2.152   4.379   2.332 -0.3942 -0.9375 -0.6198
  580MOL0     H78239   2.255   4.527   2.476  5.8538 -1.5590 -1.0886
  580MOL0     H78240   2.196   4.674   2.393  0.9787  0.4062 -1.3630
  580MOL0     H78241   2.393   4.449   2.314 -3.1828 -0.5544  1.7529
  580MOL0     H78242   2.361   4.600   2.215  0.8756  1.7714  1.0744
  580MOL0     H78243   2.440   4.740   2.405 -0.3746  0.2022 -3.0153
  580MOL0     H78244   2.492   4.590   2.492  1.3053 -3.2670 -1.3200
  580MOL0     H78245   2.656   4.551   2.322 -0.2881 -1.4144  0.5130
  580MOL0     H78246   2.578   4.662   2.214  1.1649  2.4682 -0.0192
  580MOL0     H78247   2.734   4.750   2.461 -0.7715  1.2360  1.5844
  580MOL0     H78248   2.628   4.855   2.366 -0.6129 -0.8332  2.5841
  580MOL0     H78249   2.881   4.716   2.274 -0.7011  0.0814  0.5300
  580MOL0     H78250   2.765   4.775   2.151  1.8075  1.2211 -0.8575
  580MOL0     H78251   2.703   5.066   2.290 -1.5074 -0.7369 -2.8667
  580MOL0     H78252   2.829   5.310   2.337  0.3542  1.4350 -0.5281
  580MOL0     H78253   2.999   5.329   2.284  0.5720  0.8118 -0.5846
  580MOL0     H78254   2.913   5.279   2.051 -0.8218 -0.5549  0.3363
  580MOL0     H78255   2.754   5.316   2.105 -0.0449  1.4608 -1.1243
  580MOL0     H78256   2.832   5.513   2.023 -2.1251 -1.7414  1.0121
  580MOL0     H78257   2.976   5.520   2.120 -1.2531  2.9801  1.8069
  580MOL0     H78258   2.792   5.669   2.202  0.9739  0.6470 -0.1310
  580MOL0     H78259   2.858   5.572   2.330  0.1608 -3.9993 -0.4898
  580MOL0     H78260   2.444   5.427   2.316 -1.9750  1.0205  0.7464
  580MOL0     H78261   2.224   5.459   2.194 -0.1715  2.2228  1.9748
  580MOL0     H78262   1.913   5.380   1.876 -2.4316 -1.5156  0.4962
  580MOL0     H78263   1.738   5.426   1.722  0.8943 -0.1355 -0.5198
  580MOL0     H78264   1.520   5.748   1.825  2.1052 -1.1012  0.4076
  580MOL0     H78265   1.608   5.848   1.699 -0.0628 -0.0644 -2.2933
  580MOL0     H78266   1.450   5.783   1.526 -0.5590  0.3259  0.0235
  580MOL0     H78267   1.348   5.694   1.634  3.1518 -2.1249 -2.3158
  580MOL0     H78268   1.231   5.877   1.668 -0.0206  2.4904  1.6798
  580MOL0     H78269   1.373   5.957   1.748  1.0571 -0.2420  0.1540
  580MOL0     H78270   1.302   5.958   1.458 -1.5267  0.3904  1.0130
  580MOL0     H78271   1.445   6.040   1.518 -0.3488  1.3379  1.1359
  580MOL0     H78272   1.306   6.171   1.664 -1.4155  1.2956  1.2373
  580MOL0     H78273   1.157   6.084   1.613 -0.7945 -1.7147 -0.1257
  580MOL0     H78274   1.328   6.257   1.436  0.1314  0.8717  0.7509
  580MOL0     H78275   1.176   6.191   1.388  0.2163 -0.1085 -0.4281
  580MOL0     H78276   1.222   6.440   1.528 -0.4876  0.0261  1.2547
  580MOL0     H78277   1.102   6.353   1.614  0.4457  3.8923  0.5586
  580MOL0     H78278   1.040   6.504   1.415 -0.8417  0.1953  0.4521
  580MOL0     H78279   1.113   6.399   1.308  1.1463 -0.1063 -0.3102
  580MOL0     H78280   1.778   5.846   1.808 -0.7881  0.6547  0.8541
  580MOL0     H78281   1.963   5.784   1.971 -1.3276 -0.0328  0.3470
  580MOL0     H78282   2.457   5.646   1.876  1.4699 -0.9742  0.3352
  580MOL0     H78283   2.656   5.632   2.026  0.0686 -0.6985  2.3428
  580MOL0     H78284   1.645   4.484   2.159 -0.8952  3.5339  0.7525
  580MOL0     H78285   1.429   4.524   2.245  0.2019  0.8176  0.5180
  580MOL0     H78286   1.099   4.609   2.464 -3.6013 -2.0184  0.3985
  580MOL0     H78287   0.937   4.755   2.532 -1.1461  0.6697  0.6350
  580MOL0     H78288   0.693   4.897   2.779 -1.5696 -1.2941 -2.9104
  580MOL0     H78289   0.754   4.803   2.646  0.4728 -1.2065  0.6780
  580MOL0     H78290   0.920   4.988   2.600 -1.1631  0.0844 -2.9310
  580MOL0     H78291   0.843   5.087   2.730 -0.6034 -0.8777  0.4881
  580MOL0     H78292   0.631   5.095   2.583  0.4676  0.3854  0.6132
  580MOL0     H78293   0.701   4.974   2.480 -5.7808  1.0013  0.3750
  580MOL0     H78294   0.795   5.262   2.520 -0.5863 -2.3048  3.1916
  580MOL0     H78295   0.886   5.152   2.412 -0.4060  1.7398 -1.5712
  580MOL0     H78296   0.577   5.215   2.148 -0.2225 -2.5739  0.8450
  580MOL0     H78297   1.073   4.735   2.941 -0.2831  2.5529 -0.6631
  580MOL0     H78298   1.370   4.554   2.889 -0.1424 -0.1225  2.3857
  580MOL0     H78299   1.248   4.621   3.010  0.0627 -0.0303 -0.8529
  580MOL0     H78300   1.234   4.464   2.941 -2.4893  0.4444 -0.0947
  581MOL0     O78301   7.924  10.286  11.215  0.3838 -0.2070 -1.6644
  581MOL0     C78302   7.832  10.276  11.300  0.6566 -0.1777 -0.7909
  581MOL0     O78303   7.844  10.201  11.413 -0.7973 -0.5877 -0.3629
  581MOL0     C78304   7.957  10.136  11.428  0.1982  1.0963 -1.0398
  581MOL0     C78305   7.987  10.018  11.350 -0.0573 -0.4025 -0.2498
  581MOL0     C78306   8.118   9.961  11.354  0.2970  0.1569 -0.3501
  581MOL0     C78307   8.218  10.017  11.439 -0.2893  0.3908 -0.0012
  581MOL0     O78308   8.343   9.968  11.450  0.2377  0.4666  0.2549
  581MOL0     C78309   8.347   9.856  11.533 -0.4467  0.7545 -0.7355
  581MOL0     C78310   8.488   9.811  11.561 -0.0988 -0.8520 -0.3296
  581MOL0     C78311   8.545   9.897  11.678  0.7564  0.0611  0.0112
  581MOL0     C78312   8.679   9.827  11.695  0.5073 -0.3380 -0.1678
  581MOL0     C78313   8.760   9.911  11.797  0.4200 -0.5855 -0.3105
  581MOL0     C78314   8.899   9.834  11.823 -0.3906 -0.2139 -0.3343
  581MOL0     C78315   8.997   9.851  11.708  0.5388  0.4329  0.9701
  581MOL0     C78316   9.119   9.758  11.726  0.3836 -0.2539 -0.3437
  581MOL0     N78317   9.217   9.780  11.621 -0.1179 -0.2233  0.2448
  581MOL0     C78318   9.239   9.904  11.557  0.2078  0.3595 -0.2753
  581MOL0     C78319   9.332   9.879  11.467 -0.0171 -0.2427 -0.0412
  581MOL0     C78320   9.385   9.992  11.372  0.5548  0.6900  0.1460
  581MOL0     C78321   9.540  10.022  11.399  0.5217 -0.2581  0.3129
  581MOL0     C78322   9.560  10.085  11.539  0.1637 -0.5189 -0.0281
  581MOL0     C78323   9.712  10.090  11.576  0.8149 -0.0825 -0.5026
  581MOL0     O78324   9.715  10.127  11.712 -0.2916  0.1767  0.1659
  581MOL0     C78325   9.839  10.133  11.777  0.7064  0.3765 -0.8889
  581MOL0     C78326   9.959  10.068  11.738 -0.0593  0.3072  0.2802
  581MOL0     C78327  10.073  10.070  11.820 -0.0239  0.0146 -0.5866
  581MOL0     C78328  10.070  10.152  11.933 -1.0046  0.0487 -0.0251
  581MOL0     C78329  10.193  10.151  12.022  0.1391  0.5723  0.2978
  581MOL0     O78330  10.305  10.097  11.980 -0.8536  0.2598  0.1252
  581MOL0     C78331  10.419  10.105  12.054  0.2684  0.1871  0.8774
  581MOL0     C78332  10.496  10.217  12.041 -1.2257  0.2566 -0.4104
  581MOL0     C78333  10.619  10.230  12.108  0.2641 -0.6434 -0.4841
  581MOL0     C78334  10.662  10.127  12.186 -0.2065  0.2429 -0.7536
  581MOL0     O78335  10.782  10.150  12.247 -0.0708  0.4903  0.8267
  581MOL0     C78336  10.829  10.067  12.348 -0.1754 -0.0140 -0.7925
  581MOL0     C78337  10.978  10.096  12.366 -0.4636 -0.2532  0.6986
  581MOL0     C78338  11.049  10.074  12.230  0.2897  0.3728 -0.4916
  581MOL0     C78339  11.203  10.039  12.249 -0.0202  0.6680  0.0526
  581MOL0     C78340  11.269  10.062  12.112  0.1297 -0.1973 -0.2841
  581MOL0     C78341  11.400   9.986  12.083  0.2494 -0.2315 -0.1298
  581MOL0     C78342  11.430   9.969  11.933 -0.5763  0.6595  0.2045
  581MOL0     C78343  11.550   9.887  11.901 -0.0679 -0.6040  0.3568
  581MOL0    Cl78344  11.536   9.717  11.948  0.1534 -0.1344  0.0393
  581MOL0     C78345  10.582  10.008  12.196 -0.4929  0.1156 -0.2050
  581MOL0     C78346  10.457   9.995  12.134  0.0497 -0.1915  0.1852
  581MOL0     O78347  10.178  10.216  12.125 -0.6299  0.0070 -0.2867
  581MOL0     C78348   9.962  10.233  11.964  0.1375  0.1991  0.7537
  581MOL0     C78349   9.850  10.222  11.887 -0.1091 -0.1233 -0.5019
  581MOL0     N78350   9.367   9.746  11.468 -0.0314 -0.1672 -0.4554
  581MOL0     N78351   9.285   9.689  11.551 -0.0637 -0.4824 -1.3062
  581MOL0     C78352   8.188  10.128  11.517 -0.1975 -0.1176  1.0486
  581MOL0     C78353   8.061  10.189  11.508  0.4726 -0.0979  0.2013
  581MOL0     C78354   7.698  10.331  11.271  0.1725  0.1310 -0.5073
  581MOL0     C78355   7.686  10.469  11.270  0.8036 -0.5123  0.0107
  581MOL0     C78356   7.557  10.519  11.253 -0.2085 -0.3423  0.1529
  581MOL0     C78357   7.446  10.441  11.209  0.0124  0.3467 -0.3243
  581MOL0     O78358   7.330  10.510  11.194 -0.1578  0.0222 -0.4575
  581MOL0     C78359   7.205  10.445  11.173 -0.2512 -0.2136 -0.0640
  581MOL0     C78360   7.148  10.369  11.289  0.3813 -0.6336 -0.2272
  581MOL0     C78361   7.139  10.464  11.407  0.3678 -0.4196  1.0210
  581MOL0     C78362   7.043  10.427  11.520  0.4105  0.0665  0.0285
  581MOL0     C78363   6.904  10.421  11.478  0.2767  0.3870  0.3477
  581MOL0     C78364   6.784  10.417  11.452 -1.1237 -0.1589 -0.0992
  581MOL0     C78365   7.466  10.302  11.198 -0.9697  0.3395  0.5531
  581MOL0     C78366   7.591  10.244  11.229  0.3593  0.3446 -0.4999
  581MOL0     C78367   7.596  10.093  11.232  0.1266  0.0661  0.1836
  581MOL0     H78368   7.907   9.977  11.288 -0.7675  0.6472 -0.0496
  581MOL0     H78369   8.148   9.875  11.294 -3.0640  0.0574 -2.0541
  581MOL0     H78370   8.303   9.873  11.631  0.2826  2.4942 -0.6826
  581MOL0     H78371   8.303   9.771  11.479  3.3312 -2.3186  0.5844
  581MOL0     H78372   8.548   9.832  11.472 -0.1596  1.2684  0.0884
  581MOL0     H78373   8.485   9.705  11.590  1.8934 -0.6027  0.9337
  581MOL0     H78374   8.476   9.900  11.762 -1.1286 -0.6060 -1.4461
  581MOL0     H78375   8.561   9.999  11.640  1.5571  0.7063  1.9324
  581MOL0     H78376   8.664   9.726  11.733 -1.1439 -0.7097 -1.6942
  581MOL0     H78377   8.733   9.822  11.601 -0.6149  1.1834 -0.9423
  581MOL0     H78378   8.781  10.009  11.752 -0.7132  0.0694  0.5209
  581MOL0     H78379   8.700   9.925  11.887 -0.0187 -2.9205 -0.1836
  581MOL0     H78380   8.938   9.881  11.913 -0.5615  0.0633 -0.4039
  581MOL0     H78381   8.873   9.729  11.837 -0.5001 -0.1763 -0.2525
  581MOL0     H78382   9.031   9.955  11.705  0.4866  0.4335 -0.4191
  581MOL0     H78383   8.951   9.836  11.609  1.4336  0.4255  0.5447
  581MOL0     H78384   9.149   9.783  11.829  0.2986  1.3704 -0.6804
  581MOL0     H78385   9.103   9.650  11.731 -1.4909  0.0104 -0.0776
  581MOL0     H78386   9.187   9.998  11.567  1.7513  1.2320 -0.0774
  581MOL0     H78387   9.367   9.955  11.271  2.4062 -4.1839  1.3295
  581MOL0     H78388   9.324  10.083  11.378 -0.1693  0.1979  0.3083
  581MOL0     H78389   9.606   9.936  11.410  1.8673  1.0168  4.1317
  581MOL0     H78390   9.586  10.079  11.318 -1.1830 -0.8502 -1.1496
  581MOL0     H78391   9.505  10.033  11.619 -0.2942  4.1865  3.1091
  581MOL0     H78392   9.523  10.188  11.541 -0.0291 -0.4518 -2.6832
  581MOL0     H78393   9.757  10.170  11.516 -1.0174  0.2461 -1.5392
  581MOL0     H78394   9.767   9.998  11.556  0.6678  0.1800 -2.3324
  581MOL0     H78395   9.967  10.005  11.650 -3.5240 -0.0137  0.0841
  581MOL0     H78396  10.160  10.008  11.805  0.2903  0.1655  0.5223
  581MOL0     H78397  10.460  10.298  11.979 -0.3825 -0.9040 -2.5158
  581MOL0     H78398  10.666  10.328  12.104 -3.0778  1.1036 -0.7099
  581MOL0     H78399  10.780  10.086  12.444 -2.6036 -2.2451 -1.4828
  581MOL0     H78400  10.827   9.959  12.335 -0.4650 -0.1493  0.2872
  581MOL0     H78401  10.996  10.201  12.390  0.3132  0.0199 -0.9481
  581MOL0     H78402  11.004  10.032  12.451 -3.4145 -0.4515  1.5374
  581MOL0     H78403  11.000   9.994  12.173 -1.2296  0.4679  0.6286
  581MOL0     H78404  11.039  10.158  12.160  0.9709  1.0977  0.2642
  581MOL0     H78405  11.216   9.935  12.282  0.2415  0.6198 -0.1960
  581MOL0     H78406  11.250  10.103  12.325  1.0781  0.3753 -0.3594
  581MOL0     H78407  11.271  10.169  12.092 -1.5337 -0.0757  0.0248
  581MOL0     H78408  11.195  10.025  12.040 -0.5470  1.1025 -0.2931
  581MOL0     H78409  11.485  10.043  12.122 -1.7505  3.4785 -0.7305
  581MOL0     H78410  11.391   9.885  12.124  0.0570 -0.1991 -0.0945
  581MOL0     H78411  11.422  10.065  11.882  2.5591  1.1683  0.4700
  581MOL0     H78412  11.351   9.905  11.893 -1.3794  3.0036 -2.2887
  581MOL0     H78413  11.561   9.880  11.793  0.1564 -1.5596  0.4293
  581MOL0     H78414  11.640   9.933  11.942  0.5645 -0.5354 -1.0408
  581MOL0     H78415  10.607   9.922  12.257 -1.6199 -1.8491 -2.3616
  581MOL0     H78416  10.399   9.905  12.151 -0.5327 -0.6104 -3.3498
  581MOL0     H78417   9.971  10.304  12.046 -0.1669  2.3333 -0.9624
  581MOL0     H78418   9.762  10.283  11.904 -0.6174 -0.2891 -2.3738
  581MOL0     H78419   8.274  10.168  11.570  1.1876 -1.1638 -0.3180
  581MOL0     H78420   8.045  10.274  11.574  3.0660  1.3668 -0.8774
  581MOL0     H78421   7.771  10.529  11.302 -0.1327  0.0189  1.6136
  581MOL0     H78422   7.543  10.625  11.270  2.1111  0.5791 -2.7325
  581MOL0     H78423   7.220  10.377  11.089  2.2827 -1.7326  1.4689
  581MOL0     H78424   7.122  10.515  11.158  0.4082  1.1682  2.2450
  581MOL0     H78425   7.225  10.296  11.316  0.1590  0.0751  2.6453
  581MOL0     H78426   7.052  10.329  11.255 -1.3037  2.1168  0.9623
  581MOL0     H78427   7.090  10.552  11.365  0.5854 -1.1493 -0.8212
  581MOL0     H78428   7.238  10.484  11.450  0.2955  0.9724  0.6105
  581MOL0     H78429   7.066  10.329  11.561  1.4889 -0.1312 -0.9944
  581MOL0     H78430   7.052  10.503  11.598 -0.8637  0.2897 -0.0215
  581MOL0     H78431   6.681  10.414  11.421 -1.2415  2.0810 -0.1223
  581MOL0     H78432   7.380  10.245  11.166 -1.9052  3.1802 -2.6360
  581MOL0     H78433   7.693  10.052  11.203  0.1662  1.7434 -2.3582
  581MOL0     H78434   7.583  10.078  11.339  0.6265  0.3690  0.2874
  581MOL0     H78435   7.512  10.062  11.169 -0.1464  1.3416 -0.1160
  582MOL0     O78436   1.516   2.567   3.212 -0.5064  0.6596 -0.6570
  582MOL0     C78437   1.407   2.520   3.227  0.1558 -0.2174  0.3617
  582MOL0     O78438   1.332   2.514   3.350  1.1937 -0.7383 -0.3215
  582MOL0     C78439   1.356   2.625   3.426 -0.1685 -0.6447  0.1124
  582MOL0     C78440   1.483   2.628   3.496 -0.2609  0.7629 -0.6607
  582MOL0     C78441   1.509   2.729   3.588  1.4368 -0.3380  0.3124
  582MOL0     C78442   1.405   2.816   3.632 -0.2493 -0.1971  1.0338
  582MOL0     O78443   1.418   2.931   3.715 -0.0736  0.2712 -0.5004
  582MOL0     C78444   1.528   2.934   3.813 -0.2124  0.3550  0.1120
  582MOL0     C78445   1.658   2.998   3.742 -0.0451  0.6611  0.1163
  582MOL0     C78446   1.755   3.031   3.850 -0.3989 -1.1083  0.3559
  582MOL0     C78447   1.856   3.140   3.797 -0.2617 -0.2695  0.0310
  582MOL0     C78448   1.964   3.176   3.893 -1.0510 -0.2935 -0.4156
  582MOL0     C78449   2.050   3.295   3.851 -0.0741 -0.0794 -0.7938
  582MOL0     C78450   2.129   3.359   3.964  0.0893 -0.3343 -0.2486
  582MOL0     C78451   2.177   3.500   3.927  0.2877 -0.6575 -0.2908
  582MOL0     N78452   2.227   3.572   4.047 -0.2971 -0.4291 -0.3544
  582MOL0     C78453   2.360   3.557   4.099 -0.3916  0.6406 -0.1314
  582MOL0     C78454   2.369   3.639   4.212  0.8003  0.8790 -0.1954
  582MOL0     C78455   2.484   3.652   4.298 -0.3773 -1.3929  0.3887
  582MOL0     C78456   2.489   3.793   4.356  0.7748 -0.1406 -0.3154
  582MOL0     C78457   2.614   3.827   4.440  0.6438 -0.1147  0.6324
  582MOL0     C78458   2.732   3.857   4.347  0.0530 -0.5810  0.5021
  582MOL0     O78459   2.743   3.997   4.309  0.1154  0.1866  0.0423
  582MOL0     C78460   2.865   4.027   4.264 -0.3146 -0.6016  0.8983
  582MOL0     C78461   2.967   4.089   4.340  0.5934  0.5764 -0.3085
  582MOL0     C78462   3.096   4.093   4.281 -0.6575 -0.0046  0.3897
  582MOL0     C78463   3.123   4.052   4.153  0.3367  1.1668 -0.0594
  582MOL0     C78464   3.262   4.054   4.096 -0.1078  0.0770  1.0270
  582MOL0     O78465   3.270   4.043   3.959  0.0757 -0.1324 -0.1842
  582MOL0     C78466   3.387   4.054   3.893 -0.4781 -0.4036 -0.4489
  582MOL0     C78467   3.383   4.132   3.774 -0.8329  0.1011  1.0773
  582MOL0     C78468   3.498   4.141   3.696 -0.3295 -0.3777  0.6808
  582MOL0     C78469   3.619   4.096   3.735  0.0381 -0.3479  0.0688
  582MOL0     O78470   3.735   4.116   3.649  0.7393 -0.0960 -0.2747
  582MOL0     C78471   3.864   4.069   3.692  0.4836 -0.6088 -0.0741
  582MOL0     C78472   3.981   4.063   3.593  0.3657 -0.7806 -0.7126
  582MOL0     C78473   4.040   4.203   3.574 -0.1466  0.1273  0.3469
  582MOL0     C78474   4.189   4.206   3.522 -0.0370 -0.0403 -0.2831
  582MOL0     C78475   4.257   4.339   3.537  1.0487 -0.2272 -0.0380
  582MOL0     C78476   4.402   4.318   3.506 -0.5734  0.0059 -1.0242
  582MOL0     C78477   4.450   4.331   3.362  0.1994  0.1503  0.2784
  582MOL0     C78478   4.600   4.322   3.342  0.9197 -0.7444  0.3446
  582MOL0    Cl78479   4.675   4.472   3.393  0.0498  0.0290  0.4190
  582MOL0     C78480   3.625   4.027   3.863  0.1925  0.4426  0.0448
  582MOL0     C78481   3.512   4.013   3.940 -0.2071 -0.8659  0.2522
  582MOL0     O78482   3.357   4.062   4.171  0.3741 -0.2758 -0.4366
  582MOL0     C78483   3.016   4.010   4.073 -0.4539  0.1252  0.8813
  582MOL0     C78484   2.892   3.990   4.130  0.4569  1.0600  0.1278
  582MOL0     N78485   2.236   3.677   4.240 -0.1893  0.2691  0.1244
  582MOL0     N78486   2.151   3.636   4.144  0.4024 -0.3516  0.0727
  582MOL0     C78487   1.283   2.813   3.563  0.4755 -0.4042 -0.1851
  582MOL0     C78488   1.256   2.721   3.460  0.0441 -0.2609  0.2824
  582MOL0     C78489   1.331   2.458   3.108  0.1517  0.0824  0.6213
  582MOL0     C78490   1.219   2.381   3.134 -0.6978  0.0913  0.0773
  582MOL0     C78491   1.143   2.325   3.035 -0.7427  0.5758  0.2948
  582MOL0     C78492   1.167   2.356   2.897 -0.0540 -0.7615  0.4830
  582MOL0     O78493   1.081   2.319   2.792  0.9558 -0.5169 -0.1859
  582MOL0     C78494   1.006   2.201   2.818 -0.3327 -0.1823 -0.1864
  582MOL0     C78495   0.951   2.156   2.684  0.5187 -0.8765  0.7698
  582MOL0     C78496   0.855   2.034   2.687 -1.3141  0.9148  0.2664
  582MOL0     C78497   0.702   2.054   2.702 -0.1278 -0.0093  0.0611
  582MOL0     C78498   0.649   2.108   2.575 -0.5818 -1.0509  0.3636
  582MOL0     C78499   0.569   2.153   2.497  0.2804  0.3779  0.7389
  582MOL0     C78500   1.273   2.442   2.865  0.9199 -0.1785 -0.4863
  582MOL0     C78501   1.358   2.494   2.972 -0.4183  0.5408 -0.6409
  582MOL0     C78502   1.472   2.592   2.940 -0.4641 -0.1584  0.0069
  582MOL0     H78503   1.557   2.550   3.485 -0.5022  0.2144  1.3049
  582MOL0     H78504   1.608   2.735   3.634  0.7446  1.5627  1.6954
  582MOL0     H78505   1.493   3.007   3.886 -1.9899  1.9941 -2.2280
  582MOL0     H78506   1.541   2.839   3.866  0.1458  0.1437 -0.3516
  582MOL0     H78507   1.628   3.090   3.692 -1.0688  1.1787  1.5786
  582MOL0     H78508   1.701   2.937   3.663 -3.4214 -0.2131 -1.2243
  582MOL0     H78509   1.807   2.944   3.891  0.6346 -0.3463  0.7051
  582MOL0     H78510   1.701   3.075   3.934 -0.3569 -0.6435  0.1443
  582MOL0     H78511   1.903   3.111   3.702 -1.7932  0.7057 -1.0650
  582MOL0     H78512   1.813   3.235   3.765 -0.7751 -0.8258 -0.9648
  582MOL0     H78513   1.916   3.197   3.990  0.0617  2.0770 -0.3196
  582MOL0     H78514   2.033   3.093   3.907 -0.9299 -0.3869 -1.4796
  582MOL0     H78515   2.116   3.265   3.769  1.5340 -0.4770  0.5869
  582MOL0     H78516   1.969   3.365   3.825  0.5788 -0.1065 -3.1061
  582MOL0     H78517   2.213   3.295   3.996 -0.3804  0.6494  3.3250
  582MOL0     H78518   2.059   3.364   4.048 -2.5480  1.7841 -2.4140
  582MOL0     H78519   2.253   3.494   3.848  0.1916  2.2183 -0.6797
  582MOL0     H78520   2.099   3.556   3.876  1.8010  0.8571 -1.0499
  582MOL0     H78521   2.440   3.505   4.046 -2.7243 -2.5723 -0.8178
  582MOL0     H78522   2.491   3.568   4.369  2.5992 -0.7755  0.9714
  582MOL0     H78523   2.573   3.641   4.236 -1.7179 -1.6211 -1.5884
  582MOL0     H78524   2.482   3.874   4.283  2.8075  0.9051  0.5892
  582MOL0     H78525   2.403   3.801   4.423 -1.5251  3.0124 -3.2511
  582MOL0     H78526   2.636   3.735   4.494  0.9672 -1.4827 -1.6592
  582MOL0     H78527   2.606   3.906   4.514  0.4208  1.2004 -0.7509
  582MOL0     H78528   2.724   3.785   4.264 -1.1655 -2.4238  2.1274
  582MOL0     H78529   2.825   3.830   4.398 -0.2387  1.2531  2.0925
  582MOL0     H78530   2.944   4.126   4.439  1.6612 -0.9673  0.5770
  582MOL0     H78531   3.172   4.145   4.339  1.3794 -2.0982 -0.2643
  582MOL0     H78532   3.291   4.173   3.734 -0.3358 -0.1739 -0.3906
  582MOL0     H78533   3.495   4.199   3.605 -2.0881 -2.5265 -0.7633
  582MOL0     H78534   3.900   4.126   3.778 -0.6592  2.1687 -1.3431
  582MOL0     H78535   3.845   3.967   3.729  2.2225 -0.2027  2.1747
  582MOL0     H78536   4.048   3.987   3.635 -0.5356  0.2570  3.0237
  582MOL0     H78537   3.943   4.025   3.498 -0.5761 -0.6663 -0.3974
  582MOL0     H78538   3.989   4.252   3.491  1.4678  2.6523  0.7234
  582MOL0     H78539   4.038   4.267   3.663 -0.7887  1.5436 -0.6531
  582MOL0     H78540   4.200   4.169   3.420  2.0020  1.3650 -0.6415
  582MOL0     H78541   4.243   4.132   3.582  1.0017  0.1328 -0.9833
  582MOL0     H78542   4.250   4.388   3.634 -3.3994  0.9992 -0.7592
  582MOL0     H78543   4.205   4.413   3.475 -0.8584 -0.3576  1.3392
  582MOL0     H78544   4.452   4.403   3.552 -0.8876 -1.4277  2.2518
  582MOL0     H78545   4.441   4.226   3.550  0.9548  0.6689 -0.9326
  582MOL0     H78546   4.402   4.418   3.317 -3.3235 -1.2775  0.9186
  582MOL0     H78547   4.401   4.246   3.312  2.1609 -1.0133  0.2424
  582MOL0     H78548   4.652   4.244   3.399 -1.8857 -2.2453  1.0403
  582MOL0     H78549   4.613   4.304   3.235  0.2994 -0.6103  0.2418
  582MOL0     H78550   3.713   3.991   3.915  0.1906  1.5597  0.8533
  582MOL0     H78551   3.525   3.971   4.040 -1.3837 -0.2108  0.7033
  582MOL0     H78552   3.040   3.975   3.973 -0.8132  1.0096  0.4766
  582MOL0     H78553   2.811   3.940   4.079 -1.8985  0.2762  4.1814
  582MOL0     H78554   1.206   2.884   3.590  0.0678 -1.1893  0.8147
  582MOL0     H78555   1.160   2.719   3.409  0.4671 -0.9072 -0.5111
  582MOL0     H78556   1.191   2.368   3.238 -2.9425  0.0942 -0.4648
  582MOL0     H78557   1.055   2.277   3.077 -2.2160  2.7072 -0.1620
  582MOL0     H78558   0.917   2.224   2.877 -0.1596  0.3809 -0.1452
  582MOL0     H78559   1.061   2.119   2.866 -0.1395 -0.7131 -1.2728
  582MOL0     H78560   1.031   2.128   2.615 -0.4890  0.5429 -1.0764
  582MOL0     H78561   0.903   2.239   2.632  2.8928 -1.2159 -2.2208
  582MOL0     H78562   0.892   1.963   2.762 -2.7563 -1.3270 -1.0079
  582MOL0     H78563   0.876   1.982   2.593  0.6867  2.7458 -0.3650
  582MOL0     H78564   0.664   1.955   2.730 -2.5258  0.7727 -0.1712
  582MOL0     H78565   0.681   2.121   2.786 -1.3552  2.3545 -1.9939
  582MOL0     H78566   0.499   2.174   2.419  2.0909  1.7488 -0.5951
  582MOL0     H78567   1.292   2.479   2.765 -2.1073  2.1377 -0.3379
  582MOL0     H78568   1.475   2.600   2.831 -1.5238 -0.8597 -0.0888
  582MOL0     H78569   1.458   2.689   2.989 -0.6849 -0.1536 -0.0656
  582MOL0     H78570   1.575   2.565   2.967 -0.2179  0.8783  0.1420
  583MOL0     O78571   6.169   5.829   4.326 -0.0175  0.8873  0.3319
  583MOL0     C78572   6.097   5.818   4.235 -0.0285 -0.1599 -0.1265
  583MOL0     O78573   6.130   5.754   4.125  1.0714 -0.2803 -0.6466
  583MOL0     C78574   6.255   5.706   4.113  0.1134 -0.3786 -0.1405
  583MOL0     C78575   6.363   5.790   4.090 -0.6469  0.8201 -0.4307
  583MOL0     C78576   6.492   5.743   4.104  0.1155  0.0354  0.6077
  583MOL0     C78577   6.520   5.610   4.125  0.2833  1.2062 -0.4948
  583MOL0     O78578   6.652   5.559   4.115 -0.6385  0.4155 -0.0507
  583MOL0     C78579   6.655   5.412   4.077 -0.3030 -0.2248  0.4192
  583MOL0     C78580   6.791   5.382   4.013  0.8535 -0.1998  0.5920
  583MOL0     C78581   6.911   5.388   4.112 -0.0349  0.2954  1.3510
  583MOL0     C78582   7.044   5.389   4.035 -0.0219  0.5256  0.7842
  583MOL0     C78583   7.150   5.314   4.114 -0.0375  0.2241 -0.4416
  583MOL0     C78584   7.263   5.285   4.012  0.0486  0.0243 -0.3555
  583MOL0     C78585   7.388   5.221   4.060  0.0741 -0.2096  0.4084
  583MOL0     C78586   7.473   5.187   3.937 -0.3028  1.2202  1.2214
  583MOL0     N78587   7.610   5.139   3.970  0.0937 -0.8282 -0.0111
  583MOL0     C78588   7.661   5.012   3.998  0.5822  0.3534 -0.2645
  583MOL0     C78589   7.794   5.026   3.995  0.4032  0.7195 -0.3136
  583MOL0     C78590   7.886   4.917   4.024 -0.3018  0.3001  0.2515
  583MOL0     C78591   7.983   4.910   3.909 -0.9305 -0.0154 -0.0830
  583MOL0     C78592   8.081   4.782   3.921  0.3071  0.6060  0.1592
  583MOL0     C78593   8.136   4.729   3.789 -0.2631  0.1389 -0.0420
  583MOL0     O78594   8.248   4.812   3.742 -0.0432 -0.1757 -0.6362
  583MOL0     C78595   8.372   4.813   3.803 -0.4581 -0.0705 -0.6725
  583MOL0     C78596   8.455   4.917   3.768  0.1452 -0.4880  0.0275
  583MOL0     C78597   8.580   4.929   3.825 -0.5506  0.1625 -0.5688
  583MOL0     C78598   8.627   4.847   3.927 -0.2474 -0.2786  0.3059
  583MOL0     C78599   8.757   4.855   3.994 -1.0449  0.5333  0.4072
  583MOL0     O78600   8.853   4.929   3.922  1.5382 -0.5764 -1.0127
  583MOL0     C78601   8.983   4.923   3.975  0.0834 -0.5913 -0.3627
  583MOL0     C78602   9.033   5.046   4.006 -0.8842 -0.1139  0.0378
  583MOL0     C78603   9.146   5.045   4.085 -0.0733 -0.3638  0.1880
  583MOL0     C78604   9.212   4.928   4.123 -0.0937 -0.0571 -0.5037
  583MOL0     O78605   9.337   4.930   4.186  0.3265 -0.1608 -0.0876
  583MOL0     C78606   9.362   5.017   4.300  0.3657  0.9896  0.5819
  583MOL0     C78607   9.502   4.999   4.355  0.9361  0.0564 -0.7373
  583MOL0     C78608   9.621   5.023   4.264 -0.9992  0.4746 -0.3728
  583MOL0     C78609   9.765   4.980   4.323 -0.2272  0.2460  0.2285
  583MOL0     C78610   9.869   5.048   4.242  0.0389 -0.4347  0.5045
  583MOL0     C78611   9.923   5.176   4.310 -0.3750  0.2977  0.0923
  583MOL0     C78612  10.042   5.241   4.227 -0.5825 -0.1480 -0.4662
  583MOL0     C78613  10.099   5.362   4.291 -0.2113  0.9112 -0.1577
  583MOL0    Cl78614   9.996   5.516   4.270  0.2278  0.5136 -0.0630
  583MOL0     C78615   9.173   4.802   4.064 -0.3369  0.2291  0.2552
  583MOL0     C78616   9.058   4.802   3.991 -0.7877 -0.2394  0.2000
  583MOL0     O78617   8.772   4.793   4.105  0.1504 -0.1866  0.8392
  583MOL0     C78618   8.541   4.738   3.959  0.0586 -0.6116 -1.0804
  583MOL0     C78619   8.410   4.721   3.907 -0.2471 -0.3719  0.0222
  583MOL0     N78620   7.823   5.155   3.978 -0.8553 -0.6201  0.2595
  583MOL0     N78621   7.711   5.226   3.958 -0.8734 -0.2473  0.4165
  583MOL0     C78622   6.407   5.523   4.145 -0.0388  0.5088  0.4363
  583MOL0     C78623   6.277   5.573   4.136 -0.0941  0.2029 -0.6452
  583MOL0     C78624   5.951   5.858   4.262  0.0211 -0.6344 -0.0058
  583MOL0     C78625   5.911   5.899   4.386  0.6446 -0.6876  0.1798
  583MOL0     C78626   5.786   5.957   4.409 -0.4018  0.1938 -0.2236
  583MOL0     C78627   5.697   5.984   4.306 -0.0597  0.1961  0.2923
  583MOL0     O78628   5.581   6.050   4.334 -0.1208 -0.2529  0.1613
  583MOL0     C78629   5.491   6.061   4.222  0.6368  0.2487 -0.9879
  583MOL0     C78630   5.365   6.133   4.283  0.1856 -0.0148 -0.8296
  583MOL0     C78631   5.284   6.036   4.381 -0.2495  0.5942  0.6600
  583MOL0     C78632   5.141   6.083   4.392 -0.2240  0.6745 -0.1788
  583MOL0     C78633   5.127   6.210   4.457 -0.0959  0.2076 -0.7538
  583MOL0     C78634   5.095   6.307   4.523  0.8331 -0.4994  0.2036
  583MOL0     C78635   5.742   5.948   4.174 -0.0681  0.4400  0.1957
  583MOL0     C78636   5.865   5.885   4.145 -0.2897 -0.4370  0.1635
  583MOL0     C78637   5.894   5.847   4.006  0.7145  0.2299  0.4298
  583MOL0     H78638   6.344   5.897   4.086 -0.6320  0.9690  1.9203
  583MOL0     H78639   6.573   5.808   4.074  1.0077 -1.6444 -0.7844
  583MOL0     H78640   6.623   5.348   4.160  0.4146 -3.8946 -1.9047
  583MOL0     H78641   6.573   5.401   4.005 -2.7303  2.5093  2.5221
  583MOL0     H78642   6.807   5.452   3.930 -2.1597  2.2275  1.8911
  583MOL0     H78643   6.793   5.288   3.957 -0.1706 -0.2683  0.6659
  583MOL0     H78644   6.904   5.305   4.184 -2.5730 -1.3981 -0.6756
  583MOL0     H78645   6.913   5.486   4.161 -0.1290  1.3380 -0.6704
  583MOL0     H78646   7.021   5.333   3.944  1.2178  2.1761 -0.6081
  583MOL0     H78647   7.080   5.487   4.004  0.6248  0.6389  1.8698
  583MOL0     H78648   7.194   5.382   4.187 -0.4269 -0.2149  0.2109
  583MOL0     H78649   7.115   5.228   4.172 -0.3678  1.3281  1.0433
  583MOL0     H78650   7.229   5.225   3.926  0.0566 -0.1800 -0.2170
  583MOL0     H78651   7.306   5.380   3.981  1.2810  0.0479  1.3032
  583MOL0     H78652   7.365   5.126   4.109  1.4498 -1.3869 -1.1506
  583MOL0     H78653   7.441   5.289   4.128  0.7250  1.3218 -1.5215
  583MOL0     H78654   7.435   5.101   3.882  1.4437  1.2673 -0.1209
  583MOL0     H78655   7.469   5.270   3.865 -0.2182  1.6139  1.6616
  583MOL0     H78656   7.599   4.928   4.028 -0.1396  0.9315 -0.0795
  583MOL0     H78657   7.949   4.927   4.113 -1.3403  0.0629  1.0313
  583MOL0     H78658   7.836   4.821   4.039  0.6602 -0.4462 -1.1383
  583MOL0     H78659   7.918   4.902   3.821 -0.1529  0.7844 -0.7488
  583MOL0     H78660   8.041   5.003   3.911 -1.2927  0.2014  1.0322
  583MOL0     H78661   8.027   4.699   3.968  2.4737 -2.3271 -2.1265
  583MOL0     H78662   8.166   4.803   3.987  0.7539  1.8134 -0.7642
  583MOL0     H78663   8.054   4.742   3.717  1.6702 -1.7186 -2.7305
  583MOL0     H78664   8.165   4.624   3.787 -0.4467  0.0774  0.4605
  583MOL0     H78665   8.420   4.985   3.691  1.3983  0.2132  0.0607
  583MOL0     H78666   8.645   5.009   3.791  0.4309  0.7492  2.3679
  583MOL0     H78667   8.969   5.131   3.986 -1.5888  0.1194  2.9314
  583MOL0     H78668   9.178   5.140   4.125 -0.4370 -0.1639  0.0110
  583MOL0     H78669   9.323   5.118   4.285 -3.4817 -0.2174  1.2539
  583MOL0     H78670   9.309   4.977   4.387  2.2469 -0.4308  1.1438
  583MOL0     H78671   9.502   5.063   4.443 -0.5710 -0.6871 -0.1536
  583MOL0     H78672   9.509   4.896   4.388 -0.1990  0.6864  1.6686
  583MOL0     H78673   9.605   4.959   4.177 -0.5408  0.6395 -0.5813
  583MOL0     H78674   9.625   5.128   4.236  2.1397  0.2834 -0.9967
  583MOL0     H78675   9.774   4.872   4.312 -0.1919  0.2391  0.3231
  583MOL0     H78676   9.772   5.004   4.429 -2.2184 -2.3059  1.0395
  583MOL0     H78677   9.824   5.087   4.150 -1.1800  0.7756  1.5568
  583MOL0     H78678   9.948   4.974   4.225  0.0116 -0.2781 -0.3334
  583MOL0     H78679   9.845   5.252   4.312 -0.0325  0.8182 -2.6921
  583MOL0     H78680   9.958   5.157   4.412  0.4013 -0.7720 -0.3493
  583MOL0     H78681  10.006   5.265   4.127  1.8255 -0.2243 -1.4382
  583MOL0     H78682  10.122   5.167   4.216  0.4758  0.7710  0.8158
  583MOL0     H78683  10.122   5.347   4.397  1.4519  2.8241 -0.1979
  583MOL0     H78684  10.197   5.372   4.243  0.0825 -0.1660  0.1826
  583MOL0     H78685   9.231   4.711   4.078 -0.3773  0.2070  0.2774
  583MOL0     H78686   9.010   4.708   3.966 -0.3456 -0.7708  1.3005
  583MOL0     H78687   8.574   4.675   4.041 -0.7194 -0.5989 -0.7534
  583MOL0     H78688   8.351   4.633   3.933 -1.8428  0.4203 -0.7830
  583MOL0     H78689   6.403   5.420   4.179 -0.3831  0.3977  0.0648
  583MOL0     H78690   6.193   5.507   4.158 -0.2439  0.8254  0.7702
  583MOL0     H78691   5.977   5.893   4.472  0.9848 -0.7403 -0.0836
  583MOL0     H78692   5.758   5.989   4.509  1.5291  1.5718 -0.0809
  583MOL0     H78693   5.458   5.965   4.181  0.0672 -2.0044  3.9863
  583MOL0     H78694   5.528   6.121   4.139  2.0844  0.0960 -0.4816
  583MOL0     H78695   5.295   6.168   4.207  0.5007  3.2219  0.2202
  583MOL0     H78696   5.399   6.221   4.339 -1.1202  1.5763 -2.4275
  583MOL0     H78697   5.337   6.040   4.477  1.4362  1.7426 -0.2701
  583MOL0     H78698   5.289   5.934   4.343  3.6823  1.2003 -0.9594
  583MOL0     H78699   5.091   6.094   4.296 -1.7380 -1.1069  0.3279
  583MOL0     H78700   5.098   6.005   4.456  0.6025 -0.1449 -0.5945
  583MOL0     H78701   5.056   6.387   4.582 -0.7380 -0.8096 -0.3659
  583MOL0     H78702   5.678   5.968   4.089 -0.7202  0.2283  0.6247
  583MOL0     H78703   5.816   5.870   3.934 -0.3873 -2.2249  0.7467
  583MOL0     H78704   5.985   5.898   3.975  0.0530  1.0513 -0.1879
  583MOL0     H78705   5.910   5.738   4.001  0.5903  0.2617 -0.7173
  584MOL0     O78706   5.743   1.777   2.476  0.2226  0.4528  0.3523
  584MOL0     C78707   5.686   1.874   2.526 -0.3795 -0.0186 -0.0502
  584MOL0     O78708   5.745   1.996   2.538 -0.0846 -0.2542  0.1263
  584MOL0     C78709   5.882   2.003   2.510  0.3122  0.0419  0.0476
  584MOL0     C78710   5.932   2.094   2.416  0.0826  0.1281 -0.2737
  584MOL0     C78711   6.070   2.112   2.388 -0.5050  0.7344  0.3780
  584MOL0     C78712   6.167   2.029   2.451  0.5958 -0.1125  0.1645
  584MOL0     O78713   6.300   2.045   2.417 -0.0212  0.3121  0.8863
  584MOL0     C78714   6.401   1.980   2.489 -0.6722 -0.5720  1.4992
  584MOL0     C78715   6.535   2.052   2.444  0.6270 -0.0407  0.5795
  584MOL0     C78716   6.645   1.986   2.513 -1.4750  0.4313 -0.9038
  584MOL0     C78717   6.784   2.045   2.486 -0.7993 -0.0642 -0.9169
  584MOL0     C78718   6.901   1.983   2.568  0.1848 -0.5272 -0.3269
  584MOL0     C78719   6.931   1.838   2.535  0.2641 -0.3101  0.6490
  584MOL0     C78720   7.058   1.788   2.613 -0.2188 -0.8454  0.3497
  584MOL0     C78721   7.030   1.742   2.753 -0.1808  0.0949  0.3402
  584MOL0     N78722   7.142   1.681   2.819 -0.0556 -0.3749 -1.0946
  584MOL0     C78723   7.192   1.717   2.941 -0.1418 -0.6722 -1.0546
  584MOL0     C78724   7.265   1.615   2.979  1.3564  0.6569 -0.1248
  584MOL0     C78725   7.350   1.620   3.104  1.1477 -0.0331  0.7623
  584MOL0     C78726   7.498   1.625   3.064  1.0141 -0.0237 -0.0372
  584MOL0     C78727   7.592   1.593   3.179 -0.3196 -0.4877 -0.5976
  584MOL0     C78728   7.741   1.592   3.138  0.2725 -0.0502 -0.5545
  584MOL0     O78729   7.760   1.727   3.095  0.0512  1.1611  0.2725
  584MOL0     C78730   7.885   1.765   3.080  0.6880  0.6297  0.4946
  584MOL0     C78731   7.897   1.894   3.025  0.2354 -0.6911  0.2095
  584MOL0     C78732   8.019   1.954   2.990 -0.3292 -0.1832 -0.1946
  584MOL0     C78733   8.136   1.888   3.032 -0.3112 -0.3483  0.1633
  584MOL0     C78734   8.277   1.942   3.004  0.1398  0.5798  0.7873
  584MOL0     O78735   8.390   1.874   3.049  0.1675  0.0592  1.0775
  584MOL0     C78736   8.508   1.929   3.002  0.7711  0.2200  0.2309
  584MOL0     C78737   8.588   1.992   3.093 -0.1687  0.6185  0.0252
  584MOL0     C78738   8.717   2.031   3.060  0.2290  0.7872  0.2225
  584MOL0     C78739   8.771   2.010   2.933  0.1968 -0.0706 -0.2791
  584MOL0     O78740   8.896   2.056   2.911  1.0827 -0.1559 -0.2009
  584MOL0     C78741   8.968   2.024   2.792 -0.2122 -0.4075  0.3638
  584MOL0     C78742   9.037   1.894   2.811  0.0231 -0.0749 -0.5001
  584MOL0     C78743   9.114   1.851   2.681  0.4217  0.4671 -0.0994
  584MOL0     C78744   9.240   1.919   2.663 -0.6179 -0.5612  0.3012
  584MOL0     C78745   9.358   1.841   2.719  0.1641 -0.2663  0.3038
  584MOL0     C78746   9.502   1.898   2.694 -0.2575 -0.1588 -0.0043
  584MOL0     C78747   9.602   1.833   2.782 -0.3770  0.2167  0.1706
  584MOL0     C78748   9.736   1.907   2.780  0.3197 -0.3001 -0.4029
  584MOL0    Cl78749   9.797   1.954   2.614  0.0325 -0.3109 -0.5274
  584MOL0     C78750   8.693   1.940   2.843  0.0200  0.2848  0.0728
  584MOL0     C78751   8.562   1.904   2.875 -0.1046  0.2706  0.2388
  584MOL0     O78752   8.273   2.047   2.937  0.2279 -0.2339 -0.3284
  584MOL0     C78753   8.128   1.760   3.088 -0.2617  1.0565  1.0694
  584MOL0     C78754   8.005   1.699   3.102 -0.2743 -1.3459 -0.2424
  584MOL0     N78755   7.262   1.517   2.880 -0.0700 -0.2297  1.2965
  584MOL0     N78756   7.181   1.553   2.791 -0.8888  0.0928 -0.6412
  584MOL0     C78757   6.124   1.942   2.549  0.4903  0.7413 -0.0023
  584MOL0     C78758   5.977   1.928   2.581 -0.0951 -0.0702 -0.2977
  584MOL0     C78759   5.546   1.860   2.579  0.5277  0.7021  0.1107
  584MOL0     C78760   5.487   1.966   2.654  1.2700 -0.7268  1.1538
  584MOL0     C78761   5.351   1.960   2.701 -0.8452  0.0179  0.4314
  584MOL0     C78762   5.270   1.856   2.667 -0.5969 -0.1378  0.5767
  584MOL0     O78763   5.148   1.848   2.711  0.5151  0.4851  0.6190
  584MOL0     C78764   5.047   1.903   2.628  0.3258 -0.4656  0.3628
  584MOL0     C78765   4.948   1.793   2.633 -0.8199 -0.7075 -0.1020
  584MOL0     C78766   4.805   1.832   2.602  0.3482 -0.2539 -0.1771
  584MOL0     C78767   4.785   1.889   2.455 -0.0895  0.4464 -0.2581
  584MOL0     C78768   4.651   1.939   2.438  0.4217 -0.0463 -0.9026
  584MOL0     C78769   4.537   1.985   2.427 -0.0433 -0.0850  0.6355
  584MOL0     C78770   5.334   1.743   2.617 -0.2756  0.0318 -0.0784
  584MOL0     C78771   5.466   1.741   2.566 -0.4910 -0.3204 -0.1812
  584MOL0     C78772   5.497   1.633   2.470  0.2036 -0.2717  0.2039
  584MOL0     H78773   5.857   2.149   2.360  1.2510 -0.1718 -2.2301
  584MOL0     H78774   6.096   2.195   2.323  0.8666  0.4147  0.4729
  584MOL0     H78775   6.379   2.002   2.594 -3.6557  0.8721  0.6623
  584MOL0     H78776   6.417   1.872   2.486  1.8368 -0.2806  1.8664
  584MOL0     H78777   6.522   2.151   2.487 -2.0199 -0.7145  1.5400
  584MOL0     H78778   6.539   2.061   2.335  1.5633  0.7225  0.6707
  584MOL0     H78779   6.655   1.883   2.478 -0.8285  0.4177 -0.7012
  584MOL0     H78780   6.624   1.974   2.619 -3.7919 -1.2859 -1.4719
  584MOL0     H78781   6.797   2.059   2.379 -0.8383  0.9596 -0.7953
  584MOL0     H78782   6.773   2.147   2.524 -0.5823 -0.4953  0.3669
  584MOL0     H78783   6.995   2.037   2.555 -0.0619  0.4805  1.6930
  584MOL0     H78784   6.876   1.986   2.674  1.8652  0.6532  0.0841
  584MOL0     H78785   6.841   1.780   2.559  0.5830 -1.5461 -0.9560
  584MOL0     H78786   6.943   1.836   2.426  0.0211 -0.6144  0.6256
  584MOL0     H78787   7.132   1.868   2.609  0.3435 -1.2899  1.3437
  584MOL0     H78788   7.097   1.702   2.557  1.0493  1.7893 -3.1780
  584MOL0     H78789   6.988   1.826   2.809  0.2757  1.2501 -1.0029
  584MOL0     H78790   6.949   1.667   2.751 -2.0471  1.9797  1.2138
  584MOL0     H78791   7.182   1.811   2.995 -0.3064  0.1564 -2.4839
  584MOL0     H78792   7.325   1.717   3.147  1.2082 -0.1615  1.0836
  584MOL0     H78793   7.327   1.538   3.173 -2.7030 -0.3150 -0.6037
  584MOL0     H78794   7.514   1.551   2.985  1.3103 -1.4951  1.3514
  584MOL0     H78795   7.517   1.725   3.024  0.7076  0.7677  1.6981
  584MOL0     H78796   7.562   1.497   3.221  0.3256 -0.8151 -0.8714
  584MOL0     H78797   7.585   1.672   3.255 -1.7069 -0.4059 -0.7794
  584MOL0     H78798   7.759   1.513   3.064  1.4344  1.4913 -1.9839
  584MOL0     H78799   7.802   1.560   3.223 -0.3737  0.0923 -0.0208
  584MOL0     H78800   7.804   1.947   3.008  0.3905 -0.6606 -0.5909
  584MOL0     H78801   8.024   2.056   2.954  0.4018  1.4642  3.9879
  584MOL0     H78802   8.542   2.016   3.189 -0.7535  1.8716 -0.5546
  584MOL0     H78803   8.784   2.084   3.128  1.7845  1.5038 -1.7580
  584MOL0     H78804   8.908   2.032   2.701  0.5527 -1.4001 -0.2531
  584MOL0     H78805   9.049   2.095   2.774  2.1443 -2.8713  0.6309
  584MOL0     H78806   9.105   1.905   2.896 -1.2441 -2.6874  0.9827
  584MOL0     H78807   8.959   1.820   2.831  0.7911 -1.2557 -1.6637
  584MOL0     H78808   9.123   1.741   2.680  1.1962  0.4324  2.3432
  584MOL0     H78809   9.052   1.875   2.595  0.2013 -2.2705 -0.8132
  584MOL0     H78810   9.246   2.019   2.706  0.5280 -0.0286 -1.0183
  584MOL0     H78811   9.261   1.930   2.556 -1.6259 -0.1127  0.1395
  584MOL0     H78812   9.359   1.741   2.675 -0.1082 -0.1753  0.0926
  584MOL0     H78813   9.345   1.837   2.828  1.6233  1.8268  0.6244
  584MOL0     H78814   9.532   1.898   2.589  2.8911  0.9619  0.7966
  584MOL0     H78815   9.495   2.007   2.709 -2.6771 -0.1984 -0.4110
  584MOL0     H78816   9.616   1.730   2.747  0.0415  0.9782 -2.0311
  584MOL0     H78817   9.574   1.833   2.888 -2.4604 -0.8547 -0.3238
  584MOL0     H78818   9.718   2.007   2.819 -3.8699  0.0333 -2.5916
  584MOL0     H78819   9.812   1.867   2.847  0.3098 -0.9714 -0.7816
  584MOL0     H78820   8.734   1.908   2.749  0.1726  1.2663 -0.2096
  584MOL0     H78821   8.506   1.843   2.804  0.7533 -0.0033 -0.2113
  584MOL0     H78822   8.210   1.696   3.118  1.1930  2.6937  0.7169
  584MOL0     H78823   8.007   1.600   3.148 -0.8628 -0.6690  1.3000
  584MOL0     H78824   6.197   1.883   2.603 -0.0916  0.7119  0.7679
  584MOL0     H78825   5.953   1.860   2.662 -0.6197  0.2073 -0.2158
  584MOL0     H78826   5.545   2.056   2.672 -0.9506  1.1687 -0.4959
  584MOL0     H78827   5.320   2.046   2.759  2.1100  2.0928 -0.8236
  584MOL0     H78828   5.083   1.919   2.526  1.8654 -1.0667  0.7886
  584MOL0     H78829   5.007   1.993   2.677  1.7878  0.0042  0.7413
  584MOL0     H78830   4.934   1.752   2.734 -1.2910  2.4426  1.2342
  584MOL0     H78831   4.979   1.715   2.562  0.7877 -0.4840  0.3195
  584MOL0     H78832   4.768   1.909   2.671 -1.9941 -3.0443  1.9636
  584MOL0     H78833   4.747   1.739   2.611  2.0447 -1.2947  0.3188
  584MOL0     H78834   4.858   1.966   2.427  2.0681 -0.8397  1.5225
  584MOL0     H78835   4.790   1.809   2.381 -1.0744 -0.0043  0.1441
  584MOL0     H78836   4.440   2.028   2.434  0.5663  1.1208  2.2710
  584MOL0     H78837   5.282   1.649   2.605  1.0648 -1.1608  2.5401
  584MOL0     H78838   5.418   1.558   2.457  1.7315 -1.6701 -1.6083
  584MOL0     H78839   5.508   1.675   2.370 -2.1237  1.1802  0.4893
  584MOL0     H78840   5.590   1.584   2.500  0.7560  1.5012  1.5689
  585MOL0     O78841   0.256   6.417   0.725  0.1739 -0.9916 -0.1016
  585MOL0     C78842   0.263   6.475   0.830 -0.6344 -0.0687 -0.5284
  585MOL0     O78843   0.379   6.491   0.897 -0.3024  0.2700  1.1805
  585MOL0     C78844   0.490   6.469   0.825 -0.3180 -0.4148  0.1394
  585MOL0     C78845   0.551   6.346   0.833  0.6553  0.2653  0.3380
  585MOL0     C78846   0.671   6.315   0.760 -0.2361  0.0716 -0.5105
  585MOL0     C78847   0.725   6.414   0.674 -0.0974  0.4667  0.8642
  585MOL0     O78848   0.827   6.380   0.592 -0.2556 -0.4323 -0.0580
  585MOL0     C78849   0.902   6.479   0.523 -0.1093 -0.8020  0.0458
  585MOL0     C78850   1.036   6.425   0.481 -1.0285  0.0927  0.4945
  585MOL0     C78851   1.024   6.331   0.366 -0.0333 -0.1884  2.1504
  585MOL0     C78852   1.155   6.304   0.289 -0.5384 -0.3485  0.5901
  585MOL0     C78853   1.139   6.258   0.143 -0.3678  0.2446 -0.2245
  585MOL0     C78854   1.261   6.177   0.086 -0.2672  0.0875 -0.2220
  585MOL0     C78855   1.397   6.249   0.063  0.2488  0.7627 -0.0696
  585MOL0     C78856   1.514   6.151   0.071 -0.3973  0.4420 -0.6436
  585MOL0     N78857   1.638   6.230   0.049 -0.1585 -0.9488  0.2388
  585MOL0     C78858   1.766   6.184   0.026  0.5381  0.4282 -0.5609
  585MOL0     C78859   1.853   6.276   0.081  0.0616  0.1150 -0.1282
  585MOL0     C78860   1.998   6.255   0.088  0.8068  0.1103  0.0209
  585MOL0     C78861   2.053   6.226  -0.049 -0.9537 -0.4992  0.1029
  585MOL0     C78862   2.205   6.202  -0.047 -0.4452 -0.2481 -0.1808
  585MOL0     C78863   2.283   6.335  -0.041 -0.2053  0.3340  0.2884
  585MOL0     O78864   2.425   6.298  -0.048 -0.4023  0.3883 -0.7002
  585MOL0     C78865   2.516   6.400  -0.035 -0.5037 -0.0471  0.4422
  585MOL0     C78866   2.490   6.534  -0.008  0.0720  0.6728 -0.3995
  585MOL0     C78867   2.592   6.633   0.005 -0.5116 -0.4645 -0.3898
  585MOL0     C78868   2.724   6.596  -0.030  0.9285 -0.0806  0.0221
  585MOL0     C78869   2.826   6.706  -0.021 -0.1664 -0.3055 -0.1993
  585MOL0     O78870   2.944   6.687  -0.093 -0.1798 -0.2750  0.0299
  585MOL0     C78871   3.036   6.789  -0.095 -0.7371  0.4088 -0.2840
  585MOL0     C78872   3.129   6.769   0.003 -0.5297  0.1292 -0.6089
  585MOL0     C78873   3.237   6.865   0.011  0.3685  0.4938  0.6822
  585MOL0     C78874   3.254   6.977  -0.071 -0.5222  0.5520  0.6182
  585MOL0     O78875   3.364   7.058  -0.052  0.0116 -0.8621  0.5210
  585MOL0     C78876   3.408   7.140  -0.159 -0.3990  0.0845 -0.1407
  585MOL0     C78877   3.476   7.050  -0.266 -0.0223  0.0445 -0.0281
  585MOL0     C78878   3.579   6.944  -0.216  0.0886 -0.5265 -0.0875
  585MOL0     C78879   3.641   6.867  -0.336  0.6029 -0.6212 -0.1166
  585MOL0     C78880   3.762   6.791  -0.290 -0.0122  0.1556 -0.5365
  585MOL0     C78881   3.815   6.726  -0.421 -0.3709 -0.1806 -0.8463
  585MOL0     C78882   3.902   6.604  -0.391  0.1676  0.6748 -0.3974
  585MOL0     C78883   4.032   6.635  -0.329 -1.1662 -0.4726  0.1322
  585MOL0    Cl78884   4.128   6.736  -0.440  0.1214  0.0332  0.1276
  585MOL0     C78885   3.155   6.989  -0.174 -0.6087  0.4790  1.1009
  585MOL0     C78886   3.051   6.898  -0.188 -0.7596  0.0219  0.1120
  585MOL0     O78887   2.798   6.801   0.046 -0.1724  0.3306  0.0770
  585MOL0     C78888   2.747   6.460  -0.072  0.0183  0.2783 -0.3521
  585MOL0     C78889   2.650   6.367  -0.068  0.0239  0.3846 -0.7410
  585MOL0     N78890   1.778   6.378   0.138 -0.6431 -0.6217 -0.1178
  585MOL0     N78891   1.657   6.352   0.123  0.4785  1.0439  0.3213
  585MOL0     C78892   0.663   6.538   0.671  0.8621  0.3473  0.3842
  585MOL0     C78893   0.543   6.567   0.739 -0.3617 -0.3638 -0.3106
  585MOL0     C78894   0.141   6.522   0.904 -0.1025 -0.0151  0.3338
  585MOL0     C78895   0.036   6.428   0.920  0.3816  0.2109  0.5988
  585MOL0     C78896  -0.084   6.456   0.992 -0.3823 -0.2892 -0.2089
  585MOL0     C78897  -0.089   6.566   1.077  1.4839 -0.1566  0.1352
  585MOL0     O78898  -0.203   6.574   1.160  1.1042 -0.0156 -0.5563
  585MOL0     C78899  -0.240   6.691   1.233  0.2830 -0.5582 -0.0836
  585MOL0     C78900  -0.287   6.807   1.162 -0.3794 -0.2406 -0.2613
  585MOL0     C78901  -0.415   6.782   1.074  0.5011  0.7154 -0.3522
  585MOL0     C78902  -0.549   6.762   1.154 -0.3916 -0.5832 -0.2402
  585MOL0     C78903  -0.659   6.808   1.066  0.5238 -1.2133 -0.4512
  585MOL0     C78904  -0.744   6.855   0.990 -0.0459  0.3015  0.5334
  585MOL0     C78905   0.011   6.661   1.060 -0.1188  0.0239 -0.4047
  585MOL0     C78906   0.126   6.648   0.979 -0.5975  0.1867  0.7862
  585MOL0     C78907   0.225   6.770   0.977  0.2527 -0.3796  0.1078
  585MOL0     H78908   0.502   6.262   0.880  1.8675  0.1790  1.5135
  585MOL0     H78909   0.717   6.217   0.767 -1.1316 -0.5685 -2.6987
  585MOL0     H78910   0.847   6.507   0.432 -1.0702 -0.4463  0.7147
  585MOL0     H78911   0.927   6.566   0.583 -0.1829  1.3366 -2.7823
  585MOL0     H78912   1.080   6.368   0.564  1.2372 -0.9521 -1.2960
  585MOL0     H78913   1.107   6.503   0.455 -0.1848 -0.9182 -0.3582
  585MOL0     H78914   0.951   6.379   0.300 -1.5954 -0.3375  3.6864
  585MOL0     H78915   0.978   6.235   0.388  1.8836 -2.4361 -2.3810
  585MOL0     H78916   1.221   6.392   0.288  1.4389 -1.7352  2.0246
  585MOL0     H78917   1.208   6.226   0.344  0.5374  0.7488  1.1551
  585MOL0     H78918   1.057   6.189   0.162  1.1968 -1.3918  0.9711
  585MOL0     H78919   1.118   6.346   0.081  1.3472  4.2119  4.1714
  585MOL0     H78920   1.289   6.098   0.156  1.6483 -0.9669 -2.0674
  585MOL0     H78921   1.229   6.138  -0.011 -1.1204 -0.3788  0.2378
  585MOL0     H78922   1.406   6.327   0.139 -0.1992 -0.5552  1.3826
  585MOL0     H78923   1.399   6.297  -0.036  0.2254  0.5206 -0.1874
  585MOL0     H78924   1.524   6.101   0.168 -1.8259  2.4320  0.6090
  585MOL0     H78925   1.500   6.083  -0.014  1.4319  0.7903 -1.2569
  585MOL0     H78926   1.773   6.080  -0.004 -2.6225  0.2156 -0.9268
  585MOL0     H78927   2.037   6.342   0.140  2.4000 -2.0690  2.7009
  585MOL0     H78928   2.026   6.172   0.153  1.0042  1.5484  1.8217
  585MOL0     H78929   2.005   6.139  -0.096 -2.4436  0.6634 -0.6473
  585MOL0     H78930   2.036   6.307  -0.120  1.4089 -0.9994 -1.1148
  585MOL0     H78931   2.245   6.146  -0.132 -0.1987 -0.4685  0.0765
  585MOL0     H78932   2.245   6.149   0.039  2.8849  0.9895 -0.8221
  585MOL0     H78933   2.252   6.387   0.050 -3.4825  3.3869 -2.3002
  585MOL0     H78934   2.264   6.399  -0.127 -0.2594  1.2214  0.9477
  585MOL0     H78935   2.389   6.555   0.026  0.8002 -1.0539  3.2440
  585MOL0     H78936   2.571   6.738   0.024  2.4635  0.2427 -0.5692
  585MOL0     H78937   3.123   6.689   0.076  0.0822  0.5936 -0.0366
  585MOL0     H78938   3.313   6.848   0.087  2.4285  3.6272 -0.4901
  585MOL0     H78939   3.328   7.192  -0.212  0.4891  0.1485 -1.4662
  585MOL0     H78940   3.478   7.220  -0.132  0.0663 -1.3593  3.5679
  585MOL0     H78941   3.397   7.004  -0.325  3.0287 -1.2896 -3.4845
  585MOL0     H78942   3.527   7.117  -0.336  1.8211  0.0790  1.2723
  585MOL0     H78943   3.653   6.991  -0.151 -2.1892 -0.9460  3.0720
  585MOL0     H78944   3.535   6.870  -0.148 -1.8467 -0.8580 -1.6241
  585MOL0     H78945   3.664   6.931  -0.421  2.1789  0.1511  0.8342
  585MOL0     H78946   3.571   6.796  -0.381 -0.3212  0.5417 -0.5916
  585MOL0     H78947   3.735   6.720  -0.211  0.1611  1.6166  0.8867
  585MOL0     H78948   3.839   6.856  -0.248 -0.5356  2.3486 -2.6972
  585MOL0     H78949   3.738   6.689  -0.489  0.3008  1.3783 -2.5271
  585MOL0     H78950   3.866   6.809  -0.469 -1.6223 -0.4282 -2.7048
  585MOL0     H78951   3.915   6.539  -0.478  4.1126 -1.1961  1.3094
  585MOL0     H78952   3.848   6.540  -0.320 -3.3760  2.3298 -1.4059
  585MOL0     H78953   4.016   6.698  -0.240 -1.1533 -0.1243 -0.1121
  585MOL0     H78954   4.092   6.549  -0.298  0.3136 -0.2655 -1.9549
  585MOL0     H78955   3.159   7.066  -0.250 -2.4387  0.4195  0.9099
  585MOL0     H78956   2.987   6.903  -0.276 -2.2536  1.7145  1.2175
  585MOL0     H78957   2.853   6.442  -0.085  0.2705  0.9770  0.5334
  585MOL0     H78958   2.683   6.270  -0.103 -2.1066 -1.5264  2.0654
  585MOL0     H78959   0.703   6.619   0.610  0.4234 -1.2143 -2.0831
  585MOL0     H78960   0.495   6.662   0.722  0.7039  0.4271  0.8797
  585MOL0     H78961   0.033   6.332   0.869 -2.1517 -0.4053  1.7332
  585MOL0     H78962  -0.170   6.391   1.005 -4.1244  3.3608 -3.7779
  585MOL0     H78963  -0.151   6.718   1.290 -1.2463  0.6054  1.8545
  585MOL0     H78964  -0.312   6.667   1.311  1.6260 -0.8220  1.1060
  585MOL0     H78965  -0.205   6.834   1.095  0.3483 -0.0001  0.7028
  585MOL0     H78966  -0.307   6.891   1.229  0.7641  1.6807 -2.2010
  585MOL0     H78967  -0.406   6.693   1.011 -0.6678  2.0094 -2.4794
  585MOL0     H78968  -0.423   6.872   1.011  0.5887  2.0762  1.5136
  585MOL0     H78969  -0.569   6.659   1.184  0.6454 -0.4814  0.8681
  585MOL0     H78970  -0.549   6.822   1.245 -6.1148 -2.0867  1.1398
  585MOL0     H78971  -0.818   6.885   0.918 -0.9181  0.9052  1.6420
  585MOL0     H78972   0.018   6.749   1.123 -0.1385  0.7350 -1.3742
  585MOL0     H78973   0.169   6.854   1.018  0.5251  0.1823 -0.6477
  585MOL0     H78974   0.321   6.759   1.028  1.7651 -1.0982 -2.6981
  585MOL0     H78975   0.248   6.799   0.874  2.1522  0.5570  0.7688
  586MOL0     O78976   5.665   8.894   0.029  0.4322  0.4238 -0.2774
  586MOL0     C78977   5.581   8.898   0.127 -0.3449 -1.3441 -0.3251
  586MOL0     O78978   5.613   8.969   0.248  0.2643  0.1827  0.3841
  586MOL0     C78979   5.720   9.055   0.263  0.7993 -0.4510  0.0114
  586MOL0     C78980   5.683   9.175   0.330  0.1782 -0.2042 -0.1749
  586MOL0     C78981   5.783   9.273   0.354  0.1447  0.9777 -0.7594
  586MOL0     C78982   5.918   9.250   0.310  1.2932  0.4792 -0.0504
  586MOL0     O78983   6.014   9.345   0.330  0.3287  0.2560  0.1580
  586MOL0     C78984   6.112   9.315   0.425 -0.5158  0.3621  0.7003
  586MOL0     C78985   6.211   9.424   0.426 -0.9590 -0.6117  0.4174
  586MOL0     C78986   6.323   9.405   0.529 -0.6325 -0.6501  0.2317
  586MOL0     C78987   6.444   9.505   0.519 -0.3214 -0.8596  0.2066
  586MOL0     C78988   6.554   9.462   0.621  0.0058  1.0093 -0.4333
  586MOL0     C78989   6.618   9.322   0.615 -0.2909 -0.1995  0.1762
  586MOL0     C78990   6.768   9.336   0.666  0.6396  0.1931  0.4972
  586MOL0     C78991   6.848   9.212   0.675 -0.9194 -0.2108 -0.3447
  586MOL0     N78992   6.992   9.232   0.700 -0.4380 -0.2754  0.4943
  586MOL0     C78993   7.081   9.135   0.647  0.0235 -0.2114  0.3580
  586MOL0     C78994   7.209   9.187   0.673  0.3590  0.1128  0.6359
  586MOL0     C78995   7.340   9.117   0.635  1.3927  0.0600 -0.4031
  586MOL0     C78996   7.443   9.159   0.741 -0.6153  0.4820 -0.4031
  586MOL0     C78997   7.579   9.103   0.715 -0.0627 -0.0564 -0.5091
  586MOL0     C78998   7.691   9.160   0.812 -0.1288  0.3002  0.2334
  586MOL0     O78999   7.813   9.121   0.747  0.2770 -0.2658  0.4615
  586MOL0     C79000   7.938   9.157   0.796  0.0415  0.8381 -0.0352
  586MOL0     C79001   7.961   9.238   0.902 -0.9118  0.2593 -0.3817
  586MOL0     C79002   8.094   9.263   0.945  0.4364  0.2120 -0.1281
  586MOL0     C79003   8.197   9.207   0.879  1.3379 -0.9491  0.1014
  586MOL0     C79004   8.333   9.232   0.936  0.3870  0.6652  0.5702
  586MOL0     O79005   8.437   9.216   0.843 -0.9580  0.6405 -0.1903
  586MOL0     C79006   8.567   9.206   0.902 -0.6875 -0.4269 -0.1006
  586MOL0     C79007   8.633   9.319   0.959  0.5985  0.0577  0.2572
  586MOL0     C79008   8.759   9.307   1.009  0.1410  0.0794 -0.1668
  586MOL0     C79009   8.834   9.192   0.998  0.5677  0.2177  0.9877
  586MOL0     O79010   8.953   9.201   1.065  0.1097  0.1809  0.4611
  586MOL0     C79011   9.021   9.083   1.076  0.8467  0.5437  0.4772
  586MOL0     C79012   9.167   9.115   1.117 -0.3450  0.9293  0.2849
  586MOL0     C79013   9.238   9.218   1.017 -0.2416  0.2785 -0.1452
  586MOL0     C79014   9.381   9.248   1.056 -0.4971  0.5314  0.1191
  586MOL0     C79015   9.459   9.337   0.945 -0.9401 -0.2929 -0.1390
  586MOL0     C79016   9.596   9.391   0.988  0.2950  0.3116 -0.0166
  586MOL0     C79017   9.606   9.469   1.121 -0.5611  0.2626 -0.5671
  586MOL0     C79018   9.746   9.513   1.156  0.2413 -0.0842  0.2549
  586MOL0    Cl79019   9.774   9.672   1.079  0.2009  0.1437  0.1350
  586MOL0     C79020   8.770   9.075   0.938 -1.3597 -0.7757 -0.6433
  586MOL0     C79021   8.637   9.084   0.891 -0.2115 -0.1971 -0.0485
  586MOL0     O79022   8.341   9.284   1.047 -0.3439 -0.0671 -0.6902
  586MOL0     C79023   8.183   9.134   0.767  0.0917 -0.2004  1.1301
  586MOL0     C79024   8.052   9.113   0.725  0.2778  0.3419  0.3119
  586MOL0     N79025   7.193   9.307   0.739  0.3087 -0.3469 -0.5227
  586MOL0     N79026   7.064   9.333   0.755 -0.4908 -1.4661 -0.1505
  586MOL0     C79027   5.944   9.134   0.239 -0.3437 -0.6202 -0.3459
  586MOL0     C79028   5.853   9.035   0.219 -0.1387 -0.2164  0.1691
  586MOL0     C79029   5.461   8.811   0.118  0.3299  0.0188  0.0710
  586MOL0     C79030   5.455   8.694   0.039  0.0134 -0.9561  0.5850
  586MOL0     C79031   5.352   8.604   0.031  0.3146 -0.2944  0.0582
  586MOL0     C79032   5.231   8.629   0.111 -0.1241  1.0487 -0.1653
  586MOL0     O79033   5.101   8.573   0.087 -0.3277  0.1872 -0.4755
  586MOL0     C79034   5.088   8.459   0.002 -0.0558  0.1115 -0.4994
  586MOL0     C79035   5.067   8.498  -0.137  0.5381 -0.0588  0.6515
  586MOL0     C79036   5.052   8.380  -0.230  0.1291  0.4589 -0.3111
  586MOL0     C79037   5.062   8.433  -0.369  0.0586 -0.2402  0.2830
  586MOL0     C79038   5.080   8.329  -0.473  0.2607 -0.1829 -1.0176
  586MOL0     C79039   5.088   8.239  -0.549  0.0014  0.1891  0.2138
  586MOL0     C79040   5.237   8.739   0.194  0.6114  1.0704 -0.7071
  586MOL0     C79041   5.344   8.831   0.199 -0.0618  0.3236 -0.4652
  586MOL0     C79042   5.322   8.955   0.294  0.1629 -0.6519 -0.4793
  586MOL0     H79043   5.579   9.190   0.358 -0.6566 -1.8778 -2.1559
  586MOL0     H79044   5.758   9.359   0.415 -2.3086 -0.7403  0.7957
  586MOL0     H79045   6.063   9.298   0.521  1.2756 -2.2393  1.2457
  586MOL0     H79046   6.170   9.226   0.399  0.1497  0.3487  2.1632
  586MOL0     H79047   6.161   9.514   0.461 -0.1375 -1.2269  3.5336
  586MOL0     H79048   6.254   9.450   0.329 -0.8114 -2.1200  0.0517
  586MOL0     H79049   6.358   9.304   0.505 -1.3779 -0.3485 -2.5397
  586MOL0     H79050   6.284   9.390   0.630 -0.2463 -2.5839  0.1359
  586MOL0     H79051   6.475   9.518   0.415  0.2190  0.8726  0.5573
  586MOL0     H79052   6.405   9.599   0.560 -0.5654 -1.5175  1.5416
  586MOL0     H79053   6.634   9.536   0.609  3.0712 -2.0520 -0.5329
  586MOL0     H79054   6.515   9.470   0.723  0.5445 -1.0074 -0.0308
  586MOL0     H79055   6.551   9.252   0.664 -2.5947  0.4077 -1.9262
  586MOL0     H79056   6.624   9.300   0.508  0.5587  2.0968 -0.3138
  586MOL0     H79057   6.774   9.388   0.762 -1.7361  0.0318  0.8115
  586MOL0     H79058   6.811   9.408   0.596 -0.8803 -1.4504 -2.2807
  586MOL0     H79059   6.806   9.155   0.758  0.3126  2.9717  2.7281
  586MOL0     H79060   6.839   9.156   0.582  2.5482 -1.0930 -0.2813
  586MOL0     H79061   7.052   9.044   0.595 -1.0058  1.4612 -2.1734
  586MOL0     H79062   7.328   9.009   0.631  1.0767  0.1385 -3.5087
  586MOL0     H79063   7.352   9.147   0.531  3.5624  4.3775  0.8233
  586MOL0     H79064   7.469   9.265   0.743  0.8015  0.1485  0.4388
  586MOL0     H79065   7.414   9.119   0.838  2.4763  1.2078  0.9583
  586MOL0     H79066   7.597   9.113   0.608 -0.3126 -0.7984 -0.6216
  586MOL0     H79067   7.578   8.996   0.735 -2.1229  0.1341  0.7413
  586MOL0     H79068   7.696   9.103   0.906  0.4489 -1.1622 -0.6380
  586MOL0     H79069   7.677   9.267   0.825 -1.9969  0.2625 -1.1169
  586MOL0     H79070   7.876   9.280   0.955 -1.1352 -0.3376 -0.2626
  586MOL0     H79071   8.112   9.339   1.021  1.0696  0.8530 -0.9043
  586MOL0     H79072   8.585   9.416   0.957 -0.5697 -0.4998  0.3879
  586MOL0     H79073   8.790   9.394   1.065 -1.3520  0.4683  0.1031
  586MOL0     H79074   8.969   9.012   1.141  0.6058  0.8042  0.5711
  586MOL0     H79075   9.042   9.046   0.975  1.3016  0.1833  0.6992
  586MOL0     H79076   9.166   9.155   1.219 -3.3212 -1.0293  1.1610
  586MOL0     H79077   9.221   9.019   1.115 -0.3174  0.9573 -0.5929
  586MOL0     H79078   9.233   9.169   0.919 -3.3364  0.7187 -0.3169
  586MOL0     H79079   9.190   9.317   1.018 -1.9688 -0.5315  1.0877
  586MOL0     H79080   9.437   9.155   1.071 -2.2924 -0.9252 -1.6030
  586MOL0     H79081   9.375   9.296   1.154 -0.2379  0.7850  0.0130
  586MOL0     H79082   9.389   9.418   0.925  0.1349  1.7670  3.4134
  586MOL0     H79083   9.476   9.280   0.854  1.3292  0.3042 -0.1439
  586MOL0     H79084   9.666   9.307   0.990 -1.5318 -1.2423  0.8693
  586MOL0     H79085   9.626   9.461   0.909  1.1302  1.0706  0.9385
  586MOL0     H79086   9.582   9.396   1.199 -0.3536  1.0883  0.2884
  586MOL0     H79087   9.539   9.555   1.120 -1.6487 -0.5521  0.1015
  586MOL0     H79088   9.753   9.522   1.265 -1.7519 -1.1122  0.5111
  586MOL0     H79089   9.821   9.443   1.120  0.2749  0.6959 -1.2722
  586MOL0     H79090   8.824   8.981   0.924 -0.5276 -0.1042 -2.2420
  586MOL0     H79091   8.595   9.004   0.832 -1.4698 -0.2707  0.9069
  586MOL0     H79092   8.268   9.100   0.708 -1.2623 -1.7893  0.0068
  586MOL0     H79093   8.040   9.045   0.641 -1.1754  0.6949  0.2180
  586MOL0     H79094   6.048   9.129   0.210 -0.1644  0.9044 -0.0709
  586MOL0     H79095   5.882   8.944   0.167  3.1251 -0.4434  2.1426
  586MOL0     H79096   5.540   8.675  -0.026 -0.2085 -1.0271  0.3201
  586MOL0     H79097   5.364   8.525  -0.042  1.4491 -0.5819  0.5373
  586MOL0     H79098   5.008   8.391   0.033 -1.2781  1.6391 -0.1783
  586MOL0     H79099   5.180   8.400   0.002 -0.0381  0.1156 -1.6065
  586MOL0     H79100   5.150   8.556  -0.178  0.6689 -0.2565  0.6321
  586MOL0     H79101   4.973   8.553  -0.139  2.0271  2.6908 -1.6485
  586MOL0     H79102   4.961   8.322  -0.211  0.3018  0.4593  0.5901
  586MOL0     H79103   5.140   8.317  -0.220  1.4442  2.2912  0.1729
  586MOL0     H79104   4.968   8.485  -0.387 -0.2091 -0.8969 -0.2595
  586MOL0     H79105   5.148   8.499  -0.377 -1.4545  1.9073  0.8646
  586MOL0     H79106   5.085   8.158  -0.620 -1.2005  1.2003 -0.9255
  586MOL0     H79107   5.148   8.750   0.255 -0.4128 -2.0206 -1.4992
  586MOL0     H79108   5.376   9.047   0.270  1.4295 -0.5846  2.3077
  586MOL0     H79109   5.214   8.973   0.292  0.3869  1.5748  2.2804
  586MOL0     H79110   5.359   8.921   0.391 -3.3073 -1.1175  0.8011
  587MOL0     O79111  10.508   5.085   5.644 -0.0910  0.7904  0.3985
  587MOL0     C79112  10.498   4.992   5.723 -0.5225  0.5092  0.1045
  587MOL0     O79113  10.589   4.964   5.833  0.3334  0.3117 -0.2250
  587MOL0     C79114  10.697   5.041   5.850 -0.9320 -0.6223  0.4506
  587MOL0     C79115  10.731   5.068   5.983 -0.6551  0.7535 -0.7106
  587MOL0     C79116  10.840   5.151   6.011 -1.0910  0.1769 -0.2911
  587MOL0     C79117  10.904   5.223   5.912  0.1012 -0.6805 -1.1000
  587MOL0     O79118  11.006   5.307   5.930  0.0001 -0.6083  0.8300
  587MOL0     C79119  11.091   5.305   6.039  0.3848 -0.3355  0.3918
  587MOL0     C79120  11.193   5.412   5.998 -0.0557 -0.5889 -0.0622
  587MOL0     C79121  11.296   5.446   6.110 -0.0762  0.3135 -0.8343
  587MOL0     C79122  11.387   5.565   6.062  0.7529 -0.0298 -0.2852
  587MOL0     C79123  11.487   5.614   6.163  0.9490 -0.4515  0.0284
  587MOL0     C79124  11.436   5.670   6.298  0.2542  0.0182  0.7185
  587MOL0     C79125  11.546   5.755   6.361 -0.0121  0.1187  0.3631
  587MOL0     C79126  11.530   5.790   6.513 -0.2287 -0.4484  0.1126
  587MOL0     N79127  11.634   5.880   6.561 -0.0619 -0.3941  0.4332
  587MOL0     C79128  11.766   5.854   6.539 -0.2761  0.8338 -0.3430
  587MOL0     C79129  11.818   5.975   6.559 -1.0399 -0.0785 -0.0063
  587MOL0     C79130  11.964   6.023   6.561  1.2427  0.7233 -0.8242
  587MOL0     C79131  11.988   6.093   6.423 -0.1229  0.5072  0.4306
  587MOL0     C79132  12.105   6.192   6.429 -0.1286 -0.9049  0.5682
  587MOL0     C79133  12.131   6.256   6.290  0.2955 -1.1569 -0.6219
  587MOL0     O79134  12.172   6.155   6.193  0.0683  0.3616  0.2105
  587MOL0     C79135  12.298   6.097   6.202  0.2281  0.1070 -0.2884
  587MOL0     C79136  12.415   6.166   6.249 -0.0392 -0.8183  0.2495
  587MOL0     C79137  12.537   6.102   6.259 -0.1829 -0.4929  0.4148
  587MOL0     C79138  12.556   5.972   6.222 -0.4919 -0.4218  0.3018
  587MOL0     C79139  12.698   5.914   6.216  0.4394 -0.0687  0.2150
  587MOL0     O79140  12.720   5.799   6.140  0.7273  0.4312 -0.6186
  587MOL0     C79141  12.843   5.775   6.096  0.5118  0.2010 -0.1688
  587MOL0     C79142  12.898   5.649   6.120  0.5476 -0.3072  0.6090
  587MOL0     C79143  13.028   5.618   6.070 -0.4401  0.0906  0.3635
  587MOL0     C79144  13.103   5.717   6.001 -0.1408 -0.1882 -0.4789
  587MOL0     O79145  13.219   5.676   5.946  0.3405 -0.3188  0.4900
  587MOL0     C79146  13.334   5.748   5.977 -0.2431 -0.1863 -0.1100
  587MOL0     C79147  13.446   5.694   5.881  0.0829 -0.6043  0.5595
  587MOL0     C79148  13.580   5.774   5.883  0.0943 -0.1989  0.2476
  587MOL0     C79149  13.663   5.743   6.009 -0.1697  0.2359  1.4466
  587MOL0     C79150  13.775   5.836   6.049 -0.7405  0.1775  0.2144
  587MOL0     C79151  13.892   5.845   5.929  0.2005  0.1627 -1.4097
  587MOL0     C79152  13.961   5.713   5.897  0.8540  0.0297 -0.2133
  587MOL0     C79153  14.087   5.737   5.813  0.3187  0.6204 -0.5748
  587MOL0    Cl79154  14.227   5.788   5.922 -0.0368 -0.0572 -0.1829
  587MOL0     C79155  13.046   5.841   5.981  0.3749 -0.1806 -0.2599
  587MOL0     C79156  12.917   5.870   6.027 -0.0787 -0.4104 -0.9164
  587MOL0     O79157  12.788   5.992   6.262 -0.6909 -0.0689  0.3395
  587MOL0     C79158  12.439   5.904   6.184 -0.4085  0.6384  0.3726
  587MOL0     C79159  12.312   5.965   6.168 -0.5369 -0.8264  0.0712
  587MOL0     N79160  11.727   6.067   6.595 -0.1541  0.6817 -0.4682
  587MOL0     N79161  11.606   6.009   6.587  0.1973  0.4228 -0.1334
  587MOL0     C79162  10.873   5.188   5.782 -1.0041 -1.1926 -0.4749
  587MOL0     C79163  10.770   5.105   5.748 -0.3732 -0.0414 -0.0837
  587MOL0     C79164  10.382   4.904   5.701  0.3220  0.9637  0.0352
  587MOL0     C79165  10.311   4.911   5.578  0.5647  0.7662 -0.3740
  587MOL0     C79166  10.197   4.833   5.551 -1.4725  0.3885 -0.3620
  587MOL0     C79167  10.151   4.746   5.654  0.4290  0.1162  0.3781
  587MOL0     O79168  10.042   4.667   5.628  0.0659  0.1531 -0.2786
  587MOL0     C79169   9.920   4.716   5.686  0.2878  0.9606  0.3374
  587MOL0     C79170   9.804   4.654   5.600 -0.1921 -0.0938 -0.3438
  587MOL0     C79171   9.823   4.696   5.456 -0.0936 -0.3595  0.0181
  587MOL0     C79172   9.714   4.631   5.375 -0.9695 -0.3593 -0.6579
  587MOL0     C79173   9.580   4.678   5.391 -0.7485  0.2539  0.2060
  587MOL0     C79174   9.471   4.733   5.412 -0.9886  0.7783  0.1472
  587MOL0     C79175  10.225   4.736   5.773  0.2826 -0.2423 -0.0975
  587MOL0     C79176  10.336   4.814   5.806  0.6136  0.1713 -0.1927
  587MOL0     C79177  10.382   4.794   5.947 -0.5497 -0.2825  1.0419
  587MOL0     H79178  10.675   5.025   6.065  2.4637 -2.2299  0.1067
  587MOL0     H79179  10.874   5.168   6.113  2.6648 -3.2106 -0.7245
  587MOL0     H79180  11.032   5.336   6.126  0.6579  1.3358  0.0090
  587MOL0     H79181  11.144   5.209   6.051  0.9214 -0.2800 -1.3313
  587MOL0     H79182  11.136   5.499   5.963 -0.6366 -0.2684  1.5976
  587MOL0     H79183  11.260   5.376   5.920  3.3984 -0.8400  2.7457
  587MOL0     H79184  11.348   5.356   6.143  2.6608  2.2230  0.4109
  587MOL0     H79185  11.259   5.480   6.207 -0.3538 -2.2572  0.0274
  587MOL0     H79186  11.446   5.534   5.976 -0.0060  0.1927 -0.8954
  587MOL0     H79187  11.315   5.644   6.039  0.8882 -0.3598 -1.9014
  587MOL0     H79188  11.536   5.520   6.189 -0.6397 -0.6780  2.4886
  587MOL0     H79189  11.562   5.675   6.112  2.1712 -1.9659 -0.0354
  587MOL0     H79190  11.338   5.717   6.284  0.4980  0.2210 -0.3858
  587MOL0     H79191  11.410   5.587   6.365 -2.7666  0.9554  0.8760
  587MOL0     H79192  11.552   5.858   6.324 -4.4450  0.0391 -1.2138
  587MOL0     H79193  11.639   5.699   6.354  0.2839  0.1942  2.7854
  587MOL0     H79194  11.430   5.831   6.526 -0.9384 -2.1445  0.2036
  587MOL0     H79195  11.540   5.697   6.569  2.3058 -1.2576 -1.4896
  587MOL0     H79196  11.822   5.763   6.518 -1.2596 -0.5555  2.4950
  587MOL0     H79197  11.975   6.103   6.634 -0.1412 -0.0856  0.3167
  587MOL0     H79198  12.026   5.934   6.573 -1.3209 -1.4371 -2.3219
  587MOL0     H79199  12.020   6.010   6.360  1.7530  1.5429 -0.0600
  587MOL0     H79200  11.899   6.141   6.383 -0.9253 -0.5821  0.8680
  587MOL0     H79201  12.197   6.150   6.470  0.9451  1.2056  0.4763
  587MOL0     H79202  12.076   6.272   6.497 -1.7472 -0.6252 -0.4039
  587MOL0     H79203  12.199   6.342   6.293  0.6546 -1.4270 -1.0814
  587MOL0     H79204  12.035   6.289   6.250  1.6110  1.1938 -2.0636
  587MOL0     H79205  12.408   6.273   6.268  0.6094 -0.3355 -1.9142
  587MOL0     H79206  12.623   6.158   6.295 -0.2919  0.4804 -0.7755
  587MOL0     H79207  12.839   5.572   6.170 -2.8053  0.9443 -1.0720
  587MOL0     H79208  13.073   5.520   6.086  1.4294 -0.5687 -5.8878
  587MOL0     H79209  13.311   5.852   5.950  1.7615  0.4796  0.5104
  587MOL0     H79210  13.359   5.732   6.083 -1.1665 -0.0505  0.1403
  587MOL0     H79211  13.477   5.590   5.894  2.8460 -0.0450 -0.8457
  587MOL0     H79212  13.406   5.690   5.779  4.3898 -0.1355 -1.3387
  587MOL0     H79213  13.632   5.756   5.788 -0.9201  2.5462 -0.9320
  587MOL0     H79214  13.557   5.881   5.878  0.0180 -0.2145  0.2756
  587MOL0     H79215  13.707   5.645   5.987 -2.4967 -0.4338 -0.6378
  587MOL0     H79216  13.598   5.739   6.097  0.7608  0.5721  2.1692
  587MOL0     H79217  13.819   5.803   6.144  2.0241 -0.7074 -1.2545
  587MOL0     H79218  13.726   5.933   6.052  0.3718  0.7992 -1.0043
  587MOL0     H79219  13.839   5.875   5.838 -2.5061 -1.1212 -0.3446
  587MOL0     H79220  13.964   5.926   5.949  2.3027 -2.0868  0.9092
  587MOL0     H79221  13.894   5.649   5.837  0.1730  0.6634 -0.1476
  587MOL0     H79222  13.995   5.662   5.987  0.6788  2.1141  1.1016
  587MOL0     H79223  14.103   5.638   5.770 -1.6887  0.7972 -1.8525
  587MOL0     H79224  14.065   5.814   5.739  0.0564  1.0717 -0.0379
  587MOL0     H79225  13.094   5.916   5.920 -3.6666  1.5493 -1.6581
  587MOL0     H79226  12.878   5.970   6.013  1.7893  0.6803  1.0236
  587MOL0     H79227  12.442   5.799   6.156 -1.8256  0.9611 -1.1737
  587MOL0     H79228  12.222   5.908   6.146 -2.8817  2.6355  0.0534
  587MOL0     H79229  10.938   5.236   5.710 -1.1131 -0.3421 -0.0106
  587MOL0     H79230  10.748   5.086   5.643  1.3920 -3.4202  0.0328
  587MOL0     H79231  10.352   4.967   5.495  2.2449  1.1026  0.6354
  587MOL0     H79232  10.155   4.837   5.451  2.4928  2.6724 -2.1570
  587MOL0     H79233   9.925   4.825   5.685 -0.5365  1.0041  0.2356
  587MOL0     H79234   9.915   4.686   5.791 -1.6521 -2.0993 -0.4965
  587MOL0     H79235   9.713   4.697   5.641 -0.1969  1.0245 -1.4942
  587MOL0     H79236   9.795   4.545   5.613 -2.1260  0.1523  0.6668
  587MOL0     H79237   9.918   4.666   5.411  0.2999  0.6607  0.1449
  587MOL0     H79238   9.808   4.803   5.440 -2.4120 -1.0295 -3.1317
  587MOL0     H79239   9.743   4.634   5.269  2.4913 -0.3442  0.1662
  587MOL0     H79240   9.717   4.522   5.386  0.0191 -0.9473 -4.9297
  587MOL0     H79241   9.377   4.770   5.447 -1.4678 -0.9932  0.8533
  587MOL0     H79242  10.179   4.664   5.841 -2.7312 -0.4764 -2.1984
  587MOL0     H79243  10.292   4.784   6.007 -1.8839  0.1901 -0.7741
  587MOL0     H79244  10.454   4.715   5.970  0.5037 -0.0601 -1.1666
  587MOL0     H79245  10.440   4.877   5.987  0.2208 -1.6735  2.9571
  588MOL0     O79246   4.798   6.175  10.934 -0.0258  1.1227  0.1205
  588MOL0     C79247   4.709   6.102  10.984  0.3720 -0.0103 -0.7961
  588MOL0     O79248   4.737   5.998  11.062 -0.6646  0.3760  0.0944
  588MOL0     C79249   4.862   5.938  11.061  0.4908 -0.0203 -0.3671
  588MOL0     C79250   4.862   5.802  11.012 -0.3877  0.3934 -0.5627
  588MOL0     C79251   4.986   5.730  11.003 -0.4308  0.0208 -0.4190
  588MOL0     C79252   5.103   5.793  11.052  0.6469  0.0282  0.4849
  588MOL0     O79253   5.224   5.725  11.058 -0.0497  0.3935 -0.0802
  588MOL0     C79254   5.257   5.625  10.960 -0.2114 -0.0093 -0.6963
  588MOL0     C79255   5.404   5.605  10.993 -0.3343  0.8826  0.2556
  588MOL0     C79256   5.495   5.548  10.879 -0.1810 -0.3943 -0.1362
  588MOL0     C79257   5.584   5.656  10.817  0.8613  0.0459  0.6703
  588MOL0     C79258   5.713   5.586  10.764  0.0855 -0.0869 -0.4254
  588MOL0     C79259   5.795   5.686  10.676 -0.0282 -0.9843 -0.3279
  588MOL0     C79260   5.931   5.629  10.631  0.2679 -0.0873 -0.2535
  588MOL0     C79261   5.915   5.530  10.517 -0.1192 -0.2595  0.5817
  588MOL0     N79262   6.054   5.485  10.466  0.1020 -0.0810  0.5341
  588MOL0     C79263   6.142   5.563  10.393 -0.4006 -0.4044 -0.3293
  588MOL0     C79264   6.246   5.477  10.378 -0.4076 -0.5949 -0.1446
  588MOL0     C79265   6.365   5.510  10.298 -0.7655  0.6199 -0.4136
  588MOL0     C79266   6.475   5.582  10.389  0.1394 -0.5361  0.2272
  588MOL0     C79267   6.597   5.604  10.301  0.1959  0.0733  0.2281
  588MOL0     C79268   6.697   5.691  10.376 -0.6160  0.2039  0.1120
  588MOL0     O79269   6.824   5.686  10.316 -0.4884 -0.0173  0.3575
  588MOL0     C79270   6.926   5.761  10.363 -0.6129 -0.8457 -0.4253
  588MOL0     C79271   6.927   5.826  10.493 -0.4374  0.3688  0.8240
  588MOL0     C79272   7.033   5.900  10.540  0.0661  0.2475  0.5056
  588MOL0     C79273   7.150   5.897  10.462  0.8044  0.0797  0.4043
  588MOL0     C79274   7.262   5.971  10.519 -0.8296 -0.0274 -0.5029
  588MOL0     O79275   7.390   5.926  10.492 -0.5630  0.1368  0.2330
  588MOL0     C79276   7.499   6.007  10.516 -0.1412  0.2349 -0.4956
  588MOL0     C79277   7.597   5.997  10.421 -0.8052  0.9826 -0.2456
  588MOL0     C79278   7.715   6.067  10.436 -0.0272 -0.5285 -0.0870
  588MOL0     C79279   7.737   6.157  10.547  0.5603  0.7941  0.0666
  588MOL0     O79280   7.862   6.215  10.548 -0.7643 -0.3246 -0.1345
  588MOL0     C79281   7.934   6.220  10.668 -0.4892  0.0893  0.4098
  588MOL0     C79282   7.979   6.369  10.683  0.5604  0.3060 -0.5530
  588MOL0     C79283   8.066   6.401  10.799  0.2931 -0.5353  0.1758
  588MOL0     C79284   8.104   6.553  10.794  0.2624  1.6147  0.1349
  588MOL0     C79285   8.157   6.601  10.931 -0.0052 -0.0094  0.4329
  588MOL0     C79286   8.165   6.751  10.953 -0.1565  0.7353  0.6045
  588MOL0     C79287   8.201   6.791  11.098 -0.4016 -0.3843 -0.6007
  588MOL0     C79288   8.355   6.775  11.145  0.3303  0.7399  0.1756
  588MOL0    Cl79289   8.381   6.600  11.194 -0.5960  0.4933 -0.0416
  588MOL0     C79290   7.628   6.182  10.642 -0.6970  0.0518  0.2061
  588MOL0     C79291   7.518   6.099  10.630 -0.0195 -0.2150 -0.4380
  588MOL0     O79292   7.232   6.075  10.580 -0.5066  0.1753  0.2659
  588MOL0     C79293   7.157   5.823  10.345 -0.6785 -0.6895 -1.1671
  588MOL0     C79294   7.046   5.758  10.298 -0.5306 -0.3205 -0.5922
  588MOL0     N79295   6.231   5.359  10.449  0.1811 -0.0138 -0.5750
  588MOL0     N79296   6.114   5.368  10.503  0.2625 -0.7889  0.0826
  588MOL0     C79297   5.099   5.926  11.106  0.3658  0.4956  0.1830
  588MOL0     C79298   4.981   6.000  11.105 -0.3448  0.1077 -0.2742
  588MOL0     C79299   4.562   6.134  10.957  0.9503 -1.7057 -1.2669
  588MOL0     C79300   4.530   6.242  10.867 -0.3309 -0.2451 -0.3623
  588MOL0     C79301   4.409   6.282  10.834  0.2310 -0.1707  0.6734
  588MOL0     C79302   4.298   6.199  10.869 -0.4206 -0.3142 -0.7351
  588MOL0     O79303   4.172   6.237  10.828 -0.4359 -0.4119 -0.4986
  588MOL0     C79304   4.064   6.169  10.893 -0.0312  0.3406 -1.2044
  588MOL0     C79305   3.936   6.189  10.813 -0.1427  0.1733 -0.0404
  588MOL0     C79306   3.820   6.101  10.859 -0.3871 -0.6896  0.3714
  588MOL0     C79307   3.740   6.155  10.981  0.6321 -0.4248  1.1215
  588MOL0     C79308   3.680   6.286  10.946  0.0246 -0.9479  0.5657
  588MOL0     C79309   3.626   6.396  10.928  0.5137  0.0413  0.1805
  588MOL0     C79310   4.330   6.087  10.953  0.0021  0.4757  0.3144
  588MOL0     C79311   4.458   6.051  10.995 -0.2088 -0.5856 -0.1855
  588MOL0     C79312   4.464   5.922  11.077 -0.3116  0.1934 -0.4344
  588MOL0     H79313   4.769   5.757  10.977 -0.6959  1.0387 -0.6104
  588MOL0     H79314   4.989   5.628  10.967 -1.5919 -0.0445 -0.3636
  588MOL0     H79315   5.196   5.537  10.983  0.9214 -0.7747 -0.5399
  588MOL0     H79316   5.249   5.662  10.857 -0.8673 -1.3650 -1.1486
  588MOL0     H79317   5.406   5.548  11.086  0.5240 -0.9784 -0.8316
  588MOL0     H79318   5.437   5.705  11.020  1.7702  0.9169 -2.0564
  588MOL0     H79319   5.436   5.491  10.807 -3.0055  0.5679  1.2668
  588MOL0     H79320   5.561   5.476  10.928  0.7895  0.4258 -0.1907
  588MOL0     H79321   5.533   5.703  10.733  3.7925  0.4922 -0.9772
  588MOL0     H79322   5.615   5.732  10.890  0.6390  1.6603 -0.8424
  588MOL0     H79323   5.773   5.557  10.851  1.1277  0.1609 -1.0369
  588MOL0     H79324   5.695   5.499  10.700 -2.5336  0.0709 -0.0015
  588MOL0     H79325   5.742   5.716  10.585  1.5964  1.7465 -0.4880
  588MOL0     H79326   5.818   5.779  10.730  0.7550  0.0360 -2.3346
  588MOL0     H79327   5.986   5.584  10.714 -0.2189 -0.3642 -0.0810
  588MOL0     H79328   5.988   5.710  10.585  0.9051 -1.0088 -1.1350
  588MOL0     H79329   5.862   5.442  10.553 -1.0591 -0.2060 -0.6027
  588MOL0     H79330   5.874   5.565  10.422  3.5737  1.1379 -0.6838
  588MOL0     H79331   6.115   5.663  10.358  0.7480  0.1282  0.2486
  588MOL0     H79332   6.405   5.419  10.253 -0.6889 -0.9451  2.5411
  588MOL0     H79333   6.335   5.566  10.209  1.4669  0.7766 -1.1328
  588MOL0     H79334   6.428   5.673  10.427  0.1864  0.7676 -2.5836
  588MOL0     H79335   6.488   5.512  10.472 -0.0963  0.6031  1.2566
  588MOL0     H79336   6.564   5.644  10.204  1.3573  1.3506  0.3313
  588MOL0     H79337   6.641   5.505  10.290 -0.3353 -0.2489  0.9865
  588MOL0     H79338   6.704   5.656  10.480  1.1683 -1.2102 -0.4225
  588MOL0     H79339   6.665   5.795  10.374  1.1858  0.8128  0.5057
  588MOL0     H79340   6.841   5.826  10.559  0.6588 -2.0913  2.3926
  588MOL0     H79341   7.031   5.949  10.636 -0.1476 -0.8027  1.0568
  588MOL0     H79342   7.593   5.931  10.335  3.6189  0.0261  0.0144
  588MOL0     H79343   7.781   6.079  10.351 -1.2229 -1.8154 -1.2428
  588MOL0     H79344   7.874   6.199  10.757  0.4175  0.6194  1.1502
  588MOL0     H79345   8.015   6.148  10.660  0.4116  1.1843 -0.8391
  588MOL0     H79346   8.026   6.409  10.592  1.3306 -1.5076 -1.0080
  588MOL0     H79347   7.884   6.422  10.698  0.9727  0.2981  2.6327
  588MOL0     H79348   8.020   6.370  10.893 -1.2008 -3.6187 -1.4211
  588MOL0     H79349   8.162   6.350  10.785  0.6520 -0.4531  2.1016
  588MOL0     H79350   8.018   6.615  10.767 -2.4464 -1.5605  0.8414
  588MOL0     H79351   8.172   6.547  10.708 -0.9968  1.5808 -0.8940
  588MOL0     H79352   8.254   6.554  10.949 -0.5883 -2.2752 -1.8146
  588MOL0     H79353   8.084   6.567  11.006 -0.3850 -2.4384 -0.9486
  588MOL0     H79354   8.241   6.793  10.887  1.8387 -1.6298  1.2928
  588MOL0     H79355   8.073   6.805  10.926 -0.1168  0.7857  0.5693
  588MOL0     H79356   8.133   6.740  11.167 -0.2145 -1.8202 -1.4433
  588MOL0     H79357   8.175   6.897  11.107  3.0417  0.5696 -0.7869
  588MOL0     H79358   8.416   6.814  11.063 -0.7255  1.1811 -0.4187
  588MOL0     H79359   8.384   6.844  11.225  1.7178 -0.7188  0.9983
  588MOL0     H79360   7.630   6.269  10.707 -0.6115  1.5175 -1.6802
  588MOL0     H79361   7.443   6.107  10.707  0.6185 -1.3615  0.3266
  588MOL0     H79362   7.253   5.830  10.295  0.8446 -3.1153  1.1382
  588MOL0     H79363   7.059   5.698  10.209  2.6658 -0.8217  0.0812
  588MOL0     H79364   5.185   5.967  11.159  2.4474 -1.1991 -1.6812
  588MOL0     H79365   4.999   6.104  11.130  0.9938 -0.3343  0.7443
  588MOL0     H79366   4.604   6.303  10.816 -1.3284  1.4502  0.1241
  588MOL0     H79367   4.384   6.368  10.772 -1.2680 -1.6371 -0.8924
  588MOL0     H79368   4.063   6.212  10.994 -0.2115 -1.2847 -0.4736
  588MOL0     H79369   4.087   6.062  10.891  2.1240  0.7822 -2.5833
  588MOL0     H79370   3.940   6.164  10.707 -1.6304 -1.7662  0.2954
  588MOL0     H79371   3.904   6.294  10.812 -0.0563  0.2747 -3.6230
  588MOL0     H79372   3.846   5.997  10.883  2.4811 -0.0955  0.1698
  588MOL0     H79373   3.746   6.090  10.778 -0.0341  1.9374 -0.4140
  588MOL0     H79374   3.654   6.089  10.997  0.7092 -1.0917 -0.9762
  588MOL0     H79375   3.801   6.156  11.072  0.3673 -1.8999  1.3436
  588MOL0     H79376   3.603   6.499  10.912  2.8890  0.6940  0.6230
  588MOL0     H79377   4.253   6.015  10.978  0.1234 -0.3443 -1.5209
  588MOL0     H79378   4.365   5.876  11.069  0.0478 -0.3111 -2.3329
  588MOL0     H79379   4.547   5.857  11.049  0.2320  1.2875 -1.4700
  588MOL0     H79380   4.477   5.949  11.182 -0.4235 -4.5094  1.0046
  589MOL0     O79381   4.060   0.114   4.916 -0.7327  0.2558 -0.0830
  589MOL0     C79382   4.077  -0.004   4.947 -0.3165 -0.4830  0.2067
  589MOL0     O79383   4.173  -0.088   4.887 -0.1740 -0.2301 -0.0257
  589MOL0     C79384   4.287  -0.032   4.827  0.5419 -0.0080 -0.0954
  589MOL0     C79385   4.363  -0.119   4.753  0.5414  0.0946 -0.2475
  589MOL0     C79386   4.488  -0.079   4.702  0.1253  0.2232 -0.7345
  589MOL0     C79387   4.537   0.047   4.719  0.0985 -0.5170 -0.5002
  589MOL0     O79388   4.644   0.107   4.658 -0.5289 -0.0351 -0.0119
  589MOL0     C79389   4.756   0.026   4.615  0.2238 -0.1922  0.0415
  589MOL0     C79390   4.887   0.101   4.615 -0.0947 -0.4499  0.1244
  589MOL0     C79391   4.994   0.028   4.521 -0.1528  0.1647 -0.9265
  589MOL0     C79392   5.139   0.081   4.521  0.6153 -0.6571 -0.2691
  589MOL0     C79393   5.231  -0.006   4.438 -0.8310 -0.4927  0.4860
  589MOL0     C79394   5.369  -0.007   4.508  0.4258  0.4476  0.0515
  589MOL0     C79395   5.484  -0.062   4.424  0.7861 -0.1732 -0.5893
  589MOL0     C79396   5.509   0.019   4.299 -0.2835 -0.6458 -0.3031
  589MOL0     N79397   5.650   0.017   4.255 -0.2997 -0.8894  0.4183
  589MOL0     C79398   5.751   0.081   4.316  0.1704 -0.4136  0.1976
  589MOL0     C79399   5.869   0.018   4.283  0.5801  0.2234 -1.0102
  589MOL0     C79400   6.014   0.018   4.344  0.0656  0.9022  0.5071
  589MOL0     C79401   6.101   0.134   4.300  1.3776  0.2769  1.0469
  589MOL0     C79402   6.239   0.147   4.360  0.6968  0.5513 -0.2232
  589MOL0     C79403   6.288   0.015   4.415  0.1331  0.2382  0.4151
  589MOL0     O79404   6.408   0.032   4.472  0.2951 -0.1783  0.7122
  589MOL0     C79405   6.492  -0.074   4.497 -0.0022  0.0448 -0.4657
  589MOL0     C79406   6.622  -0.033   4.536  0.4616  0.1956  0.2344
  589MOL0     C79407   6.722  -0.130   4.569 -0.3653 -0.1292 -0.5509
  589MOL0     C79408   6.696  -0.267   4.574 -0.1194  0.0523  0.6943
  589MOL0     C79409   6.795  -0.363   4.619 -0.9600  0.0694 -0.2608
  589MOL0     O79410   6.917  -0.318   4.668 -0.8064  0.2011 -0.0695
  589MOL0     C79411   7.017  -0.404   4.700 -0.0140  0.4295 -0.2753
  589MOL0     C79412   7.066  -0.488   4.601 -0.8467  0.5842  0.6114
  589MOL0     C79413   7.178  -0.564   4.626 -0.7413 -0.0319  0.4743
  589MOL0     C79414   7.229  -0.574   4.757  0.3726  0.0978 -0.1349
  589MOL0     O79415   7.332  -0.673   4.781  0.3845  0.1041 -0.1539
  589MOL0     C79416   7.466  -0.632   4.807 -0.6627  0.0666  0.2043
  589MOL0     C79417   7.555  -0.754   4.803  0.4209  0.2052  0.7359
  589MOL0     C79418   7.704  -0.724   4.796 -0.2160  0.2265 -0.2648
  589MOL0     C79419   7.782  -0.863   4.804  0.1180 -0.2551  0.3645
  589MOL0     C79420   7.926  -0.849   4.780 -0.2349  0.6395 -0.1254
  589MOL0     C79421   7.992  -0.986   4.740 -0.4918 -0.0893  0.1197
  589MOL0     C79422   8.136  -0.979   4.677  0.3234  0.7250  0.1055
  589MOL0     C79423   8.190  -1.114   4.644 -0.4293  0.2985 -0.1440
  589MOL0    Cl79424   8.352  -1.077   4.588  0.2163 -0.4318  0.0055
  589MOL0     C79425   7.184  -0.486   4.855  0.4176  0.5815 -0.3103
  589MOL0     C79426   7.081  -0.397   4.825  0.6804 -0.4087  0.9023
  589MOL0     O79427   6.759  -0.486   4.625  0.2089  0.3144  0.4704
  589MOL0     C79428   6.565  -0.307   4.540  0.5552  0.4873 -0.3834
  589MOL0     C79429   6.463  -0.215   4.489 -0.1433  0.9516 -0.1043
  589MOL0     N79430   5.828  -0.070   4.181 -0.1135 -0.0658  0.0257
  589MOL0     N79431   5.696  -0.074   4.167  0.0665  0.1081 -0.2005
  589MOL0     C79432   4.457   0.141   4.792 -0.2889  0.5114 -0.0400
  589MOL0     C79433   4.338   0.102   4.846  0.5489 -0.3035  0.1449
  589MOL0     C79434   3.959  -0.059   5.012  0.2387 -0.0185 -0.1851
  589MOL0     C79435   3.929  -0.195   4.980 -0.4372 -0.5991  0.5201
  589MOL0     C79436   3.813  -0.258   5.032 -0.1657 -0.0341  0.8285
  589MOL0     C79437   3.735  -0.191   5.117  0.6735  1.6522  0.9460
  589MOL0     O79438   3.630  -0.260   5.166  0.4375 -0.2814  0.7286
  589MOL0     C79439   3.508  -0.228   5.106 -0.9903  0.3691  0.3103
  589MOL0     C79440   3.401  -0.312   5.172  0.7739  0.1301  0.0856
  589MOL0     C79441   3.265  -0.248   5.150  0.2311 -0.4824 -0.1029
  589MOL0     C79442   3.159  -0.316   5.229 -0.2558 -0.0165 -0.6265
  589MOL0     C79443   3.043  -0.224   5.249 -0.2816  0.0621 -0.4443
  589MOL0     C79444   2.941  -0.165   5.276 -0.6991 -0.1942 -0.2997
  589MOL0     C79445   3.768  -0.064   5.167  0.8224 -0.3131 -0.1365
  589MOL0     C79446   3.875   0.007   5.106  0.1508 -0.3719  0.5897
  589MOL0     C79447   3.912   0.143   5.173  0.6609  0.7594  0.6923
  589MOL0     H79448   4.328  -0.221   4.741  2.7638 -1.0172  1.8830
  589MOL0     H79449   4.540  -0.147   4.636  1.1472 -0.7244  0.9877
  589MOL0     H79450   4.764  -0.062   4.680 -2.0023 -1.1683 -0.8874
  589MOL0     H79451   4.730  -0.021   4.520 -0.9577  0.3907  0.0539
  589MOL0     H79452   4.926   0.108   4.717  2.1654 -2.6080 -0.5020
  589MOL0     H79453   4.872   0.205   4.583  4.3609  0.8191  1.3937
  589MOL0     H79454   4.954   0.032   4.419  1.1221  1.1050 -1.4319
  589MOL0     H79455   4.995  -0.070   4.570  0.7615  1.2127  1.2765
  589MOL0     H79456   5.136   0.182   4.479  0.2276 -0.4953  0.1459
  589MOL0     H79457   5.174   0.090   4.624 -0.4869 -2.2672  0.2849
  589MOL0     H79458   5.194  -0.108   4.428 -2.0526 -0.0887  0.7042
  589MOL0     H79459   5.241   0.022   4.333 -1.9412 -2.5441 -0.1979
  589MOL0     H79460   5.402   0.096   4.525 -0.4636  0.8383 -0.5250
  589MOL0     H79461   5.356  -0.058   4.604 -3.3407  0.2490 -0.4390
  589MOL0     H79462   5.461  -0.163   4.388 -0.8084  0.3329 -1.0384
  589MOL0     H79463   5.576  -0.067   4.483 -0.5228  2.9936  2.0114
  589MOL0     H79464   5.446  -0.020   4.219  0.2941 -2.2401 -0.0164
  589MOL0     H79465   5.461   0.116   4.317 -2.0744 -1.6541  0.6496
  589MOL0     H79466   5.740   0.160   4.390  1.0255  0.6789 -0.7959
  589MOL0     H79467   6.001   0.027   4.453  1.4448 -0.6556  0.8465
  589MOL0     H79468   6.059  -0.074   4.307 -0.0144  1.0922 -0.0748
  589MOL0     H79469   6.110   0.124   4.191 -0.1507  0.3721  0.8916
  589MOL0     H79470   6.045   0.226   4.316  1.4161 -0.0120  3.0468
  589MOL0     H79471   6.235   0.227   4.435 -1.3850 -0.7832  1.2085
  589MOL0     H79472   6.308   0.189   4.286 -0.4909  1.0593 -1.0568
  589MOL0     H79473   6.291  -0.052   4.330  1.9778  1.6961 -0.7546
  589MOL0     H79474   6.218  -0.019   4.492 -0.4801  0.6465  0.0402
  589MOL0     H79475   6.647   0.072   4.540  0.1125  0.2657  0.7421
  589MOL0     H79476   6.820  -0.093   4.596  0.2457 -0.1211 -2.5987
  589MOL0     H79477   7.045  -0.481   4.495  1.1671 -0.3805  0.0899
  589MOL0     H79478   7.225  -0.614   4.541 -0.9637  1.0144 -0.2971
  589MOL0     H79479   7.490  -0.558   4.730 -1.2212 -1.2907 -1.3286
  589MOL0     H79480   7.480  -0.600   4.910  0.7243  0.5901 -0.1275
  589MOL0     H79481   7.527  -0.816   4.888  0.0657 -2.0378 -0.9288
  589MOL0     H79482   7.538  -0.811   4.711 -0.1573  1.1074  0.2596
  589MOL0     H79483   7.734  -0.671   4.705  1.3887 -4.5733 -2.8952
  589MOL0     H79484   7.715  -0.657   4.882 -0.3921 -0.1463  0.0540
  589MOL0     H79485   7.744  -0.922   4.720 -0.9347 -1.7902  1.8485
  589MOL0     H79486   7.775  -0.917   4.899  1.7288  0.1926  0.7672
  589MOL0     H79487   7.976  -0.800   4.865  1.2190 -1.5689  0.3874
  589MOL0     H79488   7.938  -0.784   4.694  2.3282  0.2377 -0.1651
  589MOL0     H79489   7.991  -1.049   4.830 -1.1527  0.3917  0.4662
  589MOL0     H79490   7.932  -1.025   4.658  0.3950 -0.0982 -0.5362
  589MOL0     H79491   8.202  -0.932   4.751  2.2033  0.3690 -1.2579
  589MOL0     H79492   8.134  -0.914   4.590  0.4189  0.3585 -0.1762
  589MOL0     H79493   8.203  -1.181   4.729 -1.6642 -2.4133 -1.9358
  589MOL0     H79494   8.124  -1.167   4.574  0.0404  0.1643 -0.4923
  589MOL0     H79495   7.227  -0.495   4.954 -1.8529 -1.0960  0.6362
  589MOL0     H79496   7.020  -0.337   4.892 -0.7217 -1.5343  0.6845
  589MOL0     H79497   6.548  -0.415   4.543  0.7941  0.4601  0.0299
  589MOL0     H79498   6.373  -0.259   4.447 -0.6241  0.8065  1.0480
  589MOL0     H79499   4.493   0.243   4.805  3.2789 -0.3030 -2.0411
  589MOL0     H79500   4.285   0.183   4.897 -2.5211 -0.6820 -2.1197
  589MOL0     H79501   3.996  -0.250   4.915  2.3384  1.4155  1.5106
  589MOL0     H79502   3.805  -0.364   5.010  0.3288 -0.0755  0.8300
  589MOL0     H79503   3.502  -0.254   5.000 -0.4058 -0.3525  0.4426
  589MOL0     H79504   3.485  -0.122   5.120  0.5309  0.4253  3.1389
  589MOL0     H79505   3.416  -0.331   5.278 -1.5530 -0.1480  0.4005
  589MOL0     H79506   3.403  -0.409   5.122  1.5360 -0.5924  1.4765
  589MOL0     H79507   3.238  -0.236   5.045  1.7814  1.1440 -0.3745
  589MOL0     H79508   3.268  -0.148   5.194 -0.7009  0.0703 -1.2535
  589MOL0     H79509   3.133  -0.408   5.176 -0.6647 -0.8895  1.0082
  589MOL0     H79510   3.200  -0.350   5.325  1.0815  0.7330 -0.9096
  589MOL0     H79511   2.854  -0.108   5.302 -2.0716 -2.2077 -0.2341
  589MOL0     H79512   3.714  -0.022   5.252  0.2770 -3.1957  1.0741
  589MOL0     H79513   4.011   0.181   5.150 -0.0839  3.3523  1.4805
  589MOL0     H79514   3.836   0.207   5.128 -0.6452 -0.0334  1.6640
  589MOL0     H79515   3.908   0.149   5.282  0.2003  0.9339  0.6673
  590MOL0     O79516   4.073   2.470   7.365  0.3834 -1.0785 -0.1986
  590MOL0     C79517   4.072   2.578   7.297 -0.0855  0.3875  0.6870
  590MOL0     O79518   4.130   2.598   7.177 -0.4331 -0.1821  0.2267
  590MOL0     C79519   4.226   2.519   7.125  0.1164 -1.4799  0.3082
  590MOL0     C79520   4.221   2.490   6.983 -0.1793 -0.1964 -0.4827
  590MOL0     C79521   4.317   2.410   6.923  0.0539 -0.6208 -0.2486
  590MOL0     C79522   4.422   2.357   7.001 -0.0443  0.5626  0.0322
  590MOL0     O79523   4.511   2.267   6.949 -0.3250  0.2971 -0.0119
  590MOL0     C79524   4.650   2.298   6.981 -0.2250  0.1881 -0.3276
  590MOL0     C79525   4.740   2.209   6.892 -0.0925 -0.6840 -0.0597
  590MOL0     C79526   4.701   2.230   6.732 -0.3835 -1.0427 -0.4567
  590MOL0     C79527   4.791   2.151   6.648 -0.8168  1.0343 -0.3270
  590MOL0     C79528   4.750   2.132   6.500 -0.1633 -0.5131 -0.1603
  590MOL0     C79529   4.744   2.257   6.420  0.0907 -0.2054 -0.5004
  590MOL0     C79530   4.884   2.313   6.379 -0.0238  0.3039 -0.2229
  590MOL0     C79531   4.857   2.416   6.271 -0.3276  0.1831  0.8448
  590MOL0     N79532   4.980   2.476   6.213  0.6759  1.0921  0.5054
  590MOL0     C79533   5.106   2.419   6.202  0.1012  0.3275  0.1032
  590MOL0     C79534   5.177   2.522   6.139 -0.0533  0.0499 -0.5494
  590MOL0     C79535   5.310   2.511   6.070 -0.6360 -0.2336 -0.3431
  590MOL0     C79536   5.283   2.508   5.918  0.3820  0.2255  0.5458
  590MOL0     C79537   5.412   2.509   5.825  0.0332 -0.3613  0.6804
  590MOL0     C79538   5.500   2.387   5.857  0.0952  0.0014  0.3327
  590MOL0     O79539   5.574   2.361   5.733 -0.2864 -0.0797 -0.5712
  590MOL0     C79540   5.707   2.391   5.725 -0.1145 -0.2501  0.5777
  590MOL0     C79541   5.785   2.443   5.831  0.0962 -0.1776  0.8788
  590MOL0     C79542   5.911   2.488   5.806  0.0793 -0.3008 -0.2110
  590MOL0     C79543   5.973   2.486   5.683 -0.9408 -1.0686 -0.1361
  590MOL0     C79544   6.109   2.539   5.651  0.3840 -0.1957 -0.1089
  590MOL0     O79545   6.180   2.569   5.762 -0.8159  0.1605  0.5302
  590MOL0     C79546   6.314   2.603   5.761  0.2675 -0.9855  0.3663
  590MOL0     C79547   6.411   2.552   5.675  0.9287  1.2660 -0.2277
  590MOL0     C79548   6.547   2.584   5.693 -0.0666 -0.0624  0.2475
  590MOL0     C79549   6.599   2.660   5.800 -0.7353  0.3218  0.8507
  590MOL0     O79550   6.731   2.708   5.799 -0.4478  0.6327 -0.3538
  590MOL0     C79551   6.831   2.621   5.738  0.2526  0.0482 -0.3121
  590MOL0     C79552   6.972   2.660   5.776 -0.1406 -0.2669 -0.2890
  590MOL0     C79553   7.075   2.572   5.710 -0.3078  0.6242  0.1062
  590MOL0     C79554   7.218   2.592   5.762 -0.1630  0.0456 -0.4868
  590MOL0     C79555   7.315   2.499   5.697 -0.0690  0.3803  0.6555
  590MOL0     C79556   7.464   2.529   5.720 -0.1517 -0.3984  0.0537
  590MOL0     C79557   7.548   2.426   5.656  0.1075  0.0287 -0.2799
  590MOL0     C79558   7.550   2.426   5.507 -0.1675 -0.3662  1.0390
  590MOL0    Cl79559   7.674   2.312   5.452 -0.2840  0.0326  0.2744
  590MOL0     C79560   6.499   2.703   5.889 -0.6049 -0.8109  0.0191
  590MOL0     C79561   6.362   2.677   5.869  1.0626  0.3557  0.1516
  590MOL0     O79562   6.153   2.544   5.532 -0.2299  0.0650 -0.0548
  590MOL0     C79563   5.898   2.433   5.571 -1.3875  0.1168  0.1187
  590MOL0     C79564   5.764   2.394   5.601  0.7188 -0.9149 -0.3955
  590MOL0     N79565   5.094   2.629   6.128 -0.2929  0.7237  0.2063
  590MOL0     N79566   4.978   2.605   6.173  0.9711 -0.1307 -0.2649
  590MOL0     C79567   4.405   2.360   7.140 -0.1559 -0.0790 -0.3290
  590MOL0     C79568   4.324   2.457   7.203 -0.7580 -0.8089  0.2742
  590MOL0     C79569   3.991   2.688   7.343  0.7378  0.2615  0.1635
  590MOL0     C79570   3.923   2.770   7.246 -0.0292  0.3837  0.0451
  590MOL0     C79571   3.851   2.877   7.289  0.2277 -1.0952  0.2097
  590MOL0     C79572   3.836   2.909   7.424 -0.0997  0.3223  0.1934
  590MOL0     O79573   3.757   3.001   7.478 -0.1466  0.2314 -0.4186
  590MOL0     C79574   3.699   3.105   7.389 -0.1383  0.1616 -0.3547
  590MOL0     C79575   3.679   3.249   7.446  0.9896 -0.8931 -0.8066
  590MOL0     C79576   3.635   3.236   7.593 -0.1212  0.1433 -0.9693
  590MOL0     C79577   3.634   3.369   7.660  0.3511 -0.3400  0.9251
  590MOL0     C79578   3.534   3.458   7.601  0.7947 -0.0357  0.4123
  590MOL0     C79579   3.453   3.535   7.552  0.1785  0.1873 -0.1767
  590MOL0     C79580   3.913   2.834   7.515  0.8422  0.0834  0.2697
  590MOL0     C79581   3.985   2.726   7.478  0.8915 -0.2160  0.0911
  590MOL0     C79582   4.066   2.663   7.588 -0.3134 -0.8117  0.0732
  590MOL0     H79583   4.146   2.538   6.921  0.5033 -1.0480 -1.9979
  590MOL0     H79584   4.302   2.395   6.817 -3.2498  0.0614  0.0140
  590MOL0     H79585   4.679   2.403   6.975  0.7044  0.1263  2.1261
  590MOL0     H79586   4.669   2.272   7.085  0.0642 -1.8638 -0.8540
  590MOL0     H79587   4.741   2.102   6.917  0.1471 -0.4862  0.7928
  590MOL0     H79588   4.844   2.238   6.909 -0.4899  0.4277  0.5568
  590MOL0     H79589   4.703   2.339   6.717 -4.1821  0.1554  4.8036
  590MOL0     H79590   4.597   2.203   6.714 -0.5931 -0.5195 -0.0576
  590MOL0     H79591   4.889   2.201   6.648  0.2123 -0.5773  3.6119
  590MOL0     H79592   4.808   2.055   6.697  1.3798  1.9261  0.7939
  590MOL0     H79593   4.818   2.068   6.442 -1.7157 -0.9032 -1.6236
  590MOL0     H79594   4.648   2.094   6.510 -0.5850  0.1653 -1.6153
  590MOL0     H79595   4.676   2.240   6.335 -0.7328 -1.4139  0.3649
  590MOL0     H79596   4.704   2.338   6.481  0.3830 -2.6447  3.2580
  590MOL0     H79597   4.952   2.234   6.348  1.2376  1.3881 -0.3068
  590MOL0     H79598   4.944   2.362   6.456 -0.1339 -0.6490  0.4873
  590MOL0     H79599   4.810   2.367   6.185  0.5254  0.6567  0.0980
  590MOL0     H79600   4.794   2.492   6.319 -0.1789  1.6700 -1.2053
  590MOL0     H79601   5.150   2.322   6.222 -2.1149 -1.0645 -1.3925
  590MOL0     H79602   5.366   2.601   6.098 -0.2457 -0.7087  0.4201
  590MOL0     H79603   5.366   2.422   6.099 -1.3196 -0.7314 -0.5056
  590MOL0     H79604   5.225   2.417   5.899  1.2748 -0.2664  0.0683
  590MOL0     H79605   5.219   2.591   5.888  1.1128  0.6223  0.0623
  590MOL0     H79606   5.477   2.596   5.838 -0.8902  0.2095  1.6349
  590MOL0     H79607   5.390   2.504   5.718  0.0843  0.2217  0.6360
  590MOL0     H79608   5.435   2.299   5.865  0.3083 -0.2424 -0.4962
  590MOL0     H79609   5.556   2.396   5.950 -2.4176  0.9050  1.8459
  590MOL0     H79610   5.741   2.456   5.929  0.7189 -0.0054  1.1438
  590MOL0     H79611   5.958   2.543   5.887 -0.4064 -0.4377  0.1719
  590MOL0     H79612   6.376   2.482   5.599 -3.2535  1.1341  1.5376
  590MOL0     H79613   6.612   2.543   5.616 -0.4624 -0.5976  0.1895
  590MOL0     H79614   6.808   2.518   5.767  1.0989  0.0433  0.3781
  590MOL0     H79615   6.813   2.625   5.630 -0.7236 -0.6533 -0.1932
  590MOL0     H79616   6.992   2.762   5.741 -1.1918 -0.3896 -1.3163
  590MOL0     H79617   6.991   2.651   5.883 -0.7394 -0.0710 -0.1630
  590MOL0     H79618   7.050   2.468   5.730  2.9916 -0.2342  0.2835
  590MOL0     H79619   7.078   2.596   5.604  0.4459 -1.4549 -0.3854
  590MOL0     H79620   7.223   2.583   5.871 -1.7674 -1.3639 -0.4980
  590MOL0     H79621   7.246   2.697   5.749 -2.2433  0.5507 -1.2788
  590MOL0     H79622   7.285   2.500   5.592 -1.6062  0.1082  1.0729
  590MOL0     H79623   7.285   2.400   5.732 -1.5700  0.7453  0.4534
  590MOL0     H79624   7.490   2.631   5.689  4.4903 -0.3583  3.0516
  590MOL0     H79625   7.488   2.525   5.827  0.3735  2.3119  0.1302
  590MOL0     H79626   7.539   2.323   5.692  2.7795  0.8882  3.3901
  590MOL0     H79627   7.653   2.451   5.674  0.8853 -1.2469 -2.5727
  590MOL0     H79628   7.452   2.390   5.474  0.5989 -0.2900 -1.5663
  590MOL0     H79629   7.550   2.526   5.463 -2.1460 -0.5511  0.4993
  590MOL0     H79630   6.546   2.762   5.967  0.1326  2.3177 -2.5614
  590MOL0     H79631   6.288   2.709   5.942  1.0749  0.1386  0.2581
  590MOL0     H79632   5.942   2.427   5.472 -2.7909  0.4630 -0.5456
  590MOL0     H79633   5.697   2.354   5.526  0.1215  0.0805 -0.4089
  590MOL0     H79634   4.465   2.289   7.196 -1.0551 -0.1176  0.6054
  590MOL0     H79635   4.329   2.462   7.311 -1.6974 -4.6666  0.6434
  590MOL0     H79636   3.928   2.744   7.140  2.5251 -2.6491  0.7521
  590MOL0     H79637   3.798   2.929   7.210 -0.6263 -0.3947  1.2245
  590MOL0     H79638   3.602   3.061   7.365 -0.8707  0.1554  2.3248
  590MOL0     H79639   3.761   3.122   7.300 -0.9491  0.8765 -0.8014
  590MOL0     H79640   3.593   3.303   7.405 -0.7455 -1.6691  1.6362
  590MOL0     H79641   3.772   3.307   7.438  0.3045  0.5771  1.1915
  590MOL0     H79642   3.695   3.170   7.656  0.6337  1.8314  0.1665
  590MOL0     H79643   3.532   3.200   7.585 -1.3296  3.3992 -1.4177
  590MOL0     H79644   3.619   3.352   7.767 -1.7145  1.5707  1.0030
  590MOL0     H79645   3.732   3.417   7.652 -0.3432  0.8458 -2.1183
  590MOL0     H79646   3.372   3.590   7.509 -2.6102 -2.8740  0.7516
  590MOL0     H79647   3.899   2.849   7.622  2.6982 -0.6927  0.6612
  590MOL0     H79648   4.071   2.728   7.676  1.7133 -1.2552  0.3269
  590MOL0     H79649   4.016   2.572   7.622  0.2061 -0.7794  0.9384
  590MOL0     H79650   4.170   2.647   7.559 -0.5301 -1.2520 -0.5001
  591MOL0     O79651   6.751   8.358   4.504 -0.2037 -0.4823 -0.0202
  591MOL0     C79652   6.772   8.420   4.617  0.0572 -0.4659 -0.6867
  591MOL0     O79653   6.870   8.392   4.703 -0.8986  0.0712 -1.1345
  591MOL0     C79654   6.985   8.317   4.669 -0.1887  0.2286 -0.7557
  591MOL0     C79655   7.038   8.292   4.540 -0.2075 -0.7498  0.2803
  591MOL0     C79656   7.159   8.223   4.522  0.6037 -1.1636  1.0573
  591MOL0     C79657   7.224   8.149   4.623 -0.2066  0.1718  0.0545
  591MOL0     O79658   7.321   8.066   4.584 -0.3382 -0.8182  0.1928
  591MOL0     C79659   7.342   7.949   4.664 -0.2172 -0.1457 -0.4795
  591MOL0     C79660   7.435   7.847   4.598 -0.7856 -0.4964  0.2651
  591MOL0     C79661   7.584   7.879   4.596 -0.5829  0.4980 -0.1916
  591MOL0     C79662   7.666   7.755   4.562 -0.5048  0.5866  1.3180
  591MOL0     C79663   7.797   7.793   4.504 -0.0734 -0.3123 -0.0374
  591MOL0     C79664   7.885   7.672   4.503  0.0332  1.0851  0.4393
  591MOL0     C79665   8.033   7.689   4.513 -0.1710 -0.3655  0.0717
  591MOL0     C79666   8.089   7.778   4.405  0.1402 -0.0306 -0.1763
  591MOL0     N79667   8.239   7.782   4.417  0.1159  0.2753  0.6091
  591MOL0     C79668   8.341   7.701   4.376 -0.0586 -0.5277 -1.0663
  591MOL0     C79669   8.457   7.765   4.410 -0.6035  0.7306 -0.0021
  591MOL0     C79670   8.601   7.717   4.390  0.1788 -0.1154  0.4995
  591MOL0     C79671   8.692   7.822   4.336 -0.7137  0.2976  0.0171
  591MOL0     C79672   8.835   7.764   4.339  0.3788 -0.1054  0.1525
  591MOL0     C79673   8.948   7.855   4.294 -0.2335  0.1514 -0.6196
  591MOL0     O79674   8.940   7.974   4.371 -0.4574 -0.6828 -0.1508
  591MOL0     C79675   9.046   8.020   4.428 -0.7425  0.0133 -0.7165
  591MOL0     C79676   9.016   8.128   4.516 -0.5808  0.2159  0.5754
  591MOL0     C79677   9.128   8.199   4.570  0.0090  0.3207  0.0994
  591MOL0     C79678   9.264   8.159   4.571 -0.4816  0.2852  0.7117
  591MOL0     C79679   9.375   8.248   4.623  1.3583 -0.0372 -0.4460
  591MOL0     O79680   9.334   8.358   4.690 -0.1986 -0.3338  0.4048
  591MOL0     C79681   9.434   8.423   4.752 -0.7613 -0.4859 -0.3697
  591MOL0     C79682   9.469   8.553   4.711 -0.0125  0.2923  0.2540
  591MOL0     C79683   9.563   8.631   4.776  0.0343 -0.6807  0.5490
  591MOL0     C79684   9.628   8.576   4.888 -0.2967 -0.0856 -0.3799
  591MOL0     O79685   9.736   8.643   4.941 -0.2634 -0.3207 -0.5984
  591MOL0     C79686   9.706   8.747   5.037 -0.1894  0.2313  0.1875
  591MOL0     C79687   9.844   8.769   5.100 -0.3522  0.7049  0.0354
  591MOL0     C79688   9.855   8.890   5.201 -0.8420  0.3633  0.5326
  591MOL0     C79689   9.982   8.970   5.183 -0.6578 -0.3858  0.3051
  591MOL0     C79690   9.991   9.081   5.285 -0.1979 -0.3949  0.1713
  591MOL0     C79691  10.101   9.173   5.260 -0.2560  0.8380  0.5201
  591MOL0     C79692  10.103   9.299   5.344 -0.2042  0.3415 -0.2526
  591MOL0     C79693  10.235   9.382   5.321  0.0810 -0.1982  0.9714
  591MOL0    Cl79694  10.231   9.514   5.440  0.1962  0.3420 -0.0508
  591MOL0     C79695   9.590   8.448   4.935 -0.7186 -0.8854  0.3931
  591MOL0     C79696   9.487   8.377   4.872 -1.0291 -0.9640  0.7983
  591MOL0     O79697   9.495   8.217   4.601  0.2057 -0.4063  0.0758
  591MOL0     C79698   9.295   8.046   4.492 -0.4896  0.0047 -0.6752
  591MOL0     C79699   9.188   7.977   4.424 -0.1860 -0.2708 -0.4130
  591MOL0     N79700   8.424   7.883   4.469  0.3489 -0.1353 -0.4322
  591MOL0     N79701   8.297   7.893   4.475 -0.0588  0.2675 -0.0771
  591MOL0     C79702   7.174   8.170   4.755  0.4067  0.6097 -0.1125
  591MOL0     C79703   7.055   8.249   4.779 -0.3185  0.5030  0.6817
  591MOL0     C79704   6.674   8.515   4.666  0.1074  0.4533  0.4298
  591MOL0     C79705   6.659   8.515   4.805 -0.6914 -0.6969 -0.0050
  591MOL0     C79706   6.569   8.603   4.861  0.9732  0.0700 -0.2821
  591MOL0     C79707   6.482   8.687   4.784  0.2216  0.0239 -0.1782
  591MOL0     O79708   6.385   8.770   4.837  0.2137 -0.3997 -0.0541
  591MOL0     C79709   6.302   8.845   4.748 -0.3097  0.0908 -0.6218
  591MOL0     C79710   6.196   8.924   4.833 -0.2129  1.0141 -0.0642
  591MOL0     C79711   6.081   8.829   4.884  0.0642  0.0138 -1.0635
  591MOL0     C79712   5.972   8.910   4.968 -0.4728 -0.3558  0.2831
  591MOL0     C79713   5.857   8.820   4.988 -0.0583 -0.5393  0.2899
  591MOL0     C79714   5.752   8.767   4.995 -0.1550 -0.4086 -0.0131
  591MOL0     C79715   6.512   8.701   4.644 -0.1943  0.0077 -0.2723
  591MOL0     C79716   6.601   8.610   4.586 -0.0110 -0.0897 -0.2749
  591MOL0     C79717   6.613   8.625   4.439 -0.2164 -0.5095  0.6342
  591MOL0     H79718   6.999   8.332   4.447  0.7412 -2.5989 -0.9637
  591MOL0     H79719   7.197   8.217   4.420 -0.4275 -1.1457  0.6678
  591MOL0     H79720   7.369   7.968   4.768 -2.5716  1.5581 -0.1142
  591MOL0     H79721   7.242   7.905   4.662 -0.4373  0.2987  0.4579
  591MOL0     H79722   7.409   7.847   4.492 -0.6122  0.7728  0.1957
  591MOL0     H79723   7.415   7.746   4.634 -1.8869 -0.2993  0.2385
  591MOL0     H79724   7.613   7.923   4.693 -0.3705 -1.0192  0.4556
  591MOL0     H79725   7.617   7.965   4.536  3.7795  1.4829  3.0412
  591MOL0     H79726   7.679   7.685   4.645  2.2852 -0.4992  0.1080
  591MOL0     H79727   7.636   7.683   4.485  2.6835 -2.1267  2.3467
  591MOL0     H79728   7.777   7.831   4.403 -0.5766 -0.6606 -0.0711
  591MOL0     H79729   7.846   7.870   4.564 -0.0253  0.8901 -1.5607
  591MOL0     H79730   7.852   7.607   4.585 -1.8725  1.5648  0.1023
  591MOL0     H79731   7.864   7.607   4.417 -2.1106 -0.5929  2.0948
  591MOL0     H79732   8.089   7.595   4.506 -2.8944 -2.0010 -1.8757
  591MOL0     H79733   8.057   7.740   4.606  1.8279 -0.3024 -0.4277
  591MOL0     H79734   8.068   7.753   4.301 -1.9863  0.0953  0.1703
  591MOL0     H79735   8.053   7.880   4.420  0.3824 -0.3500  3.4997
  591MOL0     H79736   8.330   7.614   4.312 -0.8650  0.6140 -2.5442
  591MOL0     H79737   8.644   7.682   4.484  1.9695 -0.4465 -0.3865
  591MOL0     H79738   8.601   7.637   4.315 -1.2360  1.3343 -1.1195
  591MOL0     H79739   8.664   7.859   4.237  1.1340 -1.4003 -1.2160
  591MOL0     H79740   8.692   7.911   4.400 -1.7426  0.0412  0.3894
  591MOL0     H79741   8.842   7.676   4.274  3.8382 -0.5227  0.9119
  591MOL0     H79742   8.863   7.730   4.439  1.4908 -0.2915 -0.2048
  591MOL0     H79743   8.948   7.876   4.187  1.8455 -0.1800 -0.7317
  591MOL0     H79744   9.045   7.806   4.310  0.9027  1.7880 -2.1162
  591MOL0     H79745   8.912   8.158   4.522 -0.7891 -0.7012  2.1974
  591MOL0     H79746   9.101   8.290   4.622  1.6293  0.4664  0.7529
  591MOL0     H79747   9.410   8.586   4.626  2.2558  3.8034 -0.2118
  591MOL0     H79748   9.594   8.728   4.737  0.6891 -1.5721 -1.2192
  591MOL0     H79749   9.677   8.836   4.980  0.3265 -0.5712 -1.3848
  591MOL0     H79750   9.626   8.722   5.108 -0.3750  0.6743  0.1384
  591MOL0     H79751   9.887   8.675   5.134 -0.3647  0.5791 -0.2945
  591MOL0     H79752   9.899   8.794   5.009 -1.2130 -3.0456 -1.6944
  591MOL0     H79753   9.772   8.961   5.201 -0.5829  0.7012  2.1276
  591MOL0     H79754   9.863   8.844   5.300 -2.0791  1.2823  1.0749
  591MOL0     H79755   9.978   9.017   5.084 -4.9874  0.1998  0.5919
  591MOL0     H79756  10.070   8.905   5.185  0.7657  1.4219 -0.4755
  591MOL0     H79757  10.005   9.034   5.382  1.7209  0.7965  0.5242
  591MOL0     H79758   9.898   9.139   5.284  0.8791  1.4251 -1.0373
  591MOL0     H79759  10.191   9.113   5.276 -0.7088  0.1311  0.4912
  591MOL0     H79760  10.103   9.199   5.154 -0.4719 -2.9099 -0.5574
  591MOL0     H79761  10.083   9.275   5.449 -1.8262 -1.7400 -0.9587
  591MOL0     H79762  10.021   9.368   5.320 -0.7575 -0.9108 -2.1865
  591MOL0     H79763  10.327   9.324   5.334  0.3413  0.2692  1.2272
  591MOL0     H79764  10.241   9.428   5.222 -2.1050  1.0034  1.3453
  591MOL0     H79765   9.638   8.420   5.028 -1.5557 -0.1271  1.0812
  591MOL0     H79766   9.475   8.271   4.895  1.3717 -0.8425  3.0533
  591MOL0     H79767   9.399   8.017   4.483  0.0899  1.9270 -0.6164
  591MOL0     H79768   9.210   7.896   4.354  1.5993  0.3042 -0.5666
  591MOL0     H79769   7.225   8.111   4.831 -0.1861 -3.0436 -2.2773
  591MOL0     H79770   7.011   8.254   4.878  0.2242 -4.8536  1.5039
  591MOL0     H79771   6.727   8.455   4.863  2.6906  3.0313  0.3459
  591MOL0     H79772   6.563   8.608   4.970  1.1387 -3.3568 -0.0174
  591MOL0     H79773   6.258   8.784   4.669  1.0839 -0.4821 -0.9818
  591MOL0     H79774   6.349   8.923   4.688 -0.4227 -0.8514 -1.9790
  591MOL0     H79775   6.144   9.005   4.781 -1.7692  1.5745  2.1975
  591MOL0     H79776   6.243   8.977   4.916  1.8156 -2.4814  1.2423
  591MOL0     H79777   6.133   8.768   4.958 -0.5087  1.7675  0.8901
  591MOL0     H79778   6.039   8.769   4.803 -0.6298  1.5199 -1.8551
  591MOL0     H79779   6.012   8.936   5.066 -1.9389 -0.9624  1.0863
  591MOL0     H79780   5.936   8.990   4.903 -2.2332 -1.7606 -0.5900
  591MOL0     H79781   5.657   8.724   4.969 -0.6237  0.7366 -0.2683
  591MOL0     H79782   6.465   8.774   4.578  1.3528  1.0643 -0.2680
  591MOL0     H79783   6.528   8.580   4.388  2.0569 -1.9873 -2.1458
  591MOL0     H79784   6.628   8.726   4.399 -2.6181 -1.5195 -3.3280
  591MOL0     H79785   6.698   8.568   4.400 -1.6841 -2.3259 -0.0727
  592MOL0     O79786   0.308   0.220   7.719 -0.2029  0.0746  0.1265
  592MOL0     C79787   0.218   0.283   7.769 -0.3823 -0.3391 -0.0031
  592MOL0     O79788   0.238   0.381   7.866  0.1209 -0.0702  0.0139
  592MOL0     C79789   0.357   0.415   7.906 -0.7664  1.5132  0.5831
  592MOL0     C79790   0.444   0.483   7.820 -0.1355 -0.5963 -0.1936
  592MOL0     C79791   0.572   0.513   7.858  0.1566 -0.6402 -0.4400
  592MOL0     C79792   0.614   0.481   7.984 -0.1595 -0.6801  0.4902
  592MOL0     O79793   0.742   0.513   7.994 -0.2644 -0.2991 -0.0972
  592MOL0     C79794   0.823   0.449   8.098 -0.5148  0.4122 -0.8600
  592MOL0     C79795   0.961   0.436   8.039 -0.2806 -0.5348  0.2523
  592MOL0     C79796   1.063   0.442   8.155  0.3187  0.4310  0.2883
  592MOL0     C79797   1.162   0.555   8.152  0.6219  0.3388  0.3029
  592MOL0     C79798   1.275   0.545   8.257  0.5634 -0.5698 -0.5816
  592MOL0     C79799   1.386   0.643   8.234  0.4522  0.0620 -0.3691
  592MOL0     C79800   1.495   0.634   8.339  0.4039 -0.6006  0.3986
  592MOL0     C79801   1.576   0.764   8.324 -1.0256  0.1517  0.0516
  592MOL0     N79802   1.708   0.757   8.399  0.2849  0.1631 -0.1025
  592MOL0     C79803   1.833   0.731   8.351  0.6742  0.7085 -0.2418
  592MOL0     C79804   1.930   0.732   8.448  0.2320 -0.0348 -0.5403
  592MOL0     C79805   2.078   0.728   8.418 -0.5590 -0.2663 -0.4097
  592MOL0     C79806   2.138   0.862   8.435  0.6561  0.0061 -0.1188
  592MOL0     C79807   2.288   0.862   8.461 -0.6355  0.4182 -0.5102
  592MOL0     C79808   2.342   0.996   8.513  0.4381  0.1754  0.1128
  592MOL0     O79809   2.273   1.034   8.637  0.0423 -0.2659  0.8177
  592MOL0     C79810   2.328   1.116   8.722  0.1074 -1.4401 -0.7272
  592MOL0     C79811   2.295   1.110   8.866  0.0788  0.5881 -0.5984
  592MOL0     C79812   2.336   1.202   8.958  0.7392  0.4707  0.2518
  592MOL0     C79813   2.417   1.311   8.921 -0.0526 -0.0208 -1.0154
  592MOL0     C79814   2.456   1.415   9.015  0.3593 -0.9982  0.1069
  592MOL0     O79815   2.552   1.511   8.989 -0.1432  0.6675  0.2887
  592MOL0     C79816   2.589   1.597   9.086  0.7009 -0.5040  0.6289
  592MOL0     C79817   2.666   1.563   9.193  0.0868 -1.4295 -0.2886
  592MOL0     C79818   2.688   1.663   9.296 -0.0761 -0.8662 -0.1191
  592MOL0     C79819   2.646   1.799   9.277 -0.1510  0.1015 -1.0299
  592MOL0     O79820   2.674   1.905   9.363 -0.7770  0.1415  0.4079
  592MOL0     C79821   2.815   1.915   9.411  1.6241 -0.3735  0.2245
  592MOL0     C79822   2.908   1.970   9.305 -0.0268  0.2785 -0.0880
  592MOL0     C79823   3.057   1.973   9.349  0.3734 -0.0220 -0.0919
  592MOL0     C79824   3.125   2.098   9.291  0.0888 -0.3001 -0.1126
  592MOL0     C79825   3.280   2.064   9.291  0.5482 -0.1451 -0.4058
  592MOL0     C79826   3.358   2.165   9.204  0.2883 -0.4660  0.1798
  592MOL0     C79827   3.504   2.123   9.176  1.0430  0.5214  0.0599
  592MOL0     C79828   3.596   2.129   9.299 -1.3080  0.0624  0.0730
  592MOL0    Cl79829   3.765   2.110   9.249 -0.1877 -0.1289  0.0655
  592MOL0     C79830   2.577   1.830   9.157 -0.6187  0.0255 -0.6622
  592MOL0     C79831   2.543   1.731   9.065 -0.7027 -0.8673 -0.6305
  592MOL0     O79832   2.406   1.405   9.128  0.5562 -0.1735 -0.9908
  592MOL0     C79833   2.458   1.321   8.787 -0.7528 -0.0954 -0.0584
  592MOL0     C79834   2.420   1.227   8.692  0.7748 -0.5678 -0.2266
  592MOL0     N79835   1.858   0.770   8.560  0.0122 -0.7975 -0.8424
  592MOL0     N79836   1.735   0.774   8.531  0.5540  0.3036  0.2478
  592MOL0     C79837   0.532   0.423   8.078  1.1525  0.5562 -0.2810
  592MOL0     C79838   0.396   0.395   8.038 -0.5540  0.7761 -0.2172
  592MOL0     C79839   0.082   0.249   7.731 -0.8370 -0.6009 -0.2005
  592MOL0     C79840  -0.013   0.305   7.804  0.9806 -0.6426 -0.9417
  592MOL0     C79841  -0.147   0.285   7.783  0.2004 -0.2845 -0.7547
  592MOL0     C79842  -0.194   0.213   7.674  0.0055  0.7972 -0.0429
  592MOL0     O79843  -0.326   0.195   7.624  0.4760 -0.3952 -0.2297
  592MOL0     C79844  -0.427   0.225   7.716  0.5443 -0.0216  0.6919
  592MOL0     C79845  -0.565   0.185   7.647  0.0575  0.1865 -0.5939
  592MOL0     C79846  -0.675   0.192   7.757 -0.4046 -0.1593  0.1604
  592MOL0     C79847  -0.809   0.174   7.691 -0.3802  0.4769  0.2833
  592MOL0     C79848  -0.820   0.052   7.606  0.3458  0.2121 -0.5201
  592MOL0     C79849  -0.837  -0.053   7.546 -0.1405 -0.2880 -0.0953
  592MOL0     C79850  -0.089   0.154   7.590  0.0708 -0.3695  0.4561
  592MOL0     C79851   0.045   0.178   7.613 -0.0162  0.0728 -0.5893
  592MOL0     C79852   0.144   0.143   7.499 -0.3416  0.8738 -0.3058
  592MOL0     H79853   0.411   0.510   7.720 -0.4717  1.4094  0.4107
  592MOL0     H79854   0.637   0.565   7.788 -2.3564  0.1010 -2.3707
  592MOL0     H79855   0.811   0.508   8.190  2.5712  0.9743 -0.7353
  592MOL0     H79856   0.786   0.349   8.123 -2.7675  1.5656  0.8015
  592MOL0     H79857   0.989   0.506   7.960 -1.3637 -1.0125 -0.5818
  592MOL0     H79858   0.964   0.337   7.992 -2.0861 -1.1549  1.3514
  592MOL0     H79859   1.115   0.346   8.149 -0.7707 -0.3298  2.0878
  592MOL0     H79860   1.011   0.450   8.251 -0.8425 -0.4034 -0.2427
  592MOL0     H79861   1.216   0.549   8.057  2.5214 -3.0026  1.4522
  592MOL0     H79862   1.109   0.651   8.160 -0.0823 -0.1931  3.9082
  592MOL0     H79863   1.238   0.563   8.359 -1.1615 -2.5542 -0.7942
  592MOL0     H79864   1.321   0.446   8.259 -1.6472 -1.6399  0.8945
  592MOL0     H79865   1.429   0.625   8.135 -0.4599 -2.5633 -0.3706
  592MOL0     H79866   1.338   0.741   8.233 -2.7854 -1.3561  0.2944
  592MOL0     H79867   1.562   0.549   8.328  1.3357  0.4041 -3.8146
  592MOL0     H79868   1.448   0.626   8.437  1.0986 -2.9137  0.5987
  592MOL0     H79869   1.607   0.771   8.219  3.1809 -1.4677  0.9724
  592MOL0     H79870   1.525   0.855   8.357 -1.0458  0.7133 -1.4623
  592MOL0     H79871   1.861   0.712   8.248 -0.9403 -0.4768 -0.4989
  592MOL0     H79872   2.117   0.668   8.501  0.3482  0.9502  0.0757
  592MOL0     H79873   2.106   0.677   8.325  0.5873  1.2780 -0.9440
  592MOL0     H79874   2.118   0.920   8.344 -1.3812  1.9262  1.4504
  592MOL0     H79875   2.089   0.907   8.521  0.8130  0.6819 -0.3794
  592MOL0     H79876   2.346   0.839   8.372 -1.4031  0.4602 -1.0331
  592MOL0     H79877   2.308   0.781   8.532  0.5257  0.5382 -0.6907
  592MOL0     H79878   2.320   1.070   8.435 -5.2845 -2.6385 -1.4957
  592MOL0     H79879   2.450   0.989   8.526  0.4583 -0.7307 -0.4369
  592MOL0     H79880   2.222   1.034   8.894  0.1560  1.2176  1.4052
  592MOL0     H79881   2.300   1.194   9.060 -0.2145 -2.3434 -0.1930
  592MOL0     H79882   2.705   1.466   9.222  1.9525  0.0780  2.7147
  592MOL0     H79883   2.747   1.631   9.381  1.4135  2.5941  0.3153
  592MOL0     H79884   2.828   1.982   9.497  1.7021  2.5054 -1.8623
  592MOL0     H79885   2.842   1.814   9.443  0.3095 -0.9294 -0.3159
  592MOL0     H79886   2.908   1.914   9.210  1.1817 -0.9892  0.6179
  592MOL0     H79887   2.874   2.073   9.289 -0.5207  0.1834  0.3328
  592MOL0     H79888   3.065   1.983   9.458  1.2752 -3.9939  0.3616
  592MOL0     H79889   3.115   1.884   9.322  4.1202  1.7522  1.2540
  592MOL0     H79890   3.098   2.190   9.344  1.6610 -1.0309  2.1458
  592MOL0     H79891   3.088   2.121   9.191  0.9530  4.9564  0.4946
  592MOL0     H79892   3.297   1.960   9.261  0.2044 -0.8983  1.8096
  592MOL0     H79893   3.317   2.078   9.393  0.9401  0.1440 -0.5881
  592MOL0     H79894   3.306   2.178   9.109  0.4583 -1.5270 -0.0743
  592MOL0     H79895   3.353   2.259   9.259 -0.1557 -1.0026  1.0919
  592MOL0     H79896   3.555   2.171   9.092  1.3029 -1.1663 -0.7915
  592MOL0     H79897   3.503   2.021   9.136  4.1781  0.0641  0.8905
  592MOL0     H79898   3.588   2.226   9.350  0.6565  0.0958  0.3873
  592MOL0     H79899   3.568   2.044   9.361 -2.4894  0.0450 -0.4493
  592MOL0     H79900   2.551   1.929   9.118 -2.6229 -0.5610 -0.9365
  592MOL0     H79901   2.491   1.763   8.975 -0.2060 -1.3572 -1.1041
  592MOL0     H79902   2.519   1.404   8.753 -1.6059 -0.8564 -3.9525
  592MOL0     H79903   2.447   1.238   8.588 -3.2879 -0.9175 -1.5102
  592MOL0     H79904   0.567   0.419   8.181  0.6668  1.2247 -0.0826
  592MOL0     H79905   0.335   0.349   8.115 -1.0371  0.5616 -0.7233
  592MOL0     H79906   0.019   0.369   7.885  1.4049 -2.2073  0.1665
  592MOL0     H79907  -0.212   0.349   7.842  0.0925  1.1310 -2.3566
  592MOL0     H79908  -0.417   0.331   7.740  2.7415 -0.4702  2.0428
  592MOL0     H79909  -0.413   0.168   7.808 -0.0284 -0.7292  0.3506
  592MOL0     H79910  -0.560   0.081   7.613 -0.7299 -0.4904  1.2538
  592MOL0     H79911  -0.590   0.237   7.554 -3.8045 -2.5948 -1.3663
  592MOL0     H79912  -0.672   0.289   7.807 -0.2186 -1.3031  2.5575
  592MOL0     H79913  -0.659   0.117   7.836 -1.7420 -1.9089 -1.1229
  592MOL0     H79914  -0.901   0.162   7.749 -1.1215  0.3379 -0.8848
  592MOL0     H79915  -0.809   0.261   7.625  0.7354 -0.2236 -0.6689
  592MOL0     H79916  -0.827  -0.140   7.484  1.7555  0.6238 -1.1518
  592MOL0     H79917  -0.112   0.093   7.504 -0.0615 -0.5131  0.5923
  592MOL0     H79918   0.204   0.052   7.505 -1.9439 -0.2511 -0.6181
  592MOL0     H79919   0.098   0.155   7.400  1.8486  3.6338 -1.1178
  592MOL0     H79920   0.211   0.229   7.492 -1.4505  1.8523  0.6113
  593MOL0     O79921   7.188   2.024   7.180  0.0843 -0.3737 -0.2409
  593MOL0     C79922   7.182   1.900   7.149  0.0176  0.9313 -0.2296
  593MOL0     O79923   7.284   1.817   7.147 -0.6476 -0.1550 -0.3329
  593MOL0     C79924   7.405   1.863   7.180 -0.1899  0.5231  0.4434
  593MOL0     C79925   7.439   1.932   7.297 -0.5103 -0.1430  0.2079
  593MOL0     C79926   7.576   1.963   7.326 -0.4403 -0.2327 -0.1825
  593MOL0     C79927   7.678   1.917   7.247  0.2405 -0.3035 -0.1264
  593MOL0     O79928   7.803   1.961   7.279  0.4423  0.1419  0.0964
  593MOL0     C79929   7.918   1.953   7.184  0.9060 -0.4592 -0.4710
  593MOL0     C79930   8.043   1.964   7.272  0.2048  0.4758 -0.3107
  593MOL0     C79931   8.112   2.104   7.287  0.1406 -0.1904 -0.2494
  593MOL0     C79932   8.035   2.192   7.381  1.0451  0.9399 -0.7549
  593MOL0     C79933   8.109   2.329   7.412 -0.0274  0.6064  0.0057
  593MOL0     C79934   8.243   2.345   7.483 -0.3964 -0.4140  0.6062
  593MOL0     C79935   8.288   2.487   7.518 -0.8797 -0.2116 -0.0296
  593MOL0     C79936   8.329   2.573   7.400 -0.6315 -0.2669 -0.3807
  593MOL0     N79937   8.438   2.522   7.317  0.0131 -1.0630  1.2427
  593MOL0     C79938   8.428   2.446   7.201 -0.4669  0.0475 -0.2998
  593MOL0     C79939   8.537   2.478   7.128  0.1178 -0.2460 -0.8136
  593MOL0     C79940   8.577   2.426   6.991  1.1365  0.8680 -0.4317
  593MOL0     C79941   8.702   2.343   6.992 -0.1118 -0.2007  1.4530
  593MOL0     C79942   8.729   2.286   6.852 -0.7118  0.6521 -1.2424
  593MOL0     C79943   8.852   2.198   6.862  0.4215  0.5754 -0.0757
  593MOL0     O79944   8.969   2.264   6.920 -0.0842 -0.1806 -0.1478
  593MOL0     C79945   9.074   2.177   6.947  0.4188 -0.6337 -1.1795
  593MOL0     C79946   9.069   2.050   6.995  0.6327  0.6504  0.0910
  593MOL0     C79947   9.186   1.990   7.039 -0.3042 -0.6764  0.2704
  593MOL0     C79948   9.317   2.042   7.034  1.1144 -0.4274 -0.5415
  593MOL0     C79949   9.422   1.979   7.118  0.4768 -0.0554 -0.1703
  593MOL0     O79950   9.544   2.033   7.109  0.7111 -0.4701 -0.2111
  593MOL0     C79951   9.648   2.003   7.193  0.4449 -0.1033 -0.2263
  593MOL0     C79952   9.766   2.036   7.139  0.0448 -0.5355 -0.8581
  593MOL0     C79953   9.885   2.021   7.208  0.2107 -0.5087  0.2785
  593MOL0     C79954   9.887   1.960   7.342 -0.1046 -0.0187  1.2158
  593MOL0     O79955   9.992   1.929   7.419 -0.0883 -0.5160  0.2278
  593MOL0     C79956  10.126   1.952   7.367 -0.2238 -0.4356  0.1509
  593MOL0     C79957  10.221   1.876   7.461  0.2637  0.5562  0.2264
  593MOL0     C79958  10.368   1.886   7.406  0.0745 -0.8048 -0.1286
  593MOL0     C79959  10.467   1.808   7.493 -0.6864  0.4634  0.5331
  593MOL0     C79960  10.606   1.829   7.434  0.2614  0.5331  0.2061
  593MOL0     C79961  10.720   1.812   7.533 -0.1680  0.3656 -0.1767
  593MOL0     C79962  10.857   1.807   7.466 -0.6742  0.2160 -1.0053
  593MOL0     C79963  10.959   1.701   7.525 -0.1518 -0.8147  0.0321
  593MOL0    Cl79964  10.915   1.522   7.509 -0.4681  0.2029 -0.3986
  593MOL0     C79965   9.768   1.919   7.392 -0.2917  0.2030  0.7685
  593MOL0     C79966   9.652   1.949   7.323 -0.2306  0.0784 -0.2768
  593MOL0     O79967   9.398   1.873   7.180  0.3041 -0.1365 -0.2490
  593MOL0     C79968   9.319   2.174   6.983  0.0192 -0.0112 -0.3773
  593MOL0     C79969   9.198   2.237   6.934 -0.3257 -0.3259 -0.0683
  593MOL0     N79970   8.608   2.582   7.204 -0.5660  0.5508  0.0138
  593MOL0     N79971   8.548   2.599   7.314  0.5199 -0.2823  0.3719
  593MOL0     C79972   7.646   1.846   7.135  0.9644  0.3506 -0.7405
  593MOL0     C79973   7.509   1.807   7.107  0.0889  0.6016  0.4152
  593MOL0     C79974   7.059   1.849   7.082 -0.4952  0.5055 -0.0500
  593MOL0     C79975   7.067   1.750   6.985 -0.9508 -0.0444  0.1713
  593MOL0     C79976   6.964   1.697   6.911  0.4833 -0.1253 -0.0361
  593MOL0     C79977   6.835   1.747   6.930 -0.3097  0.9492  0.7359
  593MOL0     O79978   6.725   1.706   6.861 -0.3432 -0.2504  0.1068
  593MOL0     C79979   6.725   1.700   6.712  0.6504  0.0507  0.0217
  593MOL0     C79980   6.651   1.828   6.677  0.4478 -0.8018  0.2367
  593MOL0     C79981   6.534   1.786   6.594  0.1533  0.3732  0.4477
  593MOL0     C79982   6.465   1.902   6.519 -0.6973  0.1600 -0.3197
  593MOL0     C79983   6.552   1.977   6.430  0.1436 -0.0322  0.4373
  593MOL0     C79984   6.617   2.033   6.351 -0.7804 -0.5233  0.2643
  593MOL0     C79985   6.816   1.829   7.044  0.9053 -0.3631 -0.3086
  593MOL0     C79986   6.930   1.878   7.114 -0.5416 -0.0847 -0.7461
  593MOL0     C79987   6.894   1.978   7.227 -0.2923 -0.4108  0.3867
  593MOL0     H79988   7.348   1.963   7.348  0.1153  3.8547 -0.7792
  593MOL0     H79989   7.600   2.031   7.407 -0.6287  1.7263 -1.6893
  593MOL0     H79990   7.929   1.856   7.134  0.9824 -0.2075 -0.9471
  593MOL0     H79991   7.912   2.033   7.110  0.0175 -0.2112 -0.1439
  593MOL0     H79992   8.126   1.911   7.225 -0.3922 -0.6832 -0.0832
  593MOL0     H79993   8.026   1.925   7.373  3.3889  0.0559  0.1450
  593MOL0     H79994   8.117   2.151   7.189 -0.1633 -1.2892 -0.8070
  593MOL0     H79995   8.213   2.084   7.325  0.5561  0.1498 -1.1566
  593MOL0     H79996   7.933   2.211   7.346 -0.2160  0.7432  2.4209
  593MOL0     H79997   8.033   2.141   7.478  2.8721  0.8061 -0.7657
  593MOL0     H79998   8.118   2.387   7.320  1.6930  0.5666  0.1155
  593MOL0     H79999   8.042   2.389   7.475  1.2308  0.9663  1.0447
  593MOL0     H80000   8.233   2.294   7.579 -0.6373 -1.0590  0.2452
  593MOL0     H80001   8.322   2.299   7.421 -1.0032  0.5231 -0.9266
  593MOL0     H80002   8.373   2.481   7.587  1.3770 -3.6514 -2.7300
  593MOL0     H80003   8.205   2.545   7.558 -0.7307  0.9020 -1.2695
  593MOL0     H80004   8.235   2.583   7.345 -0.9544  0.3304  0.2746
  593MOL0     H80005   8.354   2.676   7.427 -1.0209 -0.1102 -0.6190
  593MOL0     H80006   8.345   2.381   7.175 -1.0458  1.4357 -2.1405
  593MOL0     H80007   8.496   2.366   6.947 -0.1996  2.2753  0.0343
  593MOL0     H80008   8.585   2.515   6.929 -3.7809  1.0991 -1.1825
  593MOL0     H80009   8.784   2.410   7.018 -0.3389  1.1908 -1.0283
  593MOL0     H80010   8.697   2.267   7.070  4.2308 -1.3814  0.8359
  593MOL0     H80011   8.756   2.360   6.775  3.0308  2.6272  1.6622
  593MOL0     H80012   8.649   2.221   6.816  0.7917 -0.8377 -2.0230
  593MOL0     H80013   8.867   2.154   6.763 -0.3465  0.4099 -0.1241
  593MOL0     H80014   8.834   2.105   6.918  0.4616  0.6883  0.1276
  593MOL0     H80015   8.982   1.986   7.006  2.4445 -1.5759  3.0304
  593MOL0     H80016   9.179   1.888   7.076  0.1576 -0.9062 -0.2508
  593MOL0     H80017   9.766   2.071   7.036 -1.7486  0.5299 -0.5266
  593MOL0     H80018   9.975   2.053   7.156  1.6678 -3.4349  0.7528
  593MOL0     H80019  10.141   1.910   7.268  0.9565 -1.1194  0.6089
  593MOL0     H80020  10.155   2.057   7.372  1.1822 -0.6940 -1.7947
  593MOL0     H80021  10.217   1.924   7.560 -2.4668  0.9528 -0.0028
  593MOL0     H80022  10.200   1.769   7.454 -0.9516  0.7418  0.8843
  593MOL0     H80023  10.376   1.850   7.303  0.8222 -0.9633 -0.0254
  593MOL0     H80024  10.389   1.993   7.401 -1.2324 -0.5497 -0.3655
  593MOL0     H80025  10.451   1.700   7.505  0.6029  0.4719  3.0375
  593MOL0     H80026  10.459   1.851   7.593 -1.0781  1.3793  0.1211
  593MOL0     H80027  10.614   1.933   7.403 -1.4665  0.4753 -0.5203
  593MOL0     H80028  10.627   1.776   7.341  2.4336  1.2029  0.2544
  593MOL0     H80029  10.721   1.888   7.611  1.2593  0.3939 -0.2001
  593MOL0     H80030  10.708   1.719   7.590 -1.6300  3.1755  4.6601
  593MOL0     H80031  10.917   1.898   7.477  0.4082  0.0662 -4.4739
  593MOL0     H80032  10.848   1.781   7.360  0.2963 -1.7830 -0.6402
  593MOL0     H80033  11.056   1.713   7.477 -0.6394  1.7701 -0.4512
  593MOL0     H80034  10.965   1.712   7.634  2.5524 -1.5198  0.0241
  593MOL0     H80035   9.757   1.880   7.493 -3.2175  0.0617  0.4957
  593MOL0     H80036   9.569   1.910   7.381  0.2827 -2.0729 -0.9342
  593MOL0     H80037   9.411   2.232   6.982  0.4117 -0.6033  0.4142
  593MOL0     H80038   9.210   2.338   6.896 -1.9500  0.2401  0.8415
  593MOL0     H80039   7.726   1.808   7.073  1.0200 -0.3394 -0.2586
  593MOL0     H80040   7.487   1.738   7.026  3.5758  2.0169 -2.0074
  593MOL0     H80041   7.162   1.706   6.957 -1.7228 -1.7060  0.0881
  593MOL0     H80042   6.986   1.639   6.822  0.8402 -0.9469  0.5745
  593MOL0     H80043   6.665   1.613   6.683  0.5639 -0.3217  1.2339
  593MOL0     H80044   6.818   1.696   6.655  2.0562  0.3856  2.1589
  593MOL0     H80045   6.719   1.902   6.634  0.8510 -0.6693  1.0773
  593MOL0     H80046   6.599   1.877   6.760  0.5506 -1.0313  0.4389
  593MOL0     H80047   6.459   1.737   6.656  0.6382  1.7145  2.1761
  593MOL0     H80048   6.562   1.718   6.513 -0.2356  1.5514 -0.7181
  593MOL0     H80049   6.376   1.853   6.478 -1.1186  1.0495 -0.4944
  593MOL0     H80050   6.431   1.983   6.585  0.6388  0.8421 -0.4362
  593MOL0     H80051   6.668   2.087   6.273  3.3386  2.5516  4.5029
  593MOL0     H80052   6.715   1.855   7.073  1.1161 -2.3147  2.5898
  593MOL0     H80053   6.951   1.957   7.318  3.2891  2.0790 -1.0398
  593MOL0     H80054   6.931   2.076   7.195 -2.5080  0.0052 -1.1575
  593MOL0     H80055   6.787   1.984   7.248 -0.0128  1.6567  1.5847
  594MOL0     O80056   7.618   4.861   5.816  0.0722 -0.0692 -0.0893
  594MOL0     C80057   7.580   4.827   5.706 -0.6812  0.0653 -0.1259
  594MOL0     O80058   7.448   4.822   5.682 -0.3442 -0.5726  0.0162
  594MOL0     C80059   7.357   4.783   5.777  0.0641 -0.5886  0.4201
  594MOL0     C80060   7.382   4.703   5.883 -0.8205  0.0271 -0.1478
  594MOL0     C80061   7.276   4.670   5.964  0.7202 -0.3014 -0.1255
  594MOL0     C80062   7.146   4.730   5.954  0.0247 -0.0145 -0.9440
  594MOL0     O80063   7.062   4.698   6.060  0.2009 -0.0689 -0.0042
  594MOL0     C80064   6.940   4.773   6.087 -1.0697 -0.0618  0.2870
  594MOL0     C80065   6.886   4.766   6.227 -0.3967  0.0081 -0.0536
  594MOL0     C80066   6.996   4.829   6.316 -0.7867 -0.9909  0.1635
  594MOL0     C80067   6.972   4.850   6.466  0.3800  0.6140 -0.2225
  594MOL0     C80068   7.083   4.935   6.527 -0.3176  0.0211  0.1576
  594MOL0     C80069   7.089   4.942   6.677 -0.7073  0.3588 -0.1305
  594MOL0     C80070   7.091   4.807   6.755  0.1218 -0.2160 -0.5110
  594MOL0     C80071   7.209   4.717   6.731  1.3560  0.4968 -0.4649
  594MOL0     N80072   7.343   4.766   6.763 -0.0243 -0.6441  0.7004
  594MOL0     C80073   7.425   4.829   6.674  0.2943  0.6908  0.5196
  594MOL0     C80074   7.530   4.872   6.744 -0.7015 -0.4667 -0.8714
  594MOL0     C80075   7.649   4.933   6.690 -0.4292  0.5214 -0.1423
  594MOL0     C80076   7.774   4.881   6.769  0.1595  0.3772  0.1102
  594MOL0     C80077   7.894   4.954   6.715  0.0104 -0.3112  1.0038
  594MOL0     C80078   8.022   4.924   6.797  0.2809 -0.0157  0.2082
  594MOL0     O80079   8.111   4.842   6.717 -0.4202  0.0385  1.0119
  594MOL0     C80080   8.249   4.830   6.756  0.3035 -0.2724  0.2498
  594MOL0     C80081   8.297   4.801   6.881  0.3853  0.1940  0.3587
  594MOL0     C80082   8.431   4.790   6.912 -0.1165  0.0506 -1.1722
  594MOL0     C80083   8.528   4.804   6.802  0.7287  0.0021 -0.3370
  594MOL0     C80084   8.670   4.778   6.826 -0.1403 -0.7191 -0.1230
  594MOL0     O80085   8.745   4.726   6.721 -0.4439 -0.3315  0.1106
  594MOL0     C80086   8.886   4.706   6.740  0.4743 -0.2207 -0.6037
  594MOL0     C80087   8.922   4.571   6.764  0.2176 -0.5324 -0.9909
  594MOL0     C80088   9.051   4.544   6.803  0.3908 -0.1041  0.4545
  594MOL0     C80089   9.145   4.647   6.793  0.1799  0.1912  0.4986
  594MOL0     O80090   9.277   4.621   6.830  0.3128  0.3722 -0.1602
  594MOL0     C80091   9.376   4.696   6.755 -0.4673 -0.2444  0.0954
  594MOL0     C80092   9.515   4.622   6.758 -0.3649 -0.1882  0.1190
  594MOL0     C80093   9.582   4.624   6.896  0.3175  0.4018  0.5258
  594MOL0     C80094   9.727   4.580   6.885 -0.4924 -0.0131  0.2825
  594MOL0     C80095   9.799   4.597   7.011  0.1554  0.8294  0.0426
  594MOL0     C80096   9.941   4.538   7.005 -0.0130 -0.1762 -0.2049
  594MOL0     C80097  10.063   4.636   7.031  0.2999 -0.0525  0.3446
  594MOL0     C80098  10.200   4.569   7.034 -0.2605 -0.4283  0.8266
  594MOL0    Cl80099  10.260   4.547   6.863 -0.7160 -0.0812  0.0377
  594MOL0     C80100   9.107   4.776   6.761 -0.9858  0.7762  0.5636
  594MOL0     C80101   8.973   4.808   6.738 -0.3664  0.0325 -0.1554
  594MOL0     O80102   8.712   4.805   6.940 -0.1582  0.8556 -0.6977
  594MOL0     C80103   8.484   4.847   6.675 -0.4037  0.4286  0.0613
  594MOL0     C80104   8.345   4.855   6.650  0.4575  0.2102  0.0516
  594MOL0     N80105   7.506   4.852   6.880  0.3914  1.4248  0.8849
  594MOL0     N80106   7.390   4.791   6.885 -0.3133  0.0395 -0.0271
  594MOL0     C80107   7.117   4.807   5.846 -0.0510 -0.3674 -0.1159
  594MOL0     C80108   7.224   4.833   5.761 -0.5596  0.7437 -0.0664
  594MOL0     C80109   7.670   4.807   5.591 -0.6833  0.2198 -0.0164
  594MOL0     C80110   7.615   4.748   5.475 -0.2567 -0.0922 -1.0140
  594MOL0     C80111   7.694   4.712   5.371 -0.5396  0.1363 -0.5586
  594MOL0     C80112   7.827   4.736   5.380 -0.5241 -0.3215  0.0087
  594MOL0     O80113   7.906   4.723   5.271  0.7279  0.3930  0.2596
  594MOL0     C80114   7.889   4.606   5.190 -0.4301  0.7835 -0.3758
  594MOL0     C80115   8.021   4.566   5.134  0.0382 -0.0954 -0.4678
  594MOL0     C80116   8.130   4.533   5.235 -0.5011  0.0384  0.1080
  594MOL0     C80117   8.128   4.390   5.292  0.3797  0.9336 -0.1897
  594MOL0     C80118   8.144   4.290   5.184 -0.3063 -0.1501 -1.6568
  594MOL0     C80119   8.139   4.201   5.106 -0.7408 -0.0346  0.9522
  594MOL0     C80120   7.887   4.800   5.487 -0.6078 -0.6583  0.3760
  594MOL0     C80121   7.807   4.832   5.596  0.3448 -0.0352  0.3245
  594MOL0     C80122   7.888   4.891   5.709 -0.3462 -0.1307 -0.4829
  594MOL0     H80123   7.480   4.666   5.912 -0.0294  1.6370 -0.6550
  594MOL0     H80124   7.301   4.606   6.048  0.1083 -0.2267  0.1166
  594MOL0     H80125   6.955   4.877   6.058 -0.0538 -0.5981 -1.1872
  594MOL0     H80126   6.870   4.726   6.018 -0.7187  0.0753 -0.1635
  594MOL0     H80127   6.884   4.659   6.248  1.4473  0.3829  2.5880
  594MOL0     H80128   6.789   4.815   6.230 -0.4071  0.2204 -2.3923
  594MOL0     H80129   7.019   4.926   6.270  1.1946 -1.8837 -0.8471
  594MOL0     H80130   7.093   4.781   6.305  0.5714  1.5430  0.3738
  594MOL0     H80131   6.876   4.900   6.484 -0.3424 -0.0071 -2.0837
  594MOL0     H80132   6.962   4.755   6.520  2.0280  0.6024  0.1082
  594MOL0     H80133   7.178   4.886   6.503 -0.3438  0.0838 -0.0843
  594MOL0     H80134   7.097   5.034   6.483 -0.0405  1.1885  2.7394
  594MOL0     H80135   7.175   5.000   6.712 -0.9138  0.6180 -0.0475
  594MOL0     H80136   7.000   5.004   6.695 -1.6035  0.5763 -4.2544
  594MOL0     H80137   6.992   4.761   6.746  0.5545 -1.5072  0.8214
  594MOL0     H80138   7.084   4.835   6.861 -0.6148  3.0571 -1.3171
  594MOL0     H80139   7.199   4.627   6.794  3.1408  1.5434  1.4392
  594MOL0     H80140   7.208   4.695   6.624 -0.1257  0.9429 -0.5644
  594MOL0     H80141   7.407   4.844   6.568  0.9456  1.6146  0.5235
  594MOL0     H80142   7.648   4.887   6.591 -1.0652 -0.2554  0.2146
  594MOL0     H80143   7.650   5.043   6.683  0.5452  0.6578  1.6220
  594MOL0     H80144   7.765   4.900   6.876  0.7929 -1.0930  0.4514
  594MOL0     H80145   7.786   4.774   6.749  2.0379  0.7286 -0.8418
  594MOL0     H80146   7.879   5.063   6.709 -2.2771 -0.5872  0.7949
  594MOL0     H80147   7.914   4.920   6.613 -0.0526  1.8471  0.2109
  594MOL0     H80148   8.009   4.886   6.898 -1.3528  2.7436  1.1651
  594MOL0     H80149   8.071   5.021   6.815 -1.2536  0.8507 -0.0714
  594MOL0     H80150   8.219   4.779   6.954 -0.6707 -1.3410 -1.1433
  594MOL0     H80151   8.470   4.763   7.010  1.5079  0.7413 -1.5928
  594MOL0     H80152   8.851   4.494   6.790 -0.1995  0.3197  0.5222
  594MOL0     H80153   9.073   4.442   6.834 -1.4110 -0.0654  2.0663
  594MOL0     H80154   9.345   4.701   6.650 -2.2441  0.5228  0.6222
  594MOL0     H80155   9.395   4.794   6.800  0.6454 -1.3288  2.1617
  594MOL0     H80156   9.512   4.517   6.729  0.9557 -0.2877  0.3058
  594MOL0     H80157   9.580   4.677   6.689 -0.2856 -1.1466 -0.5780
  594MOL0     H80158   9.565   4.726   6.932 -2.2888  1.0735 -2.2730
  594MOL0     H80159   9.527   4.564   6.968 -1.8433 -0.0900 -1.4302
  594MOL0     H80160   9.774   4.646   6.811 -1.1194  1.2167  0.9446
  594MOL0     H80161   9.729   4.473   6.862 -1.0675 -0.6382  2.8433
  594MOL0     H80162   9.739   4.547   7.089  1.7909  0.0666  0.8593
  594MOL0     H80163   9.803   4.706   7.018 -2.6785  1.0991 -1.1078
  594MOL0     H80164   9.954   4.447   7.065  3.0730 -0.4833 -1.1755
  594MOL0     H80165   9.959   4.496   6.906 -0.5968 -1.9258  0.3969
  594MOL0     H80166  10.051   4.692   7.124 -0.6644 -1.9256  1.3953
  594MOL0     H80167  10.067   4.712   6.953 -0.2853  1.0521  1.3678
  594MOL0     H80168  10.272   4.639   7.077 -1.8424  1.8860 -0.0502
  594MOL0     H80169  10.206   4.474   7.087 -2.4380  0.6412  3.1618
  594MOL0     H80170   9.177   4.859   6.758 -0.4871  0.3378 -0.3650
  594MOL0     H80171   8.951   4.913   6.718  2.4229  1.0028  1.3640
  594MOL0     H80172   8.558   4.863   6.597 -0.4235 -1.5315 -0.4092
  594MOL0     H80173   8.311   4.886   6.552  2.8292 -0.8933 -1.2131
  594MOL0     H80174   7.012   4.827   5.828 -0.3215 -1.2018  0.4851
  594MOL0     H80175   7.214   4.899   5.677  1.1692  3.5001  1.7252
  594MOL0     H80176   7.506   4.748   5.470 -0.4334  2.3987  0.8818
  594MOL0     H80177   7.643   4.658   5.291 -0.7946  0.4837 -0.6320
  594MOL0     H80178   7.827   4.631   5.103 -0.2421 -1.3482 -1.1825
  594MOL0     H80179   7.848   4.520   5.244  2.7919 -0.4426  0.3659
  594MOL0     H80180   8.053   4.653   5.076  0.2702  1.8234  2.3535
  594MOL0     H80181   8.008   4.480   5.068 -1.4866 -1.6445  1.7244
  594MOL0     H80182   8.127   4.611   5.311  1.9461  0.5147 -0.1879
  594MOL0     H80183   8.226   4.551   5.184  1.0397 -0.8690  2.5073
  594MOL0     H80184   8.201   4.383   5.374 -3.0692 -0.7714  3.0611
  594MOL0     H80185   8.031   4.363   5.336  0.4671 -0.1685 -0.6505
  594MOL0     H80186   8.155   4.115   5.044  3.3001  2.4513 -2.0253
  594MOL0     H80187   7.988   4.839   5.492 -1.8094  2.6484  1.5236
  594MOL0     H80188   7.990   4.917   5.680  0.1528 -0.2020  1.0861
  594MOL0     H80189   7.845   4.985   5.744  1.2807  0.4899 -0.0560
  594MOL0     H80190   7.896   4.815   5.787 -5.1705 -0.4665 -0.0064
  595MOL0     O80191   3.051   6.383   2.158  0.2273 -0.8968 -0.2903
  595MOL0     C80192   3.101   6.341   2.264 -0.3890 -0.1802 -0.6272
  595MOL0     O80193   3.029   6.285   2.370 -0.4703  0.1567 -0.0506
  595MOL0     C80194   2.909   6.224   2.339  0.4004  0.4609  0.2500
  595MOL0     C80195   2.804   6.246   2.423 -0.4364  0.8007  0.2027
  595MOL0     C80196   2.677   6.183   2.396 -0.6659  0.9906  0.1454
  595MOL0     C80197   2.671   6.104   2.284  0.8758 -0.5748  0.8255
  595MOL0     O80198   2.550   6.040   2.260 -0.2705 -0.2215 -0.5631
  595MOL0     C80199   2.515   5.972   2.140 -0.2914  0.9964  0.2735
  595MOL0     C80200   2.377   5.918   2.140 -0.5728  0.2813  0.0384
  595MOL0     C80201   2.265   6.016   2.108 -0.6142 -0.6641  0.1171
  595MOL0     C80202   2.137   5.979   2.187  0.1933  0.0694  0.2171
  595MOL0     C80203   2.003   6.051   2.138  0.2864  0.3497 -0.2677
  595MOL0     C80204   1.893   6.012   2.239 -0.3985  0.4428 -0.2176
  595MOL0     C80205   1.766   6.097   2.208  0.2367 -0.0652  0.5400
  595MOL0     C80206   1.675   6.040   2.097 -0.0707 -0.3159  0.7136
  595MOL0     N80207   1.539   6.095   2.102 -0.5849 -0.0740 -0.1732
  595MOL0     C80208   1.473   6.096   2.222 -0.7099 -0.2165  0.5355
  595MOL0     C80209   1.352   6.148   2.195  0.4475 -0.3081  0.8759
  595MOL0     C80210   1.255   6.190   2.306 -0.0826  0.6912  0.2103
  595MOL0     C80211   1.181   6.078   2.390  0.8543 -0.2796  0.3479
  595MOL0     C80212   1.271   5.987   2.478  0.7818 -0.4889 -0.6398
  595MOL0     C80213   1.348   6.057   2.585 -0.8459  0.5340  0.3574
  595MOL0     O80214   1.442   5.965   2.632 -0.4582 -0.6080 -0.5959
  595MOL0     C80215   1.492   5.985   2.755  0.2848  0.2064  0.4880
  595MOL0     C80216   1.552   5.881   2.832  0.5602 -0.4205 -0.1172
  595MOL0     C80217   1.611   5.897   2.962  0.0507 -0.2854 -0.5964
  595MOL0     C80218   1.602   6.023   3.018  0.3499  0.7275 -0.2858
  595MOL0     C80219   1.673   6.054   3.144  0.0358 -0.5249 -0.0657
  595MOL0     O80220   1.706   6.186   3.171  0.5822  0.4296 -0.1958
  595MOL0     C80221   1.802   6.207   3.265  0.4276 -0.0170  0.8988
  595MOL0     C80222   1.778   6.294   3.372  0.1588 -0.4066 -0.6297
  595MOL0     C80223   1.880   6.318   3.465 -0.4676  0.0527 -0.4023
  595MOL0     C80224   2.012   6.277   3.442 -0.4734  0.8731  0.7350
  595MOL0     O80225   2.122   6.302   3.528 -0.8620 -0.4828  0.1223
  595MOL0     C80226   2.087   6.313   3.667  0.1482  0.7722  0.1302
  595MOL0     C80227   2.208   6.292   3.759 -0.1913 -0.0181 -0.1098
  595MOL0     C80228   2.310   6.405   3.767  0.0091 -1.3508  0.2685
  595MOL0     C80229   2.404   6.380   3.889  0.2731  1.0108  0.2104
  595MOL0     C80230   2.506   6.494   3.910 -0.5512  0.3840  0.0291
  595MOL0     C80231   2.595   6.449   4.024 -0.0164  0.3572 -0.4330
  595MOL0     C80232   2.711   6.554   4.021  0.2431  0.2428 -0.0193
  595MOL0     C80233   2.781   6.551   4.154  0.0838  0.5406  0.3508
  595MOL0    Cl80234   2.669   6.607   4.290  0.4465  0.3179  0.1244
  595MOL0     C80235   2.025   6.181   3.342  0.8429  0.1302 -0.1015
  595MOL0     C80236   1.925   6.152   3.248  0.4377  0.3329 -0.3111
  595MOL0     O80237   1.718   5.959   3.207  0.1620  0.8237  0.5244
  595MOL0     C80238   1.542   6.125   2.951 -0.3345 -0.1149  0.2692
  595MOL0     C80239   1.487   6.109   2.826  0.2713  0.3670 -0.2919
  595MOL0     N80240   1.352   6.182   2.070  0.3147 -0.6169 -0.4024
  595MOL0     N80241   1.463   6.155   2.009 -0.0347  0.5793 -0.4259
  595MOL0     C80242   2.784   6.076   2.195  0.0566 -0.2059 -1.4833
  595MOL0     C80243   2.902   6.139   2.227 -0.1015  0.1173  0.6491
  595MOL0     C80244   3.234   6.385   2.287  0.1748 -0.0272  0.2465
  595MOL0     C80245   3.276   6.391   2.418 -0.1161  0.3435  0.6272
  595MOL0     C80246   3.408   6.406   2.454  0.3787  0.0113 -0.1203
  595MOL0     C80247   3.499   6.449   2.360 -1.2741  0.1526 -0.6698
  595MOL0     O80248   3.632   6.465   2.405  0.0066 -1.3792  0.3726
  595MOL0     C80249   3.743   6.420   2.325  0.6770  0.1604  0.4539
  595MOL0     C80250   3.833   6.548   2.312 -0.1676  0.9432  0.5687
  595MOL0     C80251   3.966   6.526   2.244  0.4344  0.0262 -0.6675
  595MOL0     C80252   4.054   6.430   2.332  0.5877  0.1386  0.4005
  595MOL0     C80253   4.190   6.437   2.272  0.4344  0.9308 -1.0567
  595MOL0     C80254   4.304   6.422   2.226 -0.2875  0.0313  0.7113
  595MOL0     C80255   3.462   6.445   2.224 -0.0030 -0.0024  0.3230
  595MOL0     C80256   3.333   6.406   2.185  1.0651 -0.2050  0.7377
  595MOL0     C80257   3.314   6.383   2.039  0.4924  0.6097  0.2992
  595MOL0     H80258   2.833   6.306   2.509  0.9591  0.2228  0.1751
  595MOL0     H80259   2.590   6.202   2.457 -0.2749  4.2616 -0.1343
  595MOL0     H80260   2.523   6.045   2.059  0.0143  1.3499  0.6161
  595MOL0     H80261   2.575   5.881   2.132 -2.5614 -0.8177  2.3814
  595MOL0     H80262   2.364   5.850   2.225  1.1713 -1.3293 -0.9066
  595MOL0     H80263   2.377   5.853   2.052 -0.2488  0.2187  0.0861
  595MOL0     H80264   2.242   6.011   2.002  2.4248  0.6954 -0.6898
  595MOL0     H80265   2.292   6.119   2.132 -1.9315 -0.0047 -1.0749
  595MOL0     H80266   2.119   5.873   2.168 -1.4324  0.6581 -1.9102
  595MOL0     H80267   2.153   5.992   2.294  2.3301  0.2812 -0.0955
  595MOL0     H80268   2.014   6.160   2.143 -2.6426  0.7033  0.5340
  595MOL0     H80269   1.977   6.026   2.035  1.7616  2.7379 -1.3125
  595MOL0     H80270   1.871   5.905   2.227  0.9047  0.0817  0.4108
  595MOL0     H80271   1.921   6.036   2.342 -1.6018 -0.9831  0.4898
  595MOL0     H80272   1.801   6.199   2.189 -3.0659  1.3124  1.2580
  595MOL0     H80273   1.718   6.100   2.306  0.3183  1.8562  0.5589
  595MOL0     H80274   1.711   6.051   1.994  0.9816 -1.8229  0.8882
  595MOL0     H80275   1.668   5.932   2.110 -1.7268 -0.4359 -0.8102
  595MOL0     H80276   1.503   6.077   2.324  0.4500  0.3440  0.3129
  595MOL0     H80277   1.308   6.260   2.372  0.6513 -0.6367  1.0827
  595MOL0     H80278   1.169   6.236   2.256 -0.1200  0.3120 -0.0833
  595MOL0     H80279   1.106   6.120   2.457 -0.0452  0.2801 -0.9550
  595MOL0     H80280   1.118   6.022   2.319  0.8217 -0.2453  0.3495
  595MOL0     H80281   1.348   5.937   2.418  0.2026 -2.7779  0.4438
  595MOL0     H80282   1.214   5.906   2.522 -0.0229  0.1592 -0.4589
  595MOL0     H80283   1.288   6.092   2.669 -2.3903 -1.4146  0.1441
  595MOL0     H80284   1.403   6.142   2.544  2.2146 -1.4158  0.0921
  595MOL0     H80285   1.576   5.787   2.783  0.8739 -1.3584  1.7387
  595MOL0     H80286   1.672   5.827   3.018  2.5850  1.5740 -0.8946
  595MOL0     H80287   1.681   6.342   3.382 -0.3283 -1.6567  0.9364
  595MOL0     H80288   1.850   6.376   3.551 -0.4165 -0.8304  0.2197
  595MOL0     H80289   2.035   6.408   3.683 -1.2981  0.4162 -1.9764
  595MOL0     H80290   2.011   6.237   3.686 -1.1855  1.6962 -1.2310
  595MOL0     H80291   2.172   6.272   3.860 -1.7968  3.2682  0.0840
  595MOL0     H80292   2.249   6.197   3.723 -0.7093  0.3128 -1.6489
  595MOL0     H80293   2.368   6.409   3.675 -0.3566 -5.0700 -0.3014
  595MOL0     H80294   2.265   6.504   3.768  2.6255 -0.0929  0.4405
  595MOL0     H80295   2.450   6.287   3.855 -1.6353 -0.0985  0.5358
  595MOL0     H80296   2.357   6.351   3.983  0.6672  0.6464  0.3011
  595MOL0     H80297   2.468   6.596   3.918  0.1295  0.8531 -2.0259
  595MOL0     H80298   2.571   6.485   3.822  1.2795 -1.6020  1.4637
  595MOL0     H80299   2.533   6.471   4.111 -1.1972 -0.3728 -1.0599
  595MOL0     H80300   2.625   6.345   4.014 -0.6134  0.3423 -2.8093
  595MOL0     H80301   2.668   6.651   3.998  0.6213 -0.3787 -3.9634
  595MOL0     H80302   2.788   6.533   3.946 -2.5602  0.0499 -3.0172
  595MOL0     H80303   2.822   6.453   4.179 -1.5490 -1.0335 -2.5772
  595MOL0     H80304   2.865   6.621   4.149  0.4777  0.2009  1.7270
  595MOL0     H80305   2.121   6.131   3.343  0.6578 -0.4470 -2.7726
  595MOL0     H80306   1.942   6.086   3.164  0.3036  0.4178 -0.4062
  595MOL0     H80307   1.539   6.225   2.994  0.7986 -0.3082  0.8412
  595MOL0     H80308   1.430   6.193   2.786 -0.4542  0.0409  0.0475
  595MOL0     H80309   2.778   5.999   2.119 -2.3810 -0.8972 -0.7031
  595MOL0     H80310   2.990   6.117   2.167 -1.3106  1.2332 -1.6195
  595MOL0     H80311   3.218   6.371   2.508  1.9568  4.2688  3.1303
  595MOL0     H80312   3.429   6.398   2.561 -2.7384 -1.5932  0.4806
  595MOL0     H80313   3.717   6.392   2.223  0.6614 -1.5139  0.9010
  595MOL0     H80314   3.794   6.337   2.375 -0.5282 -1.6012 -1.1074
  595MOL0     H80315   3.855   6.583   2.414 -1.0596  1.5280  0.5710
  595MOL0     H80316   3.779   6.630   2.264 -2.5790 -0.9943 -0.2471
  595MOL0     H80317   4.022   6.619   2.236 -0.1155  0.3438 -0.8880
  595MOL0     H80318   3.948   6.496   2.140  0.0237 -0.3587 -0.4889
  595MOL0     H80319   4.064   6.469   2.434 -0.4835  1.2892  0.0901
  595MOL0     H80320   4.008   6.331   2.326 -1.1470  0.9957 -1.1513
  595MOL0     H80321   4.403   6.406   2.190 -0.3653 -0.1746  0.5860
  595MOL0     H80322   3.538   6.462   2.148 -0.6818 -2.2013 -0.9212
  595MOL0     H80323   3.407   6.388   1.982  0.2333 -1.5797 -0.3908
  595MOL0     H80324   3.273   6.281   2.033 -0.4335  0.9534  0.5401
  595MOL0     H80325   3.244   6.452   1.992 -2.0870 -1.6405  0.5698
  596MOL0     O80326   6.207   8.465   5.748 -0.3330 -0.2812  0.0834
  596MOL0     C80327   6.210   8.562   5.673 -0.0380  0.1130  0.3378
  596MOL0     O80328   6.313   8.603   5.603 -0.5362  0.0097 -0.1420
  596MOL0     C80329   6.438   8.543   5.601  0.2155 -0.0187  0.4311
  596MOL0     C80330   6.498   8.468   5.710  0.2443  0.4069  0.8720
  596MOL0     C80331   6.636   8.425   5.694 -0.4000 -0.4724 -0.2630
  596MOL0     C80332   6.697   8.430   5.562 -0.0206  0.6873 -0.3209
  596MOL0     O80333   6.823   8.378   5.534  0.4716  0.2732  0.2434
  596MOL0     C80334   6.888   8.293   5.624  0.2973 -0.6280 -0.0288
  596MOL0     C80335   7.026   8.350   5.652  0.2235 -0.5550 -0.5727
  596MOL0     C80336   7.126   8.320   5.535 -0.1313  0.1772  0.2945
  596MOL0     C80337   7.264   8.349   5.589  0.0034  0.7668  0.3109
  596MOL0     C80338   7.373   8.340   5.480  0.6207  0.1181 -0.2999
  596MOL0     C80339   7.413   8.192   5.451  0.1867 -1.3848 -0.1811
  596MOL0     C80340   7.537   8.183   5.364 -0.5220 -0.7926  0.7504
  596MOL0     C80341   7.593   8.044   5.357 -0.7414 -0.1877 -0.3031
  596MOL0     N80342   7.504   7.940   5.289  0.1309 -0.1047 -0.0612
  596MOL0     C80343   7.448   7.939   5.164  0.7936  0.1043 -1.5542
  596MOL0     C80344   7.398   7.811   5.153 -0.0304  0.4429  0.2207
  596MOL0     C80345   7.321   7.766   5.036  0.8032 -1.1753 -0.6381
  596MOL0     C80346   7.401   7.693   4.933 -0.4372 -0.9313  0.1648
  596MOL0     C80347   7.463   7.566   4.990 -0.0873  0.7212  0.2168
  596MOL0     C80348   7.527   7.491   4.866 -0.8056 -0.1696 -0.1978
  596MOL0     O80349   7.598   7.370   4.897 -0.2076  0.4782 -0.7309
  596MOL0     C80350   7.687   7.317   4.808  0.5408 -0.2471 -0.7360
  596MOL0     C80351   7.777   7.221   4.857  0.1012  0.6705 -0.3946
  596MOL0     C80352   7.885   7.170   4.771  0.0926 -0.1729 -0.1877
  596MOL0     C80353   7.891   7.212   4.639  0.4079 -1.1133  0.0183
  596MOL0     C80354   8.012   7.187   4.555  0.5807 -0.0368 -0.5317
  596MOL0     O80355   8.075   7.077   4.590  0.2828  0.3435 -0.1376
  596MOL0     C80356   8.193   7.049   4.534 -0.3025 -0.0906  0.2030
  596MOL0     C80357   8.203   7.009   4.396  0.8323  0.6847  0.5106
  596MOL0     C80358   8.325   6.971   4.336 -0.0035  0.0951  0.2054
  596MOL0     C80359   8.445   7.002   4.405 -0.7780 -0.7521  0.2548
  596MOL0     O80360   8.564   6.966   4.353  0.1763  0.7501  0.7232
  596MOL0     C80361   8.625   6.852   4.420  0.3811  0.0406  0.1687
  596MOL0     C80362   8.722   6.881   4.534 -0.2137 -0.3154 -0.1829
  596MOL0     C80363   8.809   7.011   4.508  0.1186  0.2618  0.5403
  596MOL0     C80364   8.892   7.037   4.632 -0.2259  0.4550  0.3176
  596MOL0     C80365   8.803   7.083   4.744  0.2383  1.1469 -0.6235
  596MOL0     C80366   8.888   7.148   4.854 -0.3659 -0.1727 -0.9535
  596MOL0     C80367   8.800   7.225   4.963 -0.3346  0.1586  0.2223
  596MOL0     C80368   8.886   7.250   5.086  0.3211 -0.0289 -0.1840
  596MOL0    Cl80369   8.776   7.333   5.194  0.0263 -0.0950  0.1870
  596MOL0     C80370   8.437   7.056   4.533  0.0170  0.3944 -0.4625
  596MOL0     C80371   8.313   7.074   4.603 -0.3839  0.6892 -0.1590
  596MOL0     O80372   8.032   7.262   4.462  0.5589  0.8879  0.0887
  596MOL0     C80373   7.791   7.301   4.592  0.0186 -1.1672  0.0250
  596MOL0     C80374   7.686   7.354   4.670  0.2150  0.9589  0.5542
  596MOL0     N80375   7.426   7.741   5.262 -0.2806 -0.4233  0.4576
  596MOL0     N80376   7.481   7.822   5.347  0.6140  0.4093  0.0739
  596MOL0     C80377   6.624   8.493   5.462  0.1414 -0.6110 -0.5101
  596MOL0     C80378   6.497   8.556   5.478 -0.1807  0.4605  0.6408
  596MOL0     C80379   6.088   8.646   5.679 -0.0981 -0.5526  0.7461
  596MOL0     C80380   6.095   8.785   5.692  0.7381 -0.3207  0.5634
  596MOL0     C80381   5.974   8.859   5.693 -0.0571  0.8233  0.6742
  596MOL0     C80382   5.852   8.799   5.689  0.7693  0.8545 -0.1651
  596MOL0     O80383   5.737   8.874   5.704 -0.2235  0.5220 -0.2505
  596MOL0     C80384   5.621   8.811   5.758  0.3902 -1.0088  0.1054
  596MOL0     C80385   5.528   8.915   5.821 -0.0197  0.8456 -0.6432
  596MOL0     C80386   5.404   8.843   5.863  1.0355  0.3298 -0.0129
  596MOL0     C80387   5.327   8.899   5.985 -0.8424 -0.5500  0.4018
  596MOL0     C80388   5.283   9.039   5.963  0.1858  0.4883 -0.4616
  596MOL0     C80389   5.266   9.159   5.959 -0.2591  0.1567  0.6266
  596MOL0     C80390   5.852   8.662   5.689 -0.0315  0.2472 -0.1285
  596MOL0     C80391   5.964   8.583   5.684  0.6778 -0.4392  0.5302
  596MOL0     C80392   5.943   8.431   5.684 -0.0061 -0.1087 -0.1134
  596MOL0     H80393   6.446   8.449   5.803 -1.3295 -2.8902 -0.5193
  596MOL0     H80394   6.680   8.377   5.781 -0.1085 -0.8731 -0.6268
  596MOL0     H80395   6.838   8.297   5.721  0.4871  1.9804  0.0217
  596MOL0     H80396   6.885   8.195   5.575 -1.0262  0.1101 -1.5394
  596MOL0     H80397   7.067   8.318   5.747 -1.3468 -0.7490  0.0789
  596MOL0     H80398   7.009   8.457   5.669  1.2200 -0.5880  0.8101
  596MOL0     H80399   7.099   8.386   5.453  0.7714  1.8701  1.3116
  596MOL0     H80400   7.115   8.219   5.494  1.8694  0.5751 -1.3458
  596MOL0     H80401   7.269   8.456   5.611  2.1028  0.8126 -0.1794
  596MOL0     H80402   7.287   8.280   5.671 -1.8047 -2.0646 -1.3969
  596MOL0     H80403   7.332   8.397   5.396  1.4456  0.8763 -0.1975
  596MOL0     H80404   7.464   8.392   5.512 -0.4237  0.8186  1.7185
  596MOL0     H80405   7.442   8.140   5.542 -0.3896 -1.8062 -0.2297
  596MOL0     H80406   7.329   8.141   5.403 -2.4130 -1.4995  3.9847
  596MOL0     H80407   7.616   8.253   5.392 -1.9309  1.4686 -0.5666
  596MOL0     H80408   7.513   8.219   5.264 -0.0039  0.3891  1.0324
  596MOL0     H80409   7.684   8.045   5.295 -0.1755  0.7835  0.5138
  596MOL0     H80410   7.624   8.019   5.458  2.2610 -0.8890 -1.2977
  596MOL0     H80411   7.441   8.027   5.102  0.0644  2.5370  1.7339
  596MOL0     H80412   7.243   7.696   5.067  0.4604 -1.9927 -3.1400
  596MOL0     H80413   7.274   7.855   4.994 -1.2973 -1.9566 -0.0705
  596MOL0     H80414   7.339   7.677   4.844 -1.8649  2.7139  0.3090
  596MOL0     H80415   7.489   7.753   4.907 -0.8313 -0.8048 -0.9247
  596MOL0     H80416   7.384   7.508   5.040 -0.5071  3.2714  2.7871
  596MOL0     H80417   7.538   7.587   5.066 -0.2444  0.3028  0.4933
  596MOL0     H80418   7.593   7.561   4.815 -0.2163 -0.7308 -0.2235
  596MOL0     H80419   7.448   7.464   4.795  0.0198 -2.1498 -0.4385
  596MOL0     H80420   7.767   7.191   4.961  1.2063  0.3972 -0.3524
  596MOL0     H80421   7.950   7.099   4.821 -1.3837 -0.9867  0.6603
  596MOL0     H80422   8.114   6.999   4.334 -0.4149  0.9130  2.1819
  596MOL0     H80423   8.327   6.922   4.239  1.2488 -2.6191  1.4744
  596MOL0     H80424   8.553   6.774   4.447 -0.7362 -0.7675 -4.2948
  596MOL0     H80425   8.691   6.798   4.352 -0.7091 -2.8002  1.2031
  596MOL0     H80426   8.658   6.907   4.619 -0.4626 -2.2651  0.2827
  596MOL0     H80427   8.783   6.793   4.558 -0.4110 -0.2297  0.6892
  596MOL0     H80428   8.872   7.003   4.419  1.2466  3.3141  0.9516
  596MOL0     H80429   8.742   7.096   4.493 -0.3228 -0.4845 -2.4404
  596MOL0     H80430   8.970   7.113   4.619 -0.6041  0.5822 -1.4270
  596MOL0     H80431   8.942   6.946   4.665 -0.4311  0.6252  1.1336
  596MOL0     H80432   8.761   6.996   4.795  2.2146 -0.5481 -1.7693
  596MOL0     H80433   8.730   7.154   4.704  0.0696 -0.9565 -4.4668
  596MOL0     H80434   8.948   7.068   4.898 -0.2148  0.1380 -0.5902
  596MOL0     H80435   8.959   7.213   4.802  0.2220  0.8880  1.0610
  596MOL0     H80436   8.719   7.162   5.000  0.0627 -1.1260 -1.0004
  596MOL0     H80437   8.762   7.315   4.913  1.9943 -1.8282 -6.1178
  596MOL0     H80438   8.921   7.158   5.132 -0.2103 -0.8418 -1.3690
  596MOL0     H80439   8.978   7.300   5.052  1.5523 -0.2642  2.5180
  596MOL0     H80440   8.519   7.061   4.604 -1.7883 -1.2440  1.8907
  596MOL0     H80441   8.308   7.095   4.709  1.8773 -1.5832  0.4909
  596MOL0     H80442   7.778   7.345   4.493 -1.6994 -1.1673  0.2107
  596MOL0     H80443   7.621   7.431   4.630 -2.0185 -1.0368  0.1269
  596MOL0     H80444   6.667   8.510   5.364  1.4524  1.5792  0.3611
  596MOL0     H80445   6.434   8.593   5.398 -0.9971  2.4833  2.1278
  596MOL0     H80446   6.192   8.834   5.688  0.4589  0.1294 -2.0537
  596MOL0     H80447   5.976   8.967   5.695  3.4451  0.8926  0.4254
  596MOL0     H80448   5.644   8.733   5.832  2.5977 -1.6392 -1.1454
  596MOL0     H80449   5.566   8.763   5.676 -1.4707  0.8039  0.2066
  596MOL0     H80450   5.500   8.992   5.748 -1.8126  2.5004  1.6118
  596MOL0     H80451   5.568   8.965   5.910 -1.2621 -1.8973  1.5773
  596MOL0     H80452   5.415   8.735   5.873  1.1217  0.4886  1.9750
  596MOL0     H80453   5.338   8.861   5.777  1.9458 -2.5693 -1.4405
  596MOL0     H80454   5.241   8.836   6.009 -0.6344 -0.6917  0.7808
  596MOL0     H80455   5.407   8.876   6.056 -2.3130 -2.5612  1.5036
  596MOL0     H80456   5.264   9.263   5.931  0.7790  0.0171 -0.0326
  596MOL0     H80457   5.760   8.605   5.705  1.7716 -2.0977  2.9929
  596MOL0     H80458   5.962   8.380   5.779  0.4235 -2.1579 -1.2513
  596MOL0     H80459   5.839   8.406   5.662  0.2799 -1.7547  0.2428
  596MOL0     H80460   6.004   8.388   5.604  2.2085  1.3510  0.6910
  597MOL0     O80461   1.783   4.914   1.424  1.0056  0.0909 -0.0379
  597MOL0     C80462   1.824   5.026   1.445  0.4156 -0.2349  0.2098
  597MOL0     O80463   1.796   5.134   1.366  0.5335 -0.6353  0.1614
  597MOL0     C80464   1.710   5.123   1.260 -0.4939  0.1583 -0.1505
  597MOL0     C80465   1.749   5.176   1.134  0.1764 -0.4993  0.0860
  597MOL0     C80466   1.672   5.147   1.027  0.2686  0.2873 -0.3964
  597MOL0     C80467   1.547   5.079   1.031 -0.2402  0.6853  0.3805
  597MOL0     O80468   1.487   5.070   0.909 -0.4907 -0.5340 -0.1965
  597MOL0     C80469   1.434   4.938   0.885  0.7405 -0.6257  0.9854
  597MOL0     C80470   1.442   4.929   0.732  0.0464  0.4077  0.0945
  597MOL0     C80471   1.578   4.939   0.660 -0.0799 -0.8271 -0.0995
  597MOL0     C80472   1.682   4.855   0.729 -0.5044  0.4953  0.0204
  597MOL0     C80473   1.810   4.841   0.657 -0.4899 -0.3029 -0.1270
  597MOL0     C80474   1.883   4.973   0.657  0.1038 -0.5118  0.0156
  597MOL0     C80475   2.019   4.960   0.589 -0.1942 -0.4070  0.3317
  597MOL0     C80476   2.013   4.942   0.437  0.9303  0.9205 -0.7308
  597MOL0     N80477   2.149   4.969   0.384  0.4258 -0.0782 -0.0170
  597MOL0     C80478   2.213   4.896   0.290 -0.4317  0.0072  0.7776
  597MOL0     C80479   2.319   4.974   0.266 -0.3415 -0.4168  0.1262
  597MOL0     C80480   2.426   4.942   0.159  0.2253  1.2198 -0.0598
  597MOL0     C80481   2.565   4.990   0.201  0.7662  0.4227 -0.2927
  597MOL0     C80482   2.655   4.990   0.075 -0.4819  0.1000  0.0061
  597MOL0     C80483   2.799   5.022   0.108 -0.1373  0.2884  0.1443
  597MOL0     O80484   2.859   4.918   0.190 -0.1818 -0.5611  0.4659
  597MOL0     C80485   2.991   4.929   0.220 -0.1386 -0.7804  0.4082
  597MOL0     C80486   3.057   4.831   0.299 -0.5125  0.2213  0.3741
  597MOL0     C80487   3.195   4.839   0.330 -0.3370  0.4930  0.1087
  597MOL0     C80488   3.270   4.943   0.274  0.1314  0.1145  0.8336
  597MOL0     C80489   3.411   4.961   0.305 -0.3675 -0.1571 -0.4550
  597MOL0     O80490   3.479   4.848   0.325  0.7918  0.4570 -0.0087
  597MOL0     C80491   3.606   4.850   0.388 -0.5958  0.3492  0.5490
  597MOL0     C80492   3.642   4.929   0.496 -0.1714 -0.7480  0.0020
  597MOL0     C80493   3.766   4.918   0.551 -0.1933  1.0679  0.2557
  597MOL0     C80494   3.850   4.814   0.510  0.7751  0.0861  0.1817
  597MOL0     O80495   3.965   4.787   0.577  0.0173  0.0197 -0.2813
  597MOL0     C80496   4.020   4.878   0.671  0.3654 -1.0290  0.4961
  597MOL0     C80497   4.144   4.838   0.741 -0.0717  0.0943  0.0265
  597MOL0     C80498   4.265   4.820   0.638  1.0583 -0.4111 -0.1968
  597MOL0     C80499   4.373   4.748   0.704 -0.7996  0.2702 -0.4074
  597MOL0     C80500   4.476   4.700   0.602  0.5809 -0.1867  0.3865
  597MOL0     C80501   4.590   4.619   0.661 -0.9420 -0.1691  0.8436
  597MOL0     C80502   4.545   4.479   0.699 -1.2162  0.7272 -0.6414
  597MOL0     C80503   4.671   4.390   0.727  0.1146 -0.0101  0.5581
  597MOL0    Cl80504   4.607   4.220   0.750 -0.2757  0.1671  0.3529
  597MOL0     C80505   3.823   4.739   0.398 -0.2187  1.3253  0.2495
  597MOL0     C80506   3.693   4.751   0.340 -0.7495 -0.6327  0.2092
  597MOL0     O80507   3.456   5.073   0.311 -1.2230 -0.2060 -0.2791
  597MOL0     C80508   3.205   5.030   0.183  0.0402  0.0452  0.4083
  597MOL0     C80509   3.071   5.039   0.173  0.2368  0.2906  0.5565
  597MOL0     N80510   2.307   5.097   0.336  0.9059  0.1155 -0.2123
  597MOL0     N80511   2.212   5.086   0.411 -0.4825  0.2625  0.0435
  597MOL0     C80512   1.500   5.044   1.152  0.9306  1.2398 -0.3962
  597MOL0     C80513   1.582   5.068   1.269 -0.1498  1.1570  0.9603
  597MOL0     C80514   1.916   5.050   1.565 -0.6167  0.2872 -0.5424
  597MOL0     C80515   1.981   5.175   1.581 -0.6197 -0.4404  0.2285
  597MOL0     C80516   2.081   5.200   1.679  0.3493  0.8631 -0.3019
  597MOL0     C80517   2.113   5.103   1.775  0.1524 -0.1775  0.5522
  597MOL0     O80518   2.192   5.129   1.885 -0.5630 -0.2005  0.2310
  597MOL0     C80519   2.268   5.246   1.894  0.0752 -0.1415 -0.1810
  597MOL0     C80520   2.387   5.219   1.811 -0.3905 -0.4943 -0.2394
  597MOL0     C80521   2.496   5.137   1.896 -0.9613 -0.1925  0.2209
  597MOL0     C80522   2.592   5.091   1.786 -0.3660  0.4177  0.3721
  597MOL0     C80523   2.714   5.053   1.853 -0.2302  0.1542 -0.4480
  597MOL0     C80524   2.812   5.025   1.916 -0.5143  0.0246  0.4351
  597MOL0     C80525   2.037   4.985   1.768 -0.1430 -0.3116 -0.1929
  597MOL0     C80526   1.953   4.950   1.656  0.3358  0.4405  0.1831
  597MOL0     C80527   1.907   4.808   1.657  0.3709  0.7135  0.1211
  597MOL0     H80528   1.845   5.223   1.117 -0.4818  1.0459  0.4242
  597MOL0     H80529   1.720   5.176   0.934 -0.4039 -1.1218 -1.2189
  597MOL0     H80530   1.495   4.859   0.928  0.8444 -1.4241 -0.5609
  597MOL0     H80531   1.334   4.925   0.926  0.1709  1.3425  0.3453
  597MOL0     H80532   1.379   5.006   0.689  0.1578  0.0995 -0.6322
  597MOL0     H80533   1.392   4.835   0.704 -0.1438  0.7378 -0.6842
  597MOL0     H80534   1.611   5.043   0.651  4.0872 -1.6133  2.9196
  597MOL0     H80535   1.563   4.900   0.559  0.9736 -0.7140 -0.3097
  597MOL0     H80536   1.700   4.895   0.829 -1.0311 -0.6559  0.5879
  597MOL0     H80537   1.637   4.756   0.736 -0.8637  0.7199  1.0348
  597MOL0     H80538   1.871   4.761   0.699 -0.1602 -0.5872 -1.1315
  597MOL0     H80539   1.799   4.822   0.550  4.1385  2.7611 -1.4169
  597MOL0     H80540   1.826   5.058   0.618  1.9372  1.1915  0.8695
  597MOL0     H80541   1.904   4.998   0.761 -0.4582  0.4534 -0.0915
  597MOL0     H80542   2.074   4.873   0.627 -0.2832  0.1089  1.6854
  597MOL0     H80543   2.073   5.055   0.599 -2.2823  0.6492  2.3183
  597MOL0     H80544   1.978   4.843   0.406 -2.9082  1.2706  1.8534
  597MOL0     H80545   1.951   5.026   0.406 -0.8151  0.4533  1.2781
  597MOL0     H80546   2.189   4.797   0.253  1.1137  0.2751 -1.0662
  597MOL0     H80547   2.441   4.837   0.133  3.0664  1.8604 -1.2717
  597MOL0     H80548   2.394   4.993   0.068  1.3960  0.0237 -1.1909
  597MOL0     H80549   2.549   5.090   0.244 -2.3111 -1.4478  3.5454
  597MOL0     H80550   2.611   4.927   0.278 -1.2486  2.0834  2.5003
  597MOL0     H80551   2.616   5.064   0.004  0.5006  1.9761  1.3347
  597MOL0     H80552   2.652   4.889   0.033 -1.3231 -0.9263  2.3711
  597MOL0     H80553   2.785   5.121   0.154 -3.8903 -0.7591  1.6310
  597MOL0     H80554   2.855   5.035   0.015 -1.1029  1.9552 -0.2518
  597MOL0     H80555   2.993   4.754   0.342 -0.3454  1.2405  2.5989
  597MOL0     H80556   3.239   4.764   0.395 -0.6831 -1.2670 -1.6093
  597MOL0     H80557   3.570   4.997   0.541  0.5799  0.1713 -0.1326
  597MOL0     H80558   3.786   4.994   0.626 -0.7757  1.4472  0.0352
  597MOL0     H80559   4.043   4.973   0.621 -1.7894  1.2303  3.4257
  597MOL0     H80560   3.944   4.886   0.749  0.2521 -1.1010  0.3947
  597MOL0     H80561   4.161   4.912   0.821  0.8806 -1.5778  1.4474
  597MOL0     H80562   4.134   4.737   0.781  0.9869 -0.6607 -1.5413
  597MOL0     H80563   4.235   4.770   0.545 -2.2487  0.5855  0.2128
  597MOL0     H80564   4.300   4.923   0.624  1.0271  0.1299  3.1076
  597MOL0     H80565   4.342   4.653   0.749 -0.3512 -0.2242 -1.1168
  597MOL0     H80566   4.424   4.821   0.767 -2.9135  2.1150 -0.6971
  597MOL0     H80567   4.510   4.791   0.553 -1.7148  0.7439  0.4242
  597MOL0     H80568   4.427   4.647   0.520  2.1035  0.0235 -0.6912
  597MOL0     H80569   4.661   4.611   0.579 -2.8718 -0.3241 -0.8862
  597MOL0     H80570   4.645   4.679   0.734  1.8196  0.7398 -1.7927
  597MOL0     H80571   4.495   4.425   0.619  0.7090 -2.3784  0.0997
  597MOL0     H80572   4.472   4.484   0.780 -2.3909 -0.0423 -1.6300
  597MOL0     H80573   4.748   4.391   0.649  0.6470  1.3389  1.0637
  597MOL0     H80574   4.727   4.412   0.818  2.2763  1.0371 -0.9317
  597MOL0     H80575   3.899   4.671   0.361 -2.0517 -0.2102 -0.9314
  597MOL0     H80576   3.671   4.692   0.251  2.9725 -1.3726 -0.3992
  597MOL0     H80577   3.268   5.103   0.134 -0.9803 -1.0983 -2.8996
  597MOL0     H80578   3.040   5.111   0.099  3.2565  0.9060 -0.2723
  597MOL0     H80579   1.406   4.993   1.171  3.5076 -3.0753  2.6921
  597MOL0     H80580   1.541   5.029   1.362 -0.9657 -0.0543  0.1232
  597MOL0     H80581   1.946   5.257   1.520 -1.5652 -1.6278 -0.8902
  597MOL0     H80582   2.119   5.300   1.695 -1.5756  1.2903  2.3991
  597MOL0     H80583   2.298   5.274   1.995 -1.7544  3.0547 -0.4007
  597MOL0     H80584   2.198   5.324   1.863  0.5968 -0.7961 -3.3012
  597MOL0     H80585   2.434   5.314   1.783 -1.8844  0.5559  0.7009
  597MOL0     H80586   2.359   5.171   1.717 -0.5715  1.2811 -1.1438
  597MOL0     H80587   2.455   5.049   1.947  1.7466 -3.0001 -2.0300
  597MOL0     H80588   2.549   5.204   1.963  1.3376  0.8557 -2.4412
  597MOL0     H80589   2.556   5.020   1.710  3.8463  0.6816 -2.2101
  597MOL0     H80590   2.616   5.174   1.718 -4.3753 -0.2153 -2.1971
  597MOL0     H80591   2.903   5.001   1.968 -2.4014 -3.9215  2.3744
  597MOL0     H80592   2.052   4.912   1.847 -2.2906 -0.3867  0.1995
  597MOL0     H80593   1.970   4.752   1.727  0.8423  0.5653 -0.4109
  597MOL0     H80594   1.801   4.801   1.682  0.3125 -0.5560 -0.4000
  597MOL0     H80595   1.929   4.760   1.561 -1.8218  4.0417 -2.2309
  598MOL0     O80596   7.738   5.836   0.067 -0.2681  0.2616 -0.8284
  598MOL0     C80597   7.693   5.746  -0.002 -0.3038 -0.6192 -0.4218
  598MOL0     O80598   7.767   5.667  -0.089 -0.0118  0.2530 -0.3692
  598MOL0     C80599   7.912   5.667  -0.078 -0.2276  0.3447  0.2205
  598MOL0     C80600   7.979   5.628  -0.191 -0.1703 -0.0867 -0.2368
  598MOL0     C80601   8.123   5.617  -0.201  0.9857  0.4876 -0.2189
  598MOL0     C80602   8.196   5.669  -0.097 -0.3241  0.6977  0.0026
  598MOL0     O80603   8.328   5.685  -0.097 -0.1156  0.4311  0.7632
  598MOL0     C80604   8.407   5.685  -0.220  0.2637  0.4884 -0.6647
  598MOL0     C80605   8.535   5.757  -0.201 -0.2998 -0.2538  0.6076
  598MOL0     C80606   8.639   5.736  -0.315 -0.5507  0.3195 -0.3349
  598MOL0     C80607   8.770   5.812  -0.278 -0.1072 -0.3052 -0.3497
  598MOL0     C80608   8.890   5.772  -0.369 -0.1835 -0.6560  0.1187
  598MOL0     C80609   9.020   5.845  -0.324 -0.8010  0.2521 -1.0585
  598MOL0     C80610   9.094   5.785  -0.203  0.0399 -0.0160 -0.5624
  598MOL0     C80611   9.207   5.879  -0.175 -0.2635 -0.1618  0.2502
  598MOL0     N80612   9.175   6.016  -0.121 -0.1510  0.4568  0.4438
  598MOL0     C80613   9.221   6.144  -0.167  0.5020  0.1000  0.2748
  598MOL0     C80614   9.164   6.233  -0.090 -0.4948 -0.0740 -0.2400
  598MOL0     C80615   9.200   6.378  -0.103  0.6568 -0.7116  0.6349
  598MOL0     C80616   9.271   6.434   0.021 -0.3263 -0.8615  0.1779
  598MOL0     C80617   9.370   6.338   0.096  0.1029  0.0854  0.3166
  598MOL0     C80618   9.445   6.415   0.207  0.2784 -0.4570 -0.1520
  598MOL0     O80619   9.520   6.313   0.288  0.3965 -0.1522 -0.4774
  598MOL0     C80620   9.624   6.363   0.358  0.8337  0.7009 -0.4077
  598MOL0     C80621   9.677   6.499   0.361 -0.2734 -0.0605  0.3611
  598MOL0     C80622   9.784   6.528   0.438  0.0221 -0.5334 -0.7959
  598MOL0     C80623   9.872   6.422   0.497 -0.5349  0.8778 -0.0026
  598MOL0     C80624  10.000   6.462   0.557  1.5176 -0.4019 -0.4805
  598MOL0     O80625  10.094   6.363   0.583 -0.4082  0.3655  0.6127
  598MOL0     C80626  10.218   6.386   0.619  0.4323 -0.7176  0.2173
  598MOL0     C80627  10.258   6.489   0.705  0.6244  0.4021  0.4331
  598MOL0     C80628  10.402   6.498   0.720  0.0952  0.5580 -1.0425
  598MOL0     C80629  10.494   6.404   0.671 -0.9609 -0.5561  0.1931
  598MOL0     O80630  10.631   6.409   0.697 -0.1446 -0.2309  0.8980
  598MOL0     C80631  10.680   6.548   0.702  0.1630  0.4840 -0.4692
  598MOL0     C80632  10.833   6.536   0.680  0.2451  0.3640 -0.2670
  598MOL0     C80633  10.890   6.677   0.669  0.1231 -0.8965  0.0061
  598MOL0     C80634  11.040   6.651   0.650  0.3211 -0.1054  0.3905
  598MOL0     C80635  11.118   6.782   0.637  0.0661 -0.2823 -0.3212
  598MOL0     C80636  11.265   6.773   0.607 -0.4485 -0.0290  0.2009
  598MOL0     C80637  11.290   6.701   0.473  0.1308  0.6681  0.0415
  598MOL0     C80638  11.430   6.751   0.422 -0.0089  0.3218  0.9420
  598MOL0    Cl80639  11.569   6.754   0.545  0.0225  0.1042 -0.1210
  598MOL0     C80640  10.452   6.305   0.594  0.1544 -0.0708  0.2529
  598MOL0     C80641  10.315   6.308   0.563 -0.1987  0.8358 -0.1777
  598MOL0     O80642  10.010   6.585   0.582  0.0547  0.7555  0.3108
  598MOL0     C80643   9.821   6.292   0.485 -0.8089  0.3157 -0.5849
  598MOL0     C80644   9.700   6.266   0.421  0.8673  0.5697  0.4992
  598MOL0     N80645   9.080   6.176   0.001 -0.3494  0.3458 -0.2870
  598MOL0     N80646   9.091   6.043  -0.012  0.2630  0.5042 -0.0001
  598MOL0     C80647   8.130   5.705   0.022  0.5656 -0.6957 -0.6731
  598MOL0     C80648   7.990   5.698   0.037 -0.4882 -0.0912 -1.0189
  598MOL0     C80649   7.549   5.719   0.009  0.1766  0.4482  0.4425
  598MOL0     C80650   7.492   5.624  -0.074 -0.0877  0.5280  0.3441
  598MOL0     C80651   7.352   5.614  -0.086  1.0303  0.0471 -0.4827
  598MOL0     C80652   7.269   5.693  -0.005 -0.0693 -0.4745 -1.3378
  598MOL0     O80653   7.133   5.669  -0.018  0.3880 -0.0871 -0.2816
  598MOL0     C80654   7.050   5.723   0.085 -0.0833  0.2171  0.5168
  598MOL0     C80655   6.981   5.853   0.030 -0.0795 -0.5773  0.7150
  598MOL0     C80656   6.845   5.885   0.102  0.3857  0.3875  0.1752
  598MOL0     C80657   6.742   5.780   0.078  0.8902  1.3354 -1.1331
  598MOL0     C80658   6.733   5.757  -0.063 -0.9537  0.3517 -0.8322
  598MOL0     C80659   6.717   5.752  -0.179 -0.5671 -0.0478 -0.8175
  598MOL0     C80660   7.336   5.788   0.079  0.9106 -1.5558 -0.0376
  598MOL0     C80661   7.470   5.797   0.093 -0.7803  0.0203 -0.2176
  598MOL0     C80662   7.515   5.910   0.195 -0.1842  0.2533 -0.2942
  598MOL0     H80663   7.914   5.606  -0.275  0.2476  0.5059 -0.7330
  598MOL0     H80664   8.169   5.584  -0.294 -1.8750  1.6322 -2.1938
  598MOL0     H80665   8.439   5.581  -0.231  3.4270  1.5398 -2.5776
  598MOL0     H80666   8.354   5.720  -0.309 -0.3459 -2.4386 -1.5823
  598MOL0     H80667   8.574   5.740  -0.100  2.9549  1.6921 -0.1927
  598MOL0     H80668   8.521   5.865  -0.212  1.9491 -0.0354 -0.5856
  598MOL0     H80669   8.614   5.781  -0.411  0.3190 -3.1117 -2.3579
  598MOL0     H80670   8.654   5.628  -0.328 -1.4519  0.1591 -0.0975
  598MOL0     H80671   8.754   5.920  -0.267  0.5642 -0.3012  0.7647
  598MOL0     H80672   8.794   5.789  -0.174 -1.1486  4.3615  1.1573
  598MOL0     H80673   8.910   5.665  -0.376 -0.3157 -0.8277  1.9337
  598MOL0     H80674   8.873   5.817  -0.468  1.7150  4.4214  1.7774
  598MOL0     H80675   9.088   5.857  -0.408  1.9229  2.0685  1.1972
  598MOL0     H80676   8.993   5.945  -0.287  0.9356  0.5144 -0.3970
  598MOL0     H80677   9.143   5.689  -0.226  0.0278 -0.0723 -0.3572
  598MOL0     H80678   9.034   5.765  -0.114  2.8444 -0.7348  1.2987
  598MOL0     H80679   9.267   5.830  -0.098 -0.0207 -1.6092 -0.8152
  598MOL0     H80680   9.277   5.880  -0.259 -0.6165  2.1853 -0.0795
  598MOL0     H80681   9.286   6.161  -0.252 -0.8272  0.9379 -0.5976
  598MOL0     H80682   9.253   6.400  -0.196  2.2425 -0.8881  1.4587
  598MOL0     H80683   9.108   6.437  -0.116  0.6027 -1.3297 -2.6872
  598MOL0     H80684   9.320   6.530   0.005  2.0995 -1.9530  0.6250
  598MOL0     H80685   9.196   6.462   0.095  0.0527  3.5467 -0.8338
  598MOL0     H80686   9.446   6.304   0.025  2.4357  2.8572  1.2957
  598MOL0     H80687   9.320   6.246   0.129 -0.3323  0.0334 -0.4575
  598MOL0     H80688   9.367   6.453   0.274 -0.5000 -1.3778 -0.5177
  598MOL0     H80689   9.505   6.495   0.164 -1.7992  1.0387 -0.3734
  598MOL0     H80690   9.622   6.583   0.320 -2.7244 -1.9065 -0.3651
  598MOL0     H80691   9.802   6.633   0.457  0.5968 -0.7403 -0.1431
  598MOL0     H80692  10.189   6.558   0.752  1.0696  1.1006  0.0701
  598MOL0     H80693  10.436   6.584   0.775  1.0144  0.7647 -1.9064
  598MOL0     H80694  10.640   6.620   0.630  3.4674  3.3282  0.2863
  598MOL0     H80695  10.670   6.589   0.802  0.6987  0.6968 -0.5006
  598MOL0     H80696  10.876   6.481   0.765 -1.1290  0.7324  0.7086
  598MOL0     H80697  10.851   6.482   0.587 -1.2746  0.0476 -0.3978
  598MOL0     H80698  10.845   6.725   0.581 -3.8250 -3.6296  0.2584
  598MOL0     H80699  10.877   6.744   0.753 -0.7037 -0.2439 -0.6276
  598MOL0     H80700  11.066   6.596   0.559  1.4937  1.1205 -0.0489
  598MOL0     H80701  11.067   6.588   0.735 -1.5345 -1.0487  0.3281
  598MOL0     H80702  11.122   6.838   0.731  0.5529  0.8008 -0.9698
  598MOL0     H80703  11.060   6.848   0.571  0.0522 -0.5547 -0.5837
  598MOL0     H80704  11.315   6.869   0.616  2.4098 -1.4078  0.2470
  598MOL0     H80705  11.314   6.703   0.676  1.6024 -1.7625 -2.7960
  598MOL0     H80706  11.234   6.733   0.384  0.6398  1.1272 -0.1228
  598MOL0     H80707  11.281   6.593   0.481  2.2279  0.4197 -0.3759
  598MOL0     H80708  11.448   6.688   0.334  0.4242  2.1713 -0.3432
  598MOL0     H80709  11.415   6.853   0.387 -1.4037  0.3061  1.4520
  598MOL0     H80710  10.532   6.237   0.567 -1.8488 -2.3711 -0.2669
  598MOL0     H80711  10.265   6.230   0.506 -0.7954 -0.5002  2.0720
  598MOL0     H80712   9.879   6.209   0.524  1.3235  1.0307 -1.9997
  598MOL0     H80713   9.666   6.165   0.399 -2.9839  1.4579  1.6271
  598MOL0     H80714   8.176   5.740   0.114 -2.7945 -2.6862  2.0277
  598MOL0     H80715   7.950   5.727   0.133  0.8801  1.7230 -0.9551
  598MOL0     H80716   7.550   5.561  -0.141  0.7984 -0.1370  1.7052
  598MOL0     H80717   7.303   5.535  -0.142 -1.0652  0.2064  1.0117
  598MOL0     H80718   7.099   5.756   0.177  0.7647 -0.5788  0.3669
  598MOL0     H80719   6.976   5.647   0.109 -1.8564  2.3520  2.3012
  598MOL0     H80720   6.971   5.842  -0.078  1.4129 -0.8058  0.5715
  598MOL0     H80721   7.043   5.942   0.046 -0.1171 -0.4737  0.3007
  598MOL0     H80722   6.806   5.977   0.058  0.6343  1.3224  1.8432
  598MOL0     H80723   6.855   5.913   0.207  0.7052 -0.0201  0.2584
  598MOL0     H80724   6.767   5.690   0.135  1.4520  2.2802  0.1855
  598MOL0     H80725   6.643   5.818   0.104 -0.6387 -0.8160 -3.4117
  598MOL0     H80726   6.708   5.748  -0.286 -0.4158 -3.3871 -0.8216
  598MOL0     H80727   7.274   5.846   0.146 -0.9494 -1.7848 -1.4861
  598MOL0     H80728   7.595   5.872   0.259 -2.1018 -0.5924  1.7308
  598MOL0     H80729   7.549   6.006   0.155  1.5847  0.5872  1.8327
  598MOL0     H80730   7.428   5.924   0.259  0.8147 -2.0720  1.7166
  599MOL0     O80731   6.726   7.800   7.865  0.6804 -0.5392 -0.0951
  599MOL0     C80732   6.662   7.789   7.761  0.6170  1.0173  0.0093
  599MOL0     O80733   6.648   7.673   7.694 -0.3046  0.5521 -0.0394
  599MOL0     C80734   6.722   7.565   7.734 -0.0059  0.5776 -0.4907
  599MOL0     C80735   6.855   7.553   7.691  0.0371 -0.0030 -0.0749
  599MOL0     C80736   6.932   7.445   7.737  0.3051  0.0173 -0.6269
  599MOL0     C80737   6.876   7.359   7.837 -0.3183 -0.1060 -0.4500
  599MOL0     O80738   6.961   7.268   7.892  0.2858  0.2858 -0.2292
  599MOL0     C80739   6.917   7.135   7.926 -0.0740  0.6212  0.1788
  599MOL0     C80740   7.039   7.041   7.932 -0.3275 -0.3450 -0.9766
  599MOL0     C80741   6.998   6.896   7.892 -0.5860  0.1531 -0.8934
  599MOL0     C80742   7.124   6.806   7.877  1.0922 -0.3439  0.1744
  599MOL0     C80743   7.082   6.659   7.887 -0.0107 -0.7202  0.0070
  599MOL0     C80744   7.199   6.572   7.915 -0.0649  0.2537 -0.7809
  599MOL0     C80745   7.164   6.426   7.924  0.7121  0.1261 -1.0597
  599MOL0     C80746   7.142   6.359   7.786  0.0608 -0.0797 -0.2279
  599MOL0     N80747   7.244   6.383   7.683 -0.5990 -0.2396  0.3433
  599MOL0     C80748   7.357   6.300   7.658 -0.2793 -1.1780  0.3985
  599MOL0     C80749   7.425   6.371   7.563 -0.1432  0.3587  0.2618
  599MOL0     C80750   7.557   6.319   7.502  0.5931  0.0191 -0.8320
  599MOL0     C80751   7.686   6.358   7.572 -0.7742  0.0476 -0.5530
  599MOL0     C80752   7.706   6.516   7.580 -0.3571 -0.3203 -0.3162
  599MOL0     C80753   7.661   6.582   7.714 -0.1731  1.4787  0.6094
  599MOL0     O80754   7.766   6.549   7.801  0.5133 -1.2097 -0.1944
  599MOL0     C80755   7.859   6.652   7.828 -0.5329 -0.6086  0.1470
  599MOL0     C80756   7.938   6.643   7.946 -1.2018 -0.6686  0.1138
  599MOL0     C80757   8.031   6.744   7.983  0.4040  0.0587 -0.4588
  599MOL0     C80758   8.041   6.863   7.909  0.1692 -0.2647  0.3444
  599MOL0     C80759   8.123   6.974   7.955 -0.5121 -0.5283 -0.1369
  599MOL0     O80760   8.147   7.075   7.870 -0.2635  0.9977 -0.6038
  599MOL0     C80761   8.208   7.186   7.909  0.1402 -0.1435 -0.1429
  599MOL0     C80762   8.317   7.236   7.835 -0.0425  0.3768 -0.6773
  599MOL0     C80763   8.376   7.356   7.868  0.2926  0.5804  0.6079
  599MOL0     C80764   8.341   7.426   7.981  0.1111  0.3128 -0.6975
  599MOL0     O80765   8.402   7.550   8.008 -0.6163  0.0183  0.1935
  599MOL0     C80766   8.524   7.549   8.084 -0.5027 -0.5793  0.0082
  599MOL0     C80767   8.591   7.689   8.083  0.2723 -0.0172 -0.5123
  599MOL0     C80768   8.655   7.706   8.220  0.5123 -0.5059  0.1590
  599MOL0     C80769   8.730   7.835   8.244 -0.0684 -0.1974 -0.3173
  599MOL0     C80770   8.865   7.834   8.166  0.7343 -0.2358 -0.3470
  599MOL0     C80771   8.915   7.977   8.176  0.2409 -0.2075 -0.9674
  599MOL0     C80772   9.052   7.994   8.110  0.0724 -0.0840 -0.4814
  599MOL0     C80773   9.090   8.139   8.118 -0.2031 -0.7199  0.6134
  599MOL0    Cl80774   9.250   8.155   8.040 -0.4426 -0.1265 -0.0593
  599MOL0     C80775   8.245   7.375   8.062  0.3123  0.5092  0.8687
  599MOL0     C80776   8.170   7.262   8.025 -0.8468 -0.3157  0.0655
  599MOL0     O80777   8.146   6.982   8.073  0.1947  0.0997 -0.4259
  599MOL0     C80778   7.983   6.862   7.785  0.6842 -0.0466 -0.6233
  599MOL0     C80779   7.884   6.765   7.742 -0.2543  0.6912 -0.4849
  599MOL0     N80780   7.372   6.497   7.550 -0.5598 -0.7381 -0.2834
  599MOL0     N80781   7.261   6.503   7.615 -0.2773 -0.5442 -0.0317
  599MOL0     C80782   6.743   7.376   7.887  0.3171 -0.2280  0.0920
  599MOL0     C80783   6.663   7.475   7.827 -0.3317  0.0982 -0.3443
  599MOL0     C80784   6.577   7.896   7.726 -0.2270 -0.5484 -0.1951
  599MOL0     C80785   6.432   7.903   7.762 -0.0042  0.3754  0.8962
  599MOL0     C80786   6.352   8.013   7.730 -0.2204 -0.3096 -0.4943
  599MOL0     C80787   6.402   8.121   7.664 -1.2001 -0.1146 -0.2150
  599MOL0     O80788   6.341   8.242   7.650 -0.8942 -0.3588 -0.1790
  599MOL0     C80789   6.217   8.262   7.721  0.4037  0.0212  0.4657
  599MOL0     C80790   6.160   8.397   7.684 -0.2757 -0.2929 -0.9734
  599MOL0     C80791   6.034   8.429   7.772 -1.0743 -0.7631 -0.2662
  599MOL0     C80792   5.987   8.565   7.722 -0.0064  0.0423  0.0922
  599MOL0     C80793   5.836   8.573   7.754  0.2998  0.6161  1.2197
  599MOL0     C80794   5.716   8.582   7.782  1.5747  0.0128 -0.0709
  599MOL0     C80795   6.539   8.115   7.631  0.5179 -0.0824 -0.1495
  599MOL0     C80796   6.630   8.009   7.654  0.7569  1.8379  0.1380
  599MOL0     C80797   6.768   8.012   7.602 -0.1724  0.2688 -0.1305
  599MOL0     H80798   6.897   7.627   7.624  1.5780  1.0890  1.9658
  599MOL0     H80799   7.027   7.415   7.694 -1.4480 -3.3425 -2.6405
  599MOL0     H80800   6.861   7.126   8.019  1.1935  1.7580  1.0833
  599MOL0     H80801   6.844   7.098   7.853  1.4896 -2.3681 -0.0259
  599MOL0     H80802   7.083   7.044   8.033  0.8067 -0.5926 -1.4514
  599MOL0     H80803   7.110   7.078   7.859  1.9326  0.5175  1.4861
  599MOL0     H80804   6.951   6.902   7.793 -0.8107 -0.0644 -0.7996
  599MOL0     H80805   6.931   6.850   7.965 -0.1874 -0.5970 -0.9949
  599MOL0     H80806   7.186   6.827   7.789  0.1967 -0.5632 -0.5232
  599MOL0     H80807   7.187   6.838   7.960  0.4187  1.3505  0.0824
  599MOL0     H80808   7.010   6.652   7.969 -0.2894  2.2556  0.1196
  599MOL0     H80809   7.036   6.629   7.792 -0.1445  1.8422 -0.8170
  599MOL0     H80810   7.289   6.581   7.854  1.3451 -2.3339  0.7665
  599MOL0     H80811   7.234   6.606   8.012 -2.9674  0.3981  0.3359
  599MOL0     H80812   7.076   6.423   7.990  2.8579 -1.2158  1.9922
  599MOL0     H80813   7.248   6.380   7.978 -1.7800 -1.8640  1.4632
  599MOL0     H80814   7.131   6.251   7.803 -0.9831  0.3431  2.1327
  599MOL0     H80815   7.047   6.390   7.740 -0.2596 -1.7767 -0.7896
  599MOL0     H80816   7.384   6.200   7.689  3.3013 -0.1261  1.0759
  599MOL0     H80817   7.560   6.211   7.482  3.1464 -0.4885  1.5924
  599MOL0     H80818   7.556   6.368   7.404  0.0954  0.0622 -0.8073
  599MOL0     H80819   7.699   6.310   7.670 -0.2350 -0.2371 -0.7576
  599MOL0     H80820   7.766   6.324   7.506  0.0354  2.2736 -0.7850
  599MOL0     H80821   7.634   6.550   7.504 -2.3554 -5.7982 -1.3150
  599MOL0     H80822   7.805   6.545   7.542 -1.0555  2.3881 -0.3150
  599MOL0     H80823   7.565   6.545   7.752  0.0253  0.9753  0.6271
  599MOL0     H80824   7.645   6.686   7.686 -0.3072  0.6819 -2.7433
  599MOL0     H80825   7.927   6.551   8.002 -0.9635 -1.5540 -1.2458
  599MOL0     H80826   8.084   6.726   8.076 -0.3355 -1.7794 -0.3537
  599MOL0     H80827   8.340   7.185   7.741 -2.8032  0.9990 -1.7980
  599MOL0     H80828   8.457   7.382   7.801  0.9080  1.6536  1.7301
  599MOL0     H80829   8.502   7.515   8.186  1.3655  2.8069  1.7175
  599MOL0     H80830   8.591   7.476   8.038 -0.8836 -1.7376  1.2247
  599MOL0     H80831   8.656   7.711   7.998  2.0557 -2.7481  0.0071
  599MOL0     H80832   8.508   7.761   8.086  0.5930  0.3245  0.4386
  599MOL0     H80833   8.575   7.710   8.294 -0.1230 -0.6702 -0.5156
  599MOL0     H80834   8.728   7.625   8.238  1.7285  0.3687 -0.6583
  599MOL0     H80835   8.753   7.853   8.349  1.2887  1.6106 -0.8838
  599MOL0     H80836   8.662   7.912   8.207 -0.7634  0.1964  1.6348
  599MOL0     H80837   8.859   7.814   8.059  0.5007  2.2256 -0.8587
  599MOL0     H80838   8.935   7.766   8.215  0.5346  0.4366  0.9117
  599MOL0     H80839   8.840   8.044   8.134  0.3580  0.0018 -0.8501
  599MOL0     H80840   8.929   7.982   8.285 -2.1816  0.0619 -0.6112
  599MOL0     H80841   9.046   7.955   8.008  1.0828  1.8917 -1.3499
  599MOL0     H80842   9.133   7.946   8.166 -1.3956 -2.0636  0.0415
  599MOL0     H80843   9.020   8.210   8.074  0.6402 -1.5329 -2.2682
  599MOL0     H80844   9.105   8.162   8.224 -2.3788  2.4343  0.3776
  599MOL0     H80845   8.209   7.437   8.144  1.0740  0.2741  1.4007
  599MOL0     H80846   8.086   7.230   8.086 -0.6480  0.6732  0.8771
  599MOL0     H80847   7.994   6.940   7.711  2.2043  0.0963 -0.2751
  599MOL0     H80848   7.824   6.787   7.654 -1.5113  1.1410  0.4644
  599MOL0     H80849   6.713   7.325   7.978  0.7212  1.8201  1.4320
  599MOL0     H80850   6.562   7.499   7.860 -0.5424 -0.1260 -0.8262
  599MOL0     H80851   6.392   7.821   7.821 -0.8703 -3.8362 -4.6954
  599MOL0     H80852   6.250   8.019   7.766  0.5568  3.8387  1.6338
  599MOL0     H80853   6.236   8.253   7.828  2.9374  0.3435  0.1026
  599MOL0     H80854   6.152   8.179   7.692 -0.1601 -0.6059  3.2067
  599MOL0     H80855   6.141   8.389   7.577 -0.7243 -0.4650 -0.8801
  599MOL0     H80856   6.244   8.468   7.689 -0.6938  0.1137  0.9409
  599MOL0     H80857   6.065   8.436   7.877  2.0762 -1.5776 -1.0473
  599MOL0     H80858   5.960   8.348   7.779 -2.5099  0.5640  0.4131
  599MOL0     H80859   6.048   8.643   7.768 -4.3577  3.6583  0.4318
  599MOL0     H80860   5.986   8.563   7.613 -0.3261  0.3698  0.0853
  599MOL0     H80861   5.611   8.591   7.802  1.4407 -1.9131  0.2314
  599MOL0     H80862   6.584   8.205   7.589  1.5561  0.3935  1.8411
  599MOL0     H80863   6.815   8.110   7.610  2.4420 -0.9917  1.8547
  599MOL0     H80864   6.834   7.947   7.661  1.8082  1.1628 -1.2415
  599MOL0     H80865   6.765   7.979   7.498 -2.5006 -2.2167  0.6018
  600MOL0     O80866   5.286   1.349   2.506  0.1804 -0.0178  0.2898
  600MOL0     C80867   5.194   1.272   2.500 -0.3424 -0.7783  0.3688
  600MOL0     O80868   5.207   1.139   2.493  0.1705  0.2111 -0.5001
  600MOL0     C80869   5.309   1.079   2.560 -0.2530  0.1946  0.2100
  600MOL0     C80870   5.352   0.952   2.513  0.4151 -0.1533 -0.6170
  600MOL0     C80871   5.443   0.880   2.582 -0.5955 -0.0759 -0.2115
  600MOL0     C80872   5.495   0.920   2.707 -0.4996  0.3801 -0.5611
  600MOL0     O80873   5.577   0.856   2.796  0.0527  0.2812  0.4754
  600MOL0     C80874   5.616   0.720   2.766  0.4563  0.3984  0.1760
  600MOL0     C80875   5.736   0.682   2.858 -0.4650  0.7209 -0.2591
  600MOL0     C80876   5.807   0.556   2.805 -0.1312 -0.4508  0.0557
  600MOL0     C80877   5.927   0.519   2.886 -0.1834  0.2484  1.2707
  600MOL0     C80878   6.025   0.428   2.815 -0.8875  2.0472  0.3344
  600MOL0     C80879   5.968   0.283   2.791  0.7852  0.2783  0.1202
  600MOL0     C80880   6.084   0.189   2.752 -0.5676  0.1310 -1.5194
  600MOL0     C80881   6.049   0.041   2.754 -0.1761  0.0470  0.8802
  600MOL0     N80882   6.159  -0.046   2.733  0.0985  0.0599  0.3467
  600MOL0     C80883   6.219  -0.071   2.608  0.1324  0.8435  0.2690
  600MOL0     C80884   6.324  -0.158   2.633  0.0562 -0.6841 -0.5372
  600MOL0     C80885   6.409  -0.227   2.537 -0.3002 -0.8184 -0.1964
  600MOL0     C80886   6.530  -0.152   2.494 -0.0254 -1.3089 -0.6475
  600MOL0     C80887   6.633  -0.142   2.605 -0.8144  0.0930 -0.8675
  600MOL0     C80888   6.740  -0.029   2.582 -0.4045 -0.4115  0.3215
  600MOL0     O80889   6.843  -0.091   2.496  0.2804 -0.0487 -0.0824
  600MOL0     C80890   6.965  -0.134   2.535  0.1494 -0.9166 -0.4316
  600MOL0     C80891   7.055  -0.177   2.440  0.0912 -0.7007 -0.4164
  600MOL0     C80892   7.191  -0.193   2.467  0.0360  0.7594 -0.0851
  600MOL0     C80893   7.238  -0.190   2.600 -0.1918 -0.4741 -0.4826
  600MOL0     C80894   7.380  -0.220   2.633  0.4239 -0.3542  0.5987
  600MOL0     O80895   7.404  -0.224   2.764  0.2471 -0.0340  0.3586
  600MOL0     C80896   7.531  -0.210   2.804 -0.0474  0.7036  0.1385
  600MOL0     C80897   7.619  -0.105   2.767  0.3166 -0.4420 -0.4982
  600MOL0     C80898   7.743  -0.090   2.832  0.2741 -0.2927  0.1125
  600MOL0     C80899   7.790  -0.183   2.925  0.4978  0.2986  0.2942
  600MOL0     O80900   7.899  -0.173   3.006 -0.0649 -0.6108  0.2704
  600MOL0     C80901   7.937  -0.038   3.036  0.4883  0.0635  0.2580
  600MOL0     C80902   8.075  -0.032   3.109  0.4774  0.5134  0.4983
  600MOL0     C80903   8.195  -0.144   3.087 -0.1410 -0.1313 -0.5117
  600MOL0     C80904   8.296  -0.119   3.201  0.4169 -0.1671  0.6537
  600MOL0     C80905   8.415  -0.222   3.189  0.0712  0.3338 -0.6946
  600MOL0     C80906   8.474  -0.235   3.054 -0.6408  0.0538  0.7105
  600MOL0     C80907   8.614  -0.293   3.063 -0.7781  0.3257  0.8320
  600MOL0     C80908   8.639  -0.427   3.136 -0.2849 -0.2680  0.5445
  600MOL0    Cl80909   8.800  -0.478   3.108 -0.0837 -0.2710 -0.1726
  600MOL0     C80910   7.704  -0.294   2.949 -0.4608 -0.7535  0.1206
  600MOL0     C80911   7.579  -0.309   2.893 -0.0650 -0.2451 -0.6629
  600MOL0     O80912   7.457  -0.237   2.548 -0.2931  0.4466 -0.0173
  600MOL0     C80913   7.143  -0.163   2.701 -0.3839 -0.4224  0.1596
  600MOL0     C80914   7.011  -0.127   2.665  0.4237 -0.7633  0.5522
  600MOL0     N80915   6.317  -0.183   2.771  0.1128 -0.2897  0.1673
  600MOL0     N80916   6.212  -0.129   2.826  0.6207  0.2343  0.5899
  600MOL0     C80917   5.463   1.050   2.750  0.0780  0.3401  0.3606
  600MOL0     C80918   5.374   1.129   2.676  0.5072  0.5285  0.2021
  600MOL0     C80919   5.062   1.329   2.480 -0.0453 -0.6746 -0.5639
  600MOL0     C80920   5.050   1.410   2.372 -0.6290  0.7298 -0.3890
  600MOL0     C80921   4.928   1.468   2.334 -0.6400  0.3533  0.7164
  600MOL0     C80922   4.814   1.440   2.406  0.7850 -0.5035  0.4790
  600MOL0     O80923   4.694   1.496   2.367 -0.0221 -0.5119  0.5221
  600MOL0     C80924   4.565   1.446   2.413 -0.3834  0.3331  0.5686
  600MOL0     C80925   4.460   1.520   2.334  0.2610  0.4215 -0.0557
  600MOL0     C80926   4.402   1.654   2.394  0.4965 -0.2575 -0.1326
  600MOL0     C80927   4.268   1.636   2.473 -0.3620  0.6463  0.9382
  600MOL0     C80928   4.285   1.555   2.590 -0.4550 -0.5797  0.1750
  600MOL0     C80929   4.313   1.463   2.672  0.5588 -0.5132  0.2308
  600MOL0     C80930   4.829   1.369   2.526  0.6806  0.6739  0.2375
  600MOL0     C80931   4.949   1.307   2.556  0.7817  0.6508  0.5033
  600MOL0     C80932   4.955   1.214   2.678 -0.1982  0.2633 -0.1804
  600MOL0     H80933   5.298   0.905   2.432 -2.7354  0.5929  0.8947
  600MOL0     H80934   5.482   0.789   2.537 -0.0191 -0.2012  0.5226
  600MOL0     H80935   5.536   0.647   2.786 -0.5200  1.6078  0.7847
  600MOL0     H80936   5.640   0.705   2.660  1.2141  1.9980  0.0914
  600MOL0     H80937   5.718   0.661   2.964 -1.9086 -0.7594 -0.7400
  600MOL0     H80938   5.806   0.765   2.853 -3.3688  3.3069 -1.7805
  600MOL0     H80939   5.834   0.579   2.702 -0.5753  2.9073  0.5713
  600MOL0     H80940   5.748   0.464   2.811 -0.3337 -0.3297 -0.0668
  600MOL0     H80941   5.967   0.613   2.927 -2.0115 -0.5847  5.5062
  600MOL0     H80942   5.908   0.468   2.981  0.0547  0.0345  1.2070
  600MOL0     H80943   6.041   0.459   2.712 -2.7715 -0.1244 -0.7096
  600MOL0     H80944   6.117   0.415   2.873 -2.3635 -0.7368  2.2816
  600MOL0     H80945   5.926   0.252   2.887 -1.7567 -2.0893 -1.5899
  600MOL0     H80946   5.884   0.273   2.722 -0.2100  0.5742  1.2597
  600MOL0     H80947   6.170   0.205   2.818 -2.3791 -2.1103  1.6682
  600MOL0     H80948   6.104   0.215   2.647  0.6993  2.4624 -0.7730
  600MOL0     H80949   6.012   0.020   2.855 -1.8383 -0.2498  0.2392
  600MOL0     H80950   5.966   0.015   2.688 -0.1996  0.8866  0.5598
  600MOL0     H80951   6.197  -0.024   2.513 -1.1678  1.7269  0.9681
  600MOL0     H80952   6.440  -0.321   2.584  0.4288 -2.1633 -3.1334
  600MOL0     H80953   6.350  -0.254   2.448 -3.3211 -1.5422  1.8736
  600MOL0     H80954   6.575  -0.204   2.409 -2.6684  0.7331 -3.5166
  600MOL0     H80955   6.499  -0.054   2.458  2.6032  0.2621  1.0945
  600MOL0     H80956   6.671  -0.243   2.621 -0.8424  0.3859  1.4320
  600MOL0     H80957   6.585  -0.118   2.701  2.4820  1.5297  0.5898
  600MOL0     H80958   6.772   0.021   2.674  1.2846 -2.9905  1.2450
  600MOL0     H80959   6.691   0.051   2.526  0.3714 -1.7146 -2.3842
  600MOL0     H80960   7.021  -0.174   2.337  2.9497  1.3104 -1.4321
  600MOL0     H80961   7.267  -0.217   2.393  1.1560  1.2339  0.8919
  600MOL0     H80962   7.598  -0.027   2.694  0.3740 -0.2627 -0.3211
  600MOL0     H80963   7.803  -0.002   2.809  2.6692 -1.7972  0.2366
  600MOL0     H80964   7.956   0.013   2.941 -1.2848  0.7132  0.2172
  600MOL0     H80965   7.863   0.011   3.100  0.0468 -0.1621 -0.0737
  600MOL0     H80966   8.121   0.066   3.092  3.8403 -1.1557 -0.7694
  600MOL0     H80967   8.040  -0.035   3.213 -0.0357  0.6946  0.3330
  600MOL0     H80968   8.159  -0.245   3.110  1.8710 -0.8125 -0.1315
  600MOL0     H80969   8.232  -0.133   2.985 -0.9967 -0.8641 -0.9101
  600MOL0     H80970   8.256  -0.116   3.303  1.3185  2.5316  1.0255
  600MOL0     H80971   8.335  -0.017   3.187  3.8490 -0.7320  4.2829
  600MOL0     H80972   8.376  -0.320   3.218 -2.3999  1.4212 -0.0873
  600MOL0     H80973   8.494  -0.178   3.250 -1.0560  1.8996 -0.3036
  600MOL0     H80974   8.412  -0.291   2.983  2.7422 -2.2616 -0.7134
  600MOL0     H80975   8.479  -0.135   3.011 -0.0707  1.0279  2.9245
  600MOL0     H80976   8.684  -0.225   3.112  0.3861 -1.6559  2.0836
  600MOL0     H80977   8.658  -0.300   2.963 -0.6768  1.8635  0.7468
  600MOL0     H80978   8.630  -0.411   3.244 -0.7510  2.1987  0.1934
  600MOL0     H80979   8.570  -0.499   3.092  1.5546 -1.6822 -0.1914
  600MOL0     H80980   7.744  -0.365   3.020  1.6258 -0.6782 -0.8991
  600MOL0     H80981   7.512  -0.390   2.918  1.5508 -0.8219  2.1901
  600MOL0     H80982   7.171  -0.182   2.804  0.6113 -1.7911 -0.3398
  600MOL0     H80983   6.940  -0.105   2.743  0.0937  0.6866 -0.1122
  600MOL0     H80984   5.497   1.078   2.849  0.0535  1.1182  0.1530
  600MOL0     H80985   5.339   1.222   2.720 -1.9660 -1.5707  3.1148
  600MOL0     H80986   5.136   1.430   2.310  0.8716 -0.1728  1.3266
  600MOL0     H80987   4.928   1.517   2.237 -3.2269 -0.6661  0.1036
  600MOL0     H80988   4.557   1.472   2.519  2.4445 -0.2277  0.9931
  600MOL0     H80989   4.551   1.339   2.397 -4.0643  0.2463  3.0396
  600MOL0     H80990   4.371   1.458   2.323 -1.1538  1.9978  1.8300
  600MOL0     H80991   4.500   1.537   2.234  2.2495 -1.1206  0.4046
  600MOL0     H80992   4.389   1.726   2.313  0.3767 -1.0989 -0.8754
  600MOL0     H80993   4.488   1.691   2.451  1.3226  0.5069 -1.8224
  600MOL0     H80994   4.240   1.737   2.503 -2.3066  1.0685 -1.8566
  600MOL0     H80995   4.188   1.605   2.405  0.2300  1.4132 -0.1404
  600MOL0     H80996   4.337   1.379   2.735  0.5649 -0.2032  0.6495
  600MOL0     H80997   4.738   1.368   2.586 -0.3391  1.4657 -1.2404
  600MOL0     H80998   4.925   1.115   2.644 -2.2234  0.8246 -0.1361
  600MOL0     H80999   5.054   1.215   2.724 -0.7747 -0.5965  1.1098
  600MOL0     H81000   4.886   1.247   2.756  0.0172  1.1000 -0.3278
  601MOL0     O81001   4.860   6.668   2.771 -0.1612 -0.1017 -0.2600
  601MOL0     C81002   4.815   6.586   2.848 -0.6320  0.2996  0.3175
  601MOL0     O81003   4.882   6.475   2.901 -0.2026  0.3360 -0.0202
  601MOL0     C81004   5.004   6.442   2.855 -0.2810  1.0523 -0.7071
  601MOL0     C81005   5.036   6.303   2.830  0.0020  0.5957 -0.9278
  601MOL0     C81006   5.165   6.269   2.796  0.6243  0.7830  0.3968
  601MOL0     C81007   5.264   6.359   2.762  0.2687 -0.4616  0.0307
  601MOL0     O81008   5.384   6.332   2.723 -0.6838 -0.0220  0.1071
  601MOL0     C81009   5.386   6.236   2.616 -0.2190 -0.7778  0.3720
  601MOL0     C81010   5.528   6.199   2.595  0.0805 -1.0104  0.7568
  601MOL0     C81011   5.541   6.122   2.460 -0.6185  1.4267 -1.0846
  601MOL0     C81012   5.668   6.046   2.457 -0.7739 -0.4248  0.8620
  601MOL0     C81013   5.797   6.147   2.438 -0.2097  0.4240 -0.2257
  601MOL0     C81014   5.916   6.052   2.394  0.1291 -0.2216  0.1204
  601MOL0     C81015   6.047   6.129   2.368  0.3865  0.2243 -0.4491
  601MOL0     C81016   6.165   6.032   2.346 -0.2432  0.7154 -0.3177
  601MOL0     N81017   6.274   6.075   2.266  0.5266 -1.2579  0.5911
  601MOL0     C81018   6.299   6.030   2.136 -0.0542  0.7341  0.4912
  601MOL0     C81019   6.376   6.129   2.080  0.0485  0.7392 -0.2718
  601MOL0     C81020   6.428   6.145   1.938 -0.4100  0.0957  0.2076
  601MOL0     C81021   6.574   6.165   1.934  0.4002  0.3980 -0.6061
  601MOL0     C81022   6.617   6.190   1.791  0.3800  0.2256  0.5376
  601MOL0     C81023   6.767   6.235   1.789  0.2219 -0.4620  0.3008
  601MOL0     O81024   6.813   6.203   1.661 -0.3096  0.3013  0.2533
  601MOL0     C81025   6.949   6.195   1.622  0.1954 -0.4264 -0.4869
  601MOL0     C81026   6.973   6.226   1.491  0.2241 -0.6216 -0.3559
  601MOL0     C81027   7.101   6.215   1.444 -0.2013 -0.0714  0.6061
  601MOL0     C81028   7.217   6.183   1.523  0.3367  0.3447 -0.6524
  601MOL0     C81029   7.347   6.191   1.463  0.0039  0.9330 -0.4542
  601MOL0     O81030   7.374   6.234   1.337 -0.8340 -0.6643 -0.0825
  601MOL0     C81031   7.494   6.198   1.272 -0.3353 -0.7484  0.8892
  601MOL0     C81032   7.568   6.080   1.295 -0.5459 -0.0315 -0.8334
  601MOL0     C81033   7.690   6.062   1.223  0.1795  0.2117 -0.4431
  601MOL0     C81034   7.734   6.155   1.131  0.4268 -0.4055  0.0232
  601MOL0     O81035   7.843   6.132   1.055  0.6901  0.3454 -0.1270
  601MOL0     C81036   7.925   6.020   1.102 -0.2153  0.4374  0.8667
  601MOL0     C81037   8.041   6.008   1.025  0.5744  0.0913  0.5230
  601MOL0     C81038   8.150   5.930   1.103  0.0876  0.2286  1.3345
  601MOL0     C81039   8.286   5.959   1.048  0.4160 -0.4740  0.9858
  601MOL0     C81040   8.383   5.847   1.080 -0.1692 -0.2976 -0.7860
  601MOL0     C81041   8.523   5.858   1.012  0.8659 -0.2708  0.6173
  601MOL0     C81042   8.627   5.758   1.087  0.3220  0.5639  0.2433
  601MOL0     C81043   8.777   5.762   1.041 -0.4427 -0.4996  0.0161
  601MOL0    Cl81044   8.798   5.676   0.880  0.5746 -0.1826 -0.1801
  601MOL0     C81045   7.655   6.268   1.104 -0.4075  0.2282  0.4160
  601MOL0     C81046   7.544   6.296   1.176 -0.5201 -0.5117  0.6476
  601MOL0     O81047   7.438   6.164   1.550  0.8083 -0.0301  0.0118
  601MOL0     C81048   7.189   6.175   1.664 -0.4976 -0.1538  0.0086
  601MOL0     C81049   7.058   6.175   1.716  0.1711  0.4962  0.3792
  601MOL0     N81050   6.402   6.228   2.172 -0.0909  0.0247 -0.1658
  601MOL0     N81051   6.334   6.197   2.279 -0.7210  0.3591 -0.5776
  601MOL0     C81052   5.240   6.495   2.793  0.1870  0.0360  0.2314
  601MOL0     C81053   5.110   6.532   2.844  0.2695 -0.2398  0.5935
  601MOL0     C81054   4.684   6.614   2.910  0.3234  0.0273 -0.4040
  601MOL0     C81055   4.583   6.684   2.846 -0.8682 -1.0754  0.6947
  601MOL0     C81056   4.456   6.717   2.900 -0.6571  0.1581  0.1749
  601MOL0     C81057   4.439   6.686   3.030  0.5048  0.2165 -0.5387
  601MOL0     O81058   4.309   6.731   3.072 -0.0529  0.3787  0.1096
  601MOL0     C81059   4.276   6.705   3.213  0.5983  0.1247 -0.7397
  601MOL0     C81060   4.143   6.771   3.232 -0.2743  0.2502 -0.4706
  601MOL0     C81061   4.027   6.680   3.169 -0.8301 -0.0806 -0.1428
  601MOL0     C81062   3.889   6.722   3.182  0.7349 -0.1608 -0.1067
  601MOL0     C81063   3.837   6.696   3.321  0.8519 -0.1738 -1.2005
  601MOL0     C81064   3.812   6.700   3.443 -1.0965 -0.0143 -0.0815
  601MOL0     C81065   4.541   6.638   3.113 -0.2162 -0.1414  0.7597
  601MOL0     C81066   4.666   6.592   3.048  0.8406  0.2656 -0.1248
  601MOL0     C81067   4.759   6.527   3.134 -0.1720  0.2278  0.7766
  601MOL0     H81068   4.964   6.227   2.859 -2.2096  3.0734  0.4114
  601MOL0     H81069   5.182   6.163   2.778 -2.4181  0.5927 -2.3591
  601MOL0     H81070   5.346   6.142   2.654  2.5005 -1.7716  0.9685
  601MOL0     H81071   5.332   6.267   2.526  0.1381 -1.9176 -0.2546
  601MOL0     H81072   5.558   6.140   2.681  0.2099 -3.7693 -1.0712
  601MOL0     H81073   5.595   6.285   2.597 -0.2502 -0.7368  3.4684
  601MOL0     H81074   5.535   6.192   2.376  0.3251  0.9593 -1.5475
  601MOL0     H81075   5.458   6.051   2.452  1.1919 -0.6920 -1.8815
  601MOL0     H81076   5.685   5.992   2.551  4.0566 -1.2677 -0.2274
  601MOL0     H81077   5.672   5.978   2.371 -0.4573 -0.4558  0.8994
  601MOL0     H81078   5.773   6.218   2.358 -3.5851 -0.4927 -0.1640
  601MOL0     H81079   5.826   6.204   2.526 -0.9253  2.0745 -1.0200
  601MOL0     H81080   5.942   5.970   2.462 -4.3480 -4.5292 -2.7290
  601MOL0     H81081   5.891   5.994   2.305  2.2660 -0.5369 -0.3300
  601MOL0     H81082   6.066   6.196   2.453 -0.5377  1.2573 -1.0235
  601MOL0     H81083   6.039   6.190   2.277  2.0216  0.4043 -0.5049
  601MOL0     H81084   6.212   6.016   2.444  0.4290  0.6161 -0.6567
  601MOL0     H81085   6.127   5.935   2.313 -0.8264  0.3202  1.3875
  601MOL0     H81086   6.268   5.932   2.099  2.7597 -0.8195  1.9590
  601MOL0     H81087   6.403   6.056   1.880 -1.9720  0.5913  0.0672
  601MOL0     H81088   6.383   6.230   1.887  2.2105 -0.2237 -2.9468
  601MOL0     H81089   6.592   6.260   1.984  0.4714  0.4152 -0.6658
  601MOL0     H81090   6.627   6.081   1.982 -2.8566 -2.2602 -1.3056
  601MOL0     H81091   6.556   6.261   1.734 -0.3342 -0.4920  0.3813
  601MOL0     H81092   6.585   6.103   1.733 -3.3585  2.3116 -0.9459
  601MOL0     H81093   6.823   6.177   1.863  0.4704 -3.1042 -1.7905
  601MOL0     H81094   6.773   6.343   1.805  0.6916 -0.7793  2.5072
  601MOL0     H81095   6.898   6.256   1.419 -0.9112 -1.5714  0.3911
  601MOL0     H81096   7.129   6.236   1.341  1.4373  1.4648  1.2917
  601MOL0     H81097   7.535   6.004   1.365 -2.0096 -0.9507 -2.4608
  601MOL0     H81098   7.746   5.973   1.249 -0.4600 -0.0502  0.0648
  601MOL0     H81099   7.946   6.039   1.208  0.5338  2.6865  0.3655
  601MOL0     H81100   7.870   5.926   1.099 -1.6258  1.2260  1.3715
  601MOL0     H81101   7.999   5.969   0.932  1.6502  0.3985 -0.1092
  601MOL0     H81102   8.090   6.105   1.009 -1.0586  0.8254 -0.2928
  601MOL0     H81103   8.156   5.951   1.210 -1.7790 -0.5510  1.6400
  601MOL0     H81104   8.120   5.825   1.091  0.7045  0.0984  0.8632
  601MOL0     H81105   8.315   6.052   1.097  1.6206  0.6944 -1.7581
  601MOL0     H81106   8.292   5.972   0.939 -0.0158  3.7071  1.3029
  601MOL0     H81107   8.341   5.751   1.049 -0.3774  0.0220 -1.5100
  601MOL0     H81108   8.394   5.846   1.189 -2.6620 -0.1794 -0.4853
  601MOL0     H81109   8.515   5.836   0.905  0.7601  1.1692  0.3022
  601MOL0     H81110   8.565   5.960   1.017  0.3081 -0.0678  1.4402
  601MOL0     H81111   8.593   5.654   1.079  0.0062  0.5407  1.7130
  601MOL0     H81112   8.624   5.787   1.192 -3.4171 -1.5800  0.9139
  601MOL0     H81113   8.806   5.867   1.048 -2.1817  0.0455 -0.3952
  601MOL0     H81114   8.839   5.711   1.115 -0.3867  1.3754  1.3243
  601MOL0     H81115   7.679   6.338   1.025  0.2706  0.7914  1.1041
  601MOL0     H81116   7.486   6.385   1.155  0.7492  0.5027  1.2865
  601MOL0     H81117   7.268   6.181   1.738 -0.9429 -0.7794  0.5372
  601MOL0     H81118   7.041   6.164   1.822  1.5326 -0.3687  0.5390
  601MOL0     H81119   5.319   6.569   2.781  0.1754 -0.0509 -0.4298
  601MOL0     H81120   5.100   6.639   2.860 -0.4375 -0.2610  0.3390
  601MOL0     H81121   4.595   6.711   2.742 -1.9816  2.9101  1.4240
  601MOL0     H81122   4.375   6.764   2.845 -0.9456  0.2556  0.6812
  601MOL0     H81123   4.355   6.743   3.278  0.5906 -0.8639 -0.1243
  601MOL0     H81124   4.285   6.600   3.243  4.1358  0.9842  1.8820
  601MOL0     H81125   4.133   6.872   3.190 -0.9012  0.3001 -0.2226
  601MOL0     H81126   4.122   6.786   3.338  1.8504  0.8226 -0.0990
  601MOL0     H81127   4.037   6.584   3.221  1.4877  0.0871 -0.1811
  601MOL0     H81128   4.052   6.668   3.063 -0.6833 -0.5273 -0.0616
  601MOL0     H81129   3.887   6.832   3.179  0.8215 -0.0866  1.4999
  601MOL0     H81130   3.819   6.687   3.106 -3.2211  3.0735  1.6421
  601MOL0     H81131   3.782   6.694   3.546  1.3849 -2.5161  0.6347
  601MOL0     H81132   4.516   6.627   3.218 -0.4220 -2.2488  0.5458
  601MOL0     H81133   4.780   6.424   3.104 -2.3486 -0.2669  0.7322
  601MOL0     H81134   4.852   6.581   3.119 -1.1703  1.4775 -1.3723
  601MOL0     H81135   4.725   6.524   3.238  1.6695 -0.8477  1.3825
  602MOL0     O81136  11.040   0.172   6.073  0.5064 -0.6978  0.2751
  602MOL0     C81137  10.978   0.254   6.134  0.7107  0.8029  0.6867
  602MOL0     O81138  11.023   0.375   6.165 -0.1458  0.2582 -0.0979
  602MOL0     C81139  11.149   0.424   6.137 -0.2487  0.2792  1.3199
  602MOL0     C81140  11.194   0.430   6.008 -0.2616  0.3650  0.3648
  602MOL0     C81141  11.329   0.480   5.987  0.4331  0.0661 -0.3004
  602MOL0     C81142  11.416   0.506   6.095  0.2165 -0.7913  0.7133
  602MOL0     O81143  11.548   0.553   6.076  0.4198 -0.4146 -0.1279
  602MOL0     C81144  11.620   0.495   5.967 -0.0067  0.0223  0.2838
  602MOL0     C81145  11.770   0.533   5.973 -0.0550 -0.3500 -0.7181
  602MOL0     C81146  11.865   0.407   5.979  0.2163  0.0162 -0.9383
  602MOL0     C81147  11.855   0.318   5.864  1.1268 -0.3632 -0.7371
  602MOL0     C81148  11.992   0.280   5.812  0.4873  0.4100 -0.3651
  602MOL0     C81149  12.063   0.377   5.723 -0.2632  0.1391  0.1410
  602MOL0     C81150  12.194   0.315   5.675 -0.2174  0.5246  0.0395
  602MOL0     C81151  12.274   0.412   5.579  0.2596 -0.4289  0.8395
  602MOL0     N81152  12.411   0.349   5.559  0.5248  0.2635  0.3840
  602MOL0     C81153  12.442   0.245   5.473  0.2737  0.5003  0.0989
  602MOL0     C81154  12.574   0.232   5.478 -0.1079  0.3279  0.3841
  602MOL0     C81155  12.654   0.115   5.423  0.6368 -0.2082 -0.0534
  602MOL0     C81156  12.721   0.143   5.284  0.2943  0.3079  0.3442
  602MOL0     C81157  12.773   0.287   5.256 -0.2047 -0.1458 -0.6621
  602MOL0     C81158  12.892   0.330   5.353  0.0724 -0.2084 -0.8071
  602MOL0     O81159  13.002   0.257   5.305  0.1716 -0.4509  0.4215
  602MOL0     C81160  13.124   0.266   5.360  0.0736  0.1388  0.4897
  602MOL0     C81161  13.221   0.185   5.306 -0.6903  0.1372  0.0777
  602MOL0     C81162  13.351   0.178   5.356  0.5305 -0.2791  1.0721
  602MOL0     C81163  13.377   0.263   5.465  0.4348  0.4851 -0.4260
  602MOL0     C81164  13.515   0.264   5.510 -1.1463  0.5048  0.4023
  602MOL0     O81165  13.601   0.161   5.465  0.5235  0.0624  0.1916
  602MOL0     C81166  13.736   0.161   5.495  0.3501 -0.1558  0.9393
  602MOL0     C81167  13.811   0.241   5.586 -0.6154 -0.0754 -0.0796
  602MOL0     C81168  13.950   0.224   5.597  0.0707 -0.0735  0.3057
  602MOL0     C81169  14.011   0.115   5.527 -0.1759 -0.4844 -0.1705
  602MOL0     O81170  14.143   0.088   5.542 -0.1290 -0.4650 -0.1150
  602MOL0     C81171  14.237   0.183   5.606 -0.3988  0.0870  0.8336
  602MOL0     C81172  14.385   0.157   5.601 -0.2151 -0.1575 -0.0868
  602MOL0     C81173  14.428   0.017   5.647  0.3133  0.0987 -0.2246
  602MOL0     C81174  14.580   0.006   5.664  0.0929 -0.3674 -0.1514
  602MOL0     C81175  14.662   0.012   5.534 -1.0769  0.1538  0.0968
  602MOL0     C81176  14.736   0.144   5.530 -1.0003  0.3350 -0.2686
  602MOL0     C81177  14.843   0.137   5.418  0.1197  0.7150 -0.3159
  602MOL0     C81178  14.875   0.278   5.373  0.3181 -0.2966 -0.8986
  602MOL0    Cl81179  14.982   0.344   5.496 -0.3035  0.2587 -0.1136
  602MOL0     C81180  13.940   0.036   5.440  0.1547 -0.2197  0.6219
  602MOL0     C81181  13.800   0.060   5.419 -0.2215  0.2755 -0.8168
  602MOL0     O81182  13.549   0.361   5.575  0.2236  0.7370 -0.4293
  602MOL0     C81183  13.278   0.342   5.527 -0.5174 -0.2850 -0.1364
  602MOL0     C81184  13.161   0.349   5.470  1.5618  0.2862 -0.2344
  602MOL0     N81185  12.628   0.328   5.559  0.6527 -0.3957  0.3954
  602MOL0     N81186  12.526   0.398   5.609 -0.6793  0.1169 -1.0003
  602MOL0     C81187  11.361   0.490   6.223 -0.7924  0.4057 -0.9591
  602MOL0     C81188  11.227   0.459   6.241 -0.6489 -0.0437 -0.0789
  602MOL0     C81189  10.835   0.217   6.184  0.3258  0.2670 -0.4133
  602MOL0     C81190  10.769   0.295   6.282  0.2903  0.2848 -0.1191
  602MOL0     C81191  10.649   0.257   6.342 -0.5221  0.1922 -0.4469
  602MOL0     C81192  10.580   0.142   6.305 -0.2386 -0.3794 -0.0822
  602MOL0     O81193  10.473   0.093   6.367 -0.6082 -0.6938  0.1003
  602MOL0     C81194  10.365   0.181   6.372 -0.3141 -0.5876  0.3905
  602MOL0     C81195  10.288   0.190   6.240  0.9157  0.2793  0.5482
  602MOL0     C81196  10.206   0.061   6.212  0.6196 -0.3577  0.5233
  602MOL0     C81197  10.177   0.033   6.062 -0.2131  0.0041  0.4325
  602MOL0     C81198  10.086   0.136   6.016  1.0771  0.8689  0.1404
  602MOL0     C81199  10.015   0.227   5.981  0.0911  0.2141 -0.1285
  602MOL0     C81200  10.640   0.064   6.206 -0.4003  0.6883 -0.1815
  602MOL0     C81201  10.769   0.091   6.155 -0.5813 -1.0672 -0.4701
  602MOL0     C81202  10.818  -0.018   6.058 -0.1989  0.0825  1.1586
  602MOL0     H81203  11.138   0.400   5.919 -0.2209  0.7213  0.2185
  602MOL0     H81204  11.355   0.491   5.882 -3.2346  2.4909 -1.1580
  602MOL0     H81205  11.612   0.386   5.974  0.5914 -0.1689 -1.5715
  602MOL0     H81206  11.572   0.525   5.874  1.0316 -2.0804 -1.0030
  602MOL0     H81207  11.793   0.609   6.048 -0.2782 -0.3042 -0.6964
  602MOL0     H81208  11.806   0.579   5.881 -2.2595  2.4422 -0.3174
  602MOL0     H81209  11.855   0.350   6.072  2.2029  0.0146 -0.6784
  602MOL0     H81210  11.959   0.462   5.968 -0.0182  0.2842 -1.6577
  602MOL0     H81211  11.804   0.224   5.886  0.7594 -0.0444 -0.2068
  602MOL0     H81212  11.809   0.367   5.778  1.2684 -1.0564 -1.2177
  602MOL0     H81213  12.060   0.259   5.895 -0.0074 -1.9197 -0.4714
  602MOL0     H81214  11.980   0.185   5.759 -1.1104 -0.9426  2.1832
  602MOL0     H81215  11.995   0.394   5.639 -0.0790 -1.4582 -0.3749
  602MOL0     H81216  12.096   0.467   5.775 -0.4894 -0.5880  1.6173
  602MOL0     H81217  12.165   0.223   5.624 -3.5697 -0.3276  3.1164
  602MOL0     H81218  12.254   0.278   5.759  0.2255  1.0607 -0.0348
  602MOL0     H81219  12.234   0.437   5.480 -4.2496 -1.1569  2.2681
  602MOL0     H81220  12.285   0.512   5.620  0.7170 -0.4910  0.8769
  602MOL0     H81221  12.383   0.204   5.391  1.6275 -0.3411 -0.4874
  602MOL0     H81222  12.731   0.084   5.495 -0.6381 -1.2150  0.9213
  602MOL0     H81223  12.583   0.034   5.403  0.9290  0.3373 -4.1917
  602MOL0     H81224  12.802   0.072   5.265  1.9159  2.8314 -3.2831
  602MOL0     H81225  12.651   0.114   5.205 -0.3676  3.4321 -0.3505
  602MOL0     H81226  12.702   0.370   5.260 -0.0468  0.0736 -1.8900
  602MOL0     H81227  12.804   0.283   5.151 -0.8958  1.3256 -0.9496
  602MOL0     H81228  12.872   0.325   5.460  2.8786  1.6631 -0.1104
  602MOL0     H81229  12.911   0.433   5.324 -1.2219 -0.1748 -1.6603
  602MOL0     H81230  13.185   0.125   5.223 -1.2108 -1.2497  1.2548
  602MOL0     H81231  13.426   0.109   5.320  1.7962  2.1131 -1.2304
  602MOL0     H81232  13.770   0.325   5.641  1.9795  0.0343  1.8904
  602MOL0     H81233  14.005   0.286   5.667 -0.4383 -2.0455  2.5651
  602MOL0     H81234  14.224   0.279   5.556  1.6061 -1.8732 -4.0883
  602MOL0     H81235  14.211   0.203   5.711  1.1011 -2.6906  1.8321
  602MOL0     H81236  14.410   0.160   5.494 -1.3342 -0.2872 -0.3577
  602MOL0     H81237  14.452   0.225   5.654  2.8212 -2.8841 -0.0320
  602MOL0     H81238  14.385  -0.001   5.746 -0.6998 -3.9605 -1.2478
  602MOL0     H81239  14.401  -0.066   5.582  1.2352 -0.5485  0.1937
  602MOL0     H81240  14.603  -0.090   5.711  3.0015  1.1420  1.8075
  602MOL0     H81241  14.610   0.089   5.729 -3.1370  0.5261  0.3984
  602MOL0     H81242  14.600  -0.016   5.448 -0.8824 -1.7938  0.5432
  602MOL0     H81243  14.744  -0.061   5.539 -0.2012  1.1964  1.8366
  602MOL0     H81244  14.657   0.218   5.514 -1.2679 -0.2506 -1.8197
  602MOL0     H81245  14.790   0.165   5.623 -1.4820 -2.7358  0.8153
  602MOL0     H81246  14.800   0.082   5.334  0.4520 -0.2541  0.1367
  602MOL0     H81247  14.933   0.080   5.442  0.4268  0.1759 -2.5308
  602MOL0     H81248  14.919   0.274   5.273 -0.6994  2.0505 -1.5176
  602MOL0     H81249  14.791   0.346   5.350  0.3187 -0.0121 -0.1014
  602MOL0     H81250  13.990  -0.031   5.371 -0.0792  1.6441 -1.4380
  602MOL0     H81251  13.747   0.003   5.343 -0.0898  1.9364 -2.2172
  602MOL0     H81252  13.294   0.391   5.623 -2.0426 -1.0610  0.5520
  602MOL0     H81253  13.081   0.408   5.513  1.1315  0.7022 -1.5599
  602MOL0     H81254  11.430   0.504   6.306 -1.4057  1.9314 -0.6798
  602MOL0     H81255  11.183   0.447   6.339 -2.8414 -0.1020 -1.0044
  602MOL0     H81256  10.806   0.391   6.315  2.4243 -0.0368 -1.3795
  602MOL0     H81257  10.615   0.330   6.415  1.5544  0.3457  0.4586
  602MOL0     H81258  10.389   0.282   6.404 -1.5162 -1.0614  3.0148
  602MOL0     H81259  10.304   0.140   6.452 -2.3903  0.5804 -0.5069
  602MOL0     H81260  10.346   0.221   6.153 -0.3224 -0.2856 -0.5066
  602MOL0     H81261  10.212   0.265   6.264  0.3353  0.1179 -0.7276
  602MOL0     H81262  10.117   0.061   6.274 -1.9611 -0.9167 -2.8591
  602MOL0     H81263  10.262  -0.024   6.253  1.0763  0.0128  0.6766
  602MOL0     H81264  10.274   0.042   6.012 -0.0337 -1.3373  0.4934
  602MOL0     H81265  10.139  -0.069   6.058  0.8605 -0.5168  2.4358
  602MOL0     H81266   9.954   0.307   5.942  0.9240  1.2031  0.5627
  602MOL0     H81267  10.607  -0.038   6.187  0.7235  0.4580 -0.9880
  602MOL0     H81268  10.909  -0.068   6.093  0.0066 -1.6924 -1.5767
  602MOL0     H81269  10.736  -0.089   6.049 -2.0656  2.2507  0.0411
  602MOL0     H81270  10.841   0.016   5.956 -0.5502  0.7611  1.3022
  603MOL0     O81271   6.843   3.959   9.706  0.6582 -0.2777  0.2940
  603MOL0     C81272   6.792   4.039   9.784 -0.1229  0.2371 -0.2850
  603MOL0     O81273   6.864   4.121   9.873  1.2043 -0.0550  0.1805
  603MOL0     C81274   6.997   4.094   9.893  0.0668 -0.4824 -0.1512
  603MOL0     C81275   7.043   4.061  10.017 -0.0200 -0.2460  0.0105
  603MOL0     C81276   7.180   4.040  10.028  0.4653 -0.2256  0.6389
  603MOL0     C81277   7.272   4.050   9.920 -0.1371  0.5333 -0.1058
  603MOL0     O81278   7.404   4.028   9.940 -0.4177 -0.0205 -0.3731
  603MOL0     C81279   7.498   4.072   9.845  0.1141  0.2555 -0.1991
  603MOL0     C81280   7.641   4.077   9.908  0.6792  0.3185 -0.6463
  603MOL0     C81281   7.682   3.948   9.994 -0.4235  0.1177 -0.2595
  603MOL0     C81282   7.822   3.982  10.060 -0.1892  0.2181 -0.0922
  603MOL0     C81283   7.945   4.000   9.974 -0.1920  0.1745  0.0913
  603MOL0     C81284   7.985   3.870   9.911 -0.1815  0.0173  0.6659
  603MOL0     C81285   8.126   3.894   9.844  0.0832 -0.2579 -1.0015
  603MOL0     C81286   8.242   3.897   9.946 -0.0162  0.3349 -0.8428
  603MOL0     N81287   8.358   3.902   9.865 -0.4199 -0.8960 -0.1572
  603MOL0     C81288   8.422   4.014   9.827  0.0200 -0.3552 -0.5094
  603MOL0     C81289   8.536   3.969   9.777 -0.9996 -0.0197 -1.1139
  603MOL0     C81290   8.648   4.073   9.757  0.0853 -0.2863  0.2141
  603MOL0     C81291   8.777   4.065   9.841 -0.5865  0.3221  0.1184
  603MOL0     C81292   8.757   4.118   9.983 -0.1249  0.9918 -0.2969
  603MOL0     C81293   8.695   4.010  10.080  0.4029 -0.4762 -0.4221
  603MOL0     O81294   8.774   3.896  10.103 -0.4197  0.9538 -0.0832
  603MOL0     C81295   8.900   3.919  10.164 -0.7600  0.3686  0.2072
  603MOL0     C81296   9.008   3.874  10.091  0.3411 -0.0729 -0.2780
  603MOL0     C81297   9.137   3.889  10.135  0.4396  0.2261  0.5757
  603MOL0     C81298   9.161   3.958  10.255  0.3802 -0.6531  0.1662
  603MOL0     C81299   9.297   3.964  10.294 -0.4642  0.6507 -1.1189
  603MOL0     O81300   9.397   3.901  10.216 -0.4097 -0.2189  1.0725
  603MOL0     C81301   9.526   3.891  10.238 -0.6888  0.9248 -0.1156
  603MOL0     C81302   9.575   3.865  10.367  0.5329  0.0560 -0.3437
  603MOL0     C81303   9.717   3.871  10.390  0.6978  0.0771 -0.8600
  603MOL0     C81304   9.802   3.907  10.288 -0.1888  0.2197  0.2652
  603MOL0     O81305   9.927   3.928  10.322 -0.5899 -0.5595 -0.0570
  603MOL0     C81306  10.024   3.958  10.220 -0.0600 -0.6182  0.4130
  603MOL0     C81307  10.158   3.957  10.271 -0.7988  0.6166 -0.0184
  603MOL0     C81308  10.173   4.081  10.364 -0.6005  0.1378 -0.2512
  603MOL0     C81309  10.297   4.070  10.455 -0.8252 -0.3206  0.3516
  603MOL0     C81310  10.437   4.084  10.381  0.6297 -0.5032  0.7342
  603MOL0     C81311  10.535   4.004  10.453 -0.3460  0.2497 -1.0416
  603MOL0     C81312  10.675   4.048  10.404 -0.0462 -0.2674  0.1353
  603MOL0     C81313  10.772   4.005  10.510  0.7963 -1.0206 -0.5985
  603MOL0    Cl81314  10.942   4.068  10.475  0.2279  0.3365 -0.3021
  603MOL0     C81315   9.749   3.928  10.167 -0.7653  0.0176 -0.4437
  603MOL0     C81316   9.614   3.912  10.138  0.8858 -0.2842  0.2723
  603MOL0     O81317   9.319   4.024  10.399  0.3130 -0.2552  0.3173
  603MOL0     C81318   9.048   4.017  10.325 -0.4119  0.8754  0.1088
  603MOL0     C81319   8.923   3.994  10.276  0.2188 -0.9749 -0.1461
  603MOL0     N81320   8.540   3.834   9.780  0.7503  0.4328 -0.3311
  603MOL0     N81321   8.432   3.796   9.830  0.4629 -0.3034  0.5191
  603MOL0     C81322   7.224   4.075   9.793  0.1171 -0.3932 -0.0393
  603MOL0     C81323   7.087   4.111   9.783  0.4947  0.9328  0.0444
  603MOL0     C81324   6.643   4.049   9.789 -0.2404 -0.1147 -0.5199
  603MOL0     C81325   6.577   4.021   9.668  0.0395  0.3078 -0.0969
  603MOL0     C81326   6.441   4.054   9.654  0.3732  0.1240  0.7747
  603MOL0     C81327   6.366   4.101   9.763 -0.5817 -0.0830  0.1400
  603MOL0     O81328   6.231   4.131   9.766  0.0388  0.7293 -0.9011
  603MOL0     C81329   6.142   4.097   9.666  0.3691  0.0093 -0.0432
  603MOL0     C81330   6.042   4.204   9.667  0.3711  0.0723  0.4875
  603MOL0     C81331   5.920   4.166   9.591  0.3533 -1.1921  1.0853
  603MOL0     C81332   5.935   4.108   9.445 -0.3509  0.2886  0.0190
  603MOL0     C81333   6.006   4.195   9.352 -0.1632 -0.4522  0.1397
  603MOL0     C81334   6.062   4.265   9.271  0.5903 -0.0776  0.0659
  603MOL0     C81335   6.438   4.124   9.879 -0.8142  0.2449 -0.7728
  603MOL0     C81336   6.569   4.096   9.898 -0.6669  0.1369 -1.1835
  603MOL0     C81337   6.626   4.096  10.029  0.2055 -0.6084  0.4195
  603MOL0     H81338   6.987   4.044  10.109  2.2624  0.1245  1.5735
  603MOL0     H81339   7.221   4.020  10.126  0.9407  2.8693  1.1706
  603MOL0     H81340   7.491   4.020   9.748 -0.4269 -0.6007  0.2794
  603MOL0     H81341   7.472   4.174   9.816  0.8505  1.0103  1.6259
  603MOL0     H81342   7.653   4.165   9.972 -1.5817 -0.4294  0.9120
  603MOL0     H81343   7.704   4.078   9.819  2.9159  0.9055  0.8604
  603MOL0     H81344   7.690   3.850   9.945  1.1369  0.4984 -0.8290
  603MOL0     H81345   7.610   3.928  10.074 -0.2343  0.4061 -0.0149
  603MOL0     H81346   7.814   4.072  10.123 -1.4099  0.5427 -0.6776
  603MOL0     H81347   7.837   3.901  10.132  0.0752  3.2504  3.5747
  603MOL0     H81348   7.922   4.076   9.899 -1.9141  0.0972  0.5133
  603MOL0     H81349   8.028   4.037  10.035 -1.4998  2.1711  0.7526
  603MOL0     H81350   7.995   3.794   9.989 -0.7772 -2.6283 -1.6630
  603MOL0     H81351   7.910   3.820   9.850 -0.1362 -1.9865  2.1673
  603MOL0     H81352   8.128   3.993   9.799  2.2123  1.1390  1.8241
  603MOL0     H81353   8.132   3.817   9.766 -1.2237  0.0923 -1.4872
  603MOL0     H81354   8.249   3.985  10.011  1.7018  0.2873 -0.9209
  603MOL0     H81355   8.230   3.807  10.008 -1.2933  1.8693  1.2782
  603MOL0     H81356   8.401   4.117   9.850  2.2740  0.4553 -1.7413
  603MOL0     H81357   8.683   4.085   9.654  3.4396 -0.6747  1.1808
  603MOL0     H81358   8.599   4.168   9.778  0.1475  0.0266 -0.9636
  603MOL0     H81359   8.809   3.960   9.840 -0.3399  0.3867 -1.0360
  603MOL0     H81360   8.855   4.123   9.789 -0.9045  0.0533 -0.6775
  603MOL0     H81361   8.698   4.211   9.985 -0.0720  1.0413 -0.8322
  603MOL0     H81362   8.861   4.138  10.010  0.8534  1.0856 -3.6861
  603MOL0     H81363   8.599   3.969  10.046  0.4081 -2.0786  1.3399
  603MOL0     H81364   8.676   4.061  10.175 -2.7722 -1.8367 -0.1770
  603MOL0     H81365   8.980   3.839   9.992 -1.2943 -0.7468  0.3885
  603MOL0     H81366   9.224   3.872  10.071  1.5545  1.8865  1.5639
  603MOL0     H81367   9.512   3.856  10.455 -1.9125 -2.6885 -2.2044
  603MOL0     H81368   9.747   3.827  10.485 -3.2823  0.2299  0.6773
  603MOL0     H81369  10.018   3.876  10.148  1.5453 -2.3528  2.1306
  603MOL0     H81370   9.992   4.051  10.174 -1.7358 -0.7507  1.2416
  603MOL0     H81371  10.167   3.871  10.338 -2.8729  0.9293  0.7517
  603MOL0     H81372  10.231   3.960  10.189 -0.2588  0.7946  0.4617
  603MOL0     H81373  10.181   4.170  10.301  2.5272  1.1795  1.4287
  603MOL0     H81374  10.090   4.092  10.434 -0.7994 -0.3277 -0.4127
  603MOL0     H81375  10.308   3.967  10.489  2.1940 -1.0498 -2.3931
  603MOL0     H81376  10.282   4.137  10.540 -2.4624  0.4178 -0.4733
  603MOL0     H81377  10.468   4.187  10.363 -2.1545  0.4167  0.8882
  603MOL0     H81378  10.422   4.029  10.288 -2.5288  0.5577  0.5065
  603MOL0     H81379  10.530   4.030  10.559 -2.2925 -1.1530 -0.7349
  603MOL0     H81380  10.518   3.896  10.441  2.6204 -0.4856  0.4717
  603MOL0     H81381  10.678   4.157  10.399 -1.4164 -0.2396 -0.5201
  603MOL0     H81382  10.710   4.002  10.311 -0.4112 -1.1615  0.4278
  603MOL0     H81383  10.737   4.032  10.610 -0.0213 -4.1307  0.0907
  603MOL0     H81384  10.769   3.895  10.508 -1.0309 -1.0991  1.5877
  603MOL0     H81385   9.821   3.948  10.088 -0.4866  0.9529  0.0374
  603MOL0     H81386   9.583   3.929  10.035  2.2936  0.0687 -0.1047
  603MOL0     H81387   9.068   4.070  10.418  1.1542 -0.8024  0.8205
  603MOL0     H81388   8.838   4.049  10.315  1.1025  1.4452 -1.4084
  603MOL0     H81389   7.294   4.085   9.711  0.2275  0.2148  0.1285
  603MOL0     H81390   7.055   4.132   9.682  1.6235  0.1863 -0.4907
  603MOL0     H81391   6.632   3.993   9.579 -1.8621  0.2281 -1.2917
  603MOL0     H81392   6.399   4.046   9.555 -2.2929  1.0471  1.7385
  603MOL0     H81393   6.098   4.000   9.693  2.7015 -0.8652  0.8628
  603MOL0     H81394   6.195   4.084   9.572  1.5250  1.1971  0.4188
  603MOL0     H81395   6.080   4.295   9.620  4.7012  0.4656  4.0719
  603MOL0     H81396   6.011   4.230   9.769 -0.5445 -0.4617  0.3478
  603MOL0     H81397   5.862   4.257   9.575 -0.2322 -1.8121 -0.5166
  603MOL0     H81398   5.865   4.094   9.653  1.8800 -3.8718 -0.4610
  603MOL0     H81399   5.995   4.017   9.454 -0.4976  0.2620  0.8393
  603MOL0     H81400   5.841   4.080   9.397 -0.2925  0.8232 -0.4165
  603MOL0     H81401   6.105   4.329   9.196  0.9521  3.4930  3.0368
  603MOL0     H81402   6.378   4.173   9.955  1.4388  1.5796  0.2681
  603MOL0     H81403   6.551   4.066  10.103 -0.7783 -1.8543 -1.0147
  603MOL0     H81404   6.700   4.016  10.036  1.1963  0.3924  1.9810
  603MOL0     H81405   6.675   4.192  10.045 -2.1486  1.0318 -1.4201
  604MOL0     O81406  11.295   2.362  10.627 -0.6843  0.3872 -0.0083
  604MOL0     C81407  11.242   2.308  10.531  0.0853 -0.9688 -0.0248
  604MOL0     O81408  11.308   2.269  10.426 -0.0210  0.6206  0.1939
  604MOL0     C81409  11.445   2.249  10.424  0.8982  0.2985  0.6029
  604MOL0     C81410  11.518   2.151  10.496  0.6983  0.3458 -0.4805
  604MOL0     C81411  11.659   2.147  10.494  0.6666 -0.3133  0.8390
  604MOL0     C81412  11.733   2.240  10.412  0.0057 -0.2897  0.2526
  604MOL0     O81413  11.868   2.237  10.403 -0.2117  0.6893 -0.1173
  604MOL0     C81414  11.936   2.275  10.531 -0.3341 -0.6889  0.0431
  604MOL0     C81415  12.075   2.229  10.528  0.1172 -0.4781 -0.2280
  604MOL0     C81416  12.143   2.272  10.657 -1.1319  0.3588 -0.0806
  604MOL0     C81417  12.290   2.222  10.652 -0.3061  0.1169  0.2963
  604MOL0     C81418  12.377   2.254  10.771  0.1461 -0.4288  0.9708
  604MOL0     C81419  12.334   2.164  10.890  0.5572 -0.1503  0.5055
  604MOL0     C81420  12.411   2.180  11.024 -0.6840 -0.3982 -0.3119
  604MOL0     C81421  12.339   2.104  11.137 -1.0230  0.2293  0.2344
  604MOL0     N81422  12.214   2.158  11.191 -0.1188  0.5876  0.8029
  604MOL0     C81423  12.198   2.278  11.264  0.2061 -0.4989  0.8886
  604MOL0     C81424  12.064   2.293  11.261 -0.1821  0.7506 -0.0251
  604MOL0     C81425  11.992   2.391  11.347  0.4837 -0.2074 -0.5709
  604MOL0     C81426  11.927   2.507  11.252 -0.7218  1.0251 -0.2057
  604MOL0     C81427  12.018   2.580  11.155 -0.4212  0.3455  0.3591
  604MOL0     C81428  12.062   2.499  11.020 -0.4862  0.3097  0.5433
  604MOL0     O81429  12.099   2.599  10.925  0.4936  0.5096  0.2935
  604MOL0     C81430  12.225   2.654  10.928 -0.2631  0.1653 -0.1275
  604MOL0     C81431  12.251   2.759  10.842  0.1848 -0.0255 -0.3784
  604MOL0     C81432  12.377   2.821  10.842 -0.2932  1.1843 -0.2579
  604MOL0     C81433  12.479   2.778  10.929  0.4605 -0.0214  0.2700
  604MOL0     C81434  12.605   2.845  10.933 -0.1514 -0.2253  0.1080
  604MOL0     O81435  12.709   2.780  10.999 -0.9694 -0.0926  0.0557
  604MOL0     C81436  12.827   2.860  11.016 -0.1388 -0.4006 -1.0513
  604MOL0     C81437  12.842   2.964  11.112 -0.8549  0.2028  0.3025
  604MOL0     C81438  12.966   3.024  11.139 -0.1707  0.3383 -0.3657
  604MOL0     C81439  13.083   2.985  11.069  0.2817  0.3118  0.1985
  604MOL0     O81440  13.205   3.042  11.107  0.7978  0.2775 -0.5441
  604MOL0     C81441  13.324   2.968  11.081 -0.4614 -0.6380 -0.0472
  604MOL0     C81442  13.458   3.043  11.125 -0.3506 -0.7761 -0.7854
  604MOL0     C81443  13.584   2.958  11.133 -1.2632  0.0807  0.1421
  604MOL0     C81444  13.708   3.026  11.067  0.6542  0.0924  0.3075
  604MOL0     C81445  13.836   2.941  11.071  0.0534 -0.3139 -0.2390
  604MOL0     C81446  13.949   3.015  10.990 -0.2723  0.3193  0.3422
  604MOL0     C81447  14.078   2.926  11.017 -0.5591 -0.1920  0.4633
  604MOL0     C81448  14.217   2.965  10.949  0.0419 -0.0793  0.1179
  604MOL0    Cl81449  14.289   3.121  11.004 -0.5486  0.0755  0.5665
  604MOL0     C81450  13.068   2.889  10.969  0.8679  0.6810 -0.0640
  604MOL0     C81451  12.947   2.823  10.941 -0.0299  0.9345 -0.4421
  604MOL0     O81452  12.612   2.944  10.861 -0.1701 -1.1035 -1.1595
  604MOL0     C81453  12.452   2.671  11.013  0.0106 -0.4234  0.0731
  604MOL0     C81454  12.325   2.606  11.014 -0.3210 -0.1148  0.1951
  604MOL0     N81455  12.005   2.203  11.176  0.0952 -0.5317 -0.8459
  604MOL0     N81456  12.090   2.122  11.143 -0.3291 -0.1638  0.1360
  604MOL0     C81457  11.659   2.339  10.342  0.7174  1.1129  0.0209
  604MOL0     C81458  11.515   2.338  10.342  0.5921 -0.5864  0.0794
  604MOL0     C81459  11.097   2.285  10.523 -0.3690  0.2987 -0.6464
  604MOL0     C81460  11.018   2.317  10.635 -0.0037  0.5168 -0.0376
  604MOL0     C81461  10.879   2.288  10.637 -0.0965  0.5430  0.4519
  604MOL0     C81462  10.811   2.222  10.529 -1.0007 -0.7823  0.4427
  604MOL0     O81463  10.680   2.207  10.518  0.2390 -0.8196 -0.7441
  604MOL0     C81464  10.597   2.277  10.617  0.2259 -0.7234  0.0923
  604MOL0     C81465  10.452   2.290  10.562 -0.8081  0.0161 -0.3941
  604MOL0     C81466  10.371   2.151  10.542 -0.4307  0.1864  0.5991
  604MOL0     C81467  10.236   2.180  10.481 -0.4929 -1.1076  0.3287
  604MOL0     C81468  10.159   2.059  10.472 -0.2082 -0.0544 -0.2034
  604MOL0     C81469  10.136   1.945  10.459  0.0301 -0.2322 -0.5870
  604MOL0     C81470  10.893   2.183  10.425 -0.2718 -0.2513  0.7661
  604MOL0     C81471  11.033   2.218  10.416  0.7809 -0.0056  0.1117
  604MOL0     C81472  11.105   2.177  10.289  0.1665 -0.1402 -0.2978
  604MOL0     H81473  11.465   2.077  10.556  0.5707 -0.4907 -1.6022
  604MOL0     H81474  11.708   2.076  10.559  1.5249  1.0390  1.7241
  604MOL0     H81475  11.931   2.383  10.547 -0.8829 -0.6626 -0.2675
  604MOL0     H81476  11.883   2.232  10.616 -2.0535  0.9127 -0.1622
  604MOL0     H81477  12.134   2.264  10.442 -1.5796  2.6275 -0.2922
  604MOL0     H81478  12.082   2.120  10.525 -1.0486 -0.6310  1.4636
  604MOL0     H81479  12.091   2.237  10.747 -1.9979  3.3617  0.6825
  604MOL0     H81480  12.154   2.380  10.666  0.8134  0.2747 -0.9641
  604MOL0     H81481  12.290   2.112  10.643  2.1676  0.2408 -3.8586
  604MOL0     H81482  12.342   2.259  10.564 -0.6566 -1.7075 -0.7293
  604MOL0     H81483  12.478   2.223  10.741 -0.1002 -1.7685  1.4311
  604MOL0     H81484  12.392   2.355  10.809 -1.4439  1.7735 -3.5459
  604MOL0     H81485  12.229   2.180  10.918 -0.3040 -1.0258 -1.9456
  604MOL0     H81486  12.335   2.065  10.844 -0.5928  1.3835 -3.1919
  604MOL0     H81487  12.419   2.287  11.048  0.4086 -0.5882  0.2446
  604MOL0     H81488  12.511   2.135  11.028 -0.1414  0.8062  0.4255
  604MOL0     H81489  12.315   2.004  11.100  0.5155 -0.0887  0.0180
  604MOL0     H81490  12.404   2.085  11.223 -0.5000 -2.8092 -0.7204
  604MOL0     H81491  12.264   2.335  11.329 -0.3772 -0.4451  1.4423
  604MOL0     H81492  11.909   2.336  11.393 -0.8416 -1.3081 -3.9721
  604MOL0     H81493  12.051   2.434  11.428 -1.0123  0.1524  0.3805
  604MOL0     H81494  11.852   2.454  11.194 -0.7271 -0.7581  1.3316
  604MOL0     H81495  11.880   2.578  11.321 -0.7796 -0.9019  1.8517
  604MOL0     H81496  12.103   2.611  11.216 -0.1376  2.1545 -0.8725
  604MOL0     H81497  11.966   2.674  11.136 -3.2516 -0.8000  1.8996
  604MOL0     H81498  11.972   2.455  10.977 -0.5703  1.8180 -0.9282
  604MOL0     H81499  12.124   2.411  11.038 -2.0450 -0.8323  0.4695
  604MOL0     H81500  12.179   2.786  10.765 -0.0554 -0.3740 -0.2783
  604MOL0     H81501  12.384   2.908  10.779 -1.8209  1.3495 -0.2451
  604MOL0     H81502  12.753   2.990  11.168 -1.0415  1.5108 -0.5688
  604MOL0     H81503  12.972   3.112  11.202  2.6790  1.4017 -1.9140
  604MOL0     H81504  13.320   2.879  11.145  0.1083 -1.0274 -0.5339
  604MOL0     H81505  13.340   2.938  10.977  0.5192  0.5223 -0.2464
  604MOL0     H81506  13.476   3.122  11.051  1.3427 -1.7816 -1.5091
  604MOL0     H81507  13.432   3.097  11.217  1.4531  1.7938 -1.6769
  604MOL0     H81508  13.603   2.932  11.238 -0.5083 -0.1784 -0.0568
  604MOL0     H81509  13.574   2.860  11.087 -1.3562 -0.7484  1.8234
  604MOL0     H81510  13.716   3.123  11.117  1.0813 -0.3222  1.0736
  604MOL0     H81511  13.688   3.043  10.961  2.8912 -0.7829 -0.3097
  604MOL0     H81512  13.815   2.845  11.024  0.4575  0.1896 -1.4955
  604MOL0     H81513  13.878   2.940  11.172 -1.7501  2.1048  0.6289
  604MOL0     H81514  13.931   3.012  10.883 -2.4923 -1.3589  0.6905
  604MOL0     H81515  13.968   3.118  11.022 -0.4260  1.6019 -3.2630
  604MOL0     H81516  14.052   2.830  10.970 -0.6611 -0.9344  1.9704
  604MOL0     H81517  14.091   2.902  11.122  0.2658  0.4861  0.5260
  604MOL0     H81518  14.286   2.882  10.970 -0.9309 -1.5653 -2.1042
  604MOL0     H81519  14.194   2.974  10.843 -2.5777 -0.9151  0.5351
  604MOL0     H81520  13.153   2.854  10.911  1.3388  0.8883  0.4791
  604MOL0     H81521  12.949   2.742  10.869  0.5954 -1.3829  2.0471
  604MOL0     H81522  12.529   2.633  11.080 -0.5705 -1.1600  0.3463
  604MOL0     H81523  12.328   2.516  11.075  0.7230 -0.6466 -0.5945
  604MOL0     H81524  11.718   2.405  10.278  4.3293  0.9621  2.9045
  604MOL0     H81525  11.465   2.421  10.293  0.8769  0.4312  1.4557
  604MOL0     H81526  11.050   2.371  10.724 -2.8517  0.2277  1.2865
  604MOL0     H81527  10.813   2.310  10.720 -1.7984 -2.2388 -0.0234
  604MOL0     H81528  10.635   2.378  10.635 -4.0504  1.1334 -0.1505
  604MOL0     H81529  10.593   2.228  10.715 -1.6387 -0.3050  0.2600
  604MOL0     H81530  10.456   2.354  10.474 -2.6966  0.4328 -0.2196
  604MOL0     H81531  10.402   2.351  10.638 -0.1101 -1.2233  1.1141
  604MOL0     H81532  10.369   2.116  10.645 -0.4432 -1.7862 -0.0305
  604MOL0     H81533  10.431   2.079  10.486 -0.2246 -0.5605  1.7651
  604MOL0     H81534  10.183   2.251  10.545  1.6571  0.6634  0.2553
  604MOL0     H81535  10.243   2.217  10.378  2.1439 -2.7524 -0.1799
  604MOL0     H81536  10.129   1.838  10.459  3.2622 -0.6355  2.3689
  604MOL0     H81537  10.853   2.137  10.335  0.5309  0.9480 -0.2555
  604MOL0     H81538  11.173   2.094  10.307 -2.2920 -2.5323 -1.2926
  604MOL0     H81539  11.026   2.147  10.219 -0.7293  3.0234 -0.7918
  604MOL0     H81540  11.145   2.257  10.226 -0.7930 -0.5709 -1.4976
  605MOL0     O81541  11.043   8.936   2.693  0.0996  0.4959  0.1190
  605MOL0     C81542  10.969   9.009   2.625 -0.3649 -0.1469 -0.6622
  605MOL0     O81543  11.004   9.141   2.599  0.8633 -0.2986  0.4927
  605MOL0     C81544  11.119   9.198   2.651 -0.3645  1.4014 -0.1599
  605MOL0     C81545  11.250   9.139   2.650  0.0223  0.0079  0.2820
  605MOL0     C81546  11.361   9.212   2.701 -0.3461 -0.2162 -0.4718
  605MOL0     C81547  11.337   9.328   2.777 -0.7142  1.0176 -0.1007
  605MOL0     O81548  11.441   9.392   2.835 -0.4831 -0.2395 -0.2213
  605MOL0     C81549  11.540   9.462   2.755  0.1847 -0.2038  0.1254
  605MOL0     C81550  11.676   9.392   2.787  0.7653 -0.0032 -0.9046
  605MOL0     C81551  11.782   9.432   2.690  0.4406 -0.1900  0.1616
  605MOL0     C81552  11.906   9.360   2.731 -0.8063  0.0099  0.0767
  605MOL0     C81553  12.020   9.383   2.622 -0.7509  0.0006 -0.2650
  605MOL0     C81554  12.140   9.323   2.699 -1.7919 -0.1078  0.2834
  605MOL0     C81555  12.270   9.381   2.653 -0.4317 -0.2965 -0.2170
  605MOL0     C81556  12.293   9.526   2.699  0.2341  0.6425  0.2256
  605MOL0     N81557  12.433   9.568   2.690 -0.0282  0.5637 -0.9526
  605MOL0     C81558  12.482   9.668   2.606 -0.1650 -0.3540 -0.9319
  605MOL0     C81559  12.614   9.675   2.641  0.2016 -0.0405  0.3087
  605MOL0     C81560  12.719   9.768   2.576 -0.1730 -0.1222 -0.4333
  605MOL0     C81561  12.698   9.790   2.421  0.3103  0.9114 -0.4562
  605MOL0     C81562  12.822   9.851   2.359  0.3294 -0.0491  1.0831
  605MOL0     C81563  12.882   9.975   2.432 -0.0722  0.5245 -0.7551
  605MOL0     O81564  12.975  10.050   2.350 -0.5476  0.4134 -0.2047
  605MOL0     C81565  13.096  10.003   2.319  0.0999  0.2175 -0.9517
  605MOL0     C81566  13.180  10.095   2.264  1.1826 -0.1257 -0.3404
  605MOL0     C81567  13.322  10.070   2.246  1.2822 -1.0495 -0.2686
  605MOL0     C81568  13.381   9.952   2.275 -0.8456  0.5990 -0.4670
  605MOL0     C81569  13.523   9.920   2.242  0.5054  0.2713 -0.0709
  605MOL0     O81570  13.558   9.792   2.278  0.0559  0.2266 -0.3933
  605MOL0     C81571  13.663   9.737   2.212 -0.9313 -0.1996  0.3600
  605MOL0     C81572  13.642   9.628   2.129 -0.3811  0.3649  0.7702
  605MOL0     C81573  13.753   9.578   2.058  0.0573 -0.1213  0.0552
  605MOL0     C81574  13.880   9.629   2.072  0.6413 -0.2443 -0.0823
  605MOL0     O81575  13.978   9.578   1.994  0.4129  0.6091  0.4579
  605MOL0     C81576  14.113   9.576   2.037  0.6008 -0.4987  0.7492
  605MOL0     C81577  14.189   9.489   1.940  0.1813 -0.0488  0.6994
  605MOL0     C81578  14.249   9.577   1.831  0.1698  0.4935 -0.3514
  605MOL0     C81579  14.387   9.622   1.878 -0.2040  0.1951  0.6296
  605MOL0     C81580  14.479   9.637   1.753  0.7269 -0.5476  0.1806
  605MOL0     C81581  14.630   9.643   1.784 -0.1095 -0.3786 -0.1764
  605MOL0     C81582  14.718   9.666   1.665  0.0796  0.1028  0.4147
  605MOL0     C81583  14.853   9.597   1.669 -0.0300 -0.3643  0.2782
  605MOL0    Cl81584  14.941   9.693   1.793 -0.3004  0.0992  0.3300
  605MOL0     C81585  13.901   9.726   2.166 -0.1296  0.3275 -0.4794
  605MOL0     C81586  13.799   9.777   2.245  0.9136 -0.6458 -0.5712
  605MOL0     O81587  13.594   9.991   2.169 -0.1296  0.0267 -0.3287
  605MOL0     C81588  13.294   9.851   2.329 -0.1805  0.2227 -0.5943
  605MOL0     C81589  13.151   9.879   2.355 -0.2794  0.3230  0.3196
  605MOL0     N81590  12.635   9.586   2.750  0.0167 -0.7424 -0.0570
  605MOL0     N81591  12.526   9.523   2.777 -0.4942 -0.8598  0.2752
  605MOL0     C81592  11.213   9.374   2.792  0.0513  0.2791 -0.3293
  605MOL0     C81593  11.101   9.310   2.731 -0.4711  0.0143  0.2183
  605MOL0     C81594  10.847   8.956   2.570 -0.2501 -1.1424 -0.6400
  605MOL0     C81595  10.788   8.839   2.627 -0.2221  0.0237 -0.6564
  605MOL0     C81596  10.676   8.774   2.566 -0.4585 -0.7893 -0.3359
  605MOL0     C81597  10.632   8.829   2.448  0.6756 -0.1455  0.3425
  605MOL0     O81598  10.540   8.759   2.369 -0.3400  0.8826  0.0309
  605MOL0     C81599  10.423   8.819   2.313 -0.3219  0.1742  0.0219
  605MOL0     C81600  10.423   8.788   2.162  0.5567 -0.0601  1.0466
  605MOL0     C81601  10.546   8.845   2.089 -0.2803 -0.0124 -0.1838
  605MOL0     C81602  10.533   8.805   1.938 -0.0204  0.0795  0.4949
  605MOL0     C81603  10.659   8.832   1.863  0.6847 -0.1620 -0.5802
  605MOL0     C81604  10.764   8.858   1.807 -0.5461  0.4016 -0.6213
  605MOL0     C81605  10.674   8.953   2.399 -0.3987  0.1182 -0.5352
  605MOL0     C81606  10.784   9.014   2.457  0.0322  0.1457 -0.8991
  605MOL0     C81607  10.842   9.128   2.374  0.3461 -0.0981  0.4191
  605MOL0     H81608  11.267   9.040   2.609 -2.2767 -0.4765  0.3779
  605MOL0     H81609  11.461   9.172   2.702  0.7059  2.2178 -0.2253
  605MOL0     H81610  11.510   9.452   2.650  1.5487 -0.5599 -0.2518
  605MOL0     H81611  11.545   9.567   2.785 -3.3598 -0.1191  0.7750
  605MOL0     H81612  11.665   9.284   2.795 -1.3056  0.2488  0.7577
  605MOL0     H81613  11.707   9.430   2.885 -2.1267  1.6324 -0.5062
  605MOL0     H81614  11.800   9.540   2.691  0.5159 -0.1743 -1.2090
  605MOL0     H81615  11.753   9.408   2.587 -1.5809 -0.5904  0.7737
  605MOL0     H81616  11.943   9.415   2.818 -2.3272  1.1368  0.0463
  605MOL0     H81617  11.890   9.255   2.756  2.8174 -0.1353  2.5427
  605MOL0     H81618  12.010   9.329   2.528  1.6925 -0.6128 -0.2338
  605MOL0     H81619  12.022   9.490   2.598 -1.3011  0.1433  0.2867
  605MOL0     H81620  12.140   9.324   2.809  0.5176 -0.2661  0.3212
  605MOL0     H81621  12.135   9.215   2.679  3.4127 -0.6472  0.4848
  605MOL0     H81622  12.273   9.382   2.543  1.6932  3.4303 -0.3112
  605MOL0     H81623  12.350   9.312   2.680 -0.2815  0.3296  1.0027
  605MOL0     H81624  12.232   9.602   2.649  2.9756  2.9379  0.1380
  605MOL0     H81625  12.264   9.532   2.805  1.3481  2.1069  0.4818
  605MOL0     H81626  12.427   9.729   2.534 -1.1824 -0.0149  0.1076
  605MOL0     H81627  12.733   9.853   2.643 -2.0711 -0.8130  0.9428
  605MOL0     H81628  12.807   9.705   2.589  0.0230  0.3754  0.9018
  605MOL0     H81629  12.683   9.688   2.384 -1.0764  0.5246  1.0852
  605MOL0     H81630  12.615   9.858   2.400 -1.6329 -2.1091 -3.7801
  605MOL0     H81631  12.790   9.885   2.260  1.0090 -1.3066  0.4099
  605MOL0     H81632  12.893   9.770   2.342  1.9240  1.2998  1.0631
  605MOL0     H81633  12.933   9.953   2.526 -2.3923  0.3237  0.5070
  605MOL0     H81634  12.804  10.047   2.460 -0.4199  0.4316 -1.4671
  605MOL0     H81635  13.139  10.186   2.221  2.7603  0.8117  0.0695
  605MOL0     H81636  13.375  10.144   2.187  0.0718  0.8941  0.9888
  605MOL0     H81637  13.542   9.585   2.132  0.5035 -1.8467  3.5025
  605MOL0     H81638  13.730   9.513   1.974  0.0905  0.7920 -0.6676
  605MOL0     H81639  14.162   9.674   2.042  0.4668 -0.4364  4.7993
  605MOL0     H81640  14.134   9.541   2.139  2.8757 -0.2911  0.4092
  605MOL0     H81641  14.259   9.420   1.987  2.1561  2.0610  1.0794
  605MOL0     H81642  14.126   9.421   1.882  0.6555 -1.4176  1.7627
  605MOL0     H81643  14.257   9.508   1.746  1.2121  0.8367 -0.5428
  605MOL0     H81644  14.187   9.662   1.803 -0.4526 -0.6603 -2.8286
  605MOL0     H81645  14.450   9.555   1.939  5.2332  3.3380 -0.8401
  605MOL0     H81646  14.371   9.714   1.936 -0.1633  0.9152 -0.4790
  605MOL0     H81647  14.452   9.724   1.693  1.7710 -0.6899 -0.5273
  605MOL0     H81648  14.475   9.545   1.694  0.4924  0.3920 -1.3331
  605MOL0     H81649  14.653   9.721   1.857  1.6156 -0.8962 -0.1151
  605MOL0     H81650  14.650   9.542   1.821 -2.1239 -0.5527  0.5361
  605MOL0     H81651  14.733   9.774   1.659  0.3562  0.0705  0.5121
  605MOL0     H81652  14.669   9.637   1.571  0.4856  0.5989  0.0455
  605MOL0     H81653  14.849   9.490   1.690  2.7768 -0.8249 -1.1728
  605MOL0     H81654  14.895   9.592   1.568 -0.3485 -2.7436  0.2089
  605MOL0     H81655  14.001   9.756   2.196 -0.3283 -1.3866  2.3479
  605MOL0     H81656  13.816   9.850   2.324  0.2934  0.2783 -1.2656
  605MOL0     H81657  13.327   9.749   2.349  0.4765  0.6339  0.5534
  605MOL0     H81658  13.093   9.804   2.408 -0.6333  1.5687  1.7553
  605MOL0     H81659  11.209   9.452   2.867 -0.1438 -1.5670  1.7007
  605MOL0     H81660  11.009   9.367   2.742  0.5318  2.2294 -1.9530
  605MOL0     H81661  10.823   8.805   2.724 -4.0409 -1.2494  0.4692
  605MOL0     H81662  10.641   8.679   2.606 -2.3210  1.0451  2.7811
  605MOL0     H81663  10.423   8.927   2.331  0.4531 -0.3103  3.6449
  605MOL0     H81664  10.329   8.783   2.356  0.8883 -1.7955  1.1938
  605MOL0     H81665  10.330   8.830   2.124  1.3707  0.7145 -0.1713
  605MOL0     H81666  10.428   8.680   2.144  2.6751  0.2231 -0.4755
  605MOL0     H81667  10.638   8.802   2.130  0.3748  0.2528 -1.3272
  605MOL0     H81668  10.540   8.954   2.094  1.7129  0.0861  1.8445
  605MOL0     H81669  10.524   8.697   1.926  2.8780 -0.0378 -2.3291
  605MOL0     H81670  10.454   8.850   1.878  2.6618 -0.1786 -3.6722
  605MOL0     H81671  10.859   8.889   1.767  0.1348  0.5797  1.0199
  605MOL0     H81672  10.632   8.992   2.307 -0.7027  0.2625 -0.3398
  605MOL0     H81673  10.946   9.110   2.346  1.8228  3.3448  2.9495
  605MOL0     H81674  10.788   9.144   2.281 -1.3678 -2.3719  0.9151
  605MOL0     H81675  10.844   9.222   2.430 -1.0602  0.7147 -0.8401
  606MOL0     O81676   1.080   1.627   3.158 -0.3015 -0.5319  0.0577
  606MOL0     C81677   1.064   1.528   3.227  0.1191  0.1159 -0.6572
  606MOL0     O81678   1.164   1.478   3.305 -0.1150 -0.2708 -0.4120
  606MOL0     C81679   1.279   1.553   3.313  0.4355 -0.1116  1.0151
  606MOL0     C81680   1.323   1.607   3.436  0.5264  0.0467  0.0611
  606MOL0     C81681   1.446   1.674   3.451 -0.2012 -0.0114  0.6542
  606MOL0     C81682   1.530   1.682   3.338 -0.0466 -0.2694 -1.2298
  606MOL0     O81683   1.658   1.739   3.343  0.6732 -0.3280  0.1566
  606MOL0     C81684   1.704   1.785   3.474 -0.3739  0.4722  0.1550
  606MOL0     C81685   1.836   1.858   3.440 -0.4494  0.3523  0.0797
  606MOL0     C81686   1.951   1.765   3.397 -0.0339  0.5054 -0.4029
  606MOL0     C81687   2.090   1.835   3.399 -0.2784 -0.5760 -0.9110
  606MOL0     C81688   2.210   1.741   3.414  0.0161 -0.4615  0.5136
  606MOL0     C81689   2.197   1.639   3.298  0.0225  0.0350  0.4111
  606MOL0     C81690   2.323   1.551   3.278 -0.1740 -0.2382 -0.4427
  606MOL0     C81691   2.450   1.636   3.298  0.2925  0.0226  0.0809
  606MOL0     N81692   2.570   1.556   3.251 -0.2645  0.2452 -0.1097
  606MOL0     C81693   2.617   1.544   3.126 -0.0303 -1.1662 -0.3608
  606MOL0     C81694   2.738   1.485   3.142 -0.9883  0.4184  0.8257
  606MOL0     C81695   2.838   1.484   3.031  0.2060 -0.0804 -0.0804
  606MOL0     C81696   2.978   1.540   3.076  0.6770 -0.5697  0.4889
  606MOL0     C81697   3.068   1.433   3.145  0.4359 -0.6043 -0.7507
  606MOL0     C81698   3.144   1.477   3.272  0.2163 -0.0225 -0.8079
  606MOL0     O81699   3.196   1.614   3.270  0.4854 -0.2094  0.0867
  606MOL0     C81700   3.310   1.653   3.207 -0.2371  0.1327 -0.1810
  606MOL0     C81701   3.306   1.786   3.163 -0.5972 -0.0368  0.1812
  606MOL0     C81702   3.417   1.833   3.087 -0.2832  0.3006  0.3244
  606MOL0     C81703   3.528   1.742   3.052 -0.7685  0.1058 -0.0757
  606MOL0     C81704   3.647   1.785   2.977  1.2644 -0.7134  0.7624
  606MOL0     O81705   3.744   1.693   2.955  0.3969 -0.4648 -0.3961
  606MOL0     C81706   3.868   1.740   2.929  0.3449  1.2312  0.3085
  606MOL0     C81707   3.938   1.793   3.038  0.2591  0.0299 -0.5140
  606MOL0     C81708   4.071   1.821   3.023 -0.0665  0.1220  0.1098
  606MOL0     C81709   4.141   1.788   2.906  0.0499  0.0744 -0.9025
  606MOL0     O81710   4.274   1.798   2.871  0.2273  0.2411  0.2217
  606MOL0     C81711   4.354   1.857   2.972 -0.0831  0.4980  0.3975
  606MOL0     C81712   4.503   1.859   2.919  0.3448 -0.0117  0.3709
  606MOL0     C81713   4.607   1.867   3.028  0.4508  0.0196 -0.0143
  606MOL0     C81714   4.748   1.847   2.975 -0.0331 -0.7902 -0.4069
  606MOL0     C81715   4.855   1.872   3.088 -0.5294 -0.1438 -0.6223
  606MOL0     C81716   4.999   1.863   3.041 -0.4493 -0.1735 -0.7964
  606MOL0     C81717   5.093   1.845   3.165 -0.2469 -0.1692 -0.9717
  606MOL0     C81718   5.240   1.829   3.123  0.4407 -0.6873  0.1393
  606MOL0    Cl81719   5.312   1.991   3.122 -0.4574 -0.0533  0.4718
  606MOL0     C81720   4.064   1.743   2.806  0.1316  0.3296  0.1953
  606MOL0     C81721   3.929   1.709   2.815 -0.9906 -0.3040  0.3415
  606MOL0     O81722   3.657   1.904   2.943 -0.0029  0.0680  0.7938
  606MOL0     C81723   3.521   1.616   3.100  0.4447  0.1021  0.2709
  606MOL0     C81724   3.419   1.568   3.173 -0.4168  0.3816 -0.4478
  606MOL0     N81725   2.759   1.447   3.270  0.2843  0.2007  0.3058
  606MOL0     N81726   2.653   1.488   3.338 -0.0815  0.6738 -0.2902
  606MOL0     C81727   1.496   1.621   3.219  0.4214  0.1348  0.7714
  606MOL0     C81728   1.375   1.560   3.207  0.4566 -0.1085 -0.1014
  606MOL0     C81729   0.920   1.491   3.257 -0.1160  0.2685  0.1207
  606MOL0     C81730   0.823   1.594   3.256 -0.0490  0.8787  0.2288
  606MOL0     C81731   0.691   1.579   3.295 -0.4772 -0.2452  0.2828
  606MOL0     C81732   0.632   1.449   3.318 -0.1923 -0.0867  1.1934
  606MOL0     O81733   0.501   1.438   3.342  0.3562  0.4213 -0.2130
  606MOL0     C81734   0.443   1.310   3.376  0.0419  0.2644 -0.4167
  606MOL0     C81735   0.307   1.323   3.443  0.2773 -0.2344 -0.3162
  606MOL0     C81736   0.188   1.313   3.349 -0.1306 -0.5963  0.3057
  606MOL0     C81737   0.196   1.420   3.238 -0.5493  0.0722 -0.4378
  606MOL0     C81738   0.156   1.564   3.281  0.9280 -0.0561  0.6217
  606MOL0     C81739   0.125   1.679   3.317 -0.7201  0.2494  0.3419
  606MOL0     C81740   0.725   1.346   3.317 -0.8467 -0.6265  0.1146
  606MOL0     C81741   0.860   1.365   3.286  0.2392 -0.0664  0.1461
  606MOL0     C81742   0.954   1.249   3.313 -0.2718  0.3410 -1.0552
  606MOL0     H81743   1.244   1.599   3.511 -0.8766 -1.2261 -1.4653
  606MOL0     H81744   1.458   1.725   3.546  1.5720 -0.9120  0.9506
  606MOL0     H81745   1.637   1.852   3.528 -1.2355  1.4420 -1.9834
  606MOL0     H81746   1.729   1.693   3.527  1.5312 -0.9403 -2.8644
  606MOL0     H81747   1.869   1.904   3.534  0.0739  3.4404 -1.4644
  606MOL0     H81748   1.818   1.934   3.364  0.0383 -0.1640 -0.5629
  606MOL0     H81749   1.926   1.731   3.296 -0.0915 -0.9568  0.0829
  606MOL0     H81750   1.948   1.683   3.469 -0.2142 -1.0473 -2.1206
  606MOL0     H81751   2.102   1.898   3.310 -0.9487  1.3314  0.2888
  606MOL0     H81752   2.110   1.885   3.494  1.5880 -1.2408 -0.9047
  606MOL0     H81753   2.302   1.799   3.410 -1.6902  2.3762 -1.7866
  606MOL0     H81754   2.214   1.685   3.508  3.8916 -1.8847 -0.3126
  606MOL0     H81755   2.113   1.572   3.318 -0.6193  0.6696 -0.1225
  606MOL0     H81756   2.179   1.695   3.206 -1.2165  1.1648  1.3093
  606MOL0     H81757   2.325   1.510   3.177 -0.9321 -0.2630 -0.4505
  606MOL0     H81758   2.320   1.471   3.352 -0.3879 -0.3285 -0.5500
  606MOL0     H81759   2.434   1.724   3.236 -0.3790 -0.1350  0.0234
  606MOL0     H81760   2.475   1.665   3.401 -2.2020  1.4944  0.3583
  606MOL0     H81761   2.575   1.596   3.040 -1.8559 -0.3373  0.9761
  606MOL0     H81762   2.850   1.383   2.989  0.7823  0.8876 -2.3808
  606MOL0     H81763   2.805   1.548   2.950  0.4241  0.0575 -0.0598
  606MOL0     H81764   3.029   1.589   2.993  0.2211 -4.4310 -2.3617
  606MOL0     H81765   2.964   1.623   3.145 -0.6554 -0.3707  0.0033
  606MOL0     H81766   3.148   1.404   3.076  2.7298 -0.5287  1.7192
  606MOL0     H81767   3.003   1.352   3.181 -0.4043 -1.9480 -4.7811
  606MOL0     H81768   3.224   1.413   3.309 -1.2163 -1.2570  0.2774
  606MOL0     H81769   3.070   1.478   3.353 -0.4940 -0.6140 -1.4392
  606MOL0     H81770   3.221   1.848   3.189 -1.4988 -0.8252 -0.7959
  606MOL0     H81771   3.439   1.938   3.073 -2.1574  0.8356  1.0287
  606MOL0     H81772   3.896   1.821   3.134  1.5616  1.6715 -0.3752
  606MOL0     H81773   4.126   1.874   3.100 -3.1100  1.5687  1.4772
  606MOL0     H81774   4.321   1.960   2.988  1.6443  0.7875  2.5932
  606MOL0     H81775   4.353   1.795   3.063 -0.3249 -3.3695 -2.0259
  606MOL0     H81776   4.514   1.767   2.860 -0.0951  1.0054 -1.3491
  606MOL0     H81777   4.514   1.933   2.840  0.6212 -2.1367 -1.7117
  606MOL0     H81778   4.602   1.962   3.082  0.0391 -1.6996  3.2820
  606MOL0     H81779   4.576   1.794   3.103 -0.0116  0.5117  0.2837
  606MOL0     H81780   4.778   1.905   2.888 -0.6316  1.2193  0.6699
  606MOL0     H81781   4.747   1.740   2.950 -0.2156 -1.4565  2.1596
  606MOL0     H81782   4.834   1.795   3.162  3.0804 -1.8165 -1.1176
  606MOL0     H81783   4.840   1.975   3.120  1.8791  0.7174 -1.9799
  606MOL0     H81784   5.014   1.777   2.974  1.5765 -2.3815  2.2160
  606MOL0     H81785   5.030   1.958   2.996  2.7982  0.5856  2.6053
  606MOL0     H81786   5.071   1.760   3.229  0.7511  0.0016 -0.3716
  606MOL0     H81787   5.082   1.929   3.235 -0.5789 -0.1919 -0.9942
  606MOL0     H81788   5.296   1.770   3.196  0.2607 -0.8310  0.1611
  606MOL0     H81789   5.249   1.789   3.022  5.0841 -0.4070  0.2013
  606MOL0     H81790   4.112   1.693   2.722  2.2363  1.4864  0.6299
  606MOL0     H81791   3.888   1.655   2.730  0.3447 -1.9879  0.7124
  606MOL0     H81792   3.595   1.542   3.073  0.5779  0.9680 -1.9514
  606MOL0     H81793   3.433   1.473   3.223 -1.3934  1.5432  2.2588
  606MOL0     H81794   1.559   1.634   3.132  0.5261  2.3820  1.1192
  606MOL0     H81795   1.346   1.524   3.109  1.8579 -1.7472  0.0334
  606MOL0     H81796   0.855   1.697   3.248 -4.3308  2.2308 -2.0085
  606MOL0     H81797   0.638   1.669   3.323  1.3495  0.5017  1.4536
  606MOL0     H81798   0.501   1.248   3.446 -0.6929  0.7042  0.6018
  606MOL0     H81799   0.427   1.249   3.287 -0.7126  0.2034 -0.2391
  606MOL0     H81800   0.299   1.420   3.493 -0.1746 -0.6601  0.4562
  606MOL0     H81801   0.292   1.253   3.525  1.9581  0.8283  0.9782
  606MOL0     H81802   0.099   1.321   3.412 -0.9490 -1.4257 -0.6976
  606MOL0     H81803   0.195   1.216   3.298  0.6695  0.1716 -1.1341
  606MOL0     H81804   0.297   1.433   3.197  1.3109  0.7810  3.8550
  606MOL0     H81805   0.135   1.401   3.149  1.6167  1.1850 -2.2647
  606MOL0     H81806   0.123   1.779   3.356  2.8842  0.1719  1.1250
  606MOL0     H81807   0.705   1.244   3.347 -1.7725 -0.4797  0.0489
  606MOL0     H81808   0.900   1.154   3.311  0.0463  0.1204  0.0045
  606MOL0     H81809   1.030   1.245   3.234 -0.8752  0.9479 -1.6873
  606MOL0     H81810   0.999   1.263   3.412  1.8276 -0.5490 -1.8238
  607MOL0     O81811   2.486   1.657  10.712 -0.7683  0.1856 -0.1503
  607MOL0     C81812   2.554   1.624  10.811 -0.1917 -0.6665 -0.3989
  607MOL0     O81813   2.686   1.665  10.848  0.9918  0.4895  0.8359
  607MOL0     C81814   2.751   1.740  10.750 -0.5285 -0.0375 -0.0693
  607MOL0     C81815   2.854   1.684  10.674  1.4148 -0.5089 -0.4581
  607MOL0     C81816   2.923   1.766  10.580 -1.1125  0.4694 -0.3534
  607MOL0     C81817   2.897   1.902  10.562 -0.6777  0.6672 -0.7194
  607MOL0     O81818   2.979   1.963  10.466  0.3771 -0.2037 -0.3262
  607MOL0     C81819   3.007   2.105  10.480  0.7492 -0.8657 -0.2069
  607MOL0     C81820   3.115   2.163  10.394  0.2794  0.4764  0.4415
  607MOL0     C81821   3.244   2.092  10.389  0.3468  1.2152 -0.2324
  607MOL0     C81822   3.337   2.126  10.276 -0.1746 -1.3735 -0.5360
  607MOL0     C81823   3.446   2.018  10.258 -0.8131  0.5166 -0.2377
  607MOL0     C81824   3.534   2.056  10.140 -0.0078  0.1097 -0.6469
  607MOL0     C81825   3.612   1.941  10.089 -1.0931 -0.2203  0.2903
  607MOL0     C81826   3.712   1.888  10.195  0.1656 -0.1951  0.1742
  607MOL0     N81827   3.828   1.980  10.201  1.4524  0.4114  0.2719
  607MOL0     C81828   3.837   2.099  10.267  0.5237  0.7274  0.9358
  607MOL0     C81829   3.955   2.158  10.223  0.1233 -0.0122  0.7960
  607MOL0     C81830   4.002   2.297  10.255 -0.0769 -0.2127  0.5927
  607MOL0     C81831   4.130   2.343  10.177  0.5746  0.3138 -0.0555
  607MOL0     C81832   4.172   2.486  10.192  0.8261  0.7979 -0.4773
  607MOL0     C81833   4.306   2.523  10.127  0.4420  0.7228  0.0073
  607MOL0     O81834   4.424   2.468  10.181 -0.0647  0.2446  0.0016
  607MOL0     C81835   4.550   2.499  10.117  1.2018 -0.2559  0.4816
  607MOL0     C81836   4.561   2.611  10.032 -0.6437  0.1449  0.8894
  607MOL0     C81837   4.686   2.641   9.991 -0.7340 -0.7443  0.4607
  607MOL0     C81838   4.798   2.569  10.025  0.3149  0.5209 -0.0453
  607MOL0     C81839   4.934   2.603   9.959 -0.5006  0.6699  0.8651
  607MOL0     O81840   5.031   2.507   9.978  0.3493 -0.0394 -0.2546
  607MOL0     C81841   5.151   2.502   9.926 -0.4346 -0.9423  0.6483
  607MOL0     C81842   5.203   2.574   9.817  0.2090 -0.2945  0.6494
  607MOL0     C81843   5.335   2.557   9.762 -0.3242  0.3853 -0.3723
  607MOL0     C81844   5.419   2.469   9.835 -0.3653 -0.2703 -0.3932
  607MOL0     O81845   5.539   2.434   9.777 -0.0554 -0.4498  0.2661
  607MOL0     C81846   5.630   2.549   9.768  0.5158  0.6776 -0.0211
  607MOL0     C81847   5.763   2.500   9.708 -1.0590 -0.3863  0.4080
  607MOL0     C81848   5.854   2.619   9.696  0.2032 -1.0474 -0.5057
  607MOL0     C81849   5.990   2.600   9.637  0.0457  0.0886 -0.3030
  607MOL0     C81850   6.062   2.730   9.595 -0.5483 -0.9456  0.9128
  607MOL0     C81851   6.189   2.687   9.513 -0.5191 -0.6039  0.3540
  607MOL0     C81852   6.272   2.809   9.503 -0.4075  0.0943 -1.1828
  607MOL0     C81853   6.415   2.758   9.453 -0.1360  1.1801 -1.1572
  607MOL0    Cl81854   6.523   2.898   9.451  0.0118  0.1227  0.4379
  607MOL0     C81855   5.374   2.400   9.946  1.3596 -0.2469  0.5007
  607MOL0     C81856   5.240   2.412   9.990  0.1017 -0.5394  0.7810
  607MOL0     O81857   4.946   2.702   9.891 -0.1871  0.6608 -0.8349
  607MOL0     C81858   4.787   2.454  10.106 -0.2346  0.3513  0.0872
  607MOL0     C81859   4.660   2.421  10.147 -0.3173  0.6541  0.0580
  607MOL0     N81860   4.022   2.066  10.146  0.1683  0.1449 -0.4285
  607MOL0     N81861   3.940   1.963  10.126 -0.8730 -0.2245  0.0857
  607MOL0     C81862   2.802   1.965  10.647 -0.4431  0.4946 -0.6340
  607MOL0     C81863   2.736   1.879  10.733 -0.0513  0.0565 -0.6765
  607MOL0     C81864   2.488   1.553  10.921  0.7647  1.0381  0.2117
  607MOL0     C81865   2.561   1.443  10.984  0.6325  0.3624  0.4334
  607MOL0     C81866   2.489   1.354  11.066 -0.2040  0.0643  1.0693
  607MOL0     C81867   2.359   1.392  11.111 -0.0696  0.0240  0.6812
  607MOL0     O81868   2.296   1.301  11.195  0.1475  0.2489  0.3807
  607MOL0     C81869   2.176   1.328  11.271  0.0947  0.1584  0.0198
  607MOL0     C81870   2.163   1.247  11.400 -0.4161 -0.6019  0.9389
  607MOL0     C81871   2.268   1.274  11.503 -0.0410  0.2967 -0.7922
  607MOL0     C81872   2.292   1.159  11.605  1.0447  0.3375  0.5288
  607MOL0     C81873   2.164   1.129  11.677  0.0515  0.2001 -0.1021
  607MOL0     C81874   2.063   1.113  11.749  0.4709 -0.2880  0.3119
  607MOL0     C81875   2.286   1.495  11.051  0.1004  0.1901 -0.4885
  607MOL0     C81876   2.356   1.583  10.960 -0.0300 -0.1048 -1.6381
  607MOL0     C81877   2.274   1.694  10.898  0.5347  0.1337  0.4861
  607MOL0     H81878   2.896   1.588  10.703 -0.5653 -0.5189  2.7891
  607MOL0     H81879   3.008   1.733  10.522  0.3277  2.9264  0.2177
  607MOL0     H81880   2.916   2.156  10.447  0.8980  0.4500  1.3137
  607MOL0     H81881   3.038   2.137  10.580 -1.3855  0.9016 -0.0429
  607MOL0     H81882   3.129   2.263  10.437 -3.7214  0.9974  0.9603
  607MOL0     H81883   3.088   2.171  10.288  3.7771  1.2488 -0.5101
  607MOL0     H81884   3.224   1.984  10.384  0.3542  1.2670 -1.7582
  607MOL0     H81885   3.303   2.116  10.479  2.9324 -0.5922 -1.3003
  607MOL0     H81886   3.289   2.127  10.178  0.5176  1.0698 -0.9136
  607MOL0     H81887   3.376   2.222  10.309 -0.7737 -1.6246  1.0011
  607MOL0     H81888   3.498   2.005  10.353 -1.4170 -0.5049 -0.0316
  607MOL0     H81889   3.403   1.918  10.250  0.0712 -0.2656  3.0474
  607MOL0     H81890   3.467   2.081  10.057  0.2854  2.3875 -0.2527
  607MOL0     H81891   3.592   2.142  10.173 -0.0035 -0.4209  0.7811
  607MOL0     H81892   3.659   1.956   9.991 -0.9062 -3.8878 -0.3117
  607MOL0     H81893   3.551   1.854  10.063  0.6185 -0.3574 -4.1553
  607MOL0     H81894   3.665   1.876  10.293  2.1448  0.3234  1.2553
  607MOL0     H81895   3.747   1.790  10.162  1.7888  0.3536  0.1569
  607MOL0     H81896   3.755   2.146  10.320 -1.1489  0.9147 -1.6652
  607MOL0     H81897   3.925   2.369  10.226  1.2297  0.9216 -0.1796
  607MOL0     H81898   4.021   2.302  10.363 -4.1021 -0.5895  1.4691
  607MOL0     H81899   4.211   2.281  10.217  0.2590 -2.0017 -2.6483
  607MOL0     H81900   4.123   2.316  10.071 -1.0840 -1.0970  0.3480
  607MOL0     H81901   4.174   2.517  10.296  2.1476  4.3843 -1.4156
  607MOL0     H81902   4.093   2.550  10.150  0.4993  0.0753 -0.9878
  607MOL0     H81903   4.317   2.631  10.141  0.3476  0.7277  0.0427
  607MOL0     H81904   4.304   2.497  10.021  0.1849 -0.1518  0.2214
  607MOL0     H81905   4.477   2.676  10.008 -1.7220 -1.2589  0.7097
  607MOL0     H81906   4.707   2.719   9.919 -1.8595 -0.9288 -0.0744
  607MOL0     H81907   5.132   2.638   9.766 -0.5752 -1.2735  0.4815
  607MOL0     H81908   5.362   2.609   9.671 -1.0263 -0.3000 -0.9838
  607MOL0     H81909   5.605   2.644   9.719  0.1659  0.0001 -1.1873
  607MOL0     H81910   5.658   2.579   9.870  2.0690 -0.0035 -0.2170
  607MOL0     H81911   5.809   2.415   9.760  2.7557 -0.4707 -2.6609
  607MOL0     H81912   5.750   2.465   9.605  1.9317  1.3534 -0.6842
  607MOL0     H81913   5.807   2.696   9.635  2.6296  0.6500 -0.4001
  607MOL0     H81914   5.860   2.680   9.787 -3.8361  1.2816 -1.5388
  607MOL0     H81915   5.967   2.528   9.558 -0.8718 -0.5330  0.5082
  607MOL0     H81916   6.062   2.551   9.704 -0.1824 -0.9570 -0.7958
  607MOL0     H81917   6.094   2.781   9.686  0.0251 -0.1092  0.2621
  607MOL0     H81918   6.003   2.798   9.532 -2.8165 -2.3845  1.3792
  607MOL0     H81919   6.233   2.602   9.566 -2.2650 -0.2516  2.5084
  607MOL0     H81920   6.163   2.659   9.410  0.4508 -0.4017  0.0462
  607MOL0     H81921   6.276   2.868   9.595  1.0921 -1.0604 -0.4727
  607MOL0     H81922   6.234   2.872   9.422  2.1984 -0.1366 -2.6985
  607MOL0     H81923   6.467   2.690   9.521 -2.6065  1.3439  1.0525
  607MOL0     H81924   6.403   2.711   9.355 -0.4927  0.9425 -1.0026
  607MOL0     H81925   5.434   2.325   9.997 -0.0228 -1.2109  0.7425
  607MOL0     H81926   5.213   2.364  10.083 -0.8621  1.1434  1.4125
  607MOL0     H81927   4.862   2.376  10.117 -0.1181  0.5498  0.7822
  607MOL0     H81928   4.648   2.339  10.218 -0.6876 -0.4095 -1.1805
  607MOL0     H81929   2.775   2.069  10.638  3.9030  2.2349  3.1452
  607MOL0     H81930   2.661   1.927  10.797 -0.2502 -1.2542  0.1237
  607MOL0     H81931   2.666   1.431  10.960  1.3883  0.7658  3.1878
  607MOL0     H81932   2.537   1.266  11.108  1.7164 -0.6576 -2.2345
  607MOL0     H81933   2.094   1.299  11.205  1.2205 -1.5116 -0.7101
  607MOL0     H81934   2.162   1.434  11.292  2.0642  0.4293  0.1553
  607MOL0     H81935   2.155   1.139  11.385  0.8904 -0.8824  2.0685
  607MOL0     H81936   2.067   1.286  11.437  0.9345  3.3320  0.7819
  607MOL0     H81937   2.263   1.376  11.544  1.0758  0.4971 -1.1401
  607MOL0     H81938   2.360   1.285  11.446 -1.0257  0.0963 -2.4788
  607MOL0     H81939   2.316   1.060  11.567 -0.2271  0.2759 -0.1513
  607MOL0     H81940   2.374   1.179  11.675  1.7417  1.1374 -0.4906
  607MOL0     H81941   1.972   1.112  11.806 -0.3763 -0.2625 -0.9945
  607MOL0     H81942   2.186   1.516  11.088 -0.4811 -2.1565 -0.5743
  607MOL0     H81943   2.191   1.707  10.968  0.1427 -1.9926  0.4826
  607MOL0     H81944   2.334   1.785  10.886  3.4922 -1.7639 -0.1327
  607MOL0     H81945   2.247   1.668  10.795 -0.4005  1.7821  0.2894
  608MOL0     O81946   9.085   3.692   4.305 -0.3876  0.0230  0.3305
  608MOL0     C81947   9.041   3.661   4.192 -0.0652  0.2706 -0.7367
  608MOL0     O81948   9.089   3.713   4.073  0.3635 -0.1568  0.2134
  608MOL0     C81949   9.204   3.785   4.067 -0.5403  0.1595 -0.5905
  608MOL0     C81950   9.308   3.736   3.987 -0.4914  0.2099  0.0512
  608MOL0     C81951   9.423   3.811   3.964 -0.6032 -0.5055  0.0567
  608MOL0     C81952   9.446   3.933   4.036  0.0061  0.6361  0.2040
  608MOL0     O81953   9.566   4.004   4.014  0.8016 -0.6460  0.3408
  608MOL0     C81954   9.612   4.012   3.878 -0.0498  0.5262 -0.5749
  608MOL0     C81955   9.694   4.144   3.859 -0.2660  0.1320  0.6216
  608MOL0     C81956   9.828   4.137   3.940  0.4372 -0.0365 -0.4391
  608MOL0     C81957   9.927   4.253   3.899  0.2455  0.7065  0.1848
  608MOL0     C81958  10.050   4.256   3.994 -0.3910  0.0148  0.2576
  608MOL0     C81959  10.152   4.377   3.963 -0.4644  0.4686  1.1540
  608MOL0     C81960  10.290   4.350   4.037  0.8036 -0.9324 -0.1641
  608MOL0     C81961  10.375   4.474   4.016  0.1717  0.3658 -0.2546
  608MOL0     N81962  10.516   4.459   4.051 -1.4095 -0.1219  1.0764
  608MOL0     C81963  10.578   4.532   4.147  0.6630 -0.4677  0.4042
  608MOL0     C81964  10.703   4.482   4.160  0.0724 -0.3511  0.1650
  608MOL0     C81965  10.811   4.531   4.256 -0.7071  0.4397  0.2164
  608MOL0     C81966  10.908   4.640   4.198  0.3219 -0.3502 -0.3801
  608MOL0     C81967  10.987   4.568   4.088 -0.2438  0.1478  0.1788
  608MOL0     C81968  11.098   4.659   4.034 -0.3354  0.4178  0.0625
  608MOL0     O81969  11.067   4.786   3.970  0.9808 -0.4057  0.2956
  608MOL0     C81970  11.171   4.864   3.941  0.3159 -0.1173  0.4091
  608MOL0     C81971  11.285   4.811   3.875  1.1990 -0.1753  0.0698
  608MOL0     C81972  11.392   4.898   3.838  1.0932  0.3994 -0.2047
  608MOL0     C81973  11.390   5.041   3.862  0.4167  0.8325  0.1739
  608MOL0     C81974  11.506   5.133   3.836 -1.0391 -1.0097  1.0646
  608MOL0     O81975  11.608   5.079   3.764 -0.1049  0.1215 -0.4423
  608MOL0     C81976  11.715   5.160   3.734 -0.1692 -0.0664  0.5260
  608MOL0     C81977  11.729   5.228   3.614  0.4246 -1.0216  0.1877
  608MOL0     C81978  11.832   5.321   3.591 -0.5309 -0.2513 -0.4375
  608MOL0     C81979  11.940   5.336   3.672  0.6869 -0.1799  0.5642
  608MOL0     O81980  12.049   5.415   3.639  0.0902  0.0940  0.1210
  608MOL0     C81981  12.081   5.417   3.496 -0.2757 -0.3537  0.2018
  608MOL0     C81982  12.224   5.448   3.477  0.0620  0.1693 -0.4347
  608MOL0     C81983  12.272   5.583   3.538  0.1456  0.4860 -0.4038
  608MOL0     C81984  12.409   5.617   3.496  0.4018 -0.3785 -0.1839
  608MOL0     C81985  12.460   5.747   3.557 -0.0513  0.2627  0.4799
  608MOL0     C81986  12.608   5.759   3.575 -0.1857  0.6615  0.0085
  608MOL0     C81987  12.670   5.685   3.700 -0.0015 -0.4400  0.6181
  608MOL0     C81988  12.818   5.711   3.720  0.1089  0.4583 -0.5029
  608MOL0    Cl81989  12.890   5.871   3.645 -0.1584 -0.2586  0.0857
  608MOL0     C81990  11.939   5.259   3.789  0.8822 -0.2946 -0.7288
  608MOL0     C81991  11.827   5.172   3.823  0.0030 -0.1096  0.4187
  608MOL0     O81992  11.504   5.249   3.876  0.3395 -0.2653  0.1792
  608MOL0     C81993  11.274   5.086   3.917  0.2846 -0.7706  0.1216
  608MOL0     C81994  11.171   5.001   3.965  0.4069  0.0458 -0.2025
  608MOL0     N81995  10.720   4.389   4.058 -0.1490 -1.4241 -0.4078
  608MOL0     N81996  10.608   4.379   3.991  0.7629 -0.2759 -0.4234
  608MOL0     C81997   9.341   3.979   4.121 -0.5762  0.6997 -0.3471
  608MOL0     C81998   9.223   3.911   4.132 -0.1662 -0.0401 -0.3555
  608MOL0     C81999   8.924   3.570   4.186 -0.4059  0.0498  0.8204
  608MOL0     C82000   8.848   3.562   4.304  0.2980  0.5679  0.3977
  608MOL0     C82001   8.738   3.474   4.306  0.2731 -0.7051 -0.5006
  608MOL0     C82002   8.711   3.388   4.197  0.4487  0.5320 -0.3331
  608MOL0     O82003   8.597   3.322   4.211  0.4424  0.2956  0.2709
  608MOL0     C82004   8.563   3.224   4.120 -0.7081  0.0378 -0.2659
  608MOL0     C82005   8.466   3.119   4.186 -0.0471 -0.4939  0.0756
  608MOL0     C82006   8.422   3.034   4.076  0.1261 -0.4656  0.3239
  608MOL0     C82007   8.278   3.065   4.024 -0.5995  0.4270  0.5614
  608MOL0     C82008   8.273   3.178   3.927  0.1225  0.5432 -0.9623
  608MOL0     C82009   8.257   3.277   3.860 -0.6852  0.4788  1.1252
  608MOL0     C82010   8.800   3.390   4.084 -0.0065 -0.3248  0.0528
  608MOL0     C82011   8.910   3.474   4.074  0.6434 -0.8235  0.2746
  608MOL0     C82012   8.994   3.480   3.940  0.0775 -0.7871  0.1755
  608MOL0     H82013   9.313   3.637   3.942 -1.6842  0.7171 -1.2963
  608MOL0     H82014   9.493   3.771   3.891  0.9187 -0.7928  1.5955
  608MOL0     H82015   9.673   3.928   3.844 -2.0593 -2.5870  2.7765
  608MOL0     H82016   9.526   4.013   3.810 -0.2560 -2.9175 -0.5549
  608MOL0     H82017   9.639   4.232   3.892 -0.1182 -1.4800  6.0755
  608MOL0     H82018   9.729   4.162   3.757  0.3479 -1.3795  0.5236
  608MOL0     H82019   9.880   4.041   3.928  3.3303  1.0039  2.2908
  608MOL0     H82020   9.801   4.128   4.045 -0.1813 -0.6551 -0.6423
  608MOL0     H82021   9.958   4.254   3.794  1.0492  3.5263  0.3570
  608MOL0     H82022   9.872   4.347   3.912 -1.4766 -0.1066 -0.9089
  608MOL0     H82023  10.010   4.263   4.096  1.1334 -1.4868  1.0231
  608MOL0     H82024  10.105   4.162   3.982  0.2225  0.1969  1.4514
  608MOL0     H82025  10.182   4.374   3.858 -0.0401 -0.4429  1.2949
  608MOL0     H82026  10.106   4.474   3.986 -1.5926  0.0939  0.5809
  608MOL0     H82027  10.335   4.259   3.996  1.1299 -0.4196 -0.9590
  608MOL0     H82028  10.270   4.340   4.144  1.0488  0.2950  0.0106
  608MOL0     H82029  10.358   4.519   3.917  1.0329  1.8699  0.2495
  608MOL0     H82030  10.341   4.555   4.081  1.2326  0.8067 -0.2331
  608MOL0     H82031  10.532   4.618   4.195  0.6396  0.0144 -0.4535
  608MOL0     H82032  10.768   4.579   4.345  1.1142  0.9153  0.8700
  608MOL0     H82033  10.871   4.448   4.294  0.6484  1.4722  0.3926
  608MOL0     H82034  10.848   4.722   4.157  3.5674  1.7572 -1.2369
  608MOL0     H82035  10.963   4.689   4.278 -3.7534  1.0550  1.8654
  608MOL0     H82036  10.920   4.553   4.003  1.3978  1.2288 -1.3806
  608MOL0     H82037  11.026   4.471   4.122 -1.6672 -0.3939  0.3256
  608MOL0     H82038  11.136   4.594   3.955 -0.4352  0.8426 -0.3387
  608MOL0     H82039  11.157   4.676   4.124 -1.6730  2.7335  0.6077
  608MOL0     H82040  11.296   4.705   3.856  3.3608 -0.1661  1.0065
  608MOL0     H82041  11.482   4.856   3.795  0.3487  0.1910 -1.6212
  608MOL0     H82042  11.654   5.213   3.537  1.3681  0.4296 -1.0684
  608MOL0     H82043  11.839   5.360   3.490  3.9047  0.4222 -0.1071
  608MOL0     H82044  12.056   5.325   3.442  0.3429  0.3320 -1.3102
  608MOL0     H82045  12.024   5.499   3.451  1.5147  0.8372 -0.0083
  608MOL0     H82046  12.278   5.363   3.518 -2.0414 -0.3949  1.3625
  608MOL0     H82047  12.242   5.435   3.370 -1.6074 -2.1243 -0.5097
  608MOL0     H82048  12.196   5.658   3.513 -4.2069 -3.5675 -0.7877
  608MOL0     H82049  12.267   5.574   3.647 -1.3362  1.0178 -0.4066
  608MOL0     H82050  12.406   5.634   3.388 -3.8520  3.0340  0.1692
  608MOL0     H82051  12.479   5.536   3.516  4.1559  2.3335 -1.1679
  608MOL0     H82052  12.407   5.764   3.651 -4.9511  0.4806 -2.0127
  608MOL0     H82053  12.425   5.835   3.503  2.0936  1.2734  0.6369
  608MOL0     H82054  12.656   5.724   3.483 -1.3131  1.6378 -0.9900
  608MOL0     H82055  12.624   5.866   3.592 -0.1340  0.6306  0.1527
  608MOL0     H82056  12.658   5.579   3.676 -3.3818  0.2317 -1.3658
  608MOL0     H82057  12.621   5.702   3.797  0.3241  1.0302  0.5373
  608MOL0     H82058  12.840   5.701   3.827 -0.7728  0.4944 -0.3146
  608MOL0     H82059  12.879   5.632   3.674 -0.8991  0.8659 -2.6450
  608MOL0     H82060  12.025   5.263   3.855  1.9116 -0.2420 -2.0402
  608MOL0     H82061  11.830   5.103   3.907 -0.1352 -0.2300  0.3258
  608MOL0     H82062  11.263   5.193   3.925 -0.6175 -0.6995 -1.5245
  608MOL0     H82063  11.088   5.051   4.015  0.1335  1.1622 -1.7032
  608MOL0     H82064   9.368   4.071   4.171  2.6859  0.3784 -1.2672
  608MOL0     H82065   9.151   3.957   4.199  0.6206  1.0560 -0.2368
  608MOL0     H82066   8.858   3.636   4.383 -0.5028  1.2678 -0.1325
  608MOL0     H82067   8.676   3.475   4.394 -0.5554  0.2450 -1.0697
  608MOL0     H82068   8.658   3.175   4.099 -0.8340 -0.9637  1.3437
  608MOL0     H82069   8.516   3.274   4.035  0.3126  0.3202 -0.6795
  608MOL0     H82070   8.380   3.175   4.224 -0.8486 -1.0230 -0.8986
  608MOL0     H82071   8.508   3.053   4.262 -2.0930 -1.9843  0.0041
  608MOL0     H82072   8.433   2.932   4.114  4.4387  0.5161  2.3250
  608MOL0     H82073   8.486   3.031   3.988  0.3450 -1.5763  0.5024
  608MOL0     H82074   8.242   2.980   3.965  0.3826  1.7524 -2.0915
  608MOL0     H82075   8.212   3.082   4.110 -1.9058  2.1110 -0.6982
  608MOL0     H82076   8.253   3.370   3.807  2.3967  1.4326  2.3224
  608MOL0     H82077   8.777   3.324   4.001  0.1861 -1.0294  0.5393
  608MOL0     H82078   8.986   3.385   3.887 -2.1395 -0.8526  0.5490
  608MOL0     H82079   8.955   3.567   3.886 -0.4374 -1.0000  0.2011
  608MOL0     H82080   9.102   3.489   3.956  0.1295  3.1818 -1.3235
  609MOL0     O82081   9.607   1.556   8.582  0.1820  0.2567  0.0973
  609MOL0     C82082   9.596   1.437   8.588  0.0813  0.2677  0.1331
  609MOL0     O82083   9.692   1.357   8.644 -0.4073 -0.0761  0.7761
  609MOL0     C82084   9.783   1.415   8.724  0.2052 -0.0006  0.0146
  609MOL0     C82085   9.913   1.395   8.689  0.1991  1.6489  0.2517
  609MOL0     C82086  10.008   1.440   8.777 -0.4031  0.2258 -0.4451
  609MOL0     C82087   9.975   1.504   8.900  1.3654  0.4023 -0.7293
  609MOL0     O82088  10.085   1.542   8.965 -0.2405  0.0712 -0.1982
  609MOL0     C82089  10.091   1.681   8.989 -0.7866  0.4224  0.3319
  609MOL0     C82090  10.234   1.725   8.947 -0.7525  0.4869  0.2719
  609MOL0     C82091  10.323   1.690   9.066 -0.9124 -0.7038 -0.2034
  609MOL0     C82092  10.468   1.750   9.054  0.1335  0.0409 -0.2127
  609MOL0     C82093  10.559   1.674   8.957  0.8211 -0.7082  0.0396
  609MOL0     C82094  10.711   1.713   8.974 -0.3455  0.2285  0.6356
  609MOL0     C82095  10.802   1.642   8.872 -0.2030 -0.7945 -0.3679
  609MOL0     C82096  10.951   1.663   8.894 -0.0060 -0.3629 -0.2096
  609MOL0     N82097  11.028   1.601   8.787 -0.1912 -1.0302 -0.6524
  609MOL0     C82098  11.097   1.474   8.780 -1.1686 -0.8241  0.2345
  609MOL0     C82099  11.173   1.480   8.668 -0.3933  0.4454  0.2693
  609MOL0     C82100  11.272   1.382   8.615 -0.0070 -0.6000  0.0783
  609MOL0     C82101  11.374   1.333   8.717  0.3963 -0.1637 -0.3301
  609MOL0     C82102  11.468   1.234   8.650 -0.3804  0.8489  0.2023
  609MOL0     C82103  11.528   1.131   8.745 -0.0006  0.7682 -0.3906
  609MOL0     O82104  11.619   1.188   8.843 -0.0222  1.0330 -0.2007
  609MOL0     C82105  11.752   1.164   8.850 -0.8040  0.5439 -0.6099
  609MOL0     C82106  11.828   1.083   8.769 -0.6800  0.3734  0.3325
  609MOL0     C82107  11.974   1.092   8.770  0.5101 -0.0254 -0.3309
  609MOL0     C82108  12.035   1.171   8.862  0.3049 -0.8661  0.6768
  609MOL0     C82109  12.187   1.172   8.869  0.1090  0.0153 -0.0577
  609MOL0     O82110  12.240   1.228   8.975  0.5612  0.9124 -0.4345
  609MOL0     C82111  12.364   1.179   9.016 -1.0125  0.0465 -0.0076
  609MOL0     C82112  12.425   1.058   8.990 -0.5216  0.0364 -0.4879
  609MOL0     C82113  12.551   1.023   9.042  0.1319 -0.6646  0.0484
  609MOL0     C82114  12.625   1.110   9.126 -0.4383 -0.2957 -0.3013
  609MOL0     O82115  12.735   1.065   9.200 -0.4778  0.1780  0.3849
  609MOL0     C82116  12.726   1.031   9.340  0.9828  0.0740  1.1908
  609MOL0     C82117  12.858   0.970   9.381  0.2158  0.4004 -0.0086
  609MOL0     C82118  12.859   0.959   9.531 -0.5606 -0.5927  0.5649
  609MOL0     C82119  12.984   0.895   9.594 -0.0663 -0.4824  0.7720
  609MOL0     C82120  12.944   0.836   9.730  0.3379 -0.9949 -0.2226
  609MOL0     C82121  13.054   0.820   9.834  0.3561 -0.1345 -0.0670
  609MOL0     C82122  13.163   0.736   9.787  0.2202 -0.0446  0.6303
  609MOL0     C82123  13.260   0.710   9.898 -0.5441  0.5931  0.1675
  609MOL0    Cl82124  13.373   0.580   9.858 -0.1196 -0.0124 -0.0921
  609MOL0     C82125  12.561   1.234   9.155  0.4053 -0.4334  0.6943
  609MOL0     C82126  12.439   1.268   9.094 -0.5775 -0.0947  0.0351
  609MOL0     O82127  12.251   1.133   8.773 -0.1970  0.8373 -0.4581
  609MOL0     C82128  11.956   1.239   8.956  0.2783  0.2477  0.0831
  609MOL0     C82129  11.811   1.235   8.958 -0.2611 -0.3239  0.1590
  609MOL0     N82130  11.144   1.599   8.598 -0.3338 -0.7370 -0.1449
  609MOL0     N82131  11.054   1.665   8.671 -0.4918 -0.7083 -0.2612
  609MOL0     C82132   9.841   1.516   8.932 -0.6497  0.0029  0.3378
  609MOL0     C82133   9.745   1.482   8.841 -0.0727  0.9724  0.3996
  609MOL0     C82134   9.500   1.378   8.487 -0.5816 -0.7007 -0.3564
  609MOL0     C82135   9.536   1.256   8.430  0.3659 -0.2994  0.6097
  609MOL0     C82136   9.442   1.189   8.347  0.2254 -1.0102  0.8871
  609MOL0     C82137   9.318   1.240   8.321 -0.0291 -0.8323 -0.5569
  609MOL0     O82138   9.231   1.167   8.247 -1.4346  0.4485  0.5202
  609MOL0     C82139   9.095   1.210   8.226  1.0752  0.6554  0.6961
  609MOL0     C82140   9.006   1.085   8.197  0.3632 -0.6475 -0.3593
  609MOL0     C82141   8.875   1.128   8.127 -0.9359  0.1799  0.0847
  609MOL0     C82142   8.882   1.140   7.973  0.6212  0.5147  0.0253
  609MOL0     C82143   8.836   1.009   7.919  1.6048  0.0257 -0.3311
  609MOL0     C82144   8.794   0.898   7.884  0.0090  0.1060 -0.4133
  609MOL0     C82145   9.286   1.357   8.378 -0.2391  0.7598  0.5949
  609MOL0     C82146   9.374   1.431   8.451 -1.1960 -0.6616 -0.4798
  609MOL0     C82147   9.346   1.573   8.491 -0.5049  0.3477 -0.6443
  609MOL0     H82148   9.938   1.349   8.595 -2.0996  1.1846 -0.1718
  609MOL0     H82149  10.110   1.419   8.747 -0.3960 -2.6978  1.1911
  609MOL0     H82150  10.012   1.726   8.929  0.5202 -1.4990 -3.1017
  609MOL0     H82151  10.075   1.700   9.096  1.2909  1.0045  0.6003
  609MOL0     H82152  10.243   1.831   8.922  0.3171  0.3145 -0.1048
  609MOL0     H82153  10.267   1.667   8.860  2.2362 -1.9222  2.7623
  609MOL0     H82154  10.319   1.581   9.070  1.2911 -0.8565 -0.6483
  609MOL0     H82155  10.281   1.744   9.151  1.0864  0.0857  0.3356
  609MOL0     H82156  10.463   1.855   9.025  2.8220 -0.2382 -1.9203
  609MOL0     H82157  10.499   1.748   9.159  0.6721 -0.1221 -0.3764
  609MOL0     H82158  10.540   1.567   8.970 -2.2567  0.0170  2.6504
  609MOL0     H82159  10.529   1.699   8.855  0.8553  0.5674  0.3292
  609MOL0     H82160  10.709   1.820   8.953 -1.3129  0.4174  1.5700
  609MOL0     H82161  10.739   1.692   9.078 -1.0910  0.7935  0.9580
  609MOL0     H82162  10.767   1.679   8.775  0.0348  2.0443  0.5407
  609MOL0     H82163  10.779   1.535   8.880 -1.6581 -0.3725  2.2142
  609MOL0     H82164  10.965   1.771   8.909 -1.4903 -0.2974  1.0166
  609MOL0     H82165  10.980   1.618   8.990 -3.6327 -1.3060  0.5906
  609MOL0     H82166  11.085   1.404   8.862 -3.0960  0.4277  1.1100
  609MOL0     H82167  11.220   1.299   8.566 -0.6176  1.3393 -2.7957
  609MOL0     H82168  11.324   1.440   8.538 -2.8015  0.4074 -1.1831
  609MOL0     H82169  11.419   1.418   8.769 -0.9650  1.5253 -1.7828
  609MOL0     H82170  11.313   1.270   8.783  1.4142  1.0308  1.8795
  609MOL0     H82171  11.556   1.275   8.599 -1.0714  1.1733 -0.7488
  609MOL0     H82172  11.412   1.179   8.574 -0.8904  0.7381  0.6521
  609MOL0     H82173  11.579   1.059   8.681  1.0308  0.0322  1.1924
  609MOL0     H82174  11.446   1.083   8.800 -0.4309  1.8188 -0.0763
  609MOL0     H82175  11.780   1.016   8.698 -0.3507 -0.3960  0.8155
  609MOL0     H82176  12.038   1.025   8.714 -0.9280 -2.5300  0.8549
  609MOL0     H82177  12.372   0.999   8.916  1.2328  1.4827 -3.0890
  609MOL0     H82178  12.591   0.931   9.003 -1.6451 -2.5848  2.4655
  609MOL0     H82179  12.704   1.125   9.392 -0.0857  0.1805  0.5891
  609MOL0     H82180  12.640   0.965   9.357 -1.1064  1.7316 -1.8817
  609MOL0     H82181  12.858   0.870   9.337 -3.7266  0.0018  0.4848
  609MOL0     H82182  12.944   1.023   9.340  0.6405 -2.7736 -3.7970
  609MOL0     H82183  12.854   1.059   9.576  4.3827  0.9764 -1.6443
  609MOL0     H82184  12.768   0.904   9.560 -0.7346  0.1338  1.4525
  609MOL0     H82185  13.056   0.977   9.601  0.1234 -0.0124 -3.5878
  609MOL0     H82186  13.027   0.818   9.528 -1.2024  0.8844 -1.7125
  609MOL0     H82187  12.901   0.738   9.709 -0.1398 -0.8804  0.1912
  609MOL0     H82188  12.861   0.895   9.771  2.5691  0.4003  2.6660
  609MOL0     H82189  13.091   0.918   9.866 -1.4803  0.9319 -1.0666
  609MOL0     H82190  13.007   0.759   9.911 -1.8392  0.3985 -0.8971
  609MOL0     H82191  13.220   0.773   9.702  0.2461 -0.4159  0.4862
  609MOL0     H82192  13.124   0.638   9.760  1.1444 -0.3077  0.2238
  609MOL0     H82193  13.322   0.798   9.916  1.8407 -1.0923  0.5922
  609MOL0     H82194  13.207   0.697   9.993  0.6767  1.0192  0.9199
  609MOL0     H82195  12.604   1.300   9.230 -2.0174  0.1061  1.7252
  609MOL0     H82196  12.397   1.365   9.119  0.0684 -0.0926  1.2314
  609MOL0     H82197  12.003   1.287   9.041  0.6818  1.0061 -0.5519
  609MOL0     H82198  11.758   1.296   9.031 -1.4875  3.6131 -3.5939
  609MOL0     H82199   9.801   1.555   9.025 -1.8936  1.4706 -0.7699
  609MOL0     H82200   9.641   1.483   8.871 -0.3883  0.0730 -0.5942
  609MOL0     H82201   9.633   1.207   8.440 -0.2357 -1.7579 -0.2733
  609MOL0     H82202   9.448   1.093   8.297 -0.1652  0.8934 -3.2870
  609MOL0     H82203   9.095   1.280   8.142 -2.1743 -1.7107 -1.5368
  609MOL0     H82204   9.040   1.253   8.311 -1.5386 -0.4831 -0.3207
  609MOL0     H82205   8.990   1.042   8.297  0.5391  1.8380  0.8187
  609MOL0     H82206   9.059   1.009   8.140 -0.4705 -1.2285 -0.3830
  609MOL0     H82207   8.840   1.221   8.173 -1.6704 -1.0678  2.2223
  609MOL0     H82208   8.807   1.048   8.158 -1.4433 -0.0837 -1.6246
  609MOL0     H82209   8.824   1.225   7.936  0.9264  1.8704  2.4170
  609MOL0     H82210   8.988   1.142   7.944  0.2047  0.5416 -1.5222
  609MOL0     H82211   8.758   0.801   7.855  0.9475 -1.5293  3.2134
  609MOL0     H82212   9.185   1.395   8.366 -0.2750  1.0198  1.6633
  609MOL0     H82213   9.327   1.578   8.598 -0.7118 -0.5489 -0.6366
  609MOL0     H82214   9.420   1.644   8.451 -0.9186  1.4724  0.4931
  609MOL0     H82215   9.254   1.596   8.437 -1.6424 -3.0385 -0.3651
  610MOL0     O82216  11.045   7.702   8.091  0.0806 -0.3856  0.1731
  610MOL0     C82217  11.027   7.808   8.145  0.4998 -0.7009  0.6205
  610MOL0     O82218  11.124   7.909   8.147 -0.5018 -0.0702  0.6538
  610MOL0     C82219  11.252   7.878   8.092 -0.4709  0.1121 -0.1833
  610MOL0     C82220  11.341   7.799   8.170 -0.2541 -0.0041 -0.5289
  610MOL0     C82221  11.460   7.751   8.109  0.1190  0.6337 -0.0292
  610MOL0     C82222  11.498   7.792   7.981  0.2219 -0.1862 -0.2892
  610MOL0     O82223  11.608   7.758   7.918 -0.3644  0.3468  0.0188
  610MOL0     C82224  11.644   7.617   7.918  0.2248 -0.0438 -0.1149
  610MOL0     C82225  11.785   7.594   7.875 -0.5993 -0.0047 -1.4902
  610MOL0     C82226  11.886   7.638   7.976  0.1478 -0.0427  0.1110
  610MOL0     C82227  12.031   7.631   7.916 -0.7699  0.7157  0.0120
  610MOL0     C82228  12.144   7.650   8.014  0.3766  0.6755  0.0327
  610MOL0     C82229  12.266   7.652   7.928 -0.3609  1.6903 -0.1952
  610MOL0     C82230  12.391   7.602   8.008 -0.7945 -0.3701  0.5166
  610MOL0     C82231  12.468   7.713   8.068  0.0386  0.3133  0.3269
  610MOL0     N82232  12.604   7.668   8.085 -0.7237 -0.4337 -0.7191
  610MOL0     C82233  12.671   7.640   8.204  0.1082  0.9448  0.4150
  610MOL0     C82234  12.804   7.634   8.177  1.1282  0.6867 -0.5190
  610MOL0     C82235  12.916   7.601   8.274  0.2257 -0.3637  0.4979
  610MOL0     C82236  13.060   7.659   8.248  0.2158 -0.4615  0.4471
  610MOL0     C82237  13.158   7.640   8.368  0.4932  0.3362  0.2486
  610MOL0     C82238  13.295   7.683   8.345  0.1893 -0.7512 -0.1018
  610MOL0     O82239  13.357   7.586   8.264 -0.1702  0.7169 -0.4022
  610MOL0     C82240  13.482   7.606   8.206  0.5054  0.7095  0.0997
  610MOL0     C82241  13.576   7.714   8.221  0.8155 -0.3076 -0.3059
  610MOL0     C82242  13.701   7.709   8.148  0.4017 -0.6115 -0.8178
  610MOL0     C82243  13.742   7.600   8.073 -0.0127 -0.3242 -0.3955
  610MOL0     C82244  13.886   7.590   8.031 -0.0999 -0.4973  0.0183
  610MOL0     O82245  13.962   7.711   8.026  0.3140  0.0380  0.3719
  610MOL0     C82246  14.094   7.698   7.992 -0.1111 -0.0060 -0.7599
  610MOL0     C82247  14.140   7.645   7.872  0.8045  0.0038  0.2757
  610MOL0     C82248  14.277   7.638   7.841 -0.4465 -0.9671 -0.1555
  610MOL0     C82249  14.367   7.696   7.931  0.0084 -0.8035 -0.2049
  610MOL0     O82250  14.503   7.721   7.904 -0.1486 -0.0430  0.4856
  610MOL0     C82251  14.573   7.619   7.825 -0.0142 -0.0624 -0.5029
  610MOL0     C82252  14.571   7.634   7.669 -0.1809  0.4023 -0.9341
  610MOL0     C82253  14.664   7.750   7.640  0.9030  0.5020  0.1316
  610MOL0     C82254  14.795   7.690   7.605  0.7566 -0.5850 -0.0591
  610MOL0     C82255  14.874   7.802   7.533 -0.0936 -1.0169 -0.5815
  610MOL0     C82256  14.870   7.952   7.592  0.5289 -0.1061  0.3836
  610MOL0     C82257  14.984   8.038   7.536 -0.0606 -0.6933  1.1884
  610MOL0     C82258  14.948   8.075   7.396 -0.2410  0.1242 -0.0708
  610MOL0    Cl82259  15.092   8.143   7.312 -0.4094  0.5650 -0.2403
  610MOL0     C82260  14.327   7.750   8.053  0.1484 -0.4001  0.8559
  610MOL0     C82261  14.196   7.743   8.080 -0.7524 -0.1479 -0.0533
  610MOL0     O82262  13.929   7.478   8.000 -0.1222 -0.5095  0.4065
  610MOL0     C82263  13.650   7.486   8.070  0.8208 -0.3134 -1.2782
  610MOL0     C82264  13.526   7.497   8.132 -0.0423 -0.1578  0.7055
  610MOL0     N82265  12.815   7.658   8.041  0.2411  0.8474 -0.2720
  610MOL0     N82266  12.697   7.680   7.989  0.3611  0.2889 -0.4243
  610MOL0     C82267  11.421   7.886   7.922 -0.2160 -0.3459 -0.0837
  610MOL0     C82268  11.292   7.917   7.968  0.7704 -0.2275 -0.0722
  610MOL0     C82269  10.888   7.837   8.208  0.2176  0.7585 -0.0561
  610MOL0     C82270  10.861   7.973   8.242 -0.3082 -0.1121 -0.0673
  610MOL0     C82271  10.739   8.012   8.295 -0.8830 -0.0784  1.2317
  610MOL0     C82272  10.646   7.916   8.328  0.0861 -0.1294 -0.7110
  610MOL0     O82273  10.536   7.921   8.405 -0.6271  0.1257  0.6122
  610MOL0     C82274  10.498   8.044   8.448  0.5463  0.7847 -0.5187
  610MOL0     C82275  10.368   8.027   8.530  0.7097  0.5824  0.2269
  610MOL0     C82276  10.316   8.160   8.589  0.6089 -0.1758  0.3232
  610MOL0     C82277  10.417   8.236   8.677  0.1924  1.1878  0.2675
  610MOL0     C82278  10.347   8.341   8.759 -1.0003  0.8151  0.0963
  610MOL0     C82279  10.289   8.439   8.801  0.0626 -0.4978  0.3513
  610MOL0     C82280  10.664   7.786   8.291 -0.4332 -0.0500 -0.3179
  610MOL0     C82281  10.789   7.745   8.233 -0.0878  0.6679 -0.0577
  610MOL0     C82282  10.803   7.596   8.219  0.4192 -0.1402  0.5507
  610MOL0     H82283  11.316   7.779   8.274  1.0286  2.0426  0.2228
  610MOL0     H82284  11.516   7.693   8.182  1.1609  1.9603  0.2734
  610MOL0     H82285  11.648   7.596   8.025  2.2262  3.3629  0.6303
  610MOL0     H82286  11.567   7.570   7.856 -0.3994  2.0442 -1.0146
  610MOL0     H82287  11.797   7.652   7.783 -0.0428  3.4522  0.6112
  610MOL0     H82288  11.804   7.492   7.840 -0.7107 -0.5801  0.0470
  610MOL0     H82289  11.881   7.570   8.062 -0.6900 -1.7994 -1.2611
  610MOL0     H82290  11.856   7.738   8.010 -4.2286 -0.1756 -2.5792
  610MOL0     H82291  12.049   7.531   7.876 -0.9221 -0.3507  2.3896
  610MOL0     H82292  12.040   7.703   7.835  2.0486  0.0548 -0.3641
  610MOL0     H82293  12.143   7.740   8.076 -0.7410  2.8909 -2.9550
  610MOL0     H82294  12.153   7.570   8.089 -0.6878 -0.5433 -1.0825
  610MOL0     H82295  12.260   7.586   7.840  0.2753  0.5510  0.5849
  610MOL0     H82296  12.276   7.753   7.888  2.2622  1.0531 -1.4165
  610MOL0     H82297  12.456   7.552   7.936 -0.2468  0.3863  0.4707
  610MOL0     H82298  12.373   7.522   8.080  0.9609  1.3946  3.1046
  610MOL0     H82299  12.463   7.788   7.989 -1.1710 -0.0119  0.0686
  610MOL0     H82300  12.429   7.761   8.159 -1.2905  0.2484 -0.1862
  610MOL0     H82301  12.625   7.605   8.295 -1.9967  1.5793 -0.3439
  610MOL0     H82302  12.880   7.638   8.371  0.1407  3.3809 -0.8006
  610MOL0     H82303  12.921   7.492   8.284  1.2220 -0.2027  2.4457
  610MOL0     H82304  13.109   7.617   8.160  1.5541  2.2310 -0.1878
  610MOL0     H82305  13.049   7.764   8.219  0.2082 -0.7833 -0.7662
  610MOL0     H82306  13.155   7.535   8.397 -0.3963  0.7168  1.6420
  610MOL0     H82307  13.123   7.690   8.458  0.9016  0.4867  0.3227
  610MOL0     H82308  13.355   7.700   8.435  0.4982  0.8142 -0.5568
  610MOL0     H82309  13.291   7.784   8.302  2.9213 -0.4862  0.0551
  610MOL0     H82310  13.555   7.794   8.292 -2.0919 -0.5673 -0.7299
  610MOL0     H82311  13.780   7.779   8.170  1.5106 -2.2696  0.7862
  610MOL0     H82312  14.074   7.605   7.795 -0.0015 -1.3637  1.6191
  610MOL0     H82313  14.312   7.601   7.746  2.0966  1.7295 -0.4157
  610MOL0     H82314  14.677   7.622   7.861 -0.2777  1.4575  0.2143
  610MOL0     H82315  14.544   7.515   7.844  0.4657 -0.0983  0.0842
  610MOL0     H82316  14.606   7.541   7.624 -1.6844  0.1459 -1.6311
  610MOL0     H82317  14.470   7.654   7.633 -0.8609  1.4089  1.3399
  610MOL0     H82318  14.621   7.803   7.554 -0.7741  0.1808  0.7419
  610MOL0     H82319  14.685   7.813   7.727  2.7788 -0.3100  0.3196
  610MOL0     H82320  14.788   7.601   7.542 -0.3926  0.6872 -1.8054
  610MOL0     H82321  14.829   7.661   7.705 -0.3955  0.3600  0.6452
  610MOL0     H82322  14.839   7.803   7.430 -2.5405 -0.6957  0.1891
  610MOL0     H82323  14.978   7.770   7.540  0.1072  0.0045  2.0662
  610MOL0     H82324  14.773   7.997   7.571  0.6182 -0.0991 -0.0092
  610MOL0     H82325  14.903   7.954   7.697  0.8879  0.5171  0.2622
  610MOL0     H82326  15.081   7.988   7.546 -1.1915 -3.9852 -2.0223
  610MOL0     H82327  14.979   8.120   7.609  0.0918 -1.5257  2.1657
  610MOL0     H82328  14.909   7.994   7.334 -2.3781 -0.3121  1.7085
  610MOL0     H82329  14.874   8.156   7.390 -0.8867 -0.4918 -0.7976
  610MOL0     H82330  14.404   7.777   8.125  2.2344 -3.9340  0.1882
  610MOL0     H82331  14.178   7.788   8.177  1.2901 -0.3453  0.4561
  610MOL0     H82332  13.685   7.390   8.034  3.8013 -0.8763  2.4458
  610MOL0     H82333  13.451   7.420   8.114 -1.6486  1.7444 -1.3684
  610MOL0     H82334  11.456   7.929   7.828  1.7485 -1.9529 -0.1618
  610MOL0     H82335  11.227   7.985   7.914 -0.1960 -2.6987 -2.2671
  610MOL0     H82336  10.931   8.054   8.223 -1.6330  1.3709  1.0112
  610MOL0     H82337  10.732   8.116   8.326  0.2768 -0.1658  1.8581
  610MOL0     H82338  10.484   8.110   8.362 -0.0963 -1.0586 -1.8952
  610MOL0     H82339  10.567   8.092   8.518 -0.3781  0.2043  0.8409
  610MOL0     H82340  10.370   7.941   8.598 -1.4690 -1.6678 -2.3168
  610MOL0     H82341  10.292   7.986   8.463  0.8673  1.4481 -0.4933
  610MOL0     H82342  10.224   8.137   8.643 -0.8802 -0.5566 -2.1998
  610MOL0     H82343  10.281   8.219   8.504  0.5677  1.3289  1.3453
  610MOL0     H82344  10.478   8.171   8.741  1.5333  1.3027 -0.8420
  610MOL0     H82345  10.481   8.294   8.610 -0.7897  1.5672 -0.3555
  610MOL0     H82346  10.242   8.528   8.839 -0.4077 -1.4753  2.2101
  610MOL0     H82347  10.580   7.720   8.312  0.0446 -0.1427  1.4458
  610MOL0     H82348  10.733   7.552   8.291 -0.1756  2.2971  1.5580
  610MOL0     H82349  10.779   7.566   8.117 -1.1597  0.7318  0.6237
  610MOL0     H82350  10.907   7.574   8.242  0.7755  1.7843  0.9327
  611MOL0     O82351   7.398   5.807   9.972 -0.0538 -0.0154  0.3249
  611MOL0     C82352   7.334   5.700   9.957  0.3924  0.2319  0.2741
  611MOL0     O82353   7.386   5.571   9.956  0.4412  1.1145 -0.2227
  611MOL0     C82354   7.516   5.543   9.946  0.0945  0.0381 -0.8459
  611MOL0     C82355   7.617   5.629   9.911 -0.5992  0.7822  0.2455
  611MOL0     C82356   7.749   5.583   9.907 -0.9004  0.1739  0.0754
  611MOL0     C82357   7.789   5.462   9.950  0.7481  0.9813  0.1268
  611MOL0     O82358   7.924   5.417   9.935  0.1733 -0.5724  0.7141
  611MOL0     C82359   7.965   5.309  10.027 -0.2366  0.3540  0.1780
  611MOL0     C82360   8.107   5.275   9.996 -0.4884  0.3105 -0.0419
  611MOL0     C82361   8.142   5.133  10.047 -0.3657  0.1088 -0.8646
  611MOL0     C82362   8.280   5.069   9.995  0.1970  0.0143 -0.5514
  611MOL0     C82363   8.286   4.928  10.027 -0.3832  0.0981 -0.0598
  611MOL0     C82364   8.323   4.897  10.172 -0.6838  0.7468  0.3880
  611MOL0     C82365   8.359   4.742  10.182 -0.0341 -0.3086  0.3620
  611MOL0     C82366   8.496   4.691  10.118  0.8467 -0.1732 -0.3106
  611MOL0     N82367   8.615   4.769  10.161  0.1810 -0.1627  0.5437
  611MOL0     C82368   8.679   4.755  10.283  0.5031  0.8220 -0.1153
  611MOL0     C82369   8.797   4.821  10.264  0.9543 -0.2280 -0.3810
  611MOL0     C82370   8.909   4.821  10.369 -0.3712 -0.5770  0.0248
  611MOL0     C82371   8.968   4.961  10.401  0.2134  0.8079 -0.4411
  611MOL0     C82372   9.101   4.984  10.321  0.2795  0.7278 -0.0055
  611MOL0     C82373   9.174   5.100  10.386  1.6488  0.2347 -0.5990
  611MOL0     O82374   9.237   5.044  10.501  0.9505  0.2933 -0.0130
  611MOL0     C82375   9.341   5.110  10.562  0.6235 -1.0386 -0.1956
  611MOL0     C82376   9.402   5.218  10.506 -0.5830  0.1873  1.4713
  611MOL0     C82377   9.510   5.277  10.568  0.6037 -0.5921 -0.2297
  611MOL0     C82378   9.569   5.231  10.686  0.1045 -0.0388  0.1855
  611MOL0     C82379   9.701   5.276  10.734  1.2177  0.2124  0.4388
  611MOL0     O82380   9.764   5.184  10.815 -0.3968  0.6502  0.5150
  611MOL0     C82381   9.894   5.227  10.845  0.6933  0.6474 -0.0193
  611MOL0     C82382   9.924   5.296  10.970 -0.0451  0.2825  1.1543
  611MOL0     C82383  10.047   5.346  10.995  0.1844 -0.4409  0.7160
  611MOL0     C82384  10.154   5.322  10.906  0.0581  0.6775  0.0232
  611MOL0     O82385  10.283   5.367  10.926 -0.0026 -0.0134  0.0965
  611MOL0     C82386  10.366   5.275  11.010  0.2897 -0.7226  0.7637
  611MOL0     C82387  10.472   5.199  10.929  0.2837 -0.0610 -0.0297
  611MOL0     C82388  10.547   5.302  10.835 -0.5962  0.2858  0.4945
  611MOL0     C82389  10.615   5.428  10.898  0.1589  0.5265 -0.6003
  611MOL0     C82390  10.712   5.394  11.006  0.0049  0.6201 -0.1982
  611MOL0     C82391  10.819   5.291  10.962  1.0198  0.7587 -0.0732
  611MOL0     C82392  10.935   5.288  11.054 -0.1896  0.7200 -0.2786
  611MOL0     C82393  11.032   5.163  11.064  0.4426 -0.5747  0.2295
  611MOL0    Cl82394  11.208   5.210  11.083 -0.0861 -0.2031  0.4755
  611MOL0     C82395  10.122   5.262  10.782 -0.4257  0.1640 -0.4412
  611MOL0     C82396   9.988   5.221  10.751  0.1661 -0.1739  0.3824
  611MOL0     O82397   9.744   5.387  10.701  0.9133  0.5950 -0.4764
  611MOL0     C82398   9.502   5.122  10.740  1.6049 -0.7532 -0.3519
  611MOL0     C82399   9.381   5.063  10.684 -0.9383  0.0069 -0.4924
  611MOL0     N82400   8.805   4.878  10.139 -0.5480 -0.9638  0.0938
  611MOL0     N82401   8.695   4.847  10.079  0.6641 -0.7379  0.0304
  611MOL0     C82402   7.681   5.374   9.991 -0.4774  0.2557 -0.2060
  611MOL0     C82403   7.552   5.413   9.983 -0.9627  0.1847  0.2188
  611MOL0     C82404   7.187   5.707   9.929  0.1410  0.3061  0.5568
  611MOL0     C82405   7.106   5.585   9.931  0.1832 -0.5094  0.4513
  611MOL0     C82406   6.968   5.579   9.900 -0.2296 -0.4975  0.1973
  611MOL0     C82407   6.889   5.693   9.877 -0.4629  0.0026 -0.7517
  611MOL0     O82408   6.761   5.697   9.843  0.0482 -0.0840  0.0331
  611MOL0     C82409   6.687   5.573   9.831 -0.1285  1.3092 -0.8687
  611MOL0     C82410   6.539   5.604   9.813 -0.3827 -0.0303 -0.2560
  611MOL0     C82411   6.449   5.477   9.823  0.4873  0.6030 -0.5413
  611MOL0     C82412   6.300   5.517   9.829 -0.7746  0.5249 -0.5535
  611MOL0     C82413   6.224   5.438   9.922 -0.5363  0.3797 -0.0465
  611MOL0     C82414   6.163   5.362   9.998  0.6433 -0.3500  0.1208
  611MOL0     C82415   6.962   5.810   9.884 -0.2081 -0.7455 -0.0286
  611MOL0     C82416   7.103   5.819   9.908 -0.2981 -0.2777 -0.4408
  611MOL0     C82417   7.161   5.960   9.902  0.6709  0.1511 -0.1988
  611MOL0     H82418   7.597   5.733   9.887  3.4081  1.5063 -0.8083
  611MOL0     H82419   7.829   5.646   9.868 -0.0659 -0.2269  1.0899
  611MOL0     H82420   7.949   5.338  10.132  0.7280 -2.7133  1.2897
  611MOL0     H82421   7.906   5.220  10.007 -0.3022  0.1342  1.2985
  611MOL0     H82422   8.174   5.351  10.038 -1.2293  0.4760  0.8541
  611MOL0     H82423   8.140   5.267   9.892  4.7357 -0.1884  1.3383
  611MOL0     H82424   8.057   5.067  10.032 -1.0205  0.2875  1.4998
  611MOL0     H82425   8.149   5.135  10.157  1.1407 -1.7098 -0.8879
  611MOL0     H82426   8.292   5.085   9.888  1.0237 -2.0741 -0.8137
  611MOL0     H82427   8.364   5.116  10.048  1.9487 -2.4581 -0.9754
  611MOL0     H82428   8.193   4.880   9.994 -1.9118  1.4900  1.9795
  611MOL0     H82429   8.365   4.885   9.965  1.0468  0.6105  1.3255
  611MOL0     H82430   8.410   4.956  10.204 -0.7348  0.2777  1.4239
  611MOL0     H82431   8.237   4.918  10.235 -0.7496  2.0669 -0.1051
  611MOL0     H82432   8.277   4.694  10.129  0.3021  1.0713 -1.5054
  611MOL0     H82433   8.368   4.718  10.289  0.5004  0.5522  0.5246
  611MOL0     H82434   8.504   4.582  10.127 -0.1876 -0.3723 -1.5253
  611MOL0     H82435   8.486   4.700  10.009  1.2334  0.9415 -0.2698
  611MOL0     H82436   8.642   4.707  10.372 -0.8902  0.3840 -0.9054
  611MOL0     H82437   8.855   4.798  10.462 -3.9511 -1.3025 -2.0437
  611MOL0     H82438   8.980   4.745  10.336 -0.3640  0.6024 -3.0377
  611MOL0     H82439   8.899   5.039  10.368  1.3193  1.7523 -0.5793
  611MOL0     H82440   8.971   4.970  10.510 -2.6690 -1.5958 -0.0394
  611MOL0     H82441   9.067   5.019  10.224 -1.2275  1.3198  0.7077
  611MOL0     H82442   9.161   4.893  10.315 -2.3433 -1.4341  3.0376
  611MOL0     H82443   9.109   5.185  10.408  0.9693  0.0541 -1.8102
  611MOL0     H82444   9.259   5.129  10.324  2.8587  0.3162  1.0325
  611MOL0     H82445   9.370   5.270  10.416 -0.4917 -1.4256  0.4711
  611MOL0     H82446   9.565   5.354  10.516 -0.8154 -0.1292 -1.1265
  611MOL0     H82447   9.851   5.336  11.039 -2.1899 -1.5490  0.0817
  611MOL0     H82448  10.058   5.414  11.079 -0.1076 -0.6163  0.8986
  611MOL0     H82449  10.409   5.340  11.086  0.9333  1.0531 -1.0298
  611MOL0     H82450  10.304   5.194  11.048 -0.1120  0.5785  3.0723
  611MOL0     H82451  10.548   5.148  10.988 -0.3607 -2.7948 -1.4119
  611MOL0     H82452  10.424   5.117  10.875  2.3547 -0.4035 -1.4394
  611MOL0     H82453  10.618   5.252  10.767 -0.4405 -0.4125  1.1539
  611MOL0     H82454  10.474   5.336  10.761  2.6918  0.9810 -2.7226
  611MOL0     H82455  10.545   5.493  10.950  3.0115 -0.7875  5.8085
  611MOL0     H82456  10.659   5.485  10.816 -2.7502  1.9338 -1.3336
  611MOL0     H82457  10.657   5.363  11.095 -0.8529 -0.3012 -1.0141
  611MOL0     H82458  10.762   5.487  11.032 -0.3306  1.3387 -1.9549
  611MOL0     H82459  10.784   5.190  10.939 -1.3717  1.0079  1.9545
  611MOL0     H82460  10.850   5.334  10.867  0.5821  3.5725  0.9665
  611MOL0     H82461  10.909   5.323  11.154 -0.7098  3.7254 -1.3632
  611MOL0     H82462  10.997   5.367  11.010  0.4604  0.8616  0.8553
  611MOL0     H82463  11.008   5.108  11.155 -0.4658  0.6458  0.7620
  611MOL0     H82464  11.031   5.102  10.974  0.3241  0.3795 -0.4308
  611MOL0     H82465  10.192   5.256  10.699  1.9238  3.2814  1.1158
  611MOL0     H82466   9.975   5.194  10.646  1.9493  2.5289 -0.6436
  611MOL0     H82467   9.545   5.083  10.832 -1.0795  0.6470  1.6476
  611MOL0     H82468   9.329   4.980  10.730  1.3320 -0.4150  1.5295
  611MOL0     H82469   7.679   5.268  10.010 -2.9078 -0.0279 -1.5886
  611MOL0     H82470   7.476   5.346  10.024 -2.6952  1.8894 -0.0902
  611MOL0     H82471   7.157   5.492   9.956  1.4490 -0.5409 -1.8971
  611MOL0     H82472   6.926   5.479   9.912  1.7629 -1.2205  1.6238
  611MOL0     H82473   6.706   5.519   9.925 -2.6064 -0.4770 -1.3135
  611MOL0     H82474   6.726   5.501   9.757  1.3320  0.5621  0.5440
  611MOL0     H82475   6.524   5.651   9.715  0.6618  0.9215  0.0192
  611MOL0     H82476   6.504   5.675   9.888  0.8498  2.1973 -1.6711
  611MOL0     H82477   6.476   5.419   9.912  2.6638  1.2093 -0.7506
  611MOL0     H82478   6.468   5.403   9.744 -0.0981  2.6491 -2.7154
  611MOL0     H82479   6.301   5.618   9.872 -1.3105 -0.5433  2.1848
  611MOL0     H82480   6.258   5.517   9.728 -0.3313  1.8158 -0.7627
  611MOL0     H82481   6.090   5.295  10.038  0.0116  0.3669  0.1960
  611MOL0     H82482   6.912   5.905   9.867  0.6053 -0.0354  1.4060
  611MOL0     H82483   7.201   5.979  10.002  0.9765 -1.0005 -0.0819
  611MOL0     H82484   7.247   5.971   9.835  2.7697 -0.3712  2.2389
  611MOL0     H82485   7.084   6.034   9.881 -0.8596 -0.5415  2.4644
  612MOL0     O82486   9.915   6.328   8.747 -0.1135  0.1318 -0.0803
  612MOL0     C82487   9.932   6.315   8.630  0.4067 -0.1427  0.4710
  612MOL0     O82488  10.045   6.292   8.567 -0.0241  0.0279  0.0195
  612MOL0     C82489  10.158   6.309   8.639  0.7404  0.6025 -0.5411
  612MOL0     C82490  10.197   6.216   8.729  0.7463  0.6807 -0.4255
  612MOL0     C82491  10.292   6.247   8.826  0.5179 -0.1069 -0.5000
  612MOL0     C82492  10.351   6.367   8.837 -0.3620 -0.9761  0.3610
  612MOL0     O82493  10.443   6.402   8.937 -0.0448 -0.5114  0.5395
  612MOL0     C82494  10.463   6.313   9.041 -0.3320  0.7835 -0.1061
  612MOL0     C82495  10.544   6.386   9.148 -0.3653 -0.0355 -0.0429
  612MOL0     C82496  10.686   6.434   9.092  0.3405  0.2263 -0.1649
  612MOL0     C82497  10.762   6.518   9.197  0.1223  0.5903  0.3652
  612MOL0     C82498  10.915   6.526   9.154 -0.1638 -0.3823  0.0565
  612MOL0     C82499  10.990   6.633   9.243 -0.7037  0.8727 -0.0745
  612MOL0     C82500  11.005   6.596   9.385 -0.0183 -0.1046  0.4770
  612MOL0     C82501  11.106   6.483   9.409  0.2623  0.4044  0.0827
  612MOL0     N82502  11.243   6.495   9.367 -0.3358 -0.0146 -0.4965
  612MOL0     C82503  11.349   6.552   9.442  0.6335 -0.5514  0.3455
  612MOL0     C82504  11.459   6.523   9.361  1.1472 -0.6230 -0.1984
  612MOL0     C82505  11.600   6.569   9.396  0.7982  0.2873  0.1745
  612MOL0     C82506  11.619   6.723   9.417  0.0442  0.3384 -0.0366
  612MOL0     C82507  11.752   6.742   9.490 -0.7680 -0.6877 -0.5344
  612MOL0     C82508  11.877   6.711   9.401  0.8500  0.2596  0.5785
  612MOL0     O82509  11.992   6.719   9.487  0.1599 -0.0009  0.0408
  612MOL0     C82510  12.095   6.793   9.443 -1.1382  0.1244 -0.4496
  612MOL0     C82511  12.218   6.728   9.454 -0.8626  0.2884 -0.7568
  612MOL0     C82512  12.335   6.808   9.430 -0.2276 -1.1146  0.5880
  612MOL0     C82513  12.332   6.945   9.373 -0.2916  0.2052 -0.7298
  612MOL0     C82514  12.464   7.012   9.343 -0.2914 -0.9536 -0.0418
  612MOL0     O82515  12.590   6.970   9.388 -0.1140 -0.4911 -0.2310
  612MOL0     C82516  12.710   7.040   9.368  0.0374  0.2575 -0.8127
  612MOL0     C82517  12.802   7.007   9.467  0.2639 -0.1983  0.5060
  612MOL0     C82518  12.928   7.065   9.470 -0.3037 -0.3002  0.0456
  612MOL0     C82519  12.971   7.151   9.374 -0.9891  0.6910 -0.1812
  612MOL0     O82520  13.099   7.200   9.392  0.2287 -0.2513 -0.4935
  612MOL0     C82521  13.162   7.255   9.275  0.1967  0.0192  1.4314
  612MOL0     C82522  13.297   7.312   9.311  0.4256 -0.2945  0.3009
  612MOL0     C82523  13.392   7.317   9.190 -0.3285 -0.2171  0.8273
  612MOL0     C82524  13.438   7.464   9.148 -0.0890 -0.2134  0.1147
  612MOL0     C82525  13.545   7.481   9.048  0.3270  0.3131  0.8414
  612MOL0     C82526  13.690   7.430   9.075  0.4337  0.6972  0.5584
  612MOL0     C82527  13.768   7.522   9.172  0.6811  0.1818 -0.0730
  612MOL0     C82528  13.911   7.468   9.194  0.6716 -0.6895  0.1277
  612MOL0    Cl82529  13.892   7.303   9.269  0.1813  0.2813  0.0825
  612MOL0     C82530  12.882   7.180   9.262  1.0114  0.8761 -0.2659
  612MOL0     C82531  12.749   7.123   9.260  0.8015 -0.0871 -0.1716
  612MOL0     O82532  12.443   7.117   9.275 -0.7365  0.0131 -0.6847
  612MOL0     C82533  12.202   6.993   9.347  0.9364  0.4564  0.4720
  612MOL0     C82534  12.085   6.920   9.382  0.2872  0.8414 -0.4645
  612MOL0     N82535  11.427   6.447   9.256 -0.2560 -0.3265  0.7398
  612MOL0     N82536  11.304   6.422   9.260  0.4907 -0.3635  0.3537
  612MOL0     C82537  10.327   6.454   8.735  0.9390  0.6490  0.4117
  612MOL0     C82538  10.230   6.431   8.630  0.7673 -0.4460 -0.4108
  612MOL0     C82539   9.814   6.339   8.537 -0.7569  0.1504 -0.2122
  612MOL0     C82540   9.844   6.393   8.407  1.9008  1.1476  0.3064
  612MOL0     C82541   9.749   6.443   8.315  0.7156  0.8550 -0.1540
  612MOL0     C82542   9.619   6.455   8.366 -0.5180  0.9029  0.0104
  612MOL0     O82543   9.519   6.524   8.301  0.2510  0.7428  0.3899
  612MOL0     C82544   9.543   6.586   8.175 -0.0287  0.0751  0.1477
  612MOL0     C82545   9.408   6.630   8.118 -0.0453 -0.8875 -0.0009
  612MOL0     C82546   9.319   6.513   8.072 -0.0826  0.2553  0.2915
  612MOL0     C82547   9.165   6.530   8.094  0.4653 -0.1996  0.4224
  612MOL0     C82548   9.109   6.648   8.020 -0.1195 -0.1005  0.1332
  612MOL0     C82549   9.074   6.754   7.966  0.7795  0.8128  0.1558
  612MOL0     C82550   9.588   6.392   8.495  0.7093 -0.4415 -0.3718
  612MOL0     C82551   9.683   6.331   8.581  0.0986 -0.1683 -0.3753
  612MOL0     C82552   9.637   6.270   8.708 -0.6118  0.3400 -0.6070
  612MOL0     H82553  10.151   6.118   8.723  1.4163  0.4477 -2.2054
  612MOL0     H82554  10.320   6.171   8.899  1.7436  0.3231 -0.4882
  612MOL0     H82555  10.369   6.288   9.091  0.5919 -1.6245  0.5690
  612MOL0     H82556  10.506   6.224   8.995 -0.9926  0.8923 -0.9562
  612MOL0     H82557  10.553   6.322   9.236 -0.4527  1.9483  1.4768
  612MOL0     H82558  10.492   6.472   9.190  1.6508  0.9030  0.6933
  612MOL0     H82559  10.685   6.495   9.002  0.0642  0.7864  0.2053
  612MOL0     H82560  10.753   6.349   9.079  0.4286  0.3469 -0.5040
  612MOL0     H82561  10.713   6.616   9.206 -0.3108  0.5479 -1.2472
  612MOL0     H82562  10.758   6.466   9.293 -0.1822  0.2991  0.1971
  612MOL0     H82563  10.954   6.424   9.153 -1.2234 -0.8018  0.0635
  612MOL0     H82564  10.928   6.567   9.054 -0.2673 -0.1495  0.1381
  612MOL0     H82565  11.089   6.655   9.203  0.5949 -0.0945  2.4242
  612MOL0     H82566  10.938   6.729   9.232 -3.5665 -0.5183  0.3730
  612MOL0     H82567  10.916   6.557   9.435 -1.3035  0.9593 -0.8817
  612MOL0     H82568  11.047   6.683   9.435  1.1207  1.9279 -3.6187
  612MOL0     H82569  11.103   6.460   9.516 -1.2808  0.6662  0.1284
  612MOL0     H82570  11.081   6.388   9.360  0.3060  0.4938 -0.1134
  612MOL0     H82571  11.358   6.588   9.544 -0.0218  1.6438 -0.3247
  612MOL0     H82572  11.621   6.510   9.486 -1.0397  0.4944  0.7644
  612MOL0     H82573  11.669   6.539   9.316  0.4637 -0.9472  0.3381
  612MOL0     H82574  11.619   6.772   9.319 -1.3892 -3.7674 -2.3505
  612MOL0     H82575  11.537   6.753   9.483  0.3560 -3.4295  2.3592
  612MOL0     H82576  11.755   6.669   9.572  2.4294 -0.6813 -0.5080
  612MOL0     H82577  11.764   6.842   9.533 -2.2240 -1.1685  1.1259
  612MOL0     H82578  11.870   6.778   9.315  0.5339 -0.8952 -0.3245
  612MOL0     H82579  11.865   6.609   9.363 -2.0364  0.0180  1.9027
  612MOL0     H82580  12.235   6.629   9.496  0.6011  0.0243 -1.9024
  612MOL0     H82581  12.431   6.758   9.439  1.0282  0.9411 -0.6454
  612MOL0     H82582  12.769   6.944   9.548 -0.2597  0.7955  1.0918
  612MOL0     H82583  12.993   7.041   9.553 -0.8825  0.2919  0.6916
  612MOL0     H82584  13.172   7.177   9.199  0.2019  0.2448  1.1958
  612MOL0     H82585  13.106   7.332   9.220  2.2159  0.8514  0.4265
  612MOL0     H82586  13.293   7.411   9.357 -0.2773 -0.2805  0.2224
  612MOL0     H82587  13.340   7.242   9.384 -0.5318 -1.0526  0.1566
  612MOL0     H82588  13.474   7.255   9.226 -1.7071 -2.3638  0.4622
  612MOL0     H82589  13.355   7.260   9.104  1.5833  0.2808 -0.3832
  612MOL0     H82590  13.469   7.518   9.238 -0.3232 -0.1734  0.1720
  612MOL0     H82591  13.344   7.493   9.099  0.5338 -1.1722 -1.7464
  612MOL0     H82592  13.553   7.589   9.030 -2.7719  0.3901 -0.7235
  612MOL0     H82593  13.509   7.440   8.954 -1.1194  1.5444  0.8133
  612MOL0     H82594  13.689   7.331   9.121  1.8163  1.2936  1.9760
  612MOL0     H82595  13.747   7.428   8.982 -0.5491 -0.5173 -0.0412
  612MOL0     H82596  13.726   7.509   9.272 -2.1674 -3.2242 -1.4774
  612MOL0     H82597  13.761   7.623   9.130  0.4582  0.0754 -0.2949
  612MOL0     H82598  13.978   7.470   9.108  1.7121 -1.3873  0.8851
  612MOL0     H82599  13.951   7.526   9.278  0.3270  1.1297 -0.9130
  612MOL0     H82600  12.908   7.241   9.176  0.9725 -0.2897 -1.1320
  612MOL0     H82601  12.687   7.153   9.176  2.2922  1.6021 -0.7367
  612MOL0     H82602  12.191   7.073   9.275 -1.2493  1.2695  1.6245
  612MOL0     H82603  11.990   6.963   9.355  0.9970  2.0817 -1.0565
  612MOL0     H82604  10.370   6.553   8.747 -0.6102  1.3292  0.6381
  612MOL0     H82605  10.206   6.510   8.560  1.0867  1.1066  1.1408
  612MOL0     H82606   9.941   6.393   8.359  1.1900 -0.8493 -1.3104
  612MOL0     H82607   9.767   6.479   8.215  0.9383 -0.8095 -0.7344
  612MOL0     H82608   9.606   6.529   8.106  0.4259  0.3219  0.3558
  612MOL0     H82609   9.588   6.682   8.202 -4.1573  2.5776 -0.9414
  612MOL0     H82610   9.430   6.695   8.032 -2.3828  1.1360  0.8018
  612MOL0     H82611   9.347   6.693   8.183  4.8461  3.2827  1.2040
  612MOL0     H82612   9.351   6.424   8.128 -0.3693 -0.7874 -1.1324
  612MOL0     H82613   9.337   6.497   7.965 -1.0999  0.9215  0.0097
  612MOL0     H82614   9.115   6.438   8.063 -1.0837 -0.0335  2.2302
  612MOL0     H82615   9.138   6.545   8.199  0.3731  0.7732  0.2719
  612MOL0     H82616   9.043   6.845   7.918  0.6197  0.9902  0.5877
  612MOL0     H82617   9.489   6.393   8.539  1.4817  1.2002  1.4528
  612MOL0     H82618   9.685   6.171   8.710  3.5223  2.1397  1.0902
  612MOL0     H82619   9.678   6.326   8.792 -0.5646 -0.6628  0.0682
  612MOL0     H82620   9.528   6.279   8.708 -0.4934  2.0367 -1.5395
  613MOL0     O82621   6.043   9.521   9.587 -0.2111  0.3624  0.6766
  613MOL0     C82622   5.966   9.434   9.620 -0.4359 -0.3354  0.3424
  613MOL0     O82623   6.001   9.302   9.637 -0.0424  0.1235 -0.6055
  613MOL0     C82624   6.130   9.257   9.624 -0.4068 -0.4906  0.3920
  613MOL0     C82625   6.170   9.161   9.715  0.5069  0.5026 -0.1779
  613MOL0     C82626   6.306   9.132   9.719 -0.4574  0.5402  1.3325
  613MOL0     C82627   6.394   9.173   9.614  0.5069  0.6538 -1.1558
  613MOL0     O82628   6.517   9.116   9.622 -0.6113 -0.5559  0.2361
  613MOL0     C82629   6.609   9.133   9.510 -0.6529 -0.2409  0.4396
  613MOL0     C82630   6.723   9.020   9.532  0.4239 -0.0812 -0.0987
  613MOL0     C82631   6.799   9.042   9.660 -0.2139  0.1546  0.1341
  613MOL0     C82632   6.913   8.950   9.681 -0.1120  0.4945  0.6426
  613MOL0     C82633   7.051   9.001   9.632 -0.1682  1.0570 -0.7931
  613MOL0     C82634   7.103   9.106   9.729 -0.0942  0.3716  0.4685
  613MOL0     C82635   7.247   9.160   9.695  0.6902  1.0779 -0.2001
  613MOL0     C82636   7.280   9.277   9.790 -1.3013  0.1893  0.6868
  613MOL0     N82637   7.416   9.338   9.759  0.5267  0.0909  0.3266
  613MOL0     C82638   7.530   9.326   9.826 -0.4743 -0.6028 -0.4212
  613MOL0     C82639   7.625   9.405   9.758  0.2001  0.5378 -0.1075
  613MOL0     C82640   7.763   9.431   9.785 -0.5088  0.3951  0.0078
  613MOL0     C82641   7.767   9.573   9.842 -0.4919  0.0134 -0.0655
  613MOL0     C82642   7.902   9.637   9.809  0.2107 -0.9691 -0.2333
  613MOL0     C82643   8.018   9.551   9.825 -1.4262  0.8003 -0.9661
  613MOL0     O82644   8.019   9.477   9.951 -0.3870  0.4039 -0.8401
  613MOL0     C82645   8.139   9.436  10.010  0.2035 -1.2649 -0.1912
  613MOL0     C82646   8.118   9.354  10.113 -0.6842  0.4769 -0.2399
  613MOL0     C82647   8.224   9.307  10.194 -0.7843 -0.2738 -0.8986
  613MOL0     C82648   8.350   9.356  10.178 -0.0970  0.1634  0.5382
  613MOL0     C82649   8.464   9.322  10.263  0.4820  0.0439 -0.7998
  613MOL0     O82650   8.576   9.393  10.231 -0.1989  0.7246  0.0623
  613MOL0     C82651   8.676   9.389  10.325  1.0746 -0.7104  0.3344
  613MOL0     C82652   8.740   9.274  10.364 -0.5820 -0.2101 -0.2370
  613MOL0     C82653   8.836   9.289  10.470 -0.9518  0.2020 -0.3381
  613MOL0     C82654   8.871   9.414  10.523 -0.1127 -0.1925  0.4502
  613MOL0     O82655   8.973   9.405  10.623  0.0134  0.5904  0.2378
  613MOL0     C82656   9.048   9.526  10.662 -0.1167  0.2421 -0.5394
  613MOL0     C82657   9.186   9.495  10.722 -0.6423 -0.7068 -0.6315
  613MOL0     C82658   9.235   9.624  10.800  0.7705  0.8631  0.0354
  613MOL0     C82659   9.388   9.635  10.811  0.7008  0.1965 -0.2196
  613MOL0     C82660   9.435   9.762  10.873  0.2237  0.3773 -0.1233
  613MOL0     C82661   9.584   9.776  10.856  0.0208  0.0153 -0.4199
  613MOL0     C82662   9.647   9.898  10.923  0.4971  0.9547 -0.0303
  613MOL0     C82663   9.805   9.908  10.899  0.3031 -0.1125 -0.4731
  613MOL0    Cl82664   9.893   9.766  10.987  0.2670 -0.6913 -0.8176
  613MOL0     C82665   8.814   9.524  10.471 -0.8419  0.2879  0.3287
  613MOL0     C82666   8.714   9.513  10.375  0.4728 -0.4667 -0.2835
  613MOL0     O82667   8.434   9.269  10.370  0.7533 -0.2950 -0.3885
  613MOL0     C82668   8.375   9.442  10.072 -0.0086 -0.5501 -0.6912
  613MOL0     C82669   8.270   9.481   9.984  0.5322  0.0082  0.4703
  613MOL0     N82670   7.561   9.451   9.651  0.2898  0.0868 -0.0315
  613MOL0     N82671   7.440   9.413   9.655  0.0518  0.0644 -0.1995
  613MOL0     C82672   6.346   9.272   9.518 -0.6120 -0.3549 -0.2745
  613MOL0     C82673   6.215   9.315   9.524 -0.3041  0.3392  0.4502
  613MOL0     C82674   5.824   9.470   9.654 -0.4461  0.1450  0.8987
  613MOL0     C82675   5.779   9.584   9.591 -0.3811 -0.2196  0.7005
  613MOL0     C82676   5.640   9.614   9.590  0.5404 -0.1267  0.2327
  613MOL0     C82677   5.551   9.537   9.671  0.2651 -0.4867  0.4526
  613MOL0     O82678   5.423   9.572   9.680 -0.0352  0.3286  0.2346
  613MOL0     C82679   5.389   9.671   9.779 -0.5718 -0.2808 -0.2128
  613MOL0     C82680   5.246   9.628   9.838 -0.2163 -0.3492  0.3376
  613MOL0     C82681   5.144   9.609   9.725  0.2857  0.0648 -1.3206
  613MOL0     C82682   5.002   9.605   9.784 -0.0194 -0.3456 -0.1234
  613MOL0     C82683   4.890   9.585   9.693 -0.1677  0.8176 -0.5134
  613MOL0     C82684   4.803   9.544   9.621  0.3763 -0.8645  0.7448
  613MOL0     C82685   5.601   9.439   9.756 -0.5038 -0.3757 -0.3514
  613MOL0     C82686   5.735   9.398   9.742  0.9392 -0.3585 -0.0107
  613MOL0     C82687   5.768   9.283   9.836 -0.2490  1.1756  0.1850
  613MOL0     H82688   6.103   9.120   9.789  2.5117 -1.5252  0.6192
  613MOL0     H82689   6.330   9.076   9.809  2.4006  2.4786  1.8899
  613MOL0     H82690   6.560   9.110   9.415 -0.8373 -0.6436  0.6283
  613MOL0     H82691   6.669   9.223   9.502  1.2020 -1.0785  3.3256
  613MOL0     H82692   6.797   9.023   9.452  2.1593  1.4649  1.4503
  613MOL0     H82693   6.689   8.916   9.539 -0.1247 -0.0972 -2.2585
  613MOL0     H82694   6.719   9.022   9.732 -1.7536 -1.5679 -1.8870
  613MOL0     H82695   6.829   9.147   9.661 -1.3609  0.6773 -3.3955
  613MOL0     H82696   6.920   8.930   9.788  0.3473 -0.1318  0.4979
  613MOL0     H82697   6.891   8.861   9.622 -0.9456  0.2857  1.2487
  613MOL0     H82698   7.107   8.907   9.628  1.6739  2.0801 -0.6101
  613MOL0     H82699   7.039   9.047   9.534 -2.4578  3.2615  0.4169
  613MOL0     H82700   7.043   9.197   9.725  1.2345  1.2264 -0.9459
  613MOL0     H82701   7.088   9.069   9.831 -2.1486  0.1882  0.1477
  613MOL0     H82702   7.259   9.183   9.589  1.0058 -1.5829 -0.7949
  613MOL0     H82703   7.317   9.078   9.713 -0.0641  0.4146 -0.2326
  613MOL0     H82704   7.207   9.358   9.784  0.7882  2.1666  0.9321
  613MOL0     H82705   7.278   9.229   9.888  1.9925 -0.4729  0.5527
  613MOL0     H82706   7.545   9.256   9.908 -0.2763  1.5985  1.5258
  613MOL0     H82707   7.799   9.354   9.854 -0.4202  1.1934  0.8815
  613MOL0     H82708   7.810   9.420   9.687 -0.1478 -0.7604  0.2907
  613MOL0     H82709   7.682   9.630   9.804 -0.4915  0.0422 -0.0242
  613MOL0     H82710   7.756   9.577   9.951  4.4928  0.7712  0.6699
  613MOL0     H82711   7.908   9.722   9.878  0.4616 -0.7629 -0.5084
  613MOL0     H82712   7.919   9.677   9.709  2.5814  1.4364  1.0189
  613MOL0     H82713   8.098   9.627   9.824  2.0703 -2.5396  0.1059
  613MOL0     H82714   8.038   9.482   9.743  3.3054  2.5738 -1.6250
  613MOL0     H82715   8.024   9.323  10.156  0.1520 -1.9617 -0.0160
  613MOL0     H82716   8.198   9.237  10.272  2.1237 -1.4899 -0.8978
  613MOL0     H82717   8.726   9.179  10.314  1.3479 -0.6997  0.0634
  613MOL0     H82718   8.901   9.207  10.498  1.2627  1.4171 -1.6731
  613MOL0     H82719   9.057   9.592  10.574 -1.6125 -4.4629 -4.6820
  613MOL0     H82720   8.977   9.585  10.720  0.1000  0.1881 -0.2168
  613MOL0     H82721   9.183   9.407  10.787 -1.3922  0.4236  0.9416
  613MOL0     H82722   9.251   9.460  10.642 -0.3605 -1.8411  0.0755
  613MOL0     H82723   9.208   9.708  10.736  0.5928 -0.9673 -2.4372
  613MOL0     H82724   9.200   9.625  10.904  0.1418  3.0140 -0.1601
  613MOL0     H82725   9.429   9.614  10.711 -1.0408  0.5644 -1.0521
  613MOL0     H82726   9.426   9.561  10.882  2.5798  0.9156 -0.4133
  613MOL0     H82727   9.405   9.762  10.978  2.9832 -2.4544  0.8316
  613MOL0     H82728   9.391   9.848  10.822  1.8587  2.1212  1.2589
  613MOL0     H82729   9.631   9.684  10.893 -1.7312 -0.2023  1.4624
  613MOL0     H82730   9.611   9.777  10.750 -2.4812  0.7698 -1.1160
  613MOL0     H82731   9.626   9.880  11.029 -1.2449 -0.3018 -0.5292
  613MOL0     H82732   9.603   9.996  10.902  2.4992  1.2548 -3.5646
  613MOL0     H82733   9.826   9.921  10.793  1.1196  1.8348 -0.1129
  613MOL0     H82734   9.842   9.998  10.948  1.4837 -1.2554  0.8153
  613MOL0     H82735   8.848   9.625  10.492  0.1150 -0.0427  0.3875
  613MOL0     H82736   8.671   9.603  10.332  0.7985 -0.1155  0.1175
  613MOL0     H82737   8.467   9.496  10.048  0.6482 -0.0280  2.5348
  613MOL0     H82738   8.287   9.562   9.914 -3.2776  1.0514  0.5268
  613MOL0     H82739   6.416   9.294   9.439  1.5690 -1.1396  1.3459
  613MOL0     H82740   6.191   9.386   9.445  1.7950 -1.5041 -2.0700
  613MOL0     H82741   5.847   9.656   9.546 -0.4032  0.1298  1.2262
  613MOL0     H82742   5.613   9.705   9.538  1.6337 -0.7427 -1.5208
  613MOL0     H82743   5.382   9.771   9.734 -2.8460 -0.8386 -1.2340
  613MOL0     H82744   5.464   9.683   9.858 -0.6418  0.4975 -0.2572
  613MOL0     H82745   5.220   9.713   9.903  1.0209  2.5518 -2.6412
  613MOL0     H82746   5.261   9.538   9.899  1.1376  0.0113  0.5744
  613MOL0     H82747   5.171   9.520   9.668 -1.3594 -1.5622  0.3013
  613MOL0     H82748   5.152   9.700   9.665 -3.6270  0.2937 -1.7903
  613MOL0     H82749   4.991   9.529   9.862  1.1367 -1.7787 -1.3027
  613MOL0     H82750   4.991   9.704   9.830 -0.8588  0.3775 -1.7910
  613MOL0     H82751   4.737   9.506   9.546  2.8952 -2.1818 -0.9620
  613MOL0     H82752   5.527   9.389   9.817 -0.5829  2.1878  1.8325
  613MOL0     H82753   5.767   9.184   9.789  0.3333 -0.4307  3.3265
  613MOL0     H82754   5.868   9.306   9.873  0.7395  1.5575 -2.4779
  613MOL0     H82755   5.700   9.286   9.921 -1.9730  0.0756 -1.0894
  614MOL0     O82756  10.020   4.593  10.385  0.0179  0.2852 -0.3155
  614MOL0     C82757   9.953   4.492  10.416 -0.0719 -1.1957  0.0739
  614MOL0     O82758   9.987   4.408  10.510 -0.6151  0.3758 -0.3749
  614MOL0     C82759  10.104   4.407  10.580 -0.3390 -0.7484  0.2190
  614MOL0     C82760  10.231   4.448  10.526  0.0195  0.4544  0.0697
  614MOL0     C82761  10.340   4.442  10.612 -0.3092  0.0483  0.2152
  614MOL0     C82762  10.332   4.399  10.742  0.0873 -0.1177 -0.6852
  614MOL0     O82763  10.441   4.393  10.830 -0.1976 -0.3803  0.0546
  614MOL0     C82764  10.567   4.401  10.774  0.0526 -0.6774 -0.6709
  614MOL0     C82765  10.663   4.356  10.882 -1.1784 -0.8371 -0.9403
  614MOL0     C82766  10.805   4.376  10.836 -0.0530  0.2332  0.4449
  614MOL0     C82767  10.891   4.323  10.944 -1.5664 -0.2906  0.3630
  614MOL0     C82768  11.043   4.323  10.897  0.0044  1.2921 -1.1127
  614MOL0     C82769  11.137   4.266  11.003  0.2018 -0.7580  0.8612
  614MOL0     C82770  11.285   4.255  10.960  0.1345 -0.6304  0.8492
  614MOL0     C82771  11.382   4.240  11.074  0.2457  1.0281 -0.1598
  614MOL0     N82772  11.520   4.208  11.030 -0.6990  0.4353 -0.5081
  614MOL0     C82773  11.564   4.083  10.992 -0.0063 -0.2732 -0.5656
  614MOL0     C82774  11.705   4.092  10.981  0.3676 -0.3155 -0.5188
  614MOL0     C82775  11.788   3.971  10.945  0.1404  0.2892  0.4904
  614MOL0     C82776  11.920   4.013  10.874 -0.1977  0.1018 -0.4393
  614MOL0     C82777  12.024   4.059  10.981 -0.0604  0.7195 -0.0269
  614MOL0     C82778  12.154   4.088  10.910  0.1125  0.3292 -0.8254
  614MOL0     O82779  12.251   4.147  10.994  0.3336 -0.3493 -0.3082
  614MOL0     C82780  12.383   4.109  10.983  0.3226  0.0528  0.3441
  614MOL0     C82781  12.439   4.022  11.080 -0.6608 -0.0667  1.1511
  614MOL0     C82782  12.572   3.973  11.063  0.1613  0.1096 -0.7277
  614MOL0     C82783  12.644   3.987  10.944 -1.0362 -0.4539 -0.4408
  614MOL0     C82784  12.783   3.940  10.926  1.2355 -0.1196 -1.0307
  614MOL0     O82785  12.846   3.948  10.805 -0.0170  0.5670  0.3547
  614MOL0     C82786  12.983   3.921  10.809  0.4644 -0.0020 -0.1942
  614MOL0     C82787  13.069   4.021  10.858 -0.5227 -0.2795  0.0395
  614MOL0     C82788  13.208   3.996  10.869  0.6437 -0.5366 -0.2963
  614MOL0     C82789  13.256   3.866  10.833 -0.1442 -0.0456 -0.6877
  614MOL0     O82790  13.385   3.822  10.827 -0.2194  0.0419 -0.2825
  614MOL0     C82791  13.471   3.904  10.896 -0.4044 -0.5088  0.4005
  614MOL0     C82792  13.612   3.859  10.861  0.3432  0.8093 -1.2576
  614MOL0     C82793  13.723   3.939  10.933 -0.3033  0.9202  0.2539
  614MOL0     C82794  13.852   3.852  10.943 -0.1068 -0.2318  0.4632
  614MOL0     C82795  13.957   3.927  11.021 -0.0563  0.2566 -0.3353
  614MOL0     C82796  14.081   3.832  11.020 -0.1030  0.3841  0.0668
  614MOL0     C82797  14.201   3.895  11.083  0.1326  0.4842  0.0612
  614MOL0     C82798  14.203   3.884  11.233 -0.5637  0.4627  0.8868
  614MOL0    Cl82799  14.354   3.979  11.275 -0.2513 -0.1133 -0.6059
  614MOL0     C82800  13.173   3.770  10.787  0.0178 -0.6867  0.3554
  614MOL0     C82801  13.031   3.790  10.786 -0.2978  0.6669 -0.2007
  614MOL0     O82802  12.839   3.909  11.033  0.1385  0.3887  0.0349
  614MOL0     C82803  12.586   4.069  10.852 -0.4735 -0.6905  0.4848
  614MOL0     C82804  12.460   4.130  10.863  0.3992  0.0022  0.4409
  614MOL0     N82805  11.739   4.219  11.012  0.6360  0.0418 -0.7914
  614MOL0     N82806  11.633   4.286  11.039  0.1163  1.2044 -0.1513
  614MOL0     C82807  10.209   4.366  10.796  0.6613 -0.4219 -0.2342
  614MOL0     C82808  10.096   4.374  10.712  0.9218  0.3601  0.3351
  614MOL0     C82809   9.828   4.478  10.341 -0.2372  0.7859  0.2927
  614MOL0     C82810   9.782   4.576  10.254 -0.4747  0.2972  0.1742
  614MOL0     C82811   9.670   4.564  10.183  0.3686  0.3677  0.1934
  614MOL0     C82812   9.589   4.450  10.189 -0.1190 -0.3074 -0.4114
  614MOL0     O82813   9.477   4.460  10.107 -0.1922  0.5622  0.1417
  614MOL0     C82814   9.413   4.334  10.083 -0.7827 -0.4894 -0.2900
  614MOL0     C82815   9.294   4.361   9.990  0.1056  0.0821 -0.5140
  614MOL0     C82816   9.217   4.228   9.967 -0.1548 -0.2784 -0.0979
  614MOL0     C82817   9.209   4.188   9.820  0.6808 -0.1024 -0.5616
  614MOL0     C82818   9.317   4.094   9.784  1.0496 -0.7083 -0.8765
  614MOL0     C82819   9.412   4.027   9.755  0.5760  0.5224  0.0401
  614MOL0     C82820   9.635   4.335  10.263  0.7924 -0.1284 -0.6731
  614MOL0     C82821   9.752   4.349  10.342  0.4726 -0.2986  0.0965
  614MOL0     C82822   9.786   4.214  10.413  0.0268  0.7880  1.3376
  614MOL0     H82823  10.247   4.480  10.424 -2.8879  0.9309 -0.2977
  614MOL0     H82824  10.440   4.463  10.573 -0.8224  1.2353 -0.5407
  614MOL0     H82825  10.586   4.341  10.684  2.1416 -1.7525  0.4074
  614MOL0     H82826  10.587   4.507  10.753 -2.7099 -0.1433 -1.0380
  614MOL0     H82827  10.643   4.251  10.903 -0.0488 -0.6037  1.6378
  614MOL0     H82828  10.645   4.409  10.976 -0.5880 -2.2503 -0.0117
  614MOL0     H82829  10.822   4.484  10.828 -1.2074  0.4163  0.2382
  614MOL0     H82830  10.831   4.323  10.745  0.7195  0.3530  0.5893
  614MOL0     H82831  10.883   4.392  11.029 -0.3520 -1.3580  1.3702
  614MOL0     H82832  10.858   4.227  10.985 -0.8912 -0.6681  0.0311
  614MOL0     H82833  11.042   4.261  10.806 -0.3651  1.0428 -0.9422
  614MOL0     H82834  11.081   4.420  10.864 -1.7046  2.4854  0.2416
  614MOL0     H82835  11.138   4.317  11.100 -1.5027 -0.3251  0.6887
  614MOL0     H82836  11.095   4.170  11.034 -4.1785  1.4301  2.5945
  614MOL0     H82837  11.319   4.344  10.906 -0.7475 -0.2108  0.9567
  614MOL0     H82838  11.289   4.164  10.901  0.4060 -1.4236  2.0480
  614MOL0     H82839  11.371   4.333  11.132 -1.5481  1.6141 -1.3645
  614MOL0     H82840  11.343   4.163  11.140  1.6972  0.5934  0.2301
  614MOL0     H82841  11.487   4.008  10.973 -0.2108 -0.2225  0.0377
  614MOL0     H82842  11.810   3.931  11.044 -1.4135  1.2285  1.2697
  614MOL0     H82843  11.735   3.901  10.880  0.2433  0.4746  0.2058
  614MOL0     H82844  11.963   3.927  10.821 -0.2772  0.5983 -1.3291
  614MOL0     H82845  11.899   4.096  10.806  0.3844  0.7159  0.1133
  614MOL0     H82846  12.049   3.969  11.038  2.0164 -0.5244 -2.6991
  614MOL0     H82847  11.993   4.139  11.049  1.0765 -0.1706  1.6048
  614MOL0     H82848  12.129   4.159  10.831  0.6272  1.0622 -0.3549
  614MOL0     H82849  12.187   3.998  10.858  0.5707  0.3000 -0.4947
  614MOL0     H82850  12.368   3.994  11.157  1.2018 -0.4886  2.7762
  614MOL0     H82851  12.621   3.916  11.141 -1.0710 -0.2173 -0.1747
  614MOL0     H82852  13.034   4.120  10.884 -0.2262 -0.1509 -0.0527
  614MOL0     H82853  13.271   4.082  10.893  1.2754 -0.7537 -1.1058
  614MOL0     H82854  13.473   4.005  10.856  0.2911 -1.9096 -3.5853
  614MOL0     H82855  13.445   3.906  11.002  1.9591  0.8283  1.0143
  614MOL0     H82856  13.621   3.753  10.886 -0.5711  0.8105 -0.8883
  614MOL0     H82857  13.643   3.852  10.756  3.8133 -2.1982 -0.2298
  614MOL0     H82858  13.742   4.034  10.882 -1.5058  0.1748 -1.6675
  614MOL0     H82859  13.687   3.952  11.035 -0.5332 -0.9151  0.4302
  614MOL0     H82860  13.893   3.826  10.845 -0.0523  0.9075  0.1780
  614MOL0     H82861  13.835   3.766  11.008  2.1620  0.2005  1.7374
  614MOL0     H82862  13.934   3.930  11.127  3.8263 -0.3206  0.6914
  614MOL0     H82863  13.979   4.032  10.998  0.2394  0.7069  1.8247
  614MOL0     H82864  14.049   3.735  11.060  1.5928  0.7010  2.4041
  614MOL0     H82865  14.102   3.811  10.914 -0.4244 -1.4585  0.3284
  614MOL0     H82866  14.202   4.000  11.053  2.6037 -0.2804 -3.1880
  614MOL0     H82867  14.294   3.854  11.042 -1.1640 -1.0526 -1.4875
  614MOL0     H82868  14.117   3.935  11.277 -0.7721  0.0665  0.9414
  614MOL0     H82869  14.209   3.780  11.267 -0.5495  0.5453  1.1429
  614MOL0     H82870  13.219   3.676  10.762 -1.4071 -0.8770 -1.7251
  614MOL0     H82871  12.961   3.716  10.749  0.6578 -0.7510  0.7205
  614MOL0     H82872  12.644   4.094  10.764 -0.5785  0.2279  0.6682
  614MOL0     H82873  12.417   4.184  10.779  1.7620 -1.8278 -1.5115
  614MOL0     H82874  10.199   4.343  10.901  1.5773  0.4451  0.0635
  614MOL0     H82875   9.992   4.361  10.737  0.9181  0.2044  0.2427
  614MOL0     H82876   9.840   4.667  10.240 -0.2038 -0.2859 -3.2724
  614MOL0     H82877   9.637   4.639  10.112 -1.3574  0.1085  0.6667
  614MOL0     H82878   9.385   4.280  10.174  1.6167 -0.1865  0.7159
  614MOL0     H82879   9.480   4.263  10.034 -3.2171 -1.4825 -2.3946
  614MOL0     H82880   9.321   4.403   9.893 -0.4046  1.6573  0.0075
  614MOL0     H82881   9.232   4.434  10.042  1.4468  0.3721  0.7510
  614MOL0     H82882   9.116   4.246  10.005  0.7307  0.8826  1.8498
  614MOL0     H82883   9.258   4.148  10.030 -0.0830 -0.4914 -0.4079
  614MOL0     H82884   9.116   4.130   9.813  0.4813  0.0085  0.8582
  614MOL0     H82885   9.199   4.278   9.759 -3.6093  2.2377  3.0141
  614MOL0     H82886   9.502   3.971   9.737 -0.3186 -0.7538 -0.6752
  614MOL0     H82887   9.575   4.245  10.259 -2.0641  1.7047 -2.9752
  614MOL0     H82888   9.821   4.227  10.516  3.2582  2.8011  0.1309
  614MOL0     H82889   9.709   4.141  10.390 -0.3270  1.2478  1.0479
  614MOL0     H82890   9.867   4.164  10.361 -0.3366 -1.8686  3.1311
  615MOL0     O82891   5.094   7.626   9.991 -0.3255 -0.1312 -0.0556
  615MOL0     C82892   5.050   7.744   9.972 -1.1056  0.5294 -0.3385
  615MOL0     O82893   5.135   7.854   9.954 -0.1566  0.0707  0.4442
  615MOL0     C82894   5.269   7.828   9.927  0.2226 -0.0416  0.9368
  615MOL0     C82895   5.311   7.758   9.813  0.5382  0.7592  0.9959
  615MOL0     C82896   5.439   7.739   9.780 -0.6128 -0.3342 -0.9047
  615MOL0     C82897   5.537   7.790   9.865  0.8193  0.1746  0.5600
  615MOL0     O82898   5.672   7.771   9.843  0.9538  0.2852  0.1485
  615MOL0     C82899   5.714   7.629   9.838 -0.1232 -1.1135 -0.3496
  615MOL0     C82900   5.852   7.618   9.897 -1.0643  0.4709 -0.1733
  615MOL0     C82901   5.951   7.718   9.829 -0.5497  0.0216  0.7370
  615MOL0     C82902   6.092   7.718   9.893  0.9609 -0.7192  0.0383
  615MOL0     C82903   6.211   7.800   9.824 -0.1253  0.2366 -0.1407
  615MOL0     C82904   6.330   7.796   9.919 -0.1460  0.3884 -0.2344
  615MOL0     C82905   6.467   7.771   9.861  0.1926 -0.5739 -0.8187
  615MOL0     C82906   6.522   7.876   9.756 -0.4007 -0.5914  0.1643
  615MOL0     N82907   6.546   8.010   9.801  0.4050 -0.2059 -0.1734
  615MOL0     C82908   6.572   8.055   9.928  0.1029  0.4254 -0.0235
  615MOL0     C82909   6.584   8.192   9.918 -0.3725 -0.2107 -0.0395
  615MOL0     C82910   6.596   8.290  10.029  0.3637  0.6221  0.1967
  615MOL0     C82911   6.738   8.315  10.076 -0.6017 -0.2116  0.5062
  615MOL0     C82912   6.830   8.377   9.967  0.1905 -0.7263  0.3464
  615MOL0     C82913   6.804   8.532   9.943 -0.2211  0.2558 -0.4555
  615MOL0     O82914   6.861   8.587   9.819 -0.1195  0.1076  0.1199
  615MOL0     C82915   6.991   8.622   9.812  0.0825  0.2633  0.3723
  615MOL0     C82916   7.056   8.714   9.891  0.3844 -0.1615 -0.0102
  615MOL0     C82917   7.192   8.740   9.867 -1.0973 -0.4417 -0.0135
  615MOL0     C82918   7.256   8.692   9.751  0.5652  0.5781 -0.2877
  615MOL0     C82919   7.386   8.739   9.718 -0.7109 -0.2733 -0.0856
  615MOL0     O82920   7.439   8.831   9.801 -0.0362  0.1498 -0.4931
  615MOL0     C82921   7.560   8.897   9.776 -0.5560 -0.5173 -0.7590
  615MOL0     C82922   7.620   8.974   9.881 -0.1872  0.3261  0.8230
  615MOL0     C82923   7.726   9.057   9.858 -0.1387  0.6407  0.1948
  615MOL0     C82924   7.782   9.069   9.731 -0.1701  0.3196 -0.2050
  615MOL0     O82925   7.901   9.131   9.711 -0.0195 -0.2554  0.2094
  615MOL0     C82926   8.027   9.056   9.720  0.0189 -0.2455  0.3389
  615MOL0     C82927   8.133   9.165   9.714  0.4339  0.1636  0.5710
  615MOL0     C82928   8.268   9.106   9.739 -0.2864 -0.0234 -0.0768
  615MOL0     C82929   8.393   9.201   9.741  0.6354  0.8213  0.1046
  615MOL0     C82930   8.487   9.179   9.861  0.6463  0.0257  0.3768
  615MOL0     C82931   8.609   9.272   9.854 -0.3380 -0.3212  0.9473
  615MOL0     C82932   8.706   9.239   9.963  0.1130 -0.3216  0.2760
  615MOL0     C82933   8.811   9.348   9.987  0.3256  0.0125 -0.4328
  615MOL0    Cl82934   8.922   9.339   9.854 -0.3011 -0.1395 -0.2384
  615MOL0     C82935   7.739   8.986   9.627  0.7113 -0.5987 -0.5281
  615MOL0     C82936   7.622   8.912   9.649 -0.7328  0.9742  1.0659
  615MOL0     O82937   7.441   8.679   9.626 -0.4240 -0.4969  0.4285
  615MOL0     C82938   7.189   8.598   9.667  0.0499  0.0579  0.0919
  615MOL0     C82939   7.059   8.565   9.706 -0.1915  0.3084  0.4347
  615MOL0     N82940   6.580   8.223   9.778 -0.4575 -0.0557 -0.3865
  615MOL0     N82941   6.545   8.109   9.715  0.1214 -0.3715  0.5603
  615MOL0     C82942   5.504   7.856   9.980  0.0222 -0.5705 -0.5570
  615MOL0     C82943   5.371   7.878  10.013  0.0334 -0.1338  0.3998
  615MOL0     C82944   4.899   7.775   9.989 -0.0761  0.2029  0.9359
  615MOL0     C82945   4.867   7.910  10.017  0.1027 -0.3127 -0.6314
  615MOL0     C82946   4.723   7.936  10.025  0.7249 -0.6740  0.0047
  615MOL0     C82947   4.623   7.839  10.012 -0.4208 -0.0630 -0.1322
  615MOL0     O82948   4.488   7.868  10.005  0.8948 -0.2350  0.6056
  615MOL0     C82949   4.432   7.947   9.901 -0.4151 -0.4149  0.1254
  615MOL0     C82950   4.351   7.871   9.807  0.0601  1.1096  0.0354
  615MOL0     C82951   4.419   7.743   9.746  0.2779  0.5712 -0.5606
  615MOL0     C82952   4.372   7.723   9.594 -0.1540  0.0800 -0.7028
  615MOL0     C82953   4.432   7.827   9.515 -0.2060  0.7865 -0.5266
  615MOL0     C82954   4.475   7.921   9.451 -0.0624  0.2445 -0.8577
  615MOL0     C82955   4.668   7.711   9.980 -1.0972 -0.0295  0.1654
  615MOL0     C82956   4.798   7.674   9.975 -0.0882 -0.1287  0.0788
  615MOL0     C82957   4.822   7.523   9.956 -0.7374 -1.1984  0.1457
  615MOL0     H82958   5.234   7.721   9.746  1.2216  1.3945 -0.1742
  615MOL0     H82959   5.470   7.682   9.693 -0.5464  1.6213 -2.2473
  615MOL0     H82960   5.647   7.554   9.880  0.5671 -1.5757 -0.0432
  615MOL0     H82961   5.710   7.602   9.732 -1.8586  1.1120 -0.9363
  615MOL0     H82962   5.892   7.517   9.887 -1.2663  0.4447 -0.7642
  615MOL0     H82963   5.846   7.646  10.002  1.2990  1.7215 -0.3084
  615MOL0     H82964   5.912   7.820   9.836 -0.6592  0.0124  0.3117
  615MOL0     H82965   5.969   7.696   9.723  2.1075  2.2137  0.6378
  615MOL0     H82966   6.085   7.754   9.996  0.6142 -0.7228  0.0193
  615MOL0     H82967   6.113   7.613   9.914  2.0743  0.2502  4.8592
  615MOL0     H82968   6.249   7.764   9.728  0.8449  1.0749 -0.0869
  615MOL0     H82969   6.172   7.902   9.811 -3.4144 -0.4279  2.7558
  615MOL0     H82970   6.338   7.889   9.976  1.5020 -1.8328  3.5883
  615MOL0     H82971   6.314   7.719   9.995  0.0666  0.1697 -0.4120
  615MOL0     H82972   6.476   7.673   9.812  2.6947 -0.3331 -0.9387
  615MOL0     H82973   6.538   7.767   9.944 -1.4035 -2.0444  0.5600
  615MOL0     H82974   6.620   7.836   9.730 -0.9509 -0.3840 -2.5138
  615MOL0     H82975   6.465   7.881   9.663 -1.5501 -0.1115  0.8697
  615MOL0     H82976   6.586   7.998  10.019  1.1733  2.5741  1.2516
  615MOL0     H82977   6.543   8.383  10.008  0.7557  0.5411 -1.2617
  615MOL0     H82978   6.532   8.244  10.105  0.3032 -0.6292 -0.5763
  615MOL0     H82979   6.752   8.375  10.166 -0.0257  1.5576 -0.7186
  615MOL0     H82980   6.788   8.219  10.092  1.9986  1.1998  1.5104
  615MOL0     H82981   6.809   8.315   9.880  0.2195  1.0618 -0.9795
  615MOL0     H82982   6.933   8.362  10.000  1.7380  1.9136 -2.7757
  615MOL0     H82983   6.839   8.589  10.029 -0.8050  0.7539 -0.5378
  615MOL0     H82984   6.696   8.549   9.940 -0.0068  1.6966 -0.5321
  615MOL0     H82985   6.999   8.771   9.964  1.6890  0.4765  0.5530
  615MOL0     H82986   7.241   8.805   9.939 -1.2495 -0.6723  0.3000
  615MOL0     H82987   7.573   8.981   9.979  0.4284  1.3558  1.0575
  615MOL0     H82988   7.774   9.125   9.928 -0.9641  2.4633 -0.9462
  615MOL0     H82989   8.024   8.998   9.813 -0.4767  2.5807  2.1983
  615MOL0     H82990   8.041   8.985   9.638 -1.5483 -1.3086  0.9363
  615MOL0     H82991   8.126   9.206   9.613 -0.8532  0.6221  0.8301
  615MOL0     H82992   8.113   9.244   9.787 -3.8168  1.6084 -1.7997
  615MOL0     H82993   8.252   9.063   9.838 -3.2901 -0.8972 -0.8108
  615MOL0     H82994   8.290   9.026   9.667 -1.2219 -1.4431  1.1536
  615MOL0     H82995   8.357   9.304   9.749 -1.1235  0.1970  0.7028
  615MOL0     H82996   8.446   9.180   9.648 -1.8835 -0.5321 -1.1204
  615MOL0     H82997   8.523   9.076   9.857 -0.7999 -0.7316  3.4716
  615MOL0     H82998   8.443   9.205   9.958  1.1612  3.9514 -0.2494
  615MOL0     H82999   8.664   9.261   9.760 -1.8982  1.4222 -0.2596
  615MOL0     H83000   8.578   9.377   9.857  3.6072  0.9892  0.8270
  615MOL0     H83001   8.743   9.137   9.951  0.3233 -0.1899 -0.1991
  615MOL0     H83002   8.645   9.229  10.054 -1.7882 -2.0432 -1.0888
  615MOL0     H83003   8.776   9.450  10.002  2.6802  0.6528  1.2929
  615MOL0     H83004   8.861   9.316  10.079 -1.0090  0.3758  0.4351
  615MOL0     H83005   7.796   8.982   9.535  0.1155  0.0814 -0.9407
  615MOL0     H83006   7.582   8.855   9.566  0.6519  1.2258  0.1857
  615MOL0     H83007   7.231   8.548   9.581 -0.2386 -0.8418  0.4670
  615MOL0     H83008   7.002   8.500   9.640 -0.1551  2.2858 -1.6842
  615MOL0     H83009   5.585   7.892  10.042 -2.1081 -0.5361  2.4447
  615MOL0     H83010   5.344   7.936  10.101 -1.5895 -2.1657  1.3372
  615MOL0     H83011   4.939   7.989  10.037  0.6374 -1.1763  0.9776
  615MOL0     H83012   4.687   8.033  10.058  1.6295 -0.1867 -0.4287
  615MOL0     H83013   4.518   7.995   9.854  0.7665  0.4853  2.9557
  615MOL0     H83014   4.367   8.022   9.946  0.5911 -0.3020  1.4629
  615MOL0     H83015   4.344   7.938   9.720  2.2218  0.4033 -0.7376
  615MOL0     H83016   4.252   7.851   9.849  0.9181 -0.7741  1.2931
  615MOL0     H83017   4.391   7.654   9.803 -0.4427  1.9716  1.4035
  615MOL0     H83018   4.528   7.746   9.750  0.4346  4.4077 -2.6003
  615MOL0     H83019   4.413   7.629   9.557  1.8828  0.6302 -0.0021
  615MOL0     H83020   4.263   7.726   9.588 -0.5726  1.0405  3.7803
  615MOL0     H83021   4.504   8.001   9.386  0.3999  1.8863  1.2623
  615MOL0     H83022   4.588   7.640   9.962  1.2072 -2.5066 -0.9251
  615MOL0     H83023   4.872   7.503   9.861  0.4046 -0.6981  0.6323
  615MOL0     H83024   4.901   7.489  10.023  0.4758 -1.0275 -1.1634
  615MOL0     H83025   4.731   7.462   9.967 -0.1977 -2.7170 -2.7163
  616MOL0     O83026   2.627   5.528   3.311  0.0634 -0.7454 -0.0623
  616MOL0     C83027   2.581   5.643   3.321 -0.1995  0.5977  0.9505
  616MOL0     O83028   2.659   5.765   3.331  0.5789 -0.2165  0.3176
  616MOL0     C83029   2.799   5.758   3.336  0.6350 -0.3292 -0.0118
  616MOL0     C83030   2.868   5.678   3.246 -0.0622 -0.9452 -0.0866
  616MOL0     C83031   3.010   5.705   3.240 -0.3865 -0.6596 -0.6428
  616MOL0     C83032   3.078   5.783   3.332 -0.2096 -0.2500 -0.1708
  616MOL0     O83033   3.210   5.808   3.304  0.2869 -0.0529 -0.3617
  616MOL0     C83034   3.267   5.925   3.376 -0.8124 -0.3457 -0.7889
  616MOL0     C83035   3.396   5.969   3.318 -0.1236 -0.7431 -0.4309
  616MOL0     C83036   3.500   5.862   3.298  0.2240  0.9586 -0.5528
  616MOL0     C83037   3.637   5.919   3.278 -0.1271  0.1537 -0.2750
  616MOL0     C83038   3.747   5.816   3.251 -0.1645 -0.2318  0.7362
  616MOL0     C83039   3.876   5.891   3.224  1.1114  0.0412 -0.8461
  616MOL0     C83040   3.990   5.791   3.187 -0.5966 -0.3377  0.3491
  616MOL0     C83041   4.051   5.732   3.319 -0.0920 -0.3064  0.5619
  616MOL0     N83042   4.202   5.721   3.328  0.0249 -0.1202 -0.1917
  616MOL0     C83043   4.273   5.616   3.376 -0.4500 -0.0176 -0.3528
  616MOL0     C83044   4.398   5.668   3.387  0.6238  0.3454 -0.1717
  616MOL0     C83045   4.512   5.600   3.455  1.0635  0.3996 -0.1347
  616MOL0     C83046   4.575   5.682   3.569  0.5844  0.0448  0.2760
  616MOL0     C83047   4.686   5.768   3.508  0.7431 -0.0392 -0.0335
  616MOL0     C83048   4.811   5.694   3.471  0.6965 -0.2942 -0.8562
  616MOL0     O83049   4.917   5.791   3.471  0.3690  0.9500  0.4519
  616MOL0     C83050   5.046   5.753   3.447 -0.3507  0.0162  1.6014
  616MOL0     C83051   5.072   5.660   3.343  0.2164  0.3868 -0.8352
  616MOL0     C83052   5.201   5.609   3.318 -0.3419  0.0400 -0.4648
  616MOL0     C83053   5.315   5.653   3.391  0.3025 -0.0055  0.4215
  616MOL0     C83054   5.450   5.608   3.364  0.4383  0.0828 -0.5092
  616MOL0     O83055   5.558   5.664   3.429  0.0977  0.1778  0.0560
  616MOL0     C83056   5.680   5.624   3.405  0.5691  0.3777  0.0780
  616MOL0     C83057   5.761   5.616   3.518 -0.2708 -0.0492  0.9229
  616MOL0     C83058   5.901   5.609   3.500 -0.3210 -0.1677 -0.4271
  616MOL0     C83059   5.971   5.614   3.381  0.4437  1.2307  0.6746
  616MOL0     O83060   6.109   5.611   3.373 -0.4783 -0.3313  0.9543
  616MOL0     C83061   6.165   5.478   3.403 -0.3109  0.1445  0.1343
  616MOL0     C83062   6.312   5.452   3.353 -0.0696  0.5769 -0.3268
  616MOL0     C83063   6.333   5.461   3.201 -0.7217 -0.2200  0.8474
  616MOL0     C83064   6.393   5.592   3.157 -0.3163  0.6785 -0.7351
  616MOL0     C83065   6.435   5.582   3.008 -0.8273 -0.2005  0.2452
  616MOL0     C83066   6.577   5.531   2.999  0.2086 -0.4220  0.1300
  616MOL0     C83067   6.599   5.374   3.006  0.1799  0.9021  0.1421
  616MOL0     C83068   6.723   5.322   2.936 -0.6353 -0.1613 -0.7858
  616MOL0    Cl83069   6.862   5.383   3.024  0.2904 -0.5392  0.1839
  616MOL0     C83070   5.882   5.609   3.275 -0.2036 -0.2679  0.4137
  616MOL0     C83071   5.740   5.610   3.279 -0.1019  0.3230 -0.5481
  616MOL0     O83072   5.459   5.522   3.274  0.0137 -0.3068 -0.1730
  616MOL0     C83073   5.292   5.751   3.492  0.0055  0.7012  0.0933
  616MOL0     C83074   5.161   5.808   3.521 -0.1235  1.0921 -0.0878
  616MOL0     N83075   4.400   5.798   3.337  0.5596  0.0034 -0.2626
  616MOL0     N83076   4.279   5.828   3.303 -0.7154 -0.0205  0.6132
  616MOL0     C83077   3.001   5.844   3.427 -0.4470  0.0634 -0.9993
  616MOL0     C83078   2.865   5.831   3.433 -0.0622  0.6851 -0.9524
  616MOL0     C83079   2.433   5.648   3.327  0.1147  0.1038 -0.0375
  616MOL0     C83080   2.365   5.533   3.274 -0.3659  0.8871 -0.3466
  616MOL0     C83081   2.233   5.526   3.266 -0.0185 -0.7729 -0.7336
  616MOL0     C83082   2.156   5.633   3.311 -0.1539 -1.0343  0.3146
  616MOL0     O83083   2.022   5.628   3.286  0.0394 -0.4147 -0.2660
  616MOL0     C83084   1.945   5.724   3.361  0.6220 -1.0301  0.5634
  616MOL0     C83085   1.799   5.687   3.358  0.1073  0.0727  1.3432
  616MOL0     C83086   1.772   5.537   3.387 -1.1196 -1.0280  0.3544
  616MOL0     C83087   1.861   5.471   3.499  0.2078 -0.5605 -0.4932
  616MOL0     C83088   1.844   5.547   3.626  0.5156  0.2325  0.3320
  616MOL0     C83089   1.812   5.599   3.733 -0.0005  0.5549 -0.2584
  616MOL0     C83090   2.220   5.751   3.369 -0.9413  0.7858 -0.7840
  616MOL0     C83091   2.356   5.755   3.379  0.2717  0.4838 -0.6557
  616MOL0     C83092   2.406   5.870   3.462 -0.0499 -0.4438  0.0603
  616MOL0     H83093   2.811   5.618   3.177 -1.2177  0.6824 -0.5999
  616MOL0     H83094   3.086   5.668   3.172  1.6867  3.7395 -1.0555
  616MOL0     H83095   3.196   6.008   3.369 -1.6007 -0.8046  1.1110
  616MOL0     H83096   3.284   5.902   3.481 -0.3711  0.3918 -0.6910
  616MOL0     H83097   3.430   6.043   3.391 -1.6162 -1.9624  1.6132
  616MOL0     H83098   3.377   6.012   3.219  0.2144  1.8112  0.5264
  616MOL0     H83099   3.474   5.790   3.219 -0.0083 -0.7065  0.9843
  616MOL0     H83100   3.513   5.815   3.396  1.4543  0.7654 -0.7842
  616MOL0     H83101   3.638   5.994   3.198  0.3999 -0.5975 -0.9875
  616MOL0     H83102   3.668   5.973   3.368 -0.1210  1.9230 -1.2968
  616MOL0     H83103   3.749   5.739   3.329  1.2655  0.2962  1.2624
  616MOL0     H83104   3.713   5.767   3.159  1.4097  1.0865 -0.6225
  616MOL0     H83105   3.857   5.945   3.132  1.0443 -1.7481 -1.9319
  616MOL0     H83106   3.894   5.962   3.305 -1.2395  2.4633 -2.2941
  616MOL0     H83107   4.061   5.855   3.133  1.2056 -2.6506 -0.2022
  616MOL0     H83108   3.966   5.716   3.111  2.2674  0.4124 -1.4619
  616MOL0     H83109   4.018   5.791   3.404  1.1728  1.1487  0.0975
  616MOL0     H83110   4.007   5.633   3.332 -3.3409  1.0424  0.7330
  616MOL0     H83111   4.252   5.514   3.407  1.5924 -0.1726  0.6803
  616MOL0     H83112   4.482   5.507   3.504  2.6996 -0.4900 -0.7502
  616MOL0     H83113   4.588   5.563   3.386  0.9596 -2.6396  1.1917
  616MOL0     H83114   4.499   5.746   3.615 -0.0014  0.7814 -1.5883
  616MOL0     H83115   4.612   5.607   3.639  0.6722 -2.8569 -2.6602
  616MOL0     H83116   4.711   5.844   3.583  0.3038  0.6677 -0.5938
  616MOL0     H83117   4.643   5.818   3.421  3.5667 -1.1931 -2.2308
  616MOL0     H83118   4.797   5.649   3.372 -0.3654  0.4678 -1.0706
  616MOL0     H83119   4.827   5.609   3.538 -0.3848 -0.3244 -0.6298
  616MOL0     H83120   4.983   5.621   3.294  0.0921 -2.2542  1.2614
  616MOL0     H83121   5.215   5.537   3.238 -1.3237 -0.6621 -0.0097
  616MOL0     H83122   5.717   5.644   3.614  1.7442  3.9014  0.8445
  616MOL0     H83123   5.968   5.592   3.584  0.2064  3.2828 -0.0111
  616MOL0     H83124   6.148   5.461   3.510 -0.9721  0.9469  0.1669
  616MOL0     H83125   6.110   5.393   3.360 -0.4916 -0.4551  1.4723
  616MOL0     H83126   6.366   5.535   3.399  0.0970  1.2472 -1.7065
  616MOL0     H83127   6.354   5.362   3.398  1.0945  2.0632  1.7322
  616MOL0     H83128   6.395   5.375   3.173 -0.3783  0.9978 -2.5988
  616MOL0     H83129   6.239   5.444   3.147  0.3211 -2.1263 -0.4740
  616MOL0     H83130   6.476   5.630   3.217  1.5189 -0.5578 -2.3948
  616MOL0     H83131   6.318   5.669   3.181 -0.3753 -0.1442  2.1104
  616MOL0     H83132   6.414   5.678   2.960  0.8335  0.9389  1.6768
  616MOL0     H83133   6.377   5.509   2.950 -3.2205  3.8577 -2.9896
  616MOL0     H83134   6.613   5.546   2.897  2.3060 -1.7739  0.6246
  616MOL0     H83135   6.643   5.587   3.065  0.8287  1.2574 -1.7956
  616MOL0     H83136   6.514   5.321   2.964  0.5277 -1.5577  2.3167
  616MOL0     H83137   6.614   5.339   3.108 -1.3737 -0.2820 -0.0118
  616MOL0     H83138   6.712   5.213   2.938 -1.3562 -0.1134 -1.5122
  616MOL0     H83139   6.719   5.349   2.830  0.7680  1.0871 -0.5398
  616MOL0     H83140   5.940   5.614   3.184 -0.0831 -0.5956  0.4700
  616MOL0     H83141   5.679   5.606   3.189  0.8211  0.5756 -1.1906
  616MOL0     H83142   5.382   5.786   3.540  0.1305 -2.1892  2.2564
  616MOL0     H83143   5.155   5.889   3.593  0.5216 -0.6532  2.0603
  616MOL0     H83144   3.050   5.910   3.497 -2.9231 -0.2134  1.1473
  616MOL0     H83145   2.801   5.876   3.508  1.7170  0.1786  0.9437
  616MOL0     H83146   2.414   5.440   3.249  1.7992  1.6473  0.7763
  616MOL0     H83147   2.187   5.441   3.215 -2.6831 -0.8199  1.4911
  616MOL0     H83148   1.955   5.821   3.311  0.8857 -1.7094 -0.7443
  616MOL0     H83149   1.979   5.732   3.465 -0.5770  0.6453  0.8796
  616MOL0     H83150   1.768   5.706   3.254  1.7411  1.2338  1.0239
  616MOL0     H83151   1.742   5.748   3.428  0.6636  0.9577  1.0523
  616MOL0     H83152   1.788   5.475   3.298 -1.0124 -1.7444  0.8744
  616MOL0     H83153   1.666   5.531   3.415 -1.5226  1.2247 -0.4803
  616MOL0     H83154   1.821   5.371   3.517  0.2322 -0.2691  1.3077
  616MOL0     H83155   1.966   5.466   3.470  0.0380  2.1760 -1.9858
  616MOL0     H83156   1.776   5.648   3.821 -0.0131  2.0643 -1.0844
  616MOL0     H83157   2.168   5.842   3.395 -1.8101  0.0299  0.1874
  616MOL0     H83158   2.373   5.959   3.409  2.1573 -0.0912 -0.8324
  616MOL0     H83159   2.361   5.863   3.561  1.3320  0.4786  0.7802
  616MOL0     H83160   2.514   5.883   3.477  0.2906 -0.8619 -1.7309
  617MOL0     O83161   6.013   8.982   8.847 -0.3440 -0.2376  0.1281
  617MOL0     C83162   5.936   8.903   8.903 -0.2494 -0.1153 -0.3915
  617MOL0     O83163   5.971   8.766   8.929  0.5317  0.3842  0.0918
  617MOL0     C83164   6.092   8.719   8.903  0.2032 -0.0126  0.8534
  617MOL0     C83165   6.220   8.757   8.945 -0.5290  0.2728 -0.4016
  617MOL0     C83166   6.333   8.683   8.920 -0.4225 -0.1697 -0.1975
  617MOL0     C83167   6.336   8.568   8.839 -0.9392  0.3278  0.3351
  617MOL0     O83168   6.453   8.501   8.809  0.8182  0.1773  0.4147
  617MOL0     C83169   6.544   8.480   8.917 -0.0603  0.2619 -0.3630
  617MOL0     C83170   6.653   8.397   8.860  0.4276  0.0885  0.6257
  617MOL0     C83171   6.762   8.353   8.956  0.3545  0.1764  0.0315
  617MOL0     C83172   6.878   8.284   8.876  0.6275 -0.8469 -1.1022
  617MOL0     C83173   7.007   8.277   8.959 -0.5482 -0.0026 -0.3499
  617MOL0     C83174   7.005   8.163   9.065 -0.1844  0.2230 -1.1609
  617MOL0     C83175   7.137   8.094   9.082 -0.1408 -0.0958 -0.6803
  617MOL0     C83176   7.140   8.002   9.200 -0.0087 -0.7306  0.4710
  617MOL0     N83177   7.196   8.077   9.312  0.8225 -0.1274  0.4639
  617MOL0     C83178   7.319   8.123   9.339 -0.4556  0.3582 -0.5712
  617MOL0     C83179   7.310   8.190   9.458 -1.3778  0.1746  0.3835
  617MOL0     C83180   7.418   8.274   9.514 -0.3645  0.2763 -0.5920
  617MOL0     C83181   7.562   8.262   9.453  0.1249 -0.1118  0.3342
  617MOL0     C83182   7.665   8.332   9.539  0.2042  0.3157  0.3467
  617MOL0     C83183   7.805   8.314   9.467  0.8644 -0.8415 -0.5872
  617MOL0     O83184   7.905   8.339   9.561  0.2613  0.5708  0.7081
  617MOL0     C83185   8.038   8.343   9.514  0.4172  0.3271  0.4558
  617MOL0     C83186   8.134   8.392   9.606  0.2417 -0.3953  0.2003
  617MOL0     C83187   8.267   8.409   9.571 -0.1485 -0.0728  0.3800
  617MOL0     C83188   8.302   8.372   9.441 -0.4689 -0.0925  0.2777
  617MOL0     C83189   8.445   8.387   9.398  0.0173 -0.0034  0.0770
  617MOL0     O83190   8.531   8.423   9.495 -0.9918 -0.4123 -0.5637
  617MOL0     C83191   8.653   8.488   9.478 -0.0280  0.2377 -0.4462
  617MOL0     C83192   8.705   8.545   9.360  0.2822 -0.4636  0.2645
  617MOL0     C83193   8.832   8.601   9.356 -0.4301  0.9241  0.1607
  617MOL0     C83194   8.914   8.588   9.470  0.6655  0.0370 -1.0371
  617MOL0     O83195   9.035   8.658   9.476  0.3642 -0.1997  0.0286
  617MOL0     C83196   9.135   8.570   9.429 -0.9008  0.1199  0.6436
  617MOL0     C83197   9.261   8.651   9.390  0.5023 -0.7737  1.4029
  617MOL0     C83198   9.374   8.568   9.339  0.2293 -0.3464 -0.7589
  617MOL0     C83199   9.501   8.656   9.305  0.1542 -0.1497  0.4992
  617MOL0     C83200   9.599   8.559   9.236  0.6788 -0.7812 -0.1817
  617MOL0     C83201   9.724   8.634   9.207 -0.0751 -0.8801  0.9119
  617MOL0     C83202   9.811   8.546   9.113 -0.9025  0.6134 -0.3682
  617MOL0     C83203   9.954   8.608   9.100  1.1379 -0.2197 -0.2163
  617MOL0    Cl83204   9.940   8.774   9.028  0.1617  0.5210  0.3286
  617MOL0     C83205   8.873   8.525   9.587 -0.1132  0.0731  0.0829
  617MOL0     C83206   8.737   8.490   9.592 -0.7279  0.0466 -0.2929
  617MOL0     O83207   8.474   8.357   9.279  0.6493 -0.0564  0.5760
  617MOL0     C83208   8.209   8.320   9.348 -0.0895 -0.5192  0.2391
  617MOL0     C83209   8.078   8.302   9.390  0.4211 -0.6022 -0.2047
  617MOL0     N83210   7.183   8.172   9.504  0.6738 -0.7810  0.0189
  617MOL0     N83211   7.117   8.112   9.415 -0.0954  0.6587 -0.4178
  617MOL0     C83212   6.206   8.538   8.779 -0.2023 -0.2338 -0.2847
  617MOL0     C83213   6.093   8.605   8.819  1.0947 -0.1657  0.2089
  617MOL0     C83214   5.807   8.950   8.955 -0.6033 -0.0950 -0.0040
  617MOL0     C83215   5.733   8.858   9.027 -0.0727 -0.6629  0.7469
  617MOL0     C83216   5.608   8.885   9.082  0.5015  0.2138 -0.4957
  617MOL0     C83217   5.553   9.010   9.051  0.2365 -0.5296  0.5551
  617MOL0     O83218   5.422   9.031   9.086  0.6952 -0.2811 -0.8115
  617MOL0     C83219   5.360   9.156   9.051  0.0088 -0.5273  0.0143
  617MOL0     C83220   5.206   9.146   9.039 -0.2616 -0.4076  0.1807
  617MOL0     C83221   5.165   9.027   8.941 -0.4926  0.5072 -0.3130
  617MOL0     C83222   5.168   9.062   8.800  0.3128  0.6498  0.1776
  617MOL0     C83223   5.046   9.128   8.754 -0.0802 -0.2287 -0.2116
  617MOL0     C83224   4.952   9.184   8.705  0.2384 -0.2155  0.2749
  617MOL0     C83225   5.630   9.105   8.989 -0.1479 -0.1253 -0.1058
  617MOL0     C83226   5.760   9.082   8.949 -1.0354 -0.2589 -0.2957
  617MOL0     C83227   5.835   9.205   8.896  1.0391  0.1858 -0.5898
  617MOL0     H83228   6.228   8.845   9.008  1.2405 -0.5652  0.6241
  617MOL0     H83229   6.424   8.726   8.960 -1.5044  2.3756 -0.2878
  617MOL0     H83230   6.583   8.575   8.954 -3.6669  1.7102  0.1898
  617MOL0     H83231   6.495   8.429   9.000  1.5933 -0.4275  0.2289
  617MOL0     H83232   6.686   8.451   8.770 -0.2514 -1.0580 -0.3493
  617MOL0     H83233   6.605   8.308   8.817 -2.0487  0.4787  2.3461
  617MOL0     H83234   6.716   8.278   9.022 -0.0463  0.3495 -0.0439
  617MOL0     H83235   6.795   8.445   9.004  0.0671  0.5354 -0.4484
  617MOL0     H83236   6.852   8.187   8.833  0.0100 -0.9849 -0.4220
  617MOL0     H83237   6.906   8.352   8.794  3.6925 -0.9400 -0.2471
  617MOL0     H83238   7.093   8.254   8.895  2.4481  3.5558  1.9304
  617MOL0     H83239   7.040   8.370   9.008  0.0641 -0.8175  0.8517
  617MOL0     H83240   6.973   8.203   9.162 -4.1282 -3.5480 -0.5704
  617MOL0     H83241   6.923   8.095   9.037 -0.5504 -0.5798  1.6041
  617MOL0     H83242   7.222   8.162   9.088  0.4034 -0.7103 -1.2308
  617MOL0     H83243   7.141   8.031   8.992  0.9508  0.9409 -1.3900
  617MOL0     H83244   7.047   7.952   9.230  0.1040 -1.8886 -1.0124
  617MOL0     H83245   7.208   7.926   9.162  1.0566  1.5271 -2.4907
  617MOL0     H83246   7.399   8.118   9.266 -1.3258  3.2433 -1.8620
  617MOL0     H83247   7.393   8.379   9.497  1.1618  0.7125 -0.2587
  617MOL0     H83248   7.435   8.258   9.621 -1.4035  3.4127  0.1256
  617MOL0     H83249   7.586   8.156   9.442  1.3177  0.2555 -0.7843
  617MOL0     H83250   7.577   8.306   9.354  0.9638  1.7052  1.2177
  617MOL0     H83251   7.666   8.283   9.637  0.4028 -1.7941 -0.6558
  617MOL0     H83252   7.623   8.433   9.548 -0.7551 -0.1397  1.2698
  617MOL0     H83253   7.818   8.372   9.375  6.0406 -1.8469 -0.8113
  617MOL0     H83254   7.819   8.208   9.446 -1.3250 -1.7016  1.8330
  617MOL0     H83255   8.093   8.413   9.704  1.5207  0.7477  0.5209
  617MOL0     H83256   8.326   8.458   9.649  1.2117 -2.0576  0.6662
  617MOL0     H83257   8.638   8.552   9.275 -1.2060 -0.7702  1.3775
  617MOL0     H83258   8.872   8.653   9.270 -1.1079  0.0128 -0.7138
  617MOL0     H83259   9.172   8.505   9.508  0.6121  0.9896  0.6837
  617MOL0     H83260   9.111   8.515   9.337 -1.2270  0.3033  0.6160
  617MOL0     H83261   9.235   8.714   9.305 -1.3244 -2.4960  0.5866
  617MOL0     H83262   9.297   8.704   9.478 -1.6980  2.7300  0.3650
  617MOL0     H83263   9.397   8.506   9.426 -0.9329 -1.7001 -1.3830
  617MOL0     H83264   9.347   8.494   9.262  0.1506 -2.2106  0.9827
  617MOL0     H83265   9.536   8.691   9.402 -0.1598 -0.5799  0.7735
  617MOL0     H83266   9.482   8.742   9.240 -3.5348 -1.4621 -0.3708
  617MOL0     H83267   9.556   8.527   9.141 -0.7893  3.1293 -0.9987
  617MOL0     H83268   9.624   8.469   9.293  1.3689  1.1174  2.7328
  617MOL0     H83269   9.701   8.720   9.143  0.7268 -2.4760 -1.7031
  617MOL0     H83270   9.793   8.658   9.289 -0.0133 -0.7711  0.8297
  617MOL0     H83271   9.772   8.514   9.016  1.8170  0.2310 -1.4150
  617MOL0     H83272   9.819   8.451   9.165  2.3113  0.3271 -1.1479
  617MOL0     H83273   9.996   8.619   9.200  2.9423  0.8857 -1.0445
  617MOL0     H83274  10.015   8.542   9.036  2.4476  0.2972  0.4625
  617MOL0     H83275   8.947   8.510   9.665  2.3211 -0.5955 -2.2118
  617MOL0     H83276   8.688   8.448   9.679 -1.6225 -0.4078 -1.0017
  617MOL0     H83277   8.242   8.299   9.247  1.0519 -0.9609  0.6828
  617MOL0     H83278   8.003   8.271   9.318 -3.8460  2.1189  2.6241
  617MOL0     H83279   6.197   8.466   8.699 -0.8572  0.9602 -1.3072
  617MOL0     H83280   6.008   8.552   8.777  0.9746  1.0255 -1.1426
  617MOL0     H83281   5.757   8.754   9.009  0.9913  0.0745 -3.0305
  617MOL0     H83282   5.548   8.817   9.141 -0.0426  1.8114  0.9012
  617MOL0     H83283   5.396   9.201   8.958  1.0316  2.5197  1.7392
  617MOL0     H83284   5.380   9.226   9.133 -0.4988  0.6199 -0.8241
  617MOL0     H83285   5.167   9.247   9.024 -0.4459 -0.4238  0.5534
  617MOL0     H83286   5.149   9.120   9.128 -2.1115  0.5434 -0.6779
  617MOL0     H83287   5.066   8.984   8.955  0.1273 -1.4894 -1.6506
  617MOL0     H83288   5.236   8.947   8.962 -1.0513  0.7802  3.2557
  617MOL0     H83289   5.262   9.110   8.770  2.1708 -2.6662  0.1973
  617MOL0     H83290   5.171   8.971   8.741 -2.6700  0.7907 -0.3520
  617MOL0     H83291   4.864   9.233   8.670 -0.4560  0.0588  2.2734
  617MOL0     H83292   5.590   9.205   8.976  3.7442  1.3390 -2.8498
  617MOL0     H83293   5.776   9.297   8.903  0.6736 -0.1356  0.8432
  617MOL0     H83294   5.922   9.219   8.961 -0.1163  2.0978  0.6782
  617MOL0     H83295   5.880   9.201   8.797 -0.9703 -1.2576 -1.4948
  618MOL0     O83296  11.163   1.364  11.184 -0.4825  0.2032  0.1004
  618MOL0     C83297  11.207   1.355  11.068 -1.2390  0.0074 -0.9071
  618MOL0     O83298  11.327   1.404  11.027  0.7105 -0.1435  0.5944
  618MOL0     C83299  11.409   1.468  11.111  0.0469  0.3410  0.5018
  618MOL0     C83300  11.411   1.608  11.097  0.2957 -0.0511 -0.1486
  618MOL0     C83301  11.486   1.680  11.184 -0.0032  0.2416 -0.2132
  618MOL0     C83302  11.579   1.614  11.274 -0.5537 -0.1905  0.6064
  618MOL0     O83303  11.666   1.684  11.359 -0.4539  0.8610 -0.1973
  618MOL0     C83304  11.690   1.820  11.325  0.5970  0.1303  0.5053
  618MOL0     C83305  11.781   1.888  11.420  0.4996 -0.6833  0.0028
  618MOL0     C83306  11.929   1.838  11.403  0.4489  0.4860  0.4362
  618MOL0     C83307  12.040   1.929  11.451 -0.2397 -0.2802 -0.0247
  618MOL0     C83308  12.173   1.859  11.427 -0.6288  0.5773 -0.1962
  618MOL0     C83309  12.288   1.938  11.495  0.4438  0.6430  0.8414
  618MOL0     C83310  12.418   1.871  11.488  0.5191  0.0909  0.0924
  618MOL0     C83311  12.541   1.954  11.527 -0.1423 -0.2129 -0.1920
  618MOL0     N83312  12.562   2.080  11.455 -0.0859 -0.1866  0.8521
  618MOL0     C83313  12.666   2.116  11.373 -1.0709  0.4035  0.4782
  618MOL0     C83314  12.649   2.248  11.347 -0.7249  0.7440 -0.0296
  618MOL0     C83315  12.761   2.341  11.301  0.6004  0.3999  0.1606
  618MOL0     C83316  12.794   2.317  11.154 -0.9915  0.0495 -0.1897
  618MOL0     C83317  12.923   2.381  11.104 -0.5822  0.6898  0.0383
  618MOL0     C83318  12.937   2.533  11.116 -0.0788  0.0894  0.2690
  618MOL0     O83319  13.069   2.564  11.151  0.6971  0.1379  0.3218
  618MOL0     C83320  13.163   2.575  11.055 -0.1905  0.8410 -0.1600
  618MOL0     C83321  13.288   2.602  11.106  1.1272  0.9624  0.5250
  618MOL0     C83322  13.399   2.576  11.029  0.2700  0.3685  0.2446
  618MOL0     C83323  13.384   2.559  10.888 -0.1353  0.7336 -0.0759
  618MOL0     C83324  13.507   2.558  10.807  0.3838  0.8425 -0.3657
  618MOL0     O83325  13.623   2.505  10.860 -0.0078  0.2433  0.0184
  618MOL0     C83326  13.741   2.541  10.801 -0.2823  0.2157  0.3355
  618MOL0     C83327  13.762   2.671  10.776 -0.5229 -1.1833 -0.3765
  618MOL0     C83328  13.883   2.710  10.712  0.5424 -0.4867  0.1134
  618MOL0     C83329  13.969   2.617  10.667  0.6254  0.8076 -0.3545
  618MOL0     O83330  14.081   2.645  10.595 -0.3930  0.3852 -0.2826
  618MOL0     C83331  14.200   2.640  10.678 -0.0667  0.1248 -0.3816
  618MOL0     C83332  14.286   2.751  10.629 -0.1549 -0.3444 -0.4907
  618MOL0     C83333  14.422   2.749  10.701  0.0101  0.3969 -0.0931
  618MOL0     C83334  14.517   2.857  10.651  0.0035 -0.0592 -0.7166
  618MOL0     C83335  14.660   2.841  10.709  0.2733  0.2800 -0.2997
  618MOL0     C83336  14.742   2.967  10.657 -0.8759  0.3319 -0.6229
  618MOL0     C83337  14.896   2.958  10.687 -0.3031  0.0703 -0.3285
  618MOL0     C83338  14.992   3.028  10.598 -0.7599 -0.2893  0.3259
  618MOL0    Cl83339  14.960   2.979  10.434 -0.0689 -0.3711  0.0831
  618MOL0     C83340  13.947   2.480  10.692  0.3741  0.4138  0.4749
  618MOL0     C83341  13.824   2.437  10.754 -1.1487 -0.5289 -0.5171
  618MOL0     O83342  13.487   2.594  10.686 -0.4661  0.3458  0.9875
  618MOL0     C83343  13.257   2.554  10.833  0.2509 -0.2601 -0.4867
  618MOL0     C83344  13.144   2.550  10.921 -0.1480 -0.1757 -0.0424
  618MOL0     N83345  12.542   2.284  11.418  0.7758 -0.3876  0.0825
  618MOL0     N83346  12.482   2.185  11.469 -0.1095 -0.0280 -0.2840
  618MOL0     C83347  11.578   1.472  11.285 -0.2639 -0.6543  0.0481
  618MOL0     C83348  11.495   1.403  11.200  0.0139  0.0220  0.2727
  618MOL0     C83349  11.117   1.319  10.957  0.0241  0.0419 -0.9255
  618MOL0     C83350  11.146   1.363  10.827  0.0775 -0.5244  0.4736
  618MOL0     C83351  11.052   1.346  10.726 -0.5343  0.5675  0.4138
  618MOL0     C83352  10.928   1.290  10.746 -0.7247 -0.1727  0.7122
  618MOL0     O83353  10.838   1.285  10.642  0.1553  0.0388 -0.3699
  618MOL0     C83354  10.868   1.341  10.505 -0.9329 -0.0389  0.0233
  618MOL0     C83355  10.754   1.334  10.408 -0.3280 -0.6322 -0.7863
  618MOL0     C83356  10.681   1.202  10.393  0.2422 -1.0489 -0.5872
  618MOL0     C83357  10.609   1.190  10.253 -0.1196  1.0635 -0.2238
  618MOL0     C83358  10.503   1.293  10.229  0.1732  0.1450 -0.0175
  618MOL0     C83359  10.412   1.379  10.217 -0.5411  0.4519  0.9635
  618MOL0     C83360  10.903   1.236  10.872 -0.3242  0.7245 -0.0730
  618MOL0     C83361  10.994   1.242  10.975  0.8036  0.3220  0.1192
  618MOL0     C83362  10.957   1.177  11.105  0.2872  0.0711 -0.6340
  618MOL0     H83363  11.356   1.668  11.025 -0.0614 -1.3479 -0.9946
  618MOL0     H83364  11.497   1.787  11.171  2.8664  0.3632  2.0285
  618MOL0     H83365  11.734   1.822  11.224  0.2184  0.5210  0.3477
  618MOL0     H83366  11.594   1.869  11.343  0.1578 -0.4167 -0.2885
  618MOL0     H83367  11.757   1.863  11.524  1.3503 -0.9062  0.1493
  618MOL0     H83368  11.776   1.996  11.408  0.2642 -0.7046 -0.1072
  618MOL0     H83369  11.937   1.834  11.294 -0.7798  2.4499  0.2169
  618MOL0     H83370  11.930   1.741  11.453 -0.2656 -0.3803 -1.1331
  618MOL0     H83371  12.036   2.022  11.392 -0.8921  0.8008  1.6397
  618MOL0     H83372  12.030   1.944  11.559 -0.4098  3.7473 -0.4411
  618MOL0     H83373  12.174   1.757  11.468  1.9859 -0.3668 -2.3626
  618MOL0     H83374  12.200   1.841  11.323 -0.0905 -0.1662  0.0627
  618MOL0     H83375  12.291   2.030  11.436  1.2243 -0.0925 -0.3019
  618MOL0     H83376  12.253   1.970  11.594  1.3103  1.4999  0.8914
  618MOL0     H83377  12.432   1.843  11.384 -1.9563 -0.2867 -0.2050
  618MOL0     H83378  12.413   1.776  11.542 -1.8193  1.4407  2.5058
  618MOL0     H83379  12.535   1.967  11.635 -0.0526 -1.2753 -0.0479
  618MOL0     H83380  12.627   1.888  11.509 -0.9174 -0.8965 -1.5032
  618MOL0     H83381  12.734   2.038  11.341 -2.4107  0.2476 -2.3277
  618MOL0     H83382  12.730   2.446  11.308 -2.5768 -0.4246 -0.2279
  618MOL0     H83383  12.846   2.321  11.368  0.4373 -2.8453 -0.4267
  618MOL0     H83384  12.816   2.210  11.148  1.6625  0.5771 -1.3813
  618MOL0     H83385  12.713   2.351  11.089 -0.6310 -2.9844 -2.4871
  618MOL0     H83386  12.953   2.345  11.005  0.8571  0.4238  0.5421
  618MOL0     H83387  13.014   2.338  11.149 -0.6131 -0.3143 -0.8137
  618MOL0     H83388  12.870   2.569  11.195 -0.4148 -2.7168  1.3746
  618MOL0     H83389  12.897   2.593  11.033 -1.1192  1.0696  1.4253
  618MOL0     H83390  13.301   2.615  11.213  0.7473 -1.0916  0.8662
  618MOL0     H83391  13.488   2.577  11.090 -0.4916  0.4929  1.3874
  618MOL0     H83392  13.688   2.741  10.815 -0.2026 -2.3264  2.5107
  618MOL0     H83393  13.910   2.810  10.680 -0.3521 -0.5905 -1.0453
  618MOL0     H83394  14.175   2.645  10.784 -0.2554 -1.2089 -0.3448
  618MOL0     H83395  14.251   2.545  10.658  0.0085 -0.9622  4.0591
  618MOL0     H83396  14.304   2.753  10.521  0.2050  1.8275 -0.4153
  618MOL0     H83397  14.238   2.846  10.654  1.2981 -0.1272  1.6633
  618MOL0     H83398  14.410   2.752  10.810 -1.9420 -1.0177 -0.2257
  618MOL0     H83399  14.476   2.656  10.682 -0.2564 -0.1977  1.9006
  618MOL0     H83400  14.483   2.953  10.692  4.7101  1.8903 -0.7228
  618MOL0     H83401  14.516   2.856  10.542  1.7338  0.1292 -0.7666
  618MOL0     H83402  14.706   2.746  10.679 -1.5127 -0.8534  0.4153
  618MOL0     H83403  14.648   2.839  10.817 -3.2002  1.6487 -0.5214
  618MOL0     H83404  14.729   2.982  10.549 -2.3403 -0.0509 -0.5255
  618MOL0     H83405  14.702   3.060  10.699  0.5737  1.6543 -1.9998
  618MOL0     H83406  14.927   2.853  10.678  1.1598  0.6192 -3.5010
  618MOL0     H83407  14.916   2.993  10.789  2.0930 -2.4153  0.1718
  618MOL0     H83408  14.980   3.136  10.613  2.0234  0.1274  0.1484
  618MOL0     H83409  15.095   3.001  10.625 -0.0141  3.2102  1.6431
  618MOL0     H83410  14.008   2.406  10.642 -1.0143 -0.2430 -0.3329
  618MOL0     H83411  13.800   2.331  10.761 -0.4012 -0.6233  1.1931
  618MOL0     H83412  13.247   2.536  10.727 -0.8090 -0.1604 -0.4091
  618MOL0     H83413  13.041   2.537  10.889 -0.9454 -0.1342  2.3193
  618MOL0     H83414  11.643   1.418  11.353 -1.4262 -0.6656  1.1976
  618MOL0     H83415  11.488   1.295  11.201  0.8149 -0.0485 -0.7169
  618MOL0     H83416  11.239   1.415  10.807 -0.2807  0.5478  1.4885
  618MOL0     H83417  11.080   1.392  10.632 -1.2085  0.2175  0.0352
  618MOL0     H83418  10.951   1.284  10.463 -0.1401  1.0366  0.1045
  618MOL0     H83419  10.898   1.446  10.505 -0.4963 -0.1440  1.2840
  618MOL0     H83420  10.800   1.359  10.312  1.1870 -0.9495 -0.1683
  618MOL0     H83421  10.685   1.418  10.421 -1.4716 -1.7050  0.3494
  618MOL0     H83422  10.609   1.194  10.475  1.1412 -3.9093  0.0518
  618MOL0     H83423  10.752   1.119  10.404 -0.3393 -1.5284 -0.4099
  618MOL0     H83424  10.676   1.199  10.167 -1.5177  0.4209 -1.4116
  618MOL0     H83425  10.570   1.088  10.250  1.7596  0.2497 -4.2900
  618MOL0     H83426  10.349   1.464  10.200 -0.0415  0.9781  1.6807
  618MOL0     H83427  10.816   1.172  10.875 -0.6251  1.1569  0.6740
  618MOL0     H83428  10.880   1.102  11.082  0.9917 -0.4782 -1.2684
  618MOL0     H83429  11.037   1.121  11.155 -1.3875 -0.1599  1.9549
  618MOL0     H83430  10.916   1.255  11.169 -1.4552 -0.4860 -0.9991
  619MOL0     O83431   0.581   0.484   9.445  0.0146 -0.1360 -0.6595
  619MOL0     C83432   0.512   0.498   9.343  0.1297  0.7417  0.6157
  619MOL0     O83433   0.547   0.458   9.220  0.3210  0.1372 -0.3419
  619MOL0     C83434   0.676   0.422   9.205  0.4015 -1.1524 -0.0832
  619MOL0     C83435   0.725   0.308   9.274 -0.3454  0.5553  0.1431
  619MOL0     C83436   0.851   0.259   9.242  0.1300  0.2481 -0.3170
  619MOL0     C83437   0.937   0.332   9.155  0.0779 -0.6876 -0.6744
  619MOL0     O83438   1.072   0.303   9.138  0.0773  0.9863 -0.1011
  619MOL0     C83439   1.145   0.212   9.220  0.7021 -0.0795 -0.1541
  619MOL0     C83440   1.283   0.197   9.173 -0.2725  0.4234  0.1006
  619MOL0     C83441   1.305   0.123   9.044 -0.0731  0.1302  0.2802
  619MOL0     C83442   1.450   0.075   9.010 -0.2299 -0.4888 -0.6018
  619MOL0     C83443   1.500  -0.011   9.129 -0.8893  0.3445  0.2666
  619MOL0     C83444   1.619  -0.100   9.081  0.4060 -1.2006  0.3675
  619MOL0     C83445   1.673  -0.204   9.176 -0.3794  0.2749 -0.8898
  619MOL0     C83446   1.764  -0.292   9.084 -0.2097  0.5179  0.4169
  619MOL0     N83447   1.864  -0.366   9.160  0.7715 -0.3880  0.0252
  619MOL0     C83448   1.957  -0.312   9.238 -0.8450 -0.3014 -1.0270
  619MOL0     C83449   2.028  -0.418   9.287  0.4912  0.8743  0.1110
  619MOL0     C83450   2.134  -0.396   9.389  0.3901 -0.1019  0.1624
  619MOL0     C83451   2.277  -0.401   9.336 -0.0054  0.6503 -0.2015
  619MOL0     C83452   2.373  -0.404   9.448 -0.8181  0.1817  0.1580
  619MOL0     C83453   2.517  -0.425   9.405  0.0419  0.2755 -0.4305
  619MOL0     O83454   2.539  -0.552   9.344 -0.1124  0.7944 -0.0042
  619MOL0     C83455   2.661  -0.610   9.354 -0.0289 -0.6438  0.0864
  619MOL0     C83456   2.776  -0.548   9.402  0.0428  0.9660  0.8080
  619MOL0     C83457   2.902  -0.613   9.403  0.1633  0.3369  0.5903
  619MOL0     C83458   2.911  -0.748   9.343  0.4907 -0.4002 -0.3693
  619MOL0     C83459   3.038  -0.831   9.315  0.3079 -0.1566  0.0316
  619MOL0     O83460   3.029  -0.947   9.249 -0.5708 -0.0366  0.6019
  619MOL0     C83461   3.141  -1.017   9.204  0.2882  0.6483  0.0574
  619MOL0     C83462   3.113  -1.158   9.170  0.8696  0.0594 -0.6435
  619MOL0     C83463   3.207  -1.237   9.120  0.9100  0.7867 -0.0615
  619MOL0     C83464   3.341  -1.196   9.107 -0.2962  0.1303 -0.8349
  619MOL0     O83465   3.426  -1.272   9.040  0.1628  0.4947  0.3503
  619MOL0     C83466   3.430  -1.412   9.073 -0.4509  0.0205 -0.2832
  619MOL0     C83467   3.543  -1.482   9.010  0.4877 -0.2992 -1.0141
  619MOL0     C83468   3.580  -1.606   9.096 -0.1039 -0.0797  0.4590
  619MOL0     C83469   3.707  -1.672   9.032 -0.3882  0.5100  0.7359
  619MOL0     C83470   3.767  -1.784   9.119  0.2022 -0.3196 -0.1330
  619MOL0     C83471   3.893  -1.831   9.050 -0.6260 -0.6675 -0.3682
  619MOL0     C83472   4.011  -1.752   9.097 -0.2705 -0.0625 -0.6795
  619MOL0     C83473   4.137  -1.812   9.049  0.1844  0.1045 -0.4730
  619MOL0    Cl83474   4.262  -1.685   9.067  0.3629  0.1563  0.0080
  619MOL0     C83475   3.375  -1.063   9.140  0.0153 -0.1640 -0.1156
  619MOL0     C83476   3.272  -0.977   9.189 -0.5107  0.4109 -0.5385
  619MOL0     O83477   3.137  -0.771   9.354 -0.4026  0.0292 -0.1387
  619MOL0     C83478   2.786  -0.809   9.302  0.3209  0.0817 -1.1117
  619MOL0     C83479   2.665  -0.738   9.311  0.4363  0.1754  0.1132
  619MOL0     N83480   1.977  -0.540   9.228  0.0019 -0.5473  0.6612
  619MOL0     N83481   1.874  -0.507   9.155 -0.4291  0.1417 -0.8058
  619MOL0     C83482   0.891   0.443   9.089 -0.0279  0.1110  0.1052
  619MOL0     C83483   0.764   0.496   9.120 -0.1419  0.0686  0.2967
  619MOL0     C83484   0.379   0.571   9.357  0.2897  0.3069 -0.2425
  619MOL0     C83485   0.310   0.590   9.233  0.1267 -0.3263  0.2381
  619MOL0     C83486   0.186   0.640   9.225 -0.6152 -0.4120 -0.0020
  619MOL0     C83487   0.114   0.674   9.334 -0.0618  0.4640  0.0154
  619MOL0     O83488  -0.010   0.717   9.336  0.3138  0.4583  0.1460
  619MOL0     C83489  -0.075   0.756   9.217 -0.3731  0.2317  0.2820
  619MOL0     C83490  -0.201   0.837   9.235  0.3556 -0.0730 -0.1625
  619MOL0     C83491  -0.194   0.914   9.362 -0.4237  0.1502 -0.1726
  619MOL0     C83492  -0.278   1.042   9.369 -0.2815 -0.1834  0.0795
  619MOL0     C83493  -0.418   1.005   9.355 -0.1241 -1.5535  0.0184
  619MOL0     C83494  -0.536   0.992   9.331  0.1975  0.0297  0.3450
  619MOL0     C83495   0.177   0.666   9.459 -0.3983  0.2399 -0.3170
  619MOL0     C83496   0.312   0.618   9.472  0.2591  0.2087 -0.6883
  619MOL0     C83497   0.383   0.622   9.602 -0.5352  0.0303  0.7197
  619MOL0     H83498   0.650   0.253   9.330 -2.2629 -0.3516 -3.0189
  619MOL0     H83499   0.872   0.159   9.279  1.3565  1.0148  1.1723
  619MOL0     H83500   1.144   0.249   9.323  1.1017 -0.2409 -0.0919
  619MOL0     H83501   1.102   0.113   9.202 -3.9576  1.6624  0.2608
  619MOL0     H83502   1.331   0.151   9.259 -2.1156 -0.9342  0.4559
  619MOL0     H83503   1.324   0.298   9.173 -0.6267  0.5884  1.5759
  619MOL0     H83504   1.262   0.183   8.964 -1.5638 -2.2765 -0.8547
  619MOL0     H83505   1.244   0.032   9.048 -0.7492  0.5569 -0.0464
  619MOL0     H83506   1.452   0.016   8.918  0.4965 -0.5575 -0.5478
  619MOL0     H83507   1.505   0.168   8.998 -3.2506  1.3979 -0.7443
  619MOL0     H83508   1.532   0.055   9.210  0.6101 -0.5122  0.4225
  619MOL0     H83509   1.415  -0.072   9.161 -2.9214  3.3284  0.9731
  619MOL0     H83510   1.583  -0.149   8.991 -0.0157 -0.9692  0.4099
  619MOL0     H83511   1.695  -0.027   9.049 -0.0332 -1.0013 -0.2344
  619MOL0     H83512   1.598  -0.263   9.231  0.5092  2.0123  2.4025
  619MOL0     H83513   1.726  -0.148   9.252 -0.8809  0.6724 -0.8282
  619MOL0     H83514   1.691  -0.358   9.036 -1.3711  1.3927  0.9245
  619MOL0     H83515   1.819  -0.233   9.010 -0.1836  0.0608  0.0653
  619MOL0     H83516   1.970  -0.211   9.276  1.0547 -0.0747 -2.1323
  619MOL0     H83517   2.124  -0.299   9.437 -1.2584  1.5801 -3.2359
  619MOL0     H83518   2.113  -0.472   9.465 -1.0337  1.8091  1.7570
  619MOL0     H83519   2.287  -0.497   9.285 -0.5294  0.6912 -0.3927
  619MOL0     H83520   2.295  -0.318   9.267 -0.1709  0.9168  0.0755
  619MOL0     H83521   2.353  -0.498   9.500 -2.6357 -0.9300 -2.3494
  619MOL0     H83522   2.371  -0.318   9.515  1.7739 -0.8001  1.6171
  619MOL0     H83523   2.579  -0.421   9.495  0.5792 -0.0801 -0.7763
  619MOL0     H83524   2.540  -0.336   9.346  1.3365  2.0448  2.5318
  619MOL0     H83525   2.773  -0.445   9.434 -2.3044  1.2111 -0.0266
  619MOL0     H83526   2.993  -0.564   9.436  1.4976  0.1146 -2.4412
  619MOL0     H83527   3.013  -1.196   9.186  1.0814 -0.4829 -0.5996
  619MOL0     H83528   3.169  -1.336   9.097 -0.1670  0.3273  3.1944
  619MOL0     H83529   3.446  -1.419   9.181 -2.4629  0.9773  0.1259
  619MOL0     H83530   3.338  -1.462   9.042 -0.3141  0.0163 -0.6830
  619MOL0     H83531   3.532  -1.505   8.904  0.6691 -3.2750 -0.4636
  619MOL0     H83532   3.627  -1.412   9.020 -2.1829  2.9173  2.0311
  619MOL0     H83533   3.597  -1.577   9.200  2.5382  1.0837 -0.2116
  619MOL0     H83534   3.508  -1.688   9.095  1.2563 -1.3104 -0.3974
  619MOL0     H83535   3.777  -1.588   9.028 -0.8410  0.8697 -2.0121
  619MOL0     H83536   3.683  -1.697   8.928  1.3403  1.5747  0.0287
  619MOL0     H83537   3.698  -1.868   9.131 -1.4429  0.6796 -2.1295
  619MOL0     H83538   3.779  -1.759   9.225  1.5603  4.2768 -1.1373
  619MOL0     H83539   3.903  -1.938   9.073 -0.2535 -0.4594  0.4838
  619MOL0     H83540   3.887  -1.812   8.942  0.6919 -2.3119 -0.7880
  619MOL0     H83541   4.015  -1.746   9.206  0.7634  2.7034 -0.7892
  619MOL0     H83542   3.999  -1.646   9.073 -1.4264  0.6210  2.4163
  619MOL0     H83543   4.158  -1.895   9.117  1.1989 -1.6390 -2.7733
  619MOL0     H83544   4.128  -1.844   8.945 -0.0373 -2.1517  0.1937
  619MOL0     H83545   3.475  -1.026   9.119  0.0639 -0.1843  0.0831
  619MOL0     H83546   3.295  -0.881   9.234 -2.7056  0.1717  1.2728
  619MOL0     H83547   2.790  -0.911   9.266 -1.1072  0.4533 -2.4637
  619MOL0     H83548   2.569  -0.772   9.272 -0.7173  0.6902  2.3307
  619MOL0     H83549   0.963   0.489   9.022 -0.8401  1.8198  0.3614
  619MOL0     H83550   0.735   0.597   9.091  1.0091  1.3308  3.2113
  619MOL0     H83551   0.355   0.559   9.139  0.0580 -2.3154  0.8246
  619MOL0     H83552   0.145   0.651   9.125 -3.3247  1.7301  1.2115
  619MOL0     H83553  -0.087   0.672   9.148 -3.2915  1.5163 -0.8976
  619MOL0     H83554  -0.003   0.831   9.180  0.2793 -1.5334 -2.2824
  619MOL0     H83555  -0.287   0.769   9.239 -1.4560  2.0001 -1.3824
  619MOL0     H83556  -0.227   0.891   9.144 -0.4278  0.4303  0.3407
  619MOL0     H83557  -0.092   0.954   9.366  0.7910 -2.7334  0.0961
  619MOL0     H83558  -0.210   0.852   9.450 -1.3986  1.4863  0.6241
  619MOL0     H83559  -0.255   1.090   9.465 -2.0479 -1.7214  1.3442
  619MOL0     H83560  -0.248   1.108   9.287  1.1386 -0.4475  0.3525
  619MOL0     H83561  -0.642   0.991   9.321 -0.0279  1.1976  2.1647
  619MOL0     H83562   0.124   0.694   9.549  0.8376 -0.8878  0.8189
  619MOL0     H83563   0.375   0.527   9.655 -0.2931 -1.1181 -1.2177
  619MOL0     H83564   0.489   0.649   9.594 -0.6957  1.0278  1.6324
  619MOL0     H83565   0.348   0.704   9.666  1.5188  3.4268 -2.1423
  620MOL0     O83566   5.274  10.584   4.168  0.1556 -0.0812  0.2120
  620MOL0     C83567   5.254  10.461   4.141 -0.5219 -0.4573 -0.2519
  620MOL0     O83568   5.355  10.365   4.137  0.1449  0.0345  1.3997
  620MOL0     C83569   5.490  10.407   4.125  0.0350  0.5637  0.9311
  620MOL0     C83570   5.583  10.337   4.201 -0.8462  0.4278  0.6245
  620MOL0     C83571   5.721  10.376   4.201  0.6300  0.2192  0.1795
  620MOL0     C83572   5.767  10.482   4.121 -0.0100  1.0084  0.9121
  620MOL0     O83573   5.903  10.499   4.120  0.3980 -0.1504 -0.3104
  620MOL0     C83574   5.943  10.565   4.240 -0.3914  0.1116  0.0004
  620MOL0     C83575   6.042  10.476   4.307 -0.4451  0.0086 -0.2191
  620MOL0     C83576   6.101  10.535   4.434  0.0594  0.3561  0.0194
  620MOL0     C83577   6.222  10.452   4.481 -0.0059 -0.4849 -0.4673
  620MOL0     C83578   6.316  10.540   4.553 -0.6304 -0.6925  0.4531
  620MOL0     C83579   6.423  10.468   4.627 -0.5859 -0.8182 -0.0300
  620MOL0     C83580   6.537  10.566   4.654 -0.2435  0.7602  0.1646
  620MOL0     C83581   6.650  10.503   4.740 -0.4916  0.6518 -0.3111
  620MOL0     N83582   6.747  10.434   4.656  0.2782 -0.1169 -0.8995
  620MOL0     C83583   6.875  10.483   4.630 -0.2373 -0.8424 -0.6605
  620MOL0     C83584   6.939  10.378   4.565  0.6139 -0.6704 -0.8971
  620MOL0     C83585   7.080  10.387   4.500  0.2684  0.1492  0.1931
  620MOL0     C83586   7.193  10.301   4.574  0.2521  0.0838  0.1244
  620MOL0     C83587   7.342  10.341   4.541 -0.2891  0.2602 -0.4050
  620MOL0     C83588   7.427  10.230   4.610 -0.2265  0.2972 -0.5816
  620MOL0     O83589   7.540  10.188   4.525  0.2736 -0.0315 -0.4047
  620MOL0     C83590   7.641  10.100   4.579  0.5804  0.5418  0.9938
  620MOL0     C83591   7.669  10.096   4.713  0.4507  0.3848  0.5260
  620MOL0     C83592   7.778  10.021   4.767 -0.0520 -0.7022 -0.4445
  620MOL0     C83593   7.866   9.950   4.677  0.1030  0.4803 -0.4122
  620MOL0     C83594   7.991   9.885   4.732  0.2185  0.0423 -0.6045
  620MOL0     O83595   8.092   9.863   4.645 -0.1986 -0.0893 -0.5201
  620MOL0     C83596   8.212   9.816   4.686 -0.9555  0.1606 -0.4964
  620MOL0     C83597   8.325   9.896   4.648  0.1838  0.6268 -0.6572
  620MOL0     C83598   8.457   9.858   4.682  0.2216 -0.2687 -0.6024
  620MOL0     C83599   8.477   9.747   4.769  0.0297 -0.2014 -0.0736
  620MOL0     O83600   8.607   9.702   4.800  0.1938  0.1136 -0.1398
  620MOL0     C83601   8.717   9.771   4.733 -0.2693  0.2671  0.4959
  620MOL0     C83602   8.853   9.714   4.770  0.3264  1.0350 -0.0020
  620MOL0     C83603   8.971   9.778   4.700  0.2754  0.1263  0.3339
  620MOL0     C83604   9.106   9.736   4.749 -0.1754 -0.0812 -0.3423
  620MOL0     C83605   9.208   9.840   4.698 -0.5335 -0.3098 -0.2700
  620MOL0     C83606   9.344   9.798   4.757 -0.4561 -0.1942  0.6655
  620MOL0     C83607   9.458   9.880   4.689 -1.3492 -0.4296 -0.7063
  620MOL0     C83608   9.585   9.880   4.763  0.6557 -0.2381  1.0167
  620MOL0    Cl83609   9.563   9.981   4.903  0.1306 -0.0190  0.1233
  620MOL0     C83610   8.366   9.675   4.814 -0.2805  0.1512 -0.8803
  620MOL0     C83611   8.239   9.706   4.767  0.3493 -0.7115  0.0501
  620MOL0     O83612   7.988   9.867   4.855 -0.4296 -0.1269  0.0074
  620MOL0     C83613   7.839   9.958   4.539  0.2768  0.2224  0.4854
  620MOL0     C83614   7.719  10.025   4.491  0.0490 -0.4101 -0.7589
  620MOL0     N83615   6.860  10.268   4.568  0.2308 -0.5167  0.4937
  620MOL0     N83616   6.745  10.305   4.607 -0.9189 -0.7789 -0.2265
  620MOL0     C83617   5.674  10.552   4.046 -0.3417  0.0330  0.0886
  620MOL0     C83618   5.537  10.512   4.049  0.4960  0.0720  0.6451
  620MOL0     C83619   5.111  10.428   4.126 -0.4018 -0.0907  0.4499
  620MOL0     C83620   5.077  10.300   4.182 -0.0084 -1.0589  0.5869
  620MOL0     C83621   4.946  10.260   4.196  0.0724  0.0075 -1.1169
  620MOL0     C83622   4.837  10.337   4.143  1.3227  0.7849  0.7144
  620MOL0     O83623   4.704  10.292   4.171 -0.8941 -0.3791  0.5625
  620MOL0     C83624   4.597  10.374   4.136  0.6894  0.4093 -0.2378
  620MOL0     C83625   4.478  10.280   4.096  0.1801  1.0990  0.3480
  620MOL0     C83626   4.366  10.347   4.010  0.2395 -0.3921  0.3287
  620MOL0     C83627   4.274  10.445   4.092 -0.0641  0.9285  0.1758
  620MOL0     C83628   4.331  10.573   4.130 -0.6214  0.6150 -1.0695
  620MOL0     C83629   4.384  10.675   4.147 -0.3195 -0.0618  0.4212
  620MOL0     C83630   4.867  10.462   4.082  0.7952 -0.2422 -0.0496
  620MOL0     C83631   5.004  10.507   4.069 -0.2984 -0.1949 -0.9587
  620MOL0     C83632   5.014  10.642   4.007  0.7410 -0.2204 -0.1918
  620MOL0     H83633   5.554  10.263   4.275 -0.9217  0.5820  0.7509
  620MOL0     H83634   5.797  10.335   4.265  1.0434  1.7117  0.6870
  620MOL0     H83635   5.998  10.655   4.211  1.5480 -1.1861 -0.5808
  620MOL0     H83636   5.865  10.581   4.315 -0.8397  2.3082 -0.8728
  620MOL0     H83637   6.121  10.460   4.233  0.2143  2.3045 -0.1094
  620MOL0     H83638   5.994  10.380   4.328 -0.5783  0.6103  2.7885
  620MOL0     H83639   6.027  10.527   4.515  1.7262 -2.4198  1.3799
  620MOL0     H83640   6.120  10.642   4.421 -3.0368  0.9088 -0.9710
  620MOL0     H83641   6.189  10.362   4.535  0.2216 -0.0743  0.3673
  620MOL0     H83642   6.275  10.411   4.394  0.6185  0.1441 -0.3898
  620MOL0     H83643   6.368  10.606   4.483  0.1326 -1.0037  0.7142
  620MOL0     H83644   6.261  10.598   4.628 -2.2551  1.2816 -2.0835
  620MOL0     H83645   6.378  10.438   4.722  3.7855 -0.2089  2.4923
  620MOL0     H83646   6.455  10.377   4.576 -1.7487 -0.4743 -1.4329
  620MOL0     H83647   6.494  10.650   4.710 -0.9664 -1.2571  2.8316
  620MOL0     H83648   6.580  10.614   4.566  0.3446 -1.2188 -0.6748
  620MOL0     H83649   6.704  10.580   4.796  1.5962 -1.0266  0.1172
  620MOL0     H83650   6.605  10.422   4.799 -1.3681  1.3555  0.0130
  620MOL0     H83651   6.917  10.579   4.658 -0.0648 -1.3261  0.8616
  620MOL0     H83652   7.074  10.347   4.398  0.1153 -0.4025  0.4172
  620MOL0     H83653   7.106  10.492   4.518  0.9726 -0.3455  2.3625
  620MOL0     H83654   7.170  10.297   4.680 -0.9157 -0.8926 -0.1454
  620MOL0     H83655   7.172  10.199   4.542 -1.1745  0.5112 -0.3742
  620MOL0     H83656   7.365  10.442   4.578 -0.2115  0.3087 -0.5833
  620MOL0     H83657   7.350  10.341   4.432  1.7468  1.0128 -0.3087
  620MOL0     H83658   7.367  10.140   4.629  1.1863 -0.3628  1.0191
  620MOL0     H83659   7.455  10.275   4.706 -2.7616  2.6639 -0.8130
  620MOL0     H83660   7.621  10.168   4.779  0.7783  2.2497 -1.1686
  620MOL0     H83661   7.798  10.020   4.874 -1.3506  0.1212 -0.1735
  620MOL0     H83662   8.313   9.988   4.591  0.5086  0.6357 -0.7102
  620MOL0     H83663   8.538   9.924   4.653  0.5792 -0.4172  0.0538
  620MOL0     H83664   8.714   9.778   4.624 -0.6419 -0.0536  0.4853
  620MOL0     H83665   8.716   9.875   4.768 -2.2806  0.0947  1.1045
  620MOL0     H83666   8.867   9.730   4.877 -0.9486  0.3118  0.2921
  620MOL0     H83667   8.855   9.608   4.740  2.3862  0.3985  2.0521
  620MOL0     H83668   8.958   9.767   4.592  0.0014 -0.8939  0.4589
  620MOL0     H83669   8.950   9.882   4.729 -2.8223 -0.9817  2.7247
  620MOL0     H83670   9.117   9.632   4.716  0.5452 -0.4635  1.0231
  620MOL0     H83671   9.112   9.732   4.858  1.4528  1.1218 -0.3518
  620MOL0     H83672   9.190   9.941   4.737 -0.7531 -0.8403  1.0392
  620MOL0     H83673   9.198   9.851   4.590  2.3895 -0.6481 -0.6705
  620MOL0     H83674   9.341   9.827   4.862 -1.3226  2.6329 -0.0347
  620MOL0     H83675   9.358   9.690   4.747 -0.9911 -0.1317 -1.2427
  620MOL0     H83676   9.426   9.985   4.685 -2.4456 -0.7653 -1.1090
  620MOL0     H83677   9.475   9.850   4.585 -0.8855  2.7560 -1.6512
  620MOL0     H83678   9.627   9.779   4.777  0.1617 -0.6758 -0.4582
  620MOL0     H83679   9.662   9.923   4.698 -1.2125  0.6024 -0.7399
  620MOL0     H83680   8.387   9.584   4.868 -3.1556 -1.5686 -2.4187
  620MOL0     H83681   8.154   9.646   4.800  0.4835 -1.9745 -1.7372
  620MOL0     H83682   7.905   9.907   4.470 -0.3655 -2.5552  1.8037
  620MOL0     H83683   7.692  10.035   4.387  0.6449  0.1763 -0.8670
  620MOL0     H83684   5.717  10.620   3.973  1.7956 -0.5044  0.7614
  620MOL0     H83685   5.454  10.556   3.993 -1.3277 -3.7978 -0.0332
  620MOL0     H83686   5.159  10.241   4.223  1.7271  0.9298  0.1761
  620MOL0     H83687   4.923  10.163   4.241 -0.4878  0.5881 -0.1248
  620MOL0     H83688   4.609  10.452   4.060 -1.2641  0.5058 -0.5044
  620MOL0     H83689   4.559  10.428   4.223  0.6418  2.0371 -1.2367
  620MOL0     H83690   4.434  10.233   4.185 -0.2197  1.0526  0.1272
  620MOL0     H83691   4.522  10.199   4.037 -1.8256 -1.3275  1.9490
  620MOL0     H83692   4.308  10.265   3.967  0.0041  0.5507 -1.2301
  620MOL0     H83693   4.411  10.397   3.923  1.6191 -0.5129  0.9448
  620MOL0     H83694   4.191  10.477   4.029 -1.7431 -0.0013  1.8041
  620MOL0     H83695   4.233  10.402   4.184  1.6152 -0.0235  0.5316
  620MOL0     H83696   4.442  10.764   4.163 -1.8989  1.0564  0.1593
  620MOL0     H83697   4.789  10.530   4.049  0.2055 -0.1786  1.4412
  620MOL0     H83698   5.009  10.719   4.085  1.3792  1.8502 -2.0750
  620MOL0     H83699   5.107  10.651   3.949  0.2263 -0.3559 -1.0669
  620MOL0     H83700   4.937  10.670   3.934  0.4248 -0.9873 -0.1536
  621MOL0     O83701   6.137   0.220   7.583  0.2107 -0.5662 -0.5403
  621MOL0     C83702   6.146   0.271   7.471 -0.7834  0.1495 -0.4103
  621MOL0     O83703   6.264   0.346   7.426  0.5138  0.2267 -0.5477
  621MOL0     C83704   6.388   0.350   7.490 -0.0549 -0.2127  0.0273
  621MOL0     C83705   6.412   0.309   7.624 -0.2348  0.5660  0.4500
  621MOL0     C83706   6.542   0.315   7.674 -0.4879  0.1114  0.2860
  621MOL0     C83707   6.642   0.377   7.605  0.1293 -0.6280  0.8089
  621MOL0     O83708   6.767   0.375   7.657 -0.0583  0.6502 -0.3234
  621MOL0     C83709   6.883   0.388   7.570 -0.2716  0.7482 -0.8175
  621MOL0     C83710   6.934   0.530   7.574  0.1107  0.3092  0.3414
  621MOL0     C83711   7.066   0.552   7.494  0.3654 -0.8098 -0.5032
  621MOL0     C83712   7.148   0.670   7.538  0.5317 -0.0625  0.6053
  621MOL0     C83713   7.265   0.714   7.451  1.2074  0.4058  0.0935
  621MOL0     C83714   7.369   0.614   7.470 -0.3983  0.1938  0.2271
  621MOL0     C83715   7.496   0.641   7.386 -0.4692 -0.5365 -0.6549
  621MOL0     C83716   7.472   0.684   7.240 -0.7541 -0.0052 -0.7561
  621MOL0     N83717   7.580   0.628   7.161 -0.3978 -0.0678 -0.2211
  621MOL0     C83718   7.700   0.688   7.157 -0.4320 -0.1710 -0.1722
  621MOL0     C83719   7.779   0.611   7.071 -0.4482  0.1545 -0.2186
  621MOL0     C83720   7.914   0.650   7.029  1.8078 -0.4954  0.0758
  621MOL0     C83721   8.018   0.657   7.130  0.0977  0.0464 -0.6614
  621MOL0     C83722   8.044   0.526   7.215  0.4753 -0.2222  0.2442
  621MOL0     C83723   7.933   0.477   7.314  0.8233 -0.6093  0.5320
  621MOL0     O83724   7.905   0.591   7.397  0.5417  0.3512 -0.0103
  621MOL0     C83725   7.841   0.564   7.516  0.5240  0.6030 -0.1983
  621MOL0     C83726   7.819   0.668   7.609 -0.1005  0.0426  0.0595
  621MOL0     C83727   7.732   0.662   7.714  0.9044 -0.0035  0.7312
  621MOL0     C83728   7.658   0.546   7.736 -0.5476  0.3820  0.2368
  621MOL0     C83729   7.555   0.538   7.837  0.7118 -0.3377  0.0110
  621MOL0     O83730   7.548   0.627   7.938 -0.4286 -0.5046  0.0289
  621MOL0     C83731   7.432   0.627   8.000 -0.4466  0.3450 -0.7886
  621MOL0     C83732   7.345   0.731   7.971 -0.9903  0.8911  0.4139
  621MOL0     C83733   7.225   0.737   8.042 -0.0309 -0.2998  0.6494
  621MOL0     C83734   7.189   0.638   8.141  0.2680 -0.1771  0.2743
  621MOL0     O83735   7.070   0.650   8.200 -0.2082 -0.4818  0.2754
  621MOL0     C83736   7.054   0.726   8.322  0.5408 -0.6631  0.1171
  621MOL0     C83737   6.928   0.813   8.306 -0.3264  0.4493  0.0804
  621MOL0     C83738   6.926   0.908   8.426 -0.0342  0.5205  0.6947
  621MOL0     C83739   6.792   0.986   8.418 -0.0527 -0.2503  0.2333
  621MOL0     C83740   6.741   1.032   8.560 -0.3279  0.1135  0.3535
  621MOL0     C83741   6.606   1.104   8.529 -0.6164  0.7335 -0.3664
  621MOL0     C83742   6.528   1.131   8.655 -0.0679 -0.4000  0.7434
  621MOL0     C83743   6.462   0.999   8.702 -0.9165  0.8019  0.7939
  621MOL0    Cl83744   6.328   1.049   8.815 -0.0001  0.1816 -0.2885
  621MOL0     C83745   7.276   0.538   8.177 -0.5132  0.3980 -0.0368
  621MOL0     C83746   7.402   0.534   8.105 -0.9808  0.0150 -0.5739
  621MOL0     O83747   7.476   0.448   7.818  0.1818 -0.1923  0.9315
  621MOL0     C83748   7.684   0.438   7.643  0.3027  0.2807  0.8091
  621MOL0     C83749   7.776   0.444   7.538 -0.7613 -0.1695 -0.7163
  621MOL0     N83750   7.702   0.506   7.036 -0.4542  0.3693  0.0130
  621MOL0     N83751   7.586   0.518   7.091  0.4579  0.9065 -0.9686
  621MOL0     C83752   6.612   0.434   7.474  0.3060 -0.1311 -0.3325
  621MOL0     C83753   6.492   0.413   7.413  0.1281  0.7289  0.2911
  621MOL0     C83754   6.033   0.283   7.377  0.2537 -0.5124 -0.4192
  621MOL0     C83755   6.059   0.271   7.244 -0.8385  0.4290 -0.1702
  621MOL0     C83756   5.962   0.280   7.141  0.0553 -0.0936 -0.6347
  621MOL0     C83757   5.825   0.288   7.181  0.1479  0.2213 -0.3273
  621MOL0     O83758   5.722   0.289   7.089  0.9669 -0.4117 -0.6539
  621MOL0     C83759   5.753   0.265   6.951  0.6994 -0.2979  0.1372
  621MOL0     C83760   5.635   0.221   6.878 -0.1637  0.2200  0.5254
  621MOL0     C83761   5.567   0.092   6.924 -0.5963  0.3498  0.0041
  621MOL0     C83762   5.656  -0.025   6.962  0.2896  0.2295 -0.3173
  621MOL0     C83763   5.578  -0.141   6.991  0.2800  1.2993  0.3419
  621MOL0     C83764   5.522  -0.246   7.019 -0.0458 -0.3723  0.1499
  621MOL0     C83765   5.797   0.298   7.319  0.3573 -1.6308 -0.4157
  621MOL0     C83766   5.899   0.302   7.418  0.6920 -0.1522  0.0864
  621MOL0     C83767   5.870   0.327   7.562  0.4943 -0.9892 -0.1064
  621MOL0     H83768   6.327   0.274   7.681 -3.1596  0.3229 -3.6481
  621MOL0     H83769   6.562   0.263   7.767 -1.2293 -0.5716  0.0656
  621MOL0     H83770   6.969   0.334   7.611  1.2326  2.5443 -1.4307
  621MOL0     H83771   6.862   0.358   7.467  0.9274  2.2312 -1.5301
  621MOL0     H83772   6.946   0.566   7.676  0.4979  0.6930  0.1673
  621MOL0     H83773   6.858   0.584   7.518  0.9657  0.1570 -1.0254
  621MOL0     H83774   7.053   0.562   7.386 -1.5907 -2.1582 -0.4460
  621MOL0     H83775   7.131   0.464   7.505  2.8934  1.1036  1.0068
  621MOL0     H83776   7.085   0.756   7.559  1.4316  0.7609  0.0193
  621MOL0     H83777   7.187   0.648   7.638  3.2455 -0.0429 -0.3379
  621MOL0     H83778   7.237   0.716   7.346 -0.1692 -2.2887  0.3283
  621MOL0     H83779   7.294   0.815   7.481 -0.1969  0.3089  1.9578
  621MOL0     H83780   7.402   0.609   7.574  1.8121 -3.1526 -0.4368
  621MOL0     H83781   7.340   0.509   7.459  0.0417 -0.1987  2.4377
  621MOL0     H83782   7.560   0.553   7.385  0.3106 -0.0434 -3.4818
  621MOL0     H83783   7.554   0.716   7.440 -0.7569 -1.5128  1.0632
  621MOL0     H83784   7.375   0.644   7.210 -2.0693  2.9441 -0.7791
  621MOL0     H83785   7.477   0.794   7.237  0.7778 -0.0604 -1.3561
  621MOL0     H83786   7.741   0.777   7.203  1.6748 -0.0269 -2.1476
  621MOL0     H83787   7.945   0.571   6.960 -0.7755 -0.9505 -0.6887
  621MOL0     H83788   7.906   0.738   6.965  0.7657 -0.3285  0.4144
  621MOL0     H83789   8.107   0.678   7.071 -1.4274  1.7559 -2.4838
  621MOL0     H83790   8.010   0.744   7.196  1.0897  0.9307 -1.6685
  621MOL0     H83791   8.135   0.538   7.274  0.7236  2.0061 -0.5099
  621MOL0     H83792   8.063   0.440   7.150  1.1040  3.0323 -4.3128
  621MOL0     H83793   7.982   0.395   7.367  0.8938 -0.9401 -0.0292
  621MOL0     H83794   7.841   0.434   7.273  1.0182 -0.7014  0.1843
  621MOL0     H83795   7.874   0.759   7.589 -2.0318  1.1540 -0.3570
  621MOL0     H83796   7.715   0.743   7.784 -0.6517 -1.2141  1.8111
  621MOL0     H83797   7.374   0.803   7.895  1.8565  0.9192  1.3920
  621MOL0     H83798   7.162   0.820   8.010  1.0235 -0.3448 -1.7427
  621MOL0     H83799   7.054   0.658   8.407  2.5777 -0.3346  0.4168
  621MOL0     H83800   7.140   0.791   8.341 -0.1750  0.1215  0.7625
  621MOL0     H83801   6.947   0.873   8.216  0.5784  2.5488  1.5871
  621MOL0     H83802   6.834   0.761   8.287 -0.4507  0.6225  0.2156
  621MOL0     H83803   6.924   0.838   8.510  2.0989 -0.1504  0.2310
  621MOL0     H83804   7.010   0.978   8.428 -0.7663  1.6203 -2.1864
  621MOL0     H83805   6.717   0.929   8.363  0.4246 -0.1711 -0.5117
  621MOL0     H83806   6.803   1.079   8.363 -0.2383  0.0763  0.7434
  621MOL0     H83807   6.806   1.110   8.600 -1.2454  0.9180  0.3056
  621MOL0     H83808   6.719   0.944   8.621 -1.0970  1.0609  1.4897
  621MOL0     H83809   6.624   1.203   8.486  1.3755  0.9859  0.9272
  621MOL0     H83810   6.558   1.044   8.451  3.8664 -1.0864 -2.1002
  621MOL0     H83811   6.457   1.209   8.627  0.4087  0.2650  1.3646
  621MOL0     H83812   6.595   1.171   8.731 -1.3210  0.5301  1.3792
  621MOL0     H83813   6.428   0.936   8.619  4.1722 -0.8671 -0.4362
  621MOL0     H83814   6.531   0.937   8.761 -1.2814 -0.6988 -0.2876
  621MOL0     H83815   7.253   0.459   8.247  0.7769  0.6020  0.6486
  621MOL0     H83816   7.479   0.462   8.132 -0.8841  0.3640  0.1003
  621MOL0     H83817   7.636   0.342   7.658 -1.8108  1.0155 -0.7196
  621MOL0     H83818   7.796   0.355   7.479  1.5023 -0.7785  0.8100
  621MOL0     H83819   6.688   0.490   7.421  0.0517  1.2967  0.7607
  621MOL0     H83820   6.462   0.448   7.315 -1.1912 -2.1383 -0.4519
  621MOL0     H83821   6.163   0.266   7.215  0.0447  2.0719  2.3698
  621MOL0     H83822   5.998   0.272   7.039 -1.1144  0.1313 -1.0785
  621MOL0     H83823   5.831   0.190   6.940  1.0628  0.4101 -3.2139
  621MOL0     H83824   5.807   0.355   6.919 -0.7570  1.2349  1.7545
  621MOL0     H83825   5.665   0.209   6.773 -0.7705  2.4323  0.0358
  621MOL0     H83826   5.555   0.296   6.880 -1.7349 -1.4146  2.4842
  621MOL0     H83827   5.506   0.052   6.843  0.8741 -1.7873 -0.1366
  621MOL0     H83828   5.509   0.108   7.015  0.8120 -1.4489  1.3173
  621MOL0     H83829   5.733  -0.051   6.889 -0.6965 -2.6218 -0.4798
  621MOL0     H83830   5.712   0.002   7.052  1.1905 -0.7297 -0.5768
  621MOL0     H83831   5.468  -0.334   7.048 -0.8092 -0.5262 -1.6111
  621MOL0     H83832   5.695   0.315   7.352  0.0116 -1.3627 -1.5855
  621MOL0     H83833   5.919   0.421   7.588  0.5862 -1.3128  0.8957
  621MOL0     H83834   5.762   0.342   7.569  0.5623 -0.7331  0.4037
  621MOL0     H83835   5.898   0.247   7.630 -3.1125 -1.9635  0.4647
  622MOL0     O83836   4.364   9.446   3.643  0.4097 -0.2771 -0.1731
  622MOL0     C83837   4.372   9.343   3.706 -0.1764  0.4251  1.2601
  622MOL0     O83838   4.275   9.280   3.783  0.1157 -0.2132  0.4387
  622MOL0     C83839   4.162   9.358   3.815  0.1906 -0.0604 -0.1792
  622MOL0     C83840   4.169   9.480   3.884 -0.3572  0.6512 -0.1058
  622MOL0     C83841   4.060   9.559   3.909  1.2822 -0.3994 -0.7162
  622MOL0     C83842   3.936   9.519   3.884  0.3351 -0.0629  0.0892
  622MOL0     O83843   3.837   9.610   3.924 -0.0389  0.7502  0.1508
  622MOL0     C83844   3.704   9.595   3.872  0.3624  1.0396 -0.7500
  622MOL0     C83845   3.620   9.495   3.959 -0.7117 -0.6477  0.1032
  622MOL0     C83846   3.636   9.520   4.107  0.0302  0.4619 -0.1276
  622MOL0     C83847   3.611   9.662   4.162 -0.3498 -0.3018 -0.3273
  622MOL0     C83848   3.475   9.681   4.240  0.1284 -0.4580 -0.3793
  622MOL0     C83849   3.466   9.595   4.369  0.0668 -0.0152 -0.1194
  622MOL0     C83850   3.565   9.638   4.481  0.7033 -0.0423 -0.0120
  622MOL0     C83851   3.544   9.567   4.616  0.6295  0.6744 -0.4576
  622MOL0     N83852   3.643   9.601   4.719  0.0066  0.3804 -0.2816
  622MOL0     C83853   3.649   9.716   4.794 -0.3737  0.5572  0.1277
  622MOL0     C83854   3.763   9.699   4.865  1.2242 -0.9554  0.4833
  622MOL0     C83855   3.810   9.812   4.952 -0.8696  0.4869 -0.9219
  622MOL0     C83856   3.821   9.773   5.094  0.4306  0.0826  0.3773
  622MOL0     C83857   3.858   9.892   5.182  0.1677 -0.1109  0.1003
  622MOL0     C83858   3.858   9.865   5.330 -0.2353 -0.8790 -0.2939
  622MOL0     O83859   3.949   9.762   5.365 -0.0466  0.3459 -0.3907
  622MOL0     C83860   4.084   9.783   5.401  0.4548  0.6882  0.1245
  622MOL0     C83861   4.151   9.903   5.392  0.2193 -0.0269 -0.5490
  622MOL0     C83862   4.291   9.908   5.417 -0.1251 -0.2558 -0.1198
  622MOL0     C83863   4.363   9.796   5.424 -1.1425 -0.6233 -1.1487
  622MOL0     C83864   4.515   9.810   5.420  0.7505  0.2598 -0.2752
  622MOL0     O83865   4.592   9.699   5.415 -0.2788  0.0040 -0.4507
  622MOL0     C83866   4.724   9.715   5.397 -0.2742  0.6036 -0.5889
  622MOL0     C83867   4.786   9.667   5.285 -0.5216  0.7365  0.7550
  622MOL0     C83868   4.924   9.668   5.278 -0.9373 -0.0921  0.4781
  622MOL0     C83869   5.001   9.726   5.380 -0.0823 -0.1468  0.3251
  622MOL0     O83870   5.133   9.736   5.371  0.3423  0.3731 -0.0557
  622MOL0     C83871   5.200   9.627   5.298 -0.0122 -0.4969 -0.7709
  622MOL0     C83872   5.327   9.583   5.363  0.8081 -0.7308  0.2006
  622MOL0     C83873   5.460   9.602   5.281  0.4146 -0.0237 -0.3323
  622MOL0     C83874   5.585   9.559   5.355  0.0212  1.4335  0.2042
  622MOL0     C83875   5.706   9.615   5.277  0.2433  0.0393  0.2766
  622MOL0     C83876   5.853   9.561   5.325 -0.6649  0.3276 -0.5607
  622MOL0     C83877   5.903   9.636   5.450  0.2364 -1.4674  0.5261
  622MOL0     C83878   6.052   9.612   5.478 -0.7850  0.0869 -0.2433
  622MOL0    Cl83879   6.124   9.747   5.572 -0.0657 -0.4257  0.4168
  622MOL0     C83880   4.935   9.785   5.489 -0.3872 -0.3615 -0.3371
  622MOL0     C83881   4.798   9.783   5.496 -0.7056  0.4592  0.2589
  622MOL0     O83882   4.558   9.922   5.427  0.6705  0.3900 -0.2252
  622MOL0     C83883   4.301   9.676   5.448  0.2210  0.7427 -0.1754
  622MOL0     C83884   4.156   9.665   5.436 -0.1880 -0.8983 -0.2546
  622MOL0     N83885   3.828   9.585   4.820 -0.3803  0.4467  0.8341
  622MOL0     N83886   3.754   9.524   4.729  0.0602 -0.1615 -0.1272
  622MOL0     C83887   3.922   9.390   3.813  0.6313 -0.2827  0.1918
  622MOL0     C83888   4.038   9.321   3.777  0.1540 -0.8730  0.8988
  622MOL0     C83889   4.514   9.288   3.709 -0.5609 -0.3702  0.9019
  622MOL0     C83890   4.570   9.264   3.832 -0.1541  0.7019 -0.2280
  622MOL0     C83891   4.710   9.235   3.844  0.3527 -1.3635 -1.1852
  622MOL0     C83892   4.789   9.253   3.731 -0.1245  1.1302 -0.0336
  622MOL0     O83893   4.919   9.231   3.742  0.2347 -0.4902  0.5365
  622MOL0     C83894   4.956   9.101   3.797 -1.1197 -0.0942  0.0697
  622MOL0     C83895   5.090   9.067   3.744  0.0291  0.4904  0.8198
  622MOL0     C83896   5.206   9.165   3.795  0.6191 -0.3222 -1.1072
  622MOL0     C83897   5.344   9.101   3.794 -0.1139 -0.0196  0.4861
  622MOL0     C83898   5.447   9.206   3.810 -0.4031 -0.3100  0.4880
  622MOL0     C83899   5.542   9.280   3.808  0.1284  0.0306  0.4343
  622MOL0     C83900   4.731   9.251   3.605  0.5652 -0.2426 -0.2390
  622MOL0     C83901   4.597   9.283   3.598  0.6458  0.6467  0.0985
  622MOL0     C83902   4.542   9.289   3.457  0.4369 -0.8273  0.0560
  622MOL0     H83903   4.273   9.505   3.905 -0.2070 -1.3346  1.8903
  622MOL0     H83904   4.082   9.653   3.959  1.5393 -1.1423  0.6121
  622MOL0     H83905   3.654   9.691   3.856 -1.7330  0.0787 -0.2203
  622MOL0     H83906   3.719   9.549   3.773 -0.0037 -0.3552 -0.1800
  622MOL0     H83907   3.656   9.393   3.946  0.2346 -0.1962 -0.9441
  622MOL0     H83908   3.514   9.494   3.933 -1.0760 -0.1345  1.4658
  622MOL0     H83909   3.741   9.498   4.128 -0.1825  0.2272  0.7067
  622MOL0     H83910   3.579   9.444   4.161  2.2750  0.4236  2.3914
  622MOL0     H83911   3.692   9.671   4.235 -1.4563 -2.6454  1.2978
  622MOL0     H83912   3.613   9.728   4.075  0.0653 -3.2424 -2.7400
  622MOL0     H83913   3.460   9.787   4.263 -2.9212 -1.1335  1.1846
  622MOL0     H83914   3.403   9.642   4.168  2.2161 -3.5172 -1.0278
  622MOL0     H83915   3.365   9.586   4.410  0.7783  1.4539  2.1586
  622MOL0     H83916   3.492   9.493   4.339  1.7284  0.8781 -1.9498
  622MOL0     H83917   3.567   9.747   4.490  0.7797  0.2154 -2.4760
  622MOL0     H83918   3.664   9.607   4.445  0.0661 -0.3714 -1.5219
  622MOL0     H83919   3.445   9.600   4.649 -0.0156 -2.1659  0.7788
  622MOL0     H83920   3.523   9.460   4.605 -1.1925  1.2170 -3.1675
  622MOL0     H83921   3.569   9.789   4.802 -1.3616 -0.6153  1.5152
  622MOL0     H83922   3.906   9.855   4.923  0.5819 -2.7283 -1.4348
  622MOL0     H83923   3.728   9.885   4.954 -2.4852 -1.2420 -0.0437
  622MOL0     H83924   3.724   9.731   5.119 -0.4984  0.6474 -2.0047
  622MOL0     H83925   3.893   9.691   5.107  1.4872  1.0642  0.9516
  622MOL0     H83926   3.775   9.964   5.184 -0.4521 -0.5474 -3.5522
  622MOL0     H83927   3.956   9.932   5.154 -0.9457  1.9854 -1.0162
  622MOL0     H83928   3.762   9.839   5.375  0.8760  1.1576  3.7128
  622MOL0     H83929   3.890   9.956   5.381  0.2864  0.5025 -2.9161
  622MOL0     H83930   4.098   9.996   5.373 -1.0416 -0.8355 -1.1569
  622MOL0     H83931   4.334  10.008   5.421 -0.4936 -0.1392  1.8396
  622MOL0     H83932   4.716   9.624   5.214 -2.7559 -0.0631  3.2638
  622MOL0     H83933   4.964   9.627   5.186  1.4461 -1.6326  2.0783
  622MOL0     H83934   5.130   9.543   5.294  0.8239 -1.1801 -1.7365
  622MOL0     H83935   5.232   9.643   5.194  1.2923 -1.7243 -0.5965
  622MOL0     H83936   5.339   9.643   5.454 -0.2147 -1.8648  1.1227
  622MOL0     H83937   5.321   9.482   5.403  1.2831 -1.2515 -0.9898
  622MOL0     H83938   5.456   9.553   5.183  2.1216  0.0128 -0.4450
  622MOL0     H83939   5.456   9.708   5.257  0.1531 -0.5191 -2.6691
  622MOL0     H83940   5.593   9.450   5.358  3.8686  1.5028 -1.8010
  622MOL0     H83941   5.579   9.593   5.459  0.2249  0.7403  0.4495
  622MOL0     H83942   5.705   9.725   5.278 -1.6080  0.2818 -4.5369
  622MOL0     H83943   5.692   9.596   5.171 -0.3676 -4.0372  0.9300
  622MOL0     H83944   5.845   9.454   5.345  0.1651  0.1698 -1.0093
  622MOL0     H83945   5.921   9.574   5.240 -0.8286  1.2949 -0.5649
  622MOL0     H83946   5.838   9.600   5.530 -1.6661  0.4334 -0.0613
  622MOL0     H83947   5.883   9.742   5.432 -1.5079 -1.5313  1.7745
  622MOL0     H83948   6.070   9.520   5.535  1.3620 -0.5292 -1.8203
  622MOL0     H83949   6.105   9.597   5.384 -2.6582  2.0994 -1.7241
  622MOL0     H83950   4.977   9.842   5.571 -2.1749  0.8772 -0.2459
  622MOL0     H83951   4.745   9.821   5.583 -0.8585  0.7189  0.0519
  622MOL0     H83952   4.356   9.585   5.473  0.8818  0.7658 -1.4519
  622MOL0     H83953   4.086   9.583   5.450 -1.2011  0.1699  1.2265
  622MOL0     H83954   3.833   9.340   3.775  1.1094 -1.8430  1.0572
  622MOL0     H83955   4.023   9.234   3.714 -1.8512  1.8181 -2.7145
  622MOL0     H83956   4.505   9.268   3.919  0.7898  1.9492  0.4612
  622MOL0     H83957   4.754   9.193   3.933  2.3092 -0.6442 -1.7677
  622MOL0     H83958   4.879   9.027   3.772 -0.2149 -0.1655 -2.9213
  622MOL0     H83959   4.953   9.108   3.906 -0.2808  1.5314  0.0265
  622MOL0     H83960   5.094   9.075   3.635  3.2816 -4.8544  0.1889
  622MOL0     H83961   5.107   8.960   3.762 -2.5099  0.3367  3.0505
  622MOL0     H83962   5.181   9.203   3.894 -2.1362  2.6542 -2.7446
  622MOL0     H83963   5.195   9.257   3.738  1.3292  0.3319 -0.2151
  622MOL0     H83964   5.348   9.022   3.870 -0.5147  0.8522  1.4383
  622MOL0     H83965   5.356   9.046   3.700 -0.9968 -2.6558  1.8249
  622MOL0     H83966   5.628   9.343   3.825 -0.9695  0.8473  3.6827
  622MOL0     H83967   4.790   9.239   3.515 -2.0532 -2.2897 -1.8530
  622MOL0     H83968   4.536   9.393   3.423  0.7235 -0.9137 -0.2677
  622MOL0     H83969   4.606   9.231   3.390  2.3031  0.5782  0.5209
  622MOL0     H83970   4.441   9.248   3.452  0.0127  0.0536  0.9140
  623MOL0     O83971   0.329   3.987   7.601  0.0992 -0.6023  0.0491
  623MOL0     C83972   0.248   3.898   7.618 -0.7632 -0.3196 -0.6240
  623MOL0     O83973   0.274   3.791   7.708 -0.7785  0.3152  0.4705
  623MOL0     C83974   0.402   3.756   7.746  0.4949 -0.1909  0.1975
  623MOL0     C83975   0.515   3.755   7.655  0.2595  0.4148 -0.3029
  623MOL0     C83976   0.639   3.701   7.699 -0.0562  0.5013 -0.4434
  623MOL0     C83977   0.654   3.660   7.831 -1.2129  0.7691 -0.0747
  623MOL0     O83978   0.785   3.618   7.871  0.6795 -0.2616  0.1918
  623MOL0     C83979   0.879   3.717   7.899 -0.2080  0.5633 -0.4233
  623MOL0     C83980   1.008   3.645   7.940  1.2386 -0.3748 -0.0597
  623MOL0     C83981   1.112   3.743   7.979 -0.0912 -0.2386 -0.6856
  623MOL0     C83982   1.140   3.862   7.891 -0.6428 -0.5672  0.6173
  623MOL0     C83983   1.289   3.888   7.904 -0.2070  0.4754  0.1692
  623MOL0     C83984   1.329   3.999   7.809  0.2165  0.4548  0.0925
  623MOL0     C83985   1.438   4.079   7.868 -0.2922 -0.6483  0.1227
  623MOL0     C83986   1.399   4.167   7.990 -0.3844  0.4419 -0.0011
  623MOL0     N83987   1.330   4.273   7.925 -0.6453 -0.4448 -0.1091
  623MOL0     C83988   1.386   4.381   7.863 -1.0095  0.9562  0.3230
  623MOL0     C83989   1.280   4.462   7.845 -0.2085  0.6301 -0.3599
  623MOL0     C83990   1.291   4.598   7.780  0.4637  0.2683  0.0791
  623MOL0     C83991   1.290   4.710   7.887  0.4841 -0.7031  0.1657
  623MOL0     C83992   1.412   4.707   7.990  0.6542  0.0087  0.0191
  623MOL0     C83993   1.544   4.717   7.914 -0.1451 -0.0983 -0.7578
  623MOL0     O83994   1.544   4.760   7.776 -0.9606  0.2321 -0.4889
  623MOL0     C83995   1.665   4.790   7.722 -0.1570  0.7162  0.0377
  623MOL0     C83996   1.789   4.754   7.775 -0.1305 -0.1505  0.3975
  623MOL0     C83997   1.904   4.781   7.710 -0.0121 -0.4315  0.8464
  623MOL0     C83998   1.905   4.852   7.583 -0.0943  0.2137  0.2619
  623MOL0     C83999   2.031   4.889   7.514 -1.1368 -0.3381  0.4185
  623MOL0     O84000   2.141   4.844   7.573  0.2948  0.3789 -0.7937
  623MOL0     C84001   2.259   4.907   7.532  0.1685 -0.1680  0.3815
  623MOL0     C84002   2.318   4.883   7.405 -0.4201 -0.1069  0.3759
  623MOL0     C84003   2.439   4.947   7.369 -0.6025 -0.1571 -0.0024
  623MOL0     C84004   2.500   5.037   7.448  0.7103  0.4963  0.1184
  623MOL0     O84005   2.609   5.105   7.406  0.2969  0.1476  0.2051
  623MOL0     C84006   2.717   5.033   7.352 -0.7680 -0.0892  0.4247
  623MOL0     C84007   2.832   5.126   7.366  0.5923  0.0234 -0.2972
  623MOL0     C84008   2.945   5.060   7.292  0.0054  0.5191 -0.2615
  623MOL0     C84009   3.062   5.163   7.283 -1.2579  0.0497  0.1363
  623MOL0     C84010   3.181   5.103   7.219  0.5510  0.0311  0.6554
  623MOL0     C84011   3.304   5.198   7.209 -0.2216  0.6570 -0.1912
  623MOL0     C84012   3.297   5.312   7.114 -0.2778  0.3535  0.5962
  623MOL0     C84013   3.426   5.404   7.122  0.6396 -0.4201 -0.3107
  623MOL0    Cl84014   3.575   5.316   7.072 -0.1390 -0.5172 -0.0652
  623MOL0     C84015   2.447   5.062   7.577  0.9161  0.2821 -0.0003
  623MOL0     C84016   2.332   4.989   7.615  0.4098 -0.2655 -0.1671
  623MOL0     O84017   2.024   4.960   7.413  0.7436 -0.4581 -0.1906
  623MOL0     C84018   1.780   4.892   7.532  0.1503  0.0269 -0.0669
  623MOL0     C84019   1.662   4.854   7.601 -0.0904  0.7810 -0.3033
  623MOL0     N84020   1.160   4.407   7.896  0.2938 -0.3884 -1.1370
  623MOL0     N84021   1.200   4.292   7.943  0.7095 -0.9240  0.1336
  623MOL0     C84022   0.547   3.653   7.920 -0.8281  0.4410  0.2613
  623MOL0     C84023   0.424   3.703   7.878 -0.0149  0.1091 -0.1000
  623MOL0     C84024   0.110   3.928   7.585 -0.3695 -0.6575 -0.5024
  623MOL0     C84025   0.079   4.015   7.478 -0.2482  0.5190  0.0085
  623MOL0     C84026  -0.046   4.053   7.449  0.6761  0.3146 -0.7661
  623MOL0     C84027  -0.159   4.001   7.519 -1.1702 -0.3243  0.3113
  623MOL0     O84028  -0.286   4.038   7.470  0.3371  0.1317 -0.2431
  623MOL0     C84029  -0.402   3.982   7.523  0.1064  0.0489 -0.1803
  623MOL0     C84030  -0.516   4.070   7.465 -0.3755  0.1790  0.6637
  623MOL0     C84031  -0.653   4.000   7.467 -0.2168  0.0990 -0.0403
  623MOL0     C84032  -0.733   3.998   7.595 -0.0864  0.4088 -0.2260
  623MOL0     C84033  -0.665   3.908   7.696  0.0608 -0.4074  0.5955
  623MOL0     C84034  -0.598   3.848   7.777  0.3255  0.1121 -0.7333
  623MOL0     C84035  -0.131   3.915   7.626  0.1249  1.0336 -0.0233
  623MOL0     C84036   0.002   3.877   7.664 -0.2137 -0.2659 -0.1604
  623MOL0     C84037   0.016   3.786   7.788 -0.0857 -1.1800 -0.6979
  623MOL0     H84038   0.508   3.782   7.550 -1.3684 -3.6159 -1.4269
  623MOL0     H84039   0.724   3.690   7.633  0.5328 -1.5930  0.5461
  623MOL0     H84040   0.897   3.778   7.810  1.3151  2.3239  0.9953
  623MOL0     H84041   0.846   3.788   7.975  0.3451 -0.9716  1.3184
  623MOL0     H84042   1.048   3.571   7.870 -0.5582  1.0503 -2.7354
  623MOL0     H84043   0.972   3.597   8.032  0.4405  1.6189  0.7154
  623MOL0     H84044   1.200   3.694   8.022 -0.8150  1.7442  3.5712
  623MOL0     H84045   1.070   3.778   8.074  2.1257  0.5310  0.0753
  623MOL0     H84046   1.116   3.840   7.786  4.9699 -1.2640 -0.8670
  623MOL0     H84047   1.080   3.944   7.932 -3.3138 -1.5176 -1.1266
  623MOL0     H84048   1.301   3.901   8.012 -2.3721 -1.5052  0.7439
  623MOL0     H84049   1.342   3.796   7.880 -0.9429  0.1960 -0.4259
  623MOL0     H84050   1.371   3.960   7.716 -0.9607 -2.0256  0.5248
  623MOL0     H84051   1.241   4.062   7.796 -0.4108 -0.2826  0.6146
  623MOL0     H84052   1.477   4.136   7.784 -2.2443 -0.5614 -0.7749
  623MOL0     H84053   1.520   4.010   7.892  0.5889 -0.5084 -2.2721
  623MOL0     H84054   1.339   4.113   8.064 -3.6597  1.3075 -1.7904
  623MOL0     H84055   1.486   4.206   8.044  3.8358 -0.3800 -5.3688
  623MOL0     H84056   1.486   4.404   7.826 -0.9275 -0.0182 -0.0947
  623MOL0     H84057   1.380   4.602   7.718 -0.7704  2.5067 -1.6808
  623MOL0     H84058   1.204   4.610   7.715 -0.6710 -0.6126  1.3647
  623MOL0     H84059   1.273   4.807   7.839 -2.7984 -0.0731  2.2601
  623MOL0     H84060   1.201   4.692   7.949 -0.0427  2.7254  0.6317
  623MOL0     H84061   1.409   4.612   8.044  2.7501  0.2077  0.5568
  623MOL0     H84062   1.409   4.790   8.061  1.9891 -0.3803  0.5668
  623MOL0     H84063   1.579   4.614   7.921 -2.6252 -0.9035  2.2663
  623MOL0     H84064   1.609   4.784   7.971 -3.1067 -0.1231  3.0943
  623MOL0     H84065   1.805   4.688   7.860  1.8183  0.4960  0.5760
  623MOL0     H84066   2.002   4.765   7.753 -0.0537 -1.2333  0.6541
  623MOL0     H84067   2.254   4.828   7.337 -1.0873  1.1049 -0.0203
  623MOL0     H84068   2.486   4.925   7.274  0.3310  2.3631 -0.1973
  623MOL0     H84069   2.748   4.948   7.413  0.4345  0.6228  0.8326
  623MOL0     H84070   2.690   4.999   7.251  0.8846  1.4811 -0.6375
  623MOL0     H84071   2.819   5.224   7.320 -0.4652 -0.3328 -0.7704
  623MOL0     H84072   2.861   5.139   7.471  2.3283  1.2128 -0.8678
  623MOL0     H84073   2.970   4.969   7.346 -2.9525  1.3173  2.8297
  623MOL0     H84074   2.919   5.036   7.189 -0.5480  1.5140 -0.3701
  623MOL0     H84075   3.087   5.205   7.381 -3.7468  0.5387  0.6418
  623MOL0     H84076   3.042   5.253   7.225  3.8675  0.6457 -1.1846
  623MOL0     H84077   3.153   5.061   7.121 -1.1721  1.9754  0.2473
  623MOL0     H84078   3.205   5.019   7.285  1.9086  0.2999  0.5355
  623MOL0     H84079   3.326   5.236   7.309  2.4542 -0.0301 -0.4354
  623MOL0     H84080   3.386   5.132   7.179 -0.8752  0.3012 -1.2240
  623MOL0     H84081   3.203   5.368   7.122 -1.6401 -1.7287 -0.2113
  623MOL0     H84082   3.302   5.270   7.014  2.7447 -2.2004  1.6775
  623MOL0     H84083   3.402   5.471   7.039  1.4228 -0.1989 -0.3716
  623MOL0     H84084   3.432   5.467   7.211 -1.4667  0.6448 -0.8596
  623MOL0     H84085   2.497   5.124   7.651  2.5845 -1.8987  0.8425
  623MOL0     H84086   2.299   4.992   7.719  2.8603  0.4355  0.6524
  623MOL0     H84087   1.774   4.951   7.442  0.5616  1.7727  0.9975
  623MOL0     H84088   1.562   4.873   7.563 -0.3581  0.1988  0.1003
  623MOL0     H84089   0.570   3.638   8.025  0.5359 -0.5173 -0.1350
  623MOL0     H84090   0.333   3.703   7.937  0.2278  0.1436  0.2765
  623MOL0     H84091   0.153   4.052   7.408 -0.2085  2.4040  0.9859
  623MOL0     H84092  -0.063   4.124   7.368  1.1125  2.0805  0.6186
  623MOL0     H84093  -0.390   3.985   7.632  2.6463 -1.6329 -0.3130
  623MOL0     H84094  -0.410   3.881   7.481  0.6575 -1.4471  3.0112
  623MOL0     H84095  -0.493   4.110   7.366  1.3111  2.5041  1.9073
  623MOL0     H84096  -0.526   4.158   7.529 -0.9390 -0.0214  0.8564
  623MOL0     H84097  -0.628   3.898   7.435 -1.0185  0.5938 -2.4886
  623MOL0     H84098  -0.719   4.044   7.392  1.3399  2.1030 -0.3087
  623MOL0     H84099  -0.760   4.096   7.636 -1.2599  0.7892 -1.7619
  623MOL0     H84100  -0.827   3.949   7.568  0.3453  0.4437 -1.9249
  623MOL0     H84101  -0.543   3.803   7.857  1.5349  0.7756 -1.1738
  623MOL0     H84102  -0.216   3.870   7.677  0.7850  1.4125  1.4409
  623MOL0     H84103   0.080   3.836   7.862 -1.7051  0.6908 -0.4651
  623MOL0     H84104  -0.081   3.778   7.836  0.2811  0.7383  0.4698
  623MOL0     H84105   0.048   3.683   7.770 -0.8897 -1.4181 -0.7741
  624MOL0     O84106   2.208   3.238   0.172  0.2737 -0.8835  0.5823
  624MOL0     C84107   2.154   3.342   0.145 -0.1375 -0.5390 -0.0482
  624MOL0     O84108   2.220   3.461   0.104  0.4419  0.1038  0.9406
  624MOL0     C84109   2.349   3.466   0.051  0.3794 -0.8823  0.4023
  624MOL0     C84110   2.426   3.361   0.004 -0.0238 -0.2768  0.6588
  624MOL0     C84111   2.557   3.371  -0.027  0.1403  0.4071  0.4931
  624MOL0     C84112   2.619   3.493  -0.025 -0.7973 -0.8254 -0.2368
  624MOL0     O84113   2.752   3.510  -0.036 -0.5919 -0.4086 -0.3206
  624MOL0     C84114   2.847   3.405  -0.023 -0.1498  0.1576 -0.1400
  624MOL0     C84115   2.973   3.475   0.036  0.2045 -0.3880  0.5344
  624MOL0     C84116   3.068   3.502  -0.083 -0.5177 -0.2729  0.5010
  624MOL0     C84117   3.195   3.566  -0.033 -0.6709 -0.0879  0.3444
  624MOL0     C84118   3.298   3.569  -0.145 -0.5832 -0.5144  0.3714
  624MOL0     C84119   3.307   3.704  -0.217 -0.1612 -0.1834  0.1794
  624MOL0     C84120   3.360   3.823  -0.132  0.1845  1.0309 -0.8005
  624MOL0     C84121   3.388   3.945  -0.216 -0.2889 -0.5327  0.2279
  624MOL0     N84122   3.492   3.926  -0.329  0.2039  0.1468  0.5207
  624MOL0     C84123   3.461   3.884  -0.457  0.7504  0.4632  0.1013
  624MOL0     C84124   3.579   3.881  -0.527  0.7851  0.0732  0.4126
  624MOL0     C84125   3.606   3.831  -0.674  0.1754  0.2279 -0.7982
  624MOL0     C84126   3.757   3.829  -0.698  0.0860  0.3765 -1.1553
  624MOL0     C84127   3.790   3.757  -0.822 -0.0731  0.2760  0.2898
  624MOL0     C84128   3.938   3.717  -0.837 -0.1197 -0.1157 -0.7134
  624MOL0     O84129   3.968   3.641  -0.959  0.6916  0.5533  0.4929
  624MOL0     C84130   4.093   3.632  -1.001 -0.1123  0.5750  0.6032
  624MOL0     C84131   4.210   3.656  -0.919  0.3235  0.3312 -0.4027
  624MOL0     C84132   4.333   3.636  -0.980 -0.1466  0.3622 -0.2540
  624MOL0     C84133   4.357   3.588  -1.113  0.3948 -0.2074 -0.1442
  624MOL0     C84134   4.495   3.581  -1.170 -1.0577 -0.3876  0.6734
  624MOL0     O84135   4.601   3.573  -1.090  0.1528 -0.2027 -0.2236
  624MOL0     C84136   4.715   3.516  -1.138 -0.5518 -0.2377 -0.9325
  624MOL0     C84137   4.750   3.382  -1.108  1.5196 -0.4752  0.7423
  624MOL0     C84138   4.881   3.347  -1.151  0.6606  0.4371 -0.9105
  624MOL0     C84139   4.966   3.422  -1.222 -0.6089  0.2531 -0.7163
  624MOL0     O84140   5.094   3.368  -1.261 -0.1258 -0.5486  0.1835
  624MOL0     C84141   5.151   3.432  -1.385  0.5108  0.5121  0.1037
  624MOL0     C84142   5.279   3.358  -1.416  0.5468  0.1087  0.6512
  624MOL0     C84143   5.374   3.455  -1.491 -0.6788 -0.5221  0.3647
  624MOL0     C84144   5.512   3.386  -1.519  0.0940  0.3848 -0.3650
  624MOL0     C84145   5.614   3.484  -1.579  1.1608 -0.4162 -0.3886
  624MOL0     C84146   5.645   3.620  -1.496  0.3301  0.4746 -0.0136
  624MOL0     C84147   5.793   3.665  -1.515 -0.1535 -0.3384 -0.5106
  624MOL0     C84148   5.816   3.694  -1.661  0.9370  0.2987 -0.0378
  624MOL0    Cl84149   5.765   3.860  -1.687 -0.3263 -0.2670  0.0845
  624MOL0     C84150   4.919   3.546  -1.262  0.7721 -0.3609 -0.7402
  624MOL0     C84151   4.794   3.595  -1.213 -0.1320  0.2802 -0.0769
  624MOL0     O84152   4.501   3.572  -1.296 -0.6099 -0.1666 -0.3694
  624MOL0     C84153   4.242   3.572  -1.189  0.5417 -0.3109  0.1079
  624MOL0     C84154   4.114   3.580  -1.129 -0.0261 -0.2442  0.4233
  624MOL0     N84155   3.671   3.921  -0.431 -0.4632  0.5853  0.4744
  624MOL0     N84156   3.622   3.950  -0.323  0.3398 -0.1278 -0.4250
  624MOL0     C84157   2.552   3.603   0.023  0.4981 -0.4403  0.2435
  624MOL0     C84158   2.418   3.591   0.061  0.1086  0.2229 -0.3414
  624MOL0     C84159   2.006   3.332   0.153 -0.0823  0.5691 -0.5874
  624MOL0     C84160   1.956   3.199   0.134  0.2335  0.0018  0.0711
  624MOL0     C84161   1.817   3.170   0.143 -0.3179  0.5428  0.4519
  624MOL0     C84162   1.730   3.274   0.173  0.5386  0.1733 -0.0371
  624MOL0     O84163   1.593   3.261   0.190  0.2345  0.0431 -0.5840
  624MOL0     C84164   1.547   3.130   0.238  0.4291 -0.4436 -0.0560
  624MOL0     C84165   1.393   3.129   0.283 -1.3823 -0.2002  0.1061
  624MOL0     C84166   1.341   3.229   0.377  0.1290 -0.3609 -0.4995
  624MOL0     C84167   1.184   3.235   0.384  0.0853 -0.1093  0.4443
  624MOL0     C84168   1.124   3.105   0.407 -0.3498 -0.1325 -0.6732
  624MOL0     C84169   1.071   2.996   0.434 -0.0257  0.8894  0.0693
  624MOL0     C84170   1.777   3.409   0.158 -0.1237  0.0378 -0.3078
  624MOL0     C84171   1.917   3.444   0.156 -0.1078  1.0080  0.2951
  624MOL0     C84172   1.949   3.586   0.163 -0.4776 -0.1597  0.8043
  624MOL0     H84173   2.389   3.261   0.021 -0.1344 -0.2535  0.5570
  624MOL0     H84174   2.609   3.280  -0.054  0.6988  0.5246  1.1479
  624MOL0     H84175   2.813   3.338   0.057  1.6605 -0.7472 -0.0926
  624MOL0     H84176   2.865   3.339  -0.108 -0.6697 -2.3103  1.5415
  624MOL0     H84177   3.029   3.409   0.103  3.0997  1.5570  0.2188
  624MOL0     H84178   2.942   3.566   0.088 -2.0013 -0.7097 -0.1485
  624MOL0     H84179   3.031   3.576  -0.154  0.6659  1.1005  1.2568
  624MOL0     H84180   3.089   3.406  -0.131  3.1508  1.0637 -0.8769
  624MOL0     H84181   3.176   3.666   0.007 -2.0677  0.8550 -2.4038
  624MOL0     H84182   3.244   3.505   0.043  0.2636 -0.1986 -0.3355
  624MOL0     H84183   3.396   3.548  -0.101  0.5816 -1.1063 -2.2915
  624MOL0     H84184   3.290   3.489  -0.219  2.6696  0.4240 -1.1765
  624MOL0     H84185   3.383   3.696  -0.296 -1.6746 -0.0249 -1.3587
  624MOL0     H84186   3.220   3.728  -0.279  0.8145  1.0523 -0.8007
  624MOL0     H84187   3.452   3.788  -0.083 -0.5123  0.5716  0.2113
  624MOL0     H84188   3.290   3.846  -0.051  2.6634 -1.2468  2.2543
  624MOL0     H84189   3.300   3.990  -0.263  0.9968  1.2110 -0.6391
  624MOL0     H84190   3.426   4.018  -0.144  0.6550 -1.4968  0.7428
  624MOL0     H84191   3.366   3.850  -0.497  1.9128 -1.6219 -1.0562
  624MOL0     H84192   3.554   3.735  -0.674 -1.8280  1.2487 -1.5648
  624MOL0     H84193   3.564   3.895  -0.752 -2.2683 -0.3420 -0.0108
  624MOL0     H84194   3.789   3.934  -0.700 -0.2221  0.5059 -0.1835
  624MOL0     H84195   3.790   3.772  -0.610 -2.7948  0.5150  0.1424
  624MOL0     H84196   3.773   3.831  -0.901 -0.9817  2.0206  2.0365
  624MOL0     H84197   3.727   3.671  -0.843  0.4274  0.2940 -1.4735
  624MOL0     H84198   3.976   3.652  -0.758 -2.0180 -0.1343  0.2485
  624MOL0     H84199   4.000   3.807  -0.832 -2.5542  1.6163  2.5701
  624MOL0     H84200   4.219   3.690  -0.816  2.0238 -3.2182  0.7798
  624MOL0     H84201   4.425   3.660  -0.926 -1.9774 -3.3738  5.5214
  624MOL0     H84202   4.683   3.322  -1.046 -0.1645  2.1634  1.6258
  624MOL0     H84203   4.911   3.244  -1.139  2.8478  1.2130  1.0467
  624MOL0     H84204   5.070   3.434  -1.458  1.1065 -0.9505 -0.6455
  624MOL0     H84205   5.184   3.534  -1.364  5.0658 -0.5542 -0.7583
  624MOL0     H84206   5.324   3.339  -1.319  1.3709 -3.4626 -0.2728
  624MOL0     H84207   5.272   3.260  -1.464  2.1668 -0.0591  0.7271
  624MOL0     H84208   5.336   3.489  -1.588  1.8517 -0.1187 -0.5618
  624MOL0     H84209   5.397   3.544  -1.431 -0.9749  1.8912 -2.8547
  624MOL0     H84210   5.479   3.320  -1.600 -1.4128  0.7786 -0.0942
  624MOL0     H84211   5.554   3.328  -1.436 -2.6929  0.1001  0.9497
  624MOL0     H84212   5.564   3.518  -1.670 -4.5945 -3.0999  1.3271
  624MOL0     H84213   5.705   3.431  -1.608  2.1786 -0.2230  2.2001
  624MOL0     H84214   5.564   3.693  -1.504 -0.1489  0.1493  1.5326
  624MOL0     H84215   5.635   3.589  -1.391 -0.4183  1.2543  0.1592
  624MOL0     H84216   5.850   3.577  -1.484  0.0070 -0.4263 -1.0522
  624MOL0     H84217   5.831   3.743  -1.449  0.0224 -0.4883 -0.4330
  624MOL0     H84218   5.924   3.690  -1.678  0.8910 -2.8364 -0.1461
  624MOL0     H84219   5.768   3.635  -1.740  0.5468  0.1101  0.3396
  624MOL0     H84220   4.974   3.606  -1.334  0.4264 -0.0341 -0.7366
  624MOL0     H84221   4.759   3.693  -1.247 -2.1413 -1.0690 -2.2272
  624MOL0     H84222   4.251   3.526  -1.287  1.0157 -1.6202  0.7392
  624MOL0     H84223   4.027   3.544  -1.185  0.0616  0.8794 -0.4761
  624MOL0     H84224   2.608   3.694   0.041  0.6875 -1.0170  3.1280
  624MOL0     H84225   2.364   3.670   0.112 -1.1431 -1.4024  0.9668
  624MOL0     H84226   2.020   3.115   0.109 -1.0794 -1.3348  1.0206
  624MOL0     H84227   1.794   3.064   0.147  0.7790  0.3173  1.3523
  624MOL0     H84228   1.598   3.115   0.334  0.3075  1.3873  0.3188
  624MOL0     H84229   1.571   3.054   0.163  0.1348  0.4979 -1.1112
  624MOL0     H84230   1.380   3.035   0.338  3.3035 -1.1486 -0.0538
  624MOL0     H84231   1.348   3.126   0.183  0.4932 -1.1573 -0.7608
  624MOL0     H84232   1.375   3.329   0.349 -2.1539 -0.0881 -2.7009
  624MOL0     H84233   1.372   3.189   0.474 -4.0901 -2.1747  0.3481
  624MOL0     H84234   1.157   3.309   0.460  3.0691  3.1793 -1.3570
  624MOL0     H84235   1.147   3.270   0.287  2.5119  1.3769 -0.0348
  624MOL0     H84236   1.039   2.897   0.457 -0.7952  0.8476 -1.0593
  624MOL0     H84237   1.704   3.489   0.164 -0.0079  0.3850 -2.5942
  624MOL0     H84238   2.032   3.606   0.231  2.7335 -2.6130 -2.0594
  624MOL0     H84239   1.996   3.621   0.070  0.0646 -0.1638  1.0765
  624MOL0     H84240   1.865   3.650   0.192 -0.3743  0.4468 -0.1709
  625MOL0     O84241   9.121   2.233   8.127 -0.2979 -0.7189 -1.1456
  625MOL0     C84242   9.020   2.311   8.134  0.0037 -0.1120 -0.1678
  625MOL0     O84243   8.990   2.381   8.242 -0.3820 -0.0710  0.7538
  625MOL0     C84244   9.069   2.412   8.355  0.5723 -1.0306 -0.4285
  625MOL0     C84245   9.016   2.482   8.464  0.2107 -0.3009  0.2439
  625MOL0     C84246   9.099   2.531   8.562 -0.2366  0.7356 -0.5217
  625MOL0     C84247   9.231   2.498   8.571  0.1971  0.5390 -0.2055
  625MOL0     O84248   9.287   2.546   8.690  0.2533 -0.8053  0.0460
  625MOL0     C84249   9.427   2.517   8.695 -0.2568 -0.0290 -0.0971
  625MOL0     C84250   9.489   2.552   8.836  0.6431 -0.2764  0.2081
  625MOL0     C84251   9.638   2.589   8.810  0.1927  0.0665 -0.2687
  625MOL0     C84252   9.711   2.623   8.939 -0.5209 -0.4019 -0.2272
  625MOL0     C84253   9.857   2.643   8.917  0.7787 -0.6228  0.4547
  625MOL0     C84254   9.935   2.620   9.046  0.3773  0.0011  0.6759
  625MOL0     C84255  10.072   2.687   9.046  0.2736 -0.2719  0.7426
  625MOL0     C84256  10.072   2.843   9.054  0.0867  0.0017  0.4628
  625MOL0     N84257  10.045   2.889   9.189  0.5211  0.1141  0.3384
  625MOL0     C84258  10.135   2.900   9.295 -0.3044  0.8188  1.0130
  625MOL0     C84259  10.060   2.950   9.400 -0.7134 -0.2466  0.1756
  625MOL0     C84260  10.088   2.966   9.548  0.4669  0.1512  0.5188
  625MOL0     C84261  10.174   3.087   9.576  0.4927 -0.5354 -0.2872
  625MOL0     C84262  10.105   3.219   9.525 -0.4827 -0.1877  0.2636
  625MOL0     C84263  10.177   3.350   9.542  1.7109  0.6548  0.1453
  625MOL0     O84264  10.300   3.360   9.471  0.0007 -0.3563 -0.0502
  625MOL0     C84265  10.423   3.380   9.532 -0.2880 -0.5362  0.0348
  625MOL0     C84266  10.453   3.363   9.668  0.1939  0.1663  0.1198
  625MOL0     C84267  10.584   3.388   9.710 -0.1667  0.1045 -0.8555
  625MOL0     C84268  10.687   3.437   9.626  0.7680  0.1576  0.6337
  625MOL0     C84269  10.833   3.446   9.674 -0.6217 -0.0329 -0.3039
  625MOL0     O84270  10.914   3.485   9.576 -0.4492 -0.5771 -0.1018
  625MOL0     C84271  11.044   3.519   9.608 -0.6716 -0.4285 -0.3891
  625MOL0     C84272  11.145   3.459   9.526  0.3033  0.1858 -0.8128
  625MOL0     C84273  11.280   3.493   9.540  0.8853 -0.5279 -0.6595
  625MOL0     C84274  11.325   3.588   9.639 -1.2669  0.0802 -0.7258
  625MOL0     O84275  11.460   3.605   9.656  0.4310 -0.2804 -0.2110
  625MOL0     C84276  11.552   3.572   9.545  0.9967 -0.1830  0.2769
  625MOL0     C84277  11.691   3.627   9.575 -0.0912  0.0164  0.1208
  625MOL0     C84278  11.792   3.590   9.463 -0.3518  0.9492 -0.1023
  625MOL0     C84279  11.921   3.665   9.477 -0.9279 -0.3236  0.1369
  625MOL0     C84280  12.026   3.620   9.374  0.2497  0.6258 -0.0632
  625MOL0     C84281  12.091   3.489   9.424 -0.3260  0.3891  0.0662
  625MOL0     C84282  12.123   3.388   9.318  0.4217  0.3224  0.7916
  625MOL0     C84283  12.209   3.272   9.358  0.2494 -0.9285  0.3271
  625MOL0    Cl84284  12.361   3.331   9.414  0.2151 -0.1528 -0.1326
  625MOL0     C84285  11.231   3.639   9.730  0.6996  0.1092  1.1074
  625MOL0     C84286  11.089   3.615   9.711 -0.9881  0.8853  0.2393
  625MOL0     O84287  10.862   3.434   9.798  0.0352 -0.4314  0.6267
  625MOL0     C84288  10.652   3.459   9.494  0.0735  0.0083  0.3466
  625MOL0     C84289  10.524   3.437   9.447 -0.5518 -0.1614 -0.0568
  625MOL0     N84290   9.935   2.971   9.348  0.5373  0.7011  0.8028
  625MOL0     N84291   9.926   2.946   9.218 -0.4902  0.6323 -0.4640
  625MOL0     C84292   9.285   2.424   8.467 -0.6775 -0.4072  0.1776
  625MOL0     C84293   9.210   2.393   8.354 -0.3551  0.3048  0.8656
  625MOL0     C84294   8.943   2.323   8.014  0.0482  0.2831 -0.6025
  625MOL0     C84295   8.831   2.409   8.020  0.0546  0.5343  0.0380
  625MOL0     C84296   8.745   2.424   7.916  0.0183 -0.2803  0.4270
  625MOL0     C84297   8.750   2.360   7.793 -0.9434  0.3879 -0.6830
  625MOL0     O84298   8.677   2.384   7.685 -0.6844  0.3980  0.6072
  625MOL0     C84299   8.642   2.517   7.661  0.4602 -0.0019 -0.6719
  625MOL0     C84300   8.735   2.633   7.695  0.0946 -0.0332  0.3663
  625MOL0     C84301   8.693   2.754   7.605 -0.0218  0.4964  0.9590
  625MOL0     C84302   8.552   2.808   7.643  0.0460  0.0841  0.5051
  625MOL0     C84303   8.507   2.893   7.524 -0.4394 -0.0834  0.1231
  625MOL0     C84304   8.462   2.966   7.437 -0.2644 -0.1392 -0.3103
  625MOL0     C84305   8.858   2.275   7.783 -0.1787 -0.2750 -0.0261
  625MOL0     C84306   8.959   2.261   7.882 -0.3339  0.1893 -0.0543
  625MOL0     C84307   9.071   2.175   7.853  0.9143 -0.5539  0.5296
  625MOL0     H84308   8.916   2.522   8.455  0.3082 -0.2087 -0.4495
  625MOL0     H84309   9.048   2.579   8.645 -0.5777 -3.5017  2.0201
  625MOL0     H84310   9.440   2.408   8.689 -0.2922 -0.2807  2.8533
  625MOL0     H84311   9.474   2.567   8.611  4.7374  1.3420  3.1292
  625MOL0     H84312   9.479   2.463   8.898  0.1134 -2.1102 -2.3252
  625MOL0     H84313   9.434   2.632   8.887  0.0708  0.3251 -1.2891
  625MOL0     H84314   9.647   2.673   8.741 -0.8348  1.2139  0.9283
  625MOL0     H84315   9.677   2.500   8.760  2.7874 -0.0068  1.7130
  625MOL0     H84316   9.661   2.710   8.982  0.3614 -0.1606  0.3272
  625MOL0     H84317   9.686   2.547   9.014 -0.8495  0.7622  0.8806
  625MOL0     H84318   9.898   2.571   8.845  0.2693  1.2246 -1.8100
  625MOL0     H84319   9.864   2.743   8.872  2.7139 -0.9793 -0.1105
  625MOL0     H84320   9.874   2.662   9.126 -0.0271 -1.8243  1.3490
  625MOL0     H84321   9.948   2.515   9.070  0.6299  0.3346  2.0638
  625MOL0     H84322  10.114   2.648   8.953  1.0485 -2.6783  2.0080
  625MOL0     H84323  10.138   2.648   9.124  1.7845  0.9751  0.1417
  625MOL0     H84324  10.167   2.880   9.014  0.8112 -0.0217  2.1057
  625MOL0     H84325   9.994   2.885   8.990 -0.3014  0.6398  1.3392
  625MOL0     H84326  10.238   2.866   9.298 -0.8678 -0.9658  1.7050
  625MOL0     H84327   9.991   2.978   9.597 -0.8089  1.1490 -2.0901
  625MOL0     H84328  10.133   2.872   9.581 -0.9863 -1.1553 -1.0302
  625MOL0     H84329  10.192   3.102   9.683  1.3796  0.5946 -0.5880
  625MOL0     H84330  10.273   3.075   9.532  1.7471 -0.2500  2.2620
  625MOL0     H84331  10.018   3.227   9.591 -0.6842 -3.5278  0.5763
  625MOL0     H84332  10.078   3.206   9.420  0.1654 -0.0330  0.0748
  625MOL0     H84333  10.199   3.368   9.648  2.3034  1.2601 -0.0711
  625MOL0     H84334  10.120   3.434   9.501 -0.0019 -0.0266  1.0290
  625MOL0     H84335  10.379   3.329   9.740 -2.6349  0.9085 -2.2848
  625MOL0     H84336  10.612   3.382   9.815 -2.9816  1.0875  0.0281
  625MOL0     H84337  11.098   3.389   9.457  0.3301 -0.9813  0.3204
  625MOL0     H84338  11.350   3.451   9.468 -0.0681  1.0115 -2.5979
  625MOL0     H84339  11.569   3.464   9.542 -1.5950 -0.6940 -3.9506
  625MOL0     H84340  11.508   3.591   9.447 -1.7050 -0.3461  1.3835
  625MOL0     H84341  11.690   3.737   9.582 -0.3753  0.0499 -0.4003
  625MOL0     H84342  11.721   3.584   9.671 -0.4497  0.1553  0.2997
  625MOL0     H84343  11.806   3.482   9.458 -0.4823  0.8662  1.0091
  625MOL0     H84344  11.750   3.614   9.365  3.4460 -1.0643 -2.4470
  625MOL0     H84345  11.965   3.649   9.575 -1.7605 -1.0160  0.4090
  625MOL0     H84346  11.916   3.774   9.472  2.2913 -0.1333 -1.7610
  625MOL0     H84347  12.103   3.694   9.349 -0.2996  1.6347  1.1533
  625MOL0     H84348  11.970   3.593   9.285  0.1320  0.2240  0.1304
  625MOL0     H84349  12.190   3.512   9.463 -0.1195  0.1887 -0.3466
  625MOL0     H84350  12.034   3.451   9.509  0.2637  0.4202  0.4748
  625MOL0     H84351  12.164   3.438   9.230 -0.9663  1.0279  0.5199
  625MOL0     H84352  12.025   3.344   9.299 -1.0462  2.2316  3.2861
  625MOL0     H84353  12.156   3.211   9.432 -0.6674 -1.2749 -0.5814
  625MOL0     H84354  12.214   3.209   9.269 -1.0283 -1.4914  0.6209
  625MOL0     H84355  11.272   3.691   9.817  1.3474 -0.5499  1.2073
  625MOL0     H84356  11.023   3.667   9.780 -2.0994 -0.2778  0.0822
  625MOL0     H84357  10.730   3.505   9.435  1.5149 -0.5738  1.7268
  625MOL0     H84358  10.496   3.459   9.344  3.9439  0.2650 -1.4014
  625MOL0     H84359   9.386   2.383   8.471 -0.6550 -0.4247 -0.5478
  625MOL0     H84360   9.257   2.327   8.281  0.4765 -0.2454  1.8852
  625MOL0     H84361   8.803   2.474   8.103  0.7526  2.9073 -1.4862
  625MOL0     H84362   8.662   2.490   7.940 -0.3104 -0.9560  1.1738
  625MOL0     H84363   8.545   2.531   7.710  1.6150 -1.0278  2.0724
  625MOL0     H84364   8.621   2.526   7.554 -2.5454  0.7368 -0.1078
  625MOL0     H84365   8.840   2.602   7.683 -0.4122 -2.2446  1.0414
  625MOL0     H84366   8.727   2.663   7.800  3.3663 -0.5300  0.8861
  625MOL0     H84367   8.696   2.725   7.500  1.2279  0.9360  0.8554
  625MOL0     H84368   8.769   2.831   7.620 -1.8780  2.7510 -0.6070
  625MOL0     H84369   8.477   2.729   7.657 -2.3874  1.8798 -1.6060
  625MOL0     H84370   8.562   2.883   7.722  1.3167  3.6023 -2.7497
  625MOL0     H84371   8.421   3.021   7.355  1.0661  1.5479  0.0882
  625MOL0     H84372   8.862   2.211   7.695  0.1248  1.8918 -1.6784
  625MOL0     H84373   9.158   2.240   7.844  0.9027 -0.8150 -2.8039
  625MOL0     H84374   9.090   2.111   7.940 -0.7970  0.4050  1.6615
  625MOL0     H84375   9.067   2.116   7.761  0.3547 -0.9439  0.7986
  626MOL0     O84376   9.757   7.392   2.407 -0.2619  0.0196 -0.4706
  626MOL0     C84377   9.663   7.420   2.334 -0.3789 -1.0001 -0.3426
  626MOL0     O84378   9.670   7.417   2.196  1.0105  0.0538  0.3135
  626MOL0     C84379   9.787   7.407   2.128  0.2446 -0.2357 -0.5242
  626MOL0     C84380   9.885   7.492   2.178 -0.6614  0.3429  0.5909
  626MOL0     C84381  10.009   7.492   2.117 -0.6788  1.2870 -0.5375
  626MOL0     C84382  10.033   7.406   2.005 -0.4028  0.8486 -1.6173
  626MOL0     O84383  10.156   7.382   1.944  0.5374  0.6269 -0.5666
  626MOL0     C84384  10.257   7.363   2.052 -0.1802  0.8087 -0.0456
  626MOL0     C84385  10.345   7.241   2.008 -0.2445  0.0802  0.3940
  626MOL0     C84386  10.472   7.235   2.085 -0.2678 -0.5002 -0.1997
  626MOL0     C84387  10.584   7.151   2.009 -0.5394 -0.4803 -0.1363
  626MOL0     C84388  10.720   7.158   2.090 -0.2533 -0.4725 -0.0126
  626MOL0     C84389  10.811   7.039   2.056  0.2341 -0.7601  0.0940
  626MOL0     C84390  10.952   7.053   2.114 -0.0320  0.8728  0.0826
  626MOL0     C84391  10.966   7.093   2.261 -0.2061 -0.3440 -0.2951
  626MOL0     N84392  11.105   7.117   2.309  0.1372 -0.4178 -0.2086
  626MOL0     C84393  11.142   7.172   2.433  0.4482  0.3130  0.4174
  626MOL0     C84394  11.275   7.189   2.424 -0.3332 -0.0983 -0.5667
  626MOL0     C84395  11.356   7.240   2.544 -0.4893 -0.7198  1.0519
  626MOL0     C84396  11.505   7.284   2.506 -0.2204  0.3629  0.5474
  626MOL0     C84397  11.564   7.361   2.624 -0.2462  0.0899 -0.4929
  626MOL0     C84398  11.710   7.409   2.614 -0.6602  0.0224 -0.2839
  626MOL0     O84399  11.732   7.519   2.522  0.1476  0.6609  0.7097
  626MOL0     C84400  11.841   7.603   2.536  0.4383  0.1358  0.5192
  626MOL0     C84401  11.949   7.578   2.624  0.1416 -0.3142  0.3398
  626MOL0     C84402  12.051   7.676   2.633  0.5275  0.1770 -0.1712
  626MOL0     C84403  12.048   7.796   2.559 -0.6980 -0.4491 -0.8752
  626MOL0     C84404  12.159   7.894   2.588 -0.3929 -0.5911  0.1663
  626MOL0     O84405  12.256   7.869   2.679 -0.9251  0.7416 -0.1560
  626MOL0     C84406  12.361   7.958   2.680  1.4148  0.5800  0.0253
  626MOL0     C84407  12.460   7.946   2.587 -0.6279 -0.1436  0.3521
  626MOL0     C84408  12.575   8.018   2.592  0.2834 -0.2122 -0.3929
  626MOL0     C84409  12.600   8.105   2.693  0.9309 -0.7923 -0.2113
  626MOL0     O84410  12.714   8.173   2.723  0.5401  0.5198  0.4956
  626MOL0     C84411  12.827   8.080   2.731 -0.1835  0.2783 -0.2796
  626MOL0     C84412  12.963   8.163   2.715 -0.1201  0.5657  0.3665
  626MOL0     C84413  13.000   8.205   2.861 -1.0975 -0.0341  0.2172
  626MOL0     C84414  13.135   8.271   2.874  0.1403 -0.3809  0.0383
  626MOL0     C84415  13.141   8.378   2.988 -0.2331 -0.4430 -0.8269
  626MOL0     C84416  13.152   8.301   3.121  0.3233 -0.0513 -0.1414
  626MOL0     C84417  13.121   8.391   3.234  0.0402 -0.6158  0.5328
  626MOL0     C84418  13.183   8.337   3.361  0.5288 -0.0496 -0.0642
  626MOL0    Cl84419  13.356   8.389   3.371  0.0194 -0.0165 -0.1526
  626MOL0     C84420  12.505   8.119   2.792  0.1257 -0.8534  0.0707
  626MOL0     C84421  12.388   8.038   2.790  0.0252  0.5466 -0.9692
  626MOL0     O84422  12.155   7.991   2.510 -0.1682  0.3972  0.4270
  626MOL0     C84423  11.952   7.807   2.454 -0.3986 -0.6725 -1.4278
  626MOL0     C84424  11.842   7.719   2.451  0.3507 -0.1471 -0.9314
  626MOL0     N84425  11.320   7.132   2.312 -0.4060 -0.2834  0.6857
  626MOL0     N84426  11.218   7.096   2.237  0.6781 -0.3616 -0.4975
  626MOL0     C84427   9.926   7.331   1.956  0.7336 -0.2053  0.3294
  626MOL0     C84428   9.798   7.335   2.005 -0.1855  0.5745 -0.2148
  626MOL0     C84429   9.544   7.472   2.400  0.0694  1.0533 -0.2885
  626MOL0     C84430   9.456   7.544   2.313 -0.2900  0.4222 -0.1985
  626MOL0     C84431   9.336   7.600   2.362 -0.2774 -0.1604  0.7367
  626MOL0     C84432   9.304   7.594   2.496  1.0310  0.4349 -0.1421
  626MOL0     O84433   9.194   7.651   2.556  0.4431 -0.1169  0.2278
  626MOL0     C84434   9.076   7.658   2.478  0.3550  0.1965 -0.5245
  626MOL0     C84435   8.954   7.627   2.562  1.7808  0.0637 -0.2796
  626MOL0     C84436   8.826   7.643   2.469 -0.1543  0.2625  0.2459
  626MOL0     C84437   8.806   7.790   2.422 -0.2212 -0.1558 -0.2454
  626MOL0     C84438   8.672   7.828   2.384  0.4685 -0.3964  0.8727
  626MOL0     C84439   8.555   7.833   2.341 -0.1203 -0.5186 -0.5608
  626MOL0     C84440   9.385   7.511   2.577  0.6207 -0.0748  0.6697
  626MOL0     C84441   9.501   7.461   2.532 -0.6079 -0.7017 -0.2230
  626MOL0     C84442   9.588   7.388   2.634  0.6814  0.4030 -0.4093
  626MOL0     H84443   9.878   7.554   2.266 -0.2278 -0.5464  1.2667
  626MOL0     H84444  10.086   7.562   2.147 -1.4314  2.5532 -1.4176
  626MOL0     H84445  10.320   7.451   2.065  2.2523 -0.9596  1.0155
  626MOL0     H84446  10.215   7.334   2.149 -1.2699 -0.1879 -0.7983
  626MOL0     H84447  10.374   7.247   1.903 -0.3520 -0.4200  0.3343
  626MOL0     H84448  10.285   7.150   2.005  0.9023 -0.6681 -1.6712
  626MOL0     H84449  10.456   7.198   2.186 -1.0876 -0.8155 -0.4370
  626MOL0     H84450  10.510   7.337   2.103 -3.0129  0.3949  1.0732
  626MOL0     H84451  10.557   7.045   2.011  3.0355 -1.5393  2.4299
  626MOL0     H84452  10.603   7.188   1.908 -0.2477  0.9687  0.4205
  626MOL0     H84453  10.780   7.248   2.074  1.2145 -1.2492  0.8583
  626MOL0     H84454  10.707   7.165   2.198 -2.4080  2.2209 -0.3450
  626MOL0     H84455  10.766   6.943   2.084 -1.9675 -0.9191 -3.2955
  626MOL0     H84456  10.822   7.037   1.947  0.5898 -1.7804  0.1358
  626MOL0     H84457  11.010   7.122   2.051 -2.1854  0.1643 -2.9260
  626MOL0     H84458  11.000   6.956   2.096 -0.2782  1.1793 -2.6636
  626MOL0     H84459  10.903   7.178   2.287  0.5951 -0.0343  0.6944
  626MOL0     H84460  10.923   7.010   2.318  1.1308 -0.3278  0.7520
  626MOL0     H84461  11.073   7.200   2.512 -2.4693 -0.8736 -1.5259
  626MOL0     H84462  11.309   7.328   2.590  0.2103  0.9175 -1.1609
  626MOL0     H84463  11.366   7.162   2.619  1.8363 -0.2032  1.3438
  626MOL0     H84464  11.572   7.199   2.491  1.6760  2.1108 -1.5673
  626MOL0     H84465  11.507   7.346   2.416 -2.4776 -0.2406  0.0210
  626MOL0     H84466  11.569   7.299   2.714 -1.1693 -1.4052 -1.4208
  626MOL0     H84467  11.492   7.442   2.638  0.7985  1.1146 -0.8847
  626MOL0     H84468  11.767   7.319   2.591 -0.4260 -0.4918  1.9919
  626MOL0     H84469  11.737   7.439   2.716  0.6215  0.4508 -0.7356
  626MOL0     H84470  11.955   7.488   2.685 -0.1957 -0.1846  0.5640
  626MOL0     H84471  12.124   7.673   2.714 -1.2580  0.3864  1.5399
  626MOL0     H84472  12.436   7.871   2.512 -1.3374  1.0805 -0.6981
  626MOL0     H84473  12.654   8.011   2.518 -0.3764  3.5680 -1.7057
  626MOL0     H84474  12.827   8.015   2.819  0.2041  0.2834 -0.2717
  626MOL0     H84475  12.825   8.013   2.644 -1.2447  1.0600 -0.8831
  626MOL0     H84476  13.046   8.109   2.670  0.6032  1.2736  0.8177
  626MOL0     H84477  12.944   8.249   2.651 -1.7883  0.4867  0.7082
  626MOL0     H84478  12.926   8.278   2.894 -0.2143  2.6330 -3.1488
  626MOL0     H84479  13.007   8.118   2.927  1.0098 -0.2817 -0.2559
  626MOL0     H84480  13.160   8.326   2.782  0.2190 -0.0755  0.2400
  626MOL0     H84481  13.202   8.187   2.895  1.3886  0.3460 -0.8846
  626MOL0     H84482  13.054   8.444   2.998 -0.6244 -1.3315  3.4556
  626MOL0     H84483  13.226   8.446   2.974 -2.7187  2.8959 -0.7277
  626MOL0     H84484  13.082   8.216   3.119 -1.2326  1.1158  1.3517
  626MOL0     H84485  13.253   8.261   3.132 -0.3309 -1.3164  2.2317
  626MOL0     H84486  13.013   8.402   3.238 -0.0072 -0.0023 -1.6080
  626MOL0     H84487  13.166   8.491   3.222  0.2724 -0.3702  2.8413
  626MOL0     H84488  13.124   8.373   3.446 -0.0033 -0.3452 -0.3081
  626MOL0     H84489  13.174   8.228   3.369 -2.5679 -0.0089 -1.5181
  626MOL0     H84490  12.507   8.197   2.868 -0.1478 -1.5804  0.8305
  626MOL0     H84491  12.317   8.047   2.872  0.5456  3.0096 -0.7146
  626MOL0     H84492  11.955   7.896   2.393  1.0488 -0.0913 -0.5496
  626MOL0     H84493  11.758   7.727   2.384 -1.0640 -0.8231  0.6848
  626MOL0     H84494   9.953   7.263   1.876 -0.2540 -1.6526  1.1778
  626MOL0     H84495   9.717   7.268   1.977  0.9550 -1.0205  0.1426
  626MOL0     H84496   9.495   7.574   2.216  1.3321  0.8358  0.5607
  626MOL0     H84497   9.286   7.668   2.293 -1.5233  0.7531  2.4703
  626MOL0     H84498   9.074   7.587   2.395 -0.6329  0.0790 -0.4202
  626MOL0     H84499   9.078   7.762   2.443  1.5944  1.0045  1.7098
  626MOL0     H84500   8.934   7.695   2.645  1.5823 -1.1617  0.7137
  626MOL0     H84501   8.964   7.525   2.602 -3.7076 -0.1354  1.3844
  626MOL0     H84502   8.734   7.620   2.524 -0.2920  0.6789  0.1945
  626MOL0     H84503   8.847   7.576   2.384  1.8510 -1.7668  2.1909
  626MOL0     H84504   8.833   7.850   2.510 -0.9577  1.2055 -0.9159
  626MOL0     H84505   8.874   7.810   2.338 -0.0484 -0.2012 -0.1175
  626MOL0     H84506   8.456   7.856   2.306 -0.1865  1.6838  0.8322
  626MOL0     H84507   9.347   7.509   2.679 -0.6783  2.0670  0.3048
  626MOL0     H84508   9.532   7.398   2.727 -0.3615  0.0736 -0.9786
  626MOL0     H84509   9.602   7.284   2.604  0.9694  0.8053 -1.7341
  626MOL0     H84510   9.681   7.446   2.639  0.4675  0.6786  0.3765
  627MOL0     O84511   8.459   9.965   1.423 -0.0709  0.2199 -0.0820
  627MOL0     C84512   8.356  10.016   1.454 -0.2136 -0.4218 -0.4143
  627MOL0     O84513   8.347  10.116   1.540 -0.0596 -0.0286 -0.7094
  627MOL0     C84514   8.468  10.172   1.585  0.1440 -0.4426  0.2134
  627MOL0     C84515   8.512  10.297   1.540 -0.0072 -0.4979 -0.1888
  627MOL0     C84516   8.634  10.348   1.579 -0.0306  0.0958 -0.7314
  627MOL0     C84517   8.712  10.277   1.675  0.2563  0.6395  0.0165
  627MOL0     O84518   8.838  10.311   1.720 -0.0735 -0.3210 -0.6653
  627MOL0     C84519   8.867  10.443   1.704  0.6296 -0.6749 -0.1958
  627MOL0     C84520   8.998  10.464   1.775 -0.0179  0.3261 -0.4975
  627MOL0     C84521   9.110  10.364   1.734 -0.8552 -0.0874 -0.5234
  627MOL0     C84522   9.255  10.409   1.772 -0.2775 -0.2465  0.4121
  627MOL0     C84523   9.366  10.353   1.682 -0.1355  0.0612  0.0291
  627MOL0     C84524   9.506  10.384   1.732 -0.0349  0.5917  0.6734
  627MOL0     C84525   9.610  10.311   1.636 -0.2356  1.1438 -0.5298
  627MOL0     C84526   9.749  10.312   1.692 -0.3931 -0.9670  0.0057
  627MOL0     N84527   9.814  10.440   1.672 -0.3875  0.1737  0.1982
  627MOL0     C84528   9.879  10.484   1.554  0.2281 -0.3820 -0.4403
  627MOL0     C84529   9.944  10.605   1.583  0.4701  0.6722 -0.2296
  627MOL0     C84530  10.041  10.663   1.490  0.1003 -0.4172 -0.1296
  627MOL0     C84531  10.092  10.804   1.548  1.0143 -0.3087 -0.3657
  627MOL0     C84532  10.171  10.803   1.679  0.9698 -0.0893  0.3795
  627MOL0     C84533  10.313  10.744   1.668 -0.0465  1.1611 -0.1099
  627MOL0     O84534  10.387  10.794   1.556  1.1493  0.3667  0.8389
  627MOL0     C84535  10.522  10.775   1.574 -0.0145  0.8369 -0.9970
  627MOL0     C84536  10.604  10.890   1.565 -0.5316 -0.1705  0.2420
  627MOL0     C84537  10.746  10.884   1.578 -0.5218  0.7427  0.0539
  627MOL0     C84538  10.805  10.757   1.589 -0.8447  0.3437 -0.5366
  627MOL0     C84539  10.956  10.761   1.602  0.3020  1.2348 -0.1590
  627MOL0     O84540  11.032  10.858   1.535 -0.8166  0.0312  0.3813
  627MOL0     C84541  11.169  10.861   1.523 -0.2577 -0.5337  0.0386
  627MOL0     C84542  11.252  10.800   1.612 -0.1717  0.3472  0.2768
  627MOL0     C84543  11.393  10.804   1.584  0.9039  0.2485  0.1752
  627MOL0     C84544  11.442  10.871   1.471 -0.2315 -0.3064 -0.1436
  627MOL0     O84545  11.572  10.903   1.439  0.5098 -0.2282  1.0989
  627MOL0     C84546  11.650  10.786   1.431  0.4683  0.7121 -0.2643
  627MOL0     C84547  11.783  10.821   1.377  0.1658 -1.1209  0.7288
  627MOL0     C84548  11.884  10.706   1.379 -0.3876 -0.7856 -0.5455
  627MOL0     C84549  11.994  10.750   1.274 -0.2822  0.1463  0.6479
  627MOL0     C84550  12.099  10.642   1.263  0.6886 -0.6878  0.3248
  627MOL0     C84551  12.183  10.658   1.138  0.8906  0.1644  0.0674
  627MOL0     C84552  12.298  10.563   1.132 -1.0113  0.3764  0.0589
  627MOL0     C84553  12.366  10.568   0.989 -0.2177 -1.1626 -0.7351
  627MOL0    Cl84554  12.438  10.730   0.971  0.0804 -0.4005  0.0513
  627MOL0     C84555  11.353  10.926   1.377  0.2713 -0.3959 -0.6882
  627MOL0     C84556  11.216  10.919   1.407  0.2814  0.7364  1.3195
  627MOL0     O84557  10.995  10.651   1.636  0.3738 -0.0069  0.5610
  627MOL0     C84558  10.720  10.636   1.603 -0.0623 -0.2302 -0.5108
  627MOL0     C84559  10.583  10.659   1.607  0.7370 -0.5406  0.0539
  627MOL0     N84560   9.905  10.639   1.711  0.2124 -0.1286 -0.8423
  627MOL0     N84561   9.828  10.547   1.759 -0.0124  0.3377  0.1444
  627MOL0     C84562   8.660  10.152   1.719 -0.4515  0.1878 -0.4650
  627MOL0     C84563   8.539  10.101   1.682  0.6181  0.3931  0.1588
  627MOL0     C84564   8.226   9.957   1.409 -0.2475 -0.1383 -0.4754
  627MOL0     C84565   8.234   9.827   1.364  0.6276  1.6565  0.0320
  627MOL0     C84566   8.125   9.762   1.302  0.3594 -0.5820  0.7811
  627MOL0     C84567   8.006   9.839   1.290  0.1603 -0.3945  0.0248
  627MOL0     O84568   7.896   9.766   1.267  0.7439  0.7967  0.0881
  627MOL0     C84569   7.795   9.754   1.373  0.2953  0.2321  0.4944
  627MOL0     C84570   7.662   9.820   1.316 -0.1653  0.0526  0.0383
  627MOL0     C84571   7.546   9.795   1.416 -0.8521  0.5138 -0.0395
  627MOL0     C84572   7.405   9.821   1.367 -0.5622 -0.0438 -0.5027
  627MOL0     C84573   7.325   9.811   1.491  0.4752  0.6638 -0.0274
  627MOL0     C84574   7.244   9.816   1.587 -0.4675  0.8207 -0.1363
  627MOL0     C84575   7.994   9.966   1.338 -0.3249 -0.0027 -0.2343
  627MOL0     C84576   8.108  10.031   1.397  0.4653 -0.2089  1.0543
  627MOL0     C84577   8.101  10.184   1.433  0.0226 -0.1982 -0.5001
  627MOL0     H84578   8.449  10.350   1.469  0.2530  1.4046  0.9176
  627MOL0     H84579   8.673  10.443   1.545  1.3712  0.2502  1.1363
  627MOL0     H84580   8.875  10.471   1.598 -2.2800 -1.2356 -0.6369
  627MOL0     H84581   8.789  10.503   1.752  2.2746  1.4516 -0.0184
  627MOL0     H84582   8.982  10.452   1.882 -2.4325 -0.1624 -0.8721
  627MOL0     H84583   9.035  10.564   1.748 -1.5124  0.5721 -1.7529
  627MOL0     H84584   9.105  10.356   1.625  1.2809  0.0447 -0.6709
  627MOL0     H84585   9.107  10.259   1.766  2.6522 -0.4771 -1.0031
  627MOL0     H84586   9.258  10.518   1.767 -0.5598 -0.2627 -0.2426
  627MOL0     H84587   9.285  10.377   1.872  1.8993 -1.6304 -0.6159
  627MOL0     H84588   9.359  10.245   1.675  2.0229 -0.1379  0.1936
  627MOL0     H84589   9.358  10.392   1.580  0.5716 -1.6348 -0.7129
  627MOL0     H84590   9.527  10.489   1.712  4.8597 -0.1935  0.2275
  627MOL0     H84591   9.518  10.360   1.838  0.8287  0.3912  0.5431
  627MOL0     H84592   9.623  10.356   1.538  1.9502 -1.1061 -1.3903
  627MOL0     H84593   9.579  10.206   1.628 -1.4520  1.4885 -0.5564
  627MOL0     H84594   9.725  10.283   1.794 -0.3560 -2.8009 -0.4805
  627MOL0     H84595   9.812  10.237   1.645 -1.4412 -1.9540  0.1310
  627MOL0     H84596   9.896  10.437   1.457  2.7988 -1.2567  0.3497
  627MOL0     H84597  10.129  10.601   1.469 -1.9014 -2.9147 -1.6591
  627MOL0     H84598   9.994  10.660   1.391 -3.3330 -0.1775  1.3733
  627MOL0     H84599  10.150  10.863   1.476  1.5869 -0.8257 -0.3364
  627MOL0     H84600  10.002  10.864   1.560  1.9938  0.8257  1.8051
  627MOL0     H84601  10.113  10.758   1.760 -0.9970  1.1651 -0.2739
  627MOL0     H84602  10.179  10.906   1.715 -0.1054  0.0370  0.2611
  627MOL0     H84603  10.299  10.636   1.652 -1.8122  1.2929  0.4056
  627MOL0     H84604  10.361  10.757   1.766 -2.5319 -0.6054  1.4574
  627MOL0     H84605  10.564  10.990   1.553 -0.9217 -0.5078 -1.5436
  627MOL0     H84606  10.804  10.974   1.561 -0.0546  0.4098 -0.1226
  627MOL0     H84607  11.216  10.748   1.700 -1.7175 -1.1823 -1.1775
  627MOL0     H84608  11.460  10.756   1.655 -0.4423  1.1076  2.1459
  627MOL0     H84609  11.653  10.758   1.536  1.3465  0.2320 -0.4073
  627MOL0     H84610  11.595  10.716   1.366 -0.2844 -0.2335  1.3431
  627MOL0     H84611  11.772  10.853   1.273  2.4975  3.5130  1.6569
  627MOL0     H84612  11.823  10.904   1.435 -0.9102 -0.0956  0.0438
  627MOL0     H84613  11.924  10.700   1.481 -0.0360 -2.0481 -0.7448
  627MOL0     H84614  11.835  10.610   1.365 -0.8895 -0.7467  0.7899
  627MOL0     H84615  12.038  10.846   1.300  0.7199 -0.2372  0.4182
  627MOL0     H84616  11.956  10.771   1.173  0.9799 -3.1194 -0.6546
  627MOL0     H84617  12.058  10.541   1.275 -3.1974  0.7176  0.1160
  627MOL0     H84618  12.169  10.651   1.347  0.1774 -0.3988  0.7262
  627MOL0     H84619  12.107  10.643   1.061 -2.0517  0.0512  2.7447
  627MOL0     H84620  12.227  10.757   1.126  1.6003  0.0863  1.7817
  627MOL0     H84621  12.272  10.459   1.152 -1.0548  0.7882  2.3700
  627MOL0     H84622  12.378  10.578   1.205 -0.8454  0.7944 -0.2030
  627MOL0     H84623  12.443  10.492   0.975  1.9691  0.4429  1.6512
  627MOL0     H84624  12.290  10.553   0.911 -1.5979  2.9857 -0.4574
  627MOL0     H84625  11.396  10.964   1.285  0.6731  1.6370  0.2709
  627MOL0     H84626  11.153  10.970   1.335  0.6831  0.9877  1.1439
  627MOL0     H84627  10.758  10.539   1.632 -0.0684 -0.3787 -0.9860
  627MOL0     H84628  10.515  10.577   1.631  1.9755 -1.0109  2.2490
  627MOL0     H84629   8.714  10.086   1.786  1.5143  1.1322 -1.0432
  627MOL0     H84630   8.494  10.006   1.709 -0.7937 -0.6142 -4.6407
  627MOL0     H84631   8.319   9.760   1.372 -1.2888 -0.8669  0.8776
  627MOL0     H84632   8.129   9.656   1.280 -4.0998 -0.7060 -0.2953
  627MOL0     H84633   7.835   9.804   1.461  1.2399  2.0745 -0.9341
  627MOL0     H84634   7.793   9.645   1.387  0.2615  0.2355  0.5205
  627MOL0     H84635   7.630   9.782   1.218 -1.5827  1.6519 -0.1707
  627MOL0     H84636   7.676   9.929   1.309 -1.4725  0.2623  0.3555
  627MOL0     H84637   7.575   9.863   1.497 -0.2561  0.1290  0.0724
  627MOL0     H84638   7.557   9.692   1.451 -0.3137 -1.1160 -4.3306
  627MOL0     H84639   7.391   9.913   1.310 -1.3551  0.8572  1.0760
  627MOL0     H84640   7.367   9.736   1.310 -2.1544  0.4917 -0.2888
  627MOL0     H84641   7.173   9.809   1.668 -1.6939 -0.5565 -1.2802
  627MOL0     H84642   7.897  10.015   1.335 -0.5405 -0.1399  2.2476
  627MOL0     H84643   8.112  10.199   1.541  2.2123 -1.7441 -0.4193
  627MOL0     H84644   8.183  10.234   1.380  0.4755 -2.1187 -1.7152
  627MOL0     H84645   8.010  10.224   1.389 -0.1853 -0.5664 -0.4024
  628MOL0     O84646   7.887   0.318   3.060 -0.0168 -0.2496 -0.1282
  628MOL0     C84647   7.873   0.383   2.952  0.6432  0.1956 -0.7899
  628MOL0     O84648   7.948   0.496   2.913  0.0051  0.2071 -0.4134
  628MOL0     C84649   8.064   0.515   2.988 -0.0748  0.1052  0.9340
  628MOL0     C84650   8.096   0.651   3.008  0.1921  0.7017  0.4399
  628MOL0     C84651   8.223   0.683   3.043  0.0892 -0.3401  0.2103
  628MOL0     C84652   8.307   0.593   3.112  0.3002 -0.2611 -0.3681
  628MOL0     O84653   8.418   0.654   3.160 -0.2425  0.0159 -0.2258
  628MOL0     C84654   8.533   0.572   3.179 -0.1821 -0.5547  0.2240
  628MOL0     C84655   8.654   0.649   3.233  0.4574  0.2516  0.0749
  628MOL0     C84656   8.784   0.570   3.227  0.3362  1.1189 -0.3276
  628MOL0     C84657   8.908   0.619   3.294 -0.6700 -0.5404  0.0901
  628MOL0     C84658   9.022   0.528   3.265 -0.0430  0.3792 -0.3308
  628MOL0     C84659   9.148   0.586   3.342  0.6162  0.1477  0.1160
  628MOL0     C84660   9.268   0.481   3.352  0.8290 -0.0591 -0.0021
  628MOL0     C84661   9.403   0.544   3.406 -0.5694  0.6256 -0.3237
  628MOL0     N84662   9.522   0.456   3.397  0.2690  0.6993 -0.7301
  628MOL0     C84663   9.534   0.326   3.445  0.5815 -0.4284 -0.8900
  628MOL0     C84664   9.664   0.297   3.414 -0.2326  0.1003  0.1334
  628MOL0     C84665   9.721   0.160   3.451  0.1041  0.9351  0.3444
  628MOL0     C84666   9.864   0.140   3.402  1.3157 -0.3131 -0.1626
  628MOL0     C84667   9.919   0.004   3.435 -0.4483  0.3386  0.3484
  628MOL0     C84668  10.067  -0.005   3.407 -0.0292  0.4251  0.4033
  628MOL0     O84669  10.145   0.039   3.516 -0.1349  0.6009  0.2375
  628MOL0     C84670  10.280   0.042   3.485 -0.2636 -0.4445 -0.6882
  628MOL0     C84671  10.343   0.023   3.359 -0.4448 -0.0860 -0.7553
  628MOL0     C84672  10.483   0.026   3.341  0.1967 -0.2791 -0.0648
  628MOL0     C84673  10.561   0.075   3.449  0.7632  0.3822 -0.6261
  628MOL0     C84674  10.701   0.081   3.445  0.4449 -0.0870 -0.0499
  628MOL0     O84675  10.765   0.066   3.560  0.9557 -0.7339  0.4033
  628MOL0     C84676  10.900   0.064   3.563 -0.1388  0.7399 -0.5619
  628MOL0     C84677  11.000   0.032   3.469  0.0461  0.2846 -0.7034
  628MOL0     C84678  11.137   0.052   3.500 -0.7258 -0.8546  0.0165
  628MOL0     C84679  11.182   0.104   3.623 -0.4099  0.1785 -0.3614
  628MOL0     O84680  11.311   0.139   3.664 -0.0818 -0.1459  0.2424
  628MOL0     C84681  11.409   0.142   3.561  0.5953  0.5396 -0.1691
  628MOL0     C84682  11.551   0.152   3.620  0.1799 -0.8008 -0.2915
  628MOL0     C84683  11.565   0.289   3.695  0.4756  0.5238 -0.4030
  628MOL0     C84684  11.496   0.413   3.634  0.2916 -0.1579  0.3980
  628MOL0     C84685  11.551   0.540   3.700  0.4280  0.2843  0.1932
  628MOL0     C84686  11.475   0.665   3.641 -0.7840 -0.3027 -0.9791
  628MOL0     C84687  11.323   0.673   3.634 -0.7914 -0.4644 -0.2288
  628MOL0     C84688  11.253   0.642   3.763 -0.6734 -0.1643 -0.6784
  628MOL0    Cl84689  11.288   0.760   3.888  0.0608 -0.0244 -0.0526
  628MOL0     C84690  11.082   0.128   3.712 -0.7080 -1.0227  0.3788
  628MOL0     C84691  10.948   0.106   3.687 -0.5226 -0.6232 -0.1504
  628MOL0     O84692  10.753   0.086   3.337  0.2713  0.4261  0.4631
  628MOL0     C84693  10.503   0.091   3.578 -0.6769  1.0017 -0.5931
  628MOL0     C84694  10.369   0.083   3.595  0.0557  0.1704 -0.3515
  628MOL0     N84695   9.723   0.394   3.337 -0.2920  0.8258  0.2742
  628MOL0     N84696   9.634   0.484   3.319  0.1329  0.1091 -1.0304
  628MOL0     C84697   8.273   0.459   3.102  0.5070  0.4809  0.7933
  628MOL0     C84698   8.151   0.422   3.037  0.0283  0.1003 -0.8322
  628MOL0     C84699   7.763   0.330   2.868 -0.1518  0.4661 -0.0949
  628MOL0     C84700   7.652   0.284   2.933 -0.4290 -0.2313  0.2752
  628MOL0     C84701   7.539   0.255   2.859 -0.7256 -0.5167 -0.4850
  628MOL0     C84702   7.522   0.266   2.729  0.8395  0.2075 -0.3810
  628MOL0     O84703   7.391   0.246   2.674 -0.8852 -0.6199  0.2121
  628MOL0     C84704   7.396   0.208   2.533  1.0073 -0.1807  0.5148
  628MOL0     C84705   7.255   0.173   2.481  0.2533  0.0731  0.2534
  628MOL0     C84706   7.163   0.290   2.528 -1.0993  1.3769  0.0404
  628MOL0     C84707   7.024   0.269   2.465 -0.0570 -0.7519 -0.2721
  628MOL0     C84708   6.932   0.353   2.548 -0.0451 -0.5251 -0.1252
  628MOL0     C84709   6.875   0.445   2.612 -0.1887  0.3177  0.3736
  628MOL0     C84710   7.636   0.305   2.657 -0.1620  0.1006 -0.1777
  628MOL0     C84711   7.754   0.350   2.727 -0.8207  0.3750 -0.6126
  628MOL0     C84712   7.869   0.410   2.657  0.8266 -0.1199 -0.0352
  628MOL0     H84713   8.024   0.726   2.977  1.2513  0.8139 -1.9427
  628MOL0     H84714   8.253   0.787   3.048  0.3261 -0.3943 -0.0043
  628MOL0     H84715   8.515   0.502   3.261 -1.3027  0.1102  0.5552
  628MOL0     H84716   8.551   0.518   3.085  1.6108  1.1865 -0.5019
  628MOL0     H84717   8.641   0.675   3.339 -1.1534  0.7589 -0.2322
  628MOL0     H84718   8.662   0.736   3.168  1.1582 -1.5777 -2.4360
  628MOL0     H84719   8.800   0.553   3.120 -2.1652 -1.7221 -0.3801
  628MOL0     H84720   8.758   0.472   3.267 -1.2959  0.7515 -2.1524
  628MOL0     H84721   8.935   0.720   3.262 -1.1521 -0.3059  0.4129
  628MOL0     H84722   8.902   0.618   3.404  5.2882  0.0465  0.7896
  628MOL0     H84723   9.001   0.426   3.298  4.0226 -0.6208 -0.3336
  628MOL0     H84724   9.037   0.522   3.157 -1.4876 -2.1024 -0.4702
  628MOL0     H84725   9.190   0.668   3.283  3.3889 -1.5018 -0.3658
  628MOL0     H84726   9.126   0.631   3.439 -2.0136 -0.2126 -0.2225
  628MOL0     H84727   9.281   0.446   3.249 -1.1010 -0.0696 -0.2816
  628MOL0     H84728   9.231   0.399   3.415  0.1626  0.4466  0.2721
  628MOL0     H84729   9.426   0.630   3.342  0.3637 -0.5173 -1.5714
  628MOL0     H84730   9.381   0.572   3.510  0.8828 -1.1622  0.5064
  628MOL0     H84731   9.459   0.271   3.503 -1.7528  1.1173 -2.2821
  628MOL0     H84732   9.711   0.150   3.560  1.4783 -0.0471  0.4050
  628MOL0     H84733   9.650   0.088   3.408  0.6188  0.8163 -0.3099
  628MOL0     H84734   9.857   0.148   3.293  2.4453 -0.2942 -0.2395
  628MOL0     H84735   9.929   0.221   3.437  3.3619 -0.5595 -3.0709
  628MOL0     H84736   9.867  -0.065   3.368  2.5801  0.4356 -2.3839
  628MOL0     H84737   9.900  -0.022   3.540  0.3273  0.1934  0.4570
  628MOL0     H84738  10.103   0.062   3.328  2.2947  1.9353  2.5847
  628MOL0     H84739  10.103  -0.107   3.390  1.8725  1.0534  0.4018
  628MOL0     H84740  10.285  -0.010   3.274 -0.4792 -1.9400 -0.0585
  628MOL0     H84741  10.534  -0.005   3.251 -1.0603  1.8173 -1.5821
  628MOL0     H84742  10.973   0.005   3.367 -0.1280 -2.0102 -0.1145
  628MOL0     H84743  11.205   0.038   3.416 -0.5165 -0.8186  0.1784
  628MOL0     H84744  11.399   0.045   3.512 -1.1543  0.5386  0.1267
  628MOL0     H84745  11.383   0.211   3.480 -2.3870 -1.1201 -0.7694
  628MOL0     H84746  11.573   0.063   3.680 -2.0243 -2.0178 -1.2079
  628MOL0     H84747  11.623   0.144   3.538  0.9300  0.9088  0.1598
  628MOL0     H84748  11.537   0.267   3.799 -0.7560  1.4196 -0.5211
  628MOL0     H84749  11.672   0.299   3.679  0.9600 -4.2698 -1.8368
  628MOL0     H84750  11.391   0.400   3.662  0.4017 -0.5280  0.6645
  628MOL0     H84751  11.505   0.405   3.526 -0.7895 -2.3228  0.4123
  628MOL0     H84752  11.659   0.544   3.683  0.4965 -0.7787  0.3043
  628MOL0     H84753  11.539   0.537   3.809  0.6624 -2.3701  0.2062
  628MOL0     H84754  11.510   0.751   3.699  0.3718  0.9185 -3.3326
  628MOL0     H84755  11.513   0.684   3.540 -0.1403  0.4281 -0.6091
  628MOL0     H84756  11.284   0.599   3.563  0.8616 -0.9827 -0.6431
  628MOL0     H84757  11.297   0.775   3.603  2.0849  0.4815  0.2298
  628MOL0     H84758  11.145   0.646   3.749 -0.8144  2.3275  0.4908
  628MOL0     H84759  11.289   0.546   3.800 -1.9541  0.7151  3.2767
  628MOL0     H84760  11.110   0.150   3.815  0.6430 -0.5707 -0.0676
  628MOL0     H84761  10.884   0.124   3.773  1.4051  0.5618  1.1137
  628MOL0     H84762  10.565   0.112   3.664 -0.1207  1.9171 -1.1995
  628MOL0     H84763  10.312   0.093   3.686 -2.1812  0.8924 -1.7475
  628MOL0     H84764   8.325   0.374   3.146 -0.6565 -1.2113 -0.9346
  628MOL0     H84765   8.131   0.316   3.019  2.0654 -0.7050  1.1092
  628MOL0     H84766   7.648   0.288   3.041  2.2561 -1.9520  0.5455
  628MOL0     H84767   7.454   0.226   2.920 -0.6372 -0.0973 -0.1589
  628MOL0     H84768   7.464   0.128   2.506 -0.9619 -1.5724 -0.5081
  628MOL0     H84769   7.434   0.295   2.478  2.1528 -1.5096 -0.8812
  628MOL0     H84770   7.216   0.085   2.533 -2.2492  1.7326  1.4123
  628MOL0     H84771   7.247   0.155   2.374  0.1818  0.3458  0.2117
  628MOL0     H84772   7.210   0.380   2.489 -0.1234  0.7797 -0.1942
  628MOL0     H84773   7.153   0.293   2.637 -2.5774  0.5229 -0.0453
  628MOL0     H84774   7.033   0.311   2.364  2.2685  0.8700  0.5122
  628MOL0     H84775   6.988   0.166   2.466 -0.3289 -0.6513  0.0699
  628MOL0     H84776   6.826   0.527   2.660  0.2109  1.6586 -1.4014
  628MOL0     H84777   7.639   0.305   2.548  1.0566 -1.9479 -0.1919
  628MOL0     H84778   7.868   0.516   2.683 -2.7959  0.8102 -3.1887
  628MOL0     H84779   7.964   0.360   2.680  1.6834  0.2166 -2.5339
  628MOL0     H84780   7.865   0.393   2.549  1.8491  2.8245 -0.6351
  629MOL0     O84781   4.904  10.031   8.390 -0.5946  0.4701 -0.3650
  629MOL0     C84782   4.862   9.965   8.301 -0.1720 -0.1336  0.5450
  629MOL0     O84783   4.938   9.904   8.202 -0.3745 -0.6193  0.5459
  629MOL0     C84784   5.077   9.904   8.212  0.5737 -0.3258  0.2138
  629MOL0     C84785   5.147  10.023   8.212 -0.0879  0.0523  0.5350
  629MOL0     C84786   5.281  10.027   8.223  0.2710 -0.6157  0.9491
  629MOL0     C84787   5.359   9.911   8.242 -0.1656 -0.5811  0.0918
  629MOL0     O84788   5.495   9.919   8.252  0.3033 -0.1302 -0.6970
  629MOL0     C84789   5.568  10.041   8.233  0.3782  0.5421  0.1985
  629MOL0     C84790   5.718  10.004   8.220 -0.3730  0.3601  0.2762
  629MOL0     C84791   5.785   9.945   8.341 -0.0670  0.1036 -0.4349
  629MOL0     C84792   5.937   9.970   8.347 -0.9571 -0.3199  0.8007
  629MOL0     C84793   6.021   9.892   8.247 -0.4136 -0.5042  0.7438
  629MOL0     C84794   6.167   9.920   8.255 -0.5782  0.1191 -0.4983
  629MOL0     C84795   6.264   9.827   8.171 -0.2604  0.1981 -1.0370
  629MOL0     C84796   6.406   9.816   8.234 -0.1272 -0.1171  0.8748
  629MOL0     N84797   6.512   9.907   8.180  0.1910 -0.2753  0.2673
  629MOL0     C84798   6.498  10.045   8.156  0.1364 -1.0875 -0.4233
  629MOL0     C84799   6.622  10.087   8.133  0.2013 -0.1742 -0.0811
  629MOL0     C84800   6.678  10.218   8.108 -0.4950 -1.1318  0.0658
  629MOL0     C84801   6.638  10.282   7.983  0.5135  0.6462 -0.6103
  629MOL0     C84802   6.699  10.419   7.941 -0.3219  0.8518 -0.2472
  629MOL0     C84803   6.839  10.410   7.889  0.4549  0.1878  0.3424
  629MOL0     O84804   6.892  10.539   7.878  0.2251 -0.2059  0.3730
  629MOL0     C84805   6.983  10.566   7.775 -0.0090 -0.6280  0.9275
  629MOL0     C84806   7.045  10.465   7.694  0.3216 -0.2053 -0.1533
  629MOL0     C84807   7.144  10.500   7.605  0.6149  0.6390  0.3441
  629MOL0     C84808   7.179  10.632   7.581 -0.4313 -0.2106  0.1210
  629MOL0     C84809   7.286  10.655   7.473 -0.1431 -0.7519 -0.3953
  629MOL0     O84810   7.270  10.570   7.358  0.4227 -0.3484 -0.4201
  629MOL0     C84811   7.358  10.574   7.251  0.3757 -0.4027  0.6396
  629MOL0     C84812   7.486  10.634   7.250 -0.5428 -0.1558 -0.1273
  629MOL0     C84813   7.560  10.633   7.134 -0.1983 -0.4313  0.2481
  629MOL0     C84814   7.509  10.586   7.011 -0.1133  0.6215 -0.7445
  629MOL0     O84815   7.589  10.585   6.900  0.5785  0.3791  0.1707
  629MOL0     C84816   7.648  10.460   6.863 -0.7722 -0.1266  0.3963
  629MOL0     C84817   7.650  10.448   6.714 -0.6713  0.1490 -0.0047
  629MOL0     C84818   7.736  10.549   6.635 -0.6783  0.3447 -0.2971
  629MOL0     C84819   7.738  10.514   6.488 -0.9912  0.8894  0.1353
  629MOL0     C84820   7.860  10.579   6.421  0.1640  0.1377 -0.0880
  629MOL0     C84821   7.869  10.548   6.274  0.4745 -0.2889 -0.0135
  629MOL0     C84822   7.742  10.594   6.197  0.6474  0.8741  0.0753
  629MOL0     C84823   7.763  10.572   6.045 -0.0403  0.1591 -0.1051
  629MOL0    Cl84824   7.620  10.554   5.952 -0.0848  0.0816 -0.2430
  629MOL0     C84825   7.382  10.536   7.008  0.1958  0.0534  0.1380
  629MOL0     C84826   7.304  10.531   7.128  0.5609  0.4642 -0.2377
  629MOL0     O84827   7.354  10.761   7.470 -0.3433  0.4133  0.0790
  629MOL0     C84828   7.123  10.736   7.666 -0.9416  0.0158 -0.7655
  629MOL0     C84829   7.030  10.698   7.761  0.1468  0.3731  0.7474
  629MOL0     N84830   6.703   9.976   8.147  0.2162  0.4019 -0.2830
  629MOL0     N84831   6.639   9.872   8.175 -0.5268  0.0470 -0.7027
  629MOL0     C84832   5.296   9.784   8.251  1.0433 -0.6760 -0.4294
  629MOL0     C84833   5.153   9.783   8.230 -0.1919  0.1440 -0.9858
  629MOL0     C84834   4.724   9.919   8.298 -0.7705 -0.0453 -0.8143
  629MOL0     C84835   4.694   9.785   8.266 -1.3774 -0.1709  0.4271
  629MOL0     C84836   4.564   9.729   8.280  0.4185 -0.0800  1.0163
  629MOL0     C84837   4.461   9.803   8.327 -0.2785  0.7588 -0.0341
  629MOL0     O84838   4.338   9.749   8.324  1.3339  0.2702 -0.4974
  629MOL0     C84839   4.313   9.610   8.357 -0.1504  0.4530 -0.4398
  629MOL0     C84840   4.178   9.592   8.411 -0.6603  0.8519  1.2330
  629MOL0     C84841   4.172   9.633   8.548 -0.0472  0.2631 -0.7871
  629MOL0     C84842   4.031   9.634   8.616 -0.2606  0.4887  0.2780
  629MOL0     C84843   3.975   9.509   8.660  0.2487 -0.7472 -0.4469
  629MOL0     C84844   3.924   9.405   8.694 -0.1186 -0.8496  0.2870
  629MOL0     C84845   4.480   9.936   8.365  0.4891  0.5837 -0.2817
  629MOL0     C84846   4.614   9.993   8.348  0.4682 -0.3653 -0.0954
  629MOL0     C84847   4.628  10.136   8.397 -0.5113 -0.2599 -0.1117
  629MOL0     H84848   5.087  10.112   8.228 -1.7426 -1.3823  2.9040
  629MOL0     H84849   5.337  10.120   8.229  0.6431 -0.8912  1.9992
  629MOL0     H84850   5.535  10.075   8.135  0.9884 -3.0936 -1.4541
  629MOL0     H84851   5.539  10.110   8.312  0.3050  0.2204  0.4543
  629MOL0     H84852   5.762  10.101   8.192 -0.1611 -0.2840 -1.7498
  629MOL0     H84853   5.739   9.932   8.141 -1.9864 -0.6282  0.7007
  629MOL0     H84854   5.760   9.843   8.369 -1.4541  1.1751  2.5546
  629MOL0     H84855   5.755  10.009   8.424 -2.6163 -1.7769  0.2020
  629MOL0     H84856   5.963  10.075   8.328  1.5464 -0.6610  1.9273
  629MOL0     H84857   5.976   9.937   8.443  0.7298 -0.1334  0.2101
  629MOL0     H84858   5.998   9.785   8.255 -1.5127 -0.1787  2.2641
  629MOL0     H84859   5.990   9.935   8.151  1.5635  1.9637  1.0906
  629MOL0     H84860   6.176  10.019   8.208 -1.1321  0.6942  0.5534
  629MOL0     H84861   6.198   9.927   8.360  1.3715 -0.1459 -1.0176
  629MOL0     H84862   6.263   9.859   8.066  1.4551  3.8614 -0.1199
  629MOL0     H84863   6.225   9.726   8.181  1.6307 -0.3234  4.0616
  629MOL0     H84864   6.399   9.833   8.341  0.2361  1.2194  0.7146
  629MOL0     H84865   6.437   9.712   8.230 -1.7901 -0.6051 -1.2820
  629MOL0     H84866   6.404  10.097   8.174  1.0523 -0.0205  1.6082
  629MOL0     H84867   6.667  10.293   8.187  1.1298  0.8976 -1.5218
  629MOL0     H84868   6.787  10.209   8.101 -0.4866 -0.8170 -0.2682
  629MOL0     H84869   6.666  10.208   7.907 -1.8048 -2.2040  1.0950
  629MOL0     H84870   6.529  10.293   7.984  0.5678  1.3622  1.2411
  629MOL0     H84871   6.700  10.482   8.031  3.3072 -0.8355  1.1079
  629MOL0     H84872   6.639  10.458   7.858 -2.9406 -1.7150  0.2556
  629MOL0     H84873   6.826  10.357   7.794  1.4520 -1.2573  0.9689
  629MOL0     H84874   6.899  10.347   7.956  2.5902  1.2988 -0.4113
  629MOL0     H84875   7.010  10.362   7.700 -1.3796  0.2206 -1.6635
  629MOL0     H84876   7.182  10.424   7.538  0.1018  0.5399  0.1620
  629MOL0     H84877   7.525  10.685   7.338 -0.5854 -2.9061  1.5913
  629MOL0     H84878   7.653  10.687   7.120 -1.7943  1.7472 -4.5742
  629MOL0     H84879   7.749  10.449   6.904 -0.5744  0.0305 -0.0443
  629MOL0     H84880   7.572  10.388   6.896 -1.9806  0.3806 -1.1418
  629MOL0     H84881   7.697  10.350   6.704  0.0435  0.5620 -0.9567
  629MOL0     H84882   7.546  10.443   6.680 -0.9284  1.3531  0.5408
  629MOL0     H84883   7.695  10.650   6.648  0.0595  0.4240  1.9162
  629MOL0     H84884   7.839  10.553   6.673 -1.8520  1.5738  3.2012
  629MOL0     H84885   7.640  10.549   6.456 -2.8417 -1.4162  2.7908
  629MOL0     H84886   7.756  10.406   6.477 -3.1835  0.5928 -1.1277
  629MOL0     H84887   7.949  10.541   6.470 -0.2985  2.8206  3.1777
  629MOL0     H84888   7.856  10.686   6.444 -0.1716 -0.2045  1.5409
  629MOL0     H84889   7.951  10.606   6.231 -0.2968 -0.8372 -2.4027
  629MOL0     H84890   7.888  10.442   6.257 -0.9357 -0.1919 -2.7365
  629MOL0     H84891   7.724  10.700   6.217  1.8430  1.0540  0.2840
  629MOL0     H84892   7.653  10.547   6.240 -0.7254  2.4577 -0.9184
  629MOL0     H84893   7.819  10.658   6.007 -0.3040 -0.0576 -1.0128
  629MOL0     H84894   7.829  10.487   6.025 -0.4827 -0.2065 -0.0297
  629MOL0     H84895   7.341  10.516   6.910  0.1589  2.5772 -0.4371
  629MOL0     H84896   7.212  10.473   7.127 -0.7100  2.3471 -2.7149
  629MOL0     H84897   7.162  10.837   7.658  0.0432 -0.3933 -1.4377
  629MOL0     H84898   6.994  10.786   7.814 -0.4868  1.2068 -0.9843
  629MOL0     H84899   5.337   9.687   8.275 -0.8154 -1.4771 -0.3076
  629MOL0     H84900   5.120   9.681   8.223  3.0514 -1.0312 -0.9773
  629MOL0     H84901   4.783   9.728   8.243  2.7174  5.5304  0.1238
  629MOL0     H84902   4.554   9.626   8.247  1.1604  0.4352 -0.9865
  629MOL0     H84903   4.386   9.581   8.433 -0.4264  0.8594 -0.0064
  629MOL0     H84904   4.331   9.547   8.270  1.0695 -0.9259  0.7628
  629MOL0     H84905   4.145   9.489   8.399 -1.4493  1.1705  0.5912
  629MOL0     H84906   4.110   9.654   8.351 -0.4502  0.9491  1.0923
  629MOL0     H84907   4.207   9.737   8.553 -1.2583  0.6759 -0.6904
  629MOL0     H84908   4.236   9.575   8.615  0.3533  1.3699 -0.1768
  629MOL0     H84909   4.036   9.711   8.693 -0.1151  1.3257 -0.5502
  629MOL0     H84910   3.956   9.653   8.538  0.3187  1.1210 -0.1286
  629MOL0     H84911   3.865   9.320   8.724  0.5480 -0.8410  1.6716
  629MOL0     H84912   4.396   9.991   8.407  0.2175 -0.2044  0.2216
  629MOL0     H84913   4.671  10.190   8.312  4.2158  0.3124  2.3416
  629MOL0     H84914   4.534  10.183   8.426  0.7336  1.9010  0.6471
  629MOL0     H84915   4.704  10.148   8.474 -1.7948  0.9351  1.0158
  630MOL0     O84916   9.045   2.291   5.516 -0.6520  0.1764  0.0360
  630MOL0     C84917   9.044   2.270   5.393 -0.0058 -0.1071 -0.2832
  630MOL0     O84918   9.149   2.228   5.318 -0.0882  0.0030  0.6166
  630MOL0     C84919   9.269   2.237   5.384  0.3251  0.3477  0.1468
  630MOL0     C84920   9.369   2.323   5.337 -0.0593 -0.6110 -0.3497
  630MOL0     C84921   9.490   2.335   5.415  0.2590 -0.6300  0.0594
  630MOL0     C84922   9.528   2.243   5.516  0.3770 -0.7439 -0.3792
  630MOL0     O84923   9.648   2.227   5.584 -0.1880 -0.1180  0.6227
  630MOL0     C84924   9.733   2.337   5.576 -0.2096  0.2381 -0.0181
  630MOL0     C84925   9.855   2.290   5.652  0.3829 -0.3989 -0.4368
  630MOL0     C84926   9.960   2.397   5.666 -0.6066 -0.0243  0.5773
  630MOL0     C84927  10.074   2.334   5.745  0.8164  0.5184  0.0415
  630MOL0     C84928  10.207   2.401   5.723 -0.0516 -0.0368 -0.1695
  630MOL0     C84929  10.315   2.320   5.803 -0.3152  0.1452 -0.6180
  630MOL0     C84930  10.457   2.380   5.802 -0.0009  0.5282 -0.1739
  630MOL0     C84931  10.540   2.297   5.904 -0.0711  0.4985  0.7512
  630MOL0     N84932  10.680   2.329   5.886 -0.6301  0.3115  0.0897
  630MOL0     C84933  10.765   2.260   5.807 -0.1126 -0.4439 -0.5341
  630MOL0     C84934  10.878   2.323   5.807  0.1418  0.2126  0.0486
  630MOL0     C84935  10.997   2.260   5.740 -0.3239 -0.6927  0.3455
  630MOL0     C84936  11.116   2.339   5.792 -1.3541 -1.1663 -0.1365
  630MOL0     C84937  11.250   2.275   5.733  1.0689 -0.3946 -0.1481
  630MOL0     C84938  11.371   2.371   5.757 -0.5256  0.2849 -0.6815
  630MOL0     O84939  11.412   2.353   5.894 -0.0840  0.2057 -0.0398
  630MOL0     C84940  11.543   2.385   5.927  0.2944 -0.3142 -0.6104
  630MOL0     C84941  11.640   2.449   5.839 -0.4837  0.5996  0.7284
  630MOL0     C84942  11.766   2.480   5.877  0.3736 -0.6007 -0.2997
  630MOL0     C84943  11.804   2.452   6.012  0.1626 -0.3444  0.9660
  630MOL0     C84944  11.940   2.478   6.049 -0.2932  0.8249  0.4190
  630MOL0     O84945  12.018   2.556   5.960  0.3056  0.5205  0.6677
  630MOL0     C84946  12.137   2.611   5.988 -0.3164  0.3004 -0.5821
  630MOL0     C84947  12.178   2.665   6.109 -0.3042  0.6710 -0.7165
  630MOL0     C84948  12.302   2.729   6.124 -0.0620 -0.6351 -0.8827
  630MOL0     C84949  12.398   2.730   6.014  0.6174  0.7273  0.3460
  630MOL0     O84950  12.525   2.793   6.029  0.0834  0.1121  0.7170
  630MOL0     C84951  12.584   2.884   5.931 -0.4511  0.7107  0.0656
  630MOL0     C84952  12.720   2.934   5.976  0.0750  0.5573  0.4756
  630MOL0     C84953  12.739   2.977   6.126  0.3980  0.9399  0.3638
  630MOL0     C84954  12.874   3.034   6.141  0.8238 -0.4542 -0.1500
  630MOL0     C84955  12.899   3.076   6.287  0.4751 -0.2150 -0.5513
  630MOL0     C84956  12.916   2.950   6.368 -0.2705  0.8738 -0.0981
  630MOL0     C84957  12.958   2.982   6.519 -0.9730 -1.0232 -0.2752
  630MOL0     C84958  12.907   2.865   6.607  0.3403  0.8884 -0.0314
  630MOL0    Cl84959  12.993   2.722   6.555  0.2791 -0.0337  0.0525
  630MOL0     C84960  12.354   2.667   5.897  0.1306 -0.4259  0.1134
  630MOL0     C84961  12.224   2.615   5.878 -0.8444  0.3682 -0.8904
  630MOL0     O84962  11.984   2.431   6.155  0.0104 -0.3129  0.1581
  630MOL0     C84963  11.709   2.391   6.100  0.2787  0.3920 -0.3839
  630MOL0     C84964  11.581   2.355   6.061 -0.2056 -0.7922 -0.4192
  630MOL0     N84965  10.865   2.431   5.893 -0.0030 -0.5551 -0.2060
  630MOL0     N84966  10.742   2.441   5.930  0.4813 -0.2738  0.6095
  630MOL0     C84967   9.429   2.155   5.553  0.1215 -0.0026 -0.5653
  630MOL0     C84968   9.302   2.149   5.489 -0.0916 -0.3470 -1.2963
  630MOL0     C84969   8.919   2.287   5.324 -0.0533 -0.4113  0.5408
  630MOL0     C84970   8.924   2.369   5.204  0.2017  0.5088 -0.3336
  630MOL0     C84971   8.812   2.397   5.134 -0.1635 -0.6618  0.2630
  630MOL0     C84972   8.691   2.343   5.174  0.5978 -0.5302 -0.2279
  630MOL0     O84973   8.583   2.387   5.101 -0.6060 -0.3429  0.3355
  630MOL0     C84974   8.452   2.334   5.119  1.1092 -1.1144  0.3312
  630MOL0     C84975   8.349   2.388   5.026 -0.3659  0.3435 -0.0241
  630MOL0     C84976   8.327   2.285   4.912  0.2988 -0.0120  0.1862
  630MOL0     C84977   8.221   2.334   4.817  0.9178 -0.9150 -0.3441
  630MOL0     C84978   8.238   2.466   4.748 -0.3893  0.8789 -1.2656
  630MOL0     C84979   8.236   2.568   4.684  0.8146  0.3156  0.2516
  630MOL0     C84980   8.684   2.250   5.281 -0.1742 -0.6674 -0.8759
  630MOL0     C84981   8.802   2.223   5.351 -0.5945  0.4017 -0.9055
  630MOL0     C84982   8.797   2.127   5.463 -0.5432  1.1193  0.2735
  630MOL0     H84983   9.353   2.385   5.250  1.8899  2.5795  1.3901
  630MOL0     H84984   9.566   2.406   5.386  2.4250 -2.7452  0.2069
  630MOL0     H84985   9.754   2.367   5.472 -3.0472 -1.5540 -1.2273
  630MOL0     H84986   9.681   2.419   5.627 -0.6333 -0.7418  1.1406
  630MOL0     H84987   9.896   2.205   5.597  1.5046 -0.7848  0.9509
  630MOL0     H84988   9.810   2.249   5.743 -4.9667 -2.8214 -3.7092
  630MOL0     H84989   9.917   2.481   5.723 -0.9678  0.4233 -0.3203
  630MOL0     H84990   9.994   2.426   5.566 -3.7839  2.2639 -0.0340
  630MOL0     H84991  10.048   2.334   5.852  0.7700 -0.2682  0.0404
  630MOL0     H84992  10.084   2.227   5.723 -1.9706  0.2243 -0.1376
  630MOL0     H84993  10.233   2.396   5.617 -1.0848  1.3210 -0.5227
  630MOL0     H84994  10.189   2.507   5.747 -2.1468 -0.5368  0.7560
  630MOL0     H84995  10.283   2.300   5.906 -2.3384 -0.0388 -1.2328
  630MOL0     H84996  10.319   2.220   5.758 -2.9507 -1.3781  2.1347
  630MOL0     H84997  10.452   2.480   5.845  0.3334 -0.0090  1.1630
  630MOL0     H84998  10.502   2.376   5.702  1.5460 -0.8564  0.5311
  630MOL0     H84999  10.509   2.317   6.007  1.3304 -2.4692  1.8576
  630MOL0     H85000  10.520   2.190   5.901  0.8285  0.2746  2.0539
  630MOL0     H85001  10.730   2.173   5.752 -0.4471 -2.1041  2.1367
  630MOL0     H85002  11.004   2.154   5.767 -2.1382 -0.2011  3.2715
  630MOL0     H85003  10.989   2.272   5.632  0.6470 -0.4843  0.2913
  630MOL0     H85004  11.112   2.445   5.764 -1.1161 -1.4372 -1.2300
  630MOL0     H85005  11.114   2.331   5.901  0.6716 -0.8445 -0.0235
  630MOL0     H85006  11.232   2.267   5.625  2.3749 -0.4222 -0.3745
  630MOL0     H85007  11.258   2.170   5.763 -0.5719  0.2003  2.7545
  630MOL0     H85008  11.366   2.477   5.730 -0.7982  1.0155  1.9784
  630MOL0     H85009  11.446   2.328   5.690 -1.6069  0.1797 -1.8640
  630MOL0     H85010  11.605   2.478   5.741 -2.7256 -1.4256  0.8404
  630MOL0     H85011  11.843   2.514   5.808  0.0928 -0.1281 -0.3823
  630MOL0     H85012  12.115   2.661   6.197  0.2889 -0.0891 -0.3164
  630MOL0     H85013  12.319   2.781   6.218  0.2497 -1.5568 -0.4153
  630MOL0     H85014  12.595   2.837   5.833 -1.0386 -2.0918  1.2591
  630MOL0     H85015  12.528   2.978   5.929  2.9309  2.9002  0.5726
  630MOL0     H85016  12.786   2.848   5.958  0.1269  0.5395  0.7363
  630MOL0     H85017  12.752   3.007   5.901  3.4249 -1.1297  0.0594
  630MOL0     H85018  12.656   3.044   6.149 -0.2418  1.0569 -1.9989
  630MOL0     H85019  12.730   2.888   6.189 -1.8592  1.1765  0.4695
  630MOL0     H85020  12.876   3.131   6.090 -1.0066  1.1055  2.4822
  630MOL0     H85021  12.944   2.967   6.090 -0.6216 -0.6907 -1.9230
  630MOL0     H85022  12.823   3.137   6.336  2.3721  0.4004  1.7906
  630MOL0     H85023  12.999   3.118   6.297  1.1069 -2.0743  1.9165
  630MOL0     H85024  12.816   2.907   6.384 -0.1794  1.8786  4.8102
  630MOL0     H85025  12.980   2.873   6.324 -1.6573 -0.3253 -0.1289
  630MOL0     H85026  12.913   3.076   6.554  0.5518 -0.2972 -0.1892
  630MOL0     H85027  13.066   2.994   6.530 -0.7805 -1.9804 -1.0060
  630MOL0     H85028  12.923   2.887   6.713  1.0835 -1.4047  0.3831
  630MOL0     H85029  12.801   2.849   6.588  0.5468  0.5267 -0.9043
  630MOL0     H85030  12.417   2.671   5.809  0.4180 -2.2748  0.1980
  630MOL0     H85031  12.189   2.587   5.780 -0.9463 -0.8573 -0.5228
  630MOL0     H85032  11.737   2.374   6.203  0.3699  2.2304 -0.0744
  630MOL0     H85033  11.507   2.308   6.124  1.8762 -2.1538  1.1432
  630MOL0     H85034   9.454   2.091   5.637  0.1817  0.5139 -0.1837
  630MOL0     H85035   9.237   2.064   5.510  0.7108 -0.5041  0.8090
  630MOL0     H85036   9.015   2.414   5.166  0.9709  0.4067  1.3399
  630MOL0     H85037   8.808   2.455   5.042  1.3046  0.3350  0.7892
  630MOL0     H85038   8.422   2.359   5.222 -0.3360  3.9665 -1.0348
  630MOL0     H85039   8.440   2.225   5.111 -3.3705 -0.9180  1.3441
  630MOL0     H85040   8.387   2.478   4.977  0.4020  0.2728  0.4387
  630MOL0     H85041   8.249   2.397   5.068 -0.8249 -1.7651 -0.5177
  630MOL0     H85042   8.295   2.189   4.951 -0.6115 -0.0309 -0.5721
  630MOL0     H85043   8.421   2.277   4.856 -0.8054  0.0276 -1.7884
  630MOL0     H85044   8.209   2.260   4.737  2.0349 -1.3756 -0.1053
  630MOL0     H85045   8.136   2.340   4.886  1.2831  2.0490 -0.0289
  630MOL0     H85046   8.223   2.654   4.622 -3.1415  0.4507  0.9575
  630MOL0     H85047   8.589   2.202   5.303  0.1907 -0.4372  1.5135
  630MOL0     H85048   8.785   2.182   5.557  0.3272  0.9755  0.4810
  630MOL0     H85049   8.720   2.050   5.453 -1.9128  1.8482  3.6502
  630MOL0     H85050   8.889   2.068   5.471 -1.7393 -0.9141 -0.3052
  631MOL0     O85051   2.853  10.526   3.388  0.0733  0.6074 -0.2632
  631MOL0     C85052   2.850  10.531   3.512 -0.1831 -0.2683  0.9933
  631MOL0     O85053   2.962  10.515   3.587  0.3354 -0.6098  0.6847
  631MOL0     C85054   3.090  10.530   3.533 -0.3402 -0.1461  0.5854
  631MOL0     C85055   3.143  10.423   3.477  0.2878  0.3553 -0.5801
  631MOL0     C85056   3.281  10.423   3.449  0.3972 -0.4763  0.0667
  631MOL0     C85057   3.360  10.539   3.467 -0.2242  0.6951 -0.0920
  631MOL0     O85058   3.490  10.566   3.445 -0.3320 -0.0306 -0.2024
  631MOL0     C85059   3.575  10.465   3.396 -0.5744 -0.1119 -0.5866
  631MOL0     C85060   3.714  10.476   3.462 -0.5786  0.8038  0.8112
  631MOL0     C85061   3.723  10.518   3.607  0.1132  0.6377  0.1092
  631MOL0     C85062   3.759  10.666   3.632 -0.2095  0.4378  0.1878
  631MOL0     C85063   3.757  10.689   3.781  0.8056 -0.0951 -0.1498
  631MOL0     C85064   3.812  10.829   3.816 -0.0100  0.4587  0.1338
  631MOL0     C85065   3.830  10.854   3.968 -0.2109 -0.5554  0.5473
  631MOL0     C85066   3.935  10.764   4.039  1.2186 -0.3848  0.1893
  631MOL0     N85067   4.067  10.772   3.966  0.2321  0.3535  0.7704
  631MOL0     C85068   4.156  10.879   3.974 -0.5000  0.3906  0.0931
  631MOL0     C85069   4.263  10.846   3.889  0.2332  0.5862 -0.5158
  631MOL0     C85070   4.389  10.921   3.852 -0.4414 -0.1124 -0.2531
  631MOL0     C85071   4.512  10.836   3.846 -0.0198  1.0095 -0.2620
  631MOL0     C85072   4.614  10.924   3.785 -0.2071  0.2641 -0.0010
  631MOL0     C85073   4.744  10.843   3.771 -0.4717 -0.5759 -0.1508
  631MOL0     O85074   4.837  10.938   3.720 -0.6262  0.3059 -0.0050
  631MOL0     C85075   4.954  10.883   3.684 -0.5329  0.2749 -0.5896
  631MOL0     C85076   4.982  10.823   3.555  0.3735 -0.1974 -0.3676
  631MOL0     C85077   5.116  10.794   3.518 -0.2912 -0.5636 -0.9056
  631MOL0     C85078   5.219  10.778   3.616  0.0053 -0.4199  0.1922
  631MOL0     C85079   5.358  10.733   3.587  0.2721 -0.3349  0.1875
  631MOL0     O85080   5.449  10.724   3.695  0.7457 -0.1893 -0.2629
  631MOL0     C85081   5.576  10.714   3.654 -0.3179 -0.0354 -0.4635
  631MOL0     C85082   5.649  10.609   3.699  0.2389 -0.2618  0.5614
  631MOL0     C85083   5.788  10.602   3.684  0.8370  0.0209  0.6513
  631MOL0     C85084   5.858  10.710   3.614  0.3460 -0.3712  0.8338
  631MOL0     O85085   5.988  10.718   3.590  0.0716 -0.0202  0.0874
  631MOL0     C85086   6.084  10.637   3.675  0.2694  0.1849 -0.0741
  631MOL0     C85087   6.228  10.654   3.620 -0.0607 -1.5980 -0.4518
  631MOL0     C85088   6.255  10.616   3.474 -0.5252 -0.3361  0.4966
  631MOL0     C85089   6.393  10.679   3.440 -0.2912  0.2681 -0.6064
  631MOL0     C85090   6.457  10.640   3.307  0.4889  0.8595 -0.5183
  631MOL0     C85091   6.595  10.693   3.283 -0.7169 -1.2341 -1.0510
  631MOL0     C85092   6.695  10.626   3.386  0.0741 -0.5619 -0.3230
  631MOL0     C85093   6.840  10.664   3.358  1.0649 -0.1758  0.0297
  631MOL0    Cl85094   6.897  10.612   3.200 -0.0726  0.0820 -0.1506
  631MOL0     C85095   5.777  10.809   3.569  0.0535  0.4591 -0.3543
  631MOL0     C85096   5.643  10.822   3.596 -0.1001  0.1894  0.7148
  631MOL0     O85097   5.386  10.707   3.467  0.1146 -0.2104  0.2419
  631MOL0     C85098   5.191  10.836   3.746  0.0233  0.5216  0.8396
  631MOL0     C85099   5.059  10.889   3.778 -0.4283  0.5501 -0.1769
  631MOL0     N85100   4.230  10.717   3.836  0.4449  0.8656  0.3205
  631MOL0     N85101   4.116  10.673   3.881  0.6329 -0.7594 -0.6389
  631MOL0     C85102   3.294  10.657   3.506  0.0140 -0.4935 -0.2119
  631MOL0     C85103   3.163  10.642   3.549 -0.4296  0.0117  0.4693
  631MOL0     C85104   2.715  10.509   3.581 -0.0006  0.3611 -0.0104
  631MOL0     C85105   2.730  10.437   3.704  0.0829  0.5448  0.5099
  631MOL0     C85106   2.621  10.426   3.790  0.2926  0.5923  0.4582
  631MOL0     C85107   2.500  10.493   3.766  0.2824  0.4468  0.4607
  631MOL0     O85108   2.387  10.464   3.843  0.0539 -0.8486  0.6344
  631MOL0     C85109   2.261  10.518   3.801  0.4739 -0.3569 -0.6384
  631MOL0     C85110   2.161  10.483   3.916 -0.4353  0.2575  0.3613
  631MOL0     C85111   2.007  10.490   3.879  0.9350  0.7565 -0.7168
  631MOL0     C85112   1.922  10.394   3.973 -1.2396 -0.0288 -0.7403
  631MOL0     C85113   1.778  10.410   3.947  0.1622  0.2983 -0.0311
  631MOL0     C85114   1.653  10.426   3.931  0.3889  0.2540 -1.0356
  631MOL0     C85115   2.490  10.563   3.645  0.3139 -0.5133  0.5007
  631MOL0     C85116   2.591  10.561   3.549 -0.6043  0.1468  1.0075
  631MOL0     C85117   2.568  10.611   3.414 -0.2741 -0.0842  0.0401
  631MOL0     H85118   3.086  10.330   3.486  0.5138  0.3779  1.8545
  631MOL0     H85119   3.327  10.339   3.398  1.0954  0.4228 -0.8225
  631MOL0     H85120   3.545  10.362   3.420  0.6932 -0.1283  1.0790
  631MOL0     H85121   3.578  10.484   3.288  1.9465  1.1681 -0.3423
  631MOL0     H85122   3.772  10.545   3.400 -0.5945 -0.5330 -0.7559
  631MOL0     H85123   3.761  10.377   3.461  1.0444  1.5610  0.1436
  631MOL0     H85124   3.795  10.451   3.655  0.9626  1.5708  0.1513
  631MOL0     H85125   3.622  10.510   3.649 -1.0451  1.0951 -2.3633
  631MOL0     H85126   3.852  10.691   3.581 -0.9075  4.0293  0.4197
  631MOL0     H85127   3.696  10.744   3.588 -2.5590 -1.6065 -0.3417
  631MOL0     H85128   3.662  10.684   3.836  1.7560  0.5356  1.6331
  631MOL0     H85129   3.823  10.618   3.832 -0.8892 -0.3311  1.8665
  631MOL0     H85130   3.909  10.841   3.768 -0.6149  2.7186 -0.6378
  631MOL0     H85131   3.746  10.902   3.769 -0.3278 -1.0557 -1.9547
  631MOL0     H85132   3.739  10.852   4.029  0.1987  2.0912  1.3729
  631MOL0     H85133   3.862  10.957   3.988  0.4219 -0.8998  1.4042
  631MOL0     H85134   3.946  10.798   4.143 -1.2648  1.5321 -0.0746
  631MOL0     H85135   3.893  10.663   4.035 -0.8405  0.4160  0.5077
  631MOL0     H85136   4.145  10.967   4.037  1.4855 -0.6345  2.0505
  631MOL0     H85137   4.372  10.962   3.752  3.2127 -1.1052 -1.4679
  631MOL0     H85138   4.404  10.997   3.929  0.8191  2.2940 -2.7113
  631MOL0     H85139   4.540  10.806   3.947 -2.2885  0.5929  0.2965
  631MOL0     H85140   4.509  10.751   3.776 -0.0432  0.3576  0.5193
  631MOL0     H85141   4.625  11.013   3.847 -0.0070 -0.3201  0.8171
  631MOL0     H85142   4.588  10.965   3.687  2.7370  1.5305 -0.3560
  631MOL0     H85143   4.725  10.760   3.703  1.8402 -0.6203 -0.8240
  631MOL0     H85144   4.772  10.810   3.871 -0.4047  1.0139  0.3868
  631MOL0     H85145   4.903  10.844   3.483 -0.7055 -0.8009  0.6017
  631MOL0     H85146   5.141  10.771   3.415 -1.3192 -3.9368 -0.5266
  631MOL0     H85147   5.602  10.519   3.736 -0.7375 -0.5616 -1.2949
  631MOL0     H85148   5.844  10.512   3.707 -0.3770 -1.4179 -1.6412
  631MOL0     H85149   6.090  10.672   3.778  0.9310 -0.5583  0.1553
  631MOL0     H85150   6.059  10.531   3.672 -3.1444  0.9132 -2.0761
  631MOL0     H85151   6.263  10.756   3.641 -1.1857 -1.5563  1.4534
  631MOL0     H85152   6.297  10.590   3.677  0.6245  0.5458  1.3186
  631MOL0     H85153   6.267  10.509   3.460  0.1898 -0.5104  2.2073
  631MOL0     H85154   6.177  10.649   3.405 -1.1020 -0.1992  1.2041
  631MOL0     H85155   6.461  10.632   3.511  0.7229 -2.3238 -3.0540
  631MOL0     H85156   6.380  10.787   3.446  0.5533  0.3628 -0.3595
  631MOL0     H85157   6.394  10.675   3.225  2.0113  0.0884 -2.0544
  631MOL0     H85158   6.448  10.532   3.295 -0.3661  0.8139  0.3652
  631MOL0     H85159   6.627  10.682   3.179  0.0966  1.4231 -1.1605
  631MOL0     H85160   6.596  10.802   3.293 -1.2396 -1.2782 -0.5025
  631MOL0     H85161   6.673  10.519   3.378 -0.6481 -0.6115  1.6015
  631MOL0     H85162   6.680  10.668   3.486  1.3013  0.3470 -0.5047
  631MOL0     H85163   6.843  10.773   3.356 -0.9648 -0.0815  0.0420
  631MOL0     H85164   6.899  10.625   3.442  1.5381  1.7661  0.6516
  631MOL0     H85165   5.818  10.889   3.508 -0.2092  0.1975 -0.8812
  631MOL0     H85166   5.592  10.917   3.583 -1.7241 -0.7331  0.0894
  631MOL0     H85167   5.267  10.846   3.823 -2.0981  1.9268  2.9274
  631MOL0     H85168   5.058  10.923   3.880  2.1889 -0.9137  0.4189
  631MOL0     H85169   3.346  10.752   3.516  1.0946 -1.0983  0.0620
  631MOL0     H85170   3.105  10.723   3.592 -0.6098  2.6023 -4.0544
  631MOL0     H85171   2.824  10.388   3.729 -0.5205 -0.6533  0.4854
  631MOL0     H85172   2.622  10.361   3.876  0.8492  0.5792  0.4500
  631MOL0     H85173   2.247  10.461   3.708  0.7080  1.1292 -1.6291
  631MOL0     H85174   2.255  10.625   3.781 -0.8406  0.3266  2.8201
  631MOL0     H85175   2.185  10.527   4.014 -0.9159 -0.6251  0.8908
  631MOL0     H85176   2.185  10.378   3.935 -0.7853  0.2318  0.6885
  631MOL0     H85177   1.998  10.448   3.779  2.9032  0.2311 -0.7242
  631MOL0     H85178   1.979  10.596   3.887  0.4015  0.5462  0.4859
  631MOL0     H85179   1.951  10.289   3.961 -1.6636  0.0868 -3.5858
  631MOL0     H85180   1.934  10.427   4.076  0.3613  2.4105 -1.6296
  631MOL0     H85181   1.547  10.446   3.928 -0.0080 -1.5042  0.0619
  631MOL0     H85182   2.396  10.613   3.626  0.1898 -0.0791  2.1115
  631MOL0     H85183   2.644  10.616   3.335 -0.3405  0.9066  0.0341
  631MOL0     H85184   2.474  10.573   3.373 -0.7573  0.0500  1.0040
  631MOL0     H85185   2.552  10.716   3.439  1.4704  0.4065 -0.7597
  632MOL0     O85186   4.972  10.591   7.960  0.2583 -0.3312  0.1182
  632MOL0     C85187   4.922  10.559   8.060  1.0080 -0.7717 -0.2945
  632MOL0     O85188   4.979  10.500   8.167  0.4303  0.1407  0.3588
  632MOL0     C85189   5.114  10.473   8.168  0.3722  0.5353  0.0801
  632MOL0     C85190   5.206  10.540   8.250  0.2905  0.0916 -0.4211
  632MOL0     C85191   5.343  10.498   8.266  0.9727 -0.8531  0.4030
  632MOL0     C85192   5.393  10.403   8.181 -0.5675 -0.1878 -0.0911
  632MOL0     O85193   5.527  10.362   8.193  0.1598 -0.3484 -0.6710
  632MOL0     C85194   5.634  10.452   8.229 -0.0523  0.0973 -0.2223
  632MOL0     C85195   5.775  10.404   8.189 -0.7322 -0.6556 -1.1852
  632MOL0     C85196   5.886  10.506   8.189  0.1535  0.3410 -0.0501
  632MOL0     C85197   5.929  10.510   8.327 -0.2026  0.1202  0.4658
  632MOL0     C85198   6.019  10.635   8.361  0.3616  0.3137 -0.5309
  632MOL0     C85199   6.148  10.643   8.266  0.1030 -0.1005  0.3824
  632MOL0     C85200   6.250  10.537   8.310 -0.5687 -0.1933 -0.2171
  632MOL0     C85201   6.369  10.524   8.221 -0.3338 -1.3482 -0.7820
  632MOL0     N85202   6.337  10.445   8.103 -0.1924 -0.6326 -0.5087
  632MOL0     C85203   6.318  10.502   7.976  0.6000  0.5259 -0.4736
  632MOL0     C85204   6.255  10.407   7.905 -0.0903  0.2383  0.7283
  632MOL0     C85205   6.221  10.431   7.763  1.2902  0.5311  0.0219
  632MOL0     C85206   6.336  10.398   7.672 -0.5102  0.2995  0.0845
  632MOL0     C85207   6.423  10.520   7.662  0.7138 -0.1631  0.0711
  632MOL0     C85208   6.534  10.508   7.561  0.1525  0.3589  0.6862
  632MOL0     O85209   6.595  10.384   7.584  0.0628 -0.9062 -0.3188
  632MOL0     C85210   6.701  10.343   7.499 -0.3502 -0.4118 -0.6368
  632MOL0     C85211   6.737  10.400   7.384 -0.2234 -0.5904  0.2206
  632MOL0     C85212   6.842  10.346   7.305  0.2538  0.7162 -0.3554
  632MOL0     C85213   6.928  10.248   7.354  0.0235 -0.1396 -0.3901
  632MOL0     C85214   7.028  10.178   7.265 -0.3735  0.0950 -0.2230
  632MOL0     O85215   7.069  10.245   7.154 -0.1541  0.3493  0.1734
  632MOL0     C85216   7.162  10.186   7.074  0.6245  0.2011  0.4788
  632MOL0     C85217   7.282  10.129   7.116  0.6901  0.2151  0.0527
  632MOL0     C85218   7.377  10.079   7.025  0.5555  0.3647 -0.6382
  632MOL0     C85219   7.356  10.079   6.893  0.3651 -0.1473  0.2952
  632MOL0     O85220   7.453  10.031   6.811 -0.3438  0.1364 -0.2677
  632MOL0     C85221   7.464  10.090   6.687 -0.2181 -0.5499 -0.1349
  632MOL0     C85222   7.601  10.074   6.628 -1.0375  0.1236 -0.0136
  632MOL0     C85223   7.658   9.930   6.630 -0.1609  0.2258 -1.0606
  632MOL0     C85224   7.802   9.923   6.590  0.6288 -0.2176  1.0256
  632MOL0     C85225   7.863   9.786   6.643  1.0910 -0.1892 -1.4594
  632MOL0     C85226   7.992   9.739   6.577 -0.1105 -0.3968 -0.0316
  632MOL0     C85227   8.016   9.597   6.607 -1.2348  0.6982  1.1353
  632MOL0     C85228   8.133   9.540   6.522  0.4347 -1.0736  1.1339
  632MOL0    Cl85229   8.142   9.366   6.579 -0.1886 -0.2955  0.3722
  632MOL0     C85230   7.234  10.117   6.847 -0.0871  0.4713  0.4941
  632MOL0     C85231   7.140  10.174   6.932  0.3815  0.4315 -0.2274
  632MOL0     O85232   7.071  10.064   7.297 -0.1935 -0.1376 -0.0334
  632MOL0     C85233   6.891  10.189   7.470  0.0980  0.8507 -0.8633
  632MOL0     C85234   6.781  10.234   7.539  0.6743 -0.6280  0.4594
  632MOL0     N85235   6.232  10.302   7.988  0.7091  0.2362 -0.1597
  632MOL0     N85236   6.278  10.325   8.107 -0.0591 -0.6552  0.4861
  632MOL0     C85237   5.312  10.352   8.084 -0.6205  0.8072  0.6412
  632MOL0     C85238   5.172  10.375   8.084  0.4586 -0.4071 -1.1101
  632MOL0     C85239   4.773  10.585   8.072 -0.6706 -0.0154 -0.7478
  632MOL0     C85240   4.720  10.607   8.209 -0.8737 -1.4271  0.5808
  632MOL0     C85241   4.582  10.639   8.223 -0.0744  0.6007 -0.3024
  632MOL0     C85242   4.498  10.653   8.108  0.2528 -0.0502  0.4445
  632MOL0     O85243   4.376  10.698   8.131  0.0440  0.3472  0.1807
  632MOL0     C85244   4.267  10.605   8.117 -0.0098 -0.2716 -0.1913
  632MOL0     C85245   4.140  10.679   8.168  0.1812 -0.4123  0.4301
  632MOL0     C85246   4.011  10.596   8.135  0.1817 -0.5915  1.0309
  632MOL0     C85247   3.891  10.680   8.150 -0.3134 -0.2145 -0.6214
  632MOL0     C85248   3.762  10.615   8.163 -0.1642  0.3354  0.7009
  632MOL0     C85249   3.651  10.573   8.173 -0.0615  0.3532 -0.1247
  632MOL0     C85250   4.550  10.632   7.980  0.1981 -0.3445 -0.3852
  632MOL0     C85251   4.682  10.591   7.960  0.5528 -0.8144  1.1445
  632MOL0     C85252   4.718  10.575   7.820 -0.1519 -0.1158  0.2090
  632MOL0     H85253   5.156  10.622   8.300 -0.7962 -0.9196  0.1976
  632MOL0     H85254   5.399  10.548   8.345 -1.0282 -0.7171  1.7971
  632MOL0     H85255   5.609  10.551   8.189 -0.8632  0.0323  0.1063
  632MOL0     H85256   5.629  10.481   8.335  2.0559 -0.1085 -0.0212
  632MOL0     H85257   5.777  10.349   8.094 -1.0997 -3.1375  0.1568
  632MOL0     H85258   5.795  10.321   8.258 -3.4694  0.2472  0.8768
  632MOL0     H85259   5.844  10.600   8.152 -1.3828  0.1961  1.2433
  632MOL0     H85260   5.976  10.475   8.134  0.4872 -2.2050  1.7071
  632MOL0     H85261   5.841  10.515   8.392 -1.8882 -0.6314 -1.6083
  632MOL0     H85262   5.984  10.416   8.341 -0.6810 -0.0842  0.9847
  632MOL0     H85263   5.958  10.725   8.348 -0.9051 -0.4727 -0.2533
  632MOL0     H85264   6.055  10.633   8.464 -1.9052  3.4428  0.4652
  632MOL0     H85265   6.116  10.627   8.162 -0.9337 -0.1476  0.6926
  632MOL0     H85266   6.194  10.742   8.274 -0.4518  0.3253 -1.2525
  632MOL0     H85267   6.202  10.439   8.322  0.4839 -0.9081 -1.5126
  632MOL0     H85268   6.279  10.566   8.411  2.2396 -5.5567  0.8804
  632MOL0     H85269   6.418  10.617   8.189  2.7261 -2.5625  0.0238
  632MOL0     H85270   6.443  10.476   8.285  1.4967 -1.8930 -3.1630
  632MOL0     H85271   6.345  10.599   7.934  3.6026 -0.9201 -2.1837
  632MOL0     H85272   6.142  10.357   7.746  0.3499  1.2566  1.0659
  632MOL0     H85273   6.161  10.522   7.753 -2.6419 -2.1097 -4.5598
  632MOL0     H85274   6.392  10.313   7.714 -0.0672  0.0204 -1.0218
  632MOL0     H85275   6.296  10.372   7.573 -0.2935 -0.5170  0.2049
  632MOL0     H85276   6.458  10.544   7.763 -1.4850  1.3835  0.5428
  632MOL0     H85277   6.362  10.603   7.623  0.8316 -0.2435 -0.2926
  632MOL0     H85278   6.603  10.592   7.570  0.8225  0.0513 -1.2365
  632MOL0     H85279   6.494  10.504   7.460 -1.2897  1.9369  1.1437
  632MOL0     H85280   6.676  10.478   7.337  0.6918 -0.5363 -0.9295
  632MOL0     H85281   6.863  10.394   7.210  0.3667 -1.6045 -1.5723
  632MOL0     H85282   7.302  10.117   7.222 -2.4097  1.4545  0.8857
  632MOL0     H85283   7.471  10.041   7.063  0.1756  0.6608  0.6711
  632MOL0     H85284   7.398  10.035   6.619 -0.9343 -0.1251  0.2000
  632MOL0     H85285   7.437  10.196   6.695 -3.5246 -0.9326 -3.4921
  632MOL0     H85286   7.614  10.118   6.529  2.3248  0.4041  0.4408
  632MOL0     H85287   7.666  10.136   6.692 -1.0496 -1.3692  1.5216
  632MOL0     H85288   7.653   9.905   6.736 -0.7030 -1.3855 -1.4436
  632MOL0     H85289   7.590   9.871   6.568 -2.2748  1.3742  0.0562
  632MOL0     H85290   7.859  10.007   6.630  0.1224  0.5494  0.1667
  632MOL0     H85291   7.806   9.923   6.480 -3.4994  0.3414  0.7351
  632MOL0     H85292   7.779   9.718   6.626  0.5778  0.0401  0.0460
  632MOL0     H85293   7.871   9.791   6.752 -0.3299  1.3877 -1.3974
  632MOL0     H85294   7.988   9.768   6.472 -0.2643  1.0521  0.3513
  632MOL0     H85295   8.077   9.797   6.615 -1.2456 -0.3923  2.7253
  632MOL0     H85296   7.925   9.540   6.587 -0.4731  0.2505 -1.3247
  632MOL0     H85297   8.037   9.589   6.714  3.3442 -2.4728  0.2632
  632MOL0     H85298   8.112   9.548   6.415  2.6289  0.9967  0.7628
  632MOL0     H85299   8.231   9.587   6.535 -0.0230  0.0126  0.6762
  632MOL0     H85300   7.217  10.110   6.740  1.2985  2.5314  0.0823
  632MOL0     H85301   7.040  10.200   6.897 -0.3190 -1.1940  0.4704
  632MOL0     H85302   6.942  10.102   7.511 -0.8668 -0.4069 -2.2296
  632MOL0     H85303   6.746  10.178   7.625 -0.8353 -1.6562 -0.7616
  632MOL0     H85304   5.345  10.270   8.021 -3.0702 -0.3405  0.7367
  632MOL0     H85305   5.113  10.319   8.013  0.5558  0.1379 -1.6293
  632MOL0     H85306   4.781  10.589   8.297 -0.0556 -0.7292  0.1678
  632MOL0     H85307   4.556  10.664   8.325  3.8516 -0.3212  1.1298
  632MOL0     H85308   4.289  10.512   8.171  0.6691 -0.3950 -0.6641
  632MOL0     H85309   4.265  10.580   8.011  0.7955  1.6647 -0.6944
  632MOL0     H85310   4.135  10.783   8.134 -1.1590 -0.0208  1.6800
  632MOL0     H85311   4.155  10.692   8.276  2.9108 -0.5155  0.1281
  632MOL0     H85312   4.004  10.509   8.202 -2.2817 -0.2487  1.2999
  632MOL0     H85313   4.011  10.567   8.030 -2.2171  1.2153  0.4453
  632MOL0     H85314   3.903  10.740   8.240  1.9804 -1.6280  0.1203
  632MOL0     H85315   3.881  10.744   8.062 -0.2081 -0.5387 -0.8720
  632MOL0     H85316   3.556  10.526   8.187 -0.7002  1.8783  0.9333
  632MOL0     H85317   4.479  10.670   7.907 -0.2323 -0.6758 -0.1471
  632MOL0     H85318   4.786  10.491   7.804  0.9260  0.6173  0.7832
  632MOL0     H85319   4.629  10.564   7.759  1.8606 -1.4653 -2.7036
  632MOL0     H85320   4.764  10.671   7.792 -3.8958  1.1662 -2.3605
  633MOL0     O85321   3.117   1.911   8.327 -0.0710  0.2447 -0.9732
  633MOL0     C85322   3.068   1.871   8.435  0.7076 -0.9380 -0.3570
  633MOL0     O85323   2.941   1.891   8.476  0.1621  0.4127  0.0252
  633MOL0     C85324   2.848   1.956   8.393 -0.0702 -0.1175 -0.9688
  633MOL0     C85325   2.727   1.893   8.361 -0.3612 -0.5589  0.3747
  633MOL0     C85326   2.640   1.953   8.275  0.0453 -0.0069 -0.1475
  633MOL0     C85327   2.657   2.080   8.227  0.1055  0.5913 -0.0792
  633MOL0     O85328   2.572   2.141   8.144  0.1607  0.6771 -0.9682
  633MOL0     C85329   2.458   2.073   8.091  0.3132 -0.4127  0.0614
  633MOL0     C85330   2.393   2.189   8.010 -0.0337  0.5927 -0.9951
  633MOL0     C85331   2.255   2.137   7.954 -0.9211  0.7521  0.1777
  633MOL0     C85332   2.141   2.142   8.044 -0.0091  0.2346  0.5764
  633MOL0     C85333   2.026   2.044   7.995 -0.6859 -0.1219 -0.2266
  633MOL0     C85334   1.889   2.049   8.073 -0.0060  0.1424 -0.1436
  633MOL0     C85335   1.761   2.019   7.997  0.3461  0.8703  0.5378
  633MOL0     C85336   1.726   1.879   7.962 -0.5169  0.5514 -0.3654
  633MOL0     N85337   1.823   1.815   7.875 -0.6441  0.4352  0.5500
  633MOL0     C85338   1.817   1.819   7.744 -1.0645  0.1752 -0.9630
  633MOL0     C85339   1.910   1.731   7.695  0.6522 -0.4571  0.3290
  633MOL0     C85340   1.940   1.706   7.548  0.5053 -0.2431  0.3183
  633MOL0     C85341   2.057   1.796   7.517  0.0114  0.1930 -0.5611
  633MOL0     C85342   2.119   1.757   7.380 -0.3534  0.2411  0.3613
  633MOL0     C85343   2.244   1.831   7.347 -0.7794 -0.1443  0.8059
  633MOL0     O85344   2.348   1.779   7.428 -0.1475  0.0388  0.1900
  633MOL0     C85345   2.482   1.826   7.407  1.3084 -0.2772  0.4527
  633MOL0     C85346   2.592   1.776   7.477  0.9089  0.8173  0.1957
  633MOL0     C85347   2.723   1.812   7.450 -1.1449 -0.3221 -0.0420
  633MOL0     C85348   2.750   1.920   7.359 -0.1629 -0.3233 -0.4711
  633MOL0     C85349   2.890   1.966   7.354 -0.1525  0.7184 -0.4122
  633MOL0     O85350   2.988   1.897   7.429  0.3276 -0.0886 -0.0167
  633MOL0     C85351   3.119   1.943   7.432  0.4173  0.4634 -0.7601
  633MOL0     C85352   3.191   2.039   7.351 -0.6455  0.1785 -0.0512
  633MOL0     C85353   3.327   2.078   7.370  1.1375  0.9506 -0.0237
  633MOL0     C85354   3.397   2.026   7.474  0.8594 -0.6631 -0.9024
  633MOL0     O85355   3.526   2.065   7.506 -0.0733  0.0709 -0.1663
  633MOL0     C85356   3.598   2.156   7.418 -0.3748 -0.2014 -0.8418
  633MOL0     C85357   3.742   2.153   7.466 -0.2938 -0.4710 -0.7005
  633MOL0     C85358   3.760   2.240   7.598  0.4747 -0.1652  0.1010
  633MOL0     C85359   3.903   2.261   7.645  0.3201  0.9296  0.9099
  633MOL0     C85360   3.986   2.129   7.682  0.9435 -0.2339 -0.0111
  633MOL0     C85361   4.135   2.143   7.689 -0.1194 -0.1737  0.1917
  633MOL0     C85362   4.189   2.169   7.549 -0.7560 -0.5690 -0.0455
  633MOL0     C85363   4.336   2.176   7.560 -0.0834 -0.2975 -0.5772
  633MOL0    Cl85364   4.392   2.337   7.612  0.3475  0.0694 -0.1641
  633MOL0     C85365   3.332   1.939   7.561 -0.3485 -0.1703  0.4390
  633MOL0     C85366   3.203   1.894   7.533 -0.0990  1.0262  0.1376
  633MOL0     O85367   2.913   2.053   7.267 -0.1219 -0.4588 -0.0276
  633MOL0     C85368   2.652   1.973   7.286  0.3570 -0.0795  0.1708
  633MOL0     C85369   2.515   1.923   7.309 -0.1589 -0.0775 -0.3318
  633MOL0     N85370   1.953   1.663   7.800 -0.8966  0.0528  0.1308
  633MOL0     N85371   1.909   1.716   7.911 -0.1807 -0.8337 -0.5629
  633MOL0     C85372   2.776   2.152   8.273 -0.1928  0.5024  0.4788
  633MOL0     C85373   2.876   2.091   8.351  0.1459  0.7434 -0.0534
  633MOL0     C85374   3.145   1.763   8.515  0.1896 -0.0875  0.5590
  633MOL0     C85375   3.062   1.686   8.607 -0.1353  0.7436 -0.6142
  633MOL0     C85376   3.115   1.570   8.667 -0.1495  0.6942 -0.4039
  633MOL0     C85377   3.235   1.515   8.633  0.3132 -0.2140  0.3278
  633MOL0     O85378   3.269   1.393   8.695  0.3245 -0.5650 -0.1697
  633MOL0     C85379   3.369   1.312   8.634  0.8335  0.8660  0.5918
  633MOL0     C85380   3.370   1.173   8.714 -0.6753 -0.3466 -0.9024
  633MOL0     C85381   3.483   1.078   8.661 -1.3717  0.0045  0.9495
  633MOL0     C85382   3.501   0.950   8.747  0.3160  0.4686 -0.4895
  633MOL0     C85383   3.380   0.886   8.802 -0.0197 -0.0522 -1.6205
  633MOL0     C85384   3.278   0.824   8.845  0.8426 -0.1702  0.6190
  633MOL0     C85385   3.321   1.603   8.568  0.3332  0.3134 -1.1955
  633MOL0     C85386   3.283   1.727   8.510  0.7384 -0.7178  0.1599
  633MOL0     C85387   3.376   1.820   8.440 -0.4455 -0.2221 -0.2405
  633MOL0     H85388   2.715   1.797   8.411 -1.5282 -1.5885 -1.7294
  633MOL0     H85389   2.554   1.894   8.246 -0.3503 -0.6078  2.1058
  633MOL0     H85390   2.480   1.991   8.021  0.7760 -2.4202  2.4118
  633MOL0     H85391   2.394   2.043   8.174  0.1691  2.6492  1.1841
  633MOL0     H85392   2.456   2.216   7.924 -0.9953 -0.3568 -2.0375
  633MOL0     H85393   2.375   2.275   8.075 -0.0267  1.0219 -1.5535
  633MOL0     H85394   2.275   2.032   7.927  0.3233  0.2542  2.7345
  633MOL0     H85395   2.235   2.208   7.874 -2.7833  1.3300  1.1089
  633MOL0     H85396   2.166   2.108   8.145 -0.8463 -2.2549 -0.0006
  633MOL0     H85397   2.105   2.245   8.045  1.5727  0.8317  2.0210
  633MOL0     H85398   2.009   2.048   7.887  2.0467  0.2229 -0.7149
  633MOL0     H85399   2.073   1.946   8.008  2.0902  0.9012 -1.7193
  633MOL0     H85400   1.900   1.981   8.158 -0.4573  0.4834  0.1881
  633MOL0     H85401   1.865   2.150   8.107 -2.0572  0.7916 -3.1192
  633MOL0     H85402   1.758   2.079   7.905  0.9463 -1.3793 -1.0437
  633MOL0     H85403   1.674   2.050   8.055 -1.3244  0.1948 -1.4737
  633MOL0     H85404   1.730   1.825   8.057  1.9147  1.4776  0.1519
  633MOL0     H85405   1.627   1.860   7.921 -0.4769  0.5571 -0.4658
  633MOL0     H85406   1.744   1.875   7.687 -1.8170 -0.6886 -0.8831
  633MOL0     H85407   1.964   1.599   7.549 -0.2547 -0.5134 -2.1192
  633MOL0     H85408   1.861   1.724   7.475  1.2396 -0.7392 -0.6279
  633MOL0     H85409   2.019   1.899   7.510 -0.7890 -0.1171 -1.0035
  633MOL0     H85410   2.134   1.790   7.594 -1.0663 -0.1408  0.5287
  633MOL0     H85411   2.044   1.763   7.301  0.0373 -2.7998 -0.3994
  633MOL0     H85412   2.148   1.651   7.381  0.0077  0.2689 -1.8607
  633MOL0     H85413   2.234   1.940   7.343  1.8503  0.1739 -3.5987
  633MOL0     H85414   2.267   1.808   7.243 -0.5206 -5.0729  1.7210
  633MOL0     H85415   2.563   1.698   7.546 -2.1486 -2.3473 -4.1343
  633MOL0     H85416   2.809   1.770   7.500  1.3586  0.4285 -3.3562
  633MOL0     H85417   3.133   2.096   7.278 -1.5653 -0.3258  0.2589
  633MOL0     H85418   3.377   2.158   7.317 -1.3583  4.9125  3.0082
  633MOL0     H85419   3.599   2.115   7.317  0.5160 -0.7329 -0.6348
  633MOL0     H85420   3.556   2.256   7.427 -1.0885 -0.4798 -0.9868
  633MOL0     H85421   3.782   2.052   7.469 -0.0168 -0.3437  0.1476
  633MOL0     H85422   3.794   2.206   7.385  0.9417 -2.2003 -1.0955
  633MOL0     H85423   3.712   2.337   7.588  0.0411 -0.4936 -1.1625
  633MOL0     H85424   3.710   2.191   7.683  1.8034 -1.1548  0.3547
  633MOL0     H85425   3.894   2.327   7.732  2.4817  0.9059  1.2165
  633MOL0     H85426   3.956   2.317   7.567 -0.5860 -0.2726 -0.6210
  633MOL0     H85427   3.965   2.046   7.615  1.6618 -1.9739  1.7938
  633MOL0     H85428   3.959   2.099   7.784  1.5623 -1.0044 -0.0603
  633MOL0     H85429   4.162   2.230   7.750 -1.5897  1.2739 -1.1154
  633MOL0     H85430   4.184   2.052   7.726  0.5567  0.6058  1.2849
  633MOL0     H85431   4.153   2.262   7.504  1.5884  1.1514  1.3642
  633MOL0     H85432   4.166   2.089   7.479  0.7758  1.0506 -2.5468
  633MOL0     H85433   4.377   2.094   7.620 -1.0398  0.3257  0.9891
  633MOL0     H85434   4.373   2.161   7.458  1.1178 -3.7217  0.2187
  633MOL0     H85435   3.392   1.904   7.643  0.7060 -1.4884 -0.8434
  633MOL0     H85436   3.163   1.815   7.596 -0.3766 -1.2374 -2.6802
  633MOL0     H85437   2.676   2.050   7.213  0.8244  1.5851  1.9987
  633MOL0     H85438   2.443   1.973   7.244  1.9420  0.2881 -2.5721
  633MOL0     H85439   2.784   2.256   8.243 -4.8203  0.5083 -1.7194
  633MOL0     H85440   2.964   2.147   8.380 -0.5756  1.7173  0.3537
  633MOL0     H85441   2.959   1.710   8.630 -0.1595 -2.1590  3.2167
  633MOL0     H85442   3.056   1.511   8.735  1.3472  0.6828  0.9339
  633MOL0     H85443   3.459   1.374   8.634 -0.4668  2.9152 -1.0626
  633MOL0     H85444   3.352   1.289   8.529  2.0261  2.2067  0.0669
  633MOL0     H85445   3.269   1.131   8.706 -1.8019  2.3561 -2.5136
  633MOL0     H85446   3.387   1.196   8.819 -1.1695  2.1125 -1.3088
  633MOL0     H85447   3.579   1.131   8.654 -0.3208 -2.0403 -1.6804
  633MOL0     H85448   3.461   1.044   8.560 -1.4214  2.1355  0.1952
  633MOL0     H85449   3.556   0.883   8.680  1.4774  1.2815 -0.3745
  633MOL0     H85450   3.578   0.971   8.822 -1.6139  2.4634  1.0609
  633MOL0     H85451   3.187   0.774   8.873  0.7763  0.2382  1.1646
  633MOL0     H85452   3.424   1.571   8.556  0.2956 -1.4332  2.0432
  633MOL0     H85453   3.386   1.789   8.335  1.3872 -1.6579  0.2833
  633MOL0     H85454   3.335   1.921   8.446 -0.1047 -0.0385 -0.8970
  633MOL0     H85455   3.474   1.812   8.488 -0.9091  0.1280  0.7762
  634MOL0     O85456   4.053   6.258   1.777 -0.1748  0.0670 -0.1724
  634MOL0     C85457   3.998   6.247   1.671  0.5515 -0.3087 -0.1759
  634MOL0     O85458   4.061   6.216   1.552 -0.0362 -0.0566  0.1149
  634MOL0     C85459   4.193   6.200   1.562 -0.7723  0.2932  0.0921
  634MOL0     C85460   4.283   6.296   1.508  0.5330  0.0523 -0.2598
  634MOL0     C85461   4.425   6.257   1.512  0.1533 -0.0387 -0.6978
  634MOL0     C85462   4.462   6.136   1.565 -0.3147  0.0027 -0.6983
  634MOL0     O85463   4.596   6.110   1.578  0.7858 -0.1314 -0.1756
  634MOL0     C85464   4.648   5.989   1.502 -0.3407 -0.2493 -0.5005
  634MOL0     C85465   4.775   5.940   1.582  1.5150  1.1820  0.2880
  634MOL0     C85466   4.891   6.044   1.581  0.0531  0.5118  0.6986
  634MOL0     C85467   5.027   5.992   1.629  0.3306  0.2175 -0.1424
  634MOL0     C85468   5.136   6.095   1.645 -0.1285  0.2989 -0.7821
  634MOL0     C85469   5.273   6.041   1.672 -0.9089 -0.0537 -0.1898
  634MOL0     C85470   5.373   6.152   1.687  1.0534  0.2404  0.3803
  634MOL0     C85471   5.505   6.106   1.635  0.2553  0.4955 -0.9134
  634MOL0     N85472   5.607   6.184   1.696 -0.9744 -0.8574 -0.8771
  634MOL0     C85473   5.663   6.298   1.642  0.0895  0.0712 -0.9421
  634MOL0     C85474   5.772   6.318   1.720 -0.3767 -0.9987  0.4433
  634MOL0     C85475   5.858   6.437   1.707 -0.5078 -0.0418  0.5150
  634MOL0     C85476   6.008   6.404   1.684  0.1772  0.3622  0.3647
  634MOL0     C85477   6.037   6.305   1.565  0.1941 -0.7011  0.6706
  634MOL0     C85478   6.184   6.311   1.542 -1.2018 -0.0987  0.4024
  634MOL0     O85479   6.237   6.443   1.534  0.0779  0.5414  0.6085
  634MOL0     C85480   6.367   6.469   1.515  0.2481 -0.0597  1.3317
  634MOL0     C85481   6.430   6.413   1.402  1.0764 -0.5583  0.3809
  634MOL0     C85482   6.563   6.429   1.377 -0.0574 -0.2655  0.2935
  634MOL0     C85483   6.640   6.517   1.457 -0.8207 -0.0121  0.3993
  634MOL0     C85484   6.786   6.538   1.435  0.6213 -0.0314  0.5837
  634MOL0     O85485   6.847   6.619   1.520  0.2468  0.5332  0.8504
  634MOL0     C85486   6.980   6.641   1.493 -0.4248  0.2863  0.1179
  634MOL0     C85487   7.080   6.547   1.526  0.7282 -0.0738 -1.2914
  634MOL0     C85488   7.212   6.568   1.507 -0.0883 -0.0793  0.5330
  634MOL0     C85489   7.253   6.685   1.435  0.7898  0.3182  0.1513
  634MOL0     O85490   7.373   6.705   1.375 -0.1483 -0.5811 -0.0336
  634MOL0     C85491   7.405   6.621   1.264  0.4316 -0.0578  0.7768
  634MOL0     C85492   7.526   6.671   1.188 -0.2975  0.3896 -0.5596
  634MOL0     C85493   7.654   6.681   1.273 -0.8282  0.3119 -0.3429
  634MOL0     C85494   7.735   6.550   1.284  0.5300 -0.1126  0.1545
  634MOL0     C85495   7.869   6.590   1.336 -0.5974 -0.4333 -0.3969
  634MOL0     C85496   7.957   6.464   1.321  0.9247  0.1512 -0.3457
  634MOL0     C85497   8.087   6.488   1.388 -0.9407  0.7001 -0.4715
  634MOL0     C85498   8.184   6.367   1.393  0.0898  0.2224  0.0031
  634MOL0    Cl85499   8.213   6.307   1.231 -0.1903  0.3911  0.0772
  634MOL0     C85500   7.149   6.776   1.399  0.2871  0.2940 -0.4854
  634MOL0     C85501   7.013   6.757   1.433  0.6733 -0.0770  0.8658
  634MOL0     O85502   6.831   6.483   1.338  0.0950 -0.4636  0.0563
  634MOL0     C85503   6.575   6.574   1.561 -0.4884  0.7728 -0.0824
  634MOL0     C85504   6.446   6.547   1.591 -0.3464 -0.9114  0.1645
  634MOL0     N85505   5.793   6.214   1.805  0.6921 -0.7279  0.5066
  634MOL0     N85506   5.686   6.141   1.800 -0.2672  0.2453 -0.4190
  634MOL0     C85507   4.371   6.042   1.607 -0.2682 -0.2614 -0.2658
  634MOL0     C85508   4.241   6.075   1.607  0.2827  0.7200 -0.2338
  634MOL0     C85509   3.851   6.257   1.674 -0.1280  0.2630  0.5896
  634MOL0     C85510   3.781   6.205   1.783  0.6440 -0.3906 -0.6114
  634MOL0     C85511   3.643   6.201   1.794 -1.0047  0.4564  0.7389
  634MOL0     C85512   3.568   6.266   1.702 -0.4051  0.0047  0.4034
  634MOL0     O85513   3.433   6.262   1.724  0.6243 -0.1479  0.0371
  634MOL0     C85514   3.348   6.308   1.621  1.2271  0.4700  0.5576
  634MOL0     C85515   3.197   6.281   1.665 -0.2421 -0.2659  0.1133
  634MOL0     C85516   3.100   6.333   1.556  0.1426 -0.0742  0.2616
  634MOL0     C85517   2.951   6.295   1.584  0.0724 -0.0282 -0.2518
  634MOL0     C85518   2.916   6.333   1.723  0.1729 -1.1774  0.4505
  634MOL0     C85519   2.901   6.358   1.845  0.0158  0.2302 -0.1750
  634MOL0     C85520   3.634   6.317   1.593  0.7826  0.5875  0.2084
  634MOL0     C85521   3.774   6.310   1.577 -0.5856  0.0980  0.9502
  634MOL0     C85522   3.826   6.360   1.447  0.4359  0.3160 -0.2289
  634MOL0     H85523   4.255   6.388   1.457 -1.6337  0.0350  0.7868
  634MOL0     H85524   4.506   6.325   1.484 -1.5789  1.8453 -1.4303
  634MOL0     H85525   4.577   5.906   1.492  0.2826 -1.0855  1.4721
  634MOL0     H85526   4.684   6.013   1.402 -0.7610 -1.0935 -0.8625
  634MOL0     H85527   4.827   5.855   1.536  0.6391 -0.4925  2.2554
  634MOL0     H85528   4.749   5.915   1.685  4.3807  0.1900  0.8735
  634MOL0     H85529   4.847   6.119   1.647 -1.2591 -0.3170  0.8142
  634MOL0     H85530   4.900   6.090   1.482  0.2992  0.7563  0.8331
  634MOL0     H85531   5.025   5.940   1.725  0.5632  1.2655  0.4439
  634MOL0     H85532   5.060   5.926   1.548 -0.8680  0.4229 -0.8251
  634MOL0     H85533   5.135   6.153   1.552 -1.4250  1.9351  0.1984
  634MOL0     H85534   5.111   6.168   1.722 -0.7576 -2.4425  1.7774
  634MOL0     H85535   5.273   5.972   1.757 -0.5770 -1.1691 -1.0633
  634MOL0     H85536   5.295   5.978   1.586 -1.2861 -1.0716  0.4395
  634MOL0     H85537   5.383   6.169   1.795  1.8631  1.0991  0.1864
  634MOL0     H85538   5.338   6.245   1.642 -2.2279 -0.6740  0.7568
  634MOL0     H85539   5.512   6.001   1.666 -2.2776 -0.5401 -3.3851
  634MOL0     H85540   5.518   6.106   1.526 -1.6167  0.2488 -1.1772
  634MOL0     H85541   5.642   6.361   1.556  1.8014 -0.1848 -1.5950
  634MOL0     H85542   5.824   6.496   1.621  1.8052 -0.0008 -0.4564
  634MOL0     H85543   5.859   6.505   1.793 -0.7629  1.4363 -0.6115
  634MOL0     H85544   6.056   6.502   1.676  0.7927  0.1578  1.3331
  634MOL0     H85545   6.035   6.361   1.781 -1.3575  1.6182  1.4304
  634MOL0     H85546   5.991   6.351   1.477  2.7908 -2.7511 -1.9759
  634MOL0     H85547   5.995   6.207   1.591 -3.1726  0.9687  2.1405
  634MOL0     H85548   6.215   6.252   1.455 -0.6606  1.7417 -0.7155
  634MOL0     H85549   6.242   6.270   1.626  2.0448 -1.7755 -2.4267
  634MOL0     H85550   6.364   6.366   1.330 -1.8070  0.4079  2.2283
  634MOL0     H85551   6.613   6.381   1.294 -0.4670  2.4905 -1.7164
  634MOL0     H85552   7.036   6.458   1.569 -1.5426  1.2775 -0.6783
  634MOL0     H85553   7.284   6.492   1.536  0.0424  0.7183  2.4128
  634MOL0     H85554   7.434   6.522   1.301  4.8079  0.7742  0.1043
  634MOL0     H85555   7.322   6.606   1.195  1.2083  4.3685 -1.4753
  634MOL0     H85556   7.551   6.602   1.106 -0.7437  0.6120 -0.8831
  634MOL0     H85557   7.512   6.767   1.139 -2.2861  0.6775  0.4829
  634MOL0     H85558   7.720   6.746   1.213  1.0711 -1.0794  0.1427
  634MOL0     H85559   7.636   6.727   1.371  1.4866  0.2600  0.1623
  634MOL0     H85560   7.759   6.518   1.182 -0.5803 -1.1450  0.1944
  634MOL0     H85561   7.689   6.466   1.338  0.5914 -1.9580 -2.4781
  634MOL0     H85562   7.858   6.618   1.441  1.3161 -2.6395  0.4925
  634MOL0     H85563   7.922   6.671   1.287 -0.6293  1.6033  2.6862
  634MOL0     H85564   7.903   6.381   1.368  0.8738  0.5411  0.2901
  634MOL0     H85565   7.960   6.440   1.214  1.3584 -3.8472  0.3816
  634MOL0     H85566   8.063   6.514   1.492  1.5333  0.7015  0.1476
  634MOL0     H85567   8.139   6.573   1.344  1.2324  0.1655  0.8814
  634MOL0     H85568   8.277   6.402   1.440 -0.7480 -0.3192  2.1802
  634MOL0     H85569   8.145   6.284   1.452 -2.0450  1.3975  0.3439
  634MOL0     H85570   7.177   6.864   1.342  1.1824  0.8153  0.7021
  634MOL0     H85571   6.936   6.826   1.400 -0.2859 -1.4011  0.2329
  634MOL0     H85572   6.627   6.653   1.615  1.5994  1.4444 -2.7945
  634MOL0     H85573   6.400   6.601   1.673  2.0411  1.7639 -0.1054
  634MOL0     H85574   4.396   5.944   1.647 -1.2928 -0.7723 -0.8205
  634MOL0     H85575   4.165   6.009   1.648 -0.7085  2.5812  1.1099
  634MOL0     H85576   3.830   6.157   1.867  3.1662 -3.1625 -3.3952
  634MOL0     H85577   3.598   6.161   1.884 -3.0904  0.5880 -0.1904
  634MOL0     H85578   3.368   6.257   1.527  1.4925  3.0311 -0.8780
  634MOL0     H85579   3.356   6.413   1.592 -0.0612  1.0033  1.9803
  634MOL0     H85580   3.169   6.335   1.756 -4.3718 -3.3207  0.9533
  634MOL0     H85581   3.183   6.176   1.689  1.0714 -0.6080 -0.5063
  634MOL0     H85582   3.130   6.294   1.458  2.0055  0.1437  0.7055
  634MOL0     H85583   3.107   6.442   1.548 -1.4574 -0.0929 -3.3551
  634MOL0     H85584   2.887   6.348   1.513 -1.6554  0.5081  1.6231
  634MOL0     H85585   2.934   6.189   1.562 -0.1138  0.2870 -1.7823
  634MOL0     H85586   2.891   6.388   1.947  0.4577  0.5915 -0.2376
  634MOL0     H85587   3.565   6.363   1.523 -1.6678 -1.2795  1.2433
  634MOL0     H85588   3.872   6.275   1.396  0.2404  0.2400 -0.2790
  634MOL0     H85589   3.737   6.391   1.391 -0.3140  1.0277  1.3045
  634MOL0     H85590   3.887   6.449   1.460 -0.3399  0.7541  0.5265
  635MOL0     O85591   7.696   8.289   4.537  0.1544 -0.1667  1.0917
  635MOL0     C85592   7.660   8.370   4.450  0.2108 -0.5288  0.0309
  635MOL0     O85593   7.733   8.404   4.336 -0.0406  0.0480 -0.2559
  635MOL0     C85594   7.860   8.356   4.330 -1.2566 -0.3503 -0.3411
  635MOL0     C85595   7.968   8.444   4.305  0.7776 -0.9611 -0.7363
  635MOL0     C85596   8.097   8.395   4.289 -0.0027  0.2152  0.3597
  635MOL0     C85597   8.126   8.266   4.298  0.3828 -0.4680 -0.3465
  635MOL0     O85598   8.254   8.213   4.299 -0.3172 -0.1281 -0.1682
  635MOL0     C85599   8.360   8.305   4.259 -0.6714  0.4817  0.1850
  635MOL0     C85600   8.497   8.230   4.263  0.5166  0.7666  0.0118
  635MOL0     C85601   8.614   8.326   4.259  0.2058 -0.2031 -0.2608
  635MOL0     C85602   8.739   8.264   4.197 -0.8989  0.2855  0.0779
  635MOL0     C85603   8.860   8.355   4.206 -0.1603 -0.5404  0.3601
  635MOL0     C85604   8.981   8.276   4.143  0.6791 -0.1460  0.1651
  635MOL0     C85605   9.110   8.346   4.150  0.0696 -0.2596  0.1515
  635MOL0     C85606   9.222   8.242   4.140 -0.8006 -0.1299  0.8579
  635MOL0     N85607   9.350   8.312   4.134  0.3785  0.3283 -0.6736
  635MOL0     C85608   9.447   8.297   4.225 -0.5641  0.8409 -0.6487
  635MOL0     C85609   9.541   8.384   4.196  0.5045  0.4651  0.7295
  635MOL0     C85610   9.678   8.419   4.249  0.0931  0.1488  0.3793
  635MOL0     C85611   9.694   8.571   4.266  0.7425 -0.2426  0.0602
  635MOL0     C85612   9.802   8.604   4.365 -0.2866 -0.4753 -0.3470
  635MOL0     C85613   9.952   8.594   4.329  0.9026  0.1313 -0.2891
  635MOL0     O85614   9.998   8.725   4.296 -0.6948 -0.3065 -0.1150
  635MOL0     C85615  10.128   8.756   4.307 -0.0368  0.0573  0.1727
  635MOL0     C85616  10.165   8.885   4.321  0.1545 -0.6310 -0.9792
  635MOL0     C85617  10.295   8.925   4.336 -0.5275 -0.9975  0.2891
  635MOL0     C85618  10.404   8.833   4.335  0.6621  0.0514  0.1147
  635MOL0     C85619  10.535   8.880   4.350  0.0925 -0.7252  0.3033
  635MOL0     O85620  10.552   9.020   4.373  0.4060  0.0268  0.1986
  635MOL0     C85621  10.678   9.073   4.389  0.2338  0.6266  0.3117
  635MOL0     C85622  10.805   9.007   4.431  0.2764  0.3417  0.2206
  635MOL0     C85623  10.921   9.081   4.446 -0.0923 -0.1965  0.7507
  635MOL0     C85624  10.918   9.218   4.411  0.6008  0.0870 -0.1161
  635MOL0     O85625  11.039   9.272   4.417  0.3953 -0.9203  0.6048
  635MOL0     C85626  11.049   9.415   4.407 -0.7971 -0.5962  0.2903
  635MOL0     C85627  11.180   9.459   4.470 -0.1543  0.5442 -0.0388
  635MOL0     C85628  11.207   9.609   4.480 -0.0059  0.5674  0.2310
  635MOL0     C85629  11.350   9.631   4.529 -0.3502 -0.0803 -0.1386
  635MOL0     C85630  11.397   9.776   4.509 -0.1955  0.0672 -0.1070
  635MOL0     C85631  11.326   9.883   4.592  0.4341 -0.5587  0.2015
  635MOL0     C85632  11.357  10.017   4.525 -0.3771 -0.0390 -0.1572
  635MOL0     C85633  11.308  10.129   4.620 -0.1534 -0.0448 -0.0198
  635MOL0    Cl85634  11.379  10.141   4.773 -0.0915 -0.0899 -0.1085
  635MOL0     C85635  10.798   9.279   4.379 -0.1331 -0.7229  0.9631
  635MOL0     C85636  10.678   9.212   4.366  0.1866  0.3596 -0.2768
  635MOL0     O85637  10.620   8.796   4.336  0.0866 -0.4422  0.1893
  635MOL0     C85638  10.365   8.698   4.323 -0.8364  0.8553 -0.0793
  635MOL0     C85639  10.228   8.659   4.299 -0.2575  0.5070  0.0046
  635MOL0     N85640   9.506   8.439   4.073 -0.1458 -0.5667  0.3548
  635MOL0     N85641   9.393   8.397   4.036  0.0084 -0.6979 -0.4732
  635MOL0     C85642   8.024   8.174   4.315  0.4742 -0.1520 -0.0424
  635MOL0     C85643   7.887   8.217   4.330  0.0466  0.9728 -0.4507
  635MOL0     C85644   7.528   8.446   4.478  0.4640  0.2203 -0.2805
  635MOL0     C85645   7.465   8.438   4.607 -0.4678 -0.0714 -0.1567
  635MOL0     C85646   7.345   8.512   4.629  0.3073 -0.3461 -0.1505
  635MOL0     C85647   7.281   8.590   4.536 -1.0196 -0.5164 -0.2009
  635MOL0     O85648   7.169   8.666   4.556  0.5463 -0.0243 -0.6221
  635MOL0     C85649   7.112   8.652   4.688 -0.0093  0.6405  0.0593
  635MOL0     C85650   6.975   8.727   4.678 -0.2071 -0.9639 -0.1662
  635MOL0     C85651   6.979   8.871   4.629  0.8631  0.0172  0.0384
  635MOL0     C85652   7.020   8.975   4.733 -0.2362  0.8233  0.2666
  635MOL0     C85653   6.966   8.949   4.866 -0.3654 -0.6425 -1.0537
  635MOL0     C85654   6.910   8.919   4.974 -0.8112 -0.1378  0.5572
  635MOL0     C85655   7.343   8.593   4.414  0.2540 -0.1320 -0.3126
  635MOL0     C85656   7.460   8.522   4.376 -0.0933 -1.0122 -0.7200
  635MOL0     C85657   7.509   8.539   4.233  0.2199 -0.1721  0.2012
  635MOL0     H85658   7.970   8.549   4.332  1.3950 -0.6829 -1.7990
  635MOL0     H85659   8.164   8.479   4.273 -0.3908  0.9002  2.1468
  635MOL0     H85660   8.342   8.343   4.158  0.5818  1.0712  0.1689
  635MOL0     H85661   8.365   8.392   4.325  0.4154 -0.9589  2.1160
  635MOL0     H85662   8.504   8.165   4.176  1.4401 -0.0211  0.6529
  635MOL0     H85663   8.500   8.170   4.355 -0.4637 -4.4010 -2.9651
  635MOL0     H85664   8.644   8.367   4.356 -1.7464 -0.3764  0.4837
  635MOL0     H85665   8.583   8.414   4.204 -0.5403  1.7165  2.9465
  635MOL0     H85666   8.760   8.163   4.234 -1.4947  0.0534 -0.2137
  635MOL0     H85667   8.722   8.244   4.091  1.0208  1.2226 -0.4473
  635MOL0     H85668   8.831   8.446   4.153 -1.5792  0.0762  2.0838
  635MOL0     H85669   8.884   8.381   4.310 -0.1090  4.1794 -0.6305
  635MOL0     H85670   8.994   8.183   4.200  0.8950 -0.4466 -0.3693
  635MOL0     H85671   8.959   8.263   4.036 -5.2269  2.6581  0.6333
  635MOL0     H85672   9.113   8.421   4.230 -2.4895 -1.6372  1.6711
  635MOL0     H85673   9.114   8.402   4.057  1.7044 -3.0813 -1.6273
  635MOL0     H85674   9.213   8.180   4.229  0.1920  2.5480  2.9394
  635MOL0     H85675   9.214   8.186   4.046  2.0301  2.4101 -1.0838
  635MOL0     H85676   9.453   8.227   4.308  3.0121  1.4101 -0.2793
  635MOL0     H85677   9.686   8.362   4.342  0.3697 -0.0116  0.2589
  635MOL0     H85678   9.755   8.381   4.181 -3.2978  0.0635 -3.8493
  635MOL0     H85679   9.713   8.624   4.172  3.6399 -0.7449  0.2848
  635MOL0     H85680   9.606   8.622   4.306 -1.3442 -1.7456 -2.3064
  635MOL0     H85681   9.785   8.536   4.449 -0.9724 -2.0548 -1.7039
  635MOL0     H85682   9.785   8.705   4.402  2.1951  0.1578 -0.7486
  635MOL0     H85683   9.955   8.536   4.237  0.3370  3.0807 -2.3281
  635MOL0     H85684  10.006   8.552   4.415 -3.1409 -0.9604  1.9853
  635MOL0     H85685  10.080   8.952   4.324 -0.0705 -0.8697  3.0874
  635MOL0     H85686  10.308   9.032   4.347 -2.0436 -0.3574 -2.9302
  635MOL0     H85687  10.813   8.901   4.452  1.1301 -0.1786 -2.4061
  635MOL0     H85688  11.018   9.044   4.476  2.4625  3.1119 -2.5287
  635MOL0     H85689  11.060   9.444   4.302  0.8915 -0.2187  0.5478
  635MOL0     H85690  10.962   9.469   4.446 -0.4478 -0.4470  0.8859
  635MOL0     H85691  11.186   9.419   4.572  0.9786  0.3178 -0.1806
  635MOL0     H85692  11.261   9.406   4.419 -0.9227  0.0120 -0.7251
  635MOL0     H85693  11.186   9.655   4.383  0.9787  0.9866  0.2040
  635MOL0     H85694  11.130   9.650   4.546  0.4375  0.5018  0.8052
  635MOL0     H85695  11.419   9.569   4.472 -1.0411 -0.4063 -0.6358
  635MOL0     H85696  11.360   9.592   4.631 -1.5127 -0.7462 -0.2656
  635MOL0     H85697  11.400   9.801   4.403 -1.4819 -1.1252 -0.4519
  635MOL0     H85698  11.501   9.776   4.545 -0.3194  0.9025  0.2633
  635MOL0     H85699  11.218   9.870   4.604  0.6492 -0.9383  1.9855
  635MOL0     H85700  11.376   9.889   4.689 -0.5042  0.9319  0.6282
  635MOL0     H85701  11.312  10.021   4.425  0.9944 -1.9266 -0.9133
  635MOL0     H85702  11.464  10.034   4.512 -0.6048 -0.0651 -2.5195
  635MOL0     H85703  11.335  10.210   4.551  2.2448 -0.4065  0.4353
  635MOL0     H85704  11.198  10.134   4.623 -0.2894 -1.7597 -1.0810
  635MOL0     H85705  10.785   9.386   4.364 -0.1139 -0.4913  2.4072
  635MOL0     H85706  10.589   9.253   4.319 -0.1643 -1.9562 -1.7941
  635MOL0     H85707  10.440   8.621   4.307 -0.1750  1.4260  0.2543
  635MOL0     H85708  10.206   8.555   4.274  1.8376 -0.0905  0.4721
  635MOL0     H85709   8.047   8.068   4.309  3.0628  0.4183 -2.8727
  635MOL0     H85710   7.809   8.143   4.348  0.7197  0.4571  0.4635
  635MOL0     H85711   7.525   8.381   4.677 -0.8111 -0.2996 -0.0408
  635MOL0     H85712   7.297   8.486   4.722 -2.0226  3.3766 -0.0932
  635MOL0     H85713   7.173   8.694   4.768  0.1374  1.5203 -0.5060
  635MOL0     H85714   7.100   8.547   4.718 -1.6041  0.9827  0.7610
  635MOL0     H85715   6.925   8.714   4.775  0.2570 -1.1406  0.0533
  635MOL0     H85716   6.913   8.681   4.601 -1.2182  1.5368 -0.9582
  635MOL0     H85717   6.876   8.895   4.601  0.4943  0.4665  1.6724
  635MOL0     H85718   7.035   8.866   4.535  0.3089 -2.2989 -0.2466
  635MOL0     H85719   7.129   8.972   4.735 -0.0788  3.6506 -0.2462
  635MOL0     H85720   6.986   9.074   4.701  2.0909  1.0981 -1.5564
  635MOL0     H85721   6.880   8.895   5.074 -0.1373  1.8021  1.2713
  635MOL0     H85722   7.294   8.654   4.338 -0.0572  0.0065  0.0000
  635MOL0     H85723   7.603   8.595   4.234  1.0496 -1.4890 -0.9778
  635MOL0     H85724   7.529   8.444   4.182  0.4072  0.6929 -1.3922
  635MOL0     H85725   7.438   8.597   4.174 -0.2123  1.2342  2.0066
  636MOL0     O85726   0.446   9.602  10.878  0.0473  0.5170  0.5415
  636MOL0     C85727   0.401   9.623  10.758  0.4625 -0.4203 -0.4211
  636MOL0     O85728   0.473   9.664  10.648 -0.9087  0.4168  0.4360
  636MOL0     C85729   0.616   9.680  10.664 -0.0689  0.4561  0.1300
  636MOL0     C85730   0.693   9.569  10.690 -0.1955 -0.2475 -0.6875
  636MOL0     C85731   0.823   9.586  10.724 -0.4515 -0.8819  0.7545
  636MOL0     C85732   0.882   9.716  10.734 -0.8571  1.0090  0.3531
  636MOL0     O85733   1.019   9.735  10.761  0.0253 -0.5301 -0.1652
  636MOL0     C85734   1.107   9.630  10.775 -0.3545 -0.1969  0.2659
  636MOL0     C85735   1.249   9.691  10.795  0.8960 -1.0049  1.3246
  636MOL0     C85736   1.268   9.761  10.929  0.0682 -0.3266 -0.3923
  636MOL0     C85737   1.402   9.824  10.958  0.1178 -0.1591 -0.0509
  636MOL0     C85738   1.382   9.876  11.105 -0.7398  0.2095  0.9476
  636MOL0     C85739   1.512   9.943  11.147  0.4060  0.0106  0.1323
  636MOL0     C85740   1.633   9.846  11.142 -0.2632 -0.5214 -0.4452
  636MOL0     C85741   1.749   9.906  11.234 -0.0668 -0.4078  0.8020
  636MOL0     N85742   1.860   9.814  11.246  0.0034  0.3708 -0.3109
  636MOL0     C85743   1.883   9.740  11.356  0.2543  0.4585 -1.0550
  636MOL0     C85744   1.994   9.675  11.335  0.6359  0.3210  0.0430
  636MOL0     C85745   2.078   9.593  11.428  0.0389  0.1482  0.3419
  636MOL0     C85746   2.235   9.596  11.400 -1.2886 -0.5827  0.4066
  636MOL0     C85747   2.286   9.742  11.430 -0.0227  0.2793  0.0934
  636MOL0     C85748   2.440   9.758  11.383  0.3228  0.2066 -0.7001
  636MOL0     O85749   2.518   9.671  11.470  0.6464 -0.4354  0.3334
  636MOL0     C85750   2.653   9.683  11.463 -0.2696  0.7519 -0.2733
  636MOL0     C85751   2.730   9.614  11.557 -0.6307  0.4832  0.0609
  636MOL0     C85752   2.868   9.612  11.554  0.4585 -0.1377 -0.9270
  636MOL0     C85753   2.935   9.684  11.454 -0.0021 -0.9241 -0.1016
  636MOL0     C85754   3.082   9.691  11.453 -0.4969  0.6722  0.2073
  636MOL0     O85755   3.142   9.797  11.392  0.1625 -0.3039 -0.4196
  636MOL0     C85756   3.275   9.831  11.413  0.3502 -0.1141  0.6669
  636MOL0     C85757   3.329   9.911  11.320 -0.7551 -0.7424  0.3642
  636MOL0     C85758   3.458   9.964  11.317  0.2645  0.1511  0.3403
  636MOL0     C85759   3.526   9.927  11.430 -0.5281  0.1295  0.3120
  636MOL0     O85760   3.662   9.964  11.451 -0.0527 -0.2700 -0.0572
  636MOL0     C85761   3.746   9.975  11.334  0.1483 -0.3317  0.2720
  636MOL0     C85762   3.881   9.923  11.367 -1.2408  1.0866 -0.2415
  636MOL0     C85763   3.960  10.009  11.465  0.1070  0.2745  0.1506
  636MOL0     C85764   4.101   9.960  11.478 -1.5284  0.0046 -0.0063
  636MOL0     C85765   4.180  10.019  11.597  0.0239 -0.5753  0.1162
  636MOL0     C85766   4.319   9.952  11.608 -0.0574  0.3864  0.1675
  636MOL0     C85767   4.428  10.008  11.531 -0.4159  0.3760 -0.8468
  636MOL0     C85768   4.560   9.945  11.565 -0.6468  0.0819 -0.0611
  636MOL0    Cl85769   4.586   9.766  11.540  0.4859  0.3772 -0.8570
  636MOL0     C85770   3.483   9.851  11.537  0.6027  0.3704  0.3641
  636MOL0     C85771   3.356   9.802  11.526 -0.6279  0.4871 -0.2063
  636MOL0     O85772   3.143   9.602  11.513 -0.6291 -0.5620  0.1292
  636MOL0     C85773   2.857   9.764  11.367  0.1038 -0.0020 -0.2974
  636MOL0     C85774   2.715   9.769  11.375 -0.5987 -0.1944  0.4153
  636MOL0     N85775   2.033   9.706  11.202  0.0697  0.2822 -0.9682
  636MOL0     N85776   1.955   9.790  11.152  0.2726 -0.0413  0.2353
  636MOL0     C85777   0.802   9.825  10.703  0.4497 -1.0360  0.0341
  636MOL0     C85778   0.676   9.807  10.653 -0.3563  0.1604 -0.6358
  636MOL0     C85779   0.256   9.576  10.742 -0.4146  0.0861 -0.2448
  636MOL0     C85780   0.166   9.578  10.851 -0.5849  0.1850  0.2442
  636MOL0     C85781   0.030   9.526  10.836 -0.1286  0.9116  0.3463
  636MOL0     C85782  -0.009   9.487  10.708 -0.3811  0.4646 -0.2893
  636MOL0     O85783  -0.133   9.440  10.694  0.5874 -0.2680  0.6921
  636MOL0     C85784  -0.226   9.512  10.612  0.0228 -0.7539 -0.4688
  636MOL0     C85785  -0.254   9.649  10.686 -0.6058  1.1128 -0.6315
  636MOL0     C85786  -0.342   9.620  10.808 -0.2415  0.0519  0.3565
  636MOL0     C85787  -0.466   9.531  10.794  0.0908 -0.1392  0.2726
  636MOL0     C85788  -0.551   9.572  10.684  0.6912  0.0968  0.2528
  636MOL0     C85789  -0.636   9.593  10.601 -0.2636 -0.5318  0.4628
  636MOL0     C85790   0.075   9.490  10.600  0.6507  0.9682  0.3819
  636MOL0     C85791   0.206   9.525  10.622  1.0635  0.2076 -0.2138
  636MOL0     C85792   0.295   9.500  10.497 -0.4799  0.0288 -0.3591
  636MOL0     H85793   0.652   9.469  10.692 -1.6060  0.2804 -1.7995
  636MOL0     H85794   0.876   9.498  10.757 -0.7777 -1.6451 -0.6692
  636MOL0     H85795   1.076   9.568  10.860  1.6398 -1.8540 -0.1561
  636MOL0     H85796   1.112   9.564  10.688  2.0010 -0.1985  0.3488
  636MOL0     H85797   1.272   9.767  10.720 -3.1996 -0.1156  0.7372
  636MOL0     H85798   1.317   9.607  10.780 -1.2690 -2.7553  0.6467
  636MOL0     H85799   1.252   9.682  11.003 -0.4732 -2.2788 -2.4908
  636MOL0     H85800   1.190   9.838  10.937  0.6340  0.2016  0.2462
  636MOL0     H85801   1.480   9.751  10.935 -0.8563 -0.6169 -2.1305
  636MOL0     H85802   1.411   9.910  10.891  2.0528 -2.0277 -2.3765
  636MOL0     H85803   1.297   9.945  11.107  0.1907  1.4317  0.0004
  636MOL0     H85804   1.362   9.804  11.184  3.2119  0.3085  2.2395
  636MOL0     H85805   1.518  10.038  11.093  2.2015  0.9256  1.8196
  636MOL0     H85806   1.492   9.964  11.253  1.5577 -2.9159  1.0450
  636MOL0     H85807   1.660   9.840  11.036 -2.0185  1.2024 -1.0313
  636MOL0     H85808   1.608   9.750  11.188  2.7630 -2.3489 -2.2589
  636MOL0     H85809   1.802   9.988  11.182  3.7846 -2.3494  1.2715
  636MOL0     H85810   1.716   9.944  11.331 -1.0401 -1.0233  0.7192
  636MOL0     H85811   1.817   9.743  11.442  1.7716 -1.2859  0.2685
  636MOL0     H85812   2.068   9.606  11.536  1.4026 -0.6554  0.5864
  636MOL0     H85813   2.047   9.488  11.415  1.7094 -0.1427 -2.0029
  636MOL0     H85814   2.277   9.524  11.471 -0.5109 -0.0280  0.5215
  636MOL0     H85815   2.255   9.558  11.299  2.6037 -2.0213  1.5376
  636MOL0     H85816   2.265   9.784  11.529 -2.3785  2.8744 -1.3449
  636MOL0     H85817   2.239   9.810  11.358 -0.3327 -0.1272 -0.0950
  636MOL0     H85818   2.463   9.864  11.378 -1.0595  0.4854 -2.2695
  636MOL0     H85819   2.451   9.702  11.289 -0.7136  0.1584 -0.8096
  636MOL0     H85820   2.676   9.559  11.633 -1.5506  1.1889 -0.0680
  636MOL0     H85821   2.924   9.553  11.626 -2.0797 -1.1200  0.3544
  636MOL0     H85822   3.265   9.941  11.238 -3.0526  0.8497  2.5714
  636MOL0     H85823   3.501  10.019  11.234 -0.5351  2.9120  1.6380
  636MOL0     H85824   3.695   9.924  11.252 -0.0871 -0.5931  0.5765
  636MOL0     H85825   3.753  10.082  11.310  0.0999 -0.5151 -0.6043
  636MOL0     H85826   3.888   9.820  11.403 -0.8155  0.7911 -1.1230
  636MOL0     H85827   3.937   9.913  11.273 -0.5556 -3.0572  0.4142
  636MOL0     H85828   3.956  10.110  11.422 -1.3343  0.8874  1.6372
  636MOL0     H85829   3.915  10.019  11.564  0.2273  1.6081  0.0929
  636MOL0     H85830   4.155   9.982  11.385  2.9182 -1.3608  1.9968
  636MOL0     H85831   4.111   9.852  11.476  0.6871  0.1445  0.7042
  636MOL0     H85832   4.129   9.984  11.687 -0.5413 -0.5237 -0.1741
  636MOL0     H85833   4.181  10.128  11.586  2.7035 -0.6911 -1.6316
  636MOL0     H85834   4.347   9.969  11.712 -1.3621 -2.8497  1.1950
  636MOL0     H85835   4.307   9.845  11.589 -1.3728  0.8437 -2.0119
  636MOL0     H85836   4.428  10.116  11.541 -0.6072  0.1542  2.9821
  636MOL0     H85837   4.410   9.983  11.426  1.1838  1.3875 -1.3909
  636MOL0     H85838   4.629  10.005  11.504 -1.0493 -0.6787 -1.2999
  636MOL0     H85839   4.587   9.971  11.667  0.0968 -2.9791  0.6169
  636MOL0     H85840   3.552   9.812  11.611  2.0190  2.1542  0.0605
  636MOL0     H85841   3.320   9.738  11.607 -2.5381 -1.1849 -2.2470
  636MOL0     H85842   2.908   9.837  11.305 -1.8202  0.6247 -1.1859
  636MOL0     H85843   2.658   9.832  11.307 -1.5337 -2.3784 -0.9237
  636MOL0     H85844   0.844   9.925  10.697  0.2151 -0.7011  2.7835
  636MOL0     H85845   0.621   9.894  10.618 -1.3673 -0.2747 -0.1831
  636MOL0     H85846   0.204   9.610  10.947 -1.1064  2.7638 -0.3408
  636MOL0     H85847  -0.032   9.520  10.925 -0.9527  0.1033 -0.2707
  636MOL0     H85848  -0.322   9.466  10.586  0.6528 -2.8392  0.7184
  636MOL0     H85849  -0.190   9.539  10.512  0.4526  0.8743  0.0829
  636MOL0     H85850  -0.311   9.709  10.613 -0.9128 -1.1450 -2.3569
  636MOL0     H85851  -0.167   9.707  10.718 -0.4227 -0.0177  1.0208
  636MOL0     H85852  -0.371   9.715  10.852  3.6193  1.2282  0.8008
  636MOL0     H85853  -0.267   9.596  10.884 -0.2683  1.4851  0.8590
  636MOL0     H85854  -0.438   9.426  10.783 -0.7699 -0.4252  0.6712
  636MOL0     H85855  -0.526   9.528  10.886  0.4360 -1.1009  0.4753
  636MOL0     H85856  -0.713   9.614  10.529  1.0887 -0.0960 -0.9128
  636MOL0     H85857   0.033   9.458  10.506 -2.0622 -1.1342  2.1331
  636MOL0     H85858   0.329   9.595  10.455 -0.4106 -0.8492 -2.4551
  636MOL0     H85859   0.379   9.435  10.523 -1.8891 -1.2664  1.1557
  636MOL0     H85860   0.246   9.447  10.414  0.0522 -1.0968  0.0198
  637MOL0     O85861   9.641   8.804  10.919 -0.6638  0.2695  0.2023
  637MOL0     C85862   9.649   8.759  11.030  0.6260  0.2862 -0.4064
  637MOL0     O85863   9.754   8.681  11.080  0.9626 -0.0492  0.1578
  637MOL0     C85864   9.871   8.675  11.011  0.3299  0.1504  0.1634
  637MOL0     C85865   9.989   8.730  11.053 -0.3637  0.2453  0.2950
  637MOL0     C85866  10.104   8.707  10.993 -0.6167 -0.1546  0.0263
  637MOL0     C85867  10.111   8.629  10.884  0.1756 -0.0117 -0.1622
  637MOL0     O85868  10.223   8.599  10.814  0.1014 -0.0768  0.1239
  637MOL0     C85869  10.343   8.667  10.851 -0.5946 -0.1006  0.3163
  637MOL0     C85870  10.440   8.668  10.734  0.3299 -0.3170 -0.4448
  637MOL0     C85871  10.404   8.777  10.619  0.3142 -0.6134  0.4116
  637MOL0     C85872  10.413   8.736  10.470 -0.3964  0.3953 -0.4766
  637MOL0     C85873  10.543   8.665  10.423  0.4594  0.5627  0.6298
  637MOL0     C85874  10.668   8.752  10.453 -0.6717 -0.3881  0.2520
  637MOL0     C85875  10.797   8.685  10.401 -0.4080 -0.0504  0.0919
  637MOL0     C85876  10.913   8.738  10.484 -0.7221  0.6792  0.1519
  637MOL0     N85877  11.047   8.685  10.446 -0.0879 -0.4231 -0.4213
  637MOL0     C85878  11.108   8.583  10.514 -0.0664 -0.4645  0.1952
  637MOL0     C85879  11.229   8.587  10.467 -0.6180  0.6340  0.3853
  637MOL0     C85880  11.336   8.479  10.476 -0.0097 -0.3105 -0.5715
  637MOL0     C85881  11.474   8.532  10.465  0.1379  0.7490  0.5767
  637MOL0     C85882  11.574   8.439  10.537 -0.7326  0.5491  0.2743
  637MOL0     C85883  11.722   8.471  10.505  0.3875  0.0965  0.0556
  637MOL0     O85884  11.802   8.416  10.602  0.6451 -0.1687 -0.1659
  637MOL0     C85885  11.934   8.413  10.582 -0.6246  0.9198  0.2016
  637MOL0     C85886  12.006   8.329  10.661 -0.4619 -0.6938 -0.9945
  637MOL0     C85887  12.140   8.303  10.659 -0.0594  0.2243  0.5499
  637MOL0     C85888  12.217   8.388  10.567  0.0721  0.4619  0.2024
  637MOL0     C85889  12.368   8.384  10.566  0.3538  0.5568  0.2221
  637MOL0     O85890  12.433   8.435  10.459 -0.1240  0.1953  1.0431
  637MOL0     C85891  12.570   8.423  10.445  0.0490  0.5018  0.0330
  637MOL0     C85892  12.667   8.381  10.539  0.1574 -0.6174 -0.5765
  637MOL0     C85893  12.800   8.373  10.495 -0.2049 -0.2067 -0.1196
  637MOL0     C85894  12.847   8.400  10.363  0.3445 -0.4815  0.6328
  637MOL0     O85895  12.977   8.387  10.321 -0.3088  0.0306 -0.3481
  637MOL0     C85896  12.995   8.325  10.195 -1.0711  0.2422 -0.5418
  637MOL0     C85897  13.149   8.332  10.179  0.4818 -0.4135 -0.2890
  637MOL0     C85898  13.232   8.291  10.309  0.0125 -0.0913 -0.0998
  637MOL0     C85899  13.202   8.144  10.334  0.0837  0.3082  0.0066
  637MOL0     C85900  13.272   8.093  10.456 -0.4113  0.4382 -0.3845
  637MOL0     C85901  13.424   8.085  10.447 -0.1906  0.9000 -0.3328
  637MOL0     C85902  13.473   8.068  10.594  0.2137  0.4086 -0.0287
  637MOL0     C85903  13.626   8.082  10.609 -1.3977  0.0593 -0.5186
  637MOL0    Cl85904  13.691   8.067  10.788  0.3547  0.0314  0.6909
  637MOL0     C85905  12.745   8.441  10.272 -0.1362  0.1155 -0.3518
  637MOL0     C85906  12.614   8.451  10.315 -0.6538 -0.5421  0.6091
  637MOL0     O85907  12.418   8.311  10.655  0.4483  0.6272 -0.4639
  637MOL0     C85908  12.153   8.472  10.470  0.3626 -0.1176  0.7285
  637MOL0     C85909  12.016   8.481  10.477  0.8479 -0.0155 -0.9548
  637MOL0     N85910  11.245   8.696  10.388  0.0567 -0.0126 -0.8025
  637MOL0     N85911  11.133   8.749  10.370 -0.1246  0.1132  0.2975
  637MOL0     C85912   9.993   8.573  10.832 -0.0949 -0.1809 -0.5006
  637MOL0     C85913   9.873   8.606  10.893 -0.8745  0.3776  0.7401
  637MOL0     C85914   9.528   8.772  11.123  0.2149  0.3541  0.1558
  637MOL0     C85915   9.399   8.787  11.068  1.7508  0.1061  0.5329
  637MOL0     C85916   9.288   8.789  11.155 -0.8098  0.2809 -0.2224
  637MOL0     C85917   9.303   8.778  11.295  0.1114 -0.2482 -0.1706
  637MOL0     O85918   9.186   8.800  11.370 -0.2734  0.2727  0.3466
  637MOL0     C85919   9.200   8.801  11.515 -0.0706  0.1597  0.4868
  637MOL0     C85920   9.068   8.844  11.581 -0.7643 -0.2761  0.7407
  637MOL0     C85921   8.941   8.773  11.536 -0.3029  0.2911  1.1456
  637MOL0     C85922   8.943   8.635  11.592 -0.0569 -0.1046  0.0520
  637MOL0     C85923   8.811   8.572  11.570 -0.3040 -0.5758  0.6744
  637MOL0     C85924   8.704   8.517  11.566 -0.8138  0.5577 -0.8075
  637MOL0     C85925   9.431   8.771  11.346 -0.3344  0.5164 -0.2317
  637MOL0     C85926   9.545   8.781  11.265  0.1872 -0.2697 -0.1757
  637MOL0     C85927   9.680   8.779  11.349  0.7779  0.3994 -0.0523
  637MOL0     H85928   9.975   8.792  11.141  0.6186  0.3138  0.4181
  637MOL0     H85929  10.193   8.749  11.038 -2.5520  1.7408  2.3219
  637MOL0     H85930  10.333   8.771  10.882  0.8148  0.3164 -0.5210
  637MOL0     H85931  10.397   8.620  10.935 -0.8941  0.0643  0.6021
  637MOL0     H85932  10.439   8.572  10.682 -0.5974  0.2250 -1.4550
  637MOL0     H85933  10.543   8.680  10.767 -0.2195 -1.9194  2.1430
  637MOL0     H85934  10.472   8.860  10.640 -1.6489  0.6036  2.3670
  637MOL0     H85935  10.299   8.807  10.624  0.4403 -0.4355  3.1642
  637MOL0     H85936  10.329   8.669  10.449 -0.0562  0.0436 -0.7455
  637MOL0     H85937  10.397   8.826  10.410  0.2144  1.9855  1.6415
  637MOL0     H85938  10.544   8.567  10.473 -0.8849  1.2956  2.2014
  637MOL0     H85939  10.538   8.638  10.317  2.9594  0.7612  0.4125
  637MOL0     H85940  10.667   8.846  10.396  1.2970 -0.4950 -0.0251
  637MOL0     H85941  10.679   8.776  10.559  0.6789  0.1510  0.0068
  637MOL0     H85942  10.813   8.722  10.300 -2.7039 -1.7122 -0.9999
  637MOL0     H85943  10.781   8.576  10.396  1.3211 -0.2986 -0.7427
  637MOL0     H85944  10.925   8.847  10.479  3.7798  0.3096 -1.2729
  637MOL0     H85945  10.893   8.718  10.590  2.9641 -2.1010  0.4975
  637MOL0     H85946  11.062   8.520  10.590  1.7392  2.2372  3.8109
  637MOL0     H85947  11.323   8.423  10.569 -1.0261 -2.0213 -1.7028
  637MOL0     H85948  11.313   8.405  10.399  1.0598  0.7509 -1.9746
  637MOL0     H85949  11.502   8.555  10.362 -0.1944 -2.0719 -0.2374
  637MOL0     H85950  11.484   8.627  10.519 -0.2994  0.1653  1.6983
  637MOL0     H85951  11.554   8.336  10.504  1.4770  0.1712 -0.0823
  637MOL0     H85952  11.566   8.446  10.646  0.0509  3.0367  0.2360
  637MOL0     H85953  11.730   8.579  10.512 -0.0510  0.0345  2.2513
  637MOL0     H85954  11.744   8.440  10.403 -1.4357 -0.2350 -0.2734
  637MOL0     H85955  11.953   8.274  10.738  2.6730 -0.6863  1.3589
  637MOL0     H85956  12.193   8.227  10.716  0.0804  0.5330  0.8391
  637MOL0     H85957  12.641   8.361  10.643 -1.2051 -0.2339 -0.8236
  637MOL0     H85958  12.874   8.331  10.562 -2.0163 -3.0656  0.2475
  637MOL0     H85959  12.957   8.224  10.177 -3.8179  0.5003  2.7489
  637MOL0     H85960  12.954   8.387  10.115  0.2328  2.8205  0.6469
  637MOL0     H85961  13.206   8.277  10.103  3.0782  0.8156  0.6295
  637MOL0     H85962  13.170   8.436  10.156  1.5912 -0.4559  0.4125
  637MOL0     H85963  13.333   8.319  10.277 -1.0216  1.4099 -2.3503
  637MOL0     H85964  13.194   8.358  10.387  1.2932 -0.4536  0.8699
  637MOL0     H85965  13.234   8.078  10.253 -1.3708 -0.8207  0.2969
  637MOL0     H85966  13.095   8.127  10.347 -0.3239  1.3376 -1.7272
  637MOL0     H85967  13.236   7.992  10.480 -0.3529  0.6280  0.5218
  637MOL0     H85968  13.238   8.153  10.540 -0.5338 -3.3057  2.4986
  637MOL0     H85969  13.450   8.005  10.378  0.2419 -2.1545  3.0401
  637MOL0     H85970  13.459   8.183  10.413  1.2833  0.7787  0.7347
  637MOL0     H85971  13.437   7.972  10.634  2.0450  0.5018  2.0233
  637MOL0     H85972  13.416   8.142  10.651 -1.7100 -1.1708  0.2251
  637MOL0     H85973  13.678   7.998  10.562  0.1420  1.2333 -0.9627
  637MOL0     H85974  13.659   8.176  10.564  0.4094  0.7053  1.9361
  637MOL0     H85975  12.781   8.472  10.175  4.9323  0.7595  1.4119
  637MOL0     H85976  12.534   8.482  10.248 -1.5324 -0.5303  1.6302
  637MOL0     H85977  12.205   8.533  10.397 -0.8967 -1.5688 -1.5256
  637MOL0     H85978  11.967   8.543  10.403 -1.5821  1.7358  1.8844
  637MOL0     H85979   9.994   8.513  10.742 -1.3863  1.0959 -1.4124
  637MOL0     H85980   9.783   8.579  10.839 -0.2657  0.8791 -0.5820
  637MOL0     H85981   9.394   8.777  10.960  1.3392 -3.3189  0.7801
  637MOL0     H85982   9.184   8.799  11.128 -2.3976 -2.8455  3.7126
  637MOL0     H85983   9.285   8.865  11.542  0.3837 -0.8349  1.4976
  637MOL0     H85984   9.227   8.700  11.546 -0.6192 -0.9667 -2.4157
  637MOL0     H85985   9.064   8.952  11.563  1.3804 -0.3518 -0.5605
  637MOL0     H85986   9.071   8.820  11.687  1.1476  1.0321  1.0200
  637MOL0     H85987   8.932   8.783  11.427  2.7980 -1.4697  0.6245
  637MOL0     H85988   8.859   8.830  11.580 -1.4721 -0.5132  0.0678
  637MOL0     H85989   9.017   8.578  11.534 -0.7273 -1.6981  0.7026
  637MOL0     H85990   8.969   8.640  11.698 -1.0561  2.0332  0.2528
  637MOL0     H85991   8.614   8.459  11.558 -1.2532  1.4070 -2.3411
  637MOL0     H85992   9.445   8.760  11.453 -1.0716 -0.7693 -0.2530
  637MOL0     H85993   9.658   8.820  11.448  0.1892 -0.9540  0.3932
  637MOL0     H85994   9.724   8.681  11.366 -3.1932 -1.3641  1.3083
  637MOL0     H85995   9.759   8.831  11.294  1.0757 -0.1919 -0.1835
  638MOL0     O85996   0.571   3.378   0.560  0.0993 -0.1013  0.1066
  638MOL0     C85997   0.517   3.448   0.467 -0.3061 -0.1028 -0.2454
  638MOL0     O85998   0.556   3.577   0.437  0.0241 -0.2714 -1.0866
  638MOL0     C85999   0.665   3.624   0.506  0.7064  0.1104  0.0209
  638MOL0     C86000   0.645   3.742   0.587  0.8060 -0.2139 -0.6627
  638MOL0     C86001   0.763   3.808   0.635 -0.6612  0.6052 -0.4440
  638MOL0     C86002   0.894   3.748   0.620  1.7989 -0.8436 -0.0985
  638MOL0     O86003   1.013   3.796   0.678  0.1616  0.6258 -0.5475
  638MOL0     C86004   1.034   3.935   0.713  0.4728  0.3247 -0.8746
  638MOL0     C86005   1.041   3.964   0.863 -0.3683  0.2243  0.4242
  638MOL0     C86006   0.915   3.954   0.935  0.5557 -0.2513  0.0687
  638MOL0     C86007   0.944   3.991   1.079  0.0093 -0.0188 -0.0579
  638MOL0     C86008   1.015   3.886   1.167 -0.2305 -0.7321 -0.2680
  638MOL0     C86009   1.014   3.899   1.310 -0.1437  0.1534 -0.3649
  638MOL0     C86010   1.122   3.809   1.388  0.1449  0.3377 -0.1329
  638MOL0     C86011   1.263   3.851   1.375  0.0417 -0.5016  0.0915
  638MOL0     N86012   1.355   3.821   1.482  0.7540 -0.7105 -0.0779
  638MOL0     C86013   1.495   3.800   1.463  0.9250 -0.5312 -0.3207
  638MOL0     C86014   1.537   3.798   1.588  0.5208  0.5372  0.0637
  638MOL0     C86015   1.675   3.779   1.631  0.1057  0.5135  0.2134
  638MOL0     C86016   1.774   3.892   1.589  0.0749  0.3607  0.3650
  638MOL0     C86017   1.916   3.877   1.644 -0.6602  0.0200 -0.7460
  638MOL0     C86018   2.005   3.996   1.615  0.0823  0.6398 -0.5037
  638MOL0     O86019   2.123   3.976   1.688  0.0705 -0.7350 -0.0322
  638MOL0     C86020   2.228   4.063   1.663 -0.5422 -1.3178  0.8076
  638MOL0     C86021   2.336   4.009   1.592 -0.2951  0.5398  0.3458
  638MOL0     C86022   2.443   4.088   1.560 -0.5233 -0.2523 -0.8382
  638MOL0     C86023   2.450   4.232   1.585 -0.0202  0.6315 -0.0005
  638MOL0     C86024   2.562   4.309   1.532  0.0055  0.0607  1.1877
  638MOL0     O86025   2.558   4.447   1.560  0.2087 -0.5658 -0.6606
  638MOL0     C86026   2.659   4.540   1.547  0.1223  0.0570 -0.8527
  638MOL0     C86027   2.779   4.519   1.473  0.5179 -0.0727  0.1443
  638MOL0     C86028   2.866   4.625   1.456 -0.2826  0.3462 -0.3443
  638MOL0     C86029   2.845   4.757   1.505 -0.0242  0.6057 -1.0776
  638MOL0     O86030   2.937   4.855   1.477 -0.8185 -0.6609  0.2689
  638MOL0     C86031   2.903   4.988   1.528 -0.0708 -0.4907 -0.2695
  638MOL0     C86032   2.997   5.103   1.482 -0.4272 -0.1604 -0.0721
  638MOL0     C86033   2.940   5.247   1.514  0.2588 -0.2756 -0.5278
  638MOL0     C86034   3.042   5.361   1.497 -0.3488 -0.5902 -0.2649
  638MOL0     C86035   3.026   5.479   1.599 -0.5298  0.0325  0.2545
  638MOL0     C86036   3.127   5.597   1.590 -0.0905 -0.2121 -0.5151
  638MOL0     C86037   3.130   5.664   1.454 -0.2054 -0.4918 -0.0989
  638MOL0     C86038   3.216   5.785   1.474  0.2317 -0.3262 -0.2713
  638MOL0    Cl86039   3.119   5.920   1.525  0.0481  0.5225  0.3880
  638MOL0     C86040   2.719   4.774   1.577  0.2255  0.0265  0.6085
  638MOL0     C86041   2.629   4.668   1.594 -0.2759 -0.4307  0.2069
  638MOL0     O86042   2.630   4.258   1.442  0.0219  0.4916  0.7375
  638MOL0     C86043   2.344   4.291   1.651  0.1315  0.6156  0.5363
  638MOL0     C86044   2.231   4.211   1.676  1.1598 -0.1252 -0.0448
  638MOL0     N86045   1.439   3.813   1.683  0.0508 -0.1261 -0.6626
  638MOL0     N86046   1.327   3.827   1.619 -0.5236  0.2638 -0.5042
  638MOL0     C86047   0.893   3.631   0.550  0.1218  0.8963 -1.0183
  638MOL0     C86048   0.782   3.567   0.496 -0.8566 -0.4679 -0.0642
  638MOL0     C86049   0.378   3.410   0.415  0.5027  0.5573  0.2904
  638MOL0     C86050   0.291   3.505   0.356  0.4305 -0.7645  0.6931
  638MOL0     C86051   0.164   3.470   0.319  0.6594 -0.6695 -0.9812
  638MOL0     C86052   0.108   3.339   0.324 -0.4990  0.6125  0.0103
  638MOL0     O86053  -0.016   3.293   0.282 -0.8312 -0.4710  0.3919
  638MOL0     C86054  -0.083   3.358   0.178  0.6192 -0.6566  0.3837
  638MOL0     C86055  -0.154   3.484   0.231 -0.7801 -0.8779  1.1064
  638MOL0     C86056  -0.290   3.498   0.164 -0.2624  0.0442 -0.0503
  638MOL0     C86057  -0.372   3.611   0.231  0.0726 -0.0957 -0.4941
  638MOL0     C86058  -0.472   3.665   0.126 -0.4697  0.0650 -1.0013
  638MOL0     C86059  -0.553   3.696   0.044 -0.3579  0.8187  0.1530
  638MOL0     C86060   0.186   3.243   0.395 -0.2504 -0.3910  0.4521
  638MOL0     C86061   0.320   3.276   0.442  0.3236 -0.4684  0.3626
  638MOL0     C86062   0.408   3.155   0.491  0.5175 -0.5211 -0.1010
  638MOL0     H86063   0.543   3.776   0.606  0.9181 -0.9462  1.4913
  638MOL0     H86064   0.754   3.902   0.689  1.3556  0.7684 -0.3116
  638MOL0     H86065   1.133   3.973   0.687  1.3650 -0.6139  0.9225
  638MOL0     H86066   0.966   4.010   0.673  2.0829  1.7451 -1.0484
  638MOL0     H86067   1.085   4.062   0.880 -2.2457  0.9123  1.5888
  638MOL0     H86068   1.107   3.881   0.892 -0.4610 -0.0992 -0.2839
  638MOL0     H86069   0.880   3.850   0.930  0.2621 -0.2032  0.9170
  638MOL0     H86070   0.842   4.026   0.898  0.9735 -0.0537 -0.3670
  638MOL0     H86071   0.995   4.087   1.091 -0.4765  0.0448  1.8942
  638MOL0     H86072   0.842   3.996   1.119  0.5471 -2.9154  1.9738
  638MOL0     H86073   0.978   3.784   1.152 -0.2567 -0.9058  0.9077
  638MOL0     H86074   1.116   3.885   1.125 -0.7718  0.6709 -1.7317
  638MOL0     H86075   1.041   4.002   1.338 -0.0058 -0.1628  0.6984
  638MOL0     H86076   0.915   3.882   1.353 -1.7992 -0.0465 -3.8543
  638MOL0     H86077   1.115   3.701   1.376  0.3607  0.3077  0.0047
  638MOL0     H86078   1.104   3.811   1.496  2.7125 -2.2989  0.4547
  638MOL0     H86079   1.303   3.800   1.287 -1.5435 -1.9593  0.1595
  638MOL0     H86080   1.266   3.960   1.363  0.2211 -0.5989 -0.8238
  638MOL0     H86081   1.554   3.797   1.372  1.0134  0.9865 -0.3489
  638MOL0     H86082   1.676   3.761   1.739  0.6887 -0.2521  0.0859
  638MOL0     H86083   1.707   3.686   1.584 -3.0247  0.7001 -2.6455
  638MOL0     H86084   1.785   3.882   1.480  0.6107 -0.9592  0.5299
  638MOL0     H86085   1.729   3.990   1.609 -4.1997 -1.5929  1.5346
  638MOL0     H86086   1.971   3.785   1.619  1.9777  0.9118  1.3004
  638MOL0     H86087   1.903   3.871   1.752 -3.1049  0.3707 -0.9846
  638MOL0     H86088   1.961   4.092   1.644  1.6791  1.7003 -1.4395
  638MOL0     H86089   2.032   3.996   1.509 -0.6690 -1.1721 -0.7356
  638MOL0     H86090   2.328   3.902   1.576  1.8412  0.6724 -2.4561
  638MOL0     H86091   2.535   4.051   1.515  1.4819  0.1579  2.6244
  638MOL0     H86092   2.817   4.423   1.437  1.0836  0.5508 -0.9796
  638MOL0     H86093   2.952   4.605   1.393 -1.0413  1.2752 -1.7373
  638MOL0     H86094   2.801   5.020   1.504  0.5482  1.8368 -0.0714
  638MOL0     H86095   2.902   4.990   1.637  0.0541  3.0936 -0.2032
  638MOL0     H86096   3.083   5.086   1.547  1.3077 -1.1392 -2.5037
  638MOL0     H86097   3.020   5.092   1.376 -0.9562 -0.7494 -0.1342
  638MOL0     H86098   2.849   5.269   1.457  0.6696  0.6035 -0.8532
  638MOL0     H86099   2.896   5.255   1.614  0.1036 -1.0804 -0.5229
  638MOL0     H86100   3.036   5.403   1.396  0.9254 -1.9800 -0.9670
  638MOL0     H86101   3.143   5.319   1.503  0.0365  0.1692 -1.1458
  638MOL0     H86102   3.038   5.445   1.702 -0.3616  0.0936  0.2557
  638MOL0     H86103   2.928   5.523   1.580 -0.7322 -1.6195 -3.3351
  638MOL0     H86104   3.102   5.678   1.659  2.2386  0.1885 -0.0629
  638MOL0     H86105   3.225   5.552   1.611 -0.2827  0.5570  2.6073
  638MOL0     H86106   3.032   5.702   1.422 -1.1587 -1.1800  1.8379
  638MOL0     H86107   3.190   5.607   1.382 -1.0662 -0.4665 -0.8540
  638MOL0     H86108   3.295   5.775   1.549  0.0281  1.1546  0.1878
  638MOL0     H86109   3.260   5.822   1.381 -1.9663 -1.3793 -1.8033
  638MOL0     H86110   2.681   4.866   1.620 -0.9775 -0.6164  0.9663
  638MOL0     H86111   2.525   4.687   1.619 -0.8229 -0.5333 -1.7757
  638MOL0     H86112   2.345   4.394   1.685  0.9157  0.5154  0.8336
  638MOL0     H86113   2.149   4.257   1.730  1.4747 -0.1298  0.4463
  638MOL0     H86114   0.984   3.574   0.555  0.4926  1.4302 -1.4389
  638MOL0     H86115   0.791   3.472   0.446 -2.7863 -0.6434 -0.1619
  638MOL0     H86116   0.323   3.609   0.351  0.7276 -0.8247  1.2242
  638MOL0     H86117   0.097   3.546   0.281 -1.4910 -1.8067  0.3630
  638MOL0     H86118  -0.152   3.279   0.148  1.6264 -1.8234  1.0517
  638MOL0     H86119  -0.018   3.394   0.098 -1.9143  1.1424 -0.9977
  638MOL0     H86120  -0.095   3.574   0.215 -0.7094 -1.2846 -1.3510
  638MOL0     H86121  -0.173   3.466   0.338 -1.1366 -2.8621  0.7532
  638MOL0     H86122  -0.352   3.407   0.165 -0.1085 -0.0601  1.7672
  638MOL0     H86123  -0.274   3.529   0.060 -1.6644 -0.4360 -0.4457
  638MOL0     H86124  -0.425   3.566   0.316 -0.5182  0.9173 -0.3199
  638MOL0     H86125  -0.311   3.693   0.270 -0.2755 -0.8635  1.8849
  638MOL0     H86126  -0.619   3.730  -0.033 -0.7542  0.3708  0.2838
  638MOL0     H86127   0.140   3.145   0.405 -2.3003  0.5539  0.7972
  638MOL0     H86128   0.507   3.170   0.446  0.6108 -0.7051  0.0437
  638MOL0     H86129   0.406   3.155   0.601  2.4130 -0.7885 -0.0376
  638MOL0     H86130   0.379   3.055   0.459  1.5908 -0.7267 -0.4516
  639MOL0     O86131   0.791   2.923   2.238  0.4520  0.3649 -0.6421
  639MOL0     C86132   0.697   2.857   2.294  0.6040  0.2109  0.3468
  639MOL0     O86133   0.686   2.829   2.428  0.1105  0.2624  0.6145
  639MOL0     C86134   0.773   2.895   2.512 -0.0564 -0.2704  0.1065
  639MOL0     C86135   0.911   2.868   2.506 -1.1602  0.1528  0.8322
  639MOL0     C86136   0.996   2.942   2.594 -0.0898  0.3270  0.1366
  639MOL0     C86137   0.944   3.022   2.698 -0.2236  0.1425 -0.5192
  639MOL0     O86138   1.016   3.084   2.797 -0.0481 -0.5513  0.2429
  639MOL0     C86139   1.157   3.081   2.782 -0.5826 -0.0204 -0.7869
  639MOL0     C86140   1.227   3.157   2.896 -0.6149 -0.4357  0.1739
  639MOL0     C86141   1.375   3.147   2.880 -0.1639  0.3549  0.5820
  639MOL0     C86142   1.432   3.011   2.924 -0.9256 -0.2500  0.0213
  639MOL0     C86143   1.587   3.012   2.915 -0.8850  0.4999  0.1367
  639MOL0     C86144   1.632   3.010   2.770  0.6210 -0.9022 -0.9111
  639MOL0     C86145   1.782   2.988   2.762 -0.2976  0.3432  0.2396
  639MOL0     C86146   1.822   2.953   2.622  0.3760  0.3709  0.0833
  639MOL0     N86147   1.965   2.959   2.598 -0.0517  0.1514  0.3882
  639MOL0     C86148   2.050   3.074   2.599  0.0746 -0.3502 -0.3451
  639MOL0     C86149   2.174   3.021   2.577 -0.6282 -1.1813  0.0867
  639MOL0     C86150   2.298   3.102   2.584 -0.7843 -0.0643  0.2154
  639MOL0     C86151   2.380   3.073   2.460  0.0578  0.5446 -0.4225
  639MOL0     C86152   2.509   3.155   2.472 -0.4023  0.8496  0.1042
  639MOL0     C86153   2.582   3.164   2.336  0.1786 -0.5459  0.2828
  639MOL0     O86154   2.674   3.269   2.340 -0.6527 -0.3811 -0.7954
  639MOL0     C86155   2.765   3.302   2.245 -0.2047 -0.1389 -0.6951
  639MOL0     C86156   2.769   3.239   2.119 -0.2898 -0.3164  0.5309
  639MOL0     C86157   2.873   3.269   2.031 -0.1241  0.4711  0.1919
  639MOL0     C86158   2.965   3.365   2.061  0.1061 -0.0189 -0.3069
  639MOL0     C86159   3.058   3.416   1.950  0.9440  0.2960  0.0527
  639MOL0     O86160   3.060   3.353   1.827 -0.0983  0.6229  0.7035
  639MOL0     C86161   3.141   3.390   1.723 -0.1265 -0.7717 -0.0196
  639MOL0     C86162   3.276   3.434   1.733 -0.5094 -0.1113 -0.5026
  639MOL0     C86163   3.343   3.488   1.616  0.8465 -0.2469  0.6176
  639MOL0     C86164   3.269   3.491   1.494 -0.0298 -0.3218  0.2377
  639MOL0     O86165   3.334   3.529   1.384  0.3012  0.2809 -0.3519
  639MOL0     C86166   3.457   3.611   1.391  0.4347  0.4794  0.1609
  639MOL0     C86167   3.583   3.515   1.375  1.7789 -0.0560 -0.3415
  639MOL0     C86168   3.719   3.575   1.372 -0.1898  0.2697  0.2294
  639MOL0     C86169   3.823   3.501   1.281  0.1303  0.1155 -0.2496
  639MOL0     C86170   3.973   3.543   1.312  0.8487  0.0231 -0.1497
  639MOL0     C86171   3.993   3.684   1.275 -0.0985 -0.1744 -0.0034
  639MOL0     C86172   4.136   3.739   1.257 -0.0459 -0.9384  0.0569
  639MOL0     C86173   4.240   3.660   1.347 -0.2575 -0.1243  0.0588
  639MOL0    Cl86174   4.330   3.527   1.279 -0.2197 -0.4983  0.1513
  639MOL0     C86175   3.142   3.427   1.492  0.9655 -0.6760  0.2798
  639MOL0     C86176   3.074   3.392   1.605 -0.5884  0.6664  0.4479
  639MOL0     O86177   3.137   3.502   1.981  0.4933  0.6927 -0.3422
  639MOL0     C86178   2.966   3.424   2.188 -0.2340  0.2858  0.8386
  639MOL0     C86179   2.870   3.390   2.278  0.2623  0.1945  0.1153
  639MOL0     N86180   2.169   2.886   2.560 -0.0275 -0.0266 -0.9638
  639MOL0     N86181   2.046   2.853   2.585  0.5252  0.1640  0.7083
  639MOL0     C86182   0.807   3.045   2.696  0.0914 -1.3038  0.5502
  639MOL0     C86183   0.726   2.992   2.595  0.1080 -0.4651 -0.7682
  639MOL0     C86184   0.590   2.805   2.202  0.1026  0.0962 -1.0563
  639MOL0     C86185   0.462   2.765   2.254 -0.1646  0.1727 -1.1247
  639MOL0     C86186   0.362   2.709   2.175  0.7239 -0.5639  0.5163
  639MOL0     C86187   0.376   2.693   2.037 -0.5121 -1.2658 -0.3235
  639MOL0     O86188   0.269   2.637   1.969  0.1281  0.2359 -0.0641
  639MOL0     C86189   0.278   2.628   1.822  1.1229  0.6313 -0.5364
  639MOL0     C86190   0.137   2.587   1.762 -0.1932  0.2701  0.3060
  639MOL0     C86191   0.129   2.587   1.610 -0.7540 -0.1555  0.3951
  639MOL0     C86192  -0.016   2.593   1.569  0.8570 -0.0209 -0.5058
  639MOL0     C86193  -0.076   2.460   1.583  0.2785 -1.1109 -0.4705
  639MOL0     C86194  -0.124   2.351   1.603 -0.7546 -0.3060  0.5180
  639MOL0     C86195   0.505   2.732   1.989 -0.4088 -0.3313 -0.4803
  639MOL0     C86196   0.607   2.786   2.069 -0.0967 -0.4149  1.1019
  639MOL0     C86197   0.737   2.814   1.989  0.8210  0.3261 -1.2379
  639MOL0     H86198   0.952   2.807   2.427 -1.0044 -0.0428  1.0615
  639MOL0     H86199   1.103   2.931   2.577 -0.4395  0.6919 -2.8849
  639MOL0     H86200   1.204   2.982   2.787  1.7139  0.9405 -1.9864
  639MOL0     H86201   1.183   3.135   2.691 -1.4417  1.1927 -0.3418
  639MOL0     H86202   1.193   3.132   2.996  0.7188 -4.6634 -0.2392
  639MOL0     H86203   1.203   3.262   2.876 -0.0166 -0.5235 -1.1486
  639MOL0     H86204   1.429   3.222   2.939  2.7417 -2.2124  1.4888
  639MOL0     H86205   1.393   3.155   2.772 -1.2897  0.0266  0.3588
  639MOL0     H86206   1.403   2.989   3.027  1.6754 -0.7044  0.7234
  639MOL0     H86207   1.398   2.935   2.852 -1.9932  1.8448 -1.7844
  639MOL0     H86208   1.628   3.096   2.971  0.7088 -0.0893 -0.0761
  639MOL0     H86209   1.616   2.913   2.952 -2.7533 -0.6702 -1.3561
  639MOL0     H86210   1.568   2.940   2.716 -0.6202 -2.5424  2.4378
  639MOL0     H86211   1.604   3.108   2.730 -2.2115 -1.6906 -1.1336
  639MOL0     H86212   1.813   2.905   2.828 -0.0800  0.8628  0.8026
  639MOL0     H86213   1.839   3.077   2.789  1.0641 -0.8566  1.5073
  639MOL0     H86214   1.781   2.853   2.605 -1.8815  1.3078 -0.3291
  639MOL0     H86215   1.763   3.013   2.552 -0.3693  2.3583  2.3048
  639MOL0     H86216   2.009   3.175   2.608 -0.5002 -0.5820 -0.2837
  639MOL0     H86217   2.266   3.206   2.599 -0.7224 -0.2440  1.8056
  639MOL0     H86218   2.363   3.075   2.668 -2.1413 -0.6329  1.1213
  639MOL0     H86219   2.403   2.967   2.450  1.0187  0.8003 -1.0500
  639MOL0     H86220   2.325   3.103   2.370  1.0031  3.2265 -0.1911
  639MOL0     H86221   2.566   3.117   2.557  1.5848  1.9733 -0.6663
  639MOL0     H86222   2.476   3.256   2.498  1.4106  1.8767 -1.3756
  639MOL0     H86223   2.509   3.180   2.256 -0.0341 -3.1694 -0.1455
  639MOL0     H86224   2.629   3.069   2.307 -0.2096 -0.6902  0.1275
  639MOL0     H86225   2.700   3.159   2.095 -0.0257 -0.1725 -0.7492
  639MOL0     H86226   2.878   3.207   1.942  0.0779 -3.3453  2.6122
  639MOL0     H86227   3.331   3.437   1.826 -2.6944  2.5301  0.8623
  639MOL0     H86228   3.446   3.521   1.628  1.2052 -1.4645  0.9559
  639MOL0     H86229   3.467   3.672   1.300  1.2230 -0.4571 -0.3988
  639MOL0     H86230   3.469   3.678   1.477 -0.2705  0.0450  0.6052
  639MOL0     H86231   3.586   3.441   1.456  0.2951 -1.1420 -1.2169
  639MOL0     H86232   3.568   3.452   1.287 -0.4559 -2.0358  1.3112
  639MOL0     H86233   3.707   3.673   1.324 -1.2834 -0.2081 -0.5040
  639MOL0     H86234   3.766   3.574   1.471  0.1516  0.0966  0.0684
  639MOL0     H86235   3.800   3.517   1.176 -1.9818  2.0420  0.4053
  639MOL0     H86236   3.814   3.393   1.288  0.3625  0.1240  0.2666
  639MOL0     H86237   4.050   3.487   1.258  1.8608  2.0817 -0.9609
  639MOL0     H86238   3.983   3.529   1.420  2.1578 -2.2125 -0.5074
  639MOL0     H86239   3.949   3.696   1.176  1.0443 -0.8927 -0.6188
  639MOL0     H86240   3.944   3.749   1.347  1.2936 -1.1446  1.9281
  639MOL0     H86241   4.132   3.844   1.287  1.6156 -0.2893 -1.7759
  639MOL0     H86242   4.174   3.740   1.155  2.7626 -1.3192  1.0269
  639MOL0     H86243   4.317   3.734   1.372  0.3473 -0.7920  0.2063
  639MOL0     H86244   4.194   3.619   1.437 -0.9922 -2.0557 -1.1538
  639MOL0     H86245   3.099   3.400   1.396  1.2688 -0.8792  0.1997
  639MOL0     H86246   2.970   3.362   1.603 -0.2705 -0.4310 -1.3266
  639MOL0     H86247   3.043   3.496   2.214  1.7199 -1.2469 -0.3314
  639MOL0     H86248   2.881   3.436   2.375 -0.3151  3.5770 -1.3029
  639MOL0     H86249   0.768   3.111   2.772  0.0077 -0.2014 -0.4195
  639MOL0     H86250   0.621   3.020   2.592  0.5029  1.7450  1.8535
  639MOL0     H86251   0.456   2.773   2.362  3.7009 -2.2202 -0.5369
  639MOL0     H86252   0.266   2.675   2.214  2.1994 -1.4506  3.7187
  639MOL0     H86253   0.344   2.546   1.795 -0.0643 -1.4591  2.3587
  639MOL0     H86254   0.300   2.721   1.768 -2.9479  1.7730 -0.5906
  639MOL0     H86255   0.062   2.659   1.795  2.2886  2.3889  1.7237
  639MOL0     H86256   0.110   2.486   1.792 -2.0171  0.4429 -0.6367
  639MOL0     H86257   0.178   2.497   1.575 -0.4581  0.5597 -1.1154
  639MOL0     H86258   0.176   2.676   1.567 -1.7666 -1.4654 -3.9005
  639MOL0     H86259  -0.078   2.670   1.616  1.1247 -0.0103 -0.1609
  639MOL0     H86260  -0.018   2.616   1.462 -2.3470  2.7355 -0.0054
  639MOL0     H86261  -0.177   2.261   1.627 -0.6468 -0.1969  1.1905
  639MOL0     H86262   0.518   2.732   1.881 -2.0119  1.5405 -0.7116
  639MOL0     H86263   0.749   2.920   1.962 -0.8462  1.0225  0.5071
  639MOL0     H86264   0.830   2.790   2.040  1.0364 -0.7318 -2.0949
  639MOL0     H86265   0.729   2.769   1.889  0.7733  0.8031 -1.4535
  640MOL0     O86266   8.385  10.728   0.699 -0.2185 -0.2970  0.1902
  640MOL0     C86267   8.350  10.610   0.714 -0.6025 -0.1015 -0.9613
  640MOL0     O86268   8.412  10.522   0.794 -0.3525 -0.0412 -0.1878
  640MOL0     C86269   8.525  10.573   0.860 -0.8640  0.3245 -0.8838
  640MOL0     C86270   8.528  10.602   0.999 -0.1735  0.1485 -1.2083
  640MOL0     C86271   8.645  10.628   1.062 -1.2260 -0.3730  0.0392
  640MOL0     C86272   8.763  10.645   0.996  0.1709  0.0749 -0.2188
  640MOL0     O86273   8.870  10.675   1.072  0.3952 -0.3745 -0.0725
  640MOL0     C86274   9.006  10.664   1.025  0.8619  0.1787 -0.3141
  640MOL0     C86275   9.094  10.596   1.129  0.5077  0.7985 -0.9206
  640MOL0     C86276   9.083  10.635   1.276 -0.0309 -0.3327  0.2654
  640MOL0     C86277   9.215  10.618   1.361  0.0711 -0.0831 -0.7555
  640MOL0     C86278   9.306  10.740   1.367  0.1593 -0.0314  0.1555
  640MOL0     C86279   9.444  10.710   1.429  0.0266  0.6983  0.0356
  640MOL0     C86280   9.526  10.836   1.425  0.9879 -0.1012 -1.0292
  640MOL0     C86281   9.667  10.839   1.490 -0.0042 -0.2298 -0.2329
  640MOL0     N86282   9.717  10.983   1.490  0.2386 -0.5793 -0.4048
  640MOL0     C86283   9.700  11.063   1.382  0.8431 -0.4780 -0.1477
  640MOL0     C86284   9.758  11.181   1.422  0.4371 -0.1894 -0.8011
  640MOL0     C86285   9.780  11.303   1.332  0.5374 -0.1448 -1.0468
  640MOL0     C86286   9.908  11.296   1.241  0.0609 -0.0122  0.3905
  640MOL0     C86287  10.028  11.318   1.338  0.0201  0.0957 -0.8086
  640MOL0     C86288  10.161  11.322   1.264 -0.3857  0.2952  0.1291
  640MOL0     O86289  10.162  11.421   1.161  0.1113 -0.1185  0.5023
  640MOL0     C86290  10.284  11.459   1.115 -0.0411  0.7675 -0.1397
  640MOL0     C86291  10.320  11.421   0.986 -0.2524  0.2349 -0.1434
  640MOL0     C86292  10.450  11.452   0.945  0.2343  0.3471  0.2580
  640MOL0     C86293  10.543  11.515   1.033  0.6535 -0.0119  1.4175
  640MOL0     C86294  10.686  11.545   0.984 -0.4450 -0.3787  0.3538
  640MOL0     O86295  10.759  11.647   1.052 -0.4400  0.4052 -0.7059
  640MOL0     C86296  10.893  11.665   1.029  0.2611  0.0383 -0.1345
  640MOL0     C86297  10.980  11.662   1.136  1.0055 -0.6353 -0.2482
  640MOL0     C86298  11.119  11.659   1.124 -0.0648  0.1594  0.0793
  640MOL0     C86299  11.181  11.670   1.001 -0.2896  0.1313  1.0186
  640MOL0     O86300  11.317  11.676   0.966 -0.3620  0.2155 -0.2202
  640MOL0     C86301  11.407  11.646   1.072 -0.9934  0.1682 -0.5001
  640MOL0     C86302  11.549  11.614   1.019 -0.2031  0.8437  0.2862
  640MOL0     C86303  11.587  11.706   0.908 -0.6692  0.3366 -0.0298
  640MOL0     C86304  11.731  11.685   0.857  0.8771 -0.0798  0.0564
  640MOL0     C86305  11.766  11.787   0.745 -0.2659  0.2719  0.3702
  640MOL0     C86306  11.918  11.785   0.721  0.0173  0.1420 -0.6078
  640MOL0     C86307  11.974  11.896   0.620  0.1586  0.3607  0.4306
  640MOL0     C86308  12.125  11.882   0.601  0.3636  0.4469 -0.7350
  640MOL0    Cl86309  12.178  11.977   0.468 -0.1699  0.0112  0.1324
  640MOL0     C86310  11.091  11.694   0.893  0.6091  0.1477 -0.3908
  640MOL0     C86311  10.956  11.668   0.904  0.3034 -0.1241  0.6118
  640MOL0     O86312  10.736  11.472   0.901 -0.8639 -0.2201  0.2343
  640MOL0     C86313  10.501  11.555   1.159  1.5807 -0.1098 -0.5370
  640MOL0     C86314  10.366  11.529   1.199  0.4621 -0.0531 -0.2117
  640MOL0     N86315   9.805  11.162   1.555  0.3828 -0.3919 -0.2595
  640MOL0     N86316   9.770  11.047   1.593  0.0638  0.2714  0.0059
  640MOL0     C86317   8.765  10.638   0.861 -0.4483 -0.3957  0.2223
  640MOL0     C86318   8.647  10.599   0.799  0.5621  0.4257  0.2086
  640MOL0     C86319   8.223  10.572   0.660  0.0450 -0.2409  0.5275
  640MOL0     C86320   8.126  10.519   0.749 -0.2184  0.1229 -0.7021
  640MOL0     C86321   8.006  10.485   0.692  0.2954  0.2348 -0.5680
  640MOL0     C86322   7.977  10.500   0.556 -0.7159 -0.7911  0.0519
  640MOL0     O86323   7.845  10.473   0.517 -0.1034 -0.9074 -0.0498
  640MOL0     C86324   7.806  10.513   0.389  0.5394 -0.3636  0.3585
  640MOL0     C86325   7.649  10.503   0.364  0.4665 -0.0656  0.2417
  640MOL0     C86326   7.619  10.354   0.368  0.1395  0.1453  0.1987
  640MOL0     C86327   7.487  10.315   0.295  0.3895 -0.6443  1.0730
  640MOL0     C86328   7.365  10.364   0.356  0.0678 -0.1182 -0.0115
  640MOL0     C86329   7.263  10.390   0.418 -0.0078 -0.5563  0.0030
  640MOL0     C86330   8.076  10.552   0.480 -0.6154  0.3252 -0.2440
  640MOL0     C86331   8.200  10.578   0.524  0.5529  0.4005  0.0111
  640MOL0     C86332   8.300  10.638   0.429  0.7481  0.1191 -1.7053
  640MOL0     H86333   8.446  10.573   1.063  1.3257 -2.5892 -0.3842
  640MOL0     H86334   8.629  10.650   1.167 -1.2729  3.8062 -0.6697
  640MOL0     H86335   9.014  10.599   0.938  3.1778  0.8778 -0.6838
  640MOL0     H86336   9.046  10.763   1.002  4.4926 -0.6336  1.6751
  640MOL0     H86337   9.196  10.607   1.091  0.4469  1.6655 -0.8531
  640MOL0     H86338   9.063  10.492   1.112 -1.9444  1.2269  0.5484
  640MOL0     H86339   9.006  10.573   1.324  1.7153 -1.0098  2.3378
  640MOL0     H86340   9.053  10.740   1.278  0.4578 -0.2002  1.4410
  640MOL0     H86341   9.175  10.594   1.460 -2.2466 -3.6924 -2.3366
  640MOL0     H86342   9.263  10.525   1.329  0.8698 -0.7223  1.9827
  640MOL0     H86343   9.317  10.786   1.268 -0.7463 -0.3508 -0.0966
  640MOL0     H86344   9.260  10.826   1.417 -1.8595 -0.0545 -1.5330
  640MOL0     H86345   9.438  10.666   1.529 -1.2151  1.4868  0.3346
  640MOL0     H86346   9.489  10.637   1.362 -1.0290  0.3878 -0.3561
  640MOL0     H86347   9.465  10.919   1.462  0.7188 -0.2878 -1.0575
  640MOL0     H86348   9.548  10.851   1.319  1.0982  2.2423 -0.7372
  640MOL0     H86349   9.671  10.797   1.591  0.1494 -0.2389 -0.2424
  640MOL0     H86350   9.735  10.771   1.437 -0.1420  0.0164 -0.7345
  640MOL0     H86351   9.653  11.043   1.286 -2.2615  2.6727  0.4943
  640MOL0     H86352   9.692  11.310   1.267 -2.1966 -2.0564  2.1346
  640MOL0     H86353   9.784  11.394   1.393  0.3444 -0.5156 -0.4798
  640MOL0     H86354   9.895  11.205   1.182 -5.2019  0.3064  0.6063
  640MOL0     H86355   9.915  11.385   1.178  0.5788 -0.5146 -0.2761
  640MOL0     H86356  10.038  11.232   1.405  0.8803  0.2427 -0.7384
  640MOL0     H86357  10.015  11.407   1.399 -0.9325  1.2769 -2.6388
  640MOL0     H86358  10.181  11.223   1.221 -0.8711 -0.8400  2.3669
  640MOL0     H86359  10.243  11.332   1.335 -1.3928  0.4089  1.3005
  640MOL0     H86360  10.254  11.370   0.918 -1.5537  2.5043 -0.6682
  640MOL0     H86361  10.469  11.418   0.844 -1.6686 -3.1250  0.9056
  640MOL0     H86362  10.934  11.666   1.235 -1.1904  0.6577 -1.2672
  640MOL0     H86363  11.175  11.673   1.216  0.5773 -2.8137  0.2152
  640MOL0     H86364  11.422  11.728   1.142  2.8118 -1.1857  0.5061
  640MOL0     H86365  11.368  11.561   1.129 -0.1252 -1.4801 -2.2432
  640MOL0     H86366  11.616  11.606   1.106 -1.1072  0.5524  0.9702
  640MOL0     H86367  11.548  11.512   0.980 -1.6713  0.2171  1.8143
  640MOL0     H86368  11.518  11.692   0.824 -2.7507 -2.6747  1.9506
  640MOL0     H86369  11.577  11.809   0.942  2.1549  0.8089 -0.3612
  640MOL0     H86370  11.746  11.583   0.820 -0.0330 -0.6264  1.1022
  640MOL0     H86371  11.801  11.695   0.941  2.9475 -2.0125 -1.3358
  640MOL0     H86372  11.738  11.889   0.770  0.2779  0.5416 -0.0805
  640MOL0     H86373  11.716  11.752   0.654  0.5448 -0.5458  0.2175
  640MOL0     H86374  11.963  11.800   0.820 -0.6858 -3.3648  0.3863
  640MOL0     H86375  11.945  11.689   0.677 -1.0960 -0.5149  0.0864
  640MOL0     H86376  11.949  12.001   0.637  0.4962  1.0216 -2.5520
  640MOL0     H86377  11.925  11.879   0.523 -0.4945 -1.4736  1.0315
  640MOL0     H86378  12.182  11.918   0.686 -0.0227  0.5265 -0.5077
  640MOL0     H86379  12.155  11.778   0.585 -1.7179  0.1669 -3.8701
  640MOL0     H86380  11.132  11.717   0.795  1.9906  1.1121  0.3710
  640MOL0     H86381  10.896  11.680   0.814 -0.5242 -2.6432  0.7742
  640MOL0     H86382  10.564  11.612   1.226  1.1720  1.3297 -1.3249
  640MOL0     H86383  10.331  11.573   1.292  0.4021  1.3393 -0.8774
  640MOL0     H86384   8.858  10.657   0.809 -0.8777  0.2796 -0.3027
  640MOL0     H86385   8.642  10.581   0.692 -1.3314 -0.9566  0.4729
  640MOL0     H86386   8.143  10.518   0.856  1.8669 -2.3661 -0.9729
  640MOL0     H86387   7.925  10.443   0.750 -1.6483  3.9497 -0.2885
  640MOL0     H86388   7.862  10.461   0.311  3.5332  2.5447  0.3523
  640MOL0     H86389   7.836  10.617   0.370 -0.2058  0.1685  1.9125
  640MOL0     H86390   7.628  10.534   0.261 -1.5148  0.2919  0.7230
  640MOL0     H86391   7.586  10.571   0.423  1.8272  3.5780 -2.1305
  640MOL0     H86392   7.616  10.327   0.474 -2.0229 -1.8691 -0.2870
  640MOL0     H86393   7.703  10.304   0.320  1.4434  1.9514  0.5107
  640MOL0     H86394   7.491  10.348   0.191 -1.8492 -0.6165  0.9467
  640MOL0     H86395   7.485  10.206   0.289 -1.7279 -0.6333  1.0208
  640MOL0     H86396   7.186  10.407   0.490  0.7446 -0.7048  0.8685
  640MOL0     H86397   8.068  10.564   0.372  1.2933  0.7390 -0.3822
  640MOL0     H86398   8.289  10.746   0.422  0.3195  0.1177 -1.1693
  640MOL0     H86399   8.401  10.624   0.469 -0.0504 -0.7285  0.1779
  640MOL0     H86400   8.287  10.588   0.333 -1.2969 -4.0313  0.4379
  641MOL0     O86401   8.687   7.704   6.510 -0.1841 -0.1608  0.1750
  641MOL0     C86402   8.608   7.626   6.567  0.4869  0.8747 -0.3374
  641MOL0     O86403   8.642   7.505   6.623 -0.7594 -0.0040  0.3433
  641MOL0     C86404   8.777   7.480   6.657 -1.0461 -0.3266 -0.3479
  641MOL0     C86405   8.858   7.447   6.548  0.3783  0.0604 -0.1900
  641MOL0     C86406   8.998   7.428   6.565 -0.0866  0.3413  0.0967
  641MOL0     C86407   9.046   7.429   6.697 -0.3777  0.0441  0.4060
  641MOL0     O86408   9.179   7.397   6.725 -0.3406 -0.2692 -0.3069
  641MOL0     C86409   9.260   7.318   6.636 -0.3494  0.4540 -0.1175
  641MOL0     C86410   9.388   7.282   6.712  0.1689 -0.2415 -0.4145
  641MOL0     C86411   9.479   7.395   6.769  0.3078 -0.1135  0.5574
  641MOL0     C86412   9.546   7.479   6.658  0.2445 -0.0173 -0.3456
  641MOL0     C86413   9.681   7.536   6.693 -0.0419 -0.6363  0.4981
  641MOL0     C86414   9.805   7.443   6.687 -0.3309 -0.8396 -0.4282
  641MOL0     C86415   9.940   7.511   6.677 -0.7340  0.4813  0.6310
  641MOL0     C86416  10.013   7.520   6.816 -0.7039  0.7505  0.3277
  641MOL0     N86417  10.156   7.514   6.777  0.3824 -0.6971 -0.3686
  641MOL0     C86418  10.231   7.628   6.804  0.3088  0.3687  0.6172
  641MOL0     C86419  10.363   7.585   6.796 -0.3170  0.0643 -0.7034
  641MOL0     C86420  10.477   7.672   6.824 -0.7504 -0.3368 -0.8157
  641MOL0     C86421  10.478   7.703   6.971  0.0357 -0.2139  0.4971
  641MOL0     C86422  10.602   7.781   7.013 -0.2855 -0.2403 -0.1499
  641MOL0     C86423  10.599   7.918   6.945  0.6034  0.5175  0.4285
  641MOL0     O86424  10.698   8.005   6.995  0.2831 -0.5149 -0.4289
  641MOL0     C86425  10.799   8.043   6.914  0.4123  0.5599 -0.0316
  641MOL0     C86426  10.871   8.158   6.944  0.3314  0.4992 -0.8169
  641MOL0     C86427  10.986   8.188   6.877 -1.2224 -0.1481 -0.5589
  641MOL0     C86428  11.030   8.114   6.765  0.4712 -0.1054  0.3288
  641MOL0     C86429  11.150   8.158   6.686 -0.5098  0.5385  0.0282
  641MOL0     O86430  11.202   8.281   6.709 -0.3821  0.4677  0.1074
  641MOL0     C86431  11.318   8.316   6.656 -1.5755 -0.3180 -0.0804
  641MOL0     C86432  11.433   8.234   6.646  0.4629  0.3834  0.1905
  641MOL0     C86433  11.557   8.290   6.595  0.1361  0.6841 -0.1667
  641MOL0     C86434  11.565   8.421   6.549  0.3532 -0.3448 -0.7377
  641MOL0     O86435  11.674   8.476   6.483  0.3029  0.7475 -0.7172
  641MOL0     C86436  11.772   8.393   6.429 -0.4700  0.4342  0.1934
  641MOL0     C86437  11.888   8.376   6.526  0.3313  0.3065  0.4166
  641MOL0     C86438  12.017   8.333   6.448  0.2775 -0.0120  0.0581
  641MOL0     C86439  12.117   8.248   6.541  0.6470 -0.1437  0.6688
  641MOL0     C86440  12.233   8.193   6.452  0.1432  0.1880  0.4623
  641MOL0     C86441  12.337   8.300   6.414 -0.3240 -0.3897 -0.9256
  641MOL0     C86442  12.431   8.337   6.533  0.4061 -0.2582 -0.1841
  641MOL0     C86443  12.577   8.360   6.485 -0.6339  0.0974 -0.1892
  641MOL0    Cl86444  12.571   8.505   6.387  0.2404 -0.5047 -0.2835
  641MOL0     C86445  11.453   8.502   6.568  0.6324 -0.0535  0.1005
  641MOL0     C86446  11.334   8.452   6.622  0.4266  0.1978 -0.4239
  641MOL0     O86447  11.181   8.083   6.595 -0.5091 -0.0003 -0.7270
  641MOL0     C86448  10.950   7.998   6.726  0.5759  0.1253  0.0674
  641MOL0     C86449  10.837   7.965   6.804 -0.5215  0.0376  0.1217
  641MOL0     N86450  10.367   7.450   6.773  0.4609 -0.2742  0.0154
  641MOL0     N86451  10.238   7.409   6.766  0.1258 -0.7500 -0.7278
  641MOL0     C86452   8.962   7.466   6.804 -0.1850 -0.7309  0.0276
  641MOL0     C86453   8.825   7.483   6.783  0.2855  0.5871  0.3682
  641MOL0     C86454   8.461   7.661   6.562 -0.4389 -0.6608  0.3240
  641MOL0     C86455   8.437   7.782   6.616 -0.2790 -0.2086 -0.5588
  641MOL0     C86456   8.316   7.825   6.620  0.6507 -0.2894 -0.1177
  641MOL0     C86457   8.207   7.758   6.565 -0.0608  0.2630 -0.4658
  641MOL0     O86458   8.074   7.806   6.578 -0.3377  0.3647  0.4256
  641MOL0     C86459   8.064   7.932   6.503  0.2122  1.1911 -0.1591
  641MOL0     C86460   7.975   8.017   6.598 -0.5155  0.8580  0.7801
  641MOL0     C86461   7.838   7.957   6.642 -0.0535  0.1277  0.5794
  641MOL0     C86462   7.762   7.892   6.527 -0.0517  0.3107  0.3906
  641MOL0     C86463   7.622   7.868   6.559  0.1414 -0.0979 -0.3754
  641MOL0     C86464   7.510   7.839   6.596  0.0614 -0.8225  0.2135
  641MOL0     C86465   8.221   7.631   6.519 -0.3219  0.5262  0.0303
  641MOL0     C86466   8.351   7.577   6.517  0.4926  0.3663 -0.2930
  641MOL0     C86467   8.376   7.439   6.452  0.1731  0.4874 -0.9635
  641MOL0     H86468   8.805   7.425   6.457 -2.3672 -0.8192  1.4994
  641MOL0     H86469   9.051   7.399   6.475 -2.7350 -0.3993 -1.3089
  641MOL0     H86470   9.210   7.222   6.618  1.4988 -0.3832 -1.1688
  641MOL0     H86471   9.283   7.376   6.546  1.3909 -3.2908 -2.3602
  641MOL0     H86472   9.444   7.212   6.650  2.6062 -2.9823  4.3303
  641MOL0     H86473   9.358   7.223   6.799  0.9165 -0.5916 -0.3894
  641MOL0     H86474   9.554   7.351   6.835  0.9626 -1.6978 -1.1647
  641MOL0     H86475   9.422   7.459   6.838 -3.7478 -0.9261 -1.6859
  641MOL0     H86476   9.546   7.424   6.564 -3.5438 -0.0617 -0.4860
  641MOL0     H86477   9.478   7.563   6.638  0.8577  0.9140  1.2519
  641MOL0     H86478   9.713   7.622   6.635  2.2855 -0.6794  1.5973
  641MOL0     H86479   9.668   7.586   6.790  4.0548  1.9363 -0.0335
  641MOL0     H86480   9.804   7.365   6.764 -1.1545 -1.0467 -0.6371
  641MOL0     H86481   9.799   7.393   6.590  0.3990  0.0203 -0.9345
  641MOL0     H86482   9.922   7.608   6.629  0.3681  0.1265 -0.5736
  641MOL0     H86483  10.001   7.447   6.614  1.7600  0.0610  3.2861
  641MOL0     H86484   9.984   7.605   6.879 -0.5747 -0.9278  2.8031
  641MOL0     H86485   9.974   7.437   6.875 -1.6598  2.4308  2.2058
  641MOL0     H86486  10.198   7.731   6.814  2.1752  0.8984  1.8093
  641MOL0     H86487  10.570   7.628   6.786 -0.8286  0.6114 -2.1647
  641MOL0     H86488  10.453   7.761   6.765 -1.9673  0.1151  0.3198
  641MOL0     H86489  10.395   7.770   6.994  2.0427  3.4744 -1.9640
  641MOL0     H86490  10.481   7.613   7.032 -1.4134  0.4263  1.5648
  641MOL0     H86491  10.692   7.722   6.993  0.2570  0.8830 -1.1731
  641MOL0     H86492  10.600   7.802   7.120 -1.6403  1.7727 -0.5126
  641MOL0     H86493  10.504   7.962   6.977 -0.5751 -1.5073 -0.1414
  641MOL0     H86494  10.604   7.909   6.836 -0.5524 -2.0278  0.5278
  641MOL0     H86495  10.840   8.220   7.028 -1.5327 -2.1113  0.5420
  641MOL0     H86496  11.038   8.279   6.903 -0.5097 -1.5496  3.5713
  641MOL0     H86497  11.436   8.133   6.686 -0.7606  0.1506 -0.2786
  641MOL0     H86498  11.649   8.233   6.589  0.7395  1.6778 -0.4555
  641MOL0     H86499  11.741   8.292   6.404  0.0580  0.3742 -0.2395
  641MOL0     H86500  11.804   8.446   6.339 -0.0280 -0.8131 -0.4124
  641MOL0     H86501  11.901   8.465   6.588 -2.5265 -0.4596  2.3053
  641MOL0     H86502  11.860   8.302   6.602  0.9981  1.6729  2.0643
  641MOL0     H86503  11.984   8.274   6.362  2.0380 -0.6179 -0.2388
  641MOL0     H86504  12.061   8.425   6.407 -1.7433  0.0390 -2.2144
  641MOL0     H86505  12.061   8.165   6.587  1.6428 -1.0655  0.2643
  641MOL0     H86506  12.153   8.320   6.614  1.3587  1.9903 -1.6293
  641MOL0     H86507  12.195   8.159   6.355  2.0513  1.9677 -1.0065
  641MOL0     H86508  12.286   8.108   6.495 -1.8827 -0.9559  0.8437
  641MOL0     H86509  12.399   8.266   6.330  1.4327  0.3492  0.0308
  641MOL0     H86510  12.295   8.392   6.374 -0.7840  0.3496  1.1765
  641MOL0     H86511  12.422   8.263   6.614 -1.8910 -0.3681 -0.4675
  641MOL0     H86512  12.406   8.433   6.578 -0.5249 -1.5639  2.2516
  641MOL0     H86513  12.639   8.380   6.573 -1.7006  1.2537  0.3293
  641MOL0     H86514  12.619   8.274   6.431 -2.4818 -1.7706  1.1608
  641MOL0     H86515  11.456   8.600   6.521  0.2079 -0.1278 -0.0828
  641MOL0     H86516  11.243   8.510   6.630  0.3582  0.0741 -0.3130
  641MOL0     H86517  10.970   7.932   6.641  1.8155 -1.0089  1.2034
  641MOL0     H86518  10.797   7.867   6.777  1.8901 -0.7215 -1.0938
  641MOL0     H86519   9.002   7.464   6.904  1.2694 -1.0621 -0.5398
  641MOL0     H86520   8.745   7.496   6.855 -0.0934 -0.7126  0.2084
  641MOL0     H86521   8.517   7.841   6.659 -1.1018  0.6900 -0.2259
  641MOL0     H86522   8.292   7.914   6.676 -2.4880 -1.6166  0.8405
  641MOL0     H86523   8.031   7.915   6.401  0.2588 -1.7929  0.2306
  641MOL0     H86524   8.156   7.991   6.503  0.5977  0.6714  1.7093
  641MOL0     H86525   7.965   8.117   6.554  4.0927  1.4903  0.6105
  641MOL0     H86526   8.029   8.042   6.690  0.2493 -3.0791  1.6013
  641MOL0     H86527   7.779   8.039   6.683  1.0674  1.3113 -0.0924
  641MOL0     H86528   7.857   7.881   6.718 -3.0085 -1.3202 -0.0099
  641MOL0     H86529   7.757   7.960   6.441 -1.2720  1.4838  1.3561
  641MOL0     H86530   7.810   7.798   6.499 -1.1912 -0.3410  0.5429
  641MOL0     H86531   7.422   7.790   6.631  0.0349 -1.0479 -0.1630
  641MOL0     H86532   8.133   7.576   6.486 -1.3390  2.8711 -1.3988
  641MOL0     H86533   8.447   7.380   6.511 -0.0116  0.3159 -0.9109
  641MOL0     H86534   8.291   7.371   6.459  0.8864 -0.2611  2.2833
  641MOL0     H86535   8.412   7.458   6.351  0.8478  0.9482 -0.6415
  642MOL0     O86536   1.243   9.699   1.396 -0.3018 -0.1690  0.5362
  642MOL0     C86537   1.218   9.581   1.394 -0.0045  0.3420 -0.1452
  642MOL0     O86538   1.305   9.482   1.411 -0.2426 -0.3721 -0.0083
  642MOL0     C86539   1.441   9.505   1.416 -0.6915  0.2689 -0.9487
  642MOL0     C86540   1.506   9.548   1.538 -0.8660 -0.3369 -0.2282
  642MOL0     C86541   1.645   9.553   1.542 -0.3930 -0.4827 -0.1990
  642MOL0     C86542   1.715   9.534   1.425  0.2234  0.4105  0.4277
  642MOL0     O86543   1.848   9.542   1.454 -0.0106  0.1511 -0.0583
  642MOL0     C86544   1.926   9.614   1.359 -1.0246 -0.5300 -0.2257
  642MOL0     C86545   2.036   9.702   1.430 -0.0570  0.7072  0.5095
  642MOL0     C86546   2.139   9.757   1.325 -0.4338  0.1014 -0.8496
  642MOL0     C86547   2.231   9.842   1.418 -0.1388 -0.0225 -0.2170
  642MOL0     C86548   2.336   9.919   1.336  0.0585 -1.1309 -0.6648
  642MOL0     C86549   2.414  10.020   1.424 -0.2128 -0.5103  0.3827
  642MOL0     C86550   2.481  10.140   1.353 -0.0305  0.9994  0.4166
  642MOL0     C86551   2.604  10.097   1.262  0.9799 -0.3755 -0.5817
  642MOL0     N86552   2.733  10.110   1.335  0.0960 -0.1108  0.5660
  642MOL0     C86553   2.850  10.178   1.298  0.1839 -0.0469 -0.3381
  642MOL0     C86554   2.926  10.170   1.413  0.0992  0.4223 -0.8293
  642MOL0     C86555   3.063  10.243   1.431 -0.5560  0.5396 -0.4698
  642MOL0     C86556   3.173  10.188   1.339 -0.4765  0.6952 -0.6388
  642MOL0     C86557   3.303  10.245   1.384 -0.6060  0.0742 -0.2662
  642MOL0     C86558   3.410  10.208   1.265  0.4381 -0.0480  0.2903
  642MOL0     O86559   3.541  10.250   1.295 -0.0405  0.2927 -0.3989
  642MOL0     C86560   3.645  10.223   1.205 -1.8133 -0.3313  0.9066
  642MOL0     C86561   3.764  10.285   1.239 -0.0161  0.3263  0.2204
  642MOL0     C86562   3.883  10.258   1.166 -0.0921 -0.3090 -0.2961
  642MOL0     C86563   3.883  10.176   1.051  0.0522 -0.1447  0.3230
  642MOL0     C86564   4.001  10.138   0.983 -1.2354  0.1934  0.0046
  642MOL0     O86565   3.995  10.031   0.897 -0.2322 -0.4533  0.3872
  642MOL0     C86566   4.107   9.982   0.831 -0.0826  0.0152  1.1702
  642MOL0     C86567   4.170  10.067   0.734 -0.1070 -0.0858 -0.0796
  642MOL0     C86568   4.297  10.036   0.694  0.5773  0.2666  0.0699
  642MOL0     C86569   4.340   9.906   0.721  0.1790  0.5210  0.3155
  642MOL0     O86570   4.467   9.879   0.667  0.0925  0.8223  0.3498
  642MOL0     C86571   4.541   9.762   0.704 -0.7011  0.7196 -0.4641
  642MOL0     C86572   4.691   9.781   0.669  0.2381 -0.6321  0.5210
  642MOL0     C86573   4.755   9.643   0.694 -0.3115 -0.4245 -0.0957
  642MOL0     C86574   4.907   9.648   0.690 -0.2944 -0.4844 -0.1796
  642MOL0     C86575   4.951   9.506   0.671  0.4320 -0.0036 -0.7992
  642MOL0     C86576   5.102   9.489   0.652 -0.4455 -0.4475 -0.3459
  642MOL0     C86577   5.163   9.363   0.593 -0.0306  0.7197 -0.1780
  642MOL0     C86578   5.215   9.255   0.688 -0.2303  0.6642  0.1009
  642MOL0    Cl86579   5.326   9.137   0.587  0.0860 -0.1550 -0.6073
  642MOL0     C86580   4.269   9.810   0.797  0.6277  0.0667  0.2503
  642MOL0     C86581   4.153   9.853   0.855  0.0581 -0.5177 -0.9935
  642MOL0     O86582   4.106  10.197   1.001  0.0998 -0.0718  0.5756
  642MOL0     C86583   3.762  10.115   1.019 -0.0194  0.2497  0.3776
  642MOL0     C86584   3.645  10.141   1.091 -0.3073 -0.3227  0.1002
  642MOL0     N86585   2.849  10.108   1.504  0.4636 -0.7567 -0.5391
  642MOL0     N86586   2.740  10.052   1.462 -0.6349 -1.2616  0.1391
  642MOL0     C86587   1.661   9.488   1.306  0.1914 -0.2507  0.4590
  642MOL0     C86588   1.523   9.468   1.305 -0.5958 -0.5470  0.4139
  642MOL0     C86589   1.073   9.545   1.377  0.4842  0.4828  0.6260
  642MOL0     C86590   0.986   9.598   1.468  0.0857 -0.3360  0.3911
  642MOL0     C86591   0.846   9.589   1.454 -0.4855  0.8987 -0.8626
  642MOL0     C86592   0.796   9.527   1.342  0.1550  0.3404  0.3810
  642MOL0     O86593   0.660   9.538   1.311  0.1317  0.5012 -0.4206
  642MOL0     C86594   0.571   9.487   1.416  0.0062 -0.0315 -0.1496
  642MOL0     C86595   0.432   9.462   1.356  0.5636  0.4147  0.1586
  642MOL0     C86596   0.317   9.428   1.456  0.3789  0.1973 -0.4089
  642MOL0     C86597   0.203   9.354   1.378  0.1489  0.0768 -0.3884
  642MOL0     C86598   0.079   9.379   1.442 -0.1921 -0.4205  0.4751
  642MOL0     C86599  -0.016   9.413   1.512 -0.2255  0.1188 -0.6336
  642MOL0     C86600   0.886   9.451   1.262  1.3867 -0.1872 -1.1213
  642MOL0     C86601   1.025   9.464   1.269  0.2098 -0.2657 -0.6571
  642MOL0     C86602   1.106   9.394   1.170  0.1672  0.5791  0.5095
  642MOL0     H86603   1.444   9.558   1.627  0.4320 -1.7195  0.8869
  642MOL0     H86604   1.701   9.569   1.633 -0.9367 -2.6207  0.5633
  642MOL0     H86605   1.985   9.548   1.295 -1.3697 -1.4619  0.4049
  642MOL0     H86606   1.865   9.687   1.304  0.1854  1.4455  0.8978
  642MOL0     H86607   2.089   9.635   1.499  0.4347 -2.8416 -2.9325
  642MOL0     H86608   1.984   9.777   1.490 -0.6952 -0.3577  1.3112
  642MOL0     H86609   2.092   9.820   1.250  0.4794  2.1049  0.1916
  642MOL0     H86610   2.197   9.676   1.280 -0.3988 -1.5287  1.8562
  642MOL0     H86611   2.167   9.914   1.470  1.5206  0.4346  1.3210
  642MOL0     H86612   2.270   9.779   1.499 -3.0742 -0.1393  1.2403
  642MOL0     H86613   2.398   9.853   1.276 -0.3914 -2.2240  0.0286
  642MOL0     H86614   2.276   9.980   1.268  0.2649  2.8708  2.4115
  642MOL0     H86615   2.346  10.061   1.500 -0.8869  0.2224 -0.5943
  642MOL0     H86616   2.489   9.970   1.486 -0.0498 -1.7929 -0.8038
  642MOL0     H86617   2.517  10.206   1.432  1.7022  2.2684 -1.3656
  642MOL0     H86618   2.403  10.189   1.294  0.2891  1.7650  0.6229
  642MOL0     H86619   2.580   9.998   1.220 -1.4540 -0.2934  0.4788
  642MOL0     H86620   2.616  10.168   1.179  0.3865 -1.8311 -1.9833
  642MOL0     H86621   2.875  10.245   1.216  0.5117  0.8209  0.4510
  642MOL0     H86622   3.048  10.351   1.424 -3.5611  0.1898 -0.6841
  642MOL0     H86623   3.087  10.223   1.536 -2.0922 -1.1593 -0.4002
  642MOL0     H86624   3.175  10.079   1.336  2.1133  0.6415  0.1583
  642MOL0     H86625   3.145  10.225   1.240  0.5609 -0.0919 -1.2538
  642MOL0     H86626   3.336  10.197   1.477 -1.6754  0.3781  0.2805
  642MOL0     H86627   3.296  10.354   1.398 -0.7443 -0.2279  2.6825
  642MOL0     H86628   3.382  10.255   1.171  2.4569 -2.7373 -1.8103
  642MOL0     H86629   3.401  10.101   1.244 -0.6650  0.2673 -0.9759
  642MOL0     H86630   3.763  10.353   1.324 -1.5403  1.6182 -0.7859
  642MOL0     H86631   3.981  10.303   1.182 -0.4003  1.4702 -2.8115
  642MOL0     H86632   4.135  10.169   0.727  0.1151  0.0113  0.2098
  642MOL0     H86633   4.353  10.117   0.648 -1.0457  2.2491  1.4509
  642MOL0     H86634   4.521   9.747   0.810 -3.3177 -0.8995 -1.0986
  642MOL0     H86635   4.514   9.667   0.657  0.1055 -1.9891  3.9700
  642MOL0     H86636   4.698   9.822   0.568 -0.3876  0.4764  0.8967
  642MOL0     H86637   4.742   9.852   0.735  0.9557 -0.0357 -0.6514
  642MOL0     H86638   4.720   9.612   0.793 -0.2102  3.3487  1.2858
  642MOL0     H86639   4.710   9.578   0.619 -0.3565  1.0382 -1.3973
  642MOL0     H86640   4.945   9.683   0.786  1.0940 -0.5683 -0.6692
  642MOL0     H86641   4.938   9.703   0.601 -1.9927  0.9227  0.0698
  642MOL0     H86642   4.909   9.458   0.582  0.8204 -2.3748  0.2127
  642MOL0     H86643   4.926   9.451   0.762  0.3496  0.2272 -0.6834
  642MOL0     H86644   5.131   9.569   0.584 -0.5340  0.8783  1.1111
  642MOL0     H86645   5.146   9.514   0.749  0.2402  2.6196 -1.3433
  642MOL0     H86646   5.243   9.399   0.527 -0.9379  1.9939 -0.6117
  642MOL0     H86647   5.088   9.314   0.531 -0.4455  1.1864 -0.0511
  642MOL0     H86648   5.282   9.301   0.761  4.0814 -0.8482 -2.5090
  642MOL0     H86649   5.130   9.201   0.731 -0.6858 -1.0768 -2.6765
  642MOL0     H86650   4.302   9.707   0.795  0.1470 -0.1189 -2.8736
  642MOL0     H86651   4.078   9.794   0.907  0.7326 -1.7561 -1.3857
  642MOL0     H86652   3.755  10.056   0.929 -0.5891 -1.2301  1.3532
  642MOL0     H86653   3.552  10.092   1.067  0.2928 -0.9729 -0.9605
  642MOL0     H86654   1.726   9.458   1.224  0.1103 -2.7152  1.2227
  642MOL0     H86655   1.471   9.431   1.218  0.9349  0.1481 -0.8466
  642MOL0     H86656   1.021   9.661   1.550 -0.4048  0.8296 -0.2742
  642MOL0     H86657   0.778   9.630   1.528  0.1847  0.1010  0.2198
  642MOL0     H86658   0.549   9.565   1.490 -1.7784 -0.1314 -0.5374
  642MOL0     H86659   0.618   9.399   1.460  3.4175  0.8663 -1.6212
  642MOL0     H86660   0.433   9.402   1.265  0.9994  1.1515 -0.3352
  642MOL0     H86661   0.400   9.563   1.329  0.7586  1.1790  2.5604
  642MOL0     H86662   0.279   9.524   1.493  3.3673  0.3325  2.7564
  642MOL0     H86663   0.345   9.367   1.542 -1.6679 -1.3333 -0.7645
  642MOL0     H86664   0.199   9.373   1.271 -2.5967 -1.7534 -0.7163
  642MOL0     H86665   0.223   9.249   1.400  1.4848 -0.2035 -2.6733
  642MOL0     H86666  -0.094   9.445   1.578 -0.7954 -0.4649 -1.0102
  642MOL0     H86667   0.827   9.396   1.190 -0.9656  0.2997  0.3286
  642MOL0     H86668   1.211   9.417   1.189  0.5710 -1.2733  0.7883
  642MOL0     H86669   1.095   9.285   1.176 -1.3195  0.4723 -2.3873
  642MOL0     H86670   1.089   9.409   1.063  0.6637 -0.8348  0.2005
  643MOL0     O86671  10.791   8.635   0.766  1.0913 -0.6367 -0.1806
  643MOL0     C86672  10.810   8.756   0.751 -0.3948 -0.3373 -0.4074
  643MOL0     O86673  10.749   8.832   0.653  0.0969  0.1553 -0.3736
  643MOL0     C86674  10.629   8.788   0.603  0.3939 -0.2960  1.2287
  643MOL0     C86675  10.607   8.809   0.463 -1.6398  0.5357  0.5713
  643MOL0     C86676  10.500   8.757   0.395 -0.1564  0.4598 -0.3024
  643MOL0     C86677  10.394   8.688   0.463 -0.0574  0.6545 -0.2524
  643MOL0     O86678  10.282   8.628   0.393  0.2064  0.3864 -0.0316
  643MOL0     C86679  10.199   8.527   0.461 -0.2069 -0.1739 -0.2546
  643MOL0     C86680  10.270   8.402   0.504 -0.2428 -0.0540  0.0577
  643MOL0     C86681  10.344   8.323   0.401 -0.2860  0.2791 -0.3574
  643MOL0     C86682  10.414   8.190   0.444 -0.0469 -0.5031 -0.4441
  643MOL0     C86683  10.518   8.140   0.351  0.5137 -0.2701 -0.4688
  643MOL0     C86684  10.466   8.064   0.224  0.3599  0.2317 -0.8771
  643MOL0     C86685  10.392   7.939   0.272  0.1666  0.6636  0.0864
  643MOL0     C86686  10.246   7.956   0.264 -0.3469  0.5354 -0.2029
  643MOL0     N86687  10.182   7.869   0.359 -0.0023  0.3322 -0.5987
  643MOL0     C86688  10.204   7.737   0.374  0.6802 -0.2720 -0.7271
  643MOL0     C86689  10.105   7.688   0.451  0.4986  0.4336 -0.3533
  643MOL0     C86690  10.096   7.549   0.501 -0.0671 -0.3380  0.5624
  643MOL0     C86691   9.948   7.506   0.528 -0.0961  0.0740 -0.0798
  643MOL0     C86692   9.940   7.359   0.582  0.6010  0.2514  0.8404
  643MOL0     C86693   9.793   7.314   0.594  0.0806  0.0196 -0.7276
  643MOL0     O86694   9.797   7.171   0.573 -0.0466  0.1967  0.2234
  643MOL0     C86695   9.700   7.110   0.501 -0.4668  0.8585  0.6640
  643MOL0     C86696   9.740   6.987   0.438 -0.5763  1.3607 -0.0057
  643MOL0     C86697   9.654   6.921   0.348 -0.5332 -0.1820  0.7386
  643MOL0     C86698   9.523   6.971   0.321 -1.1074  0.2296  0.7953
  643MOL0     C86699   9.433   6.888   0.241 -0.2395  1.2314  1.4992
  643MOL0     O86700   9.337   6.956   0.179  0.9524 -0.7595 -0.2761
  643MOL0     C86701   9.232   6.877   0.135 -0.3579  0.1244 -0.2803
  643MOL0     C86702   9.138   6.826   0.233 -0.2110  0.8849  0.2361
  643MOL0     C86703   9.037   6.740   0.189 -0.0006  0.5262 -0.7223
  643MOL0     C86704   9.024   6.712   0.048  0.3680  0.1173  0.4399
  643MOL0     O86705   8.927   6.632  -0.006  0.7804 -0.2709  0.4804
  643MOL0     C86706   8.858   6.532   0.073  0.4914  0.7896 -0.5279
  643MOL0     C86707   8.745   6.465   0.008 -0.7571  0.3131  1.3979
  643MOL0     C86708   8.789   6.400  -0.125 -0.2019 -0.4683  0.1352
  643MOL0     C86709   8.678   6.322  -0.187 -0.4473  0.5811 -0.1592
  643MOL0     C86710   8.654   6.337  -0.339 -0.6340 -0.0636 -0.5642
  643MOL0     C86711   8.736   6.236  -0.427 -0.1189  0.3775 -0.7128
  643MOL0     C86712   8.883   6.232  -0.402 -0.6000  0.0744  0.2956
  643MOL0     C86713   8.955   6.350  -0.463  0.0724  0.6008  0.4512
  643MOL0    Cl86714   9.126   6.315  -0.494 -0.3848  0.5045 -0.0747
  643MOL0     C86715   9.121   6.766  -0.039  0.3636 -0.3372 -0.0921
  643MOL0     C86716   9.222   6.839   0.006 -0.6989 -0.9792 -0.3718
  643MOL0     O86717   9.442   6.761   0.227 -0.3792 -0.3347 -0.0954
  643MOL0     C86718   9.477   7.083   0.386 -0.0799 -0.6030 -0.0243
  643MOL0     C86719   9.566   7.156   0.473 -0.1449 -0.3962  0.6697
  643MOL0     N86720  10.032   7.797   0.495  0.3726  0.5184  0.6317
  643MOL0     N86721  10.059   7.891   0.410 -0.8961 -0.2233 -0.0819
  643MOL0     C86722  10.407   8.680   0.606  0.0721 -0.0487  0.6643
  643MOL0     C86723  10.522   8.725   0.669  0.1414  0.4882  0.1877
  643MOL0     C86724  10.912   8.810   0.847 -0.6164  0.1379 -0.3878
  643MOL0     C86725  10.948   8.724   0.954 -0.5106  0.5842 -0.4174
  643MOL0     C86726  11.042   8.760   1.050 -0.1451 -0.4140 -0.1246
  643MOL0     C86727  11.106   8.888   1.038  0.4457 -0.6892  0.3709
  643MOL0     O86728  11.191   8.914   1.144 -0.4954  0.1459  0.4661
  643MOL0     C86729  11.264   9.034   1.151 -0.5884 -0.5108 -0.5205
  643MOL0     C86730  11.167   9.145   1.209 -0.3379 -0.1780  0.1352
  643MOL0     C86731  11.118   9.122   1.353  0.7329  0.4377 -0.6792
  643MOL0     C86732  10.999   9.211   1.383 -0.6947 -0.3385 -0.5223
  643MOL0     C86733  10.950   9.182   1.520 -0.4971  0.2193  0.6452
  643MOL0     C86734  10.933   9.169   1.640  0.2820  0.1696  0.7953
  643MOL0     C86735  11.070   8.974   0.932 -0.2483  0.5933  0.4487
  643MOL0     C86736  10.971   8.941   0.839 -0.7503  0.3113 -0.2179
  643MOL0     C86737  10.931   9.045   0.746  0.0141 -0.2531 -0.2194
  643MOL0     H86738  10.688   8.852   0.406 -0.7488 -0.5693  0.9565
  643MOL0     H86739  10.496   8.779   0.289 -0.2190  1.0577 -0.1806
  643MOL0     H86740  10.136   8.573   0.538  2.3165 -0.1606  1.9124
  643MOL0     H86741  10.118   8.495   0.394 -0.0795  0.5572 -0.7623
  643MOL0     H86742  10.195   8.335   0.545 -1.1904  0.8860 -0.0902
  643MOL0     H86743  10.339   8.424   0.586  1.2353  0.6513 -1.3034
  643MOL0     H86744  10.421   8.391   0.363 -0.5048  1.0199  0.4764
  643MOL0     H86745  10.285   8.307   0.311  0.3714  4.7956 -1.8710
  643MOL0     H86746  10.458   8.213   0.541 -0.0959  2.2879 -0.9972
  643MOL0     H86747  10.339   8.115   0.471  0.3601  0.7902  5.8091
  643MOL0     H86748  10.588   8.223   0.332  2.0061 -1.1548  0.8770
  643MOL0     H86749  10.582   8.071   0.406  2.4864  1.2989 -0.6493
  643MOL0     H86750  10.397   8.130   0.171 -2.4387 -1.8647 -0.0897
  643MOL0     H86751  10.544   8.037   0.152 -0.5864  1.1251 -2.2892
  643MOL0     H86752  10.418   7.913   0.375 -0.2035 -2.5732 -0.5197
  643MOL0     H86753  10.412   7.845   0.219 -4.5716 -2.1547  2.6431
  643MOL0     H86754  10.224   8.058   0.298 -1.4559  0.6599 -1.2487
  643MOL0     H86755  10.205   7.932   0.166  1.0515 -0.7037 -0.5258
  643MOL0     H86756  10.282   7.674   0.332 -0.2388 -1.5733 -0.5186
  643MOL0     H86757  10.129   7.493   0.412 -1.9206  2.3966 -2.0336
  643MOL0     H86758  10.163   7.528   0.584 -1.7575 -1.0599  1.8082
  643MOL0     H86759   9.903   7.569   0.605 -0.4950 -2.2247  1.6690
  643MOL0     H86760   9.898   7.528   0.433 -2.3163 -0.4469  0.9197
  643MOL0     H86761  10.003   7.354   0.672  1.1646 -1.0284  0.4004
  643MOL0     H86762   9.992   7.301   0.505  0.4481 -1.1614  1.7465
  643MOL0     H86763   9.741   7.364   0.512  2.1313  1.6646 -1.1061
  643MOL0     H86764   9.753   7.343   0.692  1.0596 -1.9610  0.3098
  643MOL0     H86765   9.835   6.938   0.454 -0.8827  0.1802 -1.5748
  643MOL0     H86766   9.685   6.830   0.297 -0.7794 -0.3264  0.8424
  643MOL0     H86767   9.139   6.845   0.340 -1.9252  1.2097  0.2200
  643MOL0     H86768   8.969   6.701   0.264  1.9220  1.3329  1.5658
  643MOL0     H86769   8.929   6.456   0.107  2.1465  3.3534  2.3042
  643MOL0     H86770   8.823   6.580   0.165  1.0211  2.3153 -1.0772
  643MOL0     H86771   8.700   6.395   0.080  0.2992  0.5720  2.3394
  643MOL0     H86772   8.678   6.551  -0.001 -0.0003  0.8159  0.3811
  643MOL0     H86773   8.819   6.481  -0.192 -1.6782 -1.8440 -2.3503
  643MOL0     H86774   8.877   6.338  -0.107 -2.1648 -3.3811  0.5788
  643MOL0     H86775   8.586   6.353  -0.136 -0.5710 -0.2459  0.1390
  643MOL0     H86776   8.699   6.219  -0.156 -1.0513  1.1029  2.1388
  643MOL0     H86777   8.667   6.441  -0.370  1.4816 -0.2679 -0.4652
  643MOL0     H86778   8.550   6.318  -0.369 -1.2265  1.8545  0.1236
  643MOL0     H86779   8.692   6.138  -0.404 -0.2948  0.0440 -2.3632
  643MOL0     H86780   8.712   6.255  -0.532 -2.5112  0.4347 -0.2186
  643MOL0     H86781   8.914   6.141  -0.454 -0.4503  0.5640 -0.4832
  643MOL0     H86782   8.914   6.223  -0.298 -2.9109 -0.9274  0.9811
  643MOL0     H86783   8.903   6.369  -0.557  0.7942 -2.8770 -0.7869
  643MOL0     H86784   8.963   6.433  -0.392  1.8736 -0.8024  1.9892
  643MOL0     H86785   9.102   6.754  -0.145 -0.3880  2.8365 -0.4068
  643MOL0     H86786   9.284   6.896  -0.064 -2.1806 -0.5126 -1.3536
  643MOL0     H86787   9.379   7.128   0.382  0.5675  0.8163 -0.5066
  643MOL0     H86788   9.529   7.239   0.532 -3.2331  0.3996 -2.0628
  643MOL0     H86789  10.328   8.640   0.669  1.2831  1.7301  3.5424
  643MOL0     H86790  10.526   8.729   0.777  3.8792 -0.5472  0.2040
  643MOL0     H86791  10.905   8.626   0.974  0.2730  0.3465  0.1463
  643MOL0     H86792  11.060   8.693   1.133  0.0242 -3.2331 -2.2575
  643MOL0     H86793  11.308   9.069   1.057 -1.0090 -1.5184 -1.1076
  643MOL0     H86794  11.345   9.030   1.225 -0.4752 -1.8891 -0.7010
  643MOL0     H86795  11.073   9.154   1.153  2.0440 -0.6906 -4.3771
  643MOL0     H86796  11.223   9.239   1.199 -1.4782  0.2951 -3.0194
  643MOL0     H86797  11.193   9.158   1.423 -0.8833  1.3085  0.6983
  643MOL0     H86798  11.100   9.016   1.371  1.7456  0.0946 -1.6119
  643MOL0     H86799  11.029   9.315   1.369  0.4206 -0.4868  0.6173
  643MOL0     H86800  10.917   9.188   1.313 -2.1375  1.6177  0.4277
  643MOL0     H86801  10.936   9.126   1.738  1.4421 -0.1915  0.6257
  643MOL0     H86802  11.121   9.069   0.931 -0.0356  0.5374  2.1009
  643MOL0     H86803  10.957   9.008   0.647 -0.8744 -0.2957 -0.4471
  643MOL0     H86804  10.823   9.061   0.742  0.3736  2.5456 -0.9047
  643MOL0     H86805  10.958   9.146   0.777 -0.1982 -0.5286  0.9333
  644MOL0     O86806   9.660   7.954   6.073  0.6202 -0.5339  0.1701
  644MOL0     C86807   9.711   8.060   6.121  0.1577  0.3563  0.4078
  644MOL0     O86808   9.661   8.183   6.130  0.1554 -0.1218 -0.6041
  644MOL0     C86809   9.535   8.198   6.086 -0.5229  0.1587  0.7958
  644MOL0     C86810   9.423   8.158   6.162  0.0250  0.8452  0.3037
  644MOL0     C86811   9.292   8.183   6.121 -0.0940 -0.1246  0.2802
  644MOL0     C86812   9.277   8.239   5.993 -0.6356  0.1113 -1.0390
  644MOL0     O86813   9.151   8.250   5.937 -0.3706  0.3342  0.5558
  644MOL0     C86814   9.056   8.158   5.979 -0.0193 -0.1336  0.3569
  644MOL0     C86815   8.929   8.166   5.881 -0.1745  0.5500  0.3215
  644MOL0     C86816   8.847   8.292   5.921 -0.3884 -0.5781 -0.3686
  644MOL0     C86817   8.725   8.312   5.827  0.1434 -0.4025 -0.0100
  644MOL0     C86818   8.644   8.440   5.881  0.0773  0.9828  0.8287
  644MOL0     C86819   8.568   8.391   6.008 -0.0619 -0.6712  0.3441
  644MOL0     C86820   8.461   8.495   6.062  1.3648 -0.5787  0.1532
  644MOL0     C86821   8.509   8.600   6.165 -0.5258  0.0304  0.1202
  644MOL0     N86822   8.526   8.547   6.303 -0.5915 -0.0449  0.0619
  644MOL0     C86823   8.631   8.477   6.353 -0.0170 -0.3381 -0.2526
  644MOL0     C86824   8.605   8.453   6.477 -1.5426 -0.3389  0.6577
  644MOL0     C86825   8.690   8.379   6.587  0.3887 -0.6379 -0.3725
  644MOL0     C86826   8.809   8.462   6.644  0.7095  0.1556 -0.2151
  644MOL0     C86827   8.783   8.615   6.684  0.3138  0.3520 -0.1094
  644MOL0     C86828   8.782   8.723   6.568 -0.8873  0.6377  0.3378
  644MOL0     O86829   8.903   8.770   6.516  0.4108 -0.0044 -0.1209
  644MOL0     C86830   8.986   8.855   6.587 -0.4275  0.0558 -0.2845
  644MOL0     C86831   9.101   8.898   6.527 -0.6199  0.4845  0.2383
  644MOL0     C86832   9.198   8.975   6.588 -0.0862 -0.3328 -0.6030
  644MOL0     C86833   9.177   9.021   6.721  0.1641 -0.6392  0.7218
  644MOL0     C86834   9.270   9.105   6.789  0.0201 -0.5829  0.8935
  644MOL0     O86835   9.386   9.121   6.736  0.1400  0.4268  0.1195
  644MOL0     C86836   9.484   9.186   6.799  0.2879  0.3787 -0.2100
  644MOL0     C86837   9.571   9.274   6.729 -0.4031 -0.2494  0.2998
  644MOL0     C86838   9.672   9.350   6.801  0.0271  0.4949  0.1635
  644MOL0     C86839   9.690   9.326   6.932 -1.5625  0.1875 -0.2873
  644MOL0     O86840   9.783   9.375   7.012  0.0244  0.7520 -0.0329
  644MOL0     C86841   9.893   9.446   6.960 -0.4270  0.3733  0.2219
  644MOL0     C86842   9.942   9.532   7.070  0.0199 -0.5397  0.0333
  644MOL0     C86843  10.071   9.612   7.031 -0.1896  1.0053 -0.6149
  644MOL0     C86844  10.100   9.708   7.147 -0.6980  0.0618  0.6110
  644MOL0     C86845  10.229   9.787   7.119 -0.7212  0.1435  0.5360
  644MOL0     C86846  10.268   9.873   7.241 -0.0439 -0.1475 -1.2760
  644MOL0     C86847  10.407   9.918   7.232  0.0809 -0.4100  0.5379
  644MOL0     C86848  10.473   9.974   7.359  0.1936  0.3626  0.1169
  644MOL0    Cl86849  10.389  10.127   7.401 -0.0594  0.1326 -0.5439
  644MOL0     C86850   9.606   9.236   7.004 -0.6353  0.3079  0.2528
  644MOL0     C86851   9.505   9.170   6.937  0.0069  0.4900  0.1154
  644MOL0     O86852   9.229   9.164   6.889 -0.1807 -0.0278 -0.0177
  644MOL0     C86853   9.060   8.977   6.780  0.6286 -0.4436  0.1242
  644MOL0     C86854   8.966   8.898   6.715 -0.0951  0.1499 -0.1639
  644MOL0     N86855   8.487   8.516   6.504 -0.1827  0.4945 -0.3872
  644MOL0     N86856   8.439   8.570   6.399  0.1626  0.3520 -0.3754
  644MOL0     C86857   9.391   8.269   5.913  1.0527 -0.8355  0.4627
  644MOL0     C86858   9.519   8.261   5.967 -0.0634  0.4280 -0.7601
  644MOL0     C86859   9.860   8.048   6.126  0.3790  0.4864 -0.4664
  644MOL0     C86860   9.919   7.965   6.039 -0.1621  0.1975  0.4581
  644MOL0     C86861  10.061   7.932   6.044  0.3124 -0.3453  0.0149
  644MOL0     C86862  10.148   8.004   6.132 -0.8815 -0.2636 -0.4326
  644MOL0     O86863  10.285   7.983   6.155 -0.2716  0.5260 -0.5403
  644MOL0     C86864  10.345   7.871   6.092  0.1141  0.0532 -0.7489
  644MOL0     C86865  10.475   7.835   6.154 -0.1599 -0.6070  0.1136
  644MOL0     C86866  10.575   7.943   6.128 -0.0297 -0.5250 -0.1329
  644MOL0     C86867  10.704   7.918   6.206 -0.8273  0.2480 -0.7917
  644MOL0     C86868  10.696   7.978   6.339 -0.6184 -0.1780 -0.0468
  644MOL0     C86869  10.717   8.009   6.457 -0.4263 -0.2732  0.3682
  644MOL0     C86870  10.087   8.104   6.208  0.1237 -0.0655 -0.2079
  644MOL0     C86871   9.947   8.128   6.209  0.0862  0.0466 -0.8691
  644MOL0     C86872   9.893   8.230   6.309  0.0053  0.4038 -0.4203
  644MOL0     H86873   9.440   8.133   6.266 -2.4850 -1.8964  0.1777
  644MOL0     H86874   9.213   8.170   6.194 -0.9900 -1.5432 -0.8845
  644MOL0     H86875   9.103   8.059   5.983 -2.2292 -1.2002  1.3823
  644MOL0     H86876   9.015   8.181   6.078 -2.2410  1.5039 -0.8609
  644MOL0     H86877   8.869   8.075   5.886 -0.8568  0.7854 -2.2067
  644MOL0     H86878   8.961   8.170   5.776 -1.8408  1.1706 -0.2039
  644MOL0     H86879   8.920   8.370   5.899 -0.2012 -0.8735 -0.8041
  644MOL0     H86880   8.827   8.294   6.029  1.2351  0.8990 -0.0487
  644MOL0     H86881   8.761   8.342   5.728  1.0088 -1.0448  0.0949
  644MOL0     H86882   8.659   8.225   5.821 -1.0301  0.4855 -0.3134
  644MOL0     H86883   8.713   8.523   5.895  2.8503 -1.1899  0.9391
  644MOL0     H86884   8.572   8.466   5.803 -2.1178 -2.7127  1.3788
  644MOL0     H86885   8.511   8.305   5.972 -0.1676  0.2012 -1.7524
  644MOL0     H86886   8.631   8.347   6.085  0.3332 -1.6767 -0.5327
  644MOL0     H86887   8.389   8.429   6.111  1.5758 -1.3415 -0.5445
  644MOL0     H86888   8.417   8.555   5.982  4.5461  3.8992  1.3855
  644MOL0     H86889   8.599   8.655   6.134  1.0035 -1.5380  1.4869
  644MOL0     H86890   8.431   8.676   6.176 -0.6004 -0.0996  0.5230
  644MOL0     H86891   8.722   8.445   6.304 -0.9426 -1.8238 -1.0776
  644MOL0     H86892   8.619   8.352   6.666 -0.0235  1.7035  0.1427
  644MOL0     H86893   8.723   8.286   6.540 -2.8498 -0.5786 -3.1297
  644MOL0     H86894   8.844   8.417   6.738 -1.0124  4.7507  2.9652
  644MOL0     H86895   8.888   8.460   6.568  0.0012  2.3995 -1.0900
  644MOL0     H86896   8.867   8.646   6.748 -0.8527  2.2293  0.5736
  644MOL0     H86897   8.692   8.627   6.743  0.6147 -0.5886  0.5794
  644MOL0     H86898   8.730   8.815   6.598 -1.7598  1.2113 -2.5936
  644MOL0     H86899   8.733   8.675   6.483  1.2269 -0.4405 -0.3291
  644MOL0     H86900   9.120   8.867   6.425  2.8650 -1.8647  1.4016
  644MOL0     H86901   9.293   8.999   6.541  0.7520  0.2106  1.2720
  644MOL0     H86902   9.560   9.291   6.622  1.1393  0.2833  0.1992
  644MOL0     H86903   9.728   9.417   6.738  1.0732 -0.3734  0.1455
  644MOL0     H86904   9.974   9.376   6.939 -0.4420  0.2586  0.5421
  644MOL0     H86905   9.873   9.511   6.875  2.2638  0.8944 -0.0781
  644MOL0     H86906   9.858   9.590   7.108 -0.7338 -0.2125 -1.9759
  644MOL0     H86907   9.964   9.468   7.156 -1.2662 -2.1387 -0.7522
  644MOL0     H86908  10.148   9.541   7.001 -1.5301 -0.5578 -0.4636
  644MOL0     H86909  10.043   9.672   6.944 -2.2938  2.0355  0.6731
  644MOL0     H86910  10.118   9.644   7.235 -0.5221 -0.3554  0.2768
  644MOL0     H86911  10.009   9.764   7.170 -0.8269  0.3279 -0.4882
  644MOL0     H86912  10.226   9.846   7.027  1.3115 -3.0181 -1.7864
  644MOL0     H86913  10.308   9.711   7.109  1.2035  1.9989  0.8942
  644MOL0     H86914  10.206   9.963   7.248  0.4197  0.0602  0.7644
  644MOL0     H86915  10.264   9.818   7.336 -1.1211  2.0854  0.0613
  644MOL0     H86916  10.428   9.992   7.155  0.4929 -2.2032 -1.1546
  644MOL0     H86917  10.462   9.829   7.202  0.7682  1.0939 -3.3032
  644MOL0     H86918  10.457   9.904   7.442  0.9766  1.0884  0.8995
  644MOL0     H86919  10.579   9.974   7.335  0.0531  1.1169 -0.5199
  644MOL0     H86920   9.610   9.213   7.110  3.4697  2.4828  0.7858
  644MOL0     H86921   9.437   9.104   6.989  0.2794 -2.7482 -3.2203
  644MOL0     H86922   9.031   9.020   6.875 -4.6414  1.2297 -1.8802
  644MOL0     H86923   8.876   8.877   6.771 -0.7132  3.1434  0.1537
  644MOL0     H86924   9.384   8.314   5.814 -2.9046  0.2823  1.0774
  644MOL0     H86925   9.612   8.280   5.914 -0.0850  2.9722  0.0036
  644MOL0     H86926   9.864   7.914   5.961  0.4085  2.6739 -1.7177
  644MOL0     H86927  10.103   7.855   5.980  0.4767 -0.8955  0.7731
  644MOL0     H86928  10.347   7.896   5.986  1.4398  0.3158 -0.6827
  644MOL0     H86929  10.278   7.789   6.121  1.9576  0.0215  4.4565
  644MOL0     H86930  10.500   7.742   6.103 -1.8188 -0.9150 -0.2059
  644MOL0     H86931  10.478   7.813   6.261 -1.6454  2.2689  0.8561
  644MOL0     H86932  10.536   8.040   6.161  0.6951 -1.1445  2.8429
  644MOL0     H86933  10.600   7.946   6.022  2.4806 -0.3140  0.4194
  644MOL0     H86934  10.724   7.811   6.204 -0.4867  0.2936 -0.1633
  644MOL0     H86935  10.788   7.956   6.149  0.8450 -0.4850  1.0549
  644MOL0     H86936  10.734   8.040   6.558  1.7399  0.5321 -0.1867
  644MOL0     H86937  10.157   8.156   6.272  0.4122  1.6623 -1.8211
  644MOL0     H86938   9.963   8.267   6.385 -1.3307 -0.8342  1.5245
  644MOL0     H86939   9.841   8.314   6.264 -1.4143 -0.0341  0.3306
  644MOL0     H86940   9.817   8.182   6.372 -0.1412  0.5097 -0.5168
  645MOL0     O86941   0.805   8.921   7.258 -0.2203 -0.0658  0.4886
  645MOL0     C86942   0.749   9.026   7.239  0.7076  0.1693 -0.6007
  645MOL0     O86943   0.810   9.146   7.221 -0.7752  0.3158  0.0987
  645MOL0     C86944   0.946   9.162   7.228 -0.3599  0.2837  0.2809
  645MOL0     C86945   1.017   9.123   7.340  0.1333  0.8186  0.8817
  645MOL0     C86946   1.153   9.147   7.351  0.3227  0.2093 -0.3185
  645MOL0     C86947   1.214   9.227   7.258  0.1848 -0.2939 -0.1145
  645MOL0     O86948   1.343   9.261   7.277  0.0529  0.1885 -0.3087
  645MOL0     C86949   1.430   9.282   7.167 -0.7010 -0.3251 -0.1226
  645MOL0     C86950   1.557   9.342   7.223 -0.8143  0.2087  0.5124
  645MOL0     C86951   1.630   9.258   7.329 -0.4771  0.7666  1.0408
  645MOL0     C86952   1.708   9.136   7.266 -0.4282 -0.6928 -0.6530
  645MOL0     C86953   1.771   9.049   7.366 -0.2185  0.1712  0.1147
  645MOL0     C86954   1.851   9.121   7.475  0.0206 -0.0543 -0.3999
  645MOL0     C86955   1.942   9.238   7.449  0.7697 -0.3958 -0.2009
  645MOL0     C86956   2.069   9.186   7.386  0.3077  0.0075 -0.3625
  645MOL0     N86957   2.160   9.300   7.357  0.0749  0.5021  0.4890
  645MOL0     C86958   2.130   9.410   7.278  0.3293  0.2491 -0.2446
  645MOL0     C86959   2.244   9.481   7.297 -1.0440 -0.4919 -1.0190
  645MOL0     C86960   2.287   9.612   7.243  0.1106  0.1220 -0.1433
  645MOL0     C86961   2.426   9.595   7.182 -0.3354 -0.0601 -0.6498
  645MOL0     C86962   2.460   9.703   7.072 -0.6484 -0.2333 -0.3057
  645MOL0     C86963   2.584   9.673   6.988  0.3287  0.7689 -0.2082
  645MOL0     O86964   2.698   9.676   7.077  0.0436  0.2990 -0.1958
  645MOL0     C86965   2.821   9.719   7.025 -1.0254 -0.0684 -0.8399
  645MOL0     C86966   2.893   9.781   7.118 -0.5663  0.0215 -0.0387
  645MOL0     C86967   3.020   9.837   7.094 -0.2883 -0.3806  0.4723
  645MOL0     C86968   3.072   9.845   6.967  1.2487 -0.2301 -0.0509
  645MOL0     C86969   3.198   9.921   6.947  0.3757 -0.4010  0.2244
  645MOL0     O86970   3.277   9.889   6.839 -0.0774  0.2575 -0.2390
  645MOL0     C86971   3.386   9.968   6.816 -0.1485  0.3058  0.2852
  645MOL0     C86972   3.512   9.913   6.850  0.0897 -0.4153  0.9370
  645MOL0     C86973   3.630   9.974   6.806 -0.1676 -0.2596 -0.4724
  645MOL0     C86974   3.622  10.103   6.742 -0.1444  0.1855 -0.0050
  645MOL0     O86975   3.737  10.158   6.712  0.3732 -0.6468 -0.0413
  645MOL0     C86976   3.736  10.247   6.594  0.7242  0.1488 -0.7192
  645MOL0     C86977   3.878  10.301   6.579 -0.5572  0.2266 -0.3981
  645MOL0     C86978   3.887  10.433   6.494  0.3568 -0.0272 -0.1842
  645MOL0     C86979   4.023  10.498   6.520  0.4915 -0.7269 -0.0349
  645MOL0     C86980   4.038  10.631   6.450 -0.6300 -0.0475  0.8761
  645MOL0     C86981   4.166  10.703   6.495  0.0832 -0.4728 -0.0695
  645MOL0     C86982   4.197  10.820   6.403 -0.3126 -0.7139 -0.7731
  645MOL0     C86983   4.323  10.883   6.472  0.4969  0.0713  0.4318
  645MOL0    Cl86984   4.467  10.783   6.415 -0.4973  0.3275 -0.1219
  645MOL0     C86985   3.495  10.161   6.727  0.5883  0.6174 -0.1152
  645MOL0     C86986   3.376  10.089   6.753 -0.3303  0.2814 -0.9585
  645MOL0     O86987   3.217  10.020   7.021 -0.6903 -0.4658  0.2951
  645MOL0     C86988   2.989   9.787   6.858  0.0143 -0.9183 -1.1853
  645MOL0     C86989   2.866   9.715   6.891 -1.0004  0.3142 -0.3683
  645MOL0     N86990   2.331   9.411   7.376  0.1033 -0.8272  0.0577
  645MOL0     N86991   2.276   9.303   7.415 -0.3078  0.4517  0.4946
  645MOL0     C86992   1.146   9.272   7.145 -0.7173  0.6018 -0.5293
  645MOL0     C86993   1.015   9.239   7.131 -0.7347  0.0623 -0.3788
  645MOL0     C86994   0.608   9.010   7.206  0.5717 -0.3274  0.0018
  645MOL0     C86995   0.534   8.923   7.285  0.3097  0.4859 -0.1041
  645MOL0     C86996   0.396   8.902   7.254  0.2500 -0.5547  0.1647
  645MOL0     C86997   0.329   8.976   7.157  0.0125 -0.6266  0.4341
  645MOL0     O86998   0.190   8.948   7.133  0.2249 -0.4862  0.2254
  645MOL0     C86999   0.121   9.030   7.041  0.2296  0.0027 -1.1199
  645MOL0     C87000   0.095   9.172   7.101  0.7859  0.3485  0.4081
  645MOL0     C87001   0.018   9.253   6.991  0.1952 -0.6378 -0.1887
  645MOL0     C87002   0.106   9.373   6.938 -0.3862 -0.0239 -0.3957
  645MOL0     C87003   0.230   9.339   6.869  0.0192  0.0919  0.5046
  645MOL0     C87004   0.337   9.328   6.811 -0.8683  0.7144 -0.1885
  645MOL0     C87005   0.408   9.068   7.086  0.1678 -0.1326 -0.1433
  645MOL0     C87006   0.546   9.084   7.106 -0.6563  0.0164 -0.2581
  645MOL0     C87007   0.620   9.166   7.012  0.2420  0.7723  0.6255
  645MOL0     H87008   0.961   9.070   7.416 -0.0042  1.5807  1.3282
  645MOL0     H87009   1.206   9.115   7.440  0.8635  1.8062 -0.0259
  645MOL0     H87010   1.451   9.192   7.108 -1.3792 -1.3438  1.1316
  645MOL0     H87011   1.387   9.350   7.093  0.1366  0.1615 -0.1793
  645MOL0     H87012   1.552   9.441   7.269  1.9621 -0.0401  1.5483
  645MOL0     H87013   1.633   9.354   7.144 -0.1061 -4.8909  0.1006
  645MOL0     H87014   1.560   9.218   7.403 -2.9625  0.4785 -1.3169
  645MOL0     H87015   1.690   9.333   7.382 -3.0942  2.9948  1.0326
  645MOL0     H87016   1.637   9.071   7.215 -0.7931 -0.8196  0.0048
  645MOL0     H87017   1.786   9.179   7.203 -1.5781  0.6950 -1.1930
  645MOL0     H87018   1.697   8.976   7.403  0.0030 -0.3819 -0.5095
  645MOL0     H87019   1.838   8.979   7.315  0.0136 -0.2567  0.9814
  645MOL0     H87020   1.782   9.154   7.553  0.3892 -2.5551  1.0865
  645MOL0     H87021   1.920   9.055   7.530 -0.7814  2.0168  3.4472
  645MOL0     H87022   1.962   9.300   7.537  0.6226 -0.3480 -0.2012
  645MOL0     H87023   1.901   9.304   7.372  0.6406 -0.3738 -0.1141
  645MOL0     H87024   2.119   9.117   7.454 -0.7628 -0.9170 -0.4898
  645MOL0     H87025   2.055   9.132   7.291  2.5556  0.8182 -1.2184
  645MOL0     H87026   2.036   9.431   7.230  2.0085  4.5065 -2.2304
  645MOL0     H87027   2.215   9.636   7.164 -3.2850  2.4651  3.2760
  645MOL0     H87028   2.288   9.694   7.316  3.5466 -0.5007  0.7055
  645MOL0     H87029   2.498   9.587   7.263 -2.1560 -0.9471  0.9616
  645MOL0     H87030   2.428   9.500   7.128 -1.2699  0.3149 -1.3971
  645MOL0     H87031   2.463   9.799   7.122 -2.1343 -1.6981  2.8763
  645MOL0     H87032   2.375   9.711   7.004 -2.7446 -0.8565  2.0941
  645MOL0     H87033   2.590   9.760   6.922  0.1269  1.9498  1.2937
  645MOL0     H87034   2.587   9.587   6.920  0.9551 -0.1404  0.9441
  645MOL0     H87035   2.870   9.769   7.224  3.1938 -0.9709  0.8161
  645MOL0     H87036   3.079   9.863   7.181  0.1458 -1.6339  0.5710
  645MOL0     H87037   3.536   9.817   6.894  2.3609  0.3014  1.3551
  645MOL0     H87038   3.724   9.922   6.818 -0.8154 -1.5631 -0.9099
  645MOL0     H87039   3.703  10.198   6.502  1.8979 -2.3017  0.0785
  645MOL0     H87040   3.671  10.334   6.601  1.2588  0.5435 -0.5998
  645MOL0     H87041   3.915  10.310   6.681 -2.8995  0.9842  0.4453
  645MOL0     H87042   3.932  10.221   6.528 -2.2582 -0.2328 -1.5905
  645MOL0     H87043   3.872  10.426   6.386  3.2118 -1.5760 -0.5864
  645MOL0     H87044   3.812  10.504   6.529  0.0955 -0.1555 -0.4798
  645MOL0     H87045   4.103  10.430   6.490 -0.1275 -3.6916  4.2457
  645MOL0     H87046   4.039  10.512   6.627 -0.5241 -0.9995  0.1638
  645MOL0     H87047   3.946  10.690   6.458  0.0276  0.9421  1.3899
  645MOL0     H87048   4.053  10.618   6.343  0.9013  0.1619  1.0375
  645MOL0     H87049   4.165  10.737   6.599  2.8091  0.7866 -0.3741
  645MOL0     H87050   4.249  10.632   6.484  1.7736  1.5504 -1.1808
  645MOL0     H87051   4.120  10.898   6.406  1.8884  1.6647  3.1010
  645MOL0     H87052   4.217  10.784   6.302 -1.0780  0.7394 -1.4696
  645MOL0     H87053   4.335  10.989   6.450 -2.2475 -0.0316 -2.2289
  645MOL0     H87054   4.320  10.866   6.580 -0.5081 -0.5392  0.3209
  645MOL0     H87055   3.491  10.259   6.679  0.8605 -0.3578 -2.2427
  645MOL0     H87056   3.278  10.132   6.737 -0.9225 -0.8559 -0.5404
  645MOL0     H87057   3.007   9.798   6.752  1.2691  0.4788 -0.8570
  645MOL0     H87058   2.805   9.673   6.812 -1.4459  2.7771 -1.4110
  645MOL0     H87059   1.184   9.336   7.066 -0.1329 -0.1364 -0.8563
  645MOL0     H87060   0.952   9.282   7.054 -1.2000  1.3794  0.6879
  645MOL0     H87061   0.581   8.870   7.367  1.0102  1.5162  0.1708
  645MOL0     H87062   0.349   8.830   7.321 -2.4327 -0.8293 -1.8606
  645MOL0     H87063   0.025   8.980   7.026 -0.1528 -0.4129  1.9142
  645MOL0     H87064   0.179   9.044   6.950  0.6361 -2.6975 -1.3564
  645MOL0     H87065   0.185   9.227   7.128 -0.3427  1.8357  1.2918
  645MOL0     H87066   0.033   9.177   7.191  0.1328  0.5288 -0.0400
  645MOL0     H87067  -0.078   9.298   7.018  0.3826  0.1037 -0.7284
  645MOL0     H87068   0.006   9.192   6.900  0.2905  0.7218 -1.1451
  645MOL0     H87069   0.046   9.431   6.868 -0.2477  1.1866  0.4689
  645MOL0     H87070   0.130   9.440   7.021 -1.2991  1.1560 -1.0632
  645MOL0     H87071   0.423   9.340   6.747 -0.8396 -1.6252 -0.6942
  645MOL0     H87072   0.366   9.134   7.011 -0.3849  1.8781  1.8236
  645MOL0     H87073   0.567   9.192   6.919 -1.8028  0.2316  1.5810
  645MOL0     H87074   0.632   9.258   7.069  0.8161  0.9161  0.2839
  645MOL0     H87075   0.717   9.125   6.984  0.7785  2.5690 -0.2586
  646MOL0     O87076   8.505  10.894   1.482 -0.0955 -0.0787  0.7890
  646MOL0     C87077   8.462  10.799   1.546  0.2749 -0.1088 -0.3258
  646MOL0     O87078   8.523  10.746   1.659  0.2696 -0.1105  0.4685
  646MOL0     C87079   8.658  10.772   1.678 -0.0394  0.4339 -0.1758
  646MOL0     C87080   8.760  10.770   1.581  0.3426  0.4651  0.3108
  646MOL0     C87081   8.893  10.788   1.613 -0.2103 -0.0497  1.0734
  646MOL0     C87082   8.934  10.805   1.738  0.5000  0.4005 -0.2761
  646MOL0     O87083   9.066  10.835   1.750 -0.1021  0.2872  0.3553
  646MOL0     C87084   9.102  10.920   1.849  0.1809 -0.4790 -0.1360
  646MOL0     C87085   9.254  10.958   1.836  0.2262 -0.2030  0.1062
  646MOL0     C87086   9.339  10.843   1.868 -0.5920  0.0832  0.7199
  646MOL0     C87087   9.483  10.902   1.859  0.4799 -0.1644  0.0517
  646MOL0     C87088   9.587  10.797   1.881 -0.2161  0.4240  0.1032
  646MOL0     C87089   9.732  10.864   1.892  0.5994  0.0744 -0.4902
  646MOL0     C87090   9.739  10.943   2.021 -0.7130 -0.0479  0.1766
  646MOL0     C87091   9.886  10.956   2.090  0.9516  0.0861  0.0380
  646MOL0     N87092   9.966  11.073   2.050  0.3310  0.7707 -0.0638
  646MOL0     C87093   9.991  11.116   1.921  0.4893  0.6705 -0.2165
  646MOL0     C87094  10.082  11.214   1.934  0.6138  0.4946  0.0649
  646MOL0     C87095  10.144  11.280   1.809 -0.8410 -0.4550 -0.4199
  646MOL0     C87096  10.288  11.321   1.828 -0.1283 -0.7859  0.2470
  646MOL0     C87097  10.291  11.454   1.905  0.0296  0.8302  1.1401
  646MOL0     C87098  10.434  11.503   1.876  0.2018  0.4948 -0.3509
  646MOL0     O87099  10.449  11.620   1.961 -0.2206 -0.5815 -0.6812
  646MOL0     C87100  10.550  11.712   1.933 -0.7368  0.8957 -0.6782
  646MOL0     C87101  10.665  11.679   1.858  0.0432 -0.0876  0.8536
  646MOL0     C87102  10.766  11.765   1.834  0.3018  1.3699  0.1651
  646MOL0     C87103  10.770  11.889   1.890  0.2983  0.2055  0.1345
  646MOL0     C87104  10.878  11.975   1.861 -0.5246 -1.1228 -0.1195
  646MOL0     O87105  10.944  11.960   1.739  0.0030 -0.1689 -0.0253
  646MOL0     C87106  11.061  12.037   1.729  0.0852 -0.2938 -0.0901
  646MOL0     C87107  11.075  12.134   1.631 -0.0650  0.6168  0.1064
  646MOL0     C87108  11.195  12.203   1.620 -0.2213 -0.3421  0.3030
  646MOL0     C87109  11.303  12.182   1.709  0.3981 -0.4509  0.7202
  646MOL0     O87110  11.425  12.245   1.703 -0.4919 -0.3817  0.2611
  646MOL0     C87111  11.434  12.377   1.641  0.4196 -0.1586 -0.9243
  646MOL0     C87112  11.576  12.422   1.657 -0.4166 -0.1019  1.2097
  646MOL0     C87113  11.669  12.352   1.563 -0.4422 -0.1814 -0.3748
  646MOL0     C87114  11.812  12.399   1.606  0.6652  0.0887  1.3700
  646MOL0     C87115  11.928  12.342   1.534 -0.0742  0.7237  0.1571
  646MOL0     C87116  11.929  12.372   1.388  0.1093  0.2616 -0.1807
  646MOL0     C87117  11.999  12.270   1.294  0.0749 -0.0781  0.1971
  646MOL0     C87118  12.154  12.261   1.336  0.6420 -0.1214 -0.5974
  646MOL0    Cl87119  12.239  12.409   1.280 -0.2605 -0.8289  0.2151
  646MOL0     C87120  11.291  12.081   1.801  0.4748 -0.3122  0.2489
  646MOL0     C87121  11.171  12.014   1.813  0.8354  0.0164  0.4438
  646MOL0     O87122  10.900  12.065   1.946 -0.1948  0.1420 -0.5423
  646MOL0     C87123  10.659  11.923   1.972  0.2433 -0.6358  0.0554
  646MOL0     C87124  10.546  11.840   1.992  0.1575  1.3217 -0.1709
  646MOL0     N87125  10.115  11.222   2.066 -0.1829 -0.0479  0.0028
  646MOL0     N87126  10.039  11.150   2.134  0.1538 -0.0524 -0.2754
  646MOL0     C87127   8.840  10.800   1.846  0.3654  0.0738 -0.3371
  646MOL0     C87128   8.704  10.771   1.813 -1.2660  0.0095 -0.1427
  646MOL0     C87129   8.331  10.735   1.506  0.4791 -1.0633 -0.3803
  646MOL0     C87130   8.310  10.602   1.536  0.2724 -0.0885 -0.1443
  646MOL0     C87131   8.203  10.527   1.491 -0.2841  0.2059 -0.2446
  646MOL0     C87132   8.099  10.582   1.414  0.8730  0.2681 -0.4190
  646MOL0     O87133   7.993  10.499   1.377  0.3313  0.0995  0.2837
  646MOL0     C87134   7.872  10.555   1.316 -0.8942  0.9519  0.3454
  646MOL0     C87135   7.772  10.573   1.427  0.3591  0.0537  0.2436
  646MOL0     C87136   7.734  10.448   1.503  0.1727 -0.1044  0.0924
  646MOL0     C87137   7.661  10.337   1.417  0.5287 -0.0054 -0.3611
  646MOL0     C87138   7.528  10.385   1.388 -0.2863  0.3560 -0.6511
  646MOL0     C87139   7.417  10.427   1.372  0.1365  0.1158  0.1306
  646MOL0     C87140   8.107  10.725   1.395 -1.3125 -0.5048  0.3278
  646MOL0     C87141   8.230  10.804   1.428 -0.4518  0.4098  0.6136
  646MOL0     C87142   8.228  10.952   1.391 -0.7230 -0.2268 -0.1228
  646MOL0     H87143   8.735  10.755   1.477  0.7241 -0.2362  0.3148
  646MOL0     H87144   8.960  10.783   1.528 -2.4369  0.4454 -0.8215
  646MOL0     H87145   9.047  11.012   1.827  0.6917 -0.3687 -0.9959
  646MOL0     H87146   9.088  10.872   1.946  3.1377 -0.7242  0.2704
  646MOL0     H87147   9.271  11.039   1.908 -1.5510  0.0584  0.2672
  646MOL0     H87148   9.281  10.980   1.732  0.3777 -2.8153 -0.4816
  646MOL0     H87149   9.320  10.755   1.805 -0.5881  0.1399  0.6411
  646MOL0     H87150   9.317  10.808   1.969 -0.2073  0.9487  1.1129
  646MOL0     H87151   9.497  10.951   1.762  0.7017 -0.5795 -0.1298
  646MOL0     H87152   9.488  10.983   1.933  0.2764 -0.2897  0.2019
  646MOL0     H87153   9.568  10.736   1.970  2.0804 -0.1876  0.2505
  646MOL0     H87154   9.590  10.730   1.794  1.4033 -0.8805  1.1006
  646MOL0     H87155   9.793  10.774   1.903  0.2054  0.0397  2.1329
  646MOL0     H87156   9.765  10.934   1.815 -2.5339  1.7002 -0.5151
  646MOL0     H87157   9.674  10.893   2.094 -3.0923 -0.3334 -2.0128
  646MOL0     H87158   9.703  11.046   2.011 -1.1855 -0.4178 -2.9255
  646MOL0     H87159   9.864  10.947   2.196 -0.2042 -0.4631 -0.2331
  646MOL0     H87160   9.941  10.868   2.056 -0.9851 -1.4385  0.7004
  646MOL0     H87161   9.946  11.077   1.830  2.3468 -0.1979 -0.8093
  646MOL0     H87162  10.146  11.208   1.726  1.7962  0.5399 -1.3286
  646MOL0     H87163  10.079  11.360   1.774 -2.7848 -0.9331  1.8234
  646MOL0     H87164  10.342  11.245   1.885  0.6467  0.3266  1.0467
  646MOL0     H87165  10.332  11.329   1.728  1.1772 -1.0987  0.7735
  646MOL0     H87166  10.272  11.438   2.012  1.2999 -1.2197  1.1215
  646MOL0     H87167  10.218  11.528   1.872 -2.6632 -1.4581  1.5696
  646MOL0     H87168  10.457  11.529   1.772  2.5014  1.4711  0.3449
  646MOL0     H87169  10.504  11.421   1.897  0.0291  0.2004 -0.8988
  646MOL0     H87170  10.680  11.582   1.811 -0.3955  0.3161 -0.1651
  646MOL0     H87171  10.846  11.731   1.769  0.4861  2.7929 -0.3806
  646MOL0     H87172  10.988  12.146   1.567  0.7584 -3.2584 -2.1020
  646MOL0     H87173  11.190  12.289   1.554 -0.7414 -0.9682 -0.5004
  646MOL0     H87174  11.398  12.367   1.538 -2.0210  1.8582 -0.3555
  646MOL0     H87175  11.373  12.450   1.695 -1.6816 -2.4045 -0.0666
  646MOL0     H87176  11.582  12.526   1.623 -2.4877  0.3357  2.0402
  646MOL0     H87177  11.607  12.416   1.762  0.0203 -2.5615  0.9953
  646MOL0     H87178  11.654  12.245   1.580 -3.2524  0.3984  1.5374
  646MOL0     H87179  11.649  12.381   1.459  2.1601  1.6908 -0.4660
  646MOL0     H87180  11.822  12.367   1.710  1.2434 -1.5475  0.8513
  646MOL0     H87181  11.816  12.508   1.604 -0.9564  0.2904 -3.4973
  646MOL0     H87182  11.919  12.233   1.547  2.4427 -0.0128 -2.8490
  646MOL0     H87183  12.022  12.366   1.584  0.2726 -3.5520  1.9849
  646MOL0     H87184  11.823  12.388   1.363  0.2886 -0.2922 -1.3935
  646MOL0     H87185  11.982  12.468   1.384 -0.3617  0.5166 -0.3487
  646MOL0     H87186  11.975  12.289   1.190 -0.6111 -1.0441  0.1647
  646MOL0     H87187  11.954  12.171   1.311  2.2732 -1.6593 -2.3695
  646MOL0     H87188  12.153  12.258   1.445 -3.0415  0.4246 -0.4961
  646MOL0     H87189  12.201  12.172   1.291 -0.2658  0.7640 -3.5223
  646MOL0     H87190  11.373  12.042   1.860 -0.1488 -2.5117 -0.2608
  646MOL0     H87191  11.157  11.931   1.881 -0.1551 -0.8563 -0.7741
  646MOL0     H87192  10.655  12.023   2.014 -1.9745  0.1878 -1.8524
  646MOL0     H87193  10.461  11.881   2.046  0.5141  0.3427  1.1792
  646MOL0     H87194   8.870  10.827   1.947  0.9012 -0.3267 -0.3842
  646MOL0     H87195   8.634  10.772   1.896 -0.7909 -0.6447  0.2792
  646MOL0     H87196   8.395  10.552   1.583  1.6342  1.7560 -0.5065
  646MOL0     H87197   8.193  10.425   1.529  2.6467  0.3139  1.0588
  646MOL0     H87198   7.825  10.491   1.241  0.3444  0.8066 -0.3174
  646MOL0     H87199   7.912  10.643   1.266  0.2668  0.1937 -0.0781
  646MOL0     H87200   7.679  10.619   1.393 -0.3284 -0.2365  1.6481
  646MOL0     H87201   7.816  10.636   1.505 -1.9593 -0.9695  2.4949
  646MOL0     H87202   7.673  10.474   1.589 -2.3862  0.8658 -1.8778
  646MOL0     H87203   7.824  10.409   1.552  0.4446 -1.2292 -1.2387
  646MOL0     H87204   7.714  10.307   1.327 -0.2439 -2.5818 -0.0170
  646MOL0     H87205   7.651  10.250   1.483  0.2546 -0.0394 -0.4501
  646MOL0     H87206   7.313  10.443   1.356 -0.0410 -0.9303  0.1283
  646MOL0     H87207   8.032  10.778   1.337 -0.7400 -1.9900 -1.8963
  646MOL0     H87208   8.147  10.971   1.320  1.6711  2.7055 -2.3496
  646MOL0     H87209   8.207  11.007   1.483  0.1975 -2.5499  1.5915
  646MOL0     H87210   8.319  10.989   1.342 -1.2061 -1.2974 -1.9364
  647MOL0     O87211   9.663   0.496   2.939 -0.2404 -0.8111 -0.6389
  647MOL0     C87212   9.623   0.387   2.966  0.6639 -0.4408 -0.0692
  647MOL0     O87213   9.695   0.288   3.024 -0.5759 -0.1312 -0.0311
  647MOL0     C87214   9.826   0.289   3.030  0.2929 -0.5161 -0.3054
  647MOL0     C87215   9.894   0.175   3.016 -0.0653  0.4246  0.2176
  647MOL0     C87216  10.036   0.172   3.037 -0.4081  0.4709  0.5286
  647MOL0     C87217  10.110   0.285   3.073  0.6360  0.5432 -0.6140
  647MOL0     O87218  10.243   0.266   3.095  0.3454  0.3049  0.1707
  647MOL0     C87219  10.326   0.347   3.009 -0.5136  1.2320  0.4083
  647MOL0     C87220  10.471   0.301   3.008 -0.9161 -0.3147 -0.5122
  647MOL0     C87221  10.482   0.198   2.900  1.0771 -0.1977  0.2840
  647MOL0     C87222  10.587   0.096   2.931 -0.1667 -0.6329 -0.3180
  647MOL0     C87223  10.731   0.153   2.922  0.2291  0.4322  0.1351
  647MOL0     C87224  10.777   0.226   2.797 -1.4009 -0.4704  0.3725
  647MOL0     C87225  10.773   0.142   2.674  0.5189  0.0274  0.1503
  647MOL0     C87226  10.833   0.227   2.558  0.5417 -0.1861  0.3654
  647MOL0     N87227  10.982   0.257   2.559 -0.5676  1.1583  0.4941
  647MOL0     C87228  11.077   0.169   2.503 -0.0706 -0.5555  0.2107
  647MOL0     C87229  11.193   0.243   2.505 -1.0589  0.7051  0.1703
  647MOL0     C87230  11.331   0.196   2.454 -0.2377  0.8074  1.2769
  647MOL0     C87231  11.445   0.306   2.443 -0.3674  0.1020 -0.2156
  647MOL0     C87232  11.565   0.259   2.352  0.5931  0.4058  0.3653
  647MOL0     C87233  11.690   0.341   2.363 -0.4597  1.6730  0.1415
  647MOL0     O87234  11.751   0.308   2.486  0.5148 -0.5285  0.8247
  647MOL0     C87235  11.874   0.366   2.501  0.5248 -0.6513 -0.4733
  647MOL0     C87236  11.933   0.473   2.424  0.0861  0.2317  0.3282
  647MOL0     C87237  12.065   0.513   2.438 -0.4416 -0.3677 -0.3344
  647MOL0     C87238  12.156   0.438   2.512  0.5603  0.3467  0.5288
  647MOL0     C87239  12.305   0.471   2.511  0.9372 -0.3184  0.3497
  647MOL0     O87240  12.369   0.445   2.624 -0.0397 -0.6426 -0.8264
  647MOL0     C87241  12.496   0.491   2.633  0.5597  0.1318 -0.0104
  647MOL0     C87242  12.586   0.392   2.655  0.3980  0.2110 -0.0912
  647MOL0     C87243  12.718   0.415   2.682 -0.0630  0.3426 -0.2575
  647MOL0     C87244  12.766   0.548   2.665  1.5853 -0.5832  0.8935
  647MOL0     O87245  12.900   0.570   2.665 -0.5843  0.2577 -0.5919
  647MOL0     C87246  12.954   0.699   2.687 -0.1378 -0.4459 -0.5067
  647MOL0     C87247  13.103   0.657   2.716  0.8397 -0.3289 -0.3724
  647MOL0     C87248  13.188   0.605   2.603 -0.3924 -0.8234 -0.1286
  647MOL0     C87249  13.225   0.721   2.511 -0.5026  0.2505 -0.7150
  647MOL0     C87250  13.353   0.682   2.429  0.0703  0.7899 -0.0089
  647MOL0     C87251  13.389   0.805   2.336 -0.0592  0.2555  0.2990
  647MOL0     C87252  13.527   0.811   2.277 -0.3865  0.3644  0.1947
  647MOL0     C87253  13.533   0.893   2.156 -0.2220  0.0978 -0.7309
  647MOL0    Cl87254  13.498   1.071   2.187 -0.2295  0.2693  0.2842
  647MOL0     C87255  12.673   0.656   2.641 -0.1876  0.0919 -0.7922
  647MOL0     C87256  12.537   0.625   2.626 -1.1649  0.0647  0.1796
  647MOL0     O87257  12.352   0.512   2.405  0.6386 -0.2145 -0.0058
  647MOL0     C87258  12.095   0.335   2.592 -0.7553 -0.2630 -0.3128
  647MOL0     C87259  11.958   0.301   2.585  0.7142 -0.2074 -0.2833
  647MOL0     N87260  11.167   0.365   2.562  0.4608  0.0472  0.0471
  647MOL0     N87261  11.047   0.370   2.595  0.1152 -1.0299  0.7487
  647MOL0     C87262  10.036   0.403   3.097 -0.4554  0.4163  0.2651
  647MOL0     C87263   9.896   0.402   3.078  0.8638  0.0748  0.0259
  647MOL0     C87264   9.476   0.359   2.927  0.7182  0.5561 -0.4589
  647MOL0     C87265   9.409   0.443   2.831 -0.1782  0.9148  0.8997
  647MOL0     C87266   9.279   0.421   2.802  0.5627 -0.5851  0.3242
  647MOL0     C87267   9.209   0.316   2.859  0.0869  0.6873 -0.1498
  647MOL0     O87268   9.075   0.287   2.821  0.3758 -0.2095  0.3864
  647MOL0     C87269   9.010   0.163   2.859 -0.3111  0.3471  0.1243
  647MOL0     C87270   9.069   0.052   2.778 -0.4534 -0.3207 -0.9115
  647MOL0     C87271   9.030  -0.086   2.835  0.2700 -0.1089 -0.9466
  647MOL0     C87272   9.057  -0.210   2.736  0.7207  0.2576 -0.8530
  647MOL0     C87273   9.198  -0.228   2.718 -1.2349 -0.0508 -0.1042
  647MOL0     C87274   9.313  -0.222   2.704 -0.8009 -0.4743  0.9327
  647MOL0     C87275   9.273   0.245   2.964  0.2344 -0.2771  1.1424
  647MOL0     C87276   9.399   0.267   3.008 -0.1020 -0.1841  0.3346
  647MOL0     C87277   9.440   0.183   3.118 -0.3128 -0.1484 -1.3435
  647MOL0     H87278   9.842   0.088   2.977  1.1821 -0.3099  0.1415
  647MOL0     H87279  10.093   0.079   3.032  1.6972  1.7143  0.0883
  647MOL0     H87280  10.289   0.335   2.906 -1.5252  0.8916  0.7942
  647MOL0     H87281  10.325   0.455   3.029 -3.0185  0.7982  3.3878
  647MOL0     H87282  10.502   0.275   3.110 -1.7175  0.4336 -0.0757
  647MOL0     H87283  10.527   0.391   2.981 -1.7678  0.6334  0.8262
  647MOL0     H87284  10.488   0.246   2.803 -0.6120 -2.4194 -1.0308
  647MOL0     H87285  10.388   0.142   2.900 -0.0955  1.6587 -1.3498
  647MOL0     H87286  10.576   0.062   3.035  0.5366 -0.9053 -0.3270
  647MOL0     H87287  10.558   0.007   2.874 -2.0215  0.2056 -0.7433
  647MOL0     H87288  10.734   0.227   3.003 -1.2251  0.1609  0.4827
  647MOL0     H87289  10.800   0.075   2.954  0.4867  0.5103 -0.2267
  647MOL0     H87290  10.706   0.307   2.776 -2.0073 -1.5900 -2.3537
  647MOL0     H87291  10.875   0.271   2.815 -1.5002  0.3420 -0.9457
  647MOL0     H87292  10.672   0.115   2.641  1.2718  0.1462 -2.4626
  647MOL0     H87293  10.823   0.045   2.685 -2.6531 -1.6116  1.7716
  647MOL0     H87294  10.801   0.162   2.477 -1.8028 -0.4735  1.4532
  647MOL0     H87295  10.778   0.321   2.549  0.6894 -0.1312  0.0262
  647MOL0     H87296  11.065   0.068   2.464 -0.1594 -0.0930 -1.0009
  647MOL0     H87297  11.370   0.118   2.519 -0.6591  0.1378  0.7332
  647MOL0     H87298  11.320   0.158   2.352  0.7695  0.2478  1.3649
  647MOL0     H87299  11.408   0.404   2.409 -1.6316  0.5976  2.3671
  647MOL0     H87300  11.483   0.323   2.544 -1.4674  1.2131  0.0428
  647MOL0     H87301  11.535   0.269   2.247 -0.7560 -0.0496  0.6843
  647MOL0     H87302  11.586   0.153   2.367  0.2338  0.3891  0.7686
  647MOL0     H87303  11.678   0.450   2.360  3.1435  2.1826  0.4609
  647MOL0     H87304  11.751   0.326   2.274 -0.5965  0.3266  0.2613
  647MOL0     H87305  11.867   0.523   2.355  1.0042  1.0804  0.0305
  647MOL0     H87306  12.103   0.598   2.383  0.9158  0.0746  1.2110
  647MOL0     H87307  12.545   0.293   2.672  1.9354 -0.3794  0.3509
  647MOL0     H87308  12.795   0.340   2.699  0.8667  1.1716 -0.7143
  647MOL0     H87309  12.956   0.760   2.596  0.8338  2.5099  1.3325
  647MOL0     H87310  12.897   0.757   2.760 -2.0769 -1.5172 -1.1276
  647MOL0     H87311  13.144   0.755   2.738 -0.4886  0.0398  0.5988
  647MOL0     H87312  13.102   0.597   2.808  0.3728  0.4252  0.1212
  647MOL0     H87313  13.280   0.556   2.638  0.1507 -2.1338 -3.0261
  647MOL0     H87314  13.123   0.534   2.551 -1.0928 -1.3361  1.3963
  647MOL0     H87315  13.254   0.808   2.571 -0.0276 -0.8690  0.7223
  647MOL0     H87316  13.138   0.747   2.451 -2.3825 -0.6660  1.4779
  647MOL0     H87317  13.331   0.591   2.373  1.7859  0.9448 -1.0185
  647MOL0     H87318  13.433   0.659   2.500  1.5654  1.1580 -1.5112
  647MOL0     H87319  13.307   0.810   2.263 -0.9101 -0.3367  1.1860
  647MOL0     H87320  13.382   0.890   2.404  0.0443  1.5664 -1.2682
  647MOL0     H87321  13.560   0.713   2.240  0.5096 -0.1231  2.1680
  647MOL0     H87322  13.600   0.841   2.353  1.0824  0.1635 -1.0761
  647MOL0     H87323  13.638   0.890   2.125  0.6105  2.7835  1.4108
  647MOL0     H87324  13.460   0.848   2.088 -1.1521  0.3073  0.0979
  647MOL0     H87325  12.712   0.756   2.624 -1.9440  1.4389  2.1260
  647MOL0     H87326  12.453   0.690   2.606 -1.4279 -0.0270  0.9390
  647MOL0     H87327  12.160   0.281   2.659 -1.6879  0.7485  1.4954
  647MOL0     H87328  11.919   0.217   2.642 -0.5282 -0.1089 -0.9696
  647MOL0     H87329  10.085   0.493   3.133  1.1102  0.2737 -1.3208
  647MOL0     H87330   9.840   0.490   3.107  1.3356  0.3085  0.2330
  647MOL0     H87331   9.462   0.530   2.795  4.8383 -1.7825  0.9287
  647MOL0     H87332   9.224   0.491   2.740  1.0144  0.9261  1.5863
  647MOL0     H87333   8.902   0.165   2.842 -0.0476 -1.4092 -2.1107
  647MOL0     H87334   9.021   0.148   2.967 -1.5941  3.5593  0.8362
  647MOL0     H87335   9.179   0.057   2.771 -0.4248  0.8911 -0.0273
  647MOL0     H87336   9.032   0.071   2.677  2.3987 -3.4676 -2.7711
  647MOL0     H87337   8.921  -0.079   2.837  0.2762 -0.1249  0.2005
  647MOL0     H87338   9.073  -0.097   2.935 -0.9859 -0.4737 -0.4257
  647MOL0     H87339   9.014  -0.299   2.782  0.4703  1.4111  1.2862
  647MOL0     H87340   9.009  -0.193   2.639 -1.2632  1.2759  0.2255
  647MOL0     H87341   9.416  -0.203   2.678 -1.2073  1.0310  0.3228
  647MOL0     H87342   9.218   0.165   3.012 -2.8745  1.0272  0.0415
  647MOL0     H87343   9.441   0.243   3.209 -1.2497 -2.8569  0.5942
  647MOL0     H87344   9.380   0.097   3.149  1.6244 -0.6694  1.3795
  647MOL0     H87345   9.541   0.140   3.114  0.1986  1.0389 -1.4943
  648MOL0     O87346   4.223   2.701   9.859  0.8734  0.3490 -0.0458
  648MOL0     C87347   4.109   2.746   9.829 -0.2614  0.5928 -0.0708
  648MOL0     O87348   4.090   2.825   9.718  0.0233 -0.0733  0.0943
  648MOL0     C87349   4.200   2.858   9.649 -0.1221 -0.0912 -0.1907
  648MOL0     C87350   4.251   2.979   9.674 -0.3382 -0.1130  1.2432
  648MOL0     C87351   4.368   3.019   9.616  0.1721  0.0692  0.6890
  648MOL0     C87352   4.434   2.941   9.525 -0.4772 -0.0825  0.2558
  648MOL0     O87353   4.554   2.995   9.483  0.0674  0.5817  0.2339
  648MOL0     C87354   4.656   2.909   9.431 -0.8013  0.3368 -0.7314
  648MOL0     C87355   4.774   2.997   9.405 -0.1693  0.2392 -0.3556
  648MOL0     C87356   4.893   2.938   9.347 -0.0191  0.2439  0.2275
  648MOL0     C87357   4.886   2.918   9.191 -0.3800  0.4936  0.6180
  648MOL0     C87358   5.014   2.844   9.133 -0.0102 -0.2088  0.7028
  648MOL0     C87359   5.145   2.929   9.154  0.3149 -0.0043 -0.1256
  648MOL0     C87360   5.252   2.885   9.061  0.7306 -0.0629  0.0105
  648MOL0     C87361   5.383   2.959   9.085 -1.2537 -0.5376 -0.5738
  648MOL0     N87362   5.476   2.956   8.973 -0.7542 -0.0175  0.9523
  648MOL0     C87363   5.533   2.840   8.931 -0.3245 -0.5967 -0.6207
  648MOL0     C87364   5.622   2.884   8.831 -1.1950  0.3745 -0.6396
  648MOL0     C87365   5.710   2.792   8.749 -0.2542  0.0085 -0.1808
  648MOL0     C87366   5.866   2.811   8.753  0.3420 -0.4441 -0.3632
  648MOL0     C87367   5.931   2.744   8.641 -0.1877 -0.1066  0.5145
  648MOL0     C87368   6.077   2.773   8.639  0.1137 -0.0720 -0.3110
  648MOL0     O87369   6.111   2.909   8.622  0.5097  0.7353  0.3544
  648MOL0     C87370   6.237   2.948   8.635 -0.3904 -0.3817  0.7278
  648MOL0     C87371   6.260   3.081   8.643  0.2561 -0.4740 -1.0707
  648MOL0     C87372   6.384   3.139   8.662 -0.3061 -0.5029 -0.7196
  648MOL0     C87373   6.491   3.052   8.672 -0.5358  0.3137 -0.1184
  648MOL0     C87374   6.627   3.106   8.687 -1.0634  0.5899  0.9668
  648MOL0     O87375   6.726   3.016   8.703  0.2195  0.2336 -0.2786
  648MOL0     C87376   6.854   3.067   8.696 -0.0020  0.6275  0.2880
  648MOL0     C87377   6.903   3.131   8.812  0.1145 -0.2560 -0.0630
  648MOL0     C87378   7.035   3.176   8.824  0.4312  0.2244 -0.9228
  648MOL0     C87379   7.127   3.135   8.724  0.4395  0.4147  0.0536
  648MOL0     O87380   7.265   3.145   8.728 -0.4376 -0.0060  0.1901
  648MOL0     C87381   7.312   3.056   8.818  0.5872  0.6267 -0.2278
  648MOL0     C87382   7.464   3.063   8.856  0.0705  0.0298  0.3804
  648MOL0     C87383   7.555   3.044   8.731 -0.1911 -0.4091 -0.3365
  648MOL0     C87384   7.694   3.070   8.773  0.0059  0.3033 -0.3165
  648MOL0     C87385   7.793   3.059   8.658 -0.8651  0.0113  0.3418
  648MOL0     C87386   7.928   3.068   8.713 -0.0394  0.7767 -0.3725
  648MOL0     C87387   8.033   3.072   8.604 -0.5855  0.2492 -0.6258
  648MOL0     C87388   8.137   2.957   8.618 -0.0542 -0.2142  0.0779
  648MOL0    Cl87389   8.223   2.968   8.773 -0.3524  0.0256 -0.0908
  648MOL0     C87390   7.076   3.081   8.605  0.7032  0.3518  0.3288
  648MOL0     C87391   6.939   3.046   8.587 -0.4349 -0.5541 -0.7005
  648MOL0     O87392   6.641   3.230   8.685  0.5388 -0.2201  0.5820
  648MOL0     C87393   6.478   2.909   8.661  0.1997  0.7091 -0.0076
  648MOL0     C87394   6.351   2.859   8.638 -0.5972 -0.0103 -0.3851
  648MOL0     N87395   5.622   3.022   8.813  0.4119 -0.6400 -0.5854
  648MOL0     N87396   5.536   3.063   8.902  0.1805  0.0556  0.4119
  648MOL0     C87397   4.380   2.814   9.484  0.5329 -0.4706  0.6205
  648MOL0     C87398   4.266   2.772   9.554 -0.4604  0.0860 -0.4173
  648MOL0     C87399   3.986   2.685   9.883  0.4067 -0.4524 -0.0517
  648MOL0     C87400   3.946   2.552   9.861 -0.5903 -0.2574 -0.1911
  648MOL0     C87401   3.837   2.485   9.919 -0.7985 -0.2982 -0.1467
  648MOL0     C87402   3.766   2.557  10.009  0.3235  0.0778  0.1592
  648MOL0     O87403   3.654   2.516  10.073 -0.3066 -0.6625 -0.2064
  648MOL0     C87404   3.555   2.449   9.990  0.5241 -0.0363  1.1968
  648MOL0     C87405   3.462   2.550   9.934  0.3064 -0.0226  1.2932
  648MOL0     C87406   3.356   2.471   9.852  0.5845 -1.3420  0.1080
  648MOL0     C87407   3.235   2.424   9.937 -0.5964 -0.4573  0.1189
  648MOL0     C87408   3.128   2.372   9.857  0.2111 -0.5896  1.0450
  648MOL0     C87409   3.035   2.325   9.782  0.0612  0.6926 -0.4350
  648MOL0     C87410   3.797   2.693  10.040 -1.0912  0.2325 -0.0563
  648MOL0     C87411   3.904   2.760   9.977  0.0951 -0.0233  0.1298
  648MOL0     C87412   3.923   2.913  10.006  0.5884  0.4498 -0.1208
  648MOL0     H87413   4.198   3.047   9.739 -1.0524 -2.1297  2.9025
  648MOL0     H87414   4.418   3.114   9.633 -0.3076  1.2471 -3.4205
  648MOL0     H87415   4.675   2.828   9.501 -3.1109  0.5611  0.2671
  648MOL0     H87416   4.629   2.864   9.335  0.1108 -1.0224 -0.3780
  648MOL0     H87417   4.807   3.042   9.499  0.7981 -0.5302 -0.3093
  648MOL0     H87418   4.735   3.075   9.338 -1.3102 -0.2336 -0.2667
  648MOL0     H87419   4.910   2.837   9.386  2.8299  1.1374  1.5466
  648MOL0     H87420   4.977   3.007   9.357 -2.6608  3.5367  1.6384
  648MOL0     H87421   4.792   2.865   9.169  1.1312 -2.2789  0.3859
  648MOL0     H87422   4.876   3.016   9.143  2.0324  0.8228  0.6567
  648MOL0     H87423   5.025   2.741   9.167  0.4588 -0.7143 -0.8829
  648MOL0     H87424   5.003   2.837   9.024 -0.0553 -0.4482  0.7214
  648MOL0     H87425   5.124   3.035   9.134  1.6132  0.1661 -0.6974
  648MOL0     H87426   5.186   2.920   9.255 -0.7170  1.6228  0.4876
  648MOL0     H87427   5.209   2.901   8.962  2.3549  1.5190 -0.4857
  648MOL0     H87428   5.270   2.779   9.081  0.1995  0.0732  1.3297
  648MOL0     H87429   5.372   3.060   9.126 -1.8294 -0.6416 -0.4660
  648MOL0     H87430   5.436   2.909   9.166 -0.4781 -0.0829 -0.7888
  648MOL0     H87431   5.526   2.739   8.968  0.4345 -0.3171  0.3238
  648MOL0     H87432   5.697   2.692   8.790  1.0868 -0.0242  0.2190
  648MOL0     H87433   5.680   2.798   8.644  1.9357  0.1212 -0.8463
  648MOL0     H87434   5.880   2.919   8.748 -1.2539 -0.1468  0.8966
  648MOL0     H87435   5.897   2.778   8.853 -1.2256  0.2107  0.3705
  648MOL0     H87436   5.885   2.790   8.554  0.0897  3.4080  2.0353
  648MOL0     H87437   5.923   2.635   8.643 -1.2583 -0.2094 -3.1496
  648MOL0     H87438   6.130   2.713   8.564 -0.3096  0.9771 -1.4880
  648MOL0     H87439   6.110   2.748   8.740 -0.3324  1.1199  0.1428
  648MOL0     H87440   6.181   3.155   8.631  0.1823 -0.9870 -5.0518
  648MOL0     H87441   6.407   3.245   8.662 -0.5256 -0.3959  2.1682
  648MOL0     H87442   6.840   3.134   8.901 -0.0693 -1.9315 -0.0965
  648MOL0     H87443   7.074   3.218   8.916  3.3929 -3.8293 -0.0474
  648MOL0     H87444   7.264   3.070   8.916 -0.8291 -0.7681 -0.6777
  648MOL0     H87445   7.310   2.958   8.769  5.3332  1.1074 -1.8667
  648MOL0     H87446   7.469   3.162   8.901 -0.1339 -0.2739  1.0863
  648MOL0     H87447   7.483   2.986   8.932  0.7462 -0.2048 -0.0117
  648MOL0     H87448   7.558   2.943   8.690  0.4407 -1.0271  1.1866
  648MOL0     H87449   7.507   3.115   8.662 -3.2378 -1.6682  0.3094
  648MOL0     H87450   7.719   2.991   8.844  0.3226  2.0249  1.5815
  648MOL0     H87451   7.696   3.171   8.817  3.2902  1.8184 -3.4484
  648MOL0     H87452   7.784   3.146   8.593 -0.7119 -1.6908 -2.1176
  648MOL0     H87453   7.776   2.968   8.600  0.1128  0.3669 -0.5461
  648MOL0     H87454   7.929   3.153   8.782 -0.2198 -0.1663  0.8228
  648MOL0     H87455   7.934   2.972   8.766 -4.1683  0.3442 -0.4183
  648MOL0     H87456   8.082   3.168   8.625 -1.7167  1.0215 -1.4092
  648MOL0     H87457   7.984   3.077   8.506  0.0882 -1.2206 -1.0620
  648MOL0     H87458   8.084   2.863   8.599  0.6206 -0.3995 -0.9532
  648MOL0     H87459   8.218   2.982   8.549 -1.4581 -0.7207 -1.8344
  648MOL0     H87460   7.138   3.044   8.523 -0.7419 -0.6591 -0.3591
  648MOL0     H87461   6.903   3.001   8.495 -2.3393  0.3965 -0.4635
  648MOL0     H87462   6.564   2.844   8.672 -0.7072 -0.7752 -1.1504
  648MOL0     H87463   6.349   2.751   8.633  2.5301 -0.2091  0.4212
  648MOL0     H87464   4.427   2.740   9.419  1.1043 -0.1238  0.6361
  648MOL0     H87465   4.203   2.689   9.525 -2.9510  2.3267 -1.9211
  648MOL0     H87466   4.006   2.486   9.799 -2.6328 -1.1248 -1.3249
  648MOL0     H87467   3.830   2.380   9.892  1.3340 -0.3133 -0.8636
  648MOL0     H87468   3.508   2.368  10.047 -0.2868  0.5440  1.3757
  648MOL0     H87469   3.603   2.398   9.907 -0.6267 -1.4733  1.3720
  648MOL0     H87470   3.507   2.631   9.875 -0.4459 -0.2311  0.3868
  648MOL0     H87471   3.416   2.606  10.016  0.8796  0.6231  1.1796
  648MOL0     H87472   3.407   2.396   9.790  2.7155 -1.1848  1.5700
  648MOL0     H87473   3.315   2.540   9.778 -0.0580 -0.1908  1.4858
  648MOL0     H87474   3.269   2.347  10.007  1.4768 -0.5484 -0.9064
  648MOL0     H87475   3.190   2.504   9.996 -0.3681  0.5166 -0.9929
  648MOL0     H87476   2.953   2.280   9.730  0.6151 -1.2569  0.2878
  648MOL0     H87477   3.742   2.756  10.110  1.0895  0.9950  1.0382
  648MOL0     H87478   3.935   2.934  10.113 -0.8899  1.0315 -0.0431
  648MOL0     H87479   4.011   2.941   9.947 -0.0855 -1.7904 -2.3852
  648MOL0     H87480   3.831   2.968   9.985  0.0279  1.3245  3.8664
  649MOL0     O87481   9.729   4.475   0.825 -0.6420  0.0186  0.0018
  649MOL0     C87482   9.762   4.357   0.816 -0.6998 -0.0574 -0.2361
  649MOL0     O87483   9.889   4.311   0.794 -0.5199 -0.2728 -0.0053
  649MOL0     C87484   9.992   4.405   0.796 -0.1272 -0.3872  0.4012
  649MOL0     C87485  10.086   4.409   0.690  0.0132 -0.0683  0.7019
  649MOL0     C87486  10.199   4.488   0.707 -0.1103 -0.6533  0.0480
  649MOL0     C87487  10.204   4.585   0.805  0.2337  0.6158 -0.0466
  649MOL0     O87488  10.311   4.671   0.824  0.0580  0.7466  0.5462
  649MOL0     C87489  10.376   4.715   0.704  0.1800 -0.9804  0.0420
  649MOL0     C87490  10.453   4.845   0.745  0.4584  0.4460  0.4804
  649MOL0     C87491  10.587   4.806   0.807 -0.6288 -0.6063  0.2590
  649MOL0     C87492  10.654   4.937   0.866 -0.3026  1.2726  0.5976
  649MOL0     C87493  10.781   4.899   0.943 -0.4247  0.6472  0.3167
  649MOL0     C87494  10.838   5.015   1.024  0.1106 -0.0942  0.3096
  649MOL0     C87495  10.993   5.007   1.034  0.2212  0.4961  1.1346
  649MOL0     C87496  11.048   5.076   1.156  0.7362  0.0772 -0.5848
  649MOL0     N87497  11.185   5.039   1.171  0.1578 -0.3935 -0.4933
  649MOL0     C87498  11.293   5.117   1.130 -0.2597  0.5964 -0.0520
  649MOL0     C87499  11.407   5.048   1.179 -1.0122 -0.3288  0.4294
  649MOL0     C87500  11.549   5.086   1.156 -0.4026  0.2049 -0.7959
  649MOL0     C87501  11.579   5.154   1.024 -0.0253  0.2671 -0.2492
  649MOL0     C87502  11.534   5.071   0.903 -0.2803 -0.4837  0.4060
  649MOL0     C87503  11.544   5.151   0.768 -0.9007  0.0982  0.7458
  649MOL0     O87504  11.674   5.222   0.762  0.6072  1.2124 -0.3617
  649MOL0     C87505  11.790   5.157   0.759 -0.4165  0.7279  0.3291
  649MOL0     C87506  11.887   5.210   0.847  0.2384 -0.3946  0.7962
  649MOL0     C87507  12.016   5.150   0.857  0.3093  0.1771 -0.5859
  649MOL0     C87508  12.042   5.035   0.779 -0.3919  0.6724  0.3211
  649MOL0     C87509  12.176   4.973   0.786  0.2908  0.4086 -0.6486
  649MOL0     O87510  12.186   4.837   0.773 -0.5533 -0.1229  0.0571
  649MOL0     C87511  12.309   4.783   0.801  0.5096  0.6721  0.0902
  649MOL0     C87512  12.381   4.718   0.696  1.0190  0.6852  0.5913
  649MOL0     C87513  12.499   4.648   0.730  0.4812  0.2163  0.0518
  649MOL0     C87514  12.549   4.647   0.855  0.2609  0.0639  0.4045
  649MOL0     O87515  12.666   4.578   0.888  0.0377 -0.3896  0.7983
  649MOL0     C87516  12.734   4.499   0.781 -0.5952  0.4874 -1.0838
  649MOL0     C87517  12.868   4.458   0.845 -0.9359  0.1580  0.7139
  649MOL0     C87518  12.854   4.362   0.968 -0.6755 -0.7728 -0.7291
  649MOL0     C87519  12.993   4.325   1.021 -0.1919  0.1409  0.3982
  649MOL0     C87520  12.979   4.210   1.124 -0.7628 -0.4750  0.8335
  649MOL0     C87521  12.931   4.258   1.266 -0.2031 -0.0879  0.8008
  649MOL0     C87522  12.899   4.139   1.352 -0.0077  0.1917  0.3302
  649MOL0     C87523  12.862   4.187   1.487 -0.1609 -0.5349  0.0333
  649MOL0    Cl87524  12.987   4.271   1.592 -0.3546  0.2141 -0.0626
  649MOL0     C87525  12.481   4.714   0.959  1.2066 -0.6482 -0.1610
  649MOL0     C87526  12.358   4.784   0.930 -0.6311  0.0594 -0.5138
  649MOL0     O87527  12.265   5.042   0.827 -0.3371  0.5010 -0.3537
  649MOL0     C87528  11.944   4.973   0.702  0.5460 -0.0791 -0.2250
  649MOL0     C87529  11.812   5.033   0.697 -0.5725  0.6672 -0.0064
  649MOL0     N87530  11.365   4.938   1.245 -0.3333  1.1254 -0.1890
  649MOL0     N87531  11.232   4.928   1.239  0.1989 -0.1294  0.1711
  649MOL0     C87532  10.111   4.580   0.916 -0.6857  0.6635  0.4895
  649MOL0     C87533  10.004   4.484   0.913 -0.1496 -0.2456 -0.7420
  649MOL0     C87534   9.667   4.242   0.844 -0.0666 -0.2686 -0.1657
  649MOL0     C87535   9.725   4.117   0.858 -0.1250  0.1715 -0.1275
  649MOL0     C87536   9.648   4.006   0.892  0.5034 -0.3761 -0.0141
  649MOL0     C87537   9.508   4.018   0.905  0.3199  0.1599 -1.0135
  649MOL0     O87538   9.441   3.911   0.931 -0.1477  0.3158  0.0375
  649MOL0     C87539   9.302   3.910   0.962 -0.1023  1.1310 -0.2414
  649MOL0     C87540   9.278   3.765   1.011 -0.2556  0.4859 -0.0794
  649MOL0     C87541   9.129   3.737   1.039  0.1285 -0.4589 -0.8135
  649MOL0     C87542   9.052   3.702   0.914 -0.4616  0.3011 -0.8667
  649MOL0     C87543   8.909   3.684   0.945 -0.3625 -0.8231 -0.8052
  649MOL0     C87544   8.792   3.667   0.970  0.5823  0.7783  0.0190
  649MOL0     C87545   9.448   4.138   0.878 -0.2666 -0.7287  0.7507
  649MOL0     C87546   9.522   4.251   0.844 -0.1481 -0.6441 -0.2664
  649MOL0     C87547   9.444   4.376   0.812 -0.3541 -0.4037 -0.7206
  649MOL0     H87548  10.062   4.347   0.604 -1.4330 -2.0221  2.4191
  649MOL0     H87549  10.278   4.497   0.633  1.5241 -0.8170  1.7175
  649MOL0     H87550  10.434   4.635   0.656 -1.1142 -2.7275  1.2430
  649MOL0     H87551  10.304   4.753   0.631  2.6601  3.3858 -0.4595
  649MOL0     H87552  10.396   4.893   0.825 -1.8210 -0.9250 -0.2381
  649MOL0     H87553  10.453   4.904   0.653 -2.9553  0.7379  0.5440
  649MOL0     H87554  10.655   4.747   0.743  0.5269 -0.7586  1.5782
  649MOL0     H87555  10.570   4.736   0.889 -1.8624  0.1229  0.6449
  649MOL0     H87556  10.679   5.007   0.786  0.7670  0.2668  0.0134
  649MOL0     H87557  10.590   4.995   0.934  0.1972  2.3415  0.1742
  649MOL0     H87558  10.770   4.822   1.020  1.9356  1.8215  1.9639
  649MOL0     H87559  10.854   4.856   0.873 -0.5816 -3.1320  2.2092
  649MOL0     H87560  10.803   5.109   0.980 -0.8864 -0.9138 -0.7041
  649MOL0     H87561  10.791   5.010   1.122  0.2031 -1.6501  0.2968
  649MOL0     H87562  11.032   5.062   0.948  0.5601  2.0088  2.2103
  649MOL0     H87563  11.008   4.899   1.045 -0.6641  0.4249  1.7218
  649MOL0     H87564  11.039   5.185   1.148 -1.8448 -0.0273  0.0760
  649MOL0     H87565  11.002   5.045   1.250  2.2539  0.3488  0.2865
  649MOL0     H87566  11.310   5.216   1.089  0.5051  0.8038  0.7333
  649MOL0     H87567  11.575   5.159   1.233 -0.8469  0.8062 -1.2014
  649MOL0     H87568  11.618   5.002   1.161  0.7618  1.1789  0.1470
  649MOL0     H87569  11.528   5.251   1.022 -1.6431 -0.5362 -0.0077
  649MOL0     H87570  11.685   5.178   1.014 -0.7535  4.8386  0.9140
  649MOL0     H87571  11.435   5.027   0.912 -0.5697  0.1010  0.1343
  649MOL0     H87572  11.617   5.000   0.897  1.0501  0.9036  1.4510
  649MOL0     H87573  11.468   5.230   0.768  0.2868  1.2682  1.3574
  649MOL0     H87574  11.538   5.094   0.675  2.2041 -0.2977  0.7053
  649MOL0     H87575  11.872   5.300   0.905  0.3814 -1.2940  2.2719
  649MOL0     H87576  12.092   5.204   0.912 -1.2878  1.0335  0.8911
  649MOL0     H87577  12.333   4.723   0.599  0.2641  0.1342  0.9253
  649MOL0     H87578  12.538   4.585   0.650 -1.3632  0.0380 -0.7588
  649MOL0     H87579  12.669   4.415   0.753 -1.4560  0.3923  1.0614
  649MOL0     H87580  12.762   4.546   0.686 -0.0362 -1.1838 -1.7967
  649MOL0     H87581  12.936   4.416   0.771 -0.3199 -0.7978  1.7869
  649MOL0     H87582  12.916   4.553   0.869 -0.0163 -0.2868  0.6642
  649MOL0     H87583  12.798   4.403   1.053 -1.6959 -0.3660 -1.5728
  649MOL0     H87584  12.804   4.271   0.936 -0.3539 -0.8895 -0.9006
  649MOL0     H87585  13.042   4.414   1.062  0.2517  0.7515 -1.3667
  649MOL0     H87586  13.050   4.293   0.933 -2.0868 -2.4215 -0.0216
  649MOL0     H87587  13.079   4.168   1.135  0.4610  1.7241 -1.1188
  649MOL0     H87588  12.912   4.139   1.074  0.7761 -0.8790 -0.7378
  649MOL0     H87589  13.019   4.304   1.311  0.3498 -3.3586  3.4755
  649MOL0     H87590  12.854   4.336   1.268 -0.0625  0.0409  1.1370
  649MOL0     H87591  12.982   4.067   1.352 -0.1274  0.0403  0.9755
  649MOL0     H87592  12.810   4.085   1.319 -0.1489  0.7176 -0.1587
  649MOL0     H87593  12.783   4.263   1.487  1.3367  1.1687  2.3996
  649MOL0     H87594  12.828   4.097   1.539 -0.4349  0.5978  1.8992
  649MOL0     H87595  12.517   4.715   1.061 -2.8125  0.8356  1.4659
  649MOL0     H87596  12.295   4.807   1.015  1.9325  0.9415  1.2545
  649MOL0     H87597  11.982   4.888   0.646  2.4418  0.8749 -0.4612
  649MOL0     H87598  11.732   4.977   0.650  0.9103 -1.7127  0.1647
  649MOL0     H87599  10.123   4.644   1.002 -1.3792  0.0862  1.0280
  649MOL0     H87600   9.934   4.474   0.995 -0.7554 -0.4445 -1.2704
  649MOL0     H87601   9.833   4.103   0.861  0.2299  2.4639  0.0855
  649MOL0     H87602   9.693   3.914   0.927 -2.3207 -1.6228  0.5779
  649MOL0     H87603   9.247   3.936   0.871  2.1762 -1.6001 -2.5992
  649MOL0     H87604   9.283   3.978   1.045 -2.2579  2.5655 -1.7775
  649MOL0     H87605   9.332   3.743   1.104 -1.3243  1.7185  0.8672
  649MOL0     H87606   9.314   3.696   0.934 -2.2488 -1.3626  0.5275
  649MOL0     H87607   9.086   3.832   1.070  1.3940  0.6808 -2.3621
  649MOL0     H87608   9.121   3.657   1.113  3.2434 -0.5754 -0.4609
  649MOL0     H87609   9.066   3.782   0.841 -0.7814  0.0089 -1.2600
  649MOL0     H87610   9.087   3.609   0.866  1.7145  0.1785  0.8240
  649MOL0     H87611   8.690   3.650   0.999  0.7097  2.3577  1.5368
  649MOL0     H87612   9.340   4.144   0.880 -0.3315 -1.4792 -0.0096
  649MOL0     H87613   9.480   4.461   0.871 -1.9404 -0.9303  1.1421
  649MOL0     H87614   9.471   4.391   0.707 -0.4281  2.5609 -0.3890
  649MOL0     H87615   9.336   4.358   0.817 -0.2067 -2.0948 -2.4249
  650MOL0     O87616  10.785   1.263   8.857 -0.2529  0.5593  0.3590
  650MOL0     C87617  10.750   1.281   8.970 -0.4845  0.0752  0.1139
  650MOL0     O87618  10.839   1.287   9.068  0.0810  0.0843  0.3504
  650MOL0     C87619  10.971   1.256   9.054  0.1427 -1.0599 -0.1626
  650MOL0     C87620  11.024   1.141   8.990 -0.9409 -0.0397  0.5710
  650MOL0     C87621  11.157   1.114   9.004  0.2037 -0.1940 -0.7052
  650MOL0     C87622  11.237   1.192   9.085  0.0210  0.1162  0.2891
  650MOL0     O87623  11.361   1.142   9.101  0.8275  0.2485  0.5143
  650MOL0     C87624  11.430   1.165   9.225  0.2454  0.2833  0.9522
  650MOL0     C87625  11.531   1.050   9.271 -0.1008 -0.4587  0.1762
  650MOL0     C87626  11.675   1.066   9.212 -0.0679 -0.1615  0.7286
  650MOL0     C87627  11.768   0.952   9.262  0.6578 -1.2370 -1.1253
  650MOL0     C87628  11.919   0.995   9.233  0.7159  0.0047  0.1769
  650MOL0     C87629  12.019   0.909   9.307  0.0380  0.1944 -0.5298
  650MOL0     C87630  12.147   0.981   9.339  0.2492 -0.0533 -0.2527
  650MOL0     C87631  12.260   0.879   9.381 -0.2534 -0.2116  0.6259
  650MOL0     N87632  12.232   0.800   9.502 -0.1974 -0.6864  0.4368
  650MOL0     C87633  12.151   0.689   9.517 -0.3259 -0.4128  0.3087
  650MOL0     C87634  12.155   0.657   9.649 -0.6597 -0.2665  0.1124
  650MOL0     C87635  12.086   0.540   9.727 -0.1074 -0.2760  0.4059
  650MOL0     C87636  12.189   0.420   9.737  0.3883 -0.2119 -0.5231
  650MOL0     C87637  12.212   0.331   9.615 -0.5056 -0.1535 -0.4978
  650MOL0     C87638  12.357   0.284   9.621  0.3711  0.5374 -0.3192
  650MOL0     O87639  12.369   0.166   9.535  0.1630 -0.6140  0.3227
  650MOL0     C87640  12.459   0.062   9.555 -0.7186 -0.4127 -0.2544
  650MOL0     C87641  12.437  -0.049   9.471  0.3807 -0.2160 -0.7557
  650MOL0     C87642  12.533  -0.154   9.470  0.5391 -0.1412  0.4373
  650MOL0     C87643  12.656  -0.155   9.542  0.0938 -0.0166  0.0961
  650MOL0     C87644  12.746  -0.263   9.533 -0.5954  0.4478 -0.1572
  650MOL0     O87645  12.860  -0.256   9.617 -0.2564  0.3952  0.4979
  650MOL0     C87646  12.933  -0.370   9.638  1.0932 -0.6772 -0.3695
  650MOL0     C87647  12.899  -0.439   9.751 -0.0416  0.2217 -0.4954
  650MOL0     C87648  12.941  -0.569   9.775  0.4283  0.2930 -0.3718
  650MOL0     C87649  13.017  -0.637   9.676 -0.6678 -0.0261  0.4078
  650MOL0     O87650  13.050  -0.768   9.713  0.0519 -0.5178  0.4756
  650MOL0     C87651  13.182  -0.804   9.672  0.1614  0.7359  0.2739
  650MOL0     C87652  13.295  -0.726   9.730 -0.3252  0.4620 -0.2881
  650MOL0     C87653  13.433  -0.798   9.699  0.7831  0.2508  0.4675
  650MOL0     C87654  13.444  -0.821   9.549  0.2996  0.4882  0.4816
  650MOL0     C87655  13.575  -0.866   9.486 -0.4068  0.2214  0.4687
  650MOL0     C87656  13.664  -0.951   9.575  0.1806  0.7555  0.7670
  650MOL0     C87657  13.788  -0.993   9.500  0.5316  0.3185 -0.9786
  650MOL0     C87658  13.866  -1.094   9.596 -0.5043 -0.2639 -0.2540
  650MOL0    Cl87659  14.012  -1.171   9.525  0.4007 -0.2007  0.1067
  650MOL0     C87660  13.057  -0.563   9.558  0.3830 -0.5878 -0.3538
  650MOL0     C87661  13.025  -0.425   9.545  0.4721  0.6487 -0.0175
  650MOL0     O87662  12.705  -0.366   9.490  0.4694  0.9016  0.1149
  650MOL0     C87663  12.675  -0.036   9.612  0.2628 -0.5207 -0.1048
  650MOL0     C87664  12.583   0.069   9.620 -0.1545 -0.8049  0.1371
  650MOL0     N87665  12.233   0.750   9.713  0.4309  0.6582  0.1023
  650MOL0     N87666  12.274   0.833   9.626  0.2128  0.1553 -0.2921
  650MOL0     C87667  11.190   1.302   9.154 -0.5554  0.0721  0.0555
  650MOL0     C87668  11.056   1.338   9.135  0.5049 -1.0017 -0.4313
  650MOL0     C87669  10.602   1.296   9.003 -0.9866  0.5269 -0.3474
  650MOL0     C87670  10.570   1.288   9.132 -0.1575  0.3585  0.5228
  650MOL0     C87671  10.437   1.283   9.169  0.4370 -0.3346  0.6792
  650MOL0     C87672  10.329   1.299   9.073  0.3049 -0.1716 -0.1889
  650MOL0     O87673  10.199   1.280   9.105  0.6163  0.0999 -0.3759
  650MOL0     C87674  10.154   1.310   9.242  0.0534  0.1204  0.5283
  650MOL0     C87675  10.007   1.344   9.236  0.9528  0.3639  0.7477
  650MOL0     C87676   9.933   1.375   9.372 -0.1856  0.9650 -0.1837
  650MOL0     C87677   9.787   1.419   9.339 -0.0200  0.1389  0.4305
  650MOL0     C87678   9.702   1.412   9.460  0.2564  0.2157  0.5439
  650MOL0     C87679   9.630   1.412   9.556  0.2388  0.0147  0.7169
  650MOL0     C87680  10.367   1.297   8.939 -0.1011 -0.3409  0.1289
  650MOL0     C87681  10.500   1.308   8.898  0.0922 -0.4792 -1.4415
  650MOL0     C87682  10.524   1.315   8.745 -0.0162 -0.7841 -0.7558
  650MOL0     H87683  10.975   1.071   8.924  1.3727 -0.8433 -0.4079
  650MOL0     H87684  11.204   1.034   8.949  2.1243  0.0028  0.5368
  650MOL0     H87685  11.485   1.258   9.207 -1.4094  0.6717 -3.0620
  650MOL0     H87686  11.366   1.173   9.313  2.5415  0.9906  2.6654
  650MOL0     H87687  11.490   0.949   9.259 -0.0236 -0.4678 -0.0079
  650MOL0     H87688  11.540   1.066   9.379  0.6891 -1.0970  0.2165
  650MOL0     H87689  11.714   1.167   9.228  0.2163 -0.3108  0.9654
  650MOL0     H87690  11.664   1.054   9.104  2.0800 -1.5399  0.6075
  650MOL0     H87691  11.755   0.944   9.370  1.9051  1.1515 -0.7236
  650MOL0     H87692  11.734   0.857   9.219  0.9356 -2.1094  0.5030
  650MOL0     H87693  11.930   0.998   9.124 -2.3485 -4.8192 -0.5512
  650MOL0     H87694  11.942   1.096   9.269  0.0183  1.8816 -4.0380
  650MOL0     H87695  11.976   0.874   9.402  1.7935 -0.5955  0.0108
  650MOL0     H87696  12.045   0.818   9.253  1.7223 -0.1085  0.7022
  650MOL0     H87697  12.124   1.052   9.419  1.1156  1.8027 -1.5791
  650MOL0     H87698  12.171   1.038   9.249 -1.3685 -1.6939 -1.8221
  650MOL0     H87699  12.288   0.823   9.291 -1.9201  3.2337 -2.2740
  650MOL0     H87700  12.345   0.948   9.389  0.0410 -0.3353 -1.0538
  650MOL0     H87701  12.091   0.647   9.437 -1.8238 -0.7183  1.5435
  650MOL0     H87702  12.066   0.559   9.833  0.6647  3.3764  0.0227
  650MOL0     H87703  11.993   0.507   9.681  0.8739 -0.6451 -1.3799
  650MOL0     H87704  12.280   0.458   9.784 -0.5594  2.9107 -0.9610
  650MOL0     H87705  12.153   0.349   9.811 -0.4637  1.0398  0.3140
  650MOL0     H87706  12.203   0.380   9.517  2.5783 -1.3017 -1.4895
  650MOL0     H87707  12.139   0.251   9.621 -3.1134  2.0552 -0.9358
  650MOL0     H87708  12.384   0.257   9.724  5.2381 -0.0041 -1.4857
  650MOL0     H87709  12.431   0.357   9.587 -0.0947  2.2743  2.0933
  650MOL0     H87710  12.349  -0.052   9.408  1.0691 -0.1302 -1.7442
  650MOL0     H87711  12.504  -0.240   9.411  1.5820  1.4099 -2.5508
  650MOL0     H87712  12.829  -0.390   9.818  2.2526  5.3045 -1.3373
  650MOL0     H87713  12.903  -0.629   9.856  1.8766  0.3673  0.3983
  650MOL0     H87714  13.201  -0.910   9.694  2.5036  0.8011 -1.0578
  650MOL0     H87715  13.187  -0.809   9.563  1.8495 -1.4758  0.3814
  650MOL0     H87716  13.294  -0.628   9.682  1.1445  0.4572 -0.3594
  650MOL0     H87717  13.279  -0.719   9.838  1.0775  0.4652 -0.0597
  650MOL0     H87718  13.513  -0.728   9.724  1.4762 -0.3583  0.0116
  650MOL0     H87719  13.450  -0.889   9.757  2.5693  0.3969  0.2341
  650MOL0     H87720  13.414  -0.734   9.490 -0.3677 -0.4336 -0.5680
  650MOL0     H87721  13.368  -0.896   9.525 -0.4636  1.4914 -0.3065
  650MOL0     H87722  13.637  -0.778   9.467  1.2788 -1.1126 -0.6395
  650MOL0     H87723  13.550  -0.909   9.389  0.2754  1.2776 -0.1964
  650MOL0     H87724  13.685  -0.901   9.670 -2.1495 -0.3694  1.9500
  650MOL0     H87725  13.607  -1.039   9.605 -1.8009  0.8874 -2.1238
  650MOL0     H87726  13.852  -0.904   9.500  0.6391  0.3166  1.7040
  650MOL0     H87727  13.775  -1.046   9.405  1.0952  1.1174 -1.5135
  650MOL0     H87728  13.906  -1.047   9.686  1.5009  0.4625 -1.4514
  650MOL0     H87729  13.801  -1.171   9.640  1.1039 -0.2319  2.4201
  650MOL0     H87730  13.129  -0.591   9.481 -1.2541 -1.3603 -1.6595
  650MOL0     H87731  13.060  -0.380   9.452 -0.1139 -0.8206 -0.9799
  650MOL0     H87732  12.775  -0.006   9.641  0.7369 -0.9218 -1.2909
  650MOL0     H87733  12.616   0.163   9.661  0.4868 -0.7424 -0.5188
  650MOL0     H87734  11.248   1.364   9.222 -2.5092  2.3796 -0.2473
  650MOL0     H87735  11.012   1.419   9.191 -0.3070 -1.9959  0.4179
  650MOL0     H87736  10.646   1.272   9.208  2.9597  1.2943 -2.1604
  650MOL0     H87737  10.410   1.267   9.273  1.0498 -1.2341  0.7107
  650MOL0     H87738  10.215   1.392   9.281  1.5183 -0.2403 -0.9209
  650MOL0     H87739  10.165   1.223   9.306 -1.8306  0.5494  1.5226
  650MOL0     H87740   9.961   1.261   9.181  1.8283  1.0353 -1.0871
  650MOL0     H87741   9.981   1.426   9.168 -2.6441 -2.4627 -1.6783
  650MOL0     H87742   9.984   1.456   9.425  0.3625  1.1872 -1.0294
  650MOL0     H87743   9.936   1.291   9.441 -4.7811  0.3718 -0.4220
  650MOL0     H87744   9.797   1.520   9.298  1.2672 -1.2747 -3.1013
  650MOL0     H87745   9.743   1.354   9.263 -1.4240  0.8358  0.6190
  650MOL0     H87746   9.553   1.402   9.631 -2.2435 -1.8698 -1.8717
  650MOL0     H87747  10.285   1.292   8.869  0.0348 -0.1308 -0.0475
  650MOL0     H87748  10.510   1.217   8.699  1.3648 -0.9411 -0.8758
  650MOL0     H87749  10.452   1.391   8.714 -0.3779 -1.7859 -2.4879
  650MOL0     H87750  10.623   1.355   8.721 -0.4940 -0.0338 -1.5370
  651MOL0     O87751  10.813   7.431   4.701 -0.0135 -0.2355  0.2510
  651MOL0     C87752  10.708   7.499   4.706 -0.0917 -0.2314  0.4893
  651MOL0     O87753  10.690   7.632   4.674 -0.1149  1.0359  0.5028
  651MOL0     C87754  10.786   7.720   4.623  0.1978  0.6025 -0.0056
  651MOL0     C87755  10.882   7.682   4.528 -0.6746 -0.2502  0.8781
  651MOL0     C87756  10.979   7.780   4.482  0.3223 -0.6645 -0.4015
  651MOL0     C87757  10.970   7.916   4.530 -0.0049 -0.0774  0.2089
  651MOL0     O87758  11.044   8.021   4.482  0.6235 -0.2107 -0.1288
  651MOL0     C87759  11.098   8.003   4.355  0.1006 -0.7140  1.1488
  651MOL0     C87760  11.169   8.140   4.308  0.2916  0.3191  0.3888
  651MOL0     C87761  11.319   8.150   4.351  0.2288  0.0598 -0.0793
  651MOL0     C87762  11.372   8.290   4.363 -0.4920  0.2896 -0.3026
  651MOL0     C87763  11.513   8.295   4.417  0.7840  0.1022  0.8253
  651MOL0     C87764  11.582   8.427   4.422  0.8662  0.3141 -0.4102
  651MOL0     C87765  11.737   8.416   4.443  1.2829  0.2544  0.2129
  651MOL0     C87766  11.767   8.406   4.593 -0.7786  0.5631 -0.4972
  651MOL0     N87767  11.917   8.425   4.604  0.8296 -0.6673  0.5887
  651MOL0     C87768  12.011   8.323   4.584  0.9993 -0.4618 -0.1619
  651MOL0     C87769  12.128   8.367   4.640  0.3154 -0.6356 -0.7209
  651MOL0     C87770  12.252   8.289   4.608  0.4735 -0.0303 -0.0249
  651MOL0     C87771  12.383   8.372   4.636 -0.2644 -0.1154 -0.1848
  651MOL0     C87772  12.404   8.471   4.518  0.0153 -0.4624 -1.0906
  651MOL0     C87773  12.530   8.557   4.548  0.0987  0.2334 -0.6773
  651MOL0     O87774  12.603   8.536   4.428  0.4235  0.0598  0.1196
  651MOL0     C87775  12.726   8.599   4.419  0.4223 -0.4675 -0.3555
  651MOL0     C87776  12.778   8.690   4.511 -0.3833 -0.3069  0.1548
  651MOL0     C87777  12.907   8.747   4.484 -0.7072  0.4145 -0.3932
  651MOL0     C87778  12.985   8.711   4.371  0.0321 -0.2533  0.3905
  651MOL0     C87779  13.116   8.778   4.331 -0.0356 -0.3219 -0.9124
  651MOL0     O87780  13.201   8.722   4.245  0.0469  0.4358 -0.5527
  651MOL0     C87781  13.329   8.754   4.231 -0.0886  0.2091  0.4982
  651MOL0     C87782  13.383   8.678   4.124  0.4945 -0.6373  0.5111
  651MOL0     C87783  13.518   8.696   4.085  0.2067 -0.0154 -0.5124
  651MOL0     C87784  13.595   8.785   4.159  0.4074 -0.1919  0.2371
  651MOL0     O87785  13.731   8.792   4.120  0.0557  0.4231 -0.0486
  651MOL0     C87786  13.830   8.856   4.203 -1.0129 -0.6842 -0.0127
  651MOL0     C87787  13.972   8.852   4.132  0.1268  0.2657  0.3509
  651MOL0     C87788  14.070   8.919   4.231  0.0799  0.4616  0.0702
  651MOL0     C87789  14.203   8.935   4.156  0.4881  0.1586 -0.1798
  651MOL0     C87790  14.286   9.018   4.252 -0.7152 -0.0551  0.1317
  651MOL0     C87791  14.431   9.047   4.200 -0.3556  0.2391 -0.0861
  651MOL0     C87792  14.486   9.158   4.283 -0.5683 -0.4316 -0.5496
  651MOL0     C87793  14.632   9.185   4.246  0.3865  0.7245 -0.3939
  651MOL0    Cl87794  14.660   9.208   4.068  0.3140  0.0803 -0.0796
  651MOL0     C87795  13.540   8.860   4.268 -1.2544  0.4699 -0.2576
  651MOL0     C87796  13.412   8.844   4.305  0.5593 -0.3243 -0.0178
  651MOL0     O87797  13.134   8.880   4.403 -0.1516  0.8463  0.1446
  651MOL0     C87798  12.928   8.613   4.289 -0.2985  0.0639 -0.3185
  651MOL0     C87799  12.800   8.558   4.307 -0.0838  0.6000  0.1345
  651MOL0     N87800  12.103   8.486   4.690  0.2902 -0.7450 -0.8140
  651MOL0     N87801  11.978   8.523   4.675 -0.4717 -0.0106 -0.0960
  651MOL0     C87802  10.867   7.950   4.619 -0.0071 -0.1792  0.4992
  651MOL0     C87803  10.779   7.854   4.666  0.7070  0.2569 -0.5022
  651MOL0     C87804  10.599   7.422   4.768 -0.1865  0.4336  0.3351
  651MOL0     C87805  10.478   7.490   4.778  0.3970  0.5347  0.4395
  651MOL0     C87806  10.367   7.437   4.838 -0.2488 -0.1425 -0.3559
  651MOL0     C87807  10.367   7.306   4.881 -0.0643  0.0797  0.6563
  651MOL0     O87808  10.255   7.257   4.948 -0.2175 -0.4911 -0.5351
  651MOL0     C87809  10.258   7.119   5.000 -1.0581 -0.0842  0.3219
  651MOL0     C87810  10.125   7.084   5.071 -1.0325  0.2970  0.6304
  651MOL0     C87811  10.020   7.021   4.984  0.1345 -0.3252  0.1177
  651MOL0     C87812   9.953   7.129   4.889  0.4566 -0.1513 -0.7695
  651MOL0     C87813   9.875   7.221   4.971 -1.1727 -0.5065 -0.5212
  651MOL0     C87814   9.830   7.303   5.047 -0.7135 -0.4077  0.3828
  651MOL0     C87815  10.483   7.229   4.867 -0.3460  0.5122  0.1934
  651MOL0     C87816  10.598   7.287   4.812 -0.6746 -0.4537  0.6365
  651MOL0     C87817  10.711   7.200   4.806 -0.7682 -0.4975  0.5083
  651MOL0     H87818  10.889   7.586   4.478 -0.7083  0.7607 -1.1462
  651MOL0     H87819  11.054   7.750   4.409  0.4206  1.4199 -1.2106
  651MOL0     H87820  11.166   7.918   4.357  0.2200 -0.6125  1.4545
  651MOL0     H87821  11.017   7.990   4.283  0.0360  1.3667  0.7658
  651MOL0     H87822  11.124   8.231   4.349  1.1393  0.5607  0.8083
  651MOL0     H87823  11.168   8.146   4.199 -0.6446  0.4251  0.3901
  651MOL0     H87824  11.389   8.117   4.274  0.4952  1.4033 -0.4467
  651MOL0     H87825  11.341   8.088   4.438  1.4852  0.9747  0.2752
  651MOL0     H87826  11.358   8.346   4.270 -0.8061 -0.5365 -0.7623
  651MOL0     H87827  11.313   8.344   4.437  2.2430  1.4302  1.1706
  651MOL0     H87828  11.523   8.249   4.516 -1.6943  1.0421  1.6006
  651MOL0     H87829  11.567   8.233   4.346  0.3157  0.7069 -0.0754
  651MOL0     H87830  11.556   8.476   4.327 -1.2806 -0.2564 -0.1700
  651MOL0     H87831  11.532   8.486   4.499  0.3128  0.5919 -0.9649
  651MOL0     H87832  11.786   8.506   4.405 -2.0828  0.9536 -2.9871
  651MOL0     H87833  11.766   8.325   4.389 -2.9028  0.2887 -2.5215
  651MOL0     H87834  11.718   8.485   4.650  1.1904  3.7444 -2.9174
  651MOL0     H87835  11.730   8.310   4.632 -0.5476  0.2004 -1.1672
  651MOL0     H87836  11.989   8.229   4.535  0.1485 -0.9665  1.1585
  651MOL0     H87837  12.233   8.200   4.667  0.5755  1.4102  2.3130
  651MOL0     H87838  12.246   8.273   4.500  0.5856  4.1845 -0.8529
  651MOL0     H87839  12.385   8.421   4.734  0.5148  3.2855 -1.7337
  651MOL0     H87840  12.461   8.295   4.636 -0.3536 -0.2510  1.5690
  651MOL0     H87841  12.324   8.546   4.510 -0.6867 -1.1495 -0.6354
  651MOL0     H87842  12.410   8.409   4.429  0.8936 -1.9831 -0.0177
  651MOL0     H87843  12.593   8.520   4.630  0.1472 -2.8196 -1.9634
  651MOL0     H87844  12.497   8.660   4.562  2.0317  1.1273 -2.2004
  651MOL0     H87845  12.729   8.722   4.602 -1.8704 -1.9741 -0.0172
  651MOL0     H87846  12.944   8.812   4.562  0.8394 -1.3794  0.4715
  651MOL0     H87847  13.323   8.607   4.068  0.7213 -1.5116  1.3453
  651MOL0     H87848  13.557   8.649   3.995 -1.0121  0.8584 -1.5379
  651MOL0     H87849  13.802   8.961   4.218 -2.7155 -1.1222  0.0488
  651MOL0     H87850  13.835   8.812   4.303  0.1749  0.4218  0.4372
  651MOL0     H87851  14.010   8.755   4.100 -0.9133 -0.3265  0.8699
  651MOL0     H87852  13.952   8.916   4.046 -3.2983 -0.5025  0.4464
  651MOL0     H87853  14.033   9.016   4.266  1.0947  0.4123  1.3803
  651MOL0     H87854  14.083   8.859   4.322  1.1915 -0.2070 -0.5049
  651MOL0     H87855  14.204   9.001   4.069 -0.2244  1.8019  0.9870
  651MOL0     H87856  14.260   8.847   4.126  0.7359  0.5989 -1.0328
  651MOL0     H87857  14.300   8.960   4.343  1.1297  0.3254  0.1457
  651MOL0     H87858  14.234   9.113   4.270 -2.4520 -0.6637 -1.4329
  651MOL0     H87859  14.494   8.959   4.211 -2.9685 -1.6968  0.4293
  651MOL0     H87860  14.421   9.075   4.095 -0.8666  0.0259 -0.0959
  651MOL0     H87861  14.480   9.135   4.390 -3.1313 -0.9114 -0.7259
  651MOL0     H87862  14.425   9.248   4.268  1.2894  1.1782  0.9519
  651MOL0     H87863  14.661   9.279   4.295 -2.2429  1.1024  0.6311
  651MOL0     H87864  14.683   9.098   4.289  2.5771  2.0169 -0.1942
  651MOL0     H87865  13.593   8.942   4.314 -4.0760  2.8736 -0.9389
  651MOL0     H87866  13.382   8.912   4.384 -0.9538  0.7918 -1.4654
  651MOL0     H87867  12.980   8.584   4.198  0.8724 -0.9989  0.6532
  651MOL0     H87868  12.758   8.496   4.229  1.0209 -0.1756  0.1358
  651MOL0     H87869  10.839   8.052   4.644 -1.0151 -0.4306  0.4345
  651MOL0     H87870  10.700   7.883   4.735  1.5756  1.1699  0.1187
  651MOL0     H87871  10.460   7.589   4.740 -1.9076  0.5052  1.3070
  651MOL0     H87872  10.269   7.482   4.848 -1.0276 -1.9030  0.2927
  651MOL0     H87873  10.334   7.112   5.079 -2.7906 -1.3971  1.9609
  651MOL0     H87874  10.287   7.065   4.909 -0.9540  1.3430 -0.5339
  651MOL0     H87875  10.091   7.172   5.127  0.8695  1.6056 -0.1547
  651MOL0     H87876  10.152   7.011   5.147 -1.7808 -0.5132  0.1332
  651MOL0     H87877   9.942   6.992   5.054  2.7282 -3.1150  2.1045
  651MOL0     H87878  10.054   6.933   4.929 -3.7472 -2.9587  1.5057
  651MOL0     H87879  10.019   7.183   4.821 -3.2043  2.3485 -2.6623
  651MOL0     H87880   9.884   7.076   4.823 -0.6002 -1.0965  1.0240
  651MOL0     H87881   9.809   7.386   5.112  2.4561 -1.7287  3.4563
  651MOL0     H87882  10.501   7.131   4.909  2.8652  1.0172  0.2462
  651MOL0     H87883  10.776   7.255   4.874  0.7436  1.2620 -2.1661
  651MOL0     H87884  10.692   7.098   4.839  2.9784 -1.2254  0.8719
  651MOL0     H87885  10.742   7.192   4.701 -0.6570  0.2580  0.4801
  652MOL0     O87886  10.541   6.182   4.340  1.0855  0.2423  0.6003
  652MOL0     C87887  10.514   6.279   4.410  0.2333  0.4770 -0.3708
  652MOL0     O87888  10.611   6.367   4.461 -0.1418 -0.4775  0.5106
  652MOL0     C87889  10.746   6.334   4.457  0.1497  0.6108 -1.3603
  652MOL0     C87890  10.829   6.440   4.460 -0.5335  0.1062 -0.2848
  652MOL0     C87891  10.969   6.431   4.469 -0.0705  0.0425  0.2428
  652MOL0     C87892  11.032   6.306   4.464  0.8034 -0.1216 -0.7017
  652MOL0     O87893  11.168   6.301   4.467 -0.6429  0.0670 -0.0149
  652MOL0     C87894  11.231   6.292   4.598  0.3090  0.0218 -0.4758
  652MOL0     C87895  11.272   6.430   4.646 -0.8733  1.3694  0.2709
  652MOL0     C87896  11.362   6.414   4.764 -0.2402 -0.1206  0.3799
  652MOL0     C87897  11.280   6.419   4.892 -0.3893 -0.0799  0.6013
  652MOL0     C87898  11.363   6.358   5.015  0.6936 -0.2219  0.3050
  652MOL0     C87899  11.480   6.444   5.047  0.6599 -0.3223  0.0685
  652MOL0     C87900  11.449   6.570   5.121  0.8975 -0.6095 -0.4058
  652MOL0     C87901  11.563   6.660   5.174 -0.7390 -0.0932  0.0654
  652MOL0     N87902  11.659   6.589   5.266  0.0936 -0.5564  0.4605
  652MOL0     C87903  11.635   6.531   5.388 -0.8810 -0.8146  0.2547
  652MOL0     C87904  11.750   6.467   5.427 -0.0724 -0.7279  0.3534
  652MOL0     C87905  11.775   6.376   5.544  1.0202 -0.6610 -0.4380
  652MOL0     C87906  11.774   6.451   5.678 -0.4248  0.6420  0.1108
  652MOL0     C87907  11.812   6.361   5.796  0.4585  0.6658  0.3020
  652MOL0     C87908  11.962   6.334   5.808  0.2375 -0.6298  0.5938
  652MOL0     O87909  12.046   6.451   5.804  0.2487  0.6102 -0.3229
  652MOL0     C87910  12.184   6.434   5.805 -0.6492 -0.9635 -0.0336
  652MOL0     C87911  12.244   6.334   5.879  0.4217 -0.2596  0.3400
  652MOL0     C87912  12.378   6.315   5.892 -0.5634 -0.2077 -1.3489
  652MOL0     C87913  12.464   6.400   5.821  0.1085 -0.4300 -0.0572
  652MOL0     C87914  12.609   6.372   5.833  0.8600 -1.2910  0.1186
  652MOL0     O87915  12.649   6.251   5.883  0.2360  0.2648  0.1377
  652MOL0     C87916  12.783   6.233   5.894  1.2288  0.6995  0.4367
  652MOL0     C87917  12.832   6.224   6.023 -0.7909  0.7125 -0.4405
  652MOL0     C87918  12.972   6.209   6.041 -0.1697 -0.6229 -0.6961
  652MOL0     C87919  13.058   6.214   5.929 -0.1923 -0.1924  0.2955
  652MOL0     O87920  13.193   6.206   5.951  0.6139 -0.2893 -0.1551
  652MOL0     C87921  13.281   6.141   5.865  0.7573  0.2192 -0.4668
  652MOL0     C87922  13.424   6.169   5.915 -0.7716  0.9211 -0.4739
  652MOL0     C87923  13.522   6.171   5.803 -0.5273  0.0627  0.5983
  652MOL0     C87924  13.667   6.186   5.864 -0.3611 -0.2757 -0.1914
  652MOL0     C87925  13.765   6.194   5.746 -0.0027 -0.4585  0.6076
  652MOL0     C87926  13.908   6.198   5.794 -0.0920 -0.6283  0.3395
  652MOL0     C87927  14.001   6.158   5.688 -0.0554  0.6537  0.6506
  652MOL0     C87928  14.149   6.135   5.736  1.0976 -0.5667 -0.3464
  652MOL0    Cl87929  14.229   6.292   5.728 -0.2680  0.4629  0.3493
  652MOL0     C87930  13.003   6.232   5.800 -0.0838 -0.5290 -0.1403
  652MOL0     C87931  12.865   6.229   5.781  0.2690 -0.1413  0.0471
  652MOL0     O87932  12.685   6.460   5.791 -0.6755 -0.1755  0.4974
  652MOL0     C87933  12.411   6.497   5.742 -1.2090 -0.6783 -0.0875
  652MOL0     C87934  12.271   6.522   5.738  0.1556  0.0708  0.6102
  652MOL0     N87935  11.848   6.502   5.335  0.2577 -0.1056 -0.3412
  652MOL0     N87936  11.792   6.564   5.234  0.1732  0.2474 -0.5268
  652MOL0     C87937  10.949   6.192   4.462 -0.1217 -0.3698  0.4274
  652MOL0     C87938  10.809   6.212   4.466 -0.2889  0.4936 -0.4061
  652MOL0     C87939  10.374   6.315   4.449  0.7380 -0.5236  0.3792
  652MOL0     C87940  10.363   6.416   4.547  0.0711  0.0891 -0.1019
  652MOL0     C87941  10.239   6.452   4.602 -0.4102 -0.0829 -0.0454
  652MOL0     C87942  10.120   6.391   4.553  0.0807 -0.1753  0.9340
  652MOL0     O87943   9.987   6.423   4.586 -0.2960  0.0485 -0.0539
  652MOL0     C87944   9.971   6.513   4.693  0.0592 -0.7774 -0.0899
  652MOL0     C87945   9.835   6.578   4.677 -0.7922  0.3745 -0.1338
  652MOL0     C87946   9.815   6.668   4.804 -0.8427  0.5037 -0.0959
  652MOL0     C87947   9.684   6.739   4.792  0.9425 -0.6392 -0.7267
  652MOL0     C87948   9.678   6.850   4.892  0.0513  0.6012 -0.3659
  652MOL0     C87949   9.678   6.935   4.975 -0.1067  0.1182  0.3269
  652MOL0     C87950  10.130   6.304   4.446  0.5842  0.2560 -0.4427
  652MOL0     C87951  10.255   6.268   4.393  0.0831  0.6751 -0.0217
  652MOL0     C87952  10.248   6.193   4.268  0.2917  1.4346 -0.2140
  652MOL0     H87953  10.781   6.536   4.466  1.5061  1.0850  1.8939
  652MOL0     H87954  11.029   6.519   4.489 -1.0337  0.2379  2.7254
  652MOL0     H87955  11.167   6.251   4.677 -1.5162 -1.0852 -2.4515
  652MOL0     H87956  11.315   6.222   4.602 -1.2278 -1.8952 -0.4591
  652MOL0     H87957  11.186   6.492   4.671 -0.7041  1.3744  0.8425
  652MOL0     H87958  11.329   6.480   4.567 -0.1899  0.4609  0.1721
  652MOL0     H87959  11.439   6.493   4.758 -0.6679  0.2917  0.2511
  652MOL0     H87960  11.418   6.321   4.750 -0.7262 -0.2508 -0.8037
  652MOL0     H87961  11.254   6.524   4.904 -2.0086 -0.2292 -1.2827
  652MOL0     H87962  11.183   6.371   4.879  0.8698 -2.7930  0.3722
  652MOL0     H87963  11.299   6.348   5.103 -0.1064  2.2353  0.0901
  652MOL0     H87964  11.396   6.256   4.997 -1.1444 -0.5757 -1.4715
  652MOL0     H87965  11.538   6.379   5.113 -2.1665 -1.9499  1.1200
  652MOL0     H87966  11.541   6.463   4.959  1.7386 -0.3802  0.7887
  652MOL0     H87967  11.373   6.553   5.197  0.5652 -1.3329 -0.8928
  652MOL0     H87968  11.403   6.643   5.054  2.9897 -0.2194 -1.5285
  652MOL0     H87969  11.624   6.686   5.087  1.6299 -2.7136  0.8158
  652MOL0     H87970  11.516   6.748   5.218 -0.1427 -0.3961  1.3443
  652MOL0     H87971  11.539   6.521   5.439 -0.8074 -2.6849  0.0991
  652MOL0     H87972  11.710   6.288   5.549 -0.2591  0.0744 -2.5510
  652MOL0     H87973  11.874   6.334   5.529  2.4920  2.6245 -0.8827
  652MOL0     H87974  11.856   6.523   5.668  1.6533 -1.5931  0.0362
  652MOL0     H87975  11.673   6.490   5.693 -2.4454 -3.5281 -1.0550
  652MOL0     H87976  11.753   6.270   5.781 -0.9184  1.0181  2.9320
  652MOL0     H87977  11.784   6.411   5.889  1.4366 -1.5991  1.9114
  652MOL0     H87978  11.991   6.260   5.733 -0.5984 -0.4652  0.0935
  652MOL0     H87979  11.978   6.276   5.899 -1.6107 -1.6021  0.3325
  652MOL0     H87980  12.179   6.261   5.926  0.9572 -0.5942  0.5635
  652MOL0     H87981  12.416   6.233   5.953 -0.6405  0.8570  0.2034
  652MOL0     H87982  12.759   6.225   6.103  1.3761 -1.1181  1.7006
  652MOL0     H87983  13.013   6.194   6.140  3.3875 -0.2085 -1.9772
  652MOL0     H87984  13.250   6.037   5.856 -1.5266  0.8736 -0.9418
  652MOL0     H87985  13.265   6.179   5.763 -1.4789  1.2931  0.2170
  652MOL0     H87986  13.420   6.270   5.957  0.8075  1.1404 -0.7959
  652MOL0     H87987  13.450   6.098   5.994  1.9464  0.7988 -1.3776
  652MOL0     H87988  13.515   6.081   5.742 -0.8903 -0.5915  1.5655
  652MOL0     H87989  13.519   6.264   5.747  2.3895  0.3184  0.7265
  652MOL0     H87990  13.696   6.098   5.922  1.4386  1.1166  1.1382
  652MOL0     H87991  13.663   6.266   5.937  1.0395 -1.4017  1.1951
  652MOL0     H87992  13.745   6.289   5.694  0.6172 -0.0802  1.0533
  652MOL0     H87993  13.750   6.113   5.675 -0.8768 -0.8662  1.2363
  652MOL0     H87994  13.935   6.299   5.825 -0.2776 -0.8562  1.2725
  652MOL0     H87995  13.906   6.139   5.886 -4.6485  1.8067  2.0973
  652MOL0     H87996  13.993   6.225   5.603  1.4648 -1.0328 -0.9108
  652MOL0     H87997  13.966   6.061   5.652 -0.2523  0.0088  2.4519
  652MOL0     H87998  14.145   6.081   5.831 -1.3031 -2.7715 -1.5848
  652MOL0     H87999  14.194   6.068   5.662 -0.1911 -0.3397 -1.3715
  652MOL0     H88000  13.050   6.236   5.702  0.3473 -2.3013 -0.0413
  652MOL0     H88001  12.820   6.236   5.682 -2.3452 -0.4684  1.1380
  652MOL0     H88002  12.460   6.568   5.676 -1.4374 -1.9598 -1.7108
  652MOL0     H88003  12.231   6.599   5.673 -3.6887 -0.3221  2.1827
  652MOL0     H88004  10.999   6.096   4.458  0.0353 -0.2665 -2.9565
  652MOL0     H88005  10.755   6.118   4.464  1.4605 -0.5549  0.3303
  652MOL0     H88006  10.437   6.484   4.588 -0.2718  0.2408  0.2692
  652MOL0     H88007  10.249   6.530   4.677  2.0223  0.7296 -1.1069
  652MOL0     H88008  10.049   6.590   4.697  0.7902 -1.5336  0.9104
  652MOL0     H88009   9.978   6.453   4.784  1.3343  1.3980  1.3484
  652MOL0     H88010   9.757   6.501   4.683 -0.0596 -0.4842 -1.1696
  652MOL0     H88011   9.837   6.624   4.579  0.9528 -0.6610 -0.6371
  652MOL0     H88012   9.895   6.738   4.826 -3.0496  3.0814  0.1959
  652MOL0     H88013   9.811   6.603   4.892  0.0433  0.4951 -0.0526
  652MOL0     H88014   9.672   6.780   4.692  2.1012 -1.2020 -1.1139
  652MOL0     H88015   9.612   6.660   4.814 -1.1290  0.7968 -2.0395
  652MOL0     H88016   9.680   6.998   5.061 -1.5670 -2.4715  2.4207
  652MOL0     H88017  10.040   6.256   4.411  1.0483 -0.0059 -1.3078
  652MOL0     H88018  10.148   6.179   4.228  0.7103 -1.6249 -0.4283
  652MOL0     H88019  10.313   6.219   4.184  3.2300 -2.3123  0.5912
  652MOL0     H88020  10.279   6.089   4.287 -2.6160 -0.1333 -3.1298
  653MOL0     O88021   5.344   9.698   0.900  0.2136  0.1039 -0.0353
  653MOL0     C88022   5.423   9.781   0.866 -0.9612 -0.0189 -0.0770
  653MOL0     O88023   5.558   9.761   0.854  0.0197 -0.1751  0.0853
  653MOL0     C88024   5.610   9.646   0.810  0.4835  0.5277  0.6599
  653MOL0     C88025   5.552   9.588   0.692  0.5992  0.3136 -0.0296
  653MOL0     C88026   5.585   9.456   0.661  0.2871  0.4733  0.2148
  653MOL0     C88027   5.687   9.393   0.724 -0.0999 -0.3586 -1.0120
  653MOL0     O88028   5.715   9.267   0.687 -0.5514 -0.1418  0.2283
  653MOL0     C88029   5.827   9.205   0.748 -0.4558  0.1972 -0.1013
  653MOL0     C88030   5.845   9.055   0.713  0.2924 -0.0224 -0.6118
  653MOL0     C88031   5.981   8.994   0.766  0.0110  0.8668 -0.1365
  653MOL0     C88032   6.075   8.981   0.645  0.6946 -0.0175 -0.5482
  653MOL0     C88033   6.211   8.936   0.694 -0.6296  0.3767 -0.0532
  653MOL0     C88034   6.307   9.047   0.720  0.0321  0.5020  0.5645
  653MOL0     C88035   6.426   9.004   0.816 -0.9153 -0.1283 -0.3299
  653MOL0     C88036   6.528   8.912   0.744 -0.3990  0.2936  0.2665
  653MOL0     N88037   6.657   8.907   0.806 -0.4795  0.1205  0.0548
  653MOL0     C88038   6.675   8.912   0.945  1.5660  1.1652 -0.4831
  653MOL0     C88039   6.806   8.908   0.960 -0.2902 -0.1264 -0.2797
  653MOL0     C88040   6.866   8.920   1.099 -0.6077  0.8652  0.1156
  653MOL0     C88041   7.007   8.969   1.073 -0.6763  1.0911 -0.8968
  653MOL0     C88042   7.068   9.003   1.207 -0.6817  0.0214  0.7660
  653MOL0     C88043   7.210   9.057   1.196 -0.2760  0.2480 -0.1864
  653MOL0     O88044   7.302   8.950   1.167  0.4862  0.5717 -0.4194
  653MOL0     C88045   7.413   8.939   1.252 -0.4816  0.5276  0.4005
  653MOL0     C88046   7.540   8.915   1.203 -0.3540 -0.1720 -0.1892
  653MOL0     C88047   7.659   8.932   1.277  0.8601  0.2388  0.4854
  653MOL0     C88048   7.653   8.969   1.409  0.7035  0.8115  0.0111
  653MOL0     C88049   7.780   8.983   1.487 -0.1659 -0.2984  0.2348
  653MOL0     O88050   7.898   8.962   1.415  0.0012 -0.2901  0.0154
  653MOL0     C88051   8.024   8.937   1.477  0.4284  0.4833  0.5379
  653MOL0     C88052   8.134   8.982   1.397  0.0587  0.0820  0.0572
  653MOL0     C88053   8.260   8.954   1.441 -0.2004 -0.5272  0.1659
  653MOL0     C88054   8.291   8.903   1.564 -0.3939 -0.1467  0.2386
  653MOL0     O88055   8.427   8.885   1.600 -0.0400  0.5841  0.2720
  653MOL0     C88056   8.467   8.962   1.714 -0.2837 -0.8616  0.2868
  653MOL0     C88057   8.526   8.869   1.812 -1.0262 -0.6077 -0.5567
  653MOL0     C88058   8.678   8.835   1.785  0.1674 -0.0470  0.3740
  653MOL0     C88059   8.729   8.706   1.850 -0.5169  0.1281  0.3798
  653MOL0     C88060   8.881   8.702   1.810  0.4756 -0.8124  0.1926
  653MOL0     C88061   8.969   8.603   1.892 -0.3739 -0.1519 -0.0573
  653MOL0     C88062   9.102   8.583   1.836 -0.8728 -0.7616  0.6168
  653MOL0     C88063   9.169   8.460   1.897  0.1499  0.9320 -0.1314
  653MOL0    Cl88064   9.345   8.443   1.823  0.1338  0.1825  0.1694
  653MOL0     C88065   8.185   8.865   1.650 -0.4064 -0.0372 -0.2614
  653MOL0     C88066   8.047   8.890   1.611  0.2376 -0.5296  0.4714
  653MOL0     O88067   7.767   9.017   1.603  0.3496 -0.6984  0.0870
  653MOL0     C88068   7.527   8.974   1.470  1.1921 -0.3734  0.5324
  653MOL0     C88069   7.406   8.962   1.393 -0.2352  1.5515  0.2050
  653MOL0     N88070   6.867   8.873   0.841 -0.0336 -1.1680  0.8919
  653MOL0     N88071   6.776   8.878   0.745  0.7286 -0.9642 -0.3684
  653MOL0     C88072   5.766   9.461   0.825 -0.1028 -0.3286  0.4506
  653MOL0     C88073   5.722   9.582   0.859 -0.2624  0.5268  0.3850
  653MOL0     C88074   5.376   9.928   0.843 -0.4983 -0.0484 -0.0158
  653MOL0     C88075   5.472  10.030   0.833 -0.0872 -0.1788 -0.4238
  653MOL0     C88076   5.433  10.162   0.834 -0.4992 -0.2216 -0.3345
  653MOL0     C88077   5.297  10.198   0.818  0.4647  0.1345 -0.2547
  653MOL0     O88078   5.265  10.327   0.789 -0.2452 -0.2889 -0.0163
  653MOL0     C88079   5.126  10.370   0.800 -0.0011 -0.3436 -0.0994
  653MOL0     C88080   5.054  10.343   0.669  0.1978 -0.1723  0.6073
  653MOL0     C88081   5.113  10.422   0.552  0.2242  0.3145 -0.4011
  653MOL0     C88082   5.007  10.435   0.442 -0.4409 -0.0333 -0.2017
  653MOL0     C88083   5.042  10.502   0.322  0.0653 -0.0485 -0.2909
  653MOL0     C88084   5.051  10.555   0.215  0.1528 -0.2670 -0.2967
  653MOL0     C88085   5.203  10.096   0.817 -0.2892  1.1081 -0.1569
  653MOL0     C88086   5.241   9.963   0.839  0.1293 -0.6574 -0.3600
  653MOL0     C88087   5.131   9.863   0.823  1.2164  0.0525 -0.2467
  653MOL0     H88088   5.482   9.646   0.631 -1.6893 -1.4187  0.8055
  653MOL0     H88089   5.535   9.401   0.582 -0.2137 -0.2905  1.0448
  653MOL0     H88090   5.920   9.257   0.723  0.4840  0.0885  2.8131
  653MOL0     H88091   5.816   9.209   0.857  0.0071  3.7597 -0.0640
  653MOL0     H88092   5.830   9.037   0.607  0.2392  2.1439 -1.0127
  653MOL0     H88093   5.770   9.002   0.773  1.0945  1.9763  2.4216
  653MOL0     H88094   5.970   8.895   0.812  0.0767  2.7748  4.6110
  653MOL0     H88095   6.020   9.058   0.846  0.0581 -1.4974  1.8462
  653MOL0     H88096   6.028   8.903   0.586  0.0568 -0.9770  1.1643
  653MOL0     H88097   6.076   9.065   0.575 -1.1977 -0.4005 -1.0707
  653MOL0     H88098   6.205   8.873   0.783 -0.2381 -2.3674 -1.8790
  653MOL0     H88099   6.252   8.874   0.615 -0.8590  1.3689 -0.9717
  653MOL0     H88100   6.345   9.071   0.620 -0.5204 -1.4140 -0.1268
  653MOL0     H88101   6.260   9.135   0.766 -0.2268  0.5202  0.2671
  653MOL0     H88102   6.397   8.961   0.912 -0.7271 -0.7179 -0.5356
  653MOL0     H88103   6.481   9.093   0.847 -0.9485  0.0310 -0.7227
  653MOL0     H88104   6.481   8.813   0.744 -2.7037  1.3299  0.5157
  653MOL0     H88105   6.538   8.951   0.642 -1.5556  0.1202  0.0670
  653MOL0     H88106   6.607   8.934   1.027  2.9823 -0.8498  1.3484
  653MOL0     H88107   6.819   8.991   1.167  1.5366 -0.0400  2.7245
  653MOL0     H88108   6.861   8.819   1.140  1.4314  1.6246  2.5278
  653MOL0     H88109   7.068   8.892   1.024  0.2336  0.0343  1.6882
  653MOL0     H88110   7.003   9.063   1.018 -0.9934  1.2557 -0.5939
  653MOL0     H88111   7.077   8.911   1.265 -2.4938 -1.1919 -0.7551
  653MOL0     H88112   7.013   9.081   1.260 -1.7067  0.0683 -0.3273
  653MOL0     H88113   7.226   9.104   1.294 -0.5500 -2.0593  1.0365
  653MOL0     H88114   7.212   9.133   1.117  0.8497  2.5948  1.9758
  653MOL0     H88115   7.557   8.891   1.099 -1.9852 -0.4376 -0.4240
  653MOL0     H88116   7.756   8.915   1.231  0.2433 -0.5561 -0.5595
  653MOL0     H88117   8.114   9.028   1.301 -0.6362 -0.4912 -0.0808
  653MOL0     H88118   8.345   8.971   1.375  1.1791 -4.3113  0.7126
  653MOL0     H88119   8.543   9.037   1.691  0.7503 -1.1878  2.4274
  653MOL0     H88120   8.382   9.020   1.753  0.9363  1.0462  0.2651
  653MOL0     H88121   8.518   8.924   1.906 -0.2998  2.1899 -2.0349
  653MOL0     H88122   8.462   8.782   1.829 -0.7400 -0.8784 -0.8501
  653MOL0     H88123   8.685   8.822   1.677 -0.2440  1.4793  0.1331
  653MOL0     H88124   8.735   8.926   1.806  2.9482 -1.0706 -2.0851
  653MOL0     H88125   8.679   8.618   1.808  2.4675 -0.3597 -2.5378
  653MOL0     H88126   8.714   8.716   1.958  1.5116  0.1398  0.7018
  653MOL0     H88127   8.925   8.801   1.823 -2.3991  1.2664 -3.8065
  653MOL0     H88128   8.881   8.674   1.704 -0.0661 -1.0313  0.2478
  653MOL0     H88129   8.980   8.637   1.996  1.7343 -1.2206  0.1286
  653MOL0     H88130   8.913   8.508   1.891  0.2113 -0.5076  0.2984
  653MOL0     H88131   9.157   8.677   1.851 -0.8272 -0.2322 -2.3420
  653MOL0     H88132   9.099   8.577   1.727 -1.0169  2.9705  0.2728
  653MOL0     H88133   9.171   8.468   2.006 -1.0977 -2.8495  0.3327
  653MOL0     H88134   9.113   8.368   1.879  0.9747  0.4570 -0.3598
  653MOL0     H88135   8.215   8.837   1.751 -0.2492 -1.9928 -0.8188
  653MOL0     H88136   7.969   8.863   1.682  0.5226  0.0770  1.0263
  653MOL0     H88137   7.515   8.999   1.575  1.9031  0.1708  0.4891
  653MOL0     H88138   7.303   8.970   1.428 -0.7869 -0.6049 -0.7527
  653MOL0     H88139   5.858   9.421   0.867  0.8299  1.0432 -0.2348
  653MOL0     H88140   5.770   9.649   0.929  0.5019 -1.2401  1.6401
  653MOL0     H88141   5.579  10.013   0.823 -0.3121 -0.1057 -3.7616
  653MOL0     H88142   5.510  10.238   0.821  0.1526 -0.9728 -0.9523
  653MOL0     H88143   5.115  10.476   0.821 -3.5517 -0.7267  0.6001
  653MOL0     H88144   5.081  10.318   0.885 -2.3562  0.9844 -0.4512
  653MOL0     H88145   4.951  10.369   0.695 -0.4174 -1.5422 -0.3275
  653MOL0     H88146   5.054  10.238   0.639 -0.1078  0.0275 -0.1198
  653MOL0     H88147   5.205  10.381   0.510 -1.4888 -1.7160 -2.5189
  653MOL0     H88148   5.134  10.520   0.595  0.9523 -0.2144  0.4920
  653MOL0     H88149   4.976  10.332   0.421  2.3007 -0.8689 -0.6524
  653MOL0     H88150   4.929  10.488   0.497  0.6128  1.2354  0.1207
  653MOL0     H88151   5.040  10.590   0.115 -1.8186  0.8127  0.2391
  653MOL0     H88152   5.103  10.133   0.802  0.5823  3.8929  0.3502
  653MOL0     H88153   5.132   9.800   0.912  1.7204 -0.3707 -0.5422
  653MOL0     H88154   5.028   9.892   0.805  0.8935 -2.2862 -2.9618
  653MOL0     H88155   5.154   9.817   0.726 -0.7908  0.4971 -0.9727
  654MOL0     O88156   9.381   9.509   6.505  0.1419 -0.3740 -0.2227
  654MOL0     C88157   9.369   9.567   6.613 -0.4019  0.1933  0.8578
  654MOL0     O88158   9.251   9.575   6.686 -0.0686  0.1177  0.5387
  654MOL0     C88159   9.134   9.539   6.628  0.0607  0.1673 -0.1074
  654MOL0     C88160   9.073   9.422   6.679 -0.1521 -0.2178 -0.2970
  654MOL0     C88161   8.948   9.383   6.622 -0.5121  0.0222  0.8240
  654MOL0     C88162   8.890   9.461   6.522  0.3389 -1.0353 -0.0899
  654MOL0     O88163   8.771   9.414   6.458 -0.4319  0.4777  0.1095
  654MOL0     C88164   8.688   9.514   6.394  0.1242 -0.9582  0.4251
  654MOL0     C88165   8.534   9.500   6.427 -0.0881  0.1919  0.0339
  654MOL0     C88166   8.457   9.624   6.382 -0.3700  0.1118 -0.2210
  654MOL0     C88167   8.473   9.745   6.474 -0.0676  1.1107  0.6937
  654MOL0     C88168   8.364   9.847   6.439 -0.1107  0.7476  0.0424
  654MOL0     C88169   8.331   9.888   6.292 -0.0612 -0.0120  0.7626
  654MOL0     C88170   8.206   9.814   6.246  0.5056 -0.3629  0.6173
  654MOL0     C88171   8.193   9.841   6.097 -0.1591  0.2198  0.6672
  654MOL0     N88172   8.147   9.980   6.074 -0.2389  0.2894  0.9028
  654MOL0     C88173   8.228  10.082   6.037 -0.0553  0.7680  0.7050
  654MOL0     C88174   8.152  10.190   6.041 -0.2235 -0.2940  0.2786
  654MOL0     C88175   8.201  10.325   6.000  0.3232  0.1201  0.2597
  654MOL0     C88176   8.217  10.416   6.123 -0.1746  0.7416 -0.5045
  654MOL0     C88177   8.314  10.346   6.218 -0.2249 -0.1743  0.2983
  654MOL0     C88178   8.351  10.451   6.323  0.2826 -0.4878  0.2179
  654MOL0     O88179   8.440  10.389   6.427  0.3856  0.6574  0.0233
  654MOL0     C88180   8.573  10.426   6.432 -0.2672 -0.3864 -0.0325
  654MOL0     C88181   8.647  10.493   6.339  1.2239 -0.5882 -0.0306
  654MOL0     C88182   8.776  10.521   6.357 -0.1521 -0.5187  0.2616
  654MOL0     C88183   8.833  10.502   6.480 -0.3039 -0.4853  0.7309
  654MOL0     C88184   8.973  10.544   6.500  0.1418 -0.1938  0.2622
  654MOL0     O88185   9.033  10.598   6.398  0.5795 -0.2042  0.7148
  654MOL0     C88186   9.168  10.619   6.403 -0.0263  0.1961  0.0555
  654MOL0     C88187   9.220  10.752   6.377  0.5850 -0.5393 -0.5431
  654MOL0     C88188   9.350  10.782   6.389  0.3945  0.4270  0.4669
  654MOL0     C88189   9.440  10.679   6.411 -0.6782 -0.6447  0.5138
  654MOL0     O88190   9.572  10.719   6.427  0.2554 -0.3030 -0.4059
  654MOL0     C88191   9.669  10.617   6.390  0.0263 -0.3721 -0.7798
  654MOL0     C88192   9.809  10.689   6.390  0.2642  0.2322 -0.2612
  654MOL0     C88193   9.919  10.590   6.353 -0.1900 -0.6536  0.0093
  654MOL0     C88194  10.053  10.662   6.350 -0.2805  0.1135  0.1135
  654MOL0     C88195  10.175  10.599   6.286 -0.8263  0.1355 -0.5844
  654MOL0     C88196  10.304  10.700   6.269 -0.1740  0.3728 -0.0908
  654MOL0     C88197  10.431  10.630   6.222 -0.0600 -0.1737  0.2440
  654MOL0     C88198  10.444  10.591   6.074 -0.2050  0.7076 -0.1704
  654MOL0    Cl88199  10.586  10.472   6.059  0.3777  0.1336 -0.1470
  654MOL0     C88200   9.400  10.544   6.422 -0.9038  0.0910 -0.4590
  654MOL0     C88201   9.263  10.511   6.421 -0.0058  0.2774 -0.4224
  654MOL0     O88202   9.032  10.515   6.613  0.1471 -0.2334 -0.2186
  654MOL0     C88203   8.764  10.432   6.577 -0.5929 -0.3656 -0.5019
  654MOL0     C88204   8.632  10.397   6.551 -0.1157  0.0107  0.0647
  654MOL0     N88205   8.030  10.148   6.092  0.4003  0.0722 -0.0875
  654MOL0     N88206   8.022  10.024   6.107  1.0045  0.3042 -1.1436
  654MOL0     C88207   8.965   9.574   6.467 -0.0222  0.9225 -0.5805
  654MOL0     C88208   9.083   9.611   6.522 -0.1476 -0.5555  0.4333
  654MOL0     C88209   9.495   9.629   6.664  0.2226  0.0326 -0.1532
  654MOL0     C88210   9.598   9.668   6.573 -0.3967  0.2716 -0.3523
  654MOL0     C88211   9.719   9.716   6.623  0.6246  0.4293 -0.8180
  654MOL0     C88212   9.751   9.733   6.755 -0.2152 -0.5209 -0.4806
  654MOL0     O88213   9.868   9.784   6.803  0.0818  0.0923 -0.5769
  654MOL0     C88214   9.949   9.876   6.722  0.3109 -1.0153 -0.0266
  654MOL0     C88215   9.998   9.981   6.820  0.3397  0.5197 -0.1263
  654MOL0     C88216  10.094  10.086   6.760 -0.1354  0.5648 -0.1433
  654MOL0     C88217  10.132  10.195   6.854  0.0303  1.0988  0.0939
  654MOL0     C88218  10.177  10.305   6.775  0.4066  0.1196  0.3036
  654MOL0     C88219  10.223  10.386   6.698  0.3028 -0.1529  0.3889
  654MOL0     C88220   9.662   9.678   6.838  0.6135 -1.0943  0.0747
  654MOL0     C88221   9.533   9.634   6.797  0.0877 -0.7093 -0.6051
  654MOL0     C88222   9.446   9.593   6.915  0.1517 -0.2619  0.0392
  654MOL0     H88223   9.120   9.359   6.753  0.7711 -0.4147 -1.0246
  654MOL0     H88224   8.905   9.295   6.667  0.1850  0.0742  1.6315
  654MOL0     H88225   8.717   9.618   6.409  0.7738 -0.7881 -1.6351
  654MOL0     H88226   8.700   9.507   6.285 -3.1947  0.4727 -0.1715
  654MOL0     H88227   8.528   9.493   6.536 -0.6203 -0.1770 -0.0135
  654MOL0     H88228   8.493   9.411   6.379  0.9926 -0.2805 -0.0326
  654MOL0     H88229   8.349   9.607   6.375 -0.1719 -1.3374 -0.0092
  654MOL0     H88230   8.477   9.648   6.277  0.5313  2.3399  0.3913
  654MOL0     H88231   8.457   9.716   6.578  2.1237  1.1435  1.0966
  654MOL0     H88232   8.568   9.796   6.453 -0.2705  1.5776  0.8780
  654MOL0     H88233   8.274   9.824   6.497 -0.1368  2.0405  0.5331
  654MOL0     H88234   8.388   9.950   6.466 -1.9798  0.9550  1.0417
  654MOL0     H88235   8.299   9.992   6.290 -1.2604 -0.3465  1.2290
  654MOL0     H88236   8.413   9.864   6.224 -2.2639 -1.8728 -1.4495
  654MOL0     H88237   8.130   9.868   6.304 -1.2079 -1.1328 -0.8132
  654MOL0     H88238   8.209   9.706   6.263  2.0217 -0.8254 -2.0748
  654MOL0     H88239   8.282   9.811   6.041 -1.8644 -3.6321 -0.2691
  654MOL0     H88240   8.116   9.773   6.060 -0.6901 -0.9354  3.6161
  654MOL0     H88241   8.330  10.087   6.001 -0.4411 -1.4600 -0.8665
  654MOL0     H88242   8.293  10.322   5.941  1.4297  0.0032  1.9241
  654MOL0     H88243   8.130  10.375   5.934  1.1257  2.7435  1.2436
  654MOL0     H88244   8.241  10.519   6.097 -0.0734  0.8446 -0.0174
  654MOL0     H88245   8.120  10.405   6.172  0.4128  1.0837  0.7831
  654MOL0     H88246   8.410  10.322   6.170  1.6770  2.9011  2.2020
  654MOL0     H88247   8.266  10.256   6.256 -0.8811 -0.6698 -1.6213
  654MOL0     H88248   8.263  10.486   6.378  1.1123 -2.0769  2.6850
  654MOL0     H88249   8.396  10.532   6.266 -1.7874 -0.1089 -0.9929
  654MOL0     H88250   8.610  10.508   6.238  0.3773 -0.7864  0.2478
  654MOL0     H88251   8.826  10.579   6.280 -0.6707 -0.2088  0.1512
  654MOL0     H88252   9.153  10.836   6.364 -2.0170 -2.4018 -0.0116
  654MOL0     H88253   9.369  10.888   6.373  1.1189 -0.1904 -3.8043
  654MOL0     H88254   9.669  10.543   6.471 -2.0856  1.7284  1.3312
  654MOL0     H88255   9.646  10.560   6.300 -0.7887  0.4191 -1.0817
  654MOL0     H88256   9.808  10.775   6.323 -1.1437  0.6987  0.3029
  654MOL0     H88257   9.840  10.719   6.491 -1.2211  0.9910 -0.0026
  654MOL0     H88258   9.919  10.514   6.432 -0.3992 -1.5680 -0.8547
  654MOL0     H88259   9.894  10.551   6.254 -0.5397  0.3655 -0.3154
  654MOL0     H88260  10.071  10.660   6.458 -1.5327  1.1453  0.3583
  654MOL0     H88261  10.042  10.768   6.328  1.5714  0.7075  1.7785
  654MOL0     H88262  10.144  10.572   6.184 -2.8257  1.2757 -0.3263
  654MOL0     H88263  10.197  10.509   6.343 -0.8463 -0.8463 -2.0645
  654MOL0     H88264  10.277  10.776   6.195  2.6836  0.2718 -1.3610
  654MOL0     H88265  10.327  10.745   6.367  4.7244 -0.2975 -0.6750
  654MOL0     H88266  10.435  10.534   6.274 -2.7372  1.1730  3.3046
  654MOL0     H88267  10.515  10.688   6.260  1.7841 -2.4452 -0.1184
  654MOL0     H88268  10.357  10.539   6.034 -0.2531  1.0975 -0.5811
  654MOL0     H88269  10.464  10.681   6.015 -0.8787  1.1294  0.2338
  654MOL0     H88270   9.469  10.468   6.456 -0.3813  0.3480 -0.9427
  654MOL0     H88271   9.228  10.410   6.438 -1.2267  1.1468  3.0525
  654MOL0     H88272   8.814  10.411   6.671  0.8687 -0.9678 -1.3729
  654MOL0     H88273   8.585  10.326   6.618  2.2541 -0.5679  1.2160
  654MOL0     H88274   8.937   9.618   6.372 -0.7910 -0.8658 -1.2137
  654MOL0     H88275   9.136   9.697   6.483 -3.2142  2.0541  1.5759
  654MOL0     H88276   9.575   9.681   6.468 -2.0328 -0.9222 -0.1784
  654MOL0     H88277   9.789   9.751   6.547  1.9219  0.4940  0.3697
  654MOL0     H88278   9.890   9.915   6.639 -0.5401 -2.3878 -0.0983
  654MOL0     H88279  10.027   9.817   6.672 -0.1950 -1.1536 -0.6727
  654MOL0     H88280  10.039   9.920   6.901 -1.3409 -1.0329 -0.3903
  654MOL0     H88281   9.912  10.028   6.869  0.1811 -1.3096  1.4699
  654MOL0     H88282  10.061  10.119   6.661 -0.8412  0.9179  0.1973
  654MOL0     H88283  10.186  10.031   6.740 -0.3476 -0.0844  0.6207
  654MOL0     H88284  10.047  10.233   6.910  1.2738  1.8601  1.5343
  654MOL0     H88285  10.210  10.161   6.923 -0.4109  1.8384  0.9759
  654MOL0     H88286  10.279  10.465   6.654  0.7170  0.8211  2.5522
  654MOL0     H88287   9.679   9.679   6.945  0.0613 -2.5161  0.2026
  654MOL0     H88288   9.425   9.486   6.908 -0.8991 -0.1760  1.5210
  654MOL0     H88289   9.495   9.616   7.010  0.0463  1.0100 -0.1881
  654MOL0     H88290   9.357   9.656   6.917  0.8609  0.8073 -0.6164
  655MOL0     O88291  10.048   4.372   2.359  0.3965  0.7754  0.5735
  655MOL0     C88292  10.010   4.286   2.439 -0.2196 -0.2560 -0.0305
  655MOL0     O88293  10.060   4.272   2.569 -0.3708  0.2740  0.4378
  655MOL0     C88294  10.185   4.326   2.599 -0.4058  0.4039  0.7819
  655MOL0     C88295  10.286   4.344   2.500 -0.6739 -0.0773 -0.0756
  655MOL0     C88296  10.404   4.398   2.534 -0.2900  0.0236 -0.5854
  655MOL0     C88297  10.434   4.443   2.662 -0.4146  0.2658  0.1013
  655MOL0     O88298  10.549   4.512   2.699 -0.4840  0.0518 -0.0972
  655MOL0     C88299  10.666   4.506   2.611  0.5520  0.0321 -0.7373
  655MOL0     C88300  10.742   4.377   2.620 -0.6800 -0.5486  0.4076
  655MOL0     C88301  10.866   4.389   2.529  0.1508 -0.0048  0.0119
  655MOL0     C88302  10.954   4.265   2.526  0.0338 -0.2275  0.9422
  655MOL0     C88303  11.027   4.244   2.653 -0.5871 -0.1846  0.5517
  655MOL0     C88304  11.117   4.116   2.651  0.5337  0.1338 -0.0235
  655MOL0     C88305  11.212   4.112   2.530  0.0463  0.9664  0.1585
  655MOL0     C88306  11.309   3.990   2.539 -0.7574 -0.3218  0.8479
  655MOL0     N88307  11.425   4.025   2.618 -0.0208  0.0867  0.0321
  655MOL0     C88308  11.429   4.027   2.759  0.0405  0.4113  1.3003
  655MOL0     C88309  11.552   4.087   2.778 -0.0605 -0.7994 -0.0786
  655MOL0     C88310  11.621   4.106   2.915 -0.6158  0.5690  0.3179
  655MOL0     C88311  11.621   4.248   2.961 -0.1455  0.1059 -0.0449
  655MOL0     C88312  11.699   4.274   3.095  0.0760 -0.5156  0.3883
  655MOL0     C88313  11.707   4.430   3.117  0.3838 -0.6515 -0.3480
  655MOL0     O88314  11.786   4.443   3.237  0.8240 -0.0967  0.3749
  655MOL0     C88315  11.908   4.492   3.236 -0.6352 -1.0009  0.4773
  655MOL0     C88316  11.994   4.497   3.128 -0.6583  0.5030  0.2720
  655MOL0     C88317  12.120   4.557   3.147  0.0885  0.2080  0.9562
  655MOL0     C88318  12.166   4.586   3.271 -0.9481 -1.1350  0.3103
  655MOL0     C88319  12.297   4.643   3.294 -0.6041  0.1697 -0.0069
  655MOL0     O88320  12.319   4.681   3.434  0.4522  1.4399 -0.3297
  655MOL0     C88321  12.432   4.748   3.471 -0.3105 -0.5921 -0.1369
  655MOL0     C88322  12.568   4.706   3.435  0.7845 -0.9402  0.8999
  655MOL0     C88323  12.678   4.788   3.469  0.2258  0.3423  0.2697
  655MOL0     C88324  12.665   4.904   3.554 -0.4446 -0.3877 -0.5174
  655MOL0     O88325  12.758   4.990   3.598 -0.8418 -0.0129  0.8800
  655MOL0     C88326  12.877   5.000   3.516  0.7946  0.1966 -0.4213
  655MOL0     C88327  12.922   5.141   3.508  0.6619  0.4124 -0.7630
  655MOL0     C88328  12.809   5.245   3.483  0.0495  0.2916 -0.9907
  655MOL0     C88329  12.748   5.228   3.343 -0.3589 -0.2921 -0.2615
  655MOL0     C88330  12.653   5.337   3.295  0.5326 -0.3077 -0.0201
  655MOL0     C88331  12.717   5.472   3.273 -0.7389  0.4720  0.1719
  655MOL0     C88332  12.659   5.556   3.156 -0.1708  0.3084 -0.2943
  655MOL0     C88333  12.756   5.658   3.099 -0.5316 -0.4876 -0.1974
  655MOL0    Cl88334  12.912   5.577   3.055 -0.0186 -0.0798  0.1131
  655MOL0     C88335  12.537   4.934   3.594 -0.1833 -0.6277 -0.6692
  655MOL0     C88336  12.422   4.860   3.559  0.1942  0.9278  0.1242
  655MOL0     O88337  12.377   4.653   3.199 -0.3391 -0.4178 -0.4164
  655MOL0     C88338  12.073   4.593   3.380  0.3590  0.6250 -0.2842
  655MOL0     C88339  11.950   4.541   3.357  0.0884 -0.0228 -0.2569
  655MOL0     N88340  11.610   4.127   2.663  0.0924 -0.2627 -0.2264
  655MOL0     N88341  11.531   4.090   2.567  0.4088  0.3412 -0.3542
  655MOL0     C88342  10.340   4.424   2.770 -0.2829 -0.5363  1.1343
  655MOL0     C88343  10.213   4.367   2.730 -0.6632 -0.6051  0.0870
  655MOL0     C88344   9.911   4.179   2.394  0.3922 -0.6535 -0.5279
  655MOL0     C88345   9.908   4.054   2.464 -0.3935 -0.2201  0.5379
  655MOL0     C88346   9.820   3.956   2.434  0.8904 -0.0140 -0.1405
  655MOL0     C88347   9.728   3.964   2.324  0.5149  0.2801 -0.0655
  655MOL0     O88348   9.626   3.864   2.306 -0.6600 -0.2555 -0.3165
  655MOL0     C88349   9.583   3.811   2.180  0.0715  0.0822  0.1329
  655MOL0     C88350   9.444   3.755   2.210  0.3812  0.3274  0.4209
  655MOL0     C88351   9.405   3.654   2.106  0.6520 -0.4592 -0.5482
  655MOL0     C88352   9.271   3.593   2.142 -0.0865  0.0723  0.3071
  655MOL0     C88353   9.235   3.490   2.038 -0.3679  0.0292  0.4321
  655MOL0     C88354   9.210   3.409   1.949 -1.1220  0.1033 -0.2711
  655MOL0     C88355   9.725   4.086   2.249 -0.1054  0.4279  0.5826
  655MOL0     C88356   9.816   4.193   2.283  0.5424  0.5231  0.2452
  655MOL0     C88357   9.812   4.310   2.192 -0.1059  0.2071  0.1988
  655MOL0     H88358  10.269   4.299   2.403 -3.6836 -0.1300  0.3740
  655MOL0     H88359  10.468   4.410   2.447 -1.2988 -1.5056 -1.5938
  655MOL0     H88360  10.644   4.541   2.510 -0.1616  0.6041 -0.3934
  655MOL0     H88361  10.736   4.583   2.644 -1.2322  0.9563  1.1196
  655MOL0     H88362  10.684   4.294   2.581  1.1975 -1.5646 -0.3746
  655MOL0     H88363  10.780   4.365   2.722  2.9734 -2.8760 -1.0352
  655MOL0     H88364  10.924   4.478   2.556  0.2272  0.4926 -1.6896
  655MOL0     H88365  10.834   4.402   2.425  0.7696 -1.4424 -0.3858
  655MOL0     H88366  10.894   4.176   2.504  0.4023 -0.3249  0.3148
  655MOL0     H88367  11.024   4.294   2.447 -1.8232  1.8545 -0.0465
  655MOL0     H88368  11.093   4.330   2.669  0.0087 -0.5177 -0.0269
  655MOL0     H88369  10.963   4.245   2.741  1.7150 -1.2245  2.3303
  655MOL0     H88370  11.176   4.127   2.742 -1.6486  1.1422  1.3487
  655MOL0     H88371  11.048   4.031   2.651  1.9240 -1.0538  1.3388
  655MOL0     H88372  11.282   4.196   2.520  1.3274  0.2899  2.5466
  655MOL0     H88373  11.160   4.083   2.438 -0.2233 -1.6501  1.0452
  655MOL0     H88374  11.262   3.893   2.557 -2.6813  0.8170  2.4075
  655MOL0     H88375  11.342   3.978   2.435 -1.5344  0.8153  0.4518
  655MOL0     H88376  11.361   3.980   2.829 -4.1747  1.6249 -1.5522
  655MOL0     H88377  11.572   4.047   2.993  1.6422  0.9150  2.1120
  655MOL0     H88378  11.726   4.075   2.907 -0.5578 -0.0788  2.6092
  655MOL0     H88379  11.668   4.298   2.875  1.9801 -0.1776  0.8932
  655MOL0     H88380  11.516   4.278   2.973 -0.5434 -1.8437  1.9400
  655MOL0     H88381  11.804   4.244   3.090  1.1246  2.5256  1.8618
  655MOL0     H88382  11.649   4.222   3.177 -1.6168  1.8128  0.9489
  655MOL0     H88383  11.608   4.473   3.132  0.9654  1.2581 -1.4810
  655MOL0     H88384  11.743   4.471   3.022  0.0764 -1.9088 -1.0323
  655MOL0     H88385  11.961   4.456   3.033 -1.1820 -0.4246  0.8410
  655MOL0     H88386  12.186   4.577   3.063  0.0049  1.7748  1.2253
  655MOL0     H88387  12.583   4.619   3.372  0.6295  0.7792 -1.6595
  655MOL0     H88388  12.775   4.766   3.427  0.5817 -2.2458  2.2025
  655MOL0     H88389  12.963   4.940   3.547  0.1069  0.6170  2.5559
  655MOL0     H88390  12.858   4.954   3.418 -2.4031 -1.3791  0.8007
  655MOL0     H88391  12.965   5.157   3.607 -2.3287 -1.0822  0.9368
  655MOL0     H88392  13.004   5.151   3.436  0.9656  0.6879 -0.3831
  655MOL0     H88393  12.727   5.246   3.556  0.6066  1.1624 -0.3619
  655MOL0     H88394  12.844   5.348   3.490 -0.4046  0.3938 -0.1039
  655MOL0     H88395  12.684   5.140   3.329  0.2686 -0.5356 -1.8476
  655MOL0     H88396  12.831   5.215   3.272 -0.5371 -1.2275 -0.3147
  655MOL0     H88397  12.581   5.352   3.376  0.5898 -0.6163  0.0894
  655MOL0     H88398  12.605   5.312   3.200  1.7087 -0.6781 -0.5377
  655MOL0     H88399  12.721   5.531   3.365  1.9384  2.2808 -0.9837
  655MOL0     H88400  12.822   5.444   3.258 -1.1151  0.1305 -2.1664
  655MOL0     H88401  12.570   5.606   3.196  1.5395  0.5639  3.5721
  655MOL0     H88402  12.620   5.487   3.080  0.3186 -1.6991  1.1881
  655MOL0     H88403  12.721   5.718   3.015  0.9430 -1.4678 -1.5847
  655MOL0     H88404  12.783   5.738   3.167  2.1171  0.4675 -2.2082
  655MOL0     H88405  12.520   5.018   3.660  1.5496 -0.2169 -0.6889
  655MOL0     H88406  12.326   4.882   3.605  1.0596  2.2413  1.3613
  655MOL0     H88407  12.106   4.619   3.480 -1.6117 -1.5749  1.0358
  655MOL0     H88408  11.879   4.545   3.439 -0.4114 -0.6350 -0.6571
  655MOL0     H88409  10.349   4.484   2.860  2.3464  2.8483 -1.1676
  655MOL0     H88410  10.134   4.370   2.804  0.2771  2.4698  1.1284
  655MOL0     H88411   9.979   4.043   2.545 -0.3424  3.1460  1.1256
  655MOL0     H88412   9.817   3.864   2.492 -0.3584 -1.0727 -1.8027
  655MOL0     H88413   9.651   3.731   2.152  0.4542  1.3316 -2.8238
  655MOL0     H88414   9.576   3.878   2.094  1.8454  0.1750  0.0295
  655MOL0     H88415   9.373   3.839   2.204  1.3922  1.2173  0.5988
  655MOL0     H88416   9.452   3.711   2.309  0.1518  0.8337  0.6674
  655MOL0     H88417   9.477   3.573   2.098 -1.4245 -2.5907  0.9913
  655MOL0     H88418   9.393   3.695   2.005 -1.8523  0.5350  0.0678
  655MOL0     H88419   9.268   3.540   2.237 -3.0167  0.3723  0.4979
  655MOL0     H88420   9.197   3.673   2.129  1.5093  1.4099 -1.1684
  655MOL0     H88421   9.192   3.334   1.875  0.0313 -0.3213 -0.1337
  655MOL0     H88422   9.663   4.094   2.160 -1.6126 -0.1585  1.5449
  655MOL0     H88423   9.909   4.333   2.147  2.0369 -1.6112  3.4801
  655MOL0     H88424   9.732   4.312   2.118  0.6718  0.3174 -0.6552
  655MOL0     H88425   9.786   4.401   2.248 -1.1212 -0.4252  0.7965
  656MOL0     O88426   3.112   2.335   0.524 -0.2758  0.6285 -0.4943
  656MOL0     C88427   2.992   2.342   0.494  0.6898 -0.5691 -0.0098
  656MOL0     O88428   2.934   2.302   0.382 -0.8226  0.3982  0.1919
  656MOL0     C88429   3.004   2.259   0.271  0.0752  0.3244 -0.3498
  656MOL0     C88430   3.085   2.345   0.203 -0.4218 -0.3275 -0.2042
  656MOL0     C88431   3.145   2.297   0.088  0.4822 -0.1201  0.2843
  656MOL0     C88432   3.128   2.168   0.036  0.1041 -0.3578  0.3855
  656MOL0     O88433   3.185   2.146  -0.082 -0.0355  0.3081  0.4491
  656MOL0     C88434   3.273   2.031  -0.081  0.9045 -0.3010  0.6088
  656MOL0     C88435   3.382   2.044  -0.184  0.4311  0.0456  0.5057
  656MOL0     C88436   3.472   2.165  -0.157  0.2515  0.3169  0.9516
  656MOL0     C88437   3.584   2.160  -0.262  0.3819  0.2876 -0.0916
  656MOL0     C88438   3.690   2.264  -0.229 -0.1806  0.3109  0.2477
  656MOL0     C88439   3.796   2.281  -0.342  0.1364 -0.3348  0.6646
  656MOL0     C88440   3.907   2.379  -0.312  1.2106 -0.2280  0.4849
  656MOL0     C88441   4.010   2.390  -0.423  0.5254  0.0217  0.7270
  656MOL0     N88442   4.081   2.511  -0.418 -0.5761  0.4693 -0.3157
  656MOL0     C88443   4.189   2.549  -0.328  0.8103  0.7554  0.1957
  656MOL0     C88444   4.218   2.673  -0.370  0.0930 -0.2388  1.0262
  656MOL0     C88445   4.310   2.763  -0.304 -0.9792  0.0856 -0.0793
  656MOL0     C88446   4.418   2.801  -0.398  0.6883 -0.5160  0.6778
  656MOL0     C88447   4.498   2.934  -0.356  0.0482 -0.1849 -0.4323
  656MOL0     C88448   4.657   2.907  -0.353  0.7814 -0.2865  0.1281
  656MOL0     O88449   4.697   2.848  -0.475 -0.2790 -0.5500  0.1103
  656MOL0     C88450   4.831   2.847  -0.502  0.4267 -0.1277  0.2137
  656MOL0     C88451   4.882   2.914  -0.614 -0.0014 -0.3915 -0.9995
  656MOL0     C88452   5.018   2.906  -0.642 -0.2860  0.2739  0.5596
  656MOL0     C88453   5.106   2.832  -0.560  0.0572 -0.4610 -0.7580
  656MOL0     C88454   5.241   2.793  -0.607 -0.3339 -0.1830 -1.4584
  656MOL0     O88455   5.291   2.873  -0.710 -0.5119  0.1373  0.1631
  656MOL0     C88456   5.412   2.842  -0.770  0.3605  0.2880  0.3807
  656MOL0     C88457   5.521   2.931  -0.774  0.3666  0.8437 -0.1986
  656MOL0     C88458   5.616   2.907  -0.872 -0.2080 -0.0925  0.3531
  656MOL0     C88459   5.622   2.791  -0.952  0.6736  0.1280 -0.2414
  656MOL0     O88460   5.723   2.796  -1.044  0.2887  0.2047  0.2642
  656MOL0     C88461   5.742   2.682  -1.127  0.9744 -0.0120  0.9830
  656MOL0     C88462   5.842   2.696  -1.237 -0.5805  0.7038  0.0821
  656MOL0     C88463   5.987   2.725  -1.195 -0.1888  0.7170 -0.1224
  656MOL0     C88464   6.078   2.729  -1.316  0.1160  0.3072 -0.1448
  656MOL0     C88465   6.217   2.778  -1.271 -0.4624 -0.2055 -0.2023
  656MOL0     C88466   6.307   2.816  -1.387 -0.0798 -0.3481  0.1645
  656MOL0     C88467   6.466   2.827  -1.351 -0.3046 -0.9708  0.4528
  656MOL0     C88468   6.545   2.856  -1.478 -0.1757 -0.5775  0.1786
  656MOL0    Cl88469   6.712   2.841  -1.424 -0.0100 -0.4541  0.0765
  656MOL0     C88470   5.516   2.706  -0.952  0.8552  0.2689  0.8179
  656MOL0     C88471   5.415   2.724  -0.849  0.7421  0.0090 -0.0353
  656MOL0     O88472   5.301   2.707  -0.539  0.3600 -0.0244  0.3378
  656MOL0     C88473   5.052   2.778  -0.439 -0.0242 -0.3810  0.7801
  656MOL0     C88474   4.918   2.786  -0.408 -0.1020  0.5406  0.0995
  656MOL0     N88475   4.152   2.702  -0.486  0.3391 -0.0706  0.0363
  656MOL0     N88476   4.057   2.612  -0.501  0.3701 -0.6180 -0.2230
  656MOL0     C88477   3.027   2.094   0.094 -1.2231  0.1803  1.4457
  656MOL0     C88478   2.970   2.133   0.216  0.1482 -0.4739  0.1008
  656MOL0     C88479   2.902   2.398   0.600  0.2974 -0.1113  0.5446
  656MOL0     C88480   2.951   2.467   0.712  0.7157  0.2207 -0.1517
  656MOL0     C88481   2.860   2.534   0.807  0.3861  0.6412 -0.4625
  656MOL0     C88482   2.728   2.535   0.790  0.0065  0.5593  0.2426
  656MOL0     O88483   2.652   2.601   0.879  0.2486 -0.1416  0.2723
  656MOL0     C88484   2.508   2.598   0.876  0.5535 -0.9543  0.4520
  656MOL0     C88485   2.444   2.683   0.976  0.5486  0.4187  0.2274
  656MOL0     C88486   2.464   2.832   0.942 -0.2079 -0.1747  0.5739
  656MOL0     C88487   2.448   2.928   1.062  0.4358  0.2392  0.1362
  656MOL0     C88488   2.312   2.965   1.108 -0.7032 -0.7315 -0.3090
  656MOL0     C88489   2.197   3.000   1.137  0.1691  0.3024 -0.5525
  656MOL0     C88490   2.685   2.460   0.681  0.2768 -0.5760  0.4543
  656MOL0     C88491   2.756   2.390   0.587 -0.3222  0.0694 -0.0524
  656MOL0     C88492   2.678   2.316   0.481  0.4528 -0.0363  0.4671
  656MOL0     H88493   3.104   2.437   0.259  0.1153 -0.7435  0.3115
  656MOL0     H88494   3.210   2.361   0.029 -0.8031  1.6506  0.7000
  656MOL0     H88495   3.321   2.033   0.017 -0.1454  3.0528  1.1734
  656MOL0     H88496   3.211   1.942  -0.097 -1.2652  1.5295 -2.0973
  656MOL0     H88497   3.336   2.055  -0.283 -0.5755  0.1072  0.9708
  656MOL0     H88498   3.445   1.955  -0.176  0.1036 -0.4507 -1.6621
  656MOL0     H88499   3.506   2.159  -0.053  2.2081 -0.5859  0.2986
  656MOL0     H88500   3.422   2.261  -0.169  2.5477  1.6552  1.5122
  656MOL0     H88501   3.621   2.057  -0.263 -0.2328 -0.0211  2.1340
  656MOL0     H88502   3.556   2.183  -0.365  1.6758  1.3315 -0.2392
  656MOL0     H88503   3.637   2.354  -0.197  1.8832  1.1677  1.4152
  656MOL0     H88504   3.758   2.233  -0.149 -0.2046  0.5615  0.3668
  656MOL0     H88505   3.855   2.190  -0.331  2.2494  1.1187  2.3175
  656MOL0     H88506   3.758   2.298  -0.443  1.4100 -1.8971 -0.1109
  656MOL0     H88507   3.957   2.343  -0.222  0.2006  0.6925  1.4475
  656MOL0     H88508   3.860   2.474  -0.285 -0.1783 -0.2632 -1.6250
  656MOL0     H88509   4.080   2.306  -0.414 -0.5442 -0.6456  4.0178
  656MOL0     H88510   3.956   2.383  -0.518  0.9953 -0.5155  0.4882
  656MOL0     H88511   4.229   2.489  -0.247  0.9269 -0.8726 -1.0272
  656MOL0     H88512   4.262   2.855  -0.271 -1.0275 -0.0300  0.1697
  656MOL0     H88513   4.351   2.722  -0.212  1.4407  2.9771  0.3365
  656MOL0     H88514   4.492   2.723  -0.415  1.2823  0.5741 -2.2408
  656MOL0     H88515   4.373   2.818  -0.496 -1.9752 -0.2163  1.8703
  656MOL0     H88516   4.459   2.985  -0.268 -0.5426 -0.3496 -0.5939
  656MOL0     H88517   4.479   3.004  -0.438 -1.2842  1.1157  0.9199
  656MOL0     H88518   4.682   2.834  -0.276 -0.7580 -1.5794 -0.5383
  656MOL0     H88519   4.710   3.002  -0.341  0.3561 -0.0627  0.2630
  656MOL0     H88520   4.807   2.968  -0.672  1.4896  1.5318 -1.2407
  656MOL0     H88521   5.059   2.950  -0.732 -0.9955  0.2732  0.2348
  656MOL0     H88522   5.511   3.023  -0.716 -0.5907  1.2913 -1.0463
  656MOL0     H88523   5.700   2.976  -0.876  2.3651 -3.0209  0.3261
  656MOL0     H88524   5.757   2.589  -1.071  0.5818 -1.9097 -1.8525
  656MOL0     H88525   5.641   2.661  -1.165  0.1350  0.6603  2.7544
  656MOL0     H88526   5.843   2.599  -1.288  0.3127  2.4196 -3.5084
  656MOL0     H88527   5.804   2.769  -1.309 -3.3482 -1.3143 -0.7072
  656MOL0     H88528   5.979   2.822  -1.146 -0.7265 -1.3147  4.3410
  656MOL0     H88529   6.026   2.669  -1.109  1.3736  2.4786  0.3929
  656MOL0     H88530   6.035   2.796  -1.391 -0.9558 -2.6961 -2.4470
  656MOL0     H88531   6.091   2.631  -1.363  0.7025  0.8776 -1.2127
  656MOL0     H88532   6.265   2.703  -1.207  0.5251 -0.9884 -1.8117
  656MOL0     H88533   6.208   2.858  -1.197  1.3845 -0.2081  0.0787
  656MOL0     H88534   6.296   2.732  -1.457 -4.8281 -0.9123  1.2500
  656MOL0     H88535   6.273   2.903  -1.442 -1.3177 -1.3971 -0.7920
  656MOL0     H88536   6.501   2.738  -1.299  2.2129 -1.4604 -1.8228
  656MOL0     H88537   6.484   2.907  -1.278  0.8632  0.2995 -1.1586
  656MOL0     H88538   6.527   2.792  -1.565 -0.1759 -0.4666  0.0963
  656MOL0     H88539   6.529   2.960  -1.508 -0.6247 -1.1038 -1.5067
  656MOL0     H88540   5.500   2.622  -1.019 -3.1959  1.7409 -0.3406
  656MOL0     H88541   5.326   2.663  -0.847 -0.8632  1.9717 -3.0976
  656MOL0     H88542   5.113   2.717  -0.373  4.1423 -0.7033 -2.9590
  656MOL0     H88543   4.872   2.753  -0.315 -1.4125 -0.9481 -1.0367
  656MOL0     H88544   2.997   2.002   0.045  1.0571  0.5626 -0.8836
  656MOL0     H88545   2.888   2.072   0.254 -1.6573  1.7548  0.0332
  656MOL0     H88546   3.056   2.472   0.738  1.2333 -1.6354 -1.6594
  656MOL0     H88547   2.898   2.588   0.893 -2.0686 -0.1893  1.2130
  656MOL0     H88548   2.462   2.500   0.888 -3.3514  0.7561  0.8032
  656MOL0     H88549   2.486   2.625   0.773  0.6391  0.7104  0.8492
  656MOL0     H88550   2.469   2.664   1.081  1.0700 -2.3750 -0.3320
  656MOL0     H88551   2.338   2.660   0.963  0.2577  1.7945  0.0258
  656MOL0     H88552   2.390   2.859   0.867  1.3474  1.1643 -0.5397
  656MOL0     H88553   2.565   2.845   0.901 -0.2612 -1.0410  0.1345
  656MOL0     H88554   2.502   2.888   1.149 -2.5041  0.1731  2.0863
  656MOL0     H88555   2.486   3.027   1.035 -1.5445  0.0474 -4.3072
  656MOL0     H88556   2.094   3.018   1.162  1.2064  2.6432  2.8791
  656MOL0     H88557   2.577   2.457   0.670  0.2196  2.5215 -0.8465
  656MOL0     H88558   2.569   2.313   0.490  0.3128  0.5926 -0.7666
  656MOL0     H88559   2.694   2.370   0.387  2.3953  0.5717  1.0993
  656MOL0     H88560   2.718   2.214   0.481 -2.6371 -1.3731 -0.6359
  657MOL0     O88561   2.850   8.596   6.770 -0.4533  0.4401  0.6669
  657MOL0     C88562   2.866   8.614   6.894 -0.4780 -0.2950 -0.1345
  657MOL0     O88563   2.952   8.702   6.948  0.7694  0.5910  0.2668
  657MOL0     C88564   3.041   8.757   6.859  0.2145 -0.2918  0.0680
  657MOL0     C88565   3.062   8.895   6.874 -0.4467  0.1436 -0.0288
  657MOL0     C88566   3.169   8.960   6.811  0.3430 -0.0587  0.9053
  657MOL0     C88567   3.267   8.882   6.734  1.3100  0.7196 -0.8222
  657MOL0     O88568   3.376   8.954   6.692 -0.0641  0.4248  0.2329
  657MOL0     C88569   3.432   8.913   6.567  0.2266 -0.5556  0.7461
  657MOL0     C88570   3.503   9.041   6.518 -0.4463  0.4162 -0.7088
  657MOL0     C88571   3.573   9.027   6.381  0.0684 -0.7262 -0.9995
  657MOL0     C88572   3.664   9.148   6.346  0.3635  0.6820  0.0700
  657MOL0     C88573   3.808   9.146   6.404  1.1715 -0.3825 -0.5499
  657MOL0     C88574   3.887   9.265   6.356 -0.1159 -0.0825  0.1812
  657MOL0     C88575   4.011   9.295   6.429  0.0009 -0.7167 -0.3831
  657MOL0     C88576   4.127   9.208   6.387 -0.2654 -0.6095 -0.3065
  657MOL0     N88577   4.184   9.237   6.254  0.2171 -0.2726 -0.5785
  657MOL0     C88578   4.293   9.170   6.211 -0.4688  0.1778  0.2650
  657MOL0     C88579   4.357   9.249   6.114  0.2144  0.2626  0.1519
  657MOL0     C88580   4.464   9.216   6.023  0.6703  0.4000 -0.2354
  657MOL0     C88581   4.594   9.213   6.107  0.0340  0.4071  0.9410
  657MOL0     C88582   4.719   9.244   6.015 -0.7228  0.2271 -0.0480
  657MOL0     C88583   4.840   9.196   6.094  0.0361 -0.7191  0.0061
  657MOL0     O88584   4.846   9.051   6.098 -0.1326 -0.4137  0.3103
  657MOL0     C88585   4.938   9.003   6.176  0.4328  0.4210  0.3764
  657MOL0     C88586   4.947   8.867   6.164 -0.5257  0.2606 -0.3847
  657MOL0     C88587   5.043   8.793   6.225  0.0836 -0.5352 -0.2570
  657MOL0     C88588   5.138   8.857   6.308 -0.1393 -0.4390 -0.7454
  657MOL0     C88589   5.245   8.794   6.373 -0.0970 -0.4282  0.3475
  657MOL0     O88590   5.348   8.868   6.435 -1.0203  0.5393 -0.3559
  657MOL0     C88591   5.461   8.802   6.477  0.6802  0.0137 -0.2550
  657MOL0     C88592   5.490   8.780   6.615  0.2240 -1.1171 -0.2196
  657MOL0     C88593   5.604   8.709   6.659 -0.8543 -0.0465  0.4587
  657MOL0     C88594   5.691   8.667   6.565  0.8307  0.4832  0.1755
  657MOL0     O88595   5.802   8.598   6.588 -0.6608  0.4292  0.0750
  657MOL0     C88596   5.798   8.514   6.713 -0.1602  0.7350  0.4230
  657MOL0     C88597   5.924   8.432   6.727  0.3070 -0.2810  0.0188
  657MOL0     C88598   6.051   8.517   6.747 -0.2730 -1.2708  0.5288
  657MOL0     C88599   6.183   8.431   6.765 -0.5641  0.3749  0.3501
  657MOL0     C88600   6.298   8.514   6.828 -0.5738 -0.3343 -0.7248
  657MOL0     C88601   6.417   8.431   6.880 -0.3890 -1.0370 -0.2960
  657MOL0     C88602   6.478   8.330   6.775  1.2516 -0.3651  0.5378
  657MOL0     C88603   6.561   8.223   6.848 -0.2763  0.0703 -0.4690
  657MOL0    Cl88604   6.473   8.131   6.965 -0.2430 -0.1912 -0.2122
  657MOL0     C88605   5.660   8.687   6.433 -0.6356 -1.2415 -0.6571
  657MOL0     C88606   5.561   8.767   6.383 -0.1952  0.3483 -0.0852
  657MOL0     O88607   5.245   8.668   6.376 -0.3016 -0.2396  0.2913
  657MOL0     C88608   5.126   8.997   6.335 -0.5925 -0.8866  0.0433
  657MOL0     C88609   5.030   9.075   6.267 -0.5595  0.5404  0.7234
  657MOL0     N88610   4.272   9.357   6.094  0.5382 -0.8729  0.7944
  657MOL0     N88611   4.173   9.353   6.180  0.4482  0.3662 -1.1059
  657MOL0     C88612   3.239   8.746   6.721  0.1451  0.5608  0.3167
  657MOL0     C88613   3.127   8.679   6.773 -0.7038 -1.3669 -0.0763
  657MOL0     C88614   2.780   8.539   6.990  0.2530 -1.3660 -0.4594
  657MOL0     C88615   2.701   8.443   6.937  0.0862 -0.2679 -0.1802
  657MOL0     C88616   2.608   8.376   7.001  0.1503 -1.1600  0.9395
  657MOL0     C88617   2.593   8.406   7.135  1.2280 -0.0804 -0.4351
  657MOL0     O88618   2.496   8.351   7.214 -0.3083  0.4154  0.1049
  657MOL0     C88619   2.384   8.286   7.144  0.0643 -0.3351 -0.0105
  657MOL0     C88620   2.260   8.256   7.232  0.8226  0.2828 -0.4570
  657MOL0     C88621   2.295   8.195   7.366 -0.0876 -0.3996  0.6788
  657MOL0     C88622   2.377   8.062   7.362 -0.3579 -0.7623 -0.4277
  657MOL0     C88623   2.521   8.082   7.347  0.6429  0.4327 -0.0015
  657MOL0     C88624   2.638   8.102   7.347 -0.6066  0.0777  0.3451
  657MOL0     C88625   2.680   8.486   7.202  0.3155 -0.1731  0.4975
  657MOL0     C88626   2.779   8.560   7.133 -0.1441  1.3249 -0.1148
  657MOL0     C88627   2.867   8.660   7.209 -0.4366 -0.0771 -0.3483
  657MOL0     H88628   2.998   8.946   6.945 -0.8863 -1.7744  1.0224
  657MOL0     H88629   3.184   9.067   6.824 -1.5293  0.0993  2.0456
  657MOL0     H88630   3.509   8.834   6.564  3.1697  2.0949 -2.6851
  657MOL0     H88631   3.357   8.883   6.494  0.1736 -1.1620  1.0430
  657MOL0     H88632   3.585   9.067   6.586  0.5617 -0.3971 -1.5757
  657MOL0     H88633   3.437   9.128   6.520  1.7010  2.1475 -0.7140
  657MOL0     H88634   3.499   9.036   6.300 -0.7532 -3.6276 -0.7105
  657MOL0     H88635   3.629   8.933   6.382  2.3524  0.5694 -0.9482
  657MOL0     H88636   3.674   9.128   6.239 -1.6109 -1.4079  0.1982
  657MOL0     H88637   3.618   9.246   6.359 -0.3454  0.1730  1.6193
  657MOL0     H88638   3.793   9.150   6.512 -2.3121 -1.1041 -0.9138
  657MOL0     H88639   3.845   9.049   6.370 -2.7799 -0.6114 -5.3002
  657MOL0     H88640   3.904   9.244   6.250  0.9370 -0.1612  0.3494
  657MOL0     H88641   3.816   9.348   6.358 -1.7878 -1.4657 -0.2775
  657MOL0     H88642   3.994   9.285   6.537  0.6743  0.0507 -0.1923
  657MOL0     H88643   4.040   9.400   6.419 -1.8068 -0.2992 -1.5854
  657MOL0     H88644   4.205   9.226   6.462  0.9164 -1.1323 -1.3572
  657MOL0     H88645   4.093   9.105   6.392 -1.8365 -0.1074 -0.2975
  657MOL0     H88646   4.335   9.075   6.244  1.1668 -0.1370 -2.4070
  657MOL0     H88647   4.433   9.120   5.981  1.6339  0.0010 -0.0859
  657MOL0     H88648   4.475   9.293   5.946 -1.4328  0.5769 -0.4081
  657MOL0     H88649   4.597   9.296   6.178  1.2026  1.9697 -0.8330
  657MOL0     H88650   4.607   9.113   6.151  1.7102 -0.5789 -1.4942
  657MOL0     H88651   4.729   9.352   6.005 -1.2467  0.5671  2.5286
  657MOL0     H88652   4.722   9.191   5.919  0.0551 -1.7383  0.9880
  657MOL0     H88653   4.822   9.233   6.195  2.3569  0.9104 -0.1205
  657MOL0     H88654   4.931   9.238   6.051 -1.1816  1.3924 -0.6459
  657MOL0     H88655   4.874   8.818   6.100  1.0482  0.2472 -2.2739
  657MOL0     H88656   5.033   8.689   6.195 -1.3401  0.0426 -1.9221
  657MOL0     H88657   5.423   8.822   6.690 -1.8539 -2.5079 -1.2079
  657MOL0     H88658   5.629   8.699   6.764  3.4861 -2.4698 -0.5790
  657MOL0     H88659   5.801   8.572   6.806 -2.1014  1.7097 -0.0835
  657MOL0     H88660   5.723   8.435   6.703  0.4299  0.3005 -0.8125
  657MOL0     H88661   5.898   8.374   6.816 -3.8118 -1.3127 -1.6176
  657MOL0     H88662   5.944   8.364   6.644 -1.8372 -0.9825  0.0181
  657MOL0     H88663   6.056   8.585   6.661 -1.9977  0.1960  1.5204
  657MOL0     H88664   6.035   8.583   6.833  2.4992 -2.7280  2.3002
  657MOL0     H88665   6.205   8.388   6.667 -0.3275  2.0107 -0.3599
  657MOL0     H88666   6.173   8.342   6.827  1.9916  0.0631  0.4187
  657MOL0     H88667   6.254   8.557   6.919  1.0403 -0.0578 -0.0373
  657MOL0     H88668   6.321   8.596   6.760 -0.9035 -1.2467 -1.9661
  657MOL0     H88669   6.498   8.501   6.902 -2.6586  2.0768 -1.1560
  657MOL0     H88670   6.383   8.388   6.975  0.3050  0.3885  0.6339
  657MOL0     H88671   6.531   8.385   6.698 -1.1974  0.8921 -0.3654
  657MOL0     H88672   6.398   8.282   6.718  1.5148 -0.6166  0.3765
  657MOL0     H88673   6.604   8.148   6.780  0.8275  0.3127 -0.0564
  657MOL0     H88674   6.653   8.260   6.894  0.4724 -0.8307 -1.2011
  657MOL0     H88675   5.730   8.656   6.356 -1.7174 -1.8364 -1.4287
  657MOL0     H88676   5.557   8.789   6.277  2.5413  1.3723 -0.0429
  657MOL0     H88677   5.187   9.064   6.395  1.0786  0.6207 -3.1239
  657MOL0     H88678   5.034   9.184   6.274 -1.3986  0.7848 -1.6775
  657MOL0     H88679   3.308   8.686   6.662 -2.1161 -1.9069  0.0165
  657MOL0     H88680   3.123   8.571   6.760 -1.2797 -1.5736  1.5200
  657MOL0     H88681   2.688   8.417   6.832 -4.9858  3.1997 -0.7758
  657MOL0     H88682   2.545   8.306   6.948 -0.8333  0.4114 -0.0652
  657MOL0     H88683   2.415   8.191   7.100 -2.8479 -1.4601  0.1616
  657MOL0     H88684   2.350   8.361   7.072  2.7988 -0.0881 -1.1631
  657MOL0     H88685   2.208   8.176   7.179  0.8259 -0.5731  0.7845
  657MOL0     H88686   2.186   8.334   7.249  0.6445 -0.2153  1.2288
  657MOL0     H88687   2.201   8.181   7.420 -0.5923  0.7587  0.1261
  657MOL0     H88688   2.341   8.275   7.424  0.4147  0.1632 -0.4555
  657MOL0     H88689   2.364   8.010   7.457 -0.0522 -0.0638  0.0060
  657MOL0     H88690   2.338   8.002   7.279 -0.7762 -0.2322 -0.6233
  657MOL0     H88691   2.743   8.122   7.345 -0.7559  1.7391  3.1573
  657MOL0     H88692   2.664   8.507   7.307  1.3877  1.1286  0.4359
  657MOL0     H88693   2.974   8.634   7.207  0.4203  2.6598  2.0244
  657MOL0     H88694   2.852   8.756   7.160  0.7044  0.9188  1.1535
  657MOL0     H88695   2.823   8.679   7.307 -2.0727  0.5737 -1.1721
  658MOL0     O88696   3.479   6.758   1.220  0.2873  0.2030  0.3329
  658MOL0     C88697   3.521   6.870   1.243  0.1217 -0.6111 -0.7781
  658MOL0     O88698   3.453   6.987   1.219  0.7099 -0.4650 -0.3215
  658MOL0     C88699   3.318   6.968   1.186  0.1511 -0.5573  0.4797
  658MOL0     C88700   3.237   7.001   1.291 -0.7400  0.1379  0.1803
  658MOL0     C88701   3.099   6.983   1.277 -0.7643 -0.4580 -0.3634
  658MOL0     C88702   3.042   6.939   1.160 -0.6523 -0.5466  0.6501
  658MOL0     O88703   2.907   6.924   1.151 -0.4235  0.1592 -1.0502
  658MOL0     C88704   2.813   6.975   1.256  0.6830 -0.1399  0.1305
  658MOL0     C88705   2.807   7.132   1.258 -0.5513 -0.5292  0.1550
  658MOL0     C88706   2.730   7.197   1.140  0.9398 -0.0689 -0.9015
  658MOL0     C88707   2.581   7.199   1.162 -0.1059 -0.6347 -0.0167
  658MOL0     C88708   2.505   7.249   1.049 -0.0206  0.0908  0.7999
  658MOL0     C88709   2.532   7.398   1.019  1.0801  0.2529 -0.3902
  658MOL0     C88710   2.431   7.450   0.911  0.2680  0.0304  0.1296
  658MOL0     C88711   2.288   7.462   0.967 -0.5385 -0.6238 -0.3637
  658MOL0     N88712   2.236   7.599   0.952  0.0008  0.1946  0.5627
  658MOL0     C88713   2.195   7.653   0.829  0.5754  0.2505 -0.4117
  658MOL0     C88714   2.195   7.781   0.857 -0.7856  0.0052  0.0944
  658MOL0     C88715   2.173   7.888   0.749 -0.2742  0.5790  0.3795
  658MOL0     C88716   2.305   7.928   0.685  0.8854 -0.5467  0.5393
  658MOL0     C88717   2.392   8.018   0.778 -0.6983 -0.2728 -0.1802
  658MOL0     C88718   2.537   8.031   0.725 -0.5021 -0.4528  0.6448
  658MOL0     O88719   2.598   7.905   0.718 -0.1446 -0.3430  0.1792
  658MOL0     C88720   2.735   7.889   0.699 -0.8677  0.3124  0.1758
  658MOL0     C88721   2.775   7.773   0.637 -0.7766  0.0407  0.1173
  658MOL0     C88722   2.907   7.745   0.611 -0.5340 -0.0405  0.4892
  658MOL0     C88723   3.006   7.841   0.651  0.5456  0.5785 -1.0155
  658MOL0     C88724   3.144   7.808   0.627  0.1997  0.1924  0.1481
  658MOL0     O88725   3.168   7.749   0.505 -0.0873  0.6244 -0.2752
  658MOL0     C88726   3.294   7.696   0.493 -0.0558 -0.0266  0.6738
  658MOL0     C88727   3.391   7.746   0.398  0.1529 -0.6064 -0.6769
  658MOL0     C88728   3.514   7.686   0.396  0.0403 -1.0173  0.1799
  658MOL0     C88729   3.562   7.589   0.487 -0.1501  0.2204  0.9594
  658MOL0     O88730   3.696   7.543   0.483 -0.0958  0.6904  0.5337
  658MOL0     C88731   3.734   7.434   0.564  0.8859  0.5423 -0.5150
  658MOL0     C88732   3.871   7.373   0.534 -0.0683 -0.2378  0.5686
  658MOL0     C88733   3.879   7.296   0.401  0.1194  0.0996  0.8762
  658MOL0     C88734   4.032   7.271   0.370 -0.1810  0.5102 -0.2288
  658MOL0     C88735   4.060   7.237   0.225  0.1800  0.4464  0.3566
  658MOL0     C88736   4.205   7.236   0.197 -1.0765 -0.0082 -0.4267
  658MOL0     C88737   4.296   7.138   0.276  0.8396 -1.5078 -0.2631
  658MOL0     C88738   4.427   7.125   0.203  0.2051  0.4774  0.3591
  658MOL0    Cl88739   4.533   7.265   0.226  0.0738  0.1962 -0.3035
  658MOL0     C88740   3.468   7.557   0.585 -0.0952 -0.2925 -0.3668
  658MOL0     C88741   3.337   7.602   0.589  0.0308 -0.0527  0.1083
  658MOL0     O88742   3.230   7.822   0.712  0.8564 -0.6104  0.1492
  658MOL0     C88743   2.963   7.954   0.714 -0.4090 -0.8298  0.1012
  658MOL0     C88744   2.833   7.978   0.739  0.6669 -0.2829  0.1029
  658MOL0     N88745   2.223   7.814   0.986  0.2340  0.2737  0.1843
  658MOL0     N88746   2.240   7.699   1.046  0.4746  0.5428 -0.3469
  658MOL0     C88747   3.122   6.899   1.052 -0.3262 -0.6719  0.9104
  658MOL0     C88748   3.265   6.916   1.064  0.0853  0.2157  0.4261
  658MOL0     C88749   3.661   6.865   1.294  0.0623 -0.5884  0.6365
  658MOL0     C88750   3.751   6.968   1.248  0.9918  0.7423  0.4520
  658MOL0     C88751   3.879   6.970   1.281  0.1321 -0.0201  0.1213
  658MOL0     C88752   3.932   6.863   1.354 -0.6889 -0.2154  0.5743
  658MOL0     O88753   4.067   6.836   1.358 -0.0047 -0.4499 -0.4646
  658MOL0     C88754   4.164   6.922   1.288  0.2385 -0.4262 -0.6270
  658MOL0     C88755   4.299   6.855   1.296 -1.1244 -0.0123 -0.0085
  658MOL0     C88756   4.357   6.836   1.430 -0.5517 -0.0293 -0.1481
  658MOL0     C88757   4.501   6.787   1.401  1.1510 -1.3441 -0.7737
  658MOL0     C88758   4.582   6.752   1.519  0.6433  0.2602 -0.8757
  658MOL0     C88759   4.655   6.725   1.608 -0.2166 -1.0466 -0.1406
  658MOL0     C88760   3.843   6.773   1.425  0.9525 -0.4023  1.5563
  658MOL0     C88761   3.709   6.769   1.386  0.2940  0.2562  0.9020
  658MOL0     C88762   3.618   6.662   1.445  0.1810  0.0308  0.0343
  658MOL0     H88763   3.282   7.044   1.380  1.4943 -0.4691 -0.5711
  658MOL0     H88764   3.032   7.013   1.356 -2.1045 -0.5333 -1.4460
  658MOL0     H88765   2.711   6.939   1.239  1.0956 -1.4694  0.3356
  658MOL0     H88766   2.848   6.937   1.352  1.6342 -0.3510 -0.2889
  658MOL0     H88767   2.910   7.165   1.274  0.7764 -3.5394 -1.3871
  658MOL0     H88768   2.752   7.161   1.348  2.7849  1.6338  1.6948
  658MOL0     H88769   2.745   7.147   1.044 -0.5295 -1.2698 -0.5363
  658MOL0     H88770   2.756   7.303   1.137 -3.1272  1.1468 -0.1372
  658MOL0     H88771   2.551   7.095   1.177  0.5141 -0.6367  1.2818
  658MOL0     H88772   2.554   7.247   1.256  2.7569 -2.9020  2.1206
  658MOL0     H88773   2.533   7.190   0.961 -1.1991  0.5135  0.1246
  658MOL0     H88774   2.399   7.233   1.069 -0.4637 -0.8859 -1.9534
  658MOL0     H88775   2.532   7.466   1.104  0.5002  0.5764 -0.6451
  658MOL0     H88776   2.633   7.401   0.976  2.1069  2.5480  1.9611
  658MOL0     H88777   2.434   7.375   0.831 -1.4830  0.8825 -0.8129
  658MOL0     H88778   2.467   7.541   0.863 -1.2812 -0.0391 -1.2691
  658MOL0     H88779   2.226   7.397   0.904 -0.4711 -1.7491  0.6836
  658MOL0     H88780   2.295   7.426   1.070 -1.0263 -0.5386 -0.2975
  658MOL0     H88781   2.172   7.611   0.731  3.0870  0.9993 -1.4171
  658MOL0     H88782   2.092   7.849   0.686  0.7525  0.0825 -0.6517
  658MOL0     H88783   2.130   7.978   0.794 -0.6580  0.4299  0.3146
  658MOL0     H88784   2.353   7.837   0.647 -1.5696 -0.4658 -3.3751
  658MOL0     H88785   2.277   7.983   0.595  0.7437 -1.5389 -0.0402
  658MOL0     H88786   2.405   7.972   0.876  1.0784  0.7095  0.0883
  658MOL0     H88787   2.349   8.118   0.788  1.6048  0.7855 -0.1057
  658MOL0     H88788   2.603   8.095   0.784  1.8344  1.5962 -3.7328
  658MOL0     H88789   2.544   8.078   0.627 -1.6805 -1.0584  0.2443
  658MOL0     H88790   2.699   7.711   0.590 -0.8779  1.5922 -1.9283
  658MOL0     H88791   2.936   7.658   0.553  0.8952  1.4679 -1.2078
  658MOL0     H88792   3.361   7.831   0.338  0.4559  0.5666  0.7565
  658MOL0     H88793   3.582   7.725   0.320 -1.4971 -0.1925 -0.8103
  658MOL0     H88794   3.737   7.473   0.667  0.7765 -1.1365  0.1522
  658MOL0     H88795   3.668   7.348   0.551  1.3987 -0.1726  1.3246
  658MOL0     H88796   3.939   7.459   0.533  0.4606 -0.6311 -1.3285
  658MOL0     H88797   3.895   7.301   0.612  1.9211 -0.6876 -0.4100
  658MOL0     H88798   3.815   7.207   0.397  0.1472 -0.1438  3.5588
  658MOL0     H88799   3.839   7.365   0.327  1.6456  0.9502  0.8152
  658MOL0     H88800   4.075   7.191   0.431  0.1535 -1.1437 -2.5253
  658MOL0     H88801   4.078   7.363   0.407  0.1822  0.1353  0.2744
  658MOL0     H88802   4.012   7.314   0.164  0.3836  2.3438  2.4789
  658MOL0     H88803   4.013   7.141   0.198  1.7752  0.1544 -1.6371
  658MOL0     H88804   4.214   7.204   0.092 -0.2356 -1.3700  0.0236
  658MOL0     H88805   4.249   7.334   0.219 -3.6178  1.3534 -1.0916
  658MOL0     H88806   4.256   7.037   0.284 -0.4002 -0.8967  1.9118
  658MOL0     H88807   4.296   7.172   0.380  2.8652  0.3468 -0.7699
  658MOL0     H88808   4.479   7.031   0.225 -2.1050 -1.8738 -3.2002
  658MOL0     H88809   4.412   7.118   0.095 -0.4056  0.2984  0.4559
  658MOL0     H88810   3.500   7.484   0.658 -0.8550 -1.8883 -1.5464
  658MOL0     H88811   3.264   7.549   0.649  1.3506 -1.0296  0.9298
  658MOL0     H88812   3.038   8.023   0.752 -1.2266  1.9193 -2.8341
  658MOL0     H88813   2.796   8.054   0.808 -0.9688  0.0205 -1.0494
  658MOL0     H88814   3.085   6.856   0.960  0.6736 -1.2778  0.7667
  658MOL0     H88815   3.319   6.886   0.975 -4.2160 -2.3047 -1.6743
  658MOL0     H88816   3.721   7.044   1.176 -1.7217 -2.2065 -1.7805
  658MOL0     H88817   3.941   7.052   1.246 -2.4323  2.0525  0.1175
  658MOL0     H88818   4.164   7.025   1.325 -1.8762  0.3622 -2.6011
  658MOL0     H88819   4.152   6.918   1.179  1.5225  0.2962 -0.8070
  658MOL0     H88820   4.362   6.914   1.229  0.0185 -0.5750  0.5361
  658MOL0     H88821   4.286   6.756   1.250  0.2457  0.7873 -2.3088
  658MOL0     H88822   4.292   6.764   1.480  1.0478 -0.5963  1.2189
  658MOL0     H88823   4.352   6.919   1.502  1.3880 -0.1060  0.1545
  658MOL0     H88824   4.501   6.701   1.333 -0.5705 -0.5361 -1.8944
  658MOL0     H88825   4.560   6.859   1.343  1.7090 -2.8140 -2.1246
  658MOL0     H88826   4.733   6.696   1.675 -1.8949 -2.1500  1.4407
  658MOL0     H88827   3.876   6.697   1.495  0.5015 -2.0137  0.0965
  658MOL0     H88828   3.658   6.621   1.538 -0.0122  1.3984  0.7552
  658MOL0     H88829   3.522   6.713   1.454 -0.1454 -0.2320 -1.6236
  658MOL0     H88830   3.618   6.577   1.376  0.3552  1.1392 -1.3844
  659MOL0     O88831   0.200   7.516   9.523  0.0911  0.2998 -0.1493
  659MOL0     C88832   0.248   7.593   9.439  1.2205 -1.0605  0.0332
  659MOL0     O88833   0.190   7.623   9.316  0.2568 -0.1563 -0.1031
  659MOL0     C88834   0.073   7.555   9.291 -0.0439 -0.2588  0.3829
  659MOL0     C88835   0.073   7.440   9.207  0.3309  0.0609  0.4145
  659MOL0     C88836  -0.051   7.392   9.166  1.1463  0.1180  0.4940
  659MOL0     C88837  -0.173   7.456   9.204 -1.3394  0.8411 -0.3928
  659MOL0     O88838  -0.301   7.420   9.165 -0.5858 -0.7974  0.3602
  659MOL0     C88839  -0.316   7.298   9.097 -0.4287 -0.7420  0.1358
  659MOL0     C88840  -0.454   7.291   9.029 -0.3596 -0.8608  0.1769
  659MOL0     C88841  -0.562   7.316   9.136 -0.4956  0.1034  0.3091
  659MOL0     C88842  -0.696   7.258   9.090 -0.0342  1.2636 -0.9308
  659MOL0     C88843  -0.809   7.277   9.193  0.7722  0.2945  1.1189
  659MOL0     C88844  -0.863   7.420   9.205  0.3275  0.1858  1.0493
  659MOL0     C88845  -0.985   7.420   9.302 -0.4323  0.1332 -0.4105
  659MOL0     C88846  -1.049   7.556   9.340 -0.3677  0.0335 -0.5663
  659MOL0     N88847  -0.955   7.657   9.395  0.2270 -0.3511 -0.3920
  659MOL0     C88848  -0.849   7.620   9.483 -0.9046 -0.1077  0.1228
  659MOL0     C88849  -0.784   7.731   9.517 -0.6046  0.0096  0.3359
  659MOL0     C88850  -0.659   7.726   9.595 -0.9025  0.0927 -0.5586
  659MOL0     C88851  -0.522   7.711   9.518  0.6912 -0.3736  0.4846
  659MOL0     C88852  -0.481   7.835   9.434 -1.3108 -0.2863 -0.0798
  659MOL0     C88853  -0.442   7.949   9.523 -0.4415  0.0523  0.2988
  659MOL0     O88854  -0.373   8.051   9.450  0.4538 -0.7526  0.4348
  659MOL0     C88855  -0.240   8.047   9.432 -0.1983 -0.0034 -0.1714
  659MOL0     C88856  -0.145   7.948   9.487  0.0472  0.3107  1.3168
  659MOL0     C88857  -0.009   7.953   9.446  0.4771 -0.8615 -0.0133
  659MOL0     C88858   0.038   8.062   9.374  0.0446 -0.8922 -0.1070
  659MOL0     C88859   0.181   8.075   9.341  1.0339  0.2848  0.1832
  659MOL0     O88860   0.213   8.178   9.254  0.0144 -0.2700 -0.2113
  659MOL0     C88861   0.342   8.205   9.217  0.6084 -0.2625  0.2795
  659MOL0     C88862   0.449   8.199   9.308 -0.1734  0.2698  0.5899
  659MOL0     C88863   0.583   8.230   9.278  0.0513 -0.2812 -0.7790
  659MOL0     C88864   0.621   8.268   9.146  0.6332 -0.1796  0.7217
  659MOL0     O88865   0.740   8.322   9.102  0.0679 -0.1563 -0.2306
  659MOL0     C88866   0.857   8.277   9.167  0.5598  0.4907  0.1898
  659MOL0     C88867   0.979   8.359   9.125  0.6429  0.0449 -0.1629
  659MOL0     C88868   1.108   8.311   9.198 -0.7097  0.7032  0.8940
  659MOL0     C88869   1.084   8.321   9.347 -0.5281 -0.0053  0.9170
  659MOL0     C88870   1.206   8.313   9.433 -0.6406 -0.4576  0.4358
  659MOL0     C88871   1.267   8.168   9.418 -0.4136  0.3139  0.5691
  659MOL0     C88872   1.369   8.144   9.536  0.9876  0.1709  0.1873
  659MOL0     C88873   1.469   8.033   9.512 -0.3472 -0.1989  0.6613
  659MOL0    Cl88874   1.541   8.049   9.350  0.0226  0.2632 -0.0668
  659MOL0     C88875   0.521   8.263   9.049  0.1736  0.2919  0.4258
  659MOL0     C88876   0.382   8.230   9.088  0.0553  0.0366  0.3884
  659MOL0     O88877   0.260   7.995   9.389 -0.0458 -0.6983  0.2068
  659MOL0     C88878  -0.054   8.151   9.316  0.0579  0.3936  0.1302
  659MOL0     C88879  -0.188   8.150   9.351 -0.3020 -0.8951 -0.0499
  659MOL0     N88880  -0.838   7.835   9.444 -0.5113 -0.4533 -0.3812
  659MOL0     N88881  -0.944   7.796   9.378  0.1848  0.1519 -0.1526
  659MOL0     C88882  -0.162   7.578   9.278 -0.4601  0.2182 -0.3350
  659MOL0     C88883  -0.040   7.625   9.322  0.7095 -0.0571  0.4778
  659MOL0     C88884   0.380   7.665   9.455 -0.5596  1.0975 -0.2877
  659MOL0     C88885   0.420   7.756   9.351 -0.2998  0.4375  0.2201
  659MOL0     C88886   0.547   7.807   9.351 -0.3930 -0.4296 -0.4661
  659MOL0     C88887   0.638   7.772   9.449  0.1939 -0.3490 -0.5656
  659MOL0     O88888   0.766   7.814   9.447  0.5948 -0.4384  0.4735
  659MOL0     C88889   0.822   7.885   9.335  1.0382  0.2655 -0.0606
  659MOL0     C88890   0.969   7.864   9.339 -0.9056 -0.1616  0.0425
  659MOL0     C88891   1.055   7.938   9.231  1.2326 -0.2423  0.0855
  659MOL0     C88892   1.189   7.875   9.234  0.2794 -0.1225 -0.1504
  659MOL0     C88893   1.278   7.918   9.129  1.0341 -0.3695  0.5804
  659MOL0     C88894   1.362   7.954   9.050  0.4306 -0.5641  0.2846
  659MOL0     C88895   0.598   7.690   9.553 -0.2117  0.1307  0.0984
  659MOL0     C88896   0.466   7.629   9.560 -0.3427 -0.5066  0.5596
  659MOL0     C88897   0.435   7.543   9.678 -0.5820  0.1086  0.4355
  659MOL0     H88898   0.168   7.399   9.176 -0.5531 -0.9184 -1.1398
  659MOL0     H88899  -0.045   7.306   9.100 -2.5231 -1.2648  1.7288
  659MOL0     H88900  -0.246   7.291   9.013  0.0287  1.5190  0.2694
  659MOL0     H88901  -0.304   7.212   9.163 -0.2759 -0.9216 -0.1253
  659MOL0     H88902  -0.469   7.196   8.976  0.0749 -0.4102 -0.7912
  659MOL0     H88903  -0.462   7.373   8.957  1.3640 -1.0321 -0.2582
  659MOL0     H88904  -0.570   7.425   9.144  2.4598  0.3844  0.2900
  659MOL0     H88905  -0.535   7.263   9.229  1.6722 -1.6065 -1.1957
  659MOL0     H88906  -0.731   7.308   8.999 -2.7664  2.9974  0.9290
  659MOL0     H88907  -0.660   7.156   9.075  0.7185  1.4214 -0.2515
  659MOL0     H88908  -0.888   7.207   9.164  0.8890  0.0384  1.4063
  659MOL0     H88909  -0.778   7.247   9.294  2.7599 -0.7498  0.2608
  659MOL0     H88910  -0.780   7.487   9.228 -0.6145  2.0701 -0.7680
  659MOL0     H88911  -0.908   7.451   9.110  0.7347 -2.4167 -0.1021
  659MOL0     H88912  -0.960   7.391   9.404  0.1929 -1.1046 -0.8983
  659MOL0     H88913  -1.068   7.367   9.254 -1.3891  1.5148 -0.3564
  659MOL0     H88914  -1.091   7.594   9.247 -2.9350 -3.8672 -1.2326
  659MOL0     H88915  -1.137   7.542   9.404 -1.1041  0.6566 -1.4180
  659MOL0     H88916  -0.814   7.523   9.516 -2.5236 -0.4082  1.1048
  659MOL0     H88917  -0.656   7.802   9.674  1.0569 -0.9619  0.4621
  659MOL0     H88918  -0.661   7.635   9.656 -3.3533 -0.6006 -1.5432
  659MOL0     H88919  -0.450   7.680   9.594  0.5592 -0.3922  0.6032
  659MOL0     H88920  -0.539   7.629   9.448  1.2883  1.1977 -1.5845
  659MOL0     H88921  -0.553   7.865   9.357 -3.2256  0.7164  1.9844
  659MOL0     H88922  -0.386   7.811   9.385 -1.4755  0.1799 -0.6370
  659MOL0     H88923  -0.381   7.921   9.608  0.3380  1.4559  0.2285
  659MOL0     H88924  -0.536   7.986   9.564 -1.6245 -2.4633  0.0681
  659MOL0     H88925  -0.168   7.858   9.542  1.2919 -0.4958  0.5574
  659MOL0     H88926   0.069   7.882   9.473  1.7411  0.4602 -0.0946
  659MOL0     H88927   0.424   8.184   9.412  1.6622 -0.1824  1.0115
  659MOL0     H88928   0.656   8.224   9.358 -3.0787  4.6019  3.0716
  659MOL0     H88929   0.840   8.285   9.275 -1.0245 -3.0643  0.3372
  659MOL0     H88930   0.887   8.174   9.147  1.7588  0.0057  3.7635
  659MOL0     H88931   0.978   8.344   9.017 -3.3122 -1.0052 -0.1313
  659MOL0     H88932   0.960   8.463   9.153 -2.0158 -0.6311  0.8624
  659MOL0     H88933   1.142   8.213   9.162 -3.1802 -0.2045  0.8442
  659MOL0     H88934   1.189   8.374   9.160 -1.3117  1.2035  0.4240
  659MOL0     H88935   1.015   8.241   9.376 -0.6846  0.2333  1.2028
  659MOL0     H88936   1.043   8.418   9.372  0.9892  0.5230  1.4959
  659MOL0     H88937   1.181   8.338   9.536 -0.7999 -0.7682  0.4721
  659MOL0     H88938   1.274   8.391   9.397 -1.0439 -1.7989 -3.8170
  659MOL0     H88939   1.194   8.087   9.428  0.6417 -0.6289  0.8525
  659MOL0     H88940   1.314   8.161   9.319  0.9587 -2.7035  1.3078
  659MOL0     H88941   1.311   8.129   9.627  0.5863  2.7364  0.4283
  659MOL0     H88942   1.424   8.232   9.571  2.5190 -1.3335  1.7215
  659MOL0     H88943   1.545   8.031   9.591 -1.9357 -2.3263  2.2560
  659MOL0     H88944   1.420   7.936   9.514 -1.7899  0.5148  1.1274
  659MOL0     H88945   0.534   8.261   8.941  0.2880 -2.0758  0.4176
  659MOL0     H88946   0.309   8.224   9.008  1.6298 -0.5372 -1.0842
  659MOL0     H88947  -0.025   8.221   9.238 -4.2730  0.5299 -1.6149
  659MOL0     H88948  -0.250   8.224   9.301  0.2198  1.0815  2.0394
  659MOL0     H88949  -0.243   7.633   9.325 -0.5815 -0.7653  0.6247
  659MOL0     H88950  -0.022   7.715   9.379  3.0075 -0.8782  1.1426
  659MOL0     H88951   0.357   7.777   9.266  3.0829 -0.0693 -2.6634
  659MOL0     H88952   0.570   7.868   9.265 -1.3519 -0.0916 -0.4968
  659MOL0     H88953   0.791   7.990   9.326  0.6111  0.0751 -0.8994
  659MOL0     H88954   0.788   7.832   9.246 -2.6236 -1.7592  2.3346
  659MOL0     H88955   0.986   7.757   9.331  1.6723  0.2234 -0.3766
  659MOL0     H88956   1.012   7.895   9.434 -0.0727  0.5560 -0.5540
  659MOL0     H88957   1.064   8.047   9.245 -0.5835  0.1342 -1.2442
  659MOL0     H88958   1.003   7.905   9.140  2.7385  0.1121 -0.9453
  659MOL0     H88959   1.237   7.902   9.328  2.2761  3.5641 -1.9954
  659MOL0     H88960   1.168   7.768   9.230 -1.0913  0.1083  0.3974
  659MOL0     H88961   1.436   7.995   8.985 -0.5073  1.7067  0.5484
  659MOL0     H88962   0.680   7.656   9.616 -1.7318 -2.6977  0.7103
  659MOL0     H88963   0.525   7.513   9.734 -1.9471 -1.6005  1.8247
  659MOL0     H88964   0.372   7.595   9.750 -1.7204 -0.2009 -0.3180
  659MOL0     H88965   0.389   7.448   9.648 -1.5015  1.3563 -2.3956
  660MOL0     O88966   8.783   1.618   0.687  0.4813  0.2226  0.3177
  660MOL0     C88967   8.744   1.500   0.693 -0.4292 -0.8119  0.0322
  660MOL0     O88968   8.816   1.399   0.745 -0.1969  0.3204 -0.4099
  660MOL0     C88969   8.931   1.428   0.817 -0.5766  0.1801 -0.5674
  660MOL0     C88970   9.049   1.345   0.801 -0.0594 -0.0841  0.5114
  660MOL0     C88971   9.172   1.366   0.855 -0.1022 -0.6558  0.2170
  660MOL0     C88972   9.194   1.478   0.936  0.8745  0.5015 -0.3027
  660MOL0     O88973   9.313   1.489   1.008 -0.1254 -0.3116  0.2411
  660MOL0     C88974   9.325   1.381   1.098 -0.2424 -0.7897  0.3942
  660MOL0     C88975   9.400   1.437   1.217 -0.3093  0.2159 -0.8285
  660MOL0     C88976   9.551   1.480   1.191 -1.0371  0.3254  0.0344
  660MOL0     C88977   9.621   1.539   1.311  0.7004  0.2784 -0.0149
  660MOL0     C88978   9.765   1.545   1.294 -0.4201 -0.2488  0.1649
  660MOL0     C88979   9.839   1.629   1.395  0.0102  0.6694  0.4399
  660MOL0     C88980   9.989   1.587   1.407  1.4172 -0.0994 -0.2980
  660MOL0     C88981  10.009   1.482   1.510 -0.0881  0.0996 -0.4867
  660MOL0     N88982  10.150   1.470   1.552  0.5307  0.4203 -0.3365
  660MOL0     C88983  10.253   1.421   1.483 -0.4672  0.0278  0.0399
  660MOL0     C88984  10.361   1.445   1.560  0.3588  1.2763 -1.2305
  660MOL0     C88985  10.502   1.405   1.518  0.4109  0.5954 -0.0842
  660MOL0     C88986  10.570   1.512   1.441 -0.8437  0.0603  0.1696
  660MOL0     C88987  10.593   1.632   1.533 -0.7510 -0.3990  0.4475
  660MOL0     C88988  10.675   1.741   1.457 -0.0688  0.2396  0.0133
  660MOL0     O88989  10.658   1.866   1.516  0.1536  0.3215 -0.3020
  660MOL0     C88990  10.762   1.905   1.587  0.2656 -0.7299 -0.7938
  660MOL0     C88991  10.893   1.894   1.544  0.1003  1.1199  0.2216
  660MOL0     C88992  11.003   1.922   1.623  0.0568  0.0275  0.1787
  660MOL0     C88993  10.978   1.966   1.748 -0.0178  0.7904 -1.2140
  660MOL0     C88994  11.092   2.013   1.825 -0.0685  0.5231  0.1713
  660MOL0     O88995  11.229   1.990   1.779 -0.6432 -0.6906 -0.4240
  660MOL0     C88996  11.334   2.043   1.859  0.7499 -0.7775 -0.0237
  660MOL0     C88997  11.335   2.182   1.882  0.1140 -0.4593 -0.5911
  660MOL0     C88998  11.440   2.223   1.954 -1.2348 -0.9781 -0.2052
  660MOL0     C88999  11.538   2.142   2.009 -1.0090  1.1692 -0.4905
  660MOL0     O89000  11.654   2.187   2.073  0.4084 -0.0606 -0.3299
  660MOL0     C89001  11.689   2.318   2.037  0.1488 -0.4778  0.3214
  660MOL0     C89002  11.840   2.330   2.037 -0.1470 -0.9422  0.1184
  660MOL0     C89003  11.904   2.291   2.171  0.1114 -0.2952 -0.6977
  660MOL0     C89004  12.053   2.329   2.183 -0.0421 -0.1515 -0.0859
  660MOL0     C89005  12.073   2.482   2.193  0.6602  1.0977 -0.2592
  660MOL0     C89006  12.217   2.497   2.257  0.1249  0.1004 -0.2784
  660MOL0     C89007  12.210   2.498   2.412 -0.1262 -0.4526  0.5047
  660MOL0     C89008  12.345   2.472   2.472  0.0991 -0.9223 -0.0813
  660MOL0    Cl89009  12.468   2.584   2.413  0.0893 -0.3707  0.7547
  660MOL0     C89010  11.524   2.002   1.998 -0.2017 -0.4380  0.2219
  660MOL0     C89011  11.418   1.954   1.926  0.3306  0.2676 -0.3149
  660MOL0     O89012  11.063   2.073   1.931  0.5873  0.5388  0.7505
  660MOL0     C89013  10.842   1.975   1.798 -0.0695 -0.3725 -0.0565
  660MOL0     C89014  10.738   1.932   1.727  0.0879  0.1039  1.0156
  660MOL0     N89015  10.321   1.497   1.685 -0.3471  0.8593  0.0415
  660MOL0     N89016  10.192   1.510   1.677 -0.2476 -0.1469 -0.0802
  660MOL0     C89017   9.089   1.566   0.959  0.1647 -0.0107 -0.2199
  660MOL0     C89018   8.954   1.540   0.907 -0.4036 -0.3401 -0.1895
  660MOL0     C89019   8.610   1.473   0.644  0.0350 -0.5778 -0.7163
  660MOL0     C89020   8.577   1.337   0.635 -0.0405  0.3743 -0.3479
  660MOL0     C89021   8.447   1.297   0.598  0.7443 -0.2123 -0.4918
  660MOL0     C89022   8.346   1.384   0.574  0.2698  0.0090  1.0251
  660MOL0     O89023   8.233   1.328   0.538  0.8278  0.4955 -0.4759
  660MOL0     C89024   8.163   1.397   0.434  0.9057  0.1625  0.2216
  660MOL0     C89025   8.019   1.339   0.423 -0.7901  0.2326  0.4568
  660MOL0     C89026   8.002   1.223   0.335  0.2896  0.4129 -0.8998
  660MOL0     C89027   7.858   1.169   0.311 -0.7604  0.7276  0.0883
  660MOL0     C89028   7.774   1.285   0.285  0.7692 -0.5697  0.0324
  660MOL0     C89029   7.693   1.364   0.251 -0.1457 -0.6329 -0.1682
  660MOL0     C89030   8.364   1.520   0.588 -0.0711 -0.0673 -0.5743
  660MOL0     C89031   8.499   1.567   0.628  0.1669  0.8014  0.0990
  660MOL0     C89032   8.515   1.716   0.658 -0.4988  0.2699 -0.4189
  660MOL0     H89033   9.034   1.262   0.733 -2.5897 -0.4505  1.4227
  660MOL0     H89034   9.256   1.299   0.839  0.8968 -0.3031  3.4531
  660MOL0     H89035   9.230   1.350   1.142 -0.4688 -1.0661 -0.2799
  660MOL0     H89036   9.376   1.299   1.046  0.6825 -1.2697  1.9719
  660MOL0     H89037   9.417   1.351   1.283  2.1348  0.4864 -1.0018
  660MOL0     H89038   9.354   1.527   1.257 -0.3542  1.6514 -3.8354
  660MOL0     H89039   9.568   1.566   1.125  1.5094  1.5099  2.0792
  660MOL0     H89040   9.600   1.389   1.155 -1.5875  0.0881 -0.1422
  660MOL0     H89041   9.593   1.645   1.315 -0.0245  0.0504  1.6450
  660MOL0     H89042   9.592   1.490   1.404  0.8962  1.9247  0.9464
  660MOL0     H89043   9.799   1.441   1.292 -1.8991 -0.8041  1.4001
  660MOL0     H89044   9.786   1.581   1.193 -1.8684 -0.5468 -0.2571
  660MOL0     H89045   9.836   1.731   1.356  0.5643  1.2269  1.7949
  660MOL0     H89046   9.787   1.624   1.491  0.4603 -1.0746  0.6325
  660MOL0     H89047  10.054   1.672   1.429  0.5390  0.7459 -0.8632
  660MOL0     H89048  10.018   1.539   1.314 -1.0980 -1.0661 -0.6605
  660MOL0     H89049   9.936   1.501   1.590 -1.2562 -1.7783 -1.0507
  660MOL0     H89050   9.966   1.389   1.471 -0.0867  0.1517 -0.6131
  660MOL0     H89051  10.242   1.379   1.383 -1.6214  0.4736 -0.0460
  660MOL0     H89052  10.567   1.386   1.605  1.2620 -2.4734 -1.2746
  660MOL0     H89053  10.496   1.310   1.465  3.4587 -0.0337  0.4822
  660MOL0     H89054  10.664   1.473   1.403 -1.6063 -0.3787 -1.3627
  660MOL0     H89055  10.507   1.542   1.357 -1.6773  2.0235  1.4112
  660MOL0     H89056  10.648   1.603   1.623 -0.0323 -0.6751 -0.0683
  660MOL0     H89057  10.505   1.689   1.562  0.5174  1.8163  0.1932
  660MOL0     H89058  10.630   1.754   1.358  0.9497 -0.2900 -0.5481
  660MOL0     H89059  10.777   1.704   1.437  0.2492  0.2198  1.5394
  660MOL0     H89060  10.918   1.867   1.442 -3.2236 -1.4334 -0.0622
  660MOL0     H89061  11.102   1.920   1.579 -0.3978  2.1050 -1.1313
  660MOL0     H89062  11.265   2.254   1.841  1.9348  0.4099 -2.3080
  660MOL0     H89063  11.454   2.330   1.965 -1.6606 -1.0950  1.8475
  660MOL0     H89064  11.662   2.371   1.945  0.9353 -0.8349 -0.1236
  660MOL0     H89065  11.644   2.380   2.115  0.7149  2.0655 -1.2478
  660MOL0     H89066  11.876   2.269   1.953  2.0679  0.8723 -0.3623
  660MOL0     H89067  11.857   2.434   2.005 -2.0650 -0.9098 -0.9661
  660MOL0     H89068  11.843   2.341   2.247 -1.2522 -1.3646 -1.0459
  660MOL0     H89069  11.894   2.184   2.188 -0.3950 -0.2813 -0.8909
  660MOL0     H89070  12.111   2.293   2.098 -0.0581 -0.2509 -0.0549
  660MOL0     H89071  12.089   2.274   2.271 -1.4842 -3.5923 -1.4597
  660MOL0     H89072  12.002   2.546   2.246  1.5112  1.5874  0.3064
  660MOL0     H89073  12.077   2.522   2.091 -1.0164 -1.1959 -1.3166
  660MOL0     H89074  12.286   2.422   2.218 -0.6439 -0.7583 -0.0311
  660MOL0     H89075  12.260   2.592   2.224 -2.7280  1.7779  0.4874
  660MOL0     H89076  12.134   2.426   2.444 -1.2097  0.5774  0.2980
  660MOL0     H89077  12.165   2.590   2.450 -0.6185 -0.6345  0.3689
  660MOL0     H89078  12.337   2.482   2.580  2.2574  1.0078 -0.0098
  660MOL0     H89079  12.369   2.367   2.453  0.4962 -1.0467  1.0531
  660MOL0     H89080  11.597   1.929   2.031 -0.3230 -0.1644  1.1220
  660MOL0     H89081  11.395   1.848   1.926 -1.3316  0.5781  0.9671
  660MOL0     H89082  10.819   2.015   1.896  0.3044 -0.2439 -0.0196
  660MOL0     H89083  10.639   1.914   1.769  0.3753  1.1261  2.1719
  660MOL0     H89084   9.119   1.649   1.023  2.3845 -1.0681  0.2280
  660MOL0     H89085   8.875   1.612   0.928  0.7486  0.8851  0.0899
  660MOL0     H89086   8.656   1.264   0.650 -1.6974 -1.3990  0.1028
  660MOL0     H89087   8.429   1.190   0.586  0.9015 -0.6079  2.2833
  660MOL0     H89088   8.211   1.390   0.336 -0.7382  0.4757 -0.6482
  660MOL0     H89089   8.149   1.500   0.466 -1.4919  0.9434 -2.8259
  660MOL0     H89090   7.967   1.423   0.375 -2.1077 -0.1953  1.1205
  660MOL0     H89091   7.963   1.318   0.514 -2.3728 -0.8379 -0.7096
  660MOL0     H89092   8.062   1.142   0.379  0.5151  1.7239  1.3064
  660MOL0     H89093   8.064   1.250   0.249  3.2140  0.7770  1.1527
  660MOL0     H89094   7.851   1.100   0.226  0.9846  1.1529 -0.4472
  660MOL0     H89095   7.842   1.114   0.404 -0.5214 -0.7184 -0.6925
  660MOL0     H89096   7.609   1.421   0.217  1.0980  0.5978 -1.3099
  660MOL0     H89097   8.278   1.587   0.588 -0.9303 -1.1266 -1.4808
  660MOL0     H89098   8.559   1.735   0.756  3.0585  1.9603 -2.1792
  660MOL0     H89099   8.574   1.763   0.579 -0.8891 -0.3738 -1.1101
  660MOL0     H89100   8.420   1.769   0.656  0.7271  2.5579 -0.6743
  661MOL0     O89101   6.397   7.643   6.682  0.6647  0.5791  0.5304
  661MOL0     C89102   6.420   7.759   6.654 -0.1172 -0.7181 -0.1470
  661MOL0     O89103   6.540   7.806   6.600  0.3741  0.3439 -0.2465
  661MOL0     C89104   6.664   7.746   6.630  0.2138 -0.8371  0.5306
  661MOL0     C89105   6.768   7.767   6.546 -0.1103  0.7177 -0.1303
  661MOL0     C89106   6.892   7.721   6.587  0.1642 -0.4913 -0.3728
  661MOL0     C89107   6.916   7.658   6.711 -0.6012  0.1358  1.0446
  661MOL0     O89108   7.049   7.633   6.741  0.1152 -0.1843 -1.6579
  661MOL0     C89109   7.087   7.581   6.871  0.3382 -0.0673 -0.7428
  661MOL0     C89110   7.138   7.691   6.962  0.1827 -0.2799  0.0294
  661MOL0     C89111   7.276   7.732   6.920  0.0585  0.0074 -0.5889
  661MOL0     C89112   7.332   7.850   7.007 -0.9016  0.2154  0.4262
  661MOL0     C89113   7.464   7.898   6.940  0.3946 -0.6542  0.4356
  661MOL0     C89114   7.511   8.030   7.006 -0.1088 -0.0170  0.2987
  661MOL0     C89115   7.660   8.055   6.958 -0.6946  0.5776 -0.1901
  661MOL0     C89116   7.724   8.160   7.043  0.5211  0.0437  0.7012
  661MOL0     N89117   7.748   8.123   7.182  0.6739  0.0475  0.3353
  661MOL0     C89118   7.844   8.035   7.212 -0.4104  0.4022 -0.1583
  661MOL0     C89119   7.861   8.056   7.344 -0.2318  0.9806 -0.1762
  661MOL0     C89120   7.967   7.985   7.434  0.8672  0.0108 -0.5465
  661MOL0     C89121   8.081   8.085   7.460 -0.4106  0.1663  0.8835
  661MOL0     C89122   8.194   8.025   7.541 -0.0587 -0.3082  0.4678
  661MOL0     C89123   8.297   8.139   7.558 -0.1799  0.3946  0.3388
  661MOL0     O89124   8.385   8.149   7.441 -0.2999  0.8525 -0.1500
  661MOL0     C89125   8.508   8.205   7.456 -0.5075  0.8997  0.3586
  661MOL0     C89126   8.559   8.277   7.559  0.3019  0.3287  0.0523
  661MOL0     C89127   8.697   8.311   7.569  0.5270 -0.6302  0.6146
  661MOL0     C89128   8.787   8.273   7.463  0.2423  0.1712 -0.4155
  661MOL0     C89129   8.935   8.297   7.465  0.0077  0.2267  0.1723
  661MOL0     O89130   8.984   8.360   7.578  0.1545 -0.0120  0.5317
  661MOL0     C89131   9.122   8.367   7.585  0.7481  0.1406  0.4426
  661MOL0     C89132   9.184   8.457   7.501  0.2578 -1.5051 -0.5307
  661MOL0     C89133   9.322   8.475   7.509 -0.5878  0.2340 -0.7256
  661MOL0     C89134   9.398   8.408   7.610 -0.3280 -0.7927 -0.3985
  661MOL0     O89135   9.531   8.430   7.644  0.2476  0.2062  0.4953
  661MOL0     C89136   9.592   8.553   7.616 -0.4551  0.0881 -0.2558
  661MOL0     C89137   9.743   8.553   7.655  0.4206  0.5548 -0.2911
  661MOL0     C89138   9.793   8.689   7.686  0.1706 -0.2601  0.2233
  661MOL0     C89139   9.893   8.701   7.809  0.0742  0.4762  0.5225
  661MOL0     C89140   9.906   8.841   7.874  0.3399  0.1554 -1.1893
  661MOL0     C89141   9.926   8.958   7.785 -0.8150 -0.0447 -0.5086
  661MOL0     C89142   9.948   9.080   7.873  0.8031  0.7535  0.0693
  661MOL0     C89143   9.955   9.214   7.798  0.3889  0.3883  0.4553
  661MOL0    Cl89144  10.099   9.204   7.697  0.0980 -0.2753 -0.0125
  661MOL0     C89145   9.331   8.313   7.690  0.4965  0.2809 -0.0494
  661MOL0     C89146   9.192   8.298   7.683 -0.3774  0.2399  0.2199
  661MOL0     O89147   9.003   8.245   7.371 -0.0216  0.3474  0.3699
  661MOL0     C89148   8.734   8.205   7.353  0.3821 -0.4020  0.3010
  661MOL0     C89149   8.597   8.175   7.356 -0.6086 -0.1330  0.4296
  661MOL0     N89150   7.759   8.132   7.393 -0.2214 -1.2976 -0.5145
  661MOL0     N89151   7.687   8.168   7.293  0.3791  0.6314 -0.4989
  661MOL0     C89152   6.803   7.623   6.790  0.0164  0.0672 -0.3633
  661MOL0     C89153   6.681   7.673   6.747 -0.8655  0.0367  0.0184
  661MOL0     C89154   6.304   7.849   6.648 -0.0267 -0.6550  0.0802
  661MOL0     C89155   6.294   7.930   6.537 -0.0335 -0.0165 -0.4945
  661MOL0     C89156   6.192   8.019   6.515 -0.0918 -0.7174  0.0805
  661MOL0     C89157   6.083   8.021   6.610 -0.4446 -0.4902  0.6444
  661MOL0     O89158   5.972   8.094   6.594  0.3337  0.5078 -0.0154
  661MOL0     C89159   5.958   8.169   6.471 -0.2656 -0.1067 -0.6676
  661MOL0     C89160   5.815   8.209   6.451 -0.5430 -0.4695  0.2174
  661MOL0     C89161   5.713   8.098   6.453 -1.2914  1.4695 -0.0898
  661MOL0     C89162   5.586   8.146   6.387 -0.2034 -0.4736 -0.6264
  661MOL0     C89163   5.521   8.267   6.444 -0.9126 -0.2802 -0.4716
  661MOL0     C89164   5.465   8.375   6.480 -0.5933 -0.5246 -0.3717
  661MOL0     C89165   6.095   7.946   6.726  0.9252 -0.3688 -0.4871
  661MOL0     C89166   6.195   7.851   6.739 -0.6316 -0.2176  0.3939
  661MOL0     C89167   6.188   7.756   6.859 -0.4105  0.9620  0.7655
  661MOL0     H89168   6.746   7.830   6.460 -1.6143  0.5260  0.0909
  661MOL0     H89169   6.980   7.746   6.528  0.1810  0.4040  0.0295
  661MOL0     H89170   7.012   7.511   6.910 -1.6142  0.6464 -2.9304
  661MOL0     H89171   7.174   7.517   6.858 -0.1991 -1.8812  3.2131
  661MOL0     H89172   7.148   7.665   7.068 -0.1942  0.8585  0.3566
  661MOL0     H89173   7.072   7.778   6.956  2.5934  1.6084 -0.7864
  661MOL0     H89174   7.264   7.778   6.821 -2.2231  0.5550 -0.1179
  661MOL0     H89175   7.343   7.647   6.929  0.0003 -0.0064 -0.2835
  661MOL0     H89176   7.254   7.926   7.001 -2.0776 -1.0301 -3.3478
  661MOL0     H89177   7.345   7.813   7.109 -1.0199  0.2259  0.4449
  661MOL0     H89178   7.536   7.816   6.943 -1.3267 -2.2338  2.9145
  661MOL0     H89179   7.451   7.921   6.834  1.3683 -0.3995  0.3670
  661MOL0     H89180   7.454   8.121   6.985  1.6324  0.6549 -1.9086
  661MOL0     H89181   7.516   8.013   7.114  3.3360  2.4818  0.7319
  661MOL0     H89182   7.653   8.090   6.855  1.1031  0.9070 -0.2259
  661MOL0     H89183   7.718   7.962   6.954  0.7824  1.4450  0.5011
  661MOL0     H89184   7.815   8.204   7.001  0.4434  0.0794  0.5664
  661MOL0     H89185   7.650   8.240   7.030 -0.8520 -1.2148  0.5250
  661MOL0     H89186   7.902   7.980   7.138 -0.7301  0.4406 -0.4418
  661MOL0     H89187   7.914   7.957   7.525  3.9821 -2.4524  0.7059
  661MOL0     H89188   7.998   7.889   7.391  2.4781 -0.0533  0.6717
  661MOL0     H89189   8.128   8.113   7.365  2.0958  0.3081  2.0761
  661MOL0     H89190   8.040   8.176   7.504  2.1838  3.0684 -2.0352
  661MOL0     H89191   8.234   7.937   7.490 -0.3431  0.5356 -1.3152
  661MOL0     H89192   8.154   7.993   7.637 -0.6155 -0.3550  0.2222
  661MOL0     H89193   8.357   8.106   7.643  1.8475  0.2668 -1.0621
  661MOL0     H89194   8.256   8.238   7.579  0.7777  0.5527  1.5859
  661MOL0     H89195   8.494   8.299   7.643 -0.4246 -0.0535 -0.4075
  661MOL0     H89196   8.722   8.377   7.652 -1.0552 -0.2374  0.8077
  661MOL0     H89197   9.123   8.512   7.430 -0.2597 -1.2907  0.0686
  661MOL0     H89198   9.390   8.533   7.448  1.4130 -0.3031  0.8683
  661MOL0     H89199   9.583   8.557   7.507  1.4756  1.1025 -0.4211
  661MOL0     H89200   9.535   8.634   7.663 -0.9657 -0.2238 -0.3307
  661MOL0     H89201   9.761   8.482   7.736 -1.0939  1.5964  1.0146
  661MOL0     H89202   9.797   8.521   7.565  0.8226  1.0078 -0.2122
  661MOL0     H89203   9.832   8.734   7.594  0.9481 -0.8502  0.2525
  661MOL0     H89204   9.703   8.747   7.709  0.6786  0.7904 -0.3600
  661MOL0     H89205   9.991   8.660   7.782 -0.9309 -0.3163 -2.3450
  661MOL0     H89206   9.852   8.628   7.879  1.1787 -3.2462 -2.3862
  661MOL0     H89207   9.995   8.827   7.936  0.2981  0.2395 -1.1096
  661MOL0     H89208   9.819   8.857   7.938  2.1826 -0.7023  1.7028
  661MOL0     H89209  10.016   8.942   7.725  0.7422  1.3390  1.3549
  661MOL0     H89210   9.837   8.981   7.726 -0.1480  0.1519 -1.4616
  661MOL0     H89211  10.046   9.076   7.921 -0.4285 -0.2746  2.6548
  661MOL0     H89212   9.860   9.091   7.938  0.9009 -0.1520  0.3653
  661MOL0     H89213   9.865   9.215   7.736  0.0138 -1.1363  0.9303
  661MOL0     H89214   9.958   9.306   7.857 -0.7300  2.1133 -2.0226
  661MOL0     H89215   9.376   8.252   7.768 -2.4065 -0.1781  1.4273
  661MOL0     H89216   9.136   8.229   7.745  2.2777 -2.4647 -0.1028
  661MOL0     H89217   8.798   8.171   7.272  0.2332 -1.1275  0.4837
  661MOL0     H89218   8.559   8.116   7.273  2.5281  0.4699 -1.6181
  661MOL0     H89219   6.803   7.557   6.876 -1.5193  0.3147 -0.1392
  661MOL0     H89220   6.605   7.664   6.824 -1.0644  1.0534 -0.0391
  661MOL0     H89221   6.382   7.922   6.473  0.9347  0.2381  0.7727
  661MOL0     H89222   6.190   8.087   6.431  1.9230 -0.0713  0.4942
  661MOL0     H89223   5.979   8.100   6.390  3.0806 -2.0667  1.6328
  661MOL0     H89224   6.034   8.249   6.472 -2.5458  2.1948  0.1607
  661MOL0     H89225   5.791   8.268   6.363 -0.1231  1.2963  1.2499
  661MOL0     H89226   5.784   8.274   6.533  0.9235 -1.4820  1.6575
  661MOL0     H89227   5.699   8.066   6.556 -0.9793  2.0315  0.1340
  661MOL0     H89228   5.741   8.007   6.400 -1.9981 -0.1470  2.1710
  661MOL0     H89229   5.609   8.160   6.281  0.5375 -1.3473 -0.5952
  661MOL0     H89230   5.507   8.071   6.392 -1.3302  0.7019 -0.0740
  661MOL0     H89231   5.410   8.460   6.515 -0.0269  0.4068 -1.6884
  661MOL0     H89232   6.018   7.958   6.802  1.6036  2.5878 -0.1227
  661MOL0     H89233   6.134   7.663   6.841 -1.0884  1.0906  2.0601
  661MOL0     H89234   6.286   7.726   6.898 -0.7690 -4.0804 -1.4046
  661MOL0     H89235   6.132   7.815   6.931 -1.8002  2.0165 -1.0811
  662MOL0     O89236   5.591   7.861   8.743 -0.0596 -0.4846 -0.1309
  662MOL0     C89237   5.489   7.916   8.781 -0.5326  1.1027 -0.0626
  662MOL0     O89238   5.479   8.028   8.860  0.3785 -0.1196  0.7343
  662MOL0     C89239   5.596   8.072   8.908  0.0433 -0.0059  0.9058
  662MOL0     C89240   5.668   8.164   8.826  0.6322  0.9206  0.3598
  662MOL0     C89241   5.795   8.214   8.868  1.0903  0.5623 -0.3126
  662MOL0     C89242   5.845   8.185   8.996 -0.8460 -0.9812  0.3209
  662MOL0     O89243   5.960   8.233   9.051 -0.1064  0.5794 -0.3723
  662MOL0     C89244   6.027   8.346   9.009  0.2749 -0.0254 -0.5443
  662MOL0     C89245   6.116   8.392   9.131 -0.3876  0.4593  0.9401
  662MOL0     C89246   6.243   8.303   9.147  0.5893  0.5699 -0.7512
  662MOL0     C89247   6.320   8.365   9.256  0.3053  0.0136 -0.4619
  662MOL0     C89248   6.458   8.286   9.267  0.5643  0.6048 -0.4724
  662MOL0     C89249   6.561   8.362   9.348 -0.4460  0.0590 -0.3165
  662MOL0     C89250   6.686   8.274   9.384 -0.5131  0.0399  0.3052
  662MOL0     C89251   6.802   8.339   9.463  0.5314  0.2174 -0.3704
  662MOL0     N89252   6.879   8.455   9.414 -0.1028 -0.0997 -0.2465
  662MOL0     C89253   6.989   8.450   9.334  0.6564  0.0389 -0.5064
  662MOL0     C89254   7.018   8.579   9.309 -0.6223 -1.0945  0.2876
  662MOL0     C89255   7.132   8.614   9.218 -0.5360 -0.7763  0.8154
  662MOL0     C89256   7.262   8.603   9.305  0.3607 -0.1398 -0.7998
  662MOL0     C89257   7.382   8.602   9.215 -1.1346  0.2289  0.3712
  662MOL0     C89258   7.512   8.627   9.292  0.0444  0.2389  1.2114
  662MOL0     O89259   7.628   8.615   9.205  0.1059  0.1407 -0.2612
  662MOL0     C89260   7.755   8.637   9.258  0.8043  0.7009 -0.5847
  662MOL0     C89261   7.774   8.670   9.391  0.5745 -0.9257  0.3334
  662MOL0     C89262   7.903   8.700   9.439 -0.4048  0.1016 -0.0527
  662MOL0     C89263   8.011   8.704   9.347  0.1868  0.4807 -0.1361
  662MOL0     C89264   8.148   8.738   9.394 -0.5751 -1.5161 -0.4437
  662MOL0     O89265   8.242   8.727   9.298 -0.8161 -0.1524 -0.3719
  662MOL0     C89266   8.369   8.779   9.313  0.7627 -0.9070 -0.5509
  662MOL0     C89267   8.439   8.803   9.432 -0.2882  0.3558 -0.2624
  662MOL0     C89268   8.571   8.863   9.419 -0.5842  0.5997 -0.2520
  662MOL0     C89269   8.635   8.883   9.294  0.2391 -0.7359  0.2926
  662MOL0     O89270   8.763   8.935   9.273 -0.1582 -0.0776 -0.4979
  662MOL0     C89271   8.855   8.953   9.386  0.6258  0.3137  0.6151
  662MOL0     C89272   8.989   9.011   9.338  0.4173 -0.2292  0.0977
  662MOL0     C89273   8.968   9.152   9.272  0.2024 -0.4878  0.0049
  662MOL0     C89274   9.102   9.204   9.232 -0.1740  1.2813  0.9173
  662MOL0     C89275   9.105   9.350   9.197 -0.0234 -0.0932  0.1168
  662MOL0     C89276   9.248   9.397   9.148 -0.2104 -0.0282 -0.1810
  662MOL0     C89277   9.322   9.321   9.039  1.3024  0.4534  0.0358
  662MOL0     C89278   9.243   9.305   8.905  0.2599 -0.0454 -0.1649
  662MOL0    Cl89279   9.269   9.454   8.816  0.6334  0.2661  0.1767
  662MOL0     C89280   8.559   8.860   9.183 -0.1890  0.6165 -0.0501
  662MOL0     C89281   8.439   8.803   9.191  0.1216  0.2360  0.2724
  662MOL0     O89282   8.159   8.797   9.502 -0.4583  0.7560 -0.3373
  662MOL0     C89283   7.986   8.670   9.218  0.1115  0.5118 -0.4406
  662MOL0     C89284   7.857   8.641   9.170  0.4975 -0.8029  0.2763
  662MOL0     N89285   6.920   8.666   9.362  0.1229  0.3158 -0.3111
  662MOL0     N89286   6.840   8.580   9.423 -0.1092  0.0575 -0.5382
  662MOL0     C89287   5.779   8.096   9.072 -0.0374 -0.9061  0.2938
  662MOL0     C89288   5.660   8.030   9.026  0.0551 -0.4396 -0.4993
  662MOL0     C89289   5.370   7.854   8.717 -0.1683 -0.6543 -0.8097
  662MOL0     C89290   5.250   7.931   8.730  0.5088 -0.1950  0.7419
  662MOL0     C89291   5.138   7.895   8.658  0.5642  0.0924  0.5126
  662MOL0     C89292   5.131   7.776   8.578  0.7851  0.6184  0.9217
  662MOL0     O89293   5.024   7.769   8.485 -0.9723  0.0678  0.1115
  662MOL0     C89294   5.017   7.661   8.389  0.1813 -1.2088 -0.0460
  662MOL0     C89295   4.879   7.681   8.314  0.0859 -0.6100 -0.3553
  662MOL0     C89296   4.768   7.641   8.414 -0.4155  0.3643 -0.0220
  662MOL0     C89297   4.638   7.695   8.368  0.3096  0.4643 -0.0263
  662MOL0     C89298   4.538   7.673   8.473  0.7980 -0.0749  0.8013
  662MOL0     C89299   4.452   7.647   8.562 -0.8559  0.4711 -0.7383
  662MOL0     C89300   5.238   7.686   8.593 -0.0755  0.0646 -0.0624
  662MOL0     C89301   5.355   7.721   8.660 -0.7248 -0.0766 -0.5321
  662MOL0     C89302   5.460   7.618   8.653  0.1486 -0.7739  0.5568
  662MOL0     H89303   5.620   8.192   8.733 -0.2675  0.9820  0.8279
  662MOL0     H89304   5.857   8.278   8.805  2.7213 -1.0276 -0.4179
  662MOL0     H89305   6.089   8.333   8.920 -0.8957  0.7381 -1.4936
  662MOL0     H89306   5.955   8.426   8.991  1.8541  1.7934  0.7241
  662MOL0     H89307   6.059   8.383   9.224  1.0093  2.2428  2.0218
  662MOL0     H89308   6.137   8.499   9.127 -3.3768  1.1867  2.3236
  662MOL0     H89309   6.302   8.306   9.054  0.7927 -2.0327 -0.7730
  662MOL0     H89310   6.217   8.199   9.167  0.9399  0.6335  0.0856
  662MOL0     H89311   6.345   8.469   9.233 -1.6306  0.5565 -0.2675
  662MOL0     H89312   6.268   8.365   9.352  1.8003  2.0154  0.4169
  662MOL0     H89313   6.432   8.187   9.307  0.8076  0.2330 -1.2022
  662MOL0     H89314   6.500   8.258   9.169 -0.8977 -2.7633 -0.2889
  662MOL0     H89315   6.597   8.443   9.284  1.9067  0.2805  1.1582
  662MOL0     H89316   6.513   8.390   9.442  0.9400  1.6376 -0.0331
  662MOL0     H89317   6.733   8.246   9.288 -1.6328  1.5952 -0.7333
  662MOL0     H89318   6.649   8.181   9.429 -1.5830  0.7928  1.0120
  662MOL0     H89319   6.769   8.369   9.564  2.0454 -1.3884  0.6503
  662MOL0     H89320   6.862   8.251   9.486 -2.8638 -2.0252  0.6354
  662MOL0     H89321   7.040   8.357   9.310  1.0662  0.4971 -1.4764
  662MOL0     H89322   7.136   8.558   9.124  0.9000  1.5045 -0.5850
  662MOL0     H89323   7.118   8.717   9.184 -0.7559 -1.1157 -0.1751
  662MOL0     H89324   7.273   8.684   9.378  3.5625 -0.6445 -0.5686
  662MOL0     H89325   7.260   8.507   9.357  2.5147  0.1213 -0.1363
  662MOL0     H89326   7.365   8.676   9.137  0.0907  0.3419  0.1923
  662MOL0     H89327   7.381   8.507   9.160 -0.6221  0.8455 -0.7209
  662MOL0     H89328   7.514   8.559   9.378 -1.9744 -0.9061  0.4171
  662MOL0     H89329   7.499   8.730   9.326 -2.8617  1.5402 -3.0220
  662MOL0     H89330   7.697   8.665   9.468  2.3129 -0.3459  2.1948
  662MOL0     H89331   7.942   8.701   9.540  0.6051 -0.6407 -0.4139
  662MOL0     H89332   8.404   8.783   9.533  1.2727  0.3673  0.3153
  662MOL0     H89333   8.609   8.893   9.516 -0.0556  0.8611 -0.5330
  662MOL0     H89334   8.818   9.027   9.458  0.1151 -0.7305  1.4545
  662MOL0     H89335   8.876   8.860   9.441 -1.1503  0.1909  1.1292
  662MOL0     H89336   9.057   9.018   9.424 -1.4526 -0.2592  1.6261
  662MOL0     H89337   9.032   8.945   9.262 -0.1697 -1.1524  0.5510
  662MOL0     H89338   8.899   9.161   9.187  2.2055 -0.1942 -1.6813
  662MOL0     H89339   8.920   9.228   9.335  0.1813  0.1900 -0.8057
  662MOL0     H89340   9.129   9.144   9.145  0.1782  0.6967  1.4215
  662MOL0     H89341   9.173   9.190   9.314  0.7472 -2.5213 -0.2997
  662MOL0     H89342   9.079   9.403   9.289 -0.9756  0.9756 -0.7339
  662MOL0     H89343   9.034   9.377   9.118  1.3494  0.2827 -1.0264
  662MOL0     H89344   9.251   9.500   9.110  2.4416  0.0336  0.0268
  662MOL0     H89345   9.317   9.384   9.232 -1.3226  0.8699  0.9005
  662MOL0     H89346   9.340   9.218   9.071 -2.2388 -1.0739 -2.2184
  662MOL0     H89347   9.417   9.367   9.012  2.1039 -0.8850  0.4665
  662MOL0     H89348   9.271   9.216   8.848 -0.4115 -0.4825  0.1686
  662MOL0     H89349   9.136   9.291   8.924  0.5836  0.7405  2.7558
  662MOL0     H89350   8.599   8.882   9.084  0.0959  1.5735  0.2569
  662MOL0     H89351   8.375   8.788   9.104 -0.8141  4.5470 -0.0141
  662MOL0     H89352   8.064   8.675   9.143  1.4448  1.3663  0.9279
  662MOL0     H89353   7.839   8.611   9.067  0.5811 -0.1893  0.0795
  662MOL0     H89354   5.808   8.069   9.173 -1.1058 -1.8403  0.3709
  662MOL0     H89355   5.601   7.953   9.075  0.7189 -0.4452  0.3038
  662MOL0     H89356   5.237   8.017   8.795  0.4592 -0.3653  0.9563
  662MOL0     H89357   5.057   7.967   8.649  1.1501  0.5544 -1.7869
  662MOL0     H89358   5.026   7.564   8.439  1.0640 -1.1372 -0.0499
  662MOL0     H89359   5.102   7.674   8.321 -0.4054 -0.7723 -0.7126
  662MOL0     H89360   4.864   7.614   8.228 -0.0912 -0.9267 -0.0836
  662MOL0     H89361   4.871   7.784   8.281 -2.0823 -0.2709  1.0129
  662MOL0     H89362   4.780   7.677   8.516  0.4718  1.8511 -0.6110
  662MOL0     H89363   4.765   7.532   8.422 -1.9801  0.4532  1.1058
  662MOL0     H89364   4.638   7.804   8.355 -1.0594  0.3175 -1.7204
  662MOL0     H89365   4.604   7.657   8.271  1.1318 -0.6718  0.1154
  662MOL0     H89366   4.376   7.600   8.620  1.1499 -3.4347 -0.9763
  662MOL0     H89367   5.232   7.607   8.519  1.5586  1.3528 -1.6509
  662MOL0     H89368   5.537   7.649   8.581 -1.0278 -0.5890 -0.6746
  662MOL0     H89369   5.505   7.607   8.752  1.7356  0.0717 -0.0227
  662MOL0     H89370   5.421   7.521   8.620  2.6766 -1.6555 -0.0645
  663MOL0     O89371   4.869  10.463  10.065  0.0813  0.1903 -0.1286
  663MOL0     C89372   4.761  10.486  10.017 -0.7507 -0.4688 -0.4402
  663MOL0     O89373   4.739  10.584   9.923 -0.1904  0.7865  0.1931
  663MOL0     C89374   4.846  10.635   9.864  0.1535 -1.1975 -0.4497
  663MOL0     C89375   4.843  10.627   9.732 -0.2075 -0.3991  0.6961
  663MOL0     C89376   4.946  10.683   9.654 -0.3406  0.3504  0.1721
  663MOL0     C89377   5.042  10.765   9.718  0.0555 -0.6518  0.1121
  663MOL0     O89378   5.119  10.847   9.638 -0.5473  0.3372  1.1157
  663MOL0     C89379   5.245  10.896   9.689 -0.2624  0.4372 -1.0170
  663MOL0     C89380   5.352  10.782   9.711  0.6287  0.0560 -0.4636
  663MOL0     C89381   5.493  10.841   9.730  0.3812  0.7892  0.6733
  663MOL0     C89382   5.558  10.876   9.591  0.5952  1.1406 -0.4894
  663MOL0     C89383   5.700  10.927   9.601 -0.1733  0.1251  0.5203
  663MOL0     C89384   5.800  10.825   9.660 -0.0544 -0.2610  0.3520
  663MOL0     C89385   5.947  10.866   9.625 -0.7199  0.2927 -0.5662
  663MOL0     C89386   6.038  10.763   9.709 -0.2833  0.1879  0.1822
  663MOL0     N89387   6.180  10.770   9.667  0.4808  0.0321  0.1031
  663MOL0     C89388   6.280  10.854   9.712 -0.4928  0.8496  0.1421
  663MOL0     C89389   6.385  10.839   9.621 -0.8281 -0.1810 -0.4746
  663MOL0     C89390   6.516  10.906   9.644 -0.6197 -0.9131  0.1724
  663MOL0     C89391   6.610  10.831   9.734 -1.0722  0.3631  0.0406
  663MOL0     C89392   6.751  10.848   9.694 -0.0461 -0.0955  0.8086
  663MOL0     C89393   6.845  10.768   9.771  0.0764 -0.4211 -0.4852
  663MOL0     O89394   6.972  10.784   9.718 -0.1022 -0.4285  0.1224
  663MOL0     C89395   7.071  10.692   9.755  1.2408 -0.4067  0.0186
  663MOL0     C89396   7.058  10.600   9.853  0.0818  0.0331  0.6536
  663MOL0     C89397   7.175  10.527   9.881 -0.3561 -0.0547  0.6036
  663MOL0     C89398   7.303  10.545   9.816  0.6324 -0.7411 -0.2889
  663MOL0     C89399   7.421  10.469   9.836  0.7830 -0.8155  1.3215
  663MOL0     O89400   7.534  10.543   9.819  0.0708  0.3360  0.2703
  663MOL0     C89401   7.659  10.470   9.823 -0.3337 -1.5387 -0.0368
  663MOL0     C89402   7.726  10.439   9.701  0.2375  0.8300 -0.1126
  663MOL0     C89403   7.851  10.390   9.696  0.2641  0.8076 -0.2668
  663MOL0     C89404   7.924  10.382   9.814 -0.3745 -0.6322 -0.1144
  663MOL0     O89405   8.058  10.356   9.807  0.1415  0.2894 -0.3356
  663MOL0     C89406   8.108  10.255   9.899 -0.2036  0.2857  0.3039
  663MOL0     C89407   8.238  10.195   9.852 -0.0627  0.3264 -0.6409
  663MOL0     C89408   8.355  10.286   9.855 -0.4862  0.4860  0.0420
  663MOL0     C89409   8.477  10.242   9.773 -1.0364 -0.1721 -0.4162
  663MOL0     C89410   8.581  10.360   9.777  0.6114 -0.0743 -0.0985
  663MOL0     C89411   8.728  10.325   9.783  0.1576  0.6519 -0.3883
  663MOL0     C89412   8.771  10.218   9.690  0.1925 -0.1900  0.2465
  663MOL0     C89413   8.931  10.209   9.685  0.2983 -0.0125  0.3409
  663MOL0    Cl89414   9.011  10.128   9.830  0.1012  0.1753 -0.1387
  663MOL0     C89415   7.862  10.404   9.934  0.0408 -0.9533 -0.4463
  663MOL0     C89416   7.733  10.445   9.933 -0.2202 -0.2427 -1.0529
  663MOL0     O89417   7.413  10.352   9.872 -0.5389 -0.6022  0.1793
  663MOL0     C89418   7.306  10.631   9.705  0.4668 -0.1101 -0.7555
  663MOL0     C89419   7.195  10.711   9.687  0.7687  0.2746 -0.0885
  663MOL0     N89420   6.352  10.751   9.523 -0.4022  1.0179  0.4010
  663MOL0     N89421   6.230  10.703   9.558  0.0836  0.0506  0.4968
  663MOL0     C89422   5.045  10.781   9.852  0.3805 -1.1410 -0.6240
  663MOL0     C89423   4.945  10.717   9.930  0.4110 -0.2054  0.5968
  663MOL0     C89424   4.653  10.401  10.069  0.4537  0.8162 -0.0713
  663MOL0     C89425   4.680  10.269  10.112 -0.5427  0.2592 -0.0064
  663MOL0     C89426   4.585  10.172  10.127  0.9903  0.7353  0.1228
  663MOL0     C89427   4.451  10.201  10.119 -0.0940 -0.3551  0.3274
  663MOL0     O89428   4.338  10.123  10.127  0.2512 -0.4865 -0.1507
  663MOL0     C89429   4.358   9.988  10.150 -0.4835  0.3810 -0.1688
  663MOL0     C89430   4.219   9.925  10.169  0.2512 -0.3894  0.7796
  663MOL0     C89431   4.143   9.928  10.024  0.5376  0.1984  0.4763
  663MOL0     C89432   4.026   9.835   9.995 -0.2733  0.4774 -0.4134
  663MOL0     C89433   3.932   9.834  10.106 -0.0247 -0.1444  0.7539
  663MOL0     C89434   3.855   9.849  10.202 -0.4441  0.2425 -0.0161
  663MOL0     C89435   4.423  10.343  10.106 -0.1613  0.1378  0.4357
  663MOL0     C89436   4.516  10.437  10.077 -0.2856 -0.5991  0.0671
  663MOL0     C89437   4.466  10.571  10.041  0.5261 -0.1115  0.4970
  663MOL0     H89438   4.763  10.580   9.675 -1.2063  0.4865  1.3398
  663MOL0     H89439   4.932  10.668   9.547 -1.5010 -2.3995  0.6161
  663MOL0     H89440   5.287  10.961   9.611  2.8281  0.0525  0.1501
  663MOL0     H89441   5.237  10.954   9.782  4.0179 -1.1929  0.6635
  663MOL0     H89442   5.362  10.723   9.619  1.9037  0.5437 -0.6690
  663MOL0     H89443   5.332  10.716   9.796 -1.8658 -1.3790 -2.0548
  663MOL0     H89444   5.551  10.762   9.779  0.8187  0.0486 -0.9601
  663MOL0     H89445   5.481  10.928   9.795 -3.7499 -0.1348  1.4306
  663MOL0     H89446   5.545  10.793   9.521  0.1137  0.5765  0.2485
  663MOL0     H89447   5.494  10.954   9.550 -1.1993 -0.4062 -0.7656
  663MOL0     H89448   5.734  10.964   9.505  0.0370 -0.8200  0.2180
  663MOL0     H89449   5.693  11.013   9.669 -1.6620  0.7589 -0.3849
  663MOL0     H89450   5.794  10.828   9.769 -0.6535  0.4914  0.3066
  663MOL0     H89451   5.778  10.723   9.627  1.1665 -0.9163  1.4765
  663MOL0     H89452   5.965  10.968   9.659 -0.6365 -0.3470  1.4902
  663MOL0     H89453   5.971  10.857   9.519  2.6647 -1.0734  0.1873
  663MOL0     H89454   6.031  10.778   9.817 -4.8176  0.2336  0.0590
  663MOL0     H89455   6.008  10.659   9.690  2.6690 -0.4700 -1.6153
  663MOL0     H89456   6.284  10.919   9.798 -1.0746 -0.2812  1.0470
  663MOL0     H89457   6.546  10.910   9.539 -1.5830 -0.4166 -0.0943
  663MOL0     H89458   6.507  11.009   9.681 -1.9214 -0.5961 -0.9514
  663MOL0     H89459   6.588  10.856   9.838 -0.6708 -0.7323  0.4020
  663MOL0     H89460   6.592  10.723   9.734  0.1138  0.1381  1.3274
  663MOL0     H89461   6.782  10.952   9.678 -1.4602  0.0753 -1.2599
  663MOL0     H89462   6.756  10.803   9.594  1.1119 -0.2009  0.9009
  663MOL0     H89463   6.809  10.665   9.769  3.3502 -1.6735 -0.8258
  663MOL0     H89464   6.839  10.810   9.872 -2.6331  0.2141 -0.8455
  663MOL0     H89465   6.967  10.579   9.909  0.3824 -1.2151  0.6936
  663MOL0     H89466   7.165  10.445   9.951  2.0735  0.8292  2.1268
  663MOL0     H89467   7.675  10.467   9.608  0.5009  1.5812 -0.0416
  663MOL0     H89468   7.909  10.366   9.608 -1.6260  0.2394 -1.3998
  663MOL0     H89469   8.134  10.311   9.989 -3.0821  1.5421  0.4740
  663MOL0     H89470   8.035  10.174   9.906  1.2175 -1.0221  0.3900
  663MOL0     H89471   8.263  10.111   9.918 -0.1903  1.9727  1.5880
  663MOL0     H89472   8.227  10.156   9.750 -0.4572 -0.1629 -0.4181
  663MOL0     H89473   8.320  10.385   9.825 -2.8121 -0.9675 -2.4963
  663MOL0     H89474   8.400  10.288   9.955  0.9327  0.4779 -0.5610
  663MOL0     H89475   8.445  10.221   9.671  0.0296 -2.7618 -0.3079
  663MOL0     H89476   8.514  10.150   9.821  0.3233  0.6277  0.1335
  663MOL0     H89477   8.563  10.427   9.862  1.9648  0.3007 -0.0826
  663MOL0     H89478   8.560  10.418   9.686 -0.1432  0.8260  0.6275
  663MOL0     H89479   8.784  10.418   9.768 -0.3547  1.2336  1.1685
  663MOL0     H89480   8.748  10.297   9.886  1.2888 -1.3880 -1.1053
  663MOL0     H89481   8.734  10.239   9.589  0.9668  0.1922  0.0357
  663MOL0     H89482   8.717  10.130   9.724 -1.4486  0.3197 -0.8884
  663MOL0     H89483   8.946  10.139   9.602 -2.4654 -1.3729  0.8841
  663MOL0     H89484   8.976  10.307   9.664 -0.5415  0.1319 -0.9509
  663MOL0     H89485   7.925  10.388  10.022  1.2628  0.4045 -1.0332
  663MOL0     H89486   7.688  10.461  10.031  2.4678 -1.0031  0.4167
  663MOL0     H89487   7.396  10.654   9.649  0.8423  2.0478  0.5805
  663MOL0     H89488   7.196  10.782   9.605 -1.9720 -0.8011 -1.1583
  663MOL0     H89489   5.125  10.829   9.909  1.3761 -2.0026 -1.2478
  663MOL0     H89490   4.937  10.728  10.037  0.3765 -1.2241  0.7136
  663MOL0     H89491   4.784  10.239  10.108 -0.4763  0.5236 -0.2821
  663MOL0     H89492   4.611  10.069  10.153 -1.3594  0.3035  1.1118
  663MOL0     H89493   4.425   9.971  10.235  1.6347 -0.2143 -1.8656
  663MOL0     H89494   4.410   9.942  10.065  1.7274  0.2306  1.2009
  663MOL0     H89495   4.168   9.980  10.249 -1.7671 -0.2163 -0.5564
  663MOL0     H89496   4.226   9.822  10.204 -2.9702 -1.0953 -0.3959
  663MOL0     H89497   4.226   9.889   9.964 -0.4140  0.2514 -0.9285
  663MOL0     H89498   4.114  10.033  10.006 -0.2368 -0.1015 -0.1000
  663MOL0     H89499   3.983   9.882   9.906 -1.2197  1.0688  0.3349
  663MOL0     H89500   4.058   9.734   9.967  1.9743  0.1469  2.8274
  663MOL0     H89501   3.793   9.839  10.288 -0.0598 -0.9524  0.1448
  663MOL0     H89502   4.318  10.373  10.100 -0.1853 -0.1758 -1.4393
  663MOL0     H89503   4.465  10.581   9.932 -1.0935  1.9546  0.6421
  663MOL0     H89504   4.366  10.593  10.079  0.1801  1.2467 -1.0615
  663MOL0     H89505   4.529  10.641  10.096  1.1553 -1.4583  1.5404
  664MOL0     O89506   6.937   6.419   5.754  0.1038  0.0377  0.6981
  664MOL0     C89507   6.875   6.492   5.676  0.2174  0.2510 -0.1048
  664MOL0     O89508   6.933   6.558   5.564  0.5730  0.3691 -0.3073
  664MOL0     C89509   7.067   6.534   5.548  0.1472 -0.1118  0.8075
  664MOL0     C89510   7.159   6.648   5.568  0.7885  0.0284 -0.0675
  664MOL0     C89511   7.296   6.617   5.549  0.5643 -0.4472 -0.9421
  664MOL0     C89512   7.338   6.489   5.503  0.4757 -0.6452 -0.3281
  664MOL0     O89513   7.464   6.456   5.472 -0.2428 -0.3136  0.5558
  664MOL0     C89514   7.565   6.519   5.543  0.2059 -0.6909  0.5124
  664MOL0     C89515   7.696   6.454   5.495  0.5288  0.5860 -0.9057
  664MOL0     C89516   7.755   6.529   5.376  0.1320  1.0026 -0.7603
  664MOL0     C89517   7.883   6.458   5.329  1.2938 -0.4706 -0.4496
  664MOL0     C89518   7.955   6.547   5.230  0.0822 -0.0957  0.1414
  664MOL0     C89519   8.100   6.507   5.185  0.1457 -0.1417  0.6940
  664MOL0     C89520   8.112   6.352   5.154  0.3140 -0.6695  0.1318
  664MOL0     C89521   8.194   6.328   5.028 -0.2284 -0.1985 -0.5298
  664MOL0     N89522   8.334   6.361   5.044 -0.4412 -0.1752 -0.2031
  664MOL0     C89523   8.408   6.331   5.158  0.4105  0.1978  0.3410
  664MOL0     C89524   8.532   6.368   5.127 -0.5852 -0.0080  0.5951
  664MOL0     C89525   8.656   6.340   5.214  0.4244  0.3926 -0.4961
  664MOL0     C89526   8.637   6.389   5.353  0.3472  0.0123 -0.1915
  664MOL0     C89527   8.640   6.540   5.365  0.1437 -0.9172  0.2224
  664MOL0     C89528   8.622   6.593   5.512  0.3575 -0.0196  0.0038
  664MOL0     O89529   8.688   6.723   5.514 -0.5471 -0.7847  0.0795
  664MOL0     C89530   8.819   6.748   5.537 -0.6418  0.0558  0.5132
  664MOL0     C89531   8.875   6.877   5.513  1.0193 -0.1889  0.2891
  664MOL0     C89532   9.004   6.913   5.517 -0.5154  0.5089 -0.0233
  664MOL0     C89533   9.099   6.812   5.558  0.8015  0.3685  0.2352
  664MOL0     C89534   9.246   6.842   5.564  0.4483  0.5294 -0.1596
  664MOL0     O89535   9.282   6.971   5.546 -0.6918 -0.1179 -0.2827
  664MOL0     C89536   9.423   6.990   5.542  0.2399 -0.3179 -0.5321
  664MOL0     C89537   9.474   7.057   5.427  1.6270 -0.2623  0.3644
  664MOL0     C89538   9.610   7.080   5.424  0.7437 -0.7085  0.2538
  664MOL0     C89539   9.693   7.052   5.537 -0.1225 -0.1359 -0.8506
  664MOL0     O89540   9.831   7.070   5.552  0.7713  0.0819 -0.1816
  664MOL0     C89541   9.888   7.168   5.470 -0.3129  0.1266  0.0653
  664MOL0     C89542  10.029   7.213   5.502  0.1588  0.0797  0.1169
  664MOL0     C89543  10.068   7.349   5.434 -0.7429  0.1357 -0.2923
  664MOL0     C89544  10.217   7.332   5.376  1.8311  1.0225  0.0891
  664MOL0     C89545  10.237   7.452   5.286  0.1578  0.5333  0.2693
  664MOL0     C89546  10.380   7.454   5.240 -0.7877  0.5451 -0.2193
  664MOL0     C89547  10.410   7.584   5.169  0.1748  0.2471  0.3280
  664MOL0     C89548  10.474   7.687   5.266  0.4836  0.1391 -0.3486
  664MOL0    Cl89549  10.553   7.814   5.168 -0.4376  0.1230 -0.2421
  664MOL0     C89550   9.635   6.996   5.652  0.1811 -0.1243 -0.2020
  664MOL0     C89551   9.503   6.966   5.655  1.6193 -0.1809  0.7078
  664MOL0     O89552   9.320   6.739   5.574  0.6118  0.0583  0.9511
  664MOL0     C89553   9.051   6.679   5.583  0.4325  0.2734  0.9505
  664MOL0     C89554   8.916   6.651   5.574 -0.0157  0.1105  0.9320
  664MOL0     N89555   8.533   6.435   5.008  0.2613  0.3210 -0.1164
  664MOL0     N89556   8.410   6.426   4.954 -0.3833 -0.1890 -0.0692
  664MOL0     C89557   7.243   6.389   5.475 -0.1432  0.2185  0.4315
  664MOL0     C89558   7.109   6.409   5.502  0.2504  0.4810  0.0410
  664MOL0     C89559   6.723   6.498   5.687  0.0154  0.4475  0.4968
  664MOL0     C89560   6.650   6.516   5.567 -0.1234 -0.4841  0.3797
  664MOL0     C89561   6.503   6.519   5.573 -0.0116  0.6456 -0.0155
  664MOL0     C89562   6.431   6.508   5.692 -0.4716 -0.9560  0.6909
  664MOL0     O89563   6.298   6.523   5.693  1.1941 -0.8369  0.6609
  664MOL0     C89564   6.220   6.444   5.788 -0.6199  0.4757  0.7464
  664MOL0     C89565   6.124   6.343   5.716  0.8283 -0.0187  0.0481
  664MOL0     C89566   5.994   6.423   5.673 -0.2342 -0.0174  0.2118
  664MOL0     C89567   5.904   6.343   5.574  0.3161 -0.2510 -0.5808
  664MOL0     C89568   5.850   6.223   5.632 -0.1605  0.3218 -0.2250
  664MOL0     C89569   5.802   6.134   5.698 -0.6147 -0.0010  0.5458
  664MOL0     C89570   6.506   6.498   5.810  0.3400 -0.0049  0.6867
  664MOL0     C89571   6.648   6.489   5.812 -0.4228 -0.1819  0.8301
  664MOL0     C89572   6.725   6.461   5.940 -0.2359  0.4094 -0.8832
  664MOL0     H89573   7.114   6.742   5.597 -0.4258 -0.1578 -1.2785
  664MOL0     H89574   7.371   6.691   5.575  0.2806 -0.9337  1.5178
  664MOL0     H89575   7.561   6.627   5.527 -0.6716 -0.7975 -0.1052
  664MOL0     H89576   7.560   6.506   5.651 -0.4275  1.3064  0.7532
  664MOL0     H89577   7.684   6.355   5.450 -2.1055  1.4305 -2.2567
  664MOL0     H89578   7.767   6.450   5.578 -0.2059 -1.4475 -0.3150
  664MOL0     H89579   7.773   6.632   5.408 -0.0022  0.8854 -0.3109
  664MOL0     H89580   7.682   6.535   5.294 -0.4417  2.7071 -0.1752
  664MOL0     H89581   7.944   6.440   5.417  0.5083  0.6521  0.3575
  664MOL0     H89582   7.863   6.359   5.287  2.8413 -0.1996 -1.9328
  664MOL0     H89583   7.894   6.545   5.139 -0.9439 -0.5607  0.8262
  664MOL0     H89584   7.960   6.649   5.271 -0.3494  1.3481 -3.0840
  664MOL0     H89585   8.127   6.565   5.096 -0.9271  0.9663  1.0552
  664MOL0     H89586   8.175   6.528   5.262  0.5632  1.0203  0.0022
  664MOL0     H89587   8.009   6.318   5.136 -0.5127  1.1785  1.1393
  664MOL0     H89588   8.162   6.298   5.235  1.0204 -2.7344 -1.5666
  664MOL0     H89589   8.201   6.219   5.021  0.4997 -0.1369 -0.7584
  664MOL0     H89590   8.154   6.364   4.933 -1.0313  0.8443  0.1714
  664MOL0     H89591   8.371   6.286   5.249 -1.7211  0.6328 -0.2546
  664MOL0     H89592   8.681   6.233   5.218 -0.4613  0.1819 -0.3063
  664MOL0     H89593   8.740   6.391   5.167 -0.4874  1.1756 -1.3130
  664MOL0     H89594   8.548   6.343   5.396  0.8934  0.5936  1.6328
  664MOL0     H89595   8.723   6.358   5.413  0.1429  0.5129  0.3657
  664MOL0     H89596   8.560   6.581   5.303  1.4689  0.2336 -0.8116
  664MOL0     H89597   8.739   6.576   5.336  0.3149  1.3370  3.1869
  664MOL0     H89598   8.676   6.523   5.577  0.3932 -0.1990 -0.2185
  664MOL0     H89599   8.517   6.591   5.543  0.2715 -2.1523 -0.2634
  664MOL0     H89600   8.802   6.952   5.482  0.2648 -0.9524  0.1708
  664MOL0     H89601   9.038   7.011   5.482 -0.2032  0.3071 -0.2883
  664MOL0     H89602   9.418   7.072   5.335 -1.5220 -2.0204  1.7963
  664MOL0     H89603   9.655   7.127   5.337 -1.4713 -0.9275 -1.0764
  664MOL0     H89604   9.877   7.147   5.363  1.4767 -1.1759  0.0987
  664MOL0     H89605   9.835   7.261   5.491  2.2542  1.3617  1.3763
  664MOL0     H89606  10.057   7.233   5.607  5.9496  1.5799 -1.3121
  664MOL0     H89607  10.101   7.134   5.477  1.9897  1.2635  1.3260
  664MOL0     H89608   9.991   7.383   5.364  1.3132  5.7678 -0.3151
  664MOL0     H89609  10.061   7.424   5.513  0.4576  0.8500 -0.8260
  664MOL0     H89610  10.220   7.235   5.326 -0.5913 -0.6467  2.8331
  664MOL0     H89611  10.286   7.342   5.460 -0.1055 -0.1741  1.9263
  664MOL0     H89612  10.202   7.546   5.330  1.3528 -0.0239  2.5514
  664MOL0     H89613  10.163   7.447   5.206  0.5523  1.1610 -0.1466
  664MOL0     H89614  10.447   7.442   5.325 -1.2071 -0.9070 -0.0612
  664MOL0     H89615  10.398   7.370   5.172  1.5894 -0.1985  1.2151
  664MOL0     H89616  10.314   7.616   5.127 -0.6450 -3.8428 -1.4407
  664MOL0     H89617  10.479   7.578   5.084  0.7391 -3.3884  0.9042
  664MOL0     H89618  10.401   7.727   5.337  0.9170 -2.3223  1.6216
  664MOL0     H89619  10.556   7.637   5.318  1.0370  0.0009 -1.3293
  664MOL0     H89620   9.698   6.960   5.733 -2.0650  0.2344  1.8108
  664MOL0     H89621   9.463   6.922   5.746 -0.2924 -0.4421 -0.2178
  664MOL0     H89622   9.124   6.602   5.606 -0.0628 -1.0988 -1.6449
  664MOL0     H89623   8.879   6.550   5.589 -0.8522  0.2046 -0.3751
  664MOL0     H89624   7.268   6.292   5.432 -1.9361  0.4909 -1.3315
  664MOL0     H89625   7.050   6.320   5.482 -0.6054  1.0226  0.1181
  664MOL0     H89626   6.704   6.515   5.473 -1.5013  0.2324 -0.4605
  664MOL0     H89627   6.433   6.508   5.490  0.4269 -2.9168 -0.0812
  664MOL0     H89628   6.160   6.511   5.851 -1.4113 -1.0549  1.6931
  664MOL0     H89629   6.284   6.381   5.851 -0.7002  0.9008  1.2692
  664MOL0     H89630   6.101   6.252   5.773  3.9210 -0.8282  0.1573
  664MOL0     H89631   6.174   6.298   5.630  3.0617 -2.9841  2.6561
  664MOL0     H89632   6.033   6.507   5.615  3.6770 -0.5550  1.7741
  664MOL0     H89633   5.938   6.466   5.757 -0.3661 -0.9910  0.6349
  664MOL0     H89634   5.820   6.408   5.547 -1.3839 -1.7182  0.9060
  664MOL0     H89635   5.959   6.321   5.483  1.5467  1.8197 -0.4025
  664MOL0     H89636   5.743   6.063   5.752 -2.5725  2.1332  1.3798
  664MOL0     H89637   6.465   6.507   5.911  1.6109 -3.9276  1.7553
  664MOL0     H89638   6.666   6.467   6.032  0.8641 -1.3327 -0.0166
  664MOL0     H89639   6.755   6.357   5.933 -1.1618  0.2127 -2.3938
  664MOL0     H89640   6.818   6.518   5.951  1.0957 -1.6080 -1.3170
  665MOL0     O89641   4.443   5.284   0.493  0.2811  0.1465  0.2293
  665MOL0     C89642   4.480   5.287   0.377 -1.2051 -0.3165 -1.5524
  665MOL0     O89643   4.597   5.239   0.337  0.3055  0.7296 -0.0716
  665MOL0     C89644   4.690   5.188   0.425 -0.1984  0.3841 -0.5693
  665MOL0     C89645   4.813   5.249   0.429 -0.4182 -0.4386 -0.6191
  665MOL0     C89646   4.911   5.201   0.516  0.0642 -0.0067 -0.5679
  665MOL0     C89647   4.891   5.082   0.604 -0.7161  0.1283  0.8664
  665MOL0     O89648   4.978   5.036   0.698 -0.4074  0.1956 -0.1186
  665MOL0     C89649   5.112   5.083   0.670  0.0184 -0.3219 -0.5962
  665MOL0     C89650   5.212   4.979   0.723  0.1799 -0.0207  0.2161
  665MOL0     C89651   5.350   5.030   0.704  0.6017  0.0276 -0.0581
  665MOL0     C89652   5.460   4.926   0.758  0.0497  0.6720 -0.1010
  665MOL0     C89653   5.598   4.969   0.697  0.7312  0.1835 -1.2692
  665MOL0     C89654   5.716   4.880   0.755  0.1206 -0.0918 -0.7031
  665MOL0     C89655   5.844   4.963   0.737 -0.0885 -0.3264  0.0298
  665MOL0     C89656   5.968   4.893   0.768 -0.0970  0.2018  0.4956
  665MOL0     N89657   6.092   4.970   0.757  0.1970  0.3666  0.1889
  665MOL0     C89658   6.135   5.091   0.819 -0.4835  0.2996  0.2498
  665MOL0     C89659   6.259   5.106   0.781  0.3246  0.4422 -0.0501
  665MOL0     C89660   6.364   5.218   0.803 -0.2655  0.1491 -0.9541
  665MOL0     C89661   6.493   5.194   0.891  0.3650 -0.8870 -0.1344
  665MOL0     C89662   6.546   5.043   0.867 -0.5935  0.0198  0.8333
  665MOL0     C89663   6.696   5.039   0.911 -0.1675  0.0374 -0.2808
  665MOL0     O89664   6.751   4.904   0.906  0.2887 -0.1219  1.2312
  665MOL0     C89665   6.894   4.899   0.899  0.6595  0.0192  0.0966
  665MOL0     C89666   6.973   4.955   0.997  0.1193 -0.6779 -0.5213
  665MOL0     C89667   7.108   4.941   0.997  0.9074 -0.7511 -0.1847
  665MOL0     C89668   7.172   4.879   0.895  0.1199 -0.1575  0.7711
  665MOL0     C89669   7.317   4.859   0.896  0.0151 -0.5609 -0.1058
  665MOL0     O89670   7.353   4.778   0.798 -0.5555  0.8941 -0.5603
  665MOL0     C89671   7.486   4.743   0.784  0.2343 -0.0150  0.1519
  665MOL0     C89672   7.537   4.749   0.656  0.0244  0.6152  0.2352
  665MOL0     C89673   7.670   4.711   0.636 -0.5764 -0.4195 -0.4095
  665MOL0     C89674   7.751   4.652   0.738 -0.1769  0.2917  0.0181
  665MOL0     O89675   7.872   4.584   0.718  0.7103  0.4829  0.1736
  665MOL0     C89676   7.951   4.637   0.615 -1.1155 -0.0955  0.1563
  665MOL0     C89677   8.095   4.593   0.640  1.0302  0.7675  0.3415
  665MOL0     C89678   8.136   4.628   0.789  0.5119 -0.6596 -0.1466
  665MOL0     C89679   8.290   4.615   0.809 -0.3928  0.8369 -0.2127
  665MOL0     C89680   8.331   4.533   0.940  0.3252  0.2160 -0.5999
  665MOL0     C89681   8.487   4.511   0.937  0.5405  0.6107  0.5200
  665MOL0     C89682   8.574   4.642   0.925  0.1676 -0.1026 -0.6719
  665MOL0     C89683   8.525   4.747   1.029 -0.4695  0.5122  0.9514
  665MOL0    Cl89684   8.633   4.888   1.006 -0.0407  0.0347  0.2838
  665MOL0     C89685   7.690   4.633   0.858 -0.8153 -0.3925 -0.5427
  665MOL0     C89686   7.564   4.677   0.879  1.0731  0.0743 -0.5500
  665MOL0     O89687   7.387   4.897   0.987  0.1661 -0.0375  0.5426
  665MOL0     C89688   7.092   4.826   0.787  0.2935  0.1204  0.4711
  665MOL0     C89689   6.951   4.821   0.800 -0.2644 -0.3771  0.6715
  665MOL0     N89690   6.287   5.006   0.695 -0.8202 -0.2280  1.2673
  665MOL0     N89691   6.189   4.932   0.678 -0.7791  0.5379 -0.0077
  665MOL0     C89692   4.766   5.025   0.592 -0.0291 -0.2158 -0.3965
  665MOL0     C89693   4.658   5.087   0.514 -0.0882 -0.4467  0.3612
  665MOL0     C89694   4.385   5.323   0.278  1.1249 -0.3011  0.1614
  665MOL0     C89695   4.379   5.243   0.162 -0.4940 -0.2784  0.7035
  665MOL0     C89696   4.294   5.266   0.050 -0.1894 -0.0602  0.2780
  665MOL0     C89697   4.192   5.371   0.065 -0.3086 -0.5452 -0.1375
  665MOL0     O89698   4.111   5.381  -0.045  0.6183  0.2179  0.3887
  665MOL0     C89699   3.994   5.466  -0.028  0.5021 -1.2378  0.3817
  665MOL0     C89700   3.882   5.451  -0.132  0.4666 -0.3545  0.2897
  665MOL0     C89701   3.776   5.564  -0.138  0.3251 -0.5013  0.8023
  665MOL0     C89702   3.740   5.598  -0.281  0.8246 -0.4741  0.4988
  665MOL0     C89703   3.678   5.481  -0.349 -0.1231 -0.1125  0.0496
  665MOL0     C89704   3.613   5.388  -0.396 -0.0204 -0.2986  0.7078
  665MOL0     C89705   4.197   5.449   0.177 -0.9556 -0.5031  0.2907
  665MOL0     C89706   4.295   5.436   0.282  0.1025 -0.2256 -0.2895
  665MOL0     C89707   4.273   5.523   0.402  0.0693  0.1725 -0.7079
  665MOL0     H89708   4.829   5.335   0.365 -0.9653  1.1773  1.3169
  665MOL0     H89709   5.004   5.255   0.524  0.0070  0.1282 -0.8064
  665MOL0     H89710   5.138   5.079   0.564 -0.2939  1.7161 -0.7811
  665MOL0     H89711   5.125   5.185   0.707 -0.9538 -0.2596 -0.4023
  665MOL0     H89712   5.203   4.884   0.669  0.3783 -0.5771  1.1570
  665MOL0     H89713   5.195   4.959   0.829 -0.9065  2.3031  0.5371
  665MOL0     H89714   5.361   5.129   0.750  0.9105  0.5327 -1.1759
  665MOL0     H89715   5.368   5.031   0.596  0.7577 -0.7828 -0.0469
  665MOL0     H89716   5.457   4.905   0.866  1.7091  1.7195  0.1813
  665MOL0     H89717   5.434   4.830   0.713  1.9402 -0.8710  1.8704
  665MOL0     H89718   5.587   4.953   0.589 -4.3347 -3.1750 -0.6138
  665MOL0     H89719   5.608   5.076   0.716  0.7260  0.0601 -0.5603
  665MOL0     H89720   5.706   4.859   0.862 -1.3129  2.4209 -0.2435
  665MOL0     H89721   5.722   4.789   0.694 -1.5180 -0.6553 -0.0951
  665MOL0     H89722   5.846   5.058   0.791 -0.1343 -0.5502  0.4270
  665MOL0     H89723   5.844   4.986   0.630 -0.1191 -1.1146 -0.1415
  665MOL0     H89724   5.962   4.870   0.875 -0.9143  1.4044  0.7325
  665MOL0     H89725   5.967   4.800   0.710  0.2078 -0.3450  1.3473
  665MOL0     H89726   6.077   5.157   0.883 -0.1940  1.1664 -0.3574
  665MOL0     H89727   6.396   5.253   0.704 -1.0701  1.5952 -0.7254
  665MOL0     H89728   6.312   5.301   0.850 -3.2142 -1.2993 -1.4433
  665MOL0     H89729   6.576   5.258   0.860 -0.9205  0.1850 -1.4470
  665MOL0     H89730   6.456   5.218   0.991 -2.6094 -0.4332 -1.2497
  665MOL0     H89731   6.530   5.025   0.761 -4.6453  2.5797  0.8149
  665MOL0     H89732   6.482   4.970   0.916 -0.8954 -0.4825 -0.2778
  665MOL0     H89733   6.694   5.077   1.014  0.9622 -0.7304  0.0477
  665MOL0     H89734   6.758   5.101   0.845 -0.2697 -1.3320 -1.7027
  665MOL0     H89735   6.925   5.008   1.079  0.8314  0.0905 -0.5861
  665MOL0     H89736   7.163   4.962   1.089 -0.8720  1.2062  0.5163
  665MOL0     H89737   7.482   4.794   0.574  0.1270 -0.3602 -0.3793
  665MOL0     H89738   7.713   4.709   0.536  1.7691  2.5509  0.3936
  665MOL0     H89739   7.914   4.595   0.521 -1.0184  2.4303 -1.0883
  665MOL0     H89740   7.951   4.746   0.616  0.3954 -0.0561  2.0119
  665MOL0     H89741   8.093   4.484   0.640 -2.5598  0.7062  1.2532
  665MOL0     H89742   8.152   4.639   0.559  0.0177 -1.0390 -1.5088
  665MOL0     H89743   8.100   4.729   0.813  0.2242 -0.3897 -1.6281
  665MOL0     H89744   8.091   4.547   0.846  3.2527 -3.8441 -2.1692
  665MOL0     H89745   8.339   4.713   0.818 -1.2177  1.2257  0.0913
  665MOL0     H89746   8.325   4.568   0.716  0.4818  1.3861 -0.1756
  665MOL0     H89747   8.283   4.435   0.943  0.0425  0.3765  1.7520
  665MOL0     H89748   8.296   4.581   1.032 -0.7317  1.5486 -1.6643
  665MOL0     H89749   8.509   4.456   1.030 -2.0442  1.3684  1.6660
  665MOL0     H89750   8.521   4.443   0.859 -0.8875 -0.8154  1.0951
  665MOL0     H89751   8.578   4.676   0.822  1.6004 -0.8547 -0.8851
  665MOL0     H89752   8.679   4.617   0.943  0.0727  0.5373  0.9551
  665MOL0     H89753   8.422   4.770   1.002 -0.9932 -0.6820  1.8283
  665MOL0     H89754   8.518   4.700   1.128 -1.1952 -4.8560 -1.2893
  665MOL0     H89755   7.744   4.585   0.939  2.3629 -2.3039 -3.4939
  665MOL0     H89756   7.532   4.664   0.982 -0.3372  0.6699 -0.8884
  665MOL0     H89757   7.143   4.778   0.704  0.1913 -0.4991  0.7654
  665MOL0     H89758   6.889   4.765   0.731  2.1228 -0.4858 -1.5527
  665MOL0     H89759   4.741   4.939   0.653 -3.8520 -0.4344 -2.0248
  665MOL0     H89760   4.556   5.050   0.509 -0.8016  1.5895 -3.0796
  665MOL0     H89761   4.433   5.150   0.147  0.3999  0.1968  0.9220
  665MOL0     H89762   4.300   5.193  -0.029  0.9061 -3.3682  3.1746
  665MOL0     H89763   4.018   5.572  -0.035 -0.6234 -1.0215 -0.4773
  665MOL0     H89764   3.951   5.448   0.070 -1.3637 -0.6956 -0.2949
  665MOL0     H89765   3.822   5.363  -0.109 -3.1195  2.0183  0.7525
  665MOL0     H89766   3.924   5.439  -0.233  0.0962 -0.6459  0.1683
  665MOL0     H89767   3.809   5.657  -0.090 -2.2985  0.9034  0.0713
  665MOL0     H89768   3.688   5.528  -0.084 -0.7617  1.1932  0.2447
  665MOL0     H89769   3.669   5.681  -0.283  1.0668 -0.1724  2.4189
  665MOL0     H89770   3.825   5.641  -0.334  0.8607  3.0839  3.0881
  665MOL0     H89771   3.543   5.314  -0.427 -2.5048  0.7149  3.3601
  665MOL0     H89772   4.136   5.538   0.186  1.4326  1.5014 -1.8792
  665MOL0     H89773   4.208   5.609   0.382 -1.9716 -1.1455 -0.1088
  665MOL0     H89774   4.209   5.482   0.480  1.8677  0.3437  0.9248
  665MOL0     H89775   4.367   5.555   0.446 -0.7015  0.6492  0.6569
  666MOL0     O89776   5.965  10.284   8.623  0.2394 -0.9159 -0.3236
  666MOL0     C89777   5.942  10.171   8.654 -1.1031  0.6714  0.1553
  666MOL0     O89778   6.041  10.084   8.689 -0.2909  0.0105 -0.2976
  666MOL0     C89779   6.182  10.101   8.665  0.2580 -1.4050  0.4592
  666MOL0     C89780   6.283  10.027   8.732  0.0129 -0.0293 -1.0084
  666MOL0     C89781   6.418  10.045   8.698  0.6740 -0.0103 -0.2260
  666MOL0     C89782   6.457  10.129   8.589 -0.1890 -0.2133 -0.9708
  666MOL0     O89783   6.584  10.136   8.539 -0.2852 -0.7980  0.5033
  666MOL0     C89784   6.673  10.030   8.564 -0.2616 -0.1793  0.1284
  666MOL0     C89785   6.794  10.042   8.474  0.6098  0.0302 -0.0556
  666MOL0     C89786   6.911  10.123   8.540  0.4236 -0.1345 -0.2715
  666MOL0     C89787   7.036  10.126   8.459  0.3815  0.0499  0.6671
  666MOL0     C89788   7.052  10.243   8.361  0.0884 -0.6432  0.9071
  666MOL0     C89789   7.111  10.375   8.427 -0.3770  0.1384 -1.0177
  666MOL0     C89790   7.191  10.473   8.343  0.3216  0.3807  0.1899
  666MOL0     C89791   7.127  10.503   8.198 -0.2328 -0.4678 -0.4347
  666MOL0     N89792   7.214  10.599   8.127  0.5786  0.7263 -0.0079
  666MOL0     C89793   7.162  10.704   8.061 -0.0228  0.3443 -1.0815
  666MOL0     C89794   7.270  10.766   8.014 -0.0100 -0.4186  0.3843
  666MOL0     C89795   7.263  10.892   7.927  0.0296  0.8085  0.1919
  666MOL0     C89796   7.376  10.910   7.829 -0.1536 -0.0611  0.1910
  666MOL0     C89797   7.356  11.042   7.746  0.1846  0.6654 -0.0373
  666MOL0     C89798   7.456  11.053   7.633  0.0925 -0.5416 -0.4099
  666MOL0     O89799   7.573  11.092   7.708 -0.8576  1.0908  0.3321
  666MOL0     C89800   7.699  11.085   7.652 -0.6871 -1.6392  0.1705
  666MOL0     C89801   7.804  11.102   7.734  0.5599 -0.2394 -1.1267
  666MOL0     C89802   7.937  11.100   7.702 -0.0526  0.0288  0.6491
  666MOL0     C89803   7.974  11.085   7.564 -0.0820 -0.1275  0.2857
  666MOL0     C89804   8.120  11.075   7.524  0.4480  0.3752 -0.8875
  666MOL0     O89805   8.205  11.119   7.621  0.6253 -0.1815  0.4564
  666MOL0     C89806   8.342  11.138   7.591  0.2444  0.5761  0.2484
  666MOL0     C89807   8.395  11.258   7.542 -0.6868 -0.5250 -0.3760
  666MOL0     C89808   8.529  11.277   7.517  0.4629 -0.5602 -0.2604
  666MOL0     C89809   8.623  11.179   7.551  0.9025  0.8825  0.2384
  666MOL0     O89810   8.752  11.214   7.533 -0.5214 -0.5360  0.4578
  666MOL0     C89811   8.854  11.149   7.605  0.0537  0.0019 -0.4773
  666MOL0     C89812   8.994  11.187   7.548  0.0971 -0.9109  0.2508
  666MOL0     C89813   9.121  11.148   7.639 -0.3068  0.4453  0.4341
  666MOL0     C89814   9.240  11.164   7.564 -0.6508  0.0689  0.7457
  666MOL0     C89815   9.265  11.309   7.513  0.8995  0.3510 -0.4081
  666MOL0     C89816   9.392  11.315   7.433 -0.2962  0.2012 -0.3180
  666MOL0     C89817   9.407  11.448   7.372 -0.4527  0.0689 -0.4655
  666MOL0     C89818   9.544  11.466   7.311  0.3960 -0.1741  0.0888
  666MOL0    Cl89819   9.550  11.376   7.165  0.2718  0.2498  0.3311
  666MOL0     C89820   8.576  11.052   7.598  0.0589 -0.5080  0.5502
  666MOL0     C89821   8.435  11.036   7.620 -0.0601  0.5539  0.0566
  666MOL0     O89822   8.157  11.025   7.418 -0.4376  0.4827 -0.0462
  666MOL0     C89823   7.872  11.071   7.468 -0.2371  0.5643 -0.2618
  666MOL0     C89824   7.734  11.068   7.510  0.1119  0.3285 -0.1879
  666MOL0     N89825   7.378  10.693   8.054 -0.7943  0.4716  0.4262
  666MOL0     N89826   7.343  10.591   8.114 -0.6110  0.3798 -0.1184
  666MOL0     C89827   6.357  10.194   8.518  0.4102  0.2966  0.3450
  666MOL0     C89828   6.222  10.179   8.554 -0.2560 -0.3716 -0.1457
  666MOL0     C89829   5.799  10.120   8.680  0.1197 -0.0620  0.4733
  666MOL0     C89830   5.784   9.989   8.735  0.1128  0.0919  0.4509
  666MOL0     C89831   5.656   9.930   8.748  0.4632 -0.3843 -0.2638
  666MOL0     C89832   5.543   9.989   8.697  0.2129 -0.7196  0.1769
  666MOL0     O89833   5.430   9.908   8.703  0.5840  0.2409 -0.8119
  666MOL0     C89834   5.312   9.957   8.631 -0.1636  0.0590 -0.2236
  666MOL0     C89835   5.226   9.832   8.603 -0.0939 -0.8583  0.1536
  666MOL0     C89836   5.176   9.771   8.736 -0.5824 -0.4158 -0.5722
  666MOL0     C89837   5.060   9.680   8.731 -0.3671 -0.0551 -0.6689
  666MOL0     C89838   4.945   9.758   8.682 -1.3258  0.4063  0.7803
  666MOL0     C89839   4.852   9.819   8.645 -0.6127  0.2898 -0.2817
  666MOL0     C89840   5.547  10.126   8.652 -0.3206  0.4187 -0.5415
  666MOL0     C89841   5.679  10.188   8.642 -0.3498 -0.1509  0.6186
  666MOL0     C89842   5.680  10.332   8.581  1.0810  0.1622 -0.0592
  666MOL0     H89843   6.247   9.955   8.805 -3.3909  0.5275 -1.9469
  666MOL0     H89844   6.507  10.006   8.748  0.2847 -1.7763 -0.8432
  666MOL0     H89845   6.706  10.025   8.668  1.5804 -1.1868 -0.4695
  666MOL0     H89846   6.622   9.937   8.538 -0.2000 -0.2716  0.3399
  666MOL0     H89847   6.755  10.082   8.380  1.0070 -2.9114 -1.5967
  666MOL0     H89848   6.833   9.942   8.451 -1.6704 -0.5713 -1.6478
  666MOL0     H89849   6.948  10.091   8.637  0.4925  1.9007  0.4242
  666MOL0     H89850   6.883  10.226   8.565 -1.4103 -1.0233  1.6529
  666MOL0     H89851   7.121  10.123   8.529 -1.2619  0.7277  2.7891
  666MOL0     H89852   7.025  10.037   8.396 -0.0829  0.7003 -0.1958
  666MOL0     H89853   7.127  10.215   8.286 -2.0424  0.2723 -1.7008
  666MOL0     H89854   6.960  10.265   8.306  0.7091 -2.6418 -1.1086
  666MOL0     H89855   7.026  10.424   8.475 -0.3597 -0.1018 -0.7407
  666MOL0     H89856   7.177  10.351   8.511 -1.9746  0.9750  0.5284
  666MOL0     H89857   7.284  10.418   8.334 -1.8225 -3.4035 -1.1494
  666MOL0     H89858   7.208  10.572   8.387 -1.2854  0.7835 -0.0111
  666MOL0     H89859   7.125  10.410   8.141  0.9350  0.0741 -1.3999
  666MOL0     H89860   7.028  10.545   8.216  0.7208  0.8568  2.3312
  666MOL0     H89861   7.057  10.731   8.052 -0.4709 -0.9203  0.1055
  666MOL0     H89862   7.174  10.890   7.863 -1.0650 -2.5069  1.6097
  666MOL0     H89863   7.257  10.985   7.984 -2.5283 -0.4390  2.1691
  666MOL0     H89864   7.472  10.918   7.881 -0.3140 -1.4202  0.7442
  666MOL0     H89865   7.379  10.820   7.768  0.4617 -0.6427  1.0471
  666MOL0     H89866   7.339  11.130   7.809 -0.0173 -0.5021  1.6088
  666MOL0     H89867   7.259  11.022   7.700  0.1848 -0.2272  0.3154
  666MOL0     H89868   7.427  11.128   7.559 -1.9154 -2.7091 -1.9454
  666MOL0     H89869   7.477  10.954   7.592  2.8466 -0.4975  0.6309
  666MOL0     H89870   7.770  11.114   7.837 -1.0028  0.6506 -1.7115
  666MOL0     H89871   8.005  11.114   7.786 -0.3351 -1.5844  1.1867
  666MOL0     H89872   8.326  11.339   7.521  1.0255  1.0780 -0.0604
  666MOL0     H89873   8.564  11.360   7.457  1.4397  0.8765  2.1502
  666MOL0     H89874   8.854  11.182   7.709 -1.2738  1.4509 -0.8862
  666MOL0     H89875   8.836  11.042   7.606 -2.7078  0.3523  2.2638
  666MOL0     H89876   9.001  11.138   7.450 -1.5905 -1.0449  0.1625
  666MOL0     H89877   8.994  11.295   7.532  1.0073 -1.1850 -1.8981
  666MOL0     H89878   9.115  11.216   7.725 -2.7720 -0.8319  1.3606
  666MOL0     H89879   9.113  11.044   7.671 -2.1406  0.4769  0.1887
  666MOL0     H89880   9.233  11.090   7.483  2.0667  1.6441 -1.0903
  666MOL0     H89881   9.318  11.133   7.634 -1.6560 -2.0015  1.0184
  666MOL0     H89882   9.264  11.380   7.596  0.0337  0.6624 -0.6733
  666MOL0     H89883   9.183  11.338   7.447 -0.2572  0.5426  1.0646
  666MOL0     H89884   9.464  11.302   7.514  0.3518 -0.3040 -0.9703
  666MOL0     H89885   9.412  11.240   7.356  2.1109 -0.1427  0.5723
  666MOL0     H89886   9.392  11.532   7.441 -1.1427  1.3842 -2.1688
  666MOL0     H89887   9.327  11.467   7.300 -0.9083 -3.2721 -1.0217
  666MOL0     H89888   9.560  11.573   7.301  0.7234 -0.0753  1.4901
  666MOL0     H89889   9.621  11.429   7.379  0.5011  2.7240  1.6727
  666MOL0     H89890   8.644  10.971   7.620 -0.2456 -0.5157  1.5095
  666MOL0     H89891   8.402  10.948   7.674  2.0081 -0.8514 -0.8217
  666MOL0     H89892   7.878  11.054   7.361 -3.6273  2.4048 -0.9102
  666MOL0     H89893   7.653  11.062   7.438  0.9075  0.1870 -1.0920
  666MOL0     H89894   6.385  10.252   8.432  0.0713  0.7283  0.5185
  666MOL0     H89895   6.155  10.234   8.489 -1.6313 -0.6299  1.0120
  666MOL0     H89896   5.874   9.931   8.754 -1.4659 -1.6150  3.2323
  666MOL0     H89897   5.648   9.827   8.781  0.5895  0.1578  1.5894
  666MOL0     H89898   5.348  10.009   8.542  0.2204 -0.0212 -0.1171
  666MOL0     H89899   5.253  10.022   8.696 -1.3271 -1.9983  0.8821
  666MOL0     H89900   5.292   9.760   8.553  0.5910  0.4760 -0.9295
  666MOL0     H89901   5.143   9.864   8.540  0.2119  0.2245  0.2804
  666MOL0     H89902   5.156   9.855   8.803  1.0212 -2.2135  2.4135
  666MOL0     H89903   5.257   9.723   8.791 -0.3725  1.5849  0.9683
  666MOL0     H89904   5.074   9.600   8.658 -2.0216  2.9939 -4.7272
  666MOL0     H89905   5.028   9.637   8.827 -0.4286 -0.4971 -0.8839
  666MOL0     H89906   4.784   9.885   8.597  0.3976  2.1221  0.6735
  666MOL0     H89907   5.454  10.179   8.631  0.1994  1.7333  0.3644
  666MOL0     H89908   5.719  10.315   8.480  1.1492 -3.9566  0.4828
  666MOL0     H89909   5.576  10.362   8.563  1.3729  1.0098 -0.4127
  666MOL0     H89910   5.731  10.411   8.637  0.6355  1.2375 -1.1327
  667MOL0     O89911   7.357   2.816   2.583 -0.5578 -0.4312  0.5231
  667MOL0     C89912   7.437   2.789   2.671 -0.2293  0.2709 -0.2518
  667MOL0     O89913   7.568   2.787   2.654  0.6315 -0.5751 -0.7408
  667MOL0     C89914   7.618   2.822   2.528  1.3345 -0.4439  0.5142
  667MOL0     C89915   7.568   2.923   2.435 -0.2497 -0.3895  0.0687
  667MOL0     C89916   7.640   2.954   2.319 -0.0599  0.3768 -0.2430
  667MOL0     C89917   7.767   2.888   2.289 -0.3974  0.3748 -0.2133
  667MOL0     O89918   7.827   2.928   2.168 -0.0173  0.3356 -0.0735
  667MOL0     C89919   7.970   2.961   2.183  0.6073 -0.0135  0.8348
  667MOL0     C89920   7.999   3.065   2.285 -0.1592  0.4577 -1.1237
  667MOL0     C89921   8.140   3.120   2.280 -0.1810 -0.0777  0.1662
  667MOL0     C89922   8.225   3.090   2.397  0.4120 -0.4440  0.0222
  667MOL0     C89923   8.371   3.149   2.380 -0.8182  0.0853 -0.2140
  667MOL0     C89924   8.450   3.095   2.255  0.1711  0.1720  0.0717
  667MOL0     C89925   8.600   3.130   2.257 -0.5576 -0.4991 -0.2799
  667MOL0     C89926   8.675   3.051   2.373  0.0788 -0.2001  0.0379
  667MOL0     N89927   8.815   3.097   2.389  0.5485 -0.1401  0.6275
  667MOL0     C89928   8.922   3.062   2.315 -1.1893 -0.2700 -0.4855
  667MOL0     C89929   9.024   3.129   2.374  0.2744 -0.3379  0.5237
  667MOL0     C89930   9.168   3.111   2.334  0.6058 -0.1839 -0.0698
  667MOL0     C89931   9.259   3.236   2.333 -0.2054 -0.3379  0.1722
  667MOL0     C89932   9.404   3.193   2.298  0.3075  0.8162 -0.2485
  667MOL0     C89933   9.494   3.299   2.235 -0.7250 -0.0216 -0.0001
  667MOL0     O89934   9.522   3.399   2.337  0.2050 -0.3791 -0.2937
  667MOL0     C89935   9.650   3.459   2.342 -0.5793  1.3995 -0.1853
  667MOL0     C89936   9.761   3.439   2.247  0.2659 -0.1941 -0.0453
  667MOL0     C89937   9.878   3.504   2.260  0.2154 -0.6886 -0.5158
  667MOL0     C89938   9.906   3.592   2.368  0.3914  0.8055  0.9725
  667MOL0     C89939  10.020   3.675   2.381  0.0473  0.1662  0.1216
  667MOL0     O89940  10.106   3.691   2.270  0.2748  0.1290 -1.1811
  667MOL0     C89941  10.229   3.757   2.276 -0.3246  0.1239 -0.7297
  667MOL0     C89942  10.338   3.704   2.207  0.4029  0.6064  0.2172
  667MOL0     C89943  10.460   3.761   2.211 -0.3806 -0.3360  0.0568
  667MOL0     C89944  10.492   3.875   2.288 -0.1101 -0.3049  0.0495
  667MOL0     O89945  10.608   3.945   2.279  0.3340 -0.4306 -0.5077
  667MOL0     C89946  10.727   3.873   2.250 -0.2590 -0.1707  0.4284
  667MOL0     C89947  10.851   3.946   2.300  0.8579  0.4237 -0.3128
  667MOL0     C89948  10.896   4.051   2.193  0.3631  0.2641  0.6247
  667MOL0     C89949  11.014   3.997   2.114 -1.0779 -0.2157  0.7453
  667MOL0     C89950  11.022   4.057   1.974  0.8364  0.3719  0.2051
  667MOL0     C89951  11.136   3.993   1.898  0.1388  0.4455  0.3228
  667MOL0     C89952  11.157   4.041   1.754 -0.1386 -0.9237  0.5413
  667MOL0     C89953  11.264   3.963   1.669  0.5950  0.6663 -0.1155
  667MOL0    Cl89954  11.419   3.988   1.758  0.2561  0.4382 -0.1557
  667MOL0     C89955  10.381   3.934   2.349  0.7025  0.2918 -0.1756
  667MOL0     C89956  10.250   3.881   2.347 -0.2914  0.6065  0.0217
  667MOL0     O89957  10.035   3.727   2.488 -0.2044 -0.2072 -0.1810
  667MOL0     C89958   9.804   3.597   2.467  0.4886 -0.4788  0.1998
  667MOL0     C89959   9.676   3.536   2.452  0.1200 -0.5176 -0.2216
  667MOL0     N89960   8.968   3.219   2.465 -0.0979  0.4859 -0.3541
  667MOL0     N89961   8.839   3.202   2.465 -0.4945 -0.1243 -0.0885
  667MOL0     C89962   7.818   2.802   2.385 -0.0541 -0.0369 -1.1061
  667MOL0     C89963   7.741   2.757   2.492 -0.3964  0.7127  0.8637
  667MOL0     C89964   7.392   2.749   2.804  0.1079 -0.2807  0.2328
  667MOL0     C89965   7.488   2.687   2.891  0.2578 -0.6500 -0.2975
  667MOL0     C89966   7.444   2.638   3.007  0.3950  0.0067 -0.1014
  667MOL0     C89967   7.309   2.643   3.054 -0.1400  0.2587  1.1173
  667MOL0     O89968   7.285   2.597   3.180  0.2912 -0.0212  0.2564
  667MOL0     C89969   7.143   2.594   3.201 -0.3578  0.0798  0.5721
  667MOL0     C89970   7.101   2.502   3.308  0.3732  0.7349  1.1248
  667MOL0     C89971   7.177   2.530   3.429 -0.1416  1.0151 -0.0136
  667MOL0     C89972   7.118   2.465   3.555  0.1021 -0.5581 -0.8806
  667MOL0     C89973   7.100   2.319   3.543  1.2674 -0.2698 -0.0365
  667MOL0     C89974   7.080   2.201   3.547 -0.0453 -0.3542 -0.2311
  667MOL0     C89975   7.221   2.714   2.968 -0.5860  0.0203 -0.5057
  667MOL0     C89976   7.262   2.761   2.850  0.2246  0.1704  0.3712
  667MOL0     C89977   7.158   2.835   2.774 -0.4981  0.3462 -0.2324
  667MOL0     H89978   7.488   2.994   2.458  2.5918  2.9096  0.6438
  667MOL0     H89979   7.601   3.030   2.253 -0.9075 -1.2748 -1.7241
  667MOL0     H89980   8.019   2.866   2.206  1.4908 -0.0548 -1.0162
  667MOL0     H89981   8.015   3.000   2.091  2.7336  0.1605  1.8858
  667MOL0     H89982   7.974   3.028   2.385  2.5575  2.0864  0.2660
  667MOL0     H89983   7.930   3.147   2.263 -1.3901  0.2404  1.5349
  667MOL0     H89984   8.116   3.227   2.280  0.0016 -0.0289 -0.5344
  667MOL0     H89985   8.184   3.096   2.182  0.4276 -0.1105  0.4427
  667MOL0     H89986   8.189   3.140   2.487  0.8707  1.7293 -0.9524
  667MOL0     H89987   8.230   2.983   2.420  1.9960  0.0084  2.0547
  667MOL0     H89988   8.369   3.258   2.386  2.7012  0.1881  2.8159
  667MOL0     H89989   8.424   3.117   2.470  0.1536  1.1788 -0.3757
  667MOL0     H89990   8.436   2.988   2.237  1.7835  0.2215 -1.8748
  667MOL0     H89991   8.397   3.138   2.170  2.1901 -1.1239 -1.9671
  667MOL0     H89992   8.616   3.237   2.277 -0.8251 -0.0439 -2.3254
  667MOL0     H89993   8.641   3.110   2.158 -2.7990 -3.3665 -0.7350
  667MOL0     H89994   8.621   3.072   2.466 -2.7045 -3.1679 -0.7178
  667MOL0     H89995   8.664   2.942   2.366 -0.8510 -0.2127  1.3644
  667MOL0     H89996   8.941   2.991   2.235  0.2439  0.5109 -0.8686
  667MOL0     H89997   9.202   3.036   2.406 -2.1178  1.0091  2.6953
  667MOL0     H89998   9.173   3.051   2.242 -3.0477 -2.9922  1.3070
  667MOL0     H89999   9.217   3.299   2.254  1.3151 -1.9559 -2.0437
  667MOL0     H90000   9.246   3.294   2.425 -1.3615  0.0972 -0.2497
  667MOL0     H90001   9.410   3.108   2.229  1.5852 -0.5728  1.4735
  667MOL0     H90002   9.450   3.157   2.390  2.1551  2.0890 -0.6123
  667MOL0     H90003   9.452   3.344   2.145  0.0070 -1.0022 -0.8646
  667MOL0     H90004   9.584   3.243   2.207 -1.2140 -1.8727  1.9136
  667MOL0     H90005   9.746   3.371   2.164  1.3762 -1.6640  0.9099
  667MOL0     H90006   9.957   3.482   2.189 -0.8211  0.4458 -2.0776
  667MOL0     H90007  10.323   3.608   2.159  2.1610 -3.2616  6.2215
  667MOL0     H90008  10.549   3.717   2.169  1.5339  2.2478  1.1735
  667MOL0     H90009  10.726   3.778   2.303  2.5454 -1.8157 -2.1382
  667MOL0     H90010  10.740   3.855   2.143  1.9284 -3.3485  1.1012
  667MOL0     H90011  10.837   3.998   2.396  2.3268 -0.2013  0.2620
  667MOL0     H90012  10.934   3.881   2.326  0.9683  1.2221  1.5031
  667MOL0     H90013  10.809   4.055   2.126 -1.8648 -1.4937  3.1819
  667MOL0     H90014  10.929   4.143   2.242  0.1329 -0.6843  2.6278
  667MOL0     H90015  10.994   3.890   2.106 -2.9790 -0.1734  3.6493
  667MOL0     H90016  11.100   4.035   2.170 -0.1924  1.8477 -1.8197
  667MOL0     H90017  11.031   4.166   1.968 -0.9896  0.5402 -0.1056
  667MOL0     H90018  10.924   4.036   1.930  0.8911 -1.9245  1.0631
  667MOL0     H90019  11.228   4.013   1.953  0.0124  1.8141  0.0757
  667MOL0     H90020  11.124   3.884   1.897  0.6136  0.3919 -0.6972
  667MOL0     H90021  11.188   4.146   1.751 -0.6147 -0.7923  0.2131
  667MOL0     H90022  11.062   4.034   1.700  0.4104 -1.0565 -0.4246
  667MOL0     H90023  11.224   3.862   1.656  0.0487  1.1202 -2.3254
  667MOL0     H90024  11.268   4.006   1.569 -0.6647 -0.6492 -0.7585
  667MOL0     H90025  10.399   4.022   2.409  0.7733 -0.3757  0.8020
  667MOL0     H90026  10.175   3.921   2.415 -1.1997 -2.1693  0.8002
  667MOL0     H90027   9.817   3.656   2.557  0.9277 -0.2715  0.0087
  667MOL0     H90028   9.599   3.535   2.528 -1.2059 -4.4271 -1.3738
  667MOL0     H90029   7.923   2.779   2.381  1.5062  4.5358  3.0439
  667MOL0     H90030   7.782   2.676   2.551  1.4155 -0.3333 -1.6545
  667MOL0     H90031   7.594   2.674   2.875  0.0548 -1.9075 -0.7518
  667MOL0     H90032   7.522   2.610   3.077  1.4550  2.0420 -0.3939
  667MOL0     H90033   7.086   2.568   3.112  1.2245  0.4083 -0.5929
  667MOL0     H90034   7.111   2.694   3.230  1.6416  0.9550 -0.0268
  667MOL0     H90035   7.128   2.401   3.276  2.2652  1.1455  1.2792
  667MOL0     H90036   6.993   2.497   3.323  0.2190 -2.6618 -0.1669
  667MOL0     H90037   7.185   2.638   3.445 -0.0086  0.8649  1.0027
  667MOL0     H90038   7.278   2.490   3.418 -0.5971 -0.6172  1.2448
  667MOL0     H90039   7.196   2.481   3.630  1.4293 -1.7772 -1.9393
  667MOL0     H90040   7.022   2.501   3.592 -0.1518 -0.3585 -1.6947
  667MOL0     H90041   7.063   2.096   3.533  0.8337 -0.2296 -2.8583
  667MOL0     H90042   7.117   2.732   2.993 -0.5364 -0.7175  0.2850
  667MOL0     H90043   7.123   2.777   2.688  2.2250 -0.5308 -0.8179
  667MOL0     H90044   7.070   2.868   2.831  0.0705 -0.3960  1.1037
  667MOL0     H90045   7.195   2.932   2.740  2.4450 -0.5969  0.0355
  668MOL0     O90046  10.242   1.048   6.099  0.4371  0.9796  0.1349
  668MOL0     C90047  10.243   0.926   6.066  0.0449 -0.2532 -1.1201
  668MOL0     O90048  10.131   0.848   6.057 -0.2341 -0.7815 -0.1771
  668MOL0     C90049  10.012   0.875   6.128 -0.1049  1.0126  0.5368
  668MOL0     C90050   9.885   0.850   6.071 -0.1067 -0.2254 -0.0649
  668MOL0     C90051   9.772   0.867   6.144  0.6240 -0.4190 -0.7769
  668MOL0     C90052   9.769   0.919   6.279 -0.4957  0.8574 -0.6583
  668MOL0     O90053   9.653   0.931   6.358  0.0723  0.0370  0.6834
  668MOL0     C90054   9.608   1.070   6.374 -0.6429  0.4152  0.4590
  668MOL0     C90055   9.460   1.085   6.393  0.5016  0.3836  0.7750
  668MOL0     C90056   9.391   1.066   6.254 -0.3131 -0.2827  0.0243
  668MOL0     C90057   9.383   1.208   6.198  0.1222 -0.1882 -0.1516
  668MOL0     C90058   9.311   1.203   6.067 -0.1171 -0.0644  0.3003
  668MOL0     C90059   9.258   1.339   6.005 -0.8457 -0.6145  0.0463
  668MOL0     C90060   9.375   1.443   6.016  0.3060  0.4891 -0.2481
  668MOL0     C90061   9.500   1.405   5.928 -0.4076  0.6079  0.0002
  668MOL0     N90062   9.564   1.522   5.880  0.7493 -1.0095  0.0939
  668MOL0     C90063   9.635   1.607   5.955 -0.8552 -0.2369  0.0568
  668MOL0     C90064   9.648   1.713   5.873 -0.3075 -0.8716 -0.2452
  668MOL0     C90065   9.710   1.853   5.905 -0.4059  0.0957  0.3067
  668MOL0     C90066   9.863   1.833   5.899  0.4212  0.3553  0.5724
  668MOL0     C90067   9.935   1.936   5.993 -0.2291 -0.0598 -0.9877
  668MOL0     C90068  10.085   1.898   5.999 -0.7052 -0.9593 -1.0881
  668MOL0     O90069  10.151   2.003   6.078  0.1403  0.5938 -0.2513
  668MOL0     C90070  10.289   2.008   6.086  0.1328 -0.9936  0.5217
  668MOL0     C90071  10.377   1.931   6.005 -0.1633  0.3615 -0.5071
  668MOL0     C90072  10.516   1.938   6.024 -0.7267  0.1638  0.6634
  668MOL0     C90073  10.577   2.026   6.116 -0.0320  0.1572 -0.2976
  668MOL0     C90074  10.725   2.022   6.127  0.1762 -0.6415  1.0370
  668MOL0     O90075  10.786   2.104   6.220  0.0809 -0.3048  0.3778
  668MOL0     C90076  10.923   2.114   6.241  0.3316  0.0376  0.4619
  668MOL0     C90077  10.978   2.063   6.359  0.1926 -0.1703  0.0153
  668MOL0     C90078  11.114   2.080   6.386  0.1617 -0.3390  0.1157
  668MOL0     C90079  11.199   2.154   6.298  0.2936 -0.3927  0.5918
  668MOL0     O90080  11.334   2.172   6.308  0.3005 -0.1988 -0.4430
  668MOL0     C90081  11.395   2.119   6.427 -0.2450 -0.2870  0.2908
  668MOL0     C90082  11.541   2.148   6.423 -1.2801  0.1354  0.6028
  668MOL0     C90083  11.574   2.295   6.461  0.6776 -0.8327  0.4581
  668MOL0     C90084  11.550   2.337   6.601 -0.2839  0.5313 -0.8145
  668MOL0     C90085  11.594   2.483   6.622 -0.0755  0.6316 -0.5780
  668MOL0     C90086  11.577   2.518   6.770 -0.9744 -0.2379 -0.1042
  668MOL0     C90087  11.445   2.587   6.804  0.0950 -0.2592 -0.6286
  668MOL0     C90088  11.417   2.608   6.950  0.3092  0.6734  0.0990
  668MOL0    Cl90089  11.525   2.737   7.031  0.0247  0.7273  0.1514
  668MOL0     C90090  11.142   2.202   6.182  0.3580 -0.0999  0.8806
  668MOL0     C90091  10.999   2.186   6.152 -0.7151  0.2416  0.2896
  668MOL0     O90092  10.784   1.942   6.057 -0.1572 -0.1213 -0.2173
  668MOL0     C90093  10.491   2.113   6.184 -1.0704  0.3455  0.7557
  668MOL0     C90094  10.352   2.106   6.164  0.7780  1.0776  0.3018
  668MOL0     N90095   9.586   1.682   5.754  0.7667  0.4776 -0.1162
  668MOL0     N90096   9.537   1.562   5.759 -1.0075  0.0117  1.0097
  668MOL0     C90097   9.899   0.940   6.339  0.2502  0.5426 -0.0351
  668MOL0     C90098  10.014   0.916   6.265 -0.2847  0.1579  1.0763
  668MOL0     C90099  10.370   0.854   6.035 -0.3862  0.8005  0.5467
  668MOL0     C90100  10.365   0.721   5.976 -0.0853 -0.6076  0.6070
  668MOL0     C90101  10.476   0.652   5.931  0.0093 -0.3902 -0.3524
  668MOL0     C90102  10.600   0.708   5.950  0.1197  0.4200 -0.2131
  668MOL0     O90103  10.706   0.635   5.903  0.0241 -0.4478  0.0627
  668MOL0     C90104  10.838   0.667   5.946 -0.5380 -0.3473 -0.3947
  668MOL0     C90105  10.903   0.751   5.840 -1.0554  0.1965  0.4700
  668MOL0     C90106  10.946   0.670   5.717  0.6817 -0.4760  0.3591
  668MOL0     C90107  11.017   0.753   5.608 -0.1211 -0.0313  0.0324
  668MOL0     C90108  11.153   0.765   5.660 -0.2393 -0.4230 -1.0179
  668MOL0     C90109  11.261   0.788   5.720 -0.5472  0.5020 -0.0440
  668MOL0     C90110  10.613   0.832   6.002 -0.1600  0.3074 -0.4999
  668MOL0     C90111  10.501   0.897   6.053 -0.2667 -1.2173 -0.0212
  668MOL0     C90112  10.537   1.030   6.119 -0.0564 -0.1355 -0.2472
  668MOL0     H90113   9.893   0.806   5.972  2.0901 -0.1680  0.0427
  668MOL0     H90114   9.678   0.873   6.089  0.4639 -1.8488 -0.6766
  668MOL0     H90115   9.658   1.113   6.461 -2.2820 -0.5751  1.9472
  668MOL0     H90116   9.650   1.129   6.292  1.0621 -0.1890  0.8674
  668MOL0     H90117   9.427   1.170   6.455 -0.2936  1.3296 -0.8516
  668MOL0     H90118   9.423   0.997   6.447 -2.5365  2.1116  1.7860
  668MOL0     H90119   9.287   1.034   6.261 -0.5305  0.0720 -1.3946
  668MOL0     H90120   9.447   0.994   6.194 -3.4580 -1.8164 -1.2657
  668MOL0     H90121   9.328   1.266   6.273  1.2304 -0.6542  1.0605
  668MOL0     H90122   9.479   1.259   6.181 -1.0374  1.8135 -1.0437
  668MOL0     H90123   9.378   1.148   6.002  0.1524 -0.5063  0.9388
  668MOL0     H90124   9.215   1.150   6.064  0.7456 -1.6195 -1.8851
  668MOL0     H90125   9.220   1.328   5.903 -2.1110  3.0024 -0.0164
  668MOL0     H90126   9.174   1.370   6.068 -1.7926 -0.4316 -1.2775
  668MOL0     H90127   9.415   1.464   6.115 -0.6901 -2.2507  0.8371
  668MOL0     H90128   9.338   1.535   5.970  2.6713  1.2800 -0.7526
  668MOL0     H90129   9.564   1.351   5.998 -1.8068  0.0706  0.9119
  668MOL0     H90130   9.480   1.340   5.842 -0.3683  0.6551 -0.0451
  668MOL0     H90131   9.660   1.570   6.053 -0.3582  0.3188  0.1422
  668MOL0     H90132   9.684   1.933   5.835 -1.5400  1.3643  2.1046
  668MOL0     H90133   9.674   1.874   6.006 -1.7858 -2.5603  0.4577
  668MOL0     H90134   9.894   1.732   5.929 -1.0749 -0.3381 -0.1131
  668MOL0     H90135   9.890   1.850   5.795  0.5086  1.4667  0.7602
  668MOL0     H90136   9.901   1.923   6.097  1.8694 -1.5162 -0.3979
  668MOL0     H90137   9.925   2.042   5.969 -1.1123  1.0313  3.3158
  668MOL0     H90138  10.130   1.881   5.901  0.8010 -2.9250 -0.1151
  668MOL0     H90139  10.096   1.799   6.044  1.6051 -1.0282 -1.6830
  668MOL0     H90140  10.326   1.865   5.935 -1.6204 -0.1665  0.9742
  668MOL0     H90141  10.572   1.867   5.963 -2.9223  0.3470 -1.6777
  668MOL0     H90142  10.897   2.031   6.424 -1.4732 -0.2104 -1.9807
  668MOL0     H90143  11.160   2.027   6.469  0.6905 -4.6820 -2.6041
  668MOL0     H90144  11.358   2.152   6.525 -1.9567  0.5587 -0.5889
  668MOL0     H90145  11.387   2.010   6.428 -0.0517 -0.2976  0.7357
  668MOL0     H90146  11.596   2.082   6.490 -1.5763  0.5760  1.2923
  668MOL0     H90147  11.573   2.126   6.321  0.6143 -2.7542  1.6935
  668MOL0     H90148  11.681   2.306   6.444  0.9311 -3.6463 -0.2657
  668MOL0     H90149  11.515   2.365   6.400  1.0090 -1.1581 -0.2458
  668MOL0     H90150  11.607   2.275   6.671 -0.5450 -1.1134 -1.9959
  668MOL0     H90151  11.446   2.335   6.636  0.2932 -1.3586  1.0150
  668MOL0     H90152  11.531   2.551   6.566  0.7576  0.0642 -2.2746
  668MOL0     H90153  11.698   2.502   6.593  1.3320 -1.9938  2.1606
  668MOL0     H90154  11.583   2.431   6.836 -1.3607 -0.9119 -0.9360
  668MOL0     H90155  11.655   2.592   6.792 -2.9583  2.5976 -1.8398
  668MOL0     H90156  11.360   2.536   6.757 -2.2554  2.1325  0.7669
  668MOL0     H90157  11.444   2.689   6.766  0.7578  1.0754  2.6640
  668MOL0     H90158  11.311   2.637   6.954  0.6463  2.2131 -1.2370
  668MOL0     H90159  11.415   2.515   7.008  1.2322  1.1637  0.9407
  668MOL0     H90160  11.200   2.262   6.113  2.0513  0.3059  2.5937
  668MOL0     H90161  10.958   2.225   6.060 -0.2903  2.3900  0.9428
  668MOL0     H90162  10.530   2.188   6.252  1.6748  0.0084 -0.3212
  668MOL0     H90163  10.287   2.170   6.222  0.0954  1.6350 -1.0487
  668MOL0     H90164   9.922   0.962   6.442  0.0036 -2.0437  0.6535
  668MOL0     H90165  10.111   0.914   6.313  0.6470 -0.4209 -0.7115
  668MOL0     H90166  10.265   0.685   5.954 -0.5604  0.5577  0.8014
  668MOL0     H90167  10.478   0.557   5.879 -1.7878 -0.2692 -0.6892
  668MOL0     H90168  10.907   0.582   5.951  0.8768  0.5564 -2.7710
  668MOL0     H90169  10.832   0.724   6.040 -1.2234  2.0522 -1.8104
  668MOL0     H90170  10.991   0.800   5.882 -0.0526 -0.1862 -1.0959
  668MOL0     H90171  10.833   0.824   5.798  0.6579  3.2156  2.4524
  668MOL0     H90172  10.855   0.635   5.668  0.0603  0.8594  0.4968
  668MOL0     H90173  11.005   0.580   5.736 -0.0694 -0.8133  1.1577
  668MOL0     H90174  11.023   0.712   5.507  0.7111  0.3397 -0.0726
  668MOL0     H90175  10.972   0.853   5.599 -2.0416 -0.6551  1.7420
  668MOL0     H90176  11.350   0.819   5.772 -2.4789  3.4952  1.8128
  668MOL0     H90177  10.713   0.873   6.008 -0.2132  0.2199  2.4077
  668MOL0     H90178  10.639   1.035   6.158  0.0837  1.0176 -0.7441
  668MOL0     H90179  10.508   1.116   6.058  1.1695  0.6476  0.2267
  668MOL0     H90180  10.477   1.031   6.211  0.5348 -1.4485  0.1876
  669MOL0     O90181   1.098   6.014   4.933  0.5735 -0.0819 -0.2390
  669MOL0     C90182   1.083   5.983   4.815  0.2384  1.1284  1.0640
  669MOL0     O90183   1.183   5.977   4.716  0.2237 -0.1652 -0.4864
  669MOL0     C90184   1.304   6.034   4.754  0.8304 -0.1102 -0.2769
  669MOL0     C90185   1.339   6.156   4.709 -0.6674 -0.5331  0.5735
  669MOL0     C90186   1.458   6.226   4.735 -0.3799 -0.5111 -0.1315
  669MOL0     C90187   1.551   6.161   4.815 -0.1053 -0.1969  0.5896
  669MOL0     O90188   1.678   6.218   4.820  0.1272  0.8019 -0.7143
  669MOL0     C90189   1.795   6.125   4.832  0.5944  0.0775 -0.2030
  669MOL0     C90190   1.805   6.054   4.696 -1.0074  0.4352 -0.5424
  669MOL0     C90191   1.904   5.939   4.716 -0.4588 -0.2289  0.1875
  669MOL0     C90192   2.035   5.968   4.643 -0.9434  0.2513 -0.3498
  669MOL0     C90193   2.140   5.864   4.661 -0.0650 -0.1370  0.2548
  669MOL0     C90194   2.258   5.894   4.571 -0.1820  0.7410  0.5402
  669MOL0     C90195   2.372   5.804   4.608  0.4519 -0.0384  0.0359
  669MOL0     C90196   2.503   5.845   4.534 -0.0419  0.6994  0.4604
  669MOL0     N90197   2.534   5.755   4.422 -0.5114  0.4934  0.2632
  669MOL0     C90198   2.659   5.739   4.361  0.1526  0.6163  0.1704
  669MOL0     C90199   2.639   5.675   4.247 -0.0378  0.4330  0.7597
  669MOL0     C90200   2.739   5.645   4.132  0.3515 -0.7527  0.0368
  669MOL0     C90201   2.872   5.582   4.193 -0.2573 -0.6089  0.7334
  669MOL0     C90202   2.974   5.565   4.074  0.8686 -0.1390 -0.3963
  669MOL0     C90203   3.088   5.474   4.096  0.3791  0.0561 -0.6376
  669MOL0     O90204   3.198   5.490   4.014 -0.2385 -0.0729 -0.5359
  669MOL0     C90205   3.309   5.407   4.044  0.7228 -0.2129 -0.3572
  669MOL0     C90206   3.412   5.417   3.952 -0.2963  0.3679  0.2407
  669MOL0     C90207   3.531   5.343   3.966  0.3297  0.4101  0.7010
  669MOL0     C90208   3.551   5.270   4.078 -0.8779 -0.4649  0.6128
  669MOL0     C90209   3.691   5.216   4.094  0.2143  0.1158  0.1594
  669MOL0     O90210   3.770   5.189   3.982 -0.0499 -0.5258 -0.1112
  669MOL0     C90211   3.896   5.139   4.002 -0.0325 -0.0339 -0.8071
  669MOL0     C90212   3.918   5.008   4.038 -0.2280  0.7306  0.1264
  669MOL0     C90213   4.052   4.962   4.043 -0.6050  1.0419 -1.0756
  669MOL0     C90214   4.164   5.046   4.041 -0.0252 -0.0279  0.0329
  669MOL0     O90215   4.299   5.005   4.054 -0.1924  0.0255  0.7773
  669MOL0     C90216   4.321   4.894   4.140 -0.4187 -0.0754 -0.2362
  669MOL0     C90217   4.470   4.873   4.150  0.4876  0.2866 -0.4376
  669MOL0     C90218   4.550   4.862   4.021  1.0206  0.3944 -0.1275
  669MOL0     C90219   4.631   4.987   4.006  0.5428 -0.1831  0.0001
  669MOL0     C90220   4.711   4.976   3.880 -0.9961  0.0094  0.3361
  669MOL0     C90221   4.839   4.890   3.892  0.6733 -0.0656 -0.3167
  669MOL0     C90222   4.829   4.760   3.801 -0.3212  0.2922 -0.2943
  669MOL0     C90223   4.839   4.803   3.653  1.1544 -0.0443 -0.1238
  669MOL0    Cl90224   5.002   4.859   3.625 -0.3013  0.0802  0.1089
  669MOL0     C90225   4.137   5.177   4.001 -0.7316 -0.4922  0.5794
  669MOL0     C90226   4.011   5.225   3.982  0.1727 -0.0672  0.5991
  669MOL0     O90227   3.715   5.182   4.211 -0.4477  0.2996  0.1471
  669MOL0     C90228   3.447   5.262   4.170  0.5974  0.4125 -1.3855
  669MOL0     C90229   3.325   5.317   4.151  0.0922 -0.8680 -1.0247
  669MOL0     N90230   2.501   5.647   4.234 -0.3332  0.3754 -0.0949
  669MOL0     N90231   2.451   5.685   4.345  0.3723  0.8740 -0.5536
  669MOL0     C90232   1.522   6.032   4.870 -0.1259 -0.0870  0.4083
  669MOL0     C90233   1.403   5.968   4.832 -0.1304 -0.5392  1.1194
  669MOL0     C90234   0.941   5.942   4.785  0.4777 -0.0881  1.3590
  669MOL0     C90235   0.851   5.884   4.879 -0.8389 -0.0476  0.0893
  669MOL0     C90236   0.720   5.835   4.847 -0.4486 -0.9446  0.3243
  669MOL0     C90237   0.680   5.855   4.722  0.6601  0.5054  0.0596
  669MOL0     O90238   0.556   5.816   4.671  0.8543  0.4700 -0.0049
  669MOL0     C90239   0.487   5.710   4.724 -0.2469  0.1449  0.0099
  669MOL0     C90240   0.374   5.671   4.636 -0.3518  0.2759  1.2595
  669MOL0     C90241   0.283   5.573   4.702  0.5743  1.0558 -0.1474
  669MOL0     C90242   0.357   5.439   4.729 -0.6007 -0.0186 -0.3899
  669MOL0     C90243   0.275   5.331   4.783 -1.1955 -0.5213  0.0998
  669MOL0     C90244   0.227   5.237   4.839 -0.3041 -0.0535  0.3410
  669MOL0     C90245   0.746   5.933   4.637 -0.0819 -0.4779  0.5841
  669MOL0     C90246   0.878   5.972   4.660  0.3351 -0.6439  0.5747
  669MOL0     C90247   0.959   6.040   4.555 -0.0088  0.2900 -0.6538
  669MOL0     H90248   1.281   6.200   4.628  2.1411  2.2580 -0.1419
  669MOL0     H90249   1.472   6.326   4.697 -2.0106  0.7401  2.3160
  669MOL0     H90250   1.877   6.194   4.854 -0.5688  1.0412  1.3092
  669MOL0     H90251   1.782   6.060   4.918 -1.1610  2.0203  1.0739
  669MOL0     H90252   1.830   6.115   4.609 -2.4948 -0.3442 -1.5652
  669MOL0     H90253   1.714   6.003   4.662 -0.2298 -2.3575  1.2464
  669MOL0     H90254   1.857   5.850   4.675 -1.9316 -0.1156  1.5319
  669MOL0     H90255   1.933   5.940   4.822  1.7162 -2.9485 -0.2889
  669MOL0     H90256   2.014   5.963   4.536 -1.8943 -3.3967 -0.1559
  669MOL0     H90257   2.085   6.059   4.676  0.9709 -1.5664  2.1429
  669MOL0     H90258   2.172   5.859   4.765  1.9414 -1.8462 -0.3716
  669MOL0     H90259   2.098   5.768   4.627 -0.3699 -0.1339  0.6198
  669MOL0     H90260   2.221   5.870   4.471 -2.1169 -0.8043  1.5295
  669MOL0     H90261   2.290   5.997   4.587  0.8946  0.3777  0.8199
  669MOL0     H90262   2.344   5.701   4.584 -0.2676 -0.0535  0.8601
  669MOL0     H90263   2.385   5.810   4.717  1.4190  3.5571 -0.1348
  669MOL0     H90264   2.491   5.949   4.501  1.4476  0.7468  0.0081
  669MOL0     H90265   2.583   5.827   4.607 -2.1926 -1.6448  2.4487
  669MOL0     H90266   2.750   5.782   4.403 -1.2125  1.2905  2.6890
  669MOL0     H90267   2.700   5.587   4.048 -1.7430  0.0100  0.4091
  669MOL0     H90268   2.763   5.744   4.092 -1.3713 -0.0287  0.6822
  669MOL0     H90269   2.919   5.634   4.277 -1.5791 -0.6138  1.5095
  669MOL0     H90270   2.859   5.479   4.228  0.3546 -0.5660  1.0952
  669MOL0     H90271   3.005   5.669   4.060 -2.4877  0.9764 -0.4167
  669MOL0     H90272   2.922   5.530   3.985  2.8063  1.5830 -2.3211
  669MOL0     H90273   3.057   5.369   4.094 -3.7750  1.0184  1.8157
  669MOL0     H90274   3.121   5.489   4.200  0.8767 -3.6416 -0.1161
  669MOL0     H90275   3.415   5.495   3.877  1.1830 -1.7843 -2.1018
  669MOL0     H90276   3.609   5.360   3.892 -1.0073  2.0688 -0.3899
  669MOL0     H90277   3.836   4.944   4.070  0.0462  0.5035  0.3856
  669MOL0     H90278   4.065   4.856   4.060 -0.6061  1.3447  1.1681
  669MOL0     H90279   4.286   4.924   4.239  1.8234  0.7052  0.3762
  669MOL0     H90280   4.280   4.798   4.109 -1.1052 -0.0648  0.5908
  669MOL0     H90281   4.509   4.956   4.211  1.8568 -1.2758  0.9063
  669MOL0     H90282   4.470   4.777   4.202 -0.4428  0.3178 -0.3797
  669MOL0     H90283   4.618   4.777   4.027  1.9673  1.0881 -0.8949
  669MOL0     H90284   4.483   4.836   3.938  1.2915  1.5231 -0.7199
  669MOL0     H90285   4.691   5.000   4.096 -0.0081 -0.4759  0.4200
  669MOL0     H90286   4.568   5.076   4.005 -2.6608 -2.1921 -2.9288
  669MOL0     H90287   4.747   5.079   3.873  3.4115 -1.2002  2.1590
  669MOL0     H90288   4.645   4.963   3.794 -0.8147  2.2634 -0.2065
  669MOL0     H90289   4.925   4.950   3.862 -0.6122  1.8862 -0.2827
  669MOL0     H90290   4.859   4.860   3.995 -1.6123 -1.5705 -0.2460
  669MOL0     H90291   4.744   4.694   3.815 -1.5103  1.0244 -3.3745
  669MOL0     H90292   4.915   4.702   3.835 -0.9666 -1.0663 -0.9240
  669MOL0     H90293   4.813   4.715   3.593 -0.6167  0.3426  0.0257
  669MOL0     H90294   4.771   4.885   3.629 -0.1109 -1.6928 -2.6488
  669MOL0     H90295   4.228   5.232   3.981 -0.7967 -0.2977  0.8249
  669MOL0     H90296   3.991   5.324   3.942  0.2709  0.5663  2.0376
  669MOL0     H90297   3.454   5.208   4.264  0.5191  1.0486 -1.0069
  669MOL0     H90298   3.245   5.311   4.223  0.7281  1.3860 -0.0551
  669MOL0     H90299   1.590   5.984   4.939  0.5187 -0.6676 -0.6090
  669MOL0     H90300   1.390   5.864   4.861  2.1893 -1.9438 -2.2427
  669MOL0     H90301   0.899   5.873   4.976  0.4616  3.2509 -0.0598
  669MOL0     H90302   0.674   5.767   4.918  0.1772 -1.3921  0.3085
  669MOL0     H90303   0.432   5.748   4.811 -0.0807 -2.3139  1.2758
  669MOL0     H90304   0.554   5.631   4.758 -0.5179 -0.3436 -0.5821
  669MOL0     H90305   0.403   5.629   4.539 -3.3001  0.1052  0.3367
  669MOL0     H90306   0.316   5.762   4.620  2.3015  1.8108 -0.1440
  669MOL0     H90307   0.201   5.543   4.637  1.6251 -2.1315 -0.1649
  669MOL0     H90308   0.236   5.615   4.791 -1.9407 -0.4229 -0.6885
  669MOL0     H90309   0.391   5.392   4.637 -0.4533 -0.5252 -0.0818
  669MOL0     H90310   0.450   5.453   4.785  0.0101 -1.7310 -0.9014
  669MOL0     H90311   0.174   5.172   4.906  0.4760  3.1625  4.5306
  669MOL0     H90312   0.699   5.956   4.542 -1.2166 -2.0541  0.7292
  669MOL0     H90313   0.895   6.078   4.474 -0.8403  1.8687  0.6750
  669MOL0     H90314   1.000   6.133   4.597 -2.8376  0.3237  2.4309
  669MOL0     H90315   1.043   5.981   4.517 -0.1789 -1.5932  1.7371
  670MOL0     O90316   0.320   8.586   7.441  0.2540  0.5943  0.2023
  670MOL0     C90317   0.344   8.602   7.558 -0.7741 -0.5042  0.2014
  670MOL0     O90318   0.472   8.584   7.615  0.2124  0.2246  0.2486
  670MOL0     C90319   0.585   8.545   7.543 -0.4543 -1.0400 -0.1239
  670MOL0     C90320   0.679   8.478   7.622 -0.4121  0.3691  0.3105
  670MOL0     C90321   0.799   8.433   7.565 -0.6468 -0.1043  0.0725
  670MOL0     C90322   0.830   8.466   7.433  0.3284  0.4771  0.1589
  670MOL0     O90323   0.950   8.433   7.379 -0.5258  0.1736 -0.5283
  670MOL0     C90324   1.019   8.549   7.336 -0.3779 -0.5251 -0.4679
  670MOL0     C90325   1.163   8.517   7.285  0.7468  0.5964 -0.5835
  670MOL0     C90326   1.241   8.426   7.382 -0.3505 -0.7860  0.2021
  670MOL0     C90327   1.383   8.410   7.324 -0.2624  0.2035  0.4906
  670MOL0     C90328   1.493   8.355   7.421  1.1119  0.4532 -0.4295
  670MOL0     C90329   1.630   8.362   7.366 -0.8756 -0.2180 -0.1071
  670MOL0     C90330   1.738   8.284   7.459  0.8072  0.1213 -0.3430
  670MOL0     C90331   1.875   8.303   7.399  0.9782 -0.4645 -0.7761
  670MOL0     N90332   1.895   8.218   7.278 -0.1792  0.4935 -0.2477
  670MOL0     C90333   1.850   8.232   7.147  0.3244  0.3263 -0.2702
  670MOL0     C90334   1.901   8.120   7.081  0.1120  0.1655 -0.1742
  670MOL0     C90335   1.884   8.081   6.935 -0.1505  0.3847 -0.4822
  670MOL0     C90336   2.001   8.109   6.838 -0.0091 -1.1253 -0.6315
  670MOL0     C90337   2.141   8.041   6.871 -0.1068  0.6771 -0.6733
  670MOL0     C90338   2.255   8.119   6.805 -0.2318  0.5461  0.3331
  670MOL0     O90339   2.268   8.256   6.851  0.6694  0.3181  0.1753
  670MOL0     C90340   2.349   8.335   6.764  0.5629 -0.3759 -0.1731
  670MOL0     C90341   2.414   8.305   6.645  0.0609  0.6369 -0.3974
  670MOL0     C90342   2.492   8.394   6.574 -0.6931 -0.0835  0.5126
  670MOL0     C90343   2.499   8.527   6.617 -0.5243 -0.4315 -0.0989
  670MOL0     C90344   2.586   8.625   6.549  0.1974 -0.0316  0.7385
  670MOL0     O90345   2.607   8.743   6.621  0.7993 -0.4981 -0.4125
  670MOL0     C90346   2.674   8.852   6.571  0.4815  0.2761  0.3695
  670MOL0     C90347   2.752   8.935   6.649 -0.1918  0.6231 -0.6889
  670MOL0     C90348   2.820   9.046   6.604 -0.0779  0.1156 -0.0285
  670MOL0     C90349   2.791   9.085   6.477  0.4053  0.2294  0.8410
  670MOL0     O90350   2.856   9.193   6.414 -0.4358  0.2079 -0.3597
  670MOL0     C90351   2.856   9.300   6.509 -0.0933 -0.0981 -0.1308
  670MOL0     C90352   2.901   9.432   6.443 -0.1534  0.2990 -0.5611
  670MOL0     C90353   2.814   9.479   6.325  0.4474  0.5537 -0.4984
  670MOL0     C90354   2.874   9.427   6.199  0.4532  0.7668  0.2244
  670MOL0     C90355   2.819   9.488   6.077 -0.0038  0.4071  0.0743
  670MOL0     C90356   2.673   9.427   6.036  0.5126 -0.2154  0.4076
  670MOL0     C90357   2.601   9.530   5.958  0.8554 -0.3433 -0.3434
  670MOL0     C90358   2.471   9.467   5.906 -0.9647  1.0093 -0.9023
  670MOL0    Cl90359   2.377   9.592   5.837 -0.2945  0.1392  0.5868
  670MOL0     C90360   2.729   8.998   6.389  0.3910  0.8705  0.1722
  670MOL0     C90361   2.662   8.886   6.438  0.8863 -0.5510  0.3675
  670MOL0     O90362   2.629   8.590   6.435 -0.6000  0.0501 -0.3720
  670MOL0     C90363   2.424   8.561   6.735  0.5615 -0.7492  1.0045
  670MOL0     C90364   2.350   8.467   6.803 -0.1006 -0.0603 -1.8210
  670MOL0     N90365   1.962   8.039   7.173  0.3330  0.1099 -0.7404
  670MOL0     N90366   1.961   8.100   7.294 -0.7053 -0.5819  0.0371
  670MOL0     C90367   0.734   8.519   7.350  0.4092  0.7946  0.0902
  670MOL0     C90368   0.606   8.555   7.405  0.5013  0.6766  0.9144
  670MOL0     C90369   0.231   8.625   7.641 -0.0690  0.2623  0.5032
  670MOL0     C90370   0.255   8.627   7.781 -0.0940  0.1295 -0.1890
  670MOL0     C90371   0.166   8.655   7.874 -0.3504 -0.0904 -0.3424
  670MOL0     C90372   0.035   8.690   7.836  0.1664  0.1345 -0.4654
  670MOL0     O90373  -0.066   8.728   7.930  0.5309 -0.3265  0.7820
  670MOL0     C90374  -0.167   8.636   7.971 -0.0818 -0.2493  0.0234
  670MOL0     C90375  -0.241   8.698   8.094  0.5182  0.6273  0.2993
  670MOL0     C90376  -0.158   8.692   8.226 -0.4685 -0.0971  0.6960
  670MOL0     C90377  -0.258   8.733   8.338 -0.9530 -0.4416 -1.0018
  670MOL0     C90378  -0.187   8.748   8.473  0.2619 -0.0376  0.4550
  670MOL0     C90379  -0.129   8.785   8.577 -0.0106  0.2548 -0.0848
  670MOL0     C90380   0.005   8.700   7.705  0.5113 -0.3447 -0.9869
  670MOL0     C90381   0.097   8.659   7.603  0.6205 -0.5378  0.2962
  670MOL0     C90382   0.042   8.645   7.456 -0.1506 -0.3069 -0.2605
  670MOL0     H90383   0.654   8.449   7.723  0.5657 -3.3756 -0.3832
  670MOL0     H90384   0.863   8.369   7.625  1.0017  1.5222  0.0965
  670MOL0     H90385   0.973   8.600   7.251 -1.5420  2.8619  1.9819
  670MOL0     H90386   1.019   8.630   7.409 -2.4494 -0.8781 -0.0345
  670MOL0     H90387   1.218   8.611   7.293 -0.7122  1.4705 -0.4760
  670MOL0     H90388   1.168   8.474   7.185  0.8780 -1.5130  0.2685
  670MOL0     H90389   1.199   8.325   7.393  1.3884 -1.2818  3.3012
  670MOL0     H90390   1.254   8.481   7.475  1.3484 -0.1533 -0.3612
  670MOL0     H90391   1.372   8.355   7.230  2.0519 -0.1324  0.3515
  670MOL0     H90392   1.417   8.505   7.281  2.2356 -1.8086 -2.3970
  670MOL0     H90393   1.487   8.413   7.513  0.1140  0.4948 -0.5106
  670MOL0     H90394   1.473   8.251   7.449 -0.2422  0.1516 -2.2792
  670MOL0     H90395   1.623   8.318   7.266 -2.8711  1.9372 -0.9896
  670MOL0     H90396   1.667   8.465   7.359  3.1483 -1.3741  1.3993
  670MOL0     H90397   1.705   8.180   7.461 -0.4456  0.4451 -1.9693
  670MOL0     H90398   1.731   8.323   7.560 -0.2476  0.5484 -0.5693
  670MOL0     H90399   1.903   8.407   7.377  0.0541  0.1022  0.5713
  670MOL0     H90400   1.948   8.269   7.473  0.7510  0.3223 -0.1709
  670MOL0     H90401   1.784   8.305   7.100 -1.1300 -0.5936  0.2487
  670MOL0     H90402   1.875   7.972   6.927 -1.7428  0.4905 -0.4885
  670MOL0     H90403   1.788   8.113   6.895  0.0258  2.5953  0.7116
  670MOL0     H90404   1.973   8.078   6.737 -1.1316  0.6037 -0.9034
  670MOL0     H90405   2.008   8.219   6.839  0.3291 -1.1466  0.7294
  670MOL0     H90406   2.154   7.941   6.829  0.0124 -0.8436  2.6523
  670MOL0     H90407   2.144   8.035   6.981 -1.9461 -1.1986 -0.6589
  670MOL0     H90408   2.243   8.113   6.697  1.3273  2.6927 -0.0312
  670MOL0     H90409   2.348   8.062   6.820 -0.1763  0.1719 -1.2240
  670MOL0     H90410   2.400   8.207   6.600  0.2905  0.6498 -0.5006
  670MOL0     H90411   2.549   8.358   6.488 -0.3797  2.0639 -0.2335
  670MOL0     H90412   2.758   8.915   6.756  1.1803  2.2441 -0.4180
  670MOL0     H90413   2.902   9.098   6.652 -0.1284  0.3658 -0.2095
  670MOL0     H90414   2.754   9.308   6.548 -0.6464 -3.2816 -0.6155
  670MOL0     H90415   2.930   9.286   6.589  0.0929  2.0825  0.1343
  670MOL0     H90416   2.894   9.501   6.527 -0.3470 -1.8728  1.3052
  670MOL0     H90417   3.007   9.415   6.421  0.2527  1.5173  0.4060
  670MOL0     H90418   2.713   9.438   6.341  1.6891 -3.7428 -2.3086
  670MOL0     H90419   2.813   9.589   6.329  1.2802  0.5336  1.1645
  670MOL0     H90420   2.872   9.317   6.201 -5.1341  0.5842 -0.1065
  670MOL0     H90421   2.980   9.454   6.202  1.2663 -2.1091  2.5746
  670MOL0     H90422   2.885   9.461   5.994 -1.7068 -1.3802 -0.7811
  670MOL0     H90423   2.822   9.597   6.086  3.1936  0.3103  1.5902
  670MOL0     H90424   2.704   9.336   5.983 -0.6422 -0.1204 -0.4699
  670MOL0     H90425   2.621   9.390   6.124  1.3518  0.7391  1.3227
  670MOL0     H90426   2.673   9.562   5.881 -0.4990  0.3837 -1.3479
  670MOL0     H90427   2.571   9.616   6.019  1.1502  0.0490 -0.7446
  670MOL0     H90428   2.488   9.387   5.833 -1.7260 -1.4371  1.4488
  670MOL0     H90429   2.415   9.413   5.983  1.5804 -0.3053  0.1396
  670MOL0     H90430   2.708   9.024   6.286  1.7481 -3.1192 -1.3115
  670MOL0     H90431   2.611   8.822   6.366  0.0933 -1.9113  2.0470
  670MOL0     H90432   2.424   8.664   6.769  1.6154 -1.3427  2.9668
  670MOL0     H90433   2.286   8.488   6.888 -0.3745 -2.6074 -1.3135
  670MOL0     H90434   0.740   8.529   7.242 -4.2073  2.3042 -0.2370
  670MOL0     H90435   0.536   8.613   7.344  1.6517  0.0256 -1.1383
  670MOL0     H90436   0.352   8.616   7.829  1.0232  0.5139 -2.2543
  670MOL0     H90437   0.183   8.644   7.980  0.4673 -4.5084 -0.7198
  670MOL0     H90438  -0.122   8.538   7.983  2.1647  0.7486  0.2502
  670MOL0     H90439  -0.244   8.633   7.893 -0.0419  1.5571 -0.1289
  670MOL0     H90440  -0.334   8.642   8.104  0.5667  0.6689  1.0218
  670MOL0     H90441  -0.264   8.797   8.053 -5.3975 -0.8807 -0.9921
  670MOL0     H90442  -0.077   8.765   8.227 -1.7163  1.3522  0.3467
  670MOL0     H90443  -0.113   8.595   8.247  3.9069  1.1787 -1.5659
  670MOL0     H90444  -0.309   8.826   8.316 -0.1397  0.3793  0.4279
  670MOL0     H90445  -0.330   8.653   8.356  1.3848 -2.5925 -0.5502
  670MOL0     H90446  -0.074   8.833   8.655  0.4302  2.5343 -1.6933
  670MOL0     H90447  -0.097   8.733   7.688 -0.0358  1.6594  4.2881
  670MOL0     H90448   0.085   8.717   7.386 -1.8223  1.3139  0.3122
  670MOL0     H90449   0.038   8.541   7.422 -0.8832 -1.0151  1.8256
  670MOL0     H90450  -0.064   8.668   7.452 -0.8102 -2.1421  2.9466
  671MOL0     O90451  10.190   5.101   1.779  0.1831  0.0834 -0.1766
  671MOL0     C90452  10.156   5.196   1.711  1.1348  0.4422 -0.6518
  671MOL0     O90453  10.227   5.318   1.704 -0.3812 -0.0740 -1.1120
  671MOL0     C90454  10.349   5.329   1.765 -0.3398 -0.0610  0.1279
  671MOL0     C90455  10.451   5.230   1.763  0.3744 -0.2460 -0.2991
  671MOL0     C90456  10.577   5.248   1.824 -0.6749 -0.4617  0.0106
  671MOL0     C90457  10.600   5.368   1.899 -0.4020  0.2767 -0.6044
  671MOL0     O90458  10.711   5.386   1.974 -0.2037  0.3612  0.1810
  671MOL0     C90459  10.824   5.295   1.950 -0.8741 -0.2073  0.1035
  671MOL0     C90460  10.953   5.352   2.029 -0.6488 -0.0859  0.4830
  671MOL0     C90461  11.063   5.401   1.943  0.0917  0.1709  0.5533
  671MOL0     C90462  11.171   5.460   2.026 -0.4389  0.3958  0.0205
  671MOL0     C90463  11.266   5.352   2.078 -0.3203 -0.1527 -0.1901
  671MOL0     C90464  11.370   5.409   2.176  0.0543  0.5416  0.3243
  671MOL0     C90465  11.487   5.306   2.185  0.1105 -0.1896  0.1103
  671MOL0     C90466  11.547   5.307   2.328  0.0632 -0.8985 -0.1879
  671MOL0     N90467  11.614   5.435   2.369  0.6960  0.3441  0.2832
  671MOL0     C90468  11.704   5.503   2.295  0.2009  0.2256  0.2765
  671MOL0     C90469  11.745   5.609   2.375  0.6078  0.3763 -0.7326
  671MOL0     C90470  11.862   5.704   2.347 -0.2994  0.2734 -0.5792
  671MOL0     C90471  11.984   5.620   2.326  0.4558 -0.3851  0.0162
  671MOL0     C90472  12.098   5.706   2.277  0.0452 -0.2262 -0.3015
  671MOL0     C90473  12.235   5.637   2.295  0.4721  0.1760  1.0567
  671MOL0     O90474  12.262   5.626   2.434  1.0040  0.2861  0.3721
  671MOL0     C90475  12.382   5.585   2.486 -1.7234  0.1381  0.4528
  671MOL0     C90476  12.505   5.568   2.411 -0.0677 -0.6175  0.4914
  671MOL0     C90477  12.624   5.529   2.467  0.9065  0.7307 -0.0106
  671MOL0     C90478  12.631   5.495   2.600  0.3140  0.2568 -0.8284
  671MOL0     C90479  12.770   5.456   2.657  1.1893 -0.1438  0.2847
  671MOL0     O90480  12.874   5.433   2.579  0.3023  0.0471 -0.3958
  671MOL0     C90481  13.001   5.424   2.643  0.4929  0.7597 -0.1378
  671MOL0     C90482  13.076   5.311   2.615  0.3411  0.6109  0.3510
  671MOL0     C90483  13.201   5.294   2.685 -0.6099  0.4242 -0.1683
  671MOL0     C90484  13.243   5.397   2.767 -0.2692 -0.3590 -0.0919
  671MOL0     O90485  13.365   5.397   2.841  0.2691 -0.2024 -0.7808
  671MOL0     C90486  13.458   5.295   2.812 -0.0048 -0.0616 -0.2802
  671MOL0     C90487  13.553   5.288   2.938 -0.3863  0.2370 -1.0494
  671MOL0     C90488  13.631   5.163   2.949  0.5629  0.7828 -0.6655
  671MOL0     C90489  13.722   5.142   3.073 -0.4393  0.0574  0.1123
  671MOL0     C90490  13.798   5.016   3.047 -0.3663  0.2750  0.3568
  671MOL0     C90491  13.911   4.997   3.151 -0.1076  0.5896 -0.3741
  671MOL0     C90492  13.970   4.856   3.142 -0.9833 -0.2818  0.1499
  671MOL0     C90493  13.873   4.739   3.180 -0.2699  0.1907  0.6373
  671MOL0    Cl90494  13.825   4.736   3.346 -0.3452 -0.0194 -0.1831
  671MOL0     C90495  13.166   5.515   2.784 -0.1006  0.3611 -0.8448
  671MOL0     C90496  13.040   5.521   2.727 -0.1099 -0.4385  0.4120
  671MOL0     O90497  12.763   5.449   2.782 -0.9149 -0.0099 -0.5277
  671MOL0     C90498  12.518   5.514   2.682  0.7568  0.1626  0.1950
  671MOL0     C90499  12.393   5.567   2.620  0.1036  0.1674  0.1147
  671MOL0     N90500  11.671   5.602   2.493 -0.3533 -0.2571 -0.0697
  671MOL0     N90501  11.579   5.509   2.480 -0.0707 -0.1423 -0.1495
  671MOL0     C90502  10.494   5.461   1.905 -0.9442 -0.3178  0.0317
  671MOL0     C90503  10.379   5.451   1.831  0.0617 -0.6011 -0.2586
  671MOL0     C90504  10.031   5.177   1.626 -0.3056  0.6648  0.5983
  671MOL0     C90505   9.958   5.289   1.591 -0.2500 -0.8494 -0.4713
  671MOL0     C90506   9.854   5.286   1.502 -0.4584  0.0204  0.4587
  671MOL0     C90507   9.811   5.163   1.444 -0.6427 -0.5107  1.1355
  671MOL0     O90508   9.706   5.154   1.353 -0.8276  0.2416 -0.0634
  671MOL0     C90509   9.666   5.271   1.274 -0.1377  0.6170 -0.2041
  671MOL0     C90510   9.531   5.321   1.338 -0.5847  0.6426  0.0207
  671MOL0     C90511   9.499   5.461   1.283 -0.5467  0.5906 -1.0177
  671MOL0     C90512   9.393   5.531   1.359 -1.1631  0.9216 -0.0516
  671MOL0     C90513   9.456   5.587   1.476  0.0950 -0.6378  0.0230
  671MOL0     C90514   9.505   5.643   1.574 -0.3469  0.6775  0.8265
  671MOL0     C90515   9.871   5.050   1.493  0.2597 -0.8461  0.1450
  671MOL0     C90516   9.978   5.051   1.577 -0.4248 -0.3101  0.8898
  671MOL0     C90517  10.033   4.916   1.621  0.0146  0.7615 -0.0097
  671MOL0     H90518  10.431   5.136   1.712 -3.2906 -1.2885  2.5606
  671MOL0     H90519  10.646   5.165   1.812 -0.2115 -0.3474  1.6840
  671MOL0     H90520  10.802   5.195   1.987 -0.0969 -1.2449 -2.0828
  671MOL0     H90521  10.852   5.285   1.845  2.4772 -1.2675  0.9673
  671MOL0     H90522  10.970   5.262   2.089  0.1261  0.2230  0.7316
  671MOL0     H90523  10.933   5.435   2.098  3.8886  0.6332  1.2124
  671MOL0     H90524  11.018   5.486   1.891 -2.0908  0.1954  2.3247
  671MOL0     H90525  11.096   5.331   1.866 -3.7220  1.1094 -2.2133
  671MOL0     H90526  11.248   5.504   1.961  0.7603 -2.4407 -0.6654
  671MOL0     H90527  11.142   5.535   2.099  0.3446 -0.7309  1.5482
  671MOL0     H90528  11.202   5.279   2.128 -0.1101 -1.8912 -2.3042
  671MOL0     H90529  11.325   5.304   1.999  0.7794  1.1497 -0.1914
  671MOL0     H90530  11.405   5.507   2.142  1.2142 -0.1268 -0.4717
  671MOL0     H90531  11.320   5.410   2.273 -1.4595 -1.4214 -0.3619
  671MOL0     H90532  11.565   5.330   2.112  1.7210  0.2546  1.8877
  671MOL0     H90533  11.444   5.206   2.170  1.9726 -0.8843 -1.0044
  671MOL0     H90534  11.465   5.274   2.393 -0.8002  0.4296 -0.5765
  671MOL0     H90535  11.613   5.219   2.333 -2.0084 -2.4639  1.7734
  671MOL0     H90536  11.742   5.466   2.200  3.0164  0.8182  1.0728
  671MOL0     H90537  11.829   5.750   2.253 -1.4110  0.6345 -0.0300
  671MOL0     H90538  11.877   5.782   2.423  2.0125 -1.3785  0.7987
  671MOL0     H90539  12.004   5.562   2.416  0.4665 -0.3246  0.0528
  671MOL0     H90540  11.950   5.550   2.250  0.6298 -0.8691  0.3834
  671MOL0     H90541  12.101   5.806   2.323 -1.6465 -1.0049  1.6277
  671MOL0     H90542  12.078   5.723   2.171  3.6585 -0.4378 -1.1541
  671MOL0     H90543  12.323   5.671   2.240  2.8648 -2.9467  2.6192
  671MOL0     H90544  12.219   5.534   2.263 -1.4853  0.8713 -0.3697
  671MOL0     H90545  12.513   5.595   2.306  1.0007 -2.4903  0.0473
  671MOL0     H90546  12.721   5.526   2.418  1.4423  1.0135  1.0106
  671MOL0     H90547  13.036   5.238   2.545 -2.8173  2.4614  0.0500
  671MOL0     H90548  13.253   5.200   2.669 -2.0690 -0.8346  1.9648
  671MOL0     H90549  13.406   5.199   2.806 -2.6873  1.3279 -0.8870
  671MOL0     H90550  13.509   5.322   2.719 -1.1333  0.7473 -0.6765
  671MOL0     H90551  13.629   5.367   2.932  1.0486 -0.6355  2.7882
  671MOL0     H90552  13.500   5.322   3.027  1.8352  2.2993 -0.3903
  671MOL0     H90553  13.561   5.079   2.952  1.0387  0.2732 -2.4887
  671MOL0     H90554  13.693   5.154   2.859 -0.6612 -2.0308 -1.3128
  671MOL0     H90555  13.649   5.142   3.155 -2.0183 -1.2779 -1.2305
  671MOL0     H90556  13.793   5.224   3.087 -0.2078 -0.1975  0.4359
  671MOL0     H90557  13.839   5.011   2.945  0.2660 -0.2116  0.6251
  671MOL0     H90558  13.726   4.934   3.055  0.8800 -0.7246  1.9938
  671MOL0     H90559  13.994   5.068   3.139  0.2584  0.2419  0.0560
  671MOL0     H90560  13.886   5.016   3.256  1.0413  1.6015 -0.2603
  671MOL0     H90561  14.058   4.864   3.206 -1.4276 -1.7414  0.9769
  671MOL0     H90562  14.010   4.828   3.044  1.2153  2.0817  0.2527
  671MOL0     H90563  13.788   4.731   3.112  0.1019 -2.1787  0.3623
  671MOL0     H90564  13.933   4.648   3.173 -2.5829 -1.3979  0.2530
  671MOL0     H90565  13.198   5.594   2.852  2.0938 -0.4895 -0.8053
  671MOL0     H90566  12.976   5.609   2.732  0.0681 -0.3105  0.4283
  671MOL0     H90567  12.526   5.487   2.787  0.3693 -0.5022  0.0631
  671MOL0     H90568  12.312   5.600   2.684  0.6946  1.8761  0.0374
  671MOL0     H90569  10.516   5.550   1.963  0.8660  0.8854 -2.3392
  671MOL0     H90570  10.307   5.532   1.840  4.1449  3.7281 -2.2102
  671MOL0     H90571   9.981   5.388   1.631 -1.2201 -0.2374 -1.3674
  671MOL0     H90572   9.806   5.381   1.480  4.3604  3.0137  1.4342
  671MOL0     H90573   9.650   5.232   1.174  1.6511 -2.5796  0.6048
  671MOL0     H90574   9.742   5.349   1.266 -0.6071  1.2833  1.3342
  671MOL0     H90575   9.544   5.318   1.447  0.5953 -2.2705 -0.1066
  671MOL0     H90576   9.453   5.246   1.324  0.0462 -0.2357  1.0316
  671MOL0     H90577   9.466   5.451   1.179 -0.9056 -0.4487 -0.8185
  671MOL0     H90578   9.587   5.522   1.301 -0.9124  0.4298  1.7364
  671MOL0     H90579   9.360   5.613   1.295  0.0059  0.4971 -1.2413
  671MOL0     H90580   9.308   5.472   1.394  0.3344 -0.0756  2.2204
  671MOL0     H90581   9.565   5.681   1.655  1.3760  0.0493 -0.1125
  671MOL0     H90582   9.828   4.958   1.455  0.4311 -0.2221 -1.6427
  671MOL0     H90583   9.969   4.836   1.583 -1.1424  2.6537 -2.2954
  671MOL0     H90584  10.141   4.908   1.607  0.0803  1.2290  0.1975
  671MOL0     H90585  10.009   4.914   1.728 -3.8701 -0.6837 -0.7516
  672MOL0     O90586   9.638   6.813   8.438  0.3001 -0.1208 -1.1945
  672MOL0     C90587   9.535   6.882   8.445  0.5574  0.3864  0.0088
  672MOL0     O90588   9.536   7.014   8.466  0.2155  0.7706 -0.1672
  672MOL0     C90589   9.650   7.093   8.484 -0.3438 -0.7735  0.0833
  672MOL0     C90590   9.638   7.230   8.442  0.9627  0.2200 -0.3723
  672MOL0     C90591   9.744   7.312   8.459  0.2954 -0.0734 -0.3698
  672MOL0     C90592   9.859   7.275   8.523 -0.3611  0.7451 -0.0844
  672MOL0     O90593   9.958   7.369   8.551 -0.6986 -0.4665  0.2477
  672MOL0     C90594  10.098   7.336   8.535  0.3213  0.0529  0.6181
  672MOL0     C90595  10.125   7.312   8.387  0.1066  1.0784 -0.3670
  672MOL0     C90596  10.259   7.371   8.343 -0.0948  0.0410 -0.6793
  672MOL0     C90597  10.380   7.299   8.403  0.5107  0.1241  0.3623
  672MOL0     C90598  10.508   7.343   8.326  0.5407 -0.3452  0.0816
  672MOL0     C90599  10.621   7.243   8.329 -1.2363  0.4156 -0.6656
  672MOL0     C90600  10.606   7.103   8.262  0.2769 -0.0137  0.0237
  672MOL0     C90601  10.587   7.110   8.118  0.9488  0.2524  0.6078
  672MOL0     N90602  10.682   7.181   8.029 -0.2835 -0.8190 -0.3874
  672MOL0     C90603  10.823   7.186   8.048  0.1754  0.3474 -0.2294
  672MOL0     C90604  10.861   7.286   7.968 -0.2771  0.0725  0.0270
  672MOL0     C90605  11.005   7.326   7.970  0.0204 -0.3544  0.5331
  672MOL0     C90606  11.060   7.290   7.833 -0.2044 -0.1030 -0.0128
  672MOL0     C90607  11.202   7.351   7.823 -0.4506 -0.1526  0.6761
  672MOL0     C90608  11.257   7.346   7.679 -0.2989  0.2394  0.0953
  672MOL0     O90609  11.300   7.217   7.638  0.4085  0.4838  0.1579
  672MOL0     C90610  11.433   7.174   7.648  0.7888 -0.9538  0.5479
  672MOL0     C90611  11.445   7.040   7.601  0.3498  0.0962 -0.2919
  672MOL0     C90612  11.569   6.979   7.610  0.4052  1.1969  0.3005
  672MOL0     C90613  11.664   7.038   7.695 -0.6860 -0.6777 -0.6657
  672MOL0     C90614  11.796   6.967   7.712 -0.0315 -0.0315 -0.0556
  672MOL0     O90615  11.875   7.007   7.808  0.2862  0.0937  0.2856
  672MOL0     C90616  11.990   6.947   7.833 -0.4384  0.7657 -0.0639
  672MOL0     C90617  12.018   6.925   7.969  0.7310  0.4795  0.1134
  672MOL0     C90618  12.152   6.878   8.012 -0.4863 -1.1881  0.0966
  672MOL0     C90619  12.255   6.859   7.917 -0.2165 -0.2503  0.2270
  672MOL0     O90620  12.372   6.802   7.956  0.0733 -0.3300  0.4403
  672MOL0     C90621  12.483   6.809   7.861  0.4921  1.3740 -0.5088
  672MOL0     C90622  12.623   6.789   7.922  0.4001 -0.0740  0.7755
  672MOL0     C90623  12.739   6.792   7.823 -0.0910 -0.0143 -0.0790
  672MOL0     C90624  12.856   6.720   7.897 -0.1264 -0.4475 -0.1917
  672MOL0     C90625  12.978   6.709   7.801  0.7029 -0.0595  1.1763
  672MOL0     C90626  13.072   6.611   7.868  0.2685 -0.1116  0.1896
  672MOL0     C90627  13.194   6.581   7.772 -0.2065 -0.4412  0.5520
  672MOL0     C90628  13.257   6.450   7.822 -0.0354  0.4379 -0.0152
  672MOL0    Cl90629  13.423   6.464   7.755  0.1368  0.1575 -0.3814
  672MOL0     C90630  12.217   6.881   7.783  0.7230  0.4531  0.4538
  672MOL0     C90631  12.094   6.920   7.741 -0.2828 -0.0217 -0.4053
  672MOL0     O90632  11.804   6.857   7.652  0.0438  0.8153  0.1223
  672MOL0     C90633  11.652   7.166   7.751 -0.3612  0.2607 -0.5517
  672MOL0     C90634  11.534   7.231   7.724  0.1165  0.0348  1.0430
  672MOL0     N90635  10.756   7.343   7.890 -0.0578  0.1828 -0.8927
  672MOL0     N90636  10.649   7.279   7.938  0.1947 -0.4607  0.0375
  672MOL0     C90637   9.876   7.144   8.562  0.5918 -0.2453 -0.6016
  672MOL0     C90638   9.772   7.050   8.547  0.2535  0.2476 -0.9741
  672MOL0     C90639   9.401   6.818   8.442  0.3510 -0.0717  0.2150
  672MOL0     C90640   9.392   6.699   8.512  0.0321  1.1577  0.2513
  672MOL0     C90641   9.282   6.617   8.507 -0.2263  0.0756 -0.1359
  672MOL0     C90642   9.164   6.663   8.452  0.3813  0.0348  0.7718
  672MOL0     O90643   9.062   6.576   8.447 -0.5187  0.2301  0.7254
  672MOL0     C90644   8.946   6.611   8.372 -0.6246 -0.1313 -0.7505
  672MOL0     C90645   8.837   6.683   8.464 -0.4915  0.2147  0.1446
  672MOL0     C90646   8.691   6.683   8.406 -0.2079 -0.6918  0.6278
  672MOL0     C90647   8.687   6.746   8.265 -0.2540  0.1486  0.2097
  672MOL0     C90648   8.549   6.752   8.228 -0.0146  0.9834  0.6905
  672MOL0     C90649   8.436   6.773   8.192 -0.2678  0.5208  0.1298
  672MOL0     C90650   9.161   6.785   8.393 -0.1782 -0.0524  0.2774
  672MOL0     C90651   9.277   6.864   8.381  0.3480  0.3028  0.4969
  672MOL0     C90652   9.258   7.010   8.328  0.1403  0.5189  0.4692
  672MOL0     H90653   9.544   7.270   8.407  0.0641 -2.4155 -1.1585
  672MOL0     H90654   9.731   7.417   8.435  1.4108  0.6087  1.7782
  672MOL0     H90655  10.151   7.424   8.574  1.0642  1.0600 -2.3788
  672MOL0     H90656  10.124   7.249   8.595 -1.6718 -0.1039  1.3225
  672MOL0     H90657  10.047   7.360   8.327 -3.8686 -0.9260  2.7144
  672MOL0     H90658  10.112   7.206   8.364 -0.2445  0.9743  0.2695
  672MOL0     H90659  10.268   7.478   8.366  0.0334 -0.0948 -0.1050
  672MOL0     H90660  10.251   7.362   8.234 -3.1524  2.1676 -0.7477
  672MOL0     H90661  10.374   7.331   8.508 -2.0925  0.1298  0.2799
  672MOL0     H90662  10.366   7.190   8.402 -0.3776  0.2351  0.3972
  672MOL0     H90663  10.490   7.369   8.221  0.8495 -0.0368  0.1049
  672MOL0     H90664  10.544   7.438   8.367 -0.2659 -0.0652  0.1511
  672MOL0     H90665  10.712   7.286   8.285  0.8110 -1.2778  1.6500
  672MOL0     H90666  10.636   7.234   8.437  0.9261  1.7275 -0.7794
  672MOL0     H90667  10.518   7.050   8.302 -0.1963  0.5531 -0.2527
  672MOL0     H90668  10.692   7.036   8.267  0.5777 -0.0767 -3.4180
  672MOL0     H90669  10.572   7.007   8.084  1.5507  0.5418 -0.6039
  672MOL0     H90670  10.490   7.156   8.099  0.8537  0.4874  1.5986
  672MOL0     H90671  10.887   7.124   8.112 -1.4161  0.6628  1.7732
  672MOL0     H90672  11.002   7.434   7.985 -1.6779 -0.3960  0.6998
  672MOL0     H90673  11.061   7.281   8.052  0.0282 -0.9828  0.1856
  672MOL0     H90674  11.061   7.181   7.822  0.1490 -0.1884  0.7747
  672MOL0     H90675  11.006   7.340   7.752  1.9682  0.8912 -0.9427
  672MOL0     H90676  11.267   7.298   7.892 -1.0287  1.6829  2.7336
  672MOL0     H90677  11.209   7.453   7.860  2.5114  0.5852 -1.5316
  672MOL0     H90678  11.340   7.418   7.681  0.8777 -1.0332 -0.9875
  672MOL0     H90679  11.193   7.380   7.597  0.2313 -0.8451 -0.7935
  672MOL0     H90680  11.360   6.985   7.564 -0.9842  0.3763  2.1638
  672MOL0     H90681  11.576   6.876   7.577 -1.0089  0.7993  1.1498
  672MOL0     H90682  11.935   6.939   8.037  1.9074  1.3479  1.4284
  672MOL0     H90683  12.172   6.858   8.117 -2.5221 -0.6846  0.6298
  672MOL0     H90684  12.462   6.729   7.789 -0.8357 -0.4843  1.7854
  672MOL0     H90685  12.491   6.911   7.823  2.7536  1.8835  1.0857
  672MOL0     H90686  12.647   6.852   8.008 -0.0926 -1.6677  2.1442
  672MOL0     H90687  12.619   6.689   7.966  0.1667 -0.2506  0.3590
  672MOL0     H90688  12.723   6.742   7.727  1.7342 -0.2057 -0.3238
  672MOL0     H90689  12.745   6.900   7.806 -0.6251  0.6044  3.0851
  672MOL0     H90690  12.824   6.619   7.925 -1.1037  0.3895  1.9980
  672MOL0     H90691  12.894   6.768   7.988  2.4318 -1.4063 -0.6912
  672MOL0     H90692  13.033   6.800   7.776  0.6643 -0.3271  0.0575
  672MOL0     H90693  12.957   6.665   7.703  2.8050  1.8077 -0.2340
  672MOL0     H90694  13.112   6.657   7.959  1.2151 -0.2876 -0.1318
  672MOL0     H90695  13.014   6.521   7.889 -1.8365  0.3911 -2.7814
  672MOL0     H90696  13.261   6.666   7.787  0.6761 -0.6421 -1.8648
  672MOL0     H90697  13.166   6.577   7.667 -1.1310 -0.8548  0.8000
  672MOL0     H90698  13.261   6.450   7.931 -0.7357 -3.0945  0.1449
  672MOL0     H90699  13.202   6.361   7.790 -2.7578  1.2299  2.0957
  672MOL0     H90700  12.292   6.885   7.704  1.2229  1.2631  0.9507
  672MOL0     H90701  12.078   6.945   7.636  1.5480  0.3912 -0.6095
  672MOL0     H90702  11.723   7.219   7.813  2.2208 -1.4650 -1.8542
  672MOL0     H90703  11.527   7.324   7.780  1.8364  0.8762 -0.0480
  672MOL0     H90704   9.967   7.114   8.612  0.1979 -1.8177 -0.7514
  672MOL0     H90705   9.773   6.953   8.597 -4.4877  1.3996  1.8961
  672MOL0     H90706   9.477   6.660   8.566 -1.7968 -1.2223  1.5977
  672MOL0     H90707   9.289   6.527   8.567  0.7431  1.3897  1.8213
  672MOL0     H90708   8.912   6.517   8.327 -2.1903  0.6171 -1.2063
  672MOL0     H90709   8.966   6.671   8.283 -0.1243 -0.8989 -1.1644
  672MOL0     H90710   8.865   6.788   8.480  1.6095 -0.5271  1.9057
  672MOL0     H90711   8.841   6.643   8.566  1.7908 -0.1499 -0.0350
  672MOL0     H90712   8.632   6.741   8.477  1.3675 -0.8627  2.1579
  672MOL0     H90713   8.643   6.585   8.399 -1.4059 -0.1715  1.3932
  672MOL0     H90714   8.720   6.850   8.257 -3.1744  1.0417 -4.6510
  672MOL0     H90715   8.749   6.688   8.196 -0.3571 -0.6053  0.7387
  672MOL0     H90716   8.340   6.787   8.147  1.4706 -0.8841 -4.5575
  672MOL0     H90717   9.078   6.830   8.340 -1.9732 -2.1008  1.2094
  672MOL0     H90718   9.178   7.007   8.254 -0.7251 -0.1884  1.4005
  672MOL0     H90719   9.221   7.071   8.410 -0.9315 -0.1537  0.5037
  672MOL0     H90720   9.345   7.056   8.279 -0.4570  2.4472  1.1365
  673MOL0     O90721   9.083  10.194   6.818  0.4016  0.2974 -0.6694
  673MOL0     C90722   9.044  10.102   6.749  0.2842 -0.5321 -0.0649
  673MOL0     O90723   9.125  10.007   6.683  0.4350  0.3130  0.1135
  673MOL0     C90724   9.256  10.036   6.676 -0.5092  0.1110  0.3580
  673MOL0     C90725   9.349   9.945   6.719  0.4147 -0.1622  0.0071
  673MOL0     C90726   9.480   9.990   6.718 -0.8936 -0.2077 -0.1932
  673MOL0     C90727   9.519  10.113   6.677 -1.9742  0.1340  0.6275
  673MOL0     O90728   9.655  10.139   6.645  0.4006 -0.3672  0.2702
  673MOL0     C90729   9.696  10.275   6.663  0.3649 -0.2422 -0.1640
  673MOL0     C90730   9.670  10.343   6.797  0.2735  0.1820  0.1902
  673MOL0     C90731   9.690  10.492   6.794 -0.1189  0.6305 -0.2407
  673MOL0     C90732   9.838  10.538   6.783 -0.2215  0.2115 -0.3058
  673MOL0     C90733   9.853  10.689   6.773 -0.0173  0.2140  0.1050
  673MOL0     C90734   9.999  10.741   6.746 -0.9597  0.2045  0.5072
  673MOL0     C90735   9.992  10.893   6.752  0.5231  0.1021  0.2656
  673MOL0     C90736  10.124  10.959   6.732 -0.8888 -0.1445  0.4668
  673MOL0     N90737  10.223  10.906   6.825  0.3594 -0.5069  0.1570
  673MOL0     C90738  10.322  10.806   6.815 -0.6235 -0.1160  0.2889
  673MOL0     C90739  10.403  10.815   6.921  0.2472  0.5711 -0.2362
  673MOL0     C90740  10.529  10.728   6.939 -0.1556 -0.6760  0.4383
  673MOL0     C90741  10.656  10.777   6.878  0.1509 -0.4281 -0.3624
  673MOL0     C90742  10.707  10.909   6.949  1.5390 -0.2235 -0.4112
  673MOL0     C90743  10.825  10.978   6.891 -0.0215 -0.4947  0.0823
  673MOL0     O90744  10.898  10.880   6.816  0.8772 -0.4858  0.0649
  673MOL0     C90745  11.002  10.806   6.877  0.0074 -0.4718 -0.2704
  673MOL0     C90746  11.038  10.794   7.013 -0.0793  0.5818  0.4852
  673MOL0     C90747  11.155  10.717   7.055  0.1478  0.4119 -0.0685
  673MOL0     C90748  11.246  10.672   6.960  0.4978  1.5143  0.2938
  673MOL0     C90749  11.376  10.599   7.001 -1.2435  0.4572 -0.1357
  673MOL0     O90750  11.399  10.568   7.135  0.8576  0.5535  0.3034
  673MOL0     C90751  11.499  10.483   7.176  0.4871  0.4964 -0.2568
  673MOL0     C90752  11.631  10.515   7.164 -0.3535 -0.0212 -0.7830
  673MOL0     C90753  11.733  10.424   7.190  0.3544 -0.1470 -0.4850
  673MOL0     C90754  11.697  10.295   7.240 -0.9441  0.0646 -0.4099
  673MOL0     O90755  11.796  10.206   7.272 -0.0429  0.6038 -0.6552
  673MOL0     C90756  11.914  10.252   7.342 -0.1231 -0.2970 -0.1888
  673MOL0     C90757  11.908  10.204   7.482 -0.1342  0.1747  0.9956
  673MOL0     C90758  12.038  10.239   7.548  0.2176  0.4311 -0.4987
  673MOL0     C90759  12.031  10.207   7.703  0.0862 -0.3582 -0.1182
  673MOL0     C90760  12.168  10.205   7.770  0.4562  0.0950  0.7255
  673MOL0     C90761  12.233  10.341   7.772 -0.7981  0.5089  0.0791
  673MOL0     C90762  12.369  10.334   7.848 -0.3522 -0.5300 -1.1120
  673MOL0     C90763  12.429  10.467   7.884  0.2859  0.7395  0.6183
  673MOL0    Cl90764  12.612  10.450   7.900  0.1118 -0.4220 -0.1248
  673MOL0     C90765  11.559  10.254   7.239 -0.8121  0.4217  0.5633
  673MOL0     C90766  11.468  10.350   7.196  0.1467 -0.8314  0.1168
  673MOL0     O90767  11.461  10.584   6.910  0.2156 -0.0709 -0.1297
  673MOL0     C90768  11.215  10.678   6.831 -0.2713  0.0294  1.5405
  673MOL0     C90769  11.094  10.748   6.787 -0.2406 -0.8420 -0.3713
  673MOL0     N90770  10.341  10.908   7.004 -1.2009  0.3360  0.5161
  673MOL0     N90771  10.241  10.967   6.942 -0.2999  0.2056 -0.3359
  673MOL0     C90772   9.426  10.206   6.644  0.7951 -0.7743 -0.2862
  673MOL0     C90773   9.296  10.166   6.647 -0.0071  0.4745  0.3955
  673MOL0     C90774   8.893  10.082   6.740  0.1284 -1.0667 -0.5430
  673MOL0     C90775   8.819  10.144   6.848  0.0111 -0.1268  0.7078
  673MOL0     C90776   8.679  10.126   6.855 -0.1745  0.3964 -0.8210
  673MOL0     C90777   8.609  10.049   6.758 -0.0416  0.4390  0.1693
  673MOL0     O90778   8.470  10.024   6.757 -0.0896 -0.4941 -0.2247
  673MOL0     C90779   8.381  10.081   6.854  0.1101 -0.5939  0.4277
  673MOL0     C90780   8.236  10.027   6.825 -0.3769 -0.3684 -0.2263
  673MOL0     C90781   8.179  10.065   6.686 -0.0211 -0.1323  0.8191
  673MOL0     C90782   8.168  10.216   6.665  0.1939  0.6573 -0.2739
  673MOL0     C90783   8.082  10.246   6.551  0.2591 -0.4755 -0.0503
  673MOL0     C90784   7.997  10.255   6.458  0.0225 -0.0050 -0.2351
  673MOL0     C90785   8.685  10.002   6.647 -0.4728  0.5641 -0.4396
  673MOL0     C90786   8.828  10.003   6.643  0.1678 -0.4605  0.1556
  673MOL0     C90787   8.894   9.906   6.548  0.1346 -0.1701 -0.2512
  673MOL0     H90788   9.328   9.850   6.767 -2.6644  1.4893  2.2632
  673MOL0     H90789   9.555   9.928   6.766  0.1218  1.6349  0.7406
  673MOL0     H90790   9.805  10.276   6.667  0.3672  2.2527  1.6664
  673MOL0     H90791   9.655  10.339   6.585 -3.2545 -1.3239  0.6729
  673MOL0     H90792   9.746  10.307   6.868 -1.5709 -2.8289  0.8265
  673MOL0     H90793   9.571  10.316   6.836 -0.2982  0.2541 -1.1662
  673MOL0     H90794   9.637  10.526   6.883 -3.0801  1.0580 -1.9944
  673MOL0     H90795   9.633  10.543   6.715  0.8097  2.3149  0.1331
  673MOL0     H90796   9.899  10.492   6.862  0.6400  1.4310 -0.2383
  673MOL0     H90797   9.884  10.489   6.696  1.0568  0.3497  0.2575
  673MOL0     H90798   9.799  10.735   6.690  2.0735  1.5747 -0.5680
  673MOL0     H90799   9.804  10.738   6.857 -4.2688  0.1100 -2.0362
  673MOL0     H90800  10.070  10.712   6.824  1.0069 -0.3472 -1.3597
  673MOL0     H90801  10.025  10.701   6.647 -1.6839 -0.3690  0.5402
  673MOL0     H90802   9.953  10.933   6.846  0.3908  1.7334 -0.4469
  673MOL0     H90803   9.923  10.933   6.677  0.6904 -1.7656 -0.9479
  673MOL0     H90804  10.157  10.926   6.633  1.1483  0.9199  0.7341
  673MOL0     H90805  10.114  11.067   6.718 -0.6817 -0.4127 -2.4178
  673MOL0     H90806  10.353  10.758   6.723 -0.6597 -1.5515  0.9922
  673MOL0     H90807  10.556  10.717   7.045  1.7468  2.5249  0.4433
  673MOL0     H90808  10.515  10.631   6.892 -0.6239 -0.6636  0.5538
  673MOL0     H90809  10.739  10.705   6.878 -0.5051 -1.2025 -0.6877
  673MOL0     H90810  10.634  10.790   6.772 -1.3723 -0.7168 -0.0981
  673MOL0     H90811  10.730  10.887   7.053  0.4610 -2.7978 -0.6546
  673MOL0     H90812  10.618  10.974   6.952  0.0752 -2.1407 -0.5956
  673MOL0     H90813  10.878  11.022   6.976 -0.0563  0.2063 -0.2509
  673MOL0     H90814  10.789  11.062   6.831  1.5686  1.4442  1.6724
  673MOL0     H90815  10.980  10.834   7.096 -0.4620  1.8808 -0.3702
  673MOL0     H90816  11.180  10.722   7.161 -2.2551 -0.9531  0.6188
  673MOL0     H90817  11.659  10.615   7.133 -2.0818  0.8039  0.1482
  673MOL0     H90818  11.833  10.459   7.164 -0.2618  2.3666  0.2010
  673MOL0     H90819  12.010  10.226   7.297  0.2116 -1.1778  0.9924
  673MOL0     H90820  11.916  10.361   7.352  3.0786 -0.4539  2.7928
  673MOL0     H90821  11.833  10.260   7.538  0.2664  2.6913 -0.8005
  673MOL0     H90822  11.884  10.097   7.489  0.0940 -0.0349 -0.9234
  673MOL0     H90823  12.117  10.180   7.500 -0.4668  0.8150 -2.1452
  673MOL0     H90824  12.073  10.338   7.518  2.3395 -0.5311 -1.4149
  673MOL0     H90825  11.982  10.111   7.723 -2.0214  0.6771 -0.0489
  673MOL0     H90826  11.977  10.289   7.751  0.4031  0.5805 -1.3238
  673MOL0     H90827  12.229  10.137   7.710 -1.8466 -1.2576 -0.2426
  673MOL0     H90828  12.153  10.175   7.874 -1.2970  1.4482  0.9210
  673MOL0     H90829  12.247  10.365   7.666 -3.6182 -4.9496 -1.8922
  673MOL0     H90830  12.167  10.417   7.815  0.9510  2.5420 -0.6232
  673MOL0     H90831  12.438  10.267   7.796  0.0512  0.3640 -1.7635
  673MOL0     H90832  12.345  10.287   7.944  2.4501 -0.9562 -0.5298
  673MOL0     H90833  12.394  10.533   7.804 -2.9044 -1.9362 -0.4039
  673MOL0     H90834  12.380  10.502   7.976 -1.7835 -3.8555  1.5433
  673MOL0     H90835  11.526  10.153   7.256 -2.3991  1.1545  2.1948
  673MOL0     H90836  11.368  10.318   7.166  0.7666 -2.2387 -0.5660
  673MOL0     H90837  11.273  10.627   6.756 -1.4882  1.1333 -0.2313
  673MOL0     H90838  11.054  10.730   6.687  1.5054 -1.4110 -1.0012
  673MOL0     H90839   9.452  10.307   6.612  2.1178  1.0629  5.3080
  673MOL0     H90840   9.218  10.233   6.612  0.6806  0.0813 -2.1365
  673MOL0     H90841   8.865  10.207   6.923 -0.8834  0.0676  1.1072
  673MOL0     H90842   8.628  10.176   6.937  0.5309 -2.1644  1.3235
  673MOL0     H90843   8.388  10.188   6.835  0.1110 -0.8950 -1.3794
  673MOL0     H90844   8.414  10.046   6.953 -0.6182 -2.2245  0.1330
  673MOL0     H90845   8.161  10.066   6.895  0.4247 -1.2746  1.1808
  673MOL0     H90846   8.241   9.919   6.843 -1.6394 -0.4077  0.0025
  673MOL0     H90847   8.077  10.029   6.672 -0.1076  0.4923 -0.2786
  673MOL0     H90848   8.252  10.025   6.616  0.1382 -0.4372  1.1535
  673MOL0     H90849   8.135  10.266   6.756 -0.6729  3.0354 -1.7774
  673MOL0     H90850   8.272  10.247   6.652  0.3187 -0.4505 -2.4328
  673MOL0     H90851   7.931  10.259   6.374  0.7354 -1.5629 -0.9043
  673MOL0     H90852   8.629   9.949   6.570 -2.0045 -0.9597  1.6050
  673MOL0     H90853   8.928   9.827   6.615 -1.4606  0.5228  1.4604
  673MOL0     H90854   8.825   9.868   6.472  1.0852 -1.0830 -0.6670
  673MOL0     H90855   8.971   9.962   6.495  1.1540 -0.3387  1.0198
  674MOL0     O90856  11.251  10.730   8.834  0.7477 -0.2639 -0.6562
  674MOL0     C90857  11.191  10.712   8.942  0.5373 -0.1450  0.3854
  674MOL0     O90858  11.251  10.698   9.069  0.5580 -0.1387  0.0161
  674MOL0     C90859  11.389  10.692   9.084 -0.2949 -0.0712  0.4372
  674MOL0     C90860  11.427  10.618   9.203 -0.7333 -0.1129  0.9907
  674MOL0     C90861  11.562  10.584   9.222 -0.0868  0.4064 -0.1648
  674MOL0     C90862  11.663  10.636   9.146  0.1829 -0.3593  0.0497
  674MOL0     O90863  11.792  10.626   9.183  0.3586 -0.3484 -0.1847
  674MOL0     C90864  11.891  10.673   9.085  0.1981  0.3963  0.3441
  674MOL0     C90865  12.038  10.639   9.127  0.0615 -0.2869 -0.7541
  674MOL0     C90866  12.103  10.741   9.231  0.4559  0.3763  0.0628
  674MOL0     C90867  12.027  10.757   9.355  0.0812 -0.3287 -0.4409
  674MOL0     C90868  12.077  10.879   9.435  0.4364  0.3114  0.4241
  674MOL0     C90869  12.222  10.911   9.449  1.0451 -0.2554  0.1932
  674MOL0     C90870  12.305  10.800   9.518 -0.0679  0.8799  1.1212
  674MOL0     C90871  12.285  10.801   9.666 -1.2619  0.5269 -0.5414
  674MOL0     N90872  12.343  10.683   9.739  0.3820  0.1471 -0.7298
  674MOL0     C90873  12.477  10.664   9.753 -0.4343 -0.2380 -0.0677
  674MOL0     C90874  12.488  10.542   9.823 -0.1703 -1.0558  0.1572
  674MOL0     C90875  12.609  10.477   9.866  0.2474  0.3334 -0.4961
  674MOL0     C90876  12.621  10.336   9.803  0.0041 -0.0481 -0.9742
  674MOL0     C90877  12.686  10.346   9.670 -0.3287  0.3581 -0.5308
  674MOL0     C90878  12.683  10.212   9.597 -0.0541  0.3559  0.2032
  674MOL0     O90879  12.764  10.116   9.673  0.1610  0.5490  0.4833
  674MOL0     C90880  12.890  10.099   9.639 -0.3631  0.1339  0.5123
  674MOL0     C90881  13.003  10.138   9.717 -0.1470  0.4732  0.2336
  674MOL0     C90882  13.133  10.108   9.675 -0.3229 -0.2663  0.1124
  674MOL0     C90883  13.147  10.033   9.555  0.0473  0.1907 -0.2607
  674MOL0     C90884  13.280   9.990   9.513 -0.2788 -0.1642 -0.4739
  674MOL0     O90885  13.395  10.039   9.565 -0.0842  0.1214  0.0853
  674MOL0     C90886  13.507  10.005   9.503 -0.1568 -0.1445  0.5239
  674MOL0     C90887  13.604   9.940   9.573 -0.1243  0.1438  0.2682
  674MOL0     C90888  13.722   9.895   9.519  0.6272  0.8317 -0.0231
  674MOL0     C90889  13.746   9.920   9.382  1.1594  0.0989 -0.2115
  674MOL0     O90890  13.870   9.876   9.323  0.3140 -0.0870  0.2955
  674MOL0     C90891  13.967   9.796   9.393 -0.5271 -0.5697  0.3385
  674MOL0     C90892  14.086   9.785   9.306 -0.1465  0.0484  0.1369
  674MOL0     C90893  14.217   9.732   9.380  0.1754  0.5597  0.1363
  674MOL0     C90894  14.334   9.704   9.282  0.8255  0.4972 -0.7398
  674MOL0     C90895  14.460   9.640   9.346  0.9022 -0.2954 -0.2831
  674MOL0     C90896  14.558   9.735   9.424  0.6537  0.6584  0.8843
  674MOL0     C90897  14.703   9.685   9.417 -0.3886 -0.3123  0.2734
  674MOL0     C90898  14.721   9.554   9.504  0.1362 -0.3831  0.0038
  674MOL0    Cl90899  14.887   9.532   9.553  0.1693 -0.6902  0.0948
  674MOL0     C90900  13.649   9.988   9.307 -0.6827  0.1467  0.4407
  674MOL0     C90901  13.536  10.035   9.369  0.5372 -0.4609  0.1353
  674MOL0     O90902  13.282   9.895   9.431  0.3011 -0.3392  0.3451
  674MOL0     C90903  13.032   9.989   9.478  0.0471  0.6726  0.2769
  674MOL0     C90904  12.910  10.021   9.522  0.1322 -0.1345  0.0165
  674MOL0     N90905  12.361  10.501   9.843 -1.0425  0.0719  0.6302
  674MOL0     N90906  12.270  10.588   9.801 -0.5672  0.1198 -1.5029
  674MOL0     C90907  11.622  10.713   9.028  0.4157 -0.4734 -0.3590
  674MOL0     C90908  11.485  10.736   9.002  0.5849 -0.1805 -0.1818
  674MOL0     C90909  11.040  10.710   8.949 -0.5369 -0.7156  0.8006
  674MOL0     C90910  10.971  10.741   8.835 -0.1262  0.6496  0.0589
  674MOL0     C90911  10.832  10.748   8.820  0.3239  0.0026 -0.2116
  674MOL0     C90912  10.745  10.710   8.928  0.4952 -0.4358  0.4751
  674MOL0     O90913  10.606  10.703   8.927  0.2289 -0.6930 -0.3930
  674MOL0     C90914  10.535  10.728   8.801 -0.3278 -0.2671  0.5966
  674MOL0     C90915  10.535  10.874   8.748  0.4199  0.2168 -0.2775
  674MOL0     C90916  10.467  10.891   8.603  0.6905  0.0400 -0.6807
  674MOL0     C90917  10.454  11.039   8.558  0.2382  0.6675 -0.3036
  674MOL0     C90918  10.379  11.112   8.659  0.1459  0.8768  0.7397
  674MOL0     C90919  10.316  11.171   8.742  1.4690 -1.2081 -0.3453
  674MOL0     C90920  10.809  10.689   9.046 -0.2365 -1.0535  0.0728
  674MOL0     C90921  10.954  10.691   9.064  0.3533 -0.8204  0.4959
  674MOL0     C90922  11.011  10.662   9.210  0.3508  0.8592 -0.0370
  674MOL0     H90923  11.349  10.586   9.271  0.6788 -3.8537  1.1178
  674MOL0     H90924  11.587  10.534   9.315  3.3502  3.5262  0.8535
  674MOL0     H90925  11.889  10.611   8.995 -1.3757 -1.1878  1.3948
  674MOL0     H90926  11.875  10.780   9.069  0.2115  0.3102 -0.2550
  674MOL0     H90927  12.094  10.642   9.033  0.2224  2.2588 -0.6417
  674MOL0     H90928  12.065  10.539   9.163 -0.1718 -0.0245  0.1644
  674MOL0     H90929  12.116  10.838   9.182 -1.2416  0.2446 -0.7026
  674MOL0     H90930  12.205  10.702   9.242  0.7034 -0.2260 -3.2653
  674MOL0     H90931  11.923  10.788   9.345 -0.1092 -1.2726 -1.6821
  674MOL0     H90932  12.042  10.668   9.417 -0.7032  0.0985  0.3841
  674MOL0     H90933  12.030  10.963   9.384 -0.9001 -0.4870  0.2896
  674MOL0     H90934  12.036  10.878   9.537 -1.0720 -0.8735 -0.1539
  674MOL0     H90935  12.253  10.944   9.350 -0.6151 -1.8288 -0.9093
  674MOL0     H90936  12.229  11.005   9.505 -3.6615  0.7106 -0.3986
  674MOL0     H90937  12.406  10.835   9.497 -0.4986  1.6360  0.2363
  674MOL0     H90938  12.295  10.704   9.465  2.3899  2.0651 -1.7751
  674MOL0     H90939  12.337  10.886   9.711 -0.8048  0.2261 -0.4869
  674MOL0     H90940  12.179  10.806   9.693 -1.4243  0.8471 -1.2388
  674MOL0     H90941  12.563  10.725   9.726  0.7875 -2.2539 -0.9798
  674MOL0     H90942  12.702  10.533   9.849  0.3606  1.3723  2.7426
  674MOL0     H90943  12.601  10.480   9.975  1.3597 -3.4831 -0.1497
  674MOL0     H90944  12.679  10.278   9.874 -1.1981 -0.1273 -0.0262
  674MOL0     H90945  12.521  10.292   9.809  0.5016 -0.9593  1.9993
  674MOL0     H90946  12.786  10.386   9.686 -0.3619 -0.0890  0.9205
  674MOL0     H90947  12.634  10.424   9.612 -0.1002  0.1057 -1.0824
  674MOL0     H90948  12.737  10.219   9.502 -2.0987  0.3582 -0.9941
  674MOL0     H90949  12.578  10.193   9.575 -0.5492  5.0044 -2.8130
  674MOL0     H90950  12.989  10.193   9.810  1.3313 -0.9615  1.3642
  674MOL0     H90951  13.220  10.130   9.736  0.0717  1.5529 -1.0297
  674MOL0     H90952  13.586   9.935   9.680 -1.4464 -0.4409  0.0353
  674MOL0     H90953  13.793   9.847   9.585  0.4996 -0.2924 -0.6871
  674MOL0     H90954  14.009   9.848   9.479  1.6582 -1.0674 -0.3632
  674MOL0     H90955  13.927   9.699   9.425 -0.4320 -0.4073  0.9623
  674MOL0     H90956  14.055   9.726   9.219 -1.0896  1.5133 -0.5541
  674MOL0     H90957  14.109   9.884   9.266  0.5409  0.1599  0.7988
  674MOL0     H90958  14.244   9.803   9.459 -0.0362  1.5753 -0.6934
  674MOL0     H90959  14.193   9.631   9.416 -1.3537  0.8379 -0.0276
  674MOL0     H90960  14.366   9.792   9.227  0.2426  0.1487 -1.6489
  674MOL0     H90961  14.296   9.631   9.211 -2.1270  1.4773 -0.2877
  674MOL0     H90962  14.517   9.590   9.267  1.0384 -1.0634  0.2883
  674MOL0     H90963  14.423   9.560   9.411 -0.2782  1.5996  1.4870
  674MOL0     H90964  14.545   9.830   9.371 -2.4100 -1.4043 -2.5196
  674MOL0     H90965  14.531   9.735   9.530  0.7168  1.5481  0.9088
  674MOL0     H90966  14.762   9.761   9.468 -2.3376  0.5151  1.3681
  674MOL0     H90967  14.734   9.668   9.313 -0.2424 -1.6027  0.5097
  674MOL0     H90968  14.667   9.567   9.598  1.5260 -0.3207  0.8295
  674MOL0     H90969  14.675   9.465   9.462 -0.9596 -0.7818  1.9333
  674MOL0     H90970  13.673  10.012   9.204  1.8299  0.6771  1.0938
  674MOL0     H90971  13.471  10.103   9.314  0.8719  2.4661  3.0484
  674MOL0     H90972  13.052   9.934   9.386 -2.2701  0.8786 -0.4108
  674MOL0     H90973  12.825   9.981   9.467  0.3815 -0.0804 -0.4104
  674MOL0     H90974  11.689  10.768   8.964 -1.2719  0.0341 -1.7786
  674MOL0     H90975  11.453  10.809   8.928 -0.8967 -1.0919 -0.4956
  674MOL0     H90976  11.029  10.750   8.744  2.3311  0.3600  1.5220
  674MOL0     H90977  10.798  10.754   8.717 -2.0756 -3.2691  0.2377
  674MOL0     H90978  10.432  10.698   8.823  0.1178 -0.9006  1.9344
  674MOL0     H90979  10.572  10.661   8.723 -0.7050 -1.3083  1.2843
  674MOL0     H90980  10.634  10.920   8.749  0.6291 -0.2111 -0.8425
  674MOL0     H90981  10.481  10.931   8.823  0.8657 -0.9354  0.9545
  674MOL0     H90982  10.360  10.867   8.603  0.6587  0.1696  0.0365
  674MOL0     H90983  10.521  10.830   8.530 -1.9227  0.9622 -3.6415
  674MOL0     H90984  10.545  11.092   8.530 -0.9146  2.1625 -1.3574
  674MOL0     H90985  10.403  11.046   8.461  1.8636  5.4637 -1.0496
  674MOL0     H90986  10.259  11.228   8.814  1.4989  0.3046 -1.4746
  674MOL0     H90987  10.751  10.671   9.137 -4.2295 -1.9724 -2.4128
  674MOL0     H90988  11.082  10.740   9.239  1.7966 -0.1259 -0.8011
  674MOL0     H90989  10.936  10.656   9.290 -0.2427 -1.3352 -0.6764
  674MOL0     H90990  11.061  10.565   9.205 -0.9603  0.1867 -0.6393
  675MOL0     O90991   0.269   8.258   8.360  0.2203 -0.6720 -0.3696
  675MOL0     C90992   0.166   8.259   8.289 -0.0734 -0.6526  0.6194
  675MOL0     O90993   0.158   8.245   8.152 -0.5409  0.4799  0.3620
  675MOL0     C90994   0.275   8.222   8.092 -0.4932  0.7750  0.2054
  675MOL0     C90995   0.336   8.098   8.116 -0.2739 -0.5909  0.8489
  675MOL0     C90996   0.461   8.065   8.053  0.7646 -0.0580  0.2486
  675MOL0     C90997   0.524   8.164   7.969  0.3791  0.0515  0.9032
  675MOL0     O90998   0.634   8.144   7.894  0.1378  0.5955 -0.3105
  675MOL0     C90999   0.699   8.019   7.915  0.5788  0.2399 -0.2821
  675MOL0     C91000   0.806   8.010   7.808 -0.3113  0.5207 -0.5318
  675MOL0     C91001   0.940   8.069   7.848 -0.4665  0.6509 -0.0191
  675MOL0     C91002   1.036   8.027   7.731 -0.6768  0.2523 -0.1396
  675MOL0     C91003   1.170   8.106   7.751 -0.3878 -0.2367 -0.4366
  675MOL0     C91004   1.275   8.029   7.835 -0.0335  0.7562  0.2913
  675MOL0     C91005   1.410   8.103   7.863 -0.1569 -0.2929  0.0320
  675MOL0     C91006   1.500   8.034   7.969  0.0776 -0.6613  0.3745
  675MOL0     N91007   1.610   8.134   8.010 -0.0402  0.6079 -0.1347
  675MOL0     C91008   1.691   8.212   7.934  0.2209  0.8119 -0.3621
  675MOL0     C91009   1.785   8.252   8.022  0.5136 -0.1597  0.4408
  675MOL0     C91010   1.892   8.362   8.014  0.0162  0.7837 -0.0288
  675MOL0     C91011   1.962   8.377   7.881  0.1693 -0.5149 -0.3026
  675MOL0     C91012   2.068   8.265   7.859 -0.8287  0.4284  0.2406
  675MOL0     C91013   2.093   8.240   7.707  0.3802 -0.0742 -0.4439
  675MOL0     O91014   2.121   8.358   7.640  0.1744 -0.5063  0.3469
  675MOL0     C91015   2.256   8.398   7.629  0.5317 -0.6015  0.3303
  675MOL0     C91016   2.369   8.335   7.679  0.5909 -0.7682  0.0076
  675MOL0     C91017   2.490   8.395   7.658  0.4208 -0.1250 -0.3249
  675MOL0     C91018   2.500   8.528   7.606 -0.2314  0.5870  0.3423
  675MOL0     C91019   2.638   8.594   7.598  0.0432  0.0231 -0.4709
  675MOL0     O91020   2.724   8.558   7.696 -0.3499 -0.6036 -0.2721
  675MOL0     C91021   2.849   8.611   7.685  0.3127  0.0773 -0.5621
  675MOL0     C91022   2.943   8.566   7.594  0.1046 -1.0979  0.0003
  675MOL0     C91023   3.066   8.631   7.593 -0.5041 -0.2881 -0.3666
  675MOL0     C91024   3.098   8.739   7.675 -0.9829 -0.0732 -0.3364
  675MOL0     O91025   3.226   8.792   7.697  0.0660  0.1462  0.1479
  675MOL0     C91026   3.312   8.788   7.588  0.7375  0.4964  0.5318
  675MOL0     C91027   3.446   8.861   7.619  0.0790 -0.6239 -0.0890
  675MOL0     C91028   3.430   9.009   7.620  0.7765 -0.3286  0.8201
  675MOL0     C91029   3.536   9.078   7.706 -0.2729 -0.7210 -1.2794
  675MOL0     C91030   3.674   9.072   7.649 -0.3763  0.0174 -0.5151
  675MOL0     C91031   3.779   9.137   7.743 -0.2636 -0.0555  0.6114
  675MOL0     C91032   3.764   9.282   7.753  0.0756  0.2402  0.1913
  675MOL0     C91033   3.869   9.349   7.835 -0.8249  0.8959 -0.5693
  675MOL0    Cl91034   3.831   9.337   8.007  0.3581 -0.0184 -0.2854
  675MOL0     C91035   3.005   8.780   7.763  0.9338 -1.0194 -0.1918
  675MOL0     C91036   2.882   8.723   7.773  0.0218  0.3598  1.1831
  675MOL0     O91037   2.662   8.675   7.507 -0.2175 -0.2269 -0.3322
  675MOL0     C91038   2.388   8.583   7.550 -0.2084 -0.9590  0.2932
  675MOL0     C91039   2.267   8.517   7.563 -0.2808 -0.5071 -0.0365
  675MOL0     N91040   1.771   8.181   8.142  0.9764  0.4689  0.4887
  675MOL0     N91041   1.659   8.121   8.133 -0.7407  0.2444  0.5769
  675MOL0     C91042   0.454   8.281   7.938  0.4953  0.0170  0.7539
  675MOL0     C91043   0.331   8.308   7.994 -0.1831 -0.1508 -0.6088
  675MOL0     C91044   0.043   8.259   8.369  0.0315  0.4388  0.3286
  675MOL0     C91045  -0.045   8.146   8.347 -0.0400  0.4241 -1.3848
  675MOL0     C91046  -0.165   8.145   8.422 -0.7194  0.3762 -1.1766
  675MOL0     C91047  -0.198   8.229   8.526  0.5519  0.0069  0.2321
  675MOL0     O91048  -0.321   8.200   8.587 -0.1763 -0.3058  0.3181
  675MOL0     C91049  -0.366   8.291   8.693 -0.3260  0.2451  0.5081
  675MOL0     C91050  -0.435   8.412   8.626 -0.3895 -0.3268 -0.2914
  675MOL0     C91051  -0.555   8.367   8.539  0.1408  0.5070 -1.0745
  675MOL0     C91052  -0.643   8.490   8.535  0.0825  0.8374 -0.2917
  675MOL0     C91053  -0.750   8.478   8.436  0.3497 -0.6818  0.2550
  675MOL0     C91054  -0.834   8.463   8.353  0.4766 -0.4546 -0.5044
  675MOL0     C91055  -0.108   8.328   8.553 -1.1373 -0.5554  0.1046
  675MOL0     C91056   0.016   8.341   8.484 -0.0198 -0.6627 -0.2250
  675MOL0     C91057   0.094   8.463   8.523  0.4694 -0.4601  0.9328
  675MOL0     H91058   0.282   8.018   8.165 -1.8700 -3.3392 -4.5406
  675MOL0     H91059   0.494   7.964   8.075  0.6222  0.0389  0.9374
  675MOL0     H91060   0.742   8.009   8.015  2.2254  1.5418 -0.8086
  675MOL0     H91061   0.630   7.937   7.893  0.6193 -0.2695  1.3933
  675MOL0     H91062   0.768   8.054   7.716 -0.1064 -1.4113 -1.5810
  675MOL0     H91063   0.821   7.905   7.782 -0.3116 -0.1033  1.7008
  675MOL0     H91064   0.981   8.033   7.943  1.4823  0.2242 -0.9731
  675MOL0     H91065   0.928   8.177   7.854  1.3099  0.8468  0.4892
  675MOL0     H91066   1.052   7.921   7.710  1.1923  0.4559  0.1546
  675MOL0     H91067   0.995   8.074   7.641 -2.4230  3.6331  2.2180
  675MOL0     H91068   1.208   8.140   7.654  1.6320  0.3928  0.5070
  675MOL0     H91069   1.141   8.193   7.810  0.9413 -0.3855  0.4890
  675MOL0     H91070   1.229   8.005   7.931 -0.5189 -1.4661 -0.4525
  675MOL0     H91071   1.283   7.929   7.794 -3.1766 -0.0304  1.3259
  675MOL0     H91072   1.389   8.198   7.913  0.0953 -0.4218  0.3805
  675MOL0     H91073   1.481   8.111   7.780  2.2749 -2.6801  1.7399
  675MOL0     H91074   1.443   7.993   8.053 -2.1599  0.7605 -0.3411
  675MOL0     H91075   1.542   7.942   7.928  1.1004 -0.1970  0.3710
  675MOL0     H91076   1.673   8.233   7.829  0.0382 -2.0678 -0.9680
  675MOL0     H91077   1.835   8.454   8.032 -1.5715 -0.1617 -0.0432
  675MOL0     H91078   1.966   8.337   8.090  1.6213  0.2569 -1.7116
  675MOL0     H91079   1.889   8.371   7.799  0.2355  2.7915 -0.7384
  675MOL0     H91080   2.016   8.472   7.880  1.7618 -1.3981 -1.1429
  675MOL0     H91081   2.036   8.174   7.911 -0.9269 -0.6740 -1.6454
  675MOL0     H91082   2.161   8.297   7.906 -0.5264 -0.6956  0.4309
  675MOL0     H91083   1.997   8.203   7.672 -0.1545  1.0570 -0.2299
  675MOL0     H91084   2.165   8.160   7.685  0.4651  0.5313 -2.6449
  675MOL0     H91085   2.345   8.244   7.734 -3.0701 -1.5642 -2.5709
  675MOL0     H91086   2.578   8.342   7.692 -1.5122 -2.4304  1.4128
  675MOL0     H91087   2.913   8.484   7.529  2.3865 -0.7345 -1.6242
  675MOL0     H91088   3.143   8.604   7.521  1.2808 -0.3155  1.4719
  675MOL0     H91089   3.340   8.685   7.562 -1.0661  0.2426 -0.5408
  675MOL0     H91090   3.264   8.827   7.498 -0.7767  0.2225  1.2070
  675MOL0     H91091   3.479   8.804   7.706 -2.6262 -0.4711  1.1477
  675MOL0     H91092   3.517   8.834   7.540 -0.4450 -1.4884 -0.2839
  675MOL0     H91093   3.435   9.050   7.519 -1.3099 -1.4682  0.1967
  675MOL0     H91094   3.325   9.025   7.647 -0.1074 -0.0869 -2.3212
  675MOL0     H91095   3.526   9.037   7.807  1.5043  1.9987  0.1398
  675MOL0     H91096   3.504   9.181   7.720  1.8009 -0.0944 -0.7513
  675MOL0     H91097   3.680   9.113   7.548  2.1503 -2.3818 -1.4506
  675MOL0     H91098   3.699   8.966   7.650  0.3546  0.1892 -0.3671
  675MOL0     H91099   3.775   9.091   7.842  0.8322 -2.4816 -0.3700
  675MOL0     H91100   3.874   9.112   7.695 -0.5630  0.5550 -0.3431
  675MOL0     H91101   3.664   9.317   7.782 -0.5981 -0.5563 -1.0608
  675MOL0     H91102   3.790   9.315   7.652  1.8020  0.2984  0.6165
  675MOL0     H91103   3.969   9.306   7.823  1.2304  4.0861  2.9303
  675MOL0     H91104   3.872   9.453   7.800 -0.8984  1.1531  0.1706
  675MOL0     H91105   3.023   8.861   7.833 -0.8753 -0.0015 -0.8216
  675MOL0     H91106   2.819   8.753   7.857 -0.2736 -0.7646  1.3819
  675MOL0     H91107   2.396   8.676   7.495  0.9237 -0.9786  0.3855
  675MOL0     H91108   2.174   8.556   7.524 -0.4100 -1.3737 -0.6392
  675MOL0     H91109   0.507   8.346   7.869 -0.5705  0.1149  0.0098
  675MOL0     H91110   0.264   8.385   7.958 -1.1247 -0.5859  0.1382
  675MOL0     H91111  -0.027   8.068   8.274 -0.8317  2.3002 -3.7189
  675MOL0     H91112  -0.232   8.061   8.407 -0.2581 -0.5559  1.4659
  675MOL0     H91113  -0.281   8.314   8.757 -0.4476 -0.9709  1.1355
  675MOL0     H91114  -0.447   8.247   8.752 -1.3901  1.0676 -0.3062
  675MOL0     H91115  -0.362   8.467   8.565 -0.2822  0.0984  0.2158
  675MOL0     H91116  -0.465   8.482   8.704 -1.2165 -1.9127  0.8632
  675MOL0     H91117  -0.601   8.277   8.581 -0.0504  1.2645  0.4177
  675MOL0     H91118  -0.527   8.344   8.436  0.6936  0.6804 -0.9640
  675MOL0     H91119  -0.691   8.499   8.633  0.4726 -0.5555  0.0551
  675MOL0     H91120  -0.580   8.578   8.520 -0.4453  1.7582  2.2926
  675MOL0     H91121  -0.904   8.435   8.277 -0.4451 -0.4186  0.3086
  675MOL0     H91122  -0.131   8.405   8.626  0.7138 -0.2916  0.4599
  675MOL0     H91123   0.102   8.532   8.439 -4.6366 -1.6152 -0.8705
  675MOL0     H91124   0.040   8.508   8.607  4.0304 -1.5682  4.1122
  675MOL0     H91125   0.192   8.434   8.561 -0.4174 -1.3907  2.6541
  676MOL0     O91126   2.126   6.242   5.198 -0.1685 -0.1260  0.0661
  676MOL0     C91127   2.053   6.148   5.180  0.6314  0.1184 -0.1612
  676MOL0     O91128   2.089   6.016   5.151 -0.3748 -0.2470  0.4026
  676MOL0     C91129   2.211   5.993   5.088 -0.0710 -0.2204 -0.1173
  676MOL0     C91130   2.277   5.869   5.110  0.4892 -0.4457 -0.3676
  676MOL0     C91131   2.402   5.837   5.053  0.4275  0.2846  0.0543
  676MOL0     C91132   2.472   5.933   4.982  0.3413  0.2193 -0.7930
  676MOL0     O91133   2.599   5.932   4.941  0.3798  0.4046 -0.2243
  676MOL0     C91134   2.692   5.859   5.020 -0.3357  0.3663 -0.6923
  676MOL0     C91135   2.733   5.738   4.928 -0.0935  0.2569 -0.4633
  676MOL0     C91136   2.825   5.779   4.814 -0.8511  0.4294  0.1051
  676MOL0     C91137   2.910   5.666   4.756  0.2228  0.1564 -0.2636
  676MOL0     C91138   2.840   5.569   4.661  0.4117  0.0177 -0.7570
  676MOL0     C91139   2.917   5.453   4.612  0.0640  0.3555 -0.9590
  676MOL0     C91140   2.960   5.352   4.720  0.8777  0.5161 -0.7548
  676MOL0     C91141   3.058   5.236   4.682 -0.3399 -0.1802  0.3341
  676MOL0     N91142   3.189   5.287   4.630 -0.7708 -0.0910  0.0654
  676MOL0     C91143   3.303   5.305   4.697  0.1076 -0.1665 -0.6032
  676MOL0     C91144   3.398   5.337   4.606  0.7159 -0.6612  0.3837
  676MOL0     C91145   3.543   5.376   4.628  0.1379 -0.6219  0.3337
  676MOL0     C91146   3.634   5.263   4.580  0.4576  0.3356  0.5125
  676MOL0     C91147   3.780   5.282   4.610  0.1576  0.1582  0.3955
  676MOL0     C91148   3.864   5.168   4.548 -0.1031 -0.2132 -0.0456
  676MOL0     O91149   3.841   5.052   4.633  0.3132  0.3050 -0.2944
  676MOL0     C91150   3.941   4.966   4.654  0.0533 -0.4042 -0.4140
  676MOL0     C91151   3.932   4.901   4.775 -0.9704 -0.1711 -0.6951
  676MOL0     C91152   4.033   4.812   4.827  0.4401  0.0975 -0.3314
  676MOL0     C91153   4.142   4.786   4.742 -0.9709 -0.5703 -0.5429
  676MOL0     C91154   4.257   4.699   4.781  0.1577 -0.5664  0.0373
  676MOL0     O91155   4.375   4.699   4.701 -0.6373  0.3971 -0.2130
  676MOL0     C91156   4.490   4.653   4.758 -0.2052 -0.4201  0.1830
  676MOL0     C91157   4.504   4.521   4.778 -0.4412  0.6099  0.0122
  676MOL0     C91158   4.629   4.470   4.838 -0.9293  0.6585  0.0330
  676MOL0     C91159   4.736   4.551   4.862  0.3737 -1.3279  0.0385
  676MOL0     O91160   4.854   4.500   4.905 -0.3281 -0.1721 -0.0385
  676MOL0     C91161   4.973   4.569   4.880  0.5276  0.4395  0.2463
  676MOL0     C91162   5.087   4.467   4.906  0.0672  0.4288  0.3729
  676MOL0     C91163   5.096   4.443   5.061  0.0687 -0.4200 -0.1046
  676MOL0     C91164   5.153   4.302   5.096 -0.6227 -0.4416 -0.1612
  676MOL0     C91165   5.296   4.295   5.024  0.2237 -0.2558  0.0773
  676MOL0     C91166   5.377   4.187   5.091  0.2675 -0.2068 -0.5009
  676MOL0     C91167   5.510   4.175   5.022 -0.3690 -0.5005 -0.0229
  676MOL0     C91168   5.598   4.080   5.099 -0.0069 -0.0606  0.1913
  676MOL0    Cl91169   5.666   4.175   5.239  0.4320 -0.1189  0.4121
  676MOL0     C91170   4.709   4.697   4.850 -0.1700  0.9163  0.3748
  676MOL0     C91171   4.590   4.743   4.800 -0.3052 -0.3005  0.5589
  676MOL0     O91172   4.245   4.657   4.897 -0.2309  0.7450  0.4470
  676MOL0     C91173   4.154   4.854   4.619  0.3673  0.2343 -0.2782
  676MOL0     C91174   4.057   4.950   4.582 -0.2023 -0.7045  0.4869
  676MOL0     N91175   3.333   5.353   4.484  0.1728  0.1418  0.0817
  676MOL0     N91176   3.206   5.328   4.502 -1.2121  0.3527  0.2044
  676MOL0     C91177   2.402   6.050   4.945 -0.6153 -0.7246 -0.2307
  676MOL0     C91178   2.277   6.078   4.999 -0.5463 -0.8659  0.3950
  676MOL0     C91179   1.906   6.170   5.197 -0.4749  0.5853  0.1481
  676MOL0     C91180   1.834   6.050   5.232  0.2125 -0.1603 -1.0279
  676MOL0     C91181   1.694   6.067   5.269  0.4678  0.0769 -0.6031
  676MOL0     C91182   1.633   6.182   5.236  0.9547 -0.0990  0.3428
  676MOL0     O91183   1.491   6.197   5.247  0.2108  0.2282  0.0972
  676MOL0     C91184   1.413   6.076   5.226  0.1545 -0.5223  0.5796
  676MOL0     C91185   1.262   6.110   5.214  0.8466  0.1759 -0.4732
  676MOL0     C91186   1.169   6.001   5.262  0.5282  0.5407 -1.0041
  676MOL0     C91187   1.169   5.982   5.420  0.4797 -0.4901 -0.2200
  676MOL0     C91188   1.128   6.114   5.473 -0.2829  0.2623  0.0257
  676MOL0     C91189   1.098   6.214   5.519  0.1803 -0.1595 -0.1436
  676MOL0     C91190   1.701   6.290   5.186  0.6479 -0.0489 -0.1110
  676MOL0     C91191   1.838   6.287   5.170 -0.7793  0.2842 -0.3797
  676MOL0     C91192   1.910   6.408   5.114 -0.8141  0.0696  0.0711
  676MOL0     H91193   2.228   5.784   5.156 -0.3638  0.1346 -0.1939
  676MOL0     H91194   2.447   5.739   5.067 -1.4187 -0.5287  0.5584
  676MOL0     H91195   2.780   5.922   5.034 -0.2173 -0.0091  0.3665
  676MOL0     H91196   2.652   5.829   5.117 -1.4171  1.6585 -0.7192
  676MOL0     H91197   2.653   5.681   4.879  0.8995 -2.1220  0.5025
  676MOL0     H91198   2.785   5.664   4.989 -0.4537 -0.9294 -1.5321
  676MOL0     H91199   2.897   5.854   4.847 -0.4989  1.8238 -3.4517
  676MOL0     H91200   2.772   5.823   4.729  0.4920  4.3013  1.0615
  676MOL0     H91201   2.988   5.714   4.696 -1.6656  0.3499 -2.7380
  676MOL0     H91202   2.969   5.619   4.836 -0.1342 -0.5622 -0.4088
  676MOL0     H91203   2.748   5.527   4.702  0.9926  0.7374  1.4155
  676MOL0     H91204   2.811   5.622   4.570 -1.4993  0.6579  0.1645
  676MOL0     H91205   2.861   5.390   4.542  1.1074 -4.5713  2.1615
  676MOL0     H91206   3.012   5.480   4.564  1.7569 -2.5448  0.4342
  676MOL0     H91207   2.876   5.307   4.773  3.6257 -1.4850  2.2507
  676MOL0     H91208   3.011   5.392   4.808  2.3930 -4.2853  0.8688
  676MOL0     H91209   3.081   5.170   4.766  3.6489 -1.6218 -1.6298
  676MOL0     H91210   2.998   5.177   4.612 -1.0583 -1.4755  1.9729
  676MOL0     H91211   3.324   5.277   4.800 -0.9547  0.6884 -0.1342
  676MOL0     H91212   3.564   5.467   4.570 -1.3062 -1.2383 -1.2397
  676MOL0     H91213   3.538   5.398   4.735  0.5961 -1.0942  0.4549
  676MOL0     H91214   3.596   5.176   4.633 -3.3963  1.3026 -0.3644
  676MOL0     H91215   3.615   5.255   4.473  2.5124  1.4585 -0.0032
  676MOL0     H91216   3.806   5.275   4.716 -0.3775  2.2672  0.7175
  676MOL0     H91217   3.819   5.378   4.574  2.0488 -1.2845 -1.6694
  676MOL0     H91218   3.969   5.200   4.548 -0.1892  0.2752 -2.1736
  676MOL0     H91219   3.833   5.145   4.445 -1.8569 -0.1227  0.4225
  676MOL0     H91220   3.846   4.919   4.838 -0.9422  1.5645 -1.0922
  676MOL0     H91221   4.031   4.766   4.925  0.2103  0.7915 -0.0002
  676MOL0     H91222   4.427   4.450   4.750 -0.0375 -0.4244  1.4155
  676MOL0     H91223   4.641   4.365   4.865 -1.5095  0.3254 -0.9931
  676MOL0     H91224   4.973   4.607   4.777 -0.3524  1.4505  0.6073
  676MOL0     H91225   4.988   4.654   4.947  0.9380  1.0339 -0.5809
  676MOL0     H91226   5.059   4.373   4.855 -2.6160  0.0618  2.2869
  676MOL0     H91227   5.178   4.507   4.860  0.7973 -2.5994 -1.1439
  676MOL0     H91228   5.165   4.519   5.102  1.8465 -0.1963 -3.2249
  676MOL0     H91229   4.999   4.459   5.108  0.9211 -1.4281  2.1921
  676MOL0     H91230   5.106   4.217   5.046 -0.1330 -0.1894 -1.0968
  676MOL0     H91231   5.148   4.289   5.204 -0.9931  0.4521 -0.0632
  676MOL0     H91232   5.345   4.391   5.041 -0.7382  0.4387 -0.8847
  676MOL0     H91233   5.277   4.280   4.917 -1.3449  0.4103  0.2323
  676MOL0     H91234   5.384   4.197   5.199 -0.9005 -0.9400 -0.3410
  676MOL0     H91235   5.319   4.096   5.075 -0.8570  0.7124 -1.9251
  676MOL0     H91236   5.566   4.268   5.019  1.9296 -1.8220 -0.4972
  676MOL0     H91237   5.501   4.141   4.919  0.8397  0.8562 -0.5981
  676MOL0     H91238   5.543   3.990   5.128  1.8354 -1.6025 -0.8388
  676MOL0     H91239   5.678   4.036   5.038  0.6726 -1.7888  2.1916
  676MOL0     H91240   4.771   4.775   4.891 -1.8457  2.4068  0.1686
  676MOL0     H91241   4.573   4.850   4.789 -0.6925 -0.5195 -1.4538
  676MOL0     H91242   4.242   4.849   4.556 -0.4089 -1.9457 -1.2818
  676MOL0     H91243   4.073   4.997   4.486  0.7135 -3.5755 -0.8823
  676MOL0     H91244   2.452   6.115   4.874  0.9298 -0.8827  0.6536
  676MOL0     H91245   2.242   6.175   4.964  0.9582  0.5761  2.6314
  676MOL0     H91246   1.877   5.951   5.245 -0.2006 -0.3138 -0.7770
  676MOL0     H91247   1.637   5.978   5.296  2.3561 -1.7009 -2.2060
  676MOL0     H91248   1.436   5.999   5.300  0.8292 -1.8051 -0.9125
  676MOL0     H91249   1.455   6.035   5.133 -0.0173  1.0332 -0.2237
  676MOL0     H91250   1.238   6.118   5.107  1.5989  0.1685 -0.6505
  676MOL0     H91251   1.247   6.201   5.273  0.3336 -0.8907  1.1132
  676MOL0     H91252   1.208   5.904   5.229  0.6749 -2.1061  5.5260
  676MOL0     H91253   1.064   6.007   5.232 -0.1526 -3.7179 -0.1213
  676MOL0     H91254   1.091   5.911   5.450  0.3142  0.4728  1.8754
  676MOL0     H91255   1.273   5.958   5.445  0.8409  0.8725 -0.3314
  676MOL0     H91256   1.058   6.311   5.537 -1.9031 -0.6377 -1.6768
  676MOL0     H91257   1.642   6.378   5.163 -1.7180 -1.6085 -0.3358
  676MOL0     H91258   1.949   6.471   5.195 -0.8268  1.6803 -1.1289
  676MOL0     H91259   1.991   6.376   5.049 -2.6114  0.2894 -2.4015
  676MOL0     H91260   1.854   6.477   5.050  1.8446  1.4661 -0.9056
  677MOL0     O91261   7.293   1.066   2.972  0.3622  0.1588  0.0283
  677MOL0     C91262   7.248   1.157   3.042 -0.0397 -0.3818  0.7027
  677MOL0     O91263   7.326   1.241   3.121  0.0658 -0.2991  0.9404
  677MOL0     C91264   7.460   1.221   3.146  0.2145 -0.3938  0.1404
  677MOL0     C91265   7.497   1.157   3.266  0.7171  0.5806 -0.2509
  677MOL0     C91266   7.629   1.140   3.311 -0.1747  0.6865 -0.9559
  677MOL0     C91267   7.730   1.190   3.233 -0.0069  0.0058  0.1500
  677MOL0     O91268   7.868   1.197   3.265 -1.4485 -0.7536  0.5800
  677MOL0     C91269   7.914   1.124   3.376  0.4275  0.0753  0.4762
  677MOL0     C91270   8.064   1.109   3.362  0.4611 -0.5846  0.2522
  677MOL0     C91271   8.146   1.239   3.385 -1.1959  0.1364 -0.5823
  677MOL0     C91272   8.298   1.198   3.393 -0.1280 -0.2360 -0.0152
  677MOL0     C91273   8.345   1.161   3.532 -0.9175 -0.6182 -0.7786
  677MOL0     C91274   8.499   1.128   3.543  0.4313  0.4207 -0.1446
  677MOL0     C91275   8.587   1.242   3.491 -0.0694  1.0341  0.3512
  677MOL0     C91276   8.612   1.361   3.579  0.8353  0.3727 -0.0799
  677MOL0     N91277   8.647   1.335   3.716 -0.0151 -0.5609  0.0490
  677MOL0     C91278   8.771   1.316   3.779 -0.6383 -0.3306  0.1828
  677MOL0     C91279   8.749   1.287   3.907 -0.9085 -0.0623 -0.2073
  677MOL0     C91280   8.839   1.235   4.024  0.1565 -0.9259  0.0775
  677MOL0     C91281   8.945   1.334   4.075 -0.4005  0.0596  0.3855
  677MOL0     C91282   9.014   1.275   4.210  0.2616 -0.2959  0.8269
  677MOL0     C91283   9.165   1.287   4.195  0.1640  0.5087 -0.0049
  677MOL0     O91284   9.197   1.422   4.182 -0.8132  0.1308 -0.1635
  677MOL0     C91285   9.327   1.471   4.168  0.0184  1.0357 -0.2770
  677MOL0     C91286   9.445   1.393   4.179 -0.2755 -0.0218  0.4435
  677MOL0     C91287   9.574   1.450   4.170  0.6706 -0.3955  0.2693
  677MOL0     C91288   9.588   1.593   4.165  0.5457 -0.0512 -0.7048
  677MOL0     C91289   9.721   1.658   4.166  0.0389  0.1242  0.1569
  677MOL0     O91290   9.719   1.795   4.149  0.1662 -0.3139  0.6138
  677MOL0     C91291   9.820   1.880   4.141 -1.0469 -0.1634 -0.5209
  677MOL0     C91292   9.932   1.861   4.063  0.2363  0.4502 -0.3173
  677MOL0     C91293  10.039   1.946   4.076  0.2483  0.3707  0.1609
  677MOL0     C91294  10.030   2.065   4.143 -0.4899 -0.0779 -0.3061
  677MOL0     O91295  10.143   2.145   4.132  0.0975  0.0238 -0.5638
  677MOL0     C91296  10.169   2.261   4.219 -0.8074  0.3500 -0.5727
  677MOL0     C91297  10.315   2.304   4.199 -0.7730 -0.5372 -0.2902
  677MOL0     C91298  10.413   2.216   4.268  0.2439 -0.3304 -0.4621
  677MOL0     C91299  10.550   2.256   4.216 -0.4054 -0.5388  0.5148
  677MOL0     C91300  10.654   2.147   4.226  0.1780  0.3499 -0.1793
  677MOL0     C91301  10.777   2.169   4.141 -0.3456  0.9619 -0.1838
  677MOL0     C91302  10.867   2.043   4.154  0.4591 -1.1169  0.1459
  677MOL0     C91303  10.840   1.934   4.057  0.0386 -0.7533  0.5028
  677MOL0    Cl91304  10.908   1.977   3.888  0.3496  0.1950 -0.1499
  677MOL0     C91305   9.913   2.101   4.206 -0.0330  0.3088 -0.4609
  677MOL0     C91306   9.807   2.003   4.210 -0.2772  0.0987 -0.0594
  677MOL0     O91307   9.819   1.595   4.182 -0.3768  0.0895  0.0445
  677MOL0     C91308   9.470   1.666   4.160 -0.4382  0.0154 -0.6036
  677MOL0     C91309   9.344   1.610   4.162 -0.4743  0.3912 -0.0371
  677MOL0     N91310   8.615   1.304   3.923 -0.6507 -0.9034  0.0592
  677MOL0     N91311   8.554   1.325   3.814 -0.5557 -0.2589 -0.2758
  677MOL0     C91312   7.696   1.244   3.102  0.6787  0.9827 -1.3680
  677MOL0     C91313   7.563   1.255   3.053 -0.5284  0.1675 -0.6676
  677MOL0     C91314   7.099   1.170   3.052 -0.0374  0.4011  0.3450
  677MOL0     C91315   7.037   1.224   3.166 -0.8668 -0.2987  0.6873
  677MOL0     C91316   6.902   1.233   3.169  0.3390 -0.8487 -0.0157
  677MOL0     C91317   6.826   1.192   3.064  0.7751 -1.1989  0.3231
  677MOL0     O91318   6.690   1.211   3.052  0.2872  0.4349  0.5909
  677MOL0     C91319   6.602   1.272   3.151 -0.2717  0.0383  1.1435
  677MOL0     C91320   6.477   1.178   3.172 -0.7536 -0.6026 -0.6971
  677MOL0     C91321   6.402   1.227   3.297 -0.0197  0.2057  0.6909
  677MOL0     C91322   6.273   1.306   3.277  0.5192 -0.0323 -0.0858
  677MOL0     C91323   6.284   1.447   3.234 -0.0555  0.1808 -0.1148
  677MOL0     C91324   6.312   1.562   3.224  0.1289 -0.2758 -0.5756
  677MOL0     C91325   6.883   1.152   2.947  0.3276  0.6476 -1.0511
  677MOL0     C91326   7.024   1.128   2.942 -0.1651 -0.2081 -0.2835
  677MOL0     C91327   7.085   1.114   2.804  0.1394  0.5569  0.6835
  677MOL0     H91328   7.419   1.138   3.339  1.6733 -0.1308  0.6103
  677MOL0     H91329   7.651   1.103   3.411 -0.4328 -1.0480 -1.5205
  677MOL0     H91330   7.888   1.176   3.468 -0.6132 -0.4641  0.4954
  677MOL0     H91331   7.861   1.028   3.367  0.4958  0.1031 -0.3748
  677MOL0     H91332   8.094   1.069   3.264 -1.7478 -0.5004 -0.5052
  677MOL0     H91333   8.090   1.041   3.444 -0.4542  1.1388  2.0354
  677MOL0     H91334   8.114   1.300   3.470 -2.9675 -2.4807  0.7838
  677MOL0     H91335   8.145   1.298   3.293 -0.1148 -3.9637 -3.5217
  677MOL0     H91336   8.315   1.112   3.329  1.1403  1.2728 -1.8139
  677MOL0     H91337   8.356   1.285   3.360  0.2722 -0.6964 -0.5233
  677MOL0     H91338   8.313   1.240   3.601  0.3969 -1.8958  1.3922
  677MOL0     H91339   8.294   1.071   3.567 -1.0874  0.4110  1.8113
  677MOL0     H91340   8.522   1.114   3.649  2.5586 -2.2885 -0.8235
  677MOL0     H91341   8.527   1.029   3.504 -0.8986 -0.2606  0.5381
  677MOL0     H91342   8.541   1.281   3.400  0.0311  0.5269  0.0790
  677MOL0     H91343   8.687   1.205   3.463  1.3856  5.4429 -1.1149
  677MOL0     H91344   8.681   1.428   3.528  0.8617 -0.0852 -0.6590
  677MOL0     H91345   8.519   1.417   3.588 -0.2243 -0.8540 -2.5572
  677MOL0     H91346   8.872   1.308   3.741 -0.0141 -1.3010  1.9199
  677MOL0     H91347   8.770   1.217   4.107  0.7284  2.0392  1.3230
  677MOL0     H91348   8.893   1.142   4.002  0.4260 -0.5285 -1.0017
  677MOL0     H91349   9.021   1.355   3.998 -1.6602  2.0649 -0.3811
  677MOL0     H91350   8.898   1.429   4.100 -1.8231 -0.4129 -0.3945
  677MOL0     H91351   9.000   1.168   4.222 -0.1726 -0.0968  2.2850
  677MOL0     H91352   8.974   1.334   4.293 -1.2298  3.1098 -2.0094
  677MOL0     H91353   9.206   1.236   4.107 -1.0060 -0.1328 -0.1879
  677MOL0     H91354   9.217   1.247   4.283  0.3625  2.5371  0.8391
  677MOL0     H91355   9.441   1.285   4.180  0.0793 -0.1044  3.9940
  677MOL0     H91356   9.659   1.382   4.170  1.6363  0.7653  0.5908
  677MOL0     H91357   9.944   1.772   4.001  0.7687  0.6818 -0.5572
  677MOL0     H91358  10.131   1.931   4.019 -0.2497  0.1913 -0.6094
  677MOL0     H91359  10.104   2.348   4.208 -1.2054  0.4028  1.6164
  677MOL0     H91360  10.158   2.239   4.326  1.8383  0.7820 -0.1436
  677MOL0     H91361  10.337   2.308   4.092  1.3207 -0.9675  0.0776
  677MOL0     H91362  10.338   2.404   4.236  0.1481 -0.8471  0.0042
  677MOL0     H91363  10.403   2.235   4.375 -0.4525  0.3755 -0.6384
  677MOL0     H91364  10.394   2.111   4.246 -0.7931 -0.0379 -1.0435
  677MOL0     H91365  10.589   2.344   4.269  1.3626  0.6557 -2.4925
  677MOL0     H91366  10.538   2.284   4.111 -0.2418  1.4738  0.9950
  677MOL0     H91367  10.611   2.049   4.203  0.0355  0.6196 -1.1253
  677MOL0     H91368  10.681   2.143   4.332  1.3739  0.1133 -0.4757
  677MOL0     H91369  10.741   2.179   4.038  0.1545 -1.0024 -0.5763
  677MOL0     H91370  10.835   2.259   4.166  2.8406 -1.2265  0.8932
  677MOL0     H91371  10.872   2.002   4.256  1.5301 -3.1618 -0.6807
  677MOL0     H91372  10.968   2.074   4.130  0.7242 -0.7083  1.6900
  677MOL0     H91373  10.897   1.844   4.085  2.5986  1.0728  1.5999
  677MOL0     H91374  10.733   1.916   4.044 -0.3662  1.7815 -0.0621
  677MOL0     H91375   9.909   2.202   4.245 -1.0357 -0.8664  2.9146
  677MOL0     H91376   9.707   2.032   4.240 -0.7418  0.0670 -1.5112
  677MOL0     H91377   9.488   1.772   4.171 -1.4603  0.0176  1.4982
  677MOL0     H91378   9.254   1.672   4.162  0.9569  2.5741  0.2157
  677MOL0     H91379   7.784   1.270   3.045  5.2651 -1.8873  3.5005
  677MOL0     H91380   7.537   1.302   2.959 -2.4145  1.1363  0.2787
  677MOL0     H91381   7.096   1.244   3.255  0.1987  1.5563 -0.3825
  677MOL0     H91382   6.852   1.270   3.258  3.1503 -1.5475  1.9968
  677MOL0     H91383   6.571   1.374   3.125  2.5644  0.8896  0.7573
  677MOL0     H91384   6.655   1.283   3.246 -0.1944  1.6619  0.9424
  677MOL0     H91385   6.527   1.083   3.192 -1.0388 -0.5155  0.5238
  677MOL0     H91386   6.411   1.173   3.085 -0.4440  3.4061 -1.3527
  677MOL0     H91387   6.467   1.304   3.341  2.0873 -0.3637 -1.2317
  677MOL0     H91388   6.382   1.141   3.362 -0.1964 -0.3245 -0.0517
  677MOL0     H91389   6.196   1.255   3.218 -0.2571  2.3134 -1.2218
  677MOL0     H91390   6.213   1.297   3.368 -1.9097  0.4693 -1.5420
  677MOL0     H91391   6.347   1.661   3.205 -0.3320  0.0786  0.3628
  677MOL0     H91392   6.819   1.133   2.861 -1.9462 -3.0440  1.1828
  677MOL0     H91393   7.013   1.119   2.722 -0.1791 -1.7561  0.7602
  677MOL0     H91394   7.170   1.180   2.783 -0.7082  1.1104 -1.2544
  677MOL0     H91395   7.112   1.009   2.793 -0.9901  0.3980 -0.9867
  678MOL0     O91396   6.991   6.360   2.001 -0.7432  0.7131  0.4289
  678MOL0     C91397   6.904   6.376   2.085 -0.4479 -0.7191 -0.1633
  678MOL0     O91398   6.885   6.295   2.195 -0.0657 -0.8596  0.2126
  678MOL0     C91399   6.988   6.247   2.274  0.3859  0.3107  0.7139
  678MOL0     C91400   6.946   6.142   2.360  1.4601 -0.1484  0.2181
  678MOL0     C91401   7.032   6.104   2.459  0.0879 -0.4119  0.7464
  678MOL0     C91402   7.151   6.172   2.486 -0.3386  0.3319  0.1193
  678MOL0     O91403   7.231   6.138   2.595  0.2420 -0.3824  0.5501
  678MOL0     C91404   7.168   6.132   2.718 -0.6281 -0.4142 -0.2588
  678MOL0     C91405   7.251   6.142   2.844 -0.3559  0.2058 -0.2711
  678MOL0     C91406   7.384   6.062   2.839  0.2227 -0.2847 -0.6086
  678MOL0     C91407   7.363   5.910   2.816 -0.4776  0.9057 -0.3263
  678MOL0     C91408   7.502   5.827   2.822 -0.8595 -0.1487 -1.0054
  678MOL0     C91409   7.492   5.680   2.776 -0.5843  0.8239 -0.1580
  678MOL0     C91410   7.394   5.581   2.849  0.7690 -0.1786 -0.4744
  678MOL0     C91411   7.444   5.540   2.988 -0.0715 -0.0952 -0.0845
  678MOL0     N91412   7.386   5.413   3.034  0.1128  0.0597 -0.3710
  678MOL0     C91413   7.258   5.371   3.063  0.0167 -0.1284 -0.3588
  678MOL0     C91414   7.274   5.248   3.120  0.4812  0.2353  0.0867
  678MOL0     C91415   7.166   5.151   3.161 -0.1061  0.4116  0.2409
  678MOL0     C91416   7.103   5.193   3.299 -0.0806 -0.3096 -0.2638
  678MOL0     C91417   6.962   5.124   3.314 -0.6620 -0.0650 -0.9007
  678MOL0     C91418   6.898   5.177   3.444  0.1030  0.3314 -0.1172
  678MOL0     O91419   6.777   5.105   3.463  0.1104  0.5914  0.6454
  678MOL0     C91420   6.673   5.158   3.536  0.2748  0.5098 -0.2081
  678MOL0     C91421   6.682   5.275   3.614  0.3356 -0.0722  0.5111
  678MOL0     C91422   6.571   5.322   3.682  0.0330  0.8605  0.0675
  678MOL0     C91423   6.449   5.248   3.666 -0.4718 -0.0092  0.2600
  678MOL0     C91424   6.328   5.297   3.729 -0.9000  0.5374 -0.4084
  678MOL0     O91425   6.217   5.238   3.679  0.9979 -0.0509  0.0782
  678MOL0     C91426   6.087   5.280   3.700 -0.2233  0.4215  0.2870
  678MOL0     C91427   6.039   5.399   3.765 -1.3484 -1.2772 -0.1625
  678MOL0     C91428   5.903   5.432   3.778 -1.2364  0.0173 -0.2060
  678MOL0     C91429   5.814   5.345   3.726 -0.3048 -0.3220 -0.1554
  678MOL0     O91430   5.687   5.378   3.765  0.3892 -1.0329  0.2006
  678MOL0     C91431   5.582   5.289   3.733 -0.5718 -0.9160 -0.1504
  678MOL0     C91432   5.450   5.351   3.778 -0.0551 -0.6131 -0.2472
  678MOL0     C91433   5.427   5.491   3.713 -1.1639  0.7364  0.6487
  678MOL0     C91434   5.372   5.598   3.807 -0.8526  0.4091  0.1533
  678MOL0     C91435   5.240   5.551   3.860  0.5997  0.1795 -0.4265
  678MOL0     C91436   5.157   5.662   3.928  0.7165  0.5317 -0.2461
  678MOL0     C91437   5.235   5.759   4.014  0.0830  0.4327 -0.3412
  678MOL0     C91438   5.148   5.853   4.096 -0.0196 -0.3845 -0.6148
  678MOL0    Cl91439   5.077   5.768   4.228  0.0308 -0.0485  0.2520
  678MOL0     C91440   5.854   5.229   3.660 -0.1005  0.5415 -0.4267
  678MOL0     C91441   5.989   5.188   3.649  0.1080  0.0236 -0.5569
  678MOL0     O91442   6.332   5.375   3.819  0.1721 -0.2656  0.8746
  678MOL0     C91443   6.439   5.126   3.595  0.2151  0.1831 -0.0034
  678MOL0     C91444   6.553   5.082   3.526  0.1589  0.2125 -0.0543
  678MOL0     N91445   7.412   5.214   3.119  0.1062  0.2420 -0.2634
  678MOL0     N91446   7.474   5.316   3.067  1.4024 -0.1418  0.4097
  678MOL0     C91447   7.194   6.265   2.387 -0.1624  0.5712 -0.1139
  678MOL0     C91448   7.113   6.308   2.291  0.2209 -0.1886  0.7578
  678MOL0     C91449   6.793   6.476   2.055  1.0094  0.3660 -0.2757
  678MOL0     C91450   6.675   6.474   2.140  0.1078 -0.7439 -0.1206
  678MOL0     C91451   6.557   6.547   2.112  0.8590  0.7342  0.3748
  678MOL0     C91452   6.558   6.632   1.997 -0.2121 -1.6147 -0.3437
  678MOL0     O91453   6.444   6.694   1.940  0.9355  0.1004  0.3073
  678MOL0     C91454   6.322   6.674   2.002  0.0866 -0.1223 -0.1428
  678MOL0     C91455   6.256   6.543   1.974 -0.2519 -0.1648 -0.7253
  678MOL0     C91456   6.117   6.541   2.034  0.7569  0.2510  0.1671
  678MOL0     C91457   6.112   6.505   2.190  0.1804 -0.1418  0.6807
  678MOL0     C91458   5.970   6.490   2.234 -0.4058 -1.3915  0.5645
  678MOL0     C91459   5.856   6.492   2.272 -0.1017 -0.0202 -0.0620
  678MOL0     C91460   6.679   6.645   1.925 -0.2306 -0.1229  0.1112
  678MOL0     C91461   6.793   6.570   1.949  0.8484  0.3544  0.0180
  678MOL0     C91462   6.910   6.598   1.863  1.0820  0.7920  0.3683
  678MOL0     H91463   6.856   6.093   2.325  0.7268  1.8777 -0.9184
  678MOL0     H91464   7.008   6.018   2.521 -1.4410 -1.3103 -1.0116
  678MOL0     H91465   7.109   6.225   2.718 -0.5337 -0.3446  0.9071
  678MOL0     H91466   7.102   6.045   2.722 -0.0935 -0.8288 -0.4211
  678MOL0     H91467   7.188   6.102   2.924 -0.8966 -0.7958 -1.1749
  678MOL0     H91468   7.284   6.244   2.868 -2.8428  0.4615  2.7069
  678MOL0     H91469   7.437   6.077   2.933 -3.4128  0.2713  1.5733
  678MOL0     H91470   7.431   6.096   2.746  1.0892  0.9854  0.2704
  678MOL0     H91471   7.295   5.873   2.894  1.3467 -0.1845  0.8088
  678MOL0     H91472   7.319   5.874   2.722  0.6442 -2.4784  0.3151
  678MOL0     H91473   7.581   5.884   2.773 -0.1546  1.8808  2.2069
  678MOL0     H91474   7.536   5.824   2.925  2.3930  1.8974 -1.8741
  678MOL0     H91475   7.469   5.683   2.669  0.8671  0.9713 -0.4867
  678MOL0     H91476   7.592   5.636   2.779 -0.8567 -0.2904 -3.6840
  678MOL0     H91477   7.374   5.490   2.792 -1.3614 -0.9536  1.3473
  678MOL0     H91478   7.296   5.629   2.862  0.5359 -0.0851 -2.2493
  678MOL0     H91479   7.553   5.535   2.991 -0.1057 -0.1575  2.1553
  678MOL0     H91480   7.408   5.617   3.057 -1.5881 -1.1020  0.2912
  678MOL0     H91481   7.161   5.419   3.059 -0.7482 -1.4597  1.1892
  678MOL0     H91482   7.090   5.145   3.082 -0.7718 -2.8386  0.9768
  678MOL0     H91483   7.208   5.050   3.160 -0.6144  0.1634 -2.1665
  678MOL0     H91484   7.179   5.182   3.378  1.7817  0.3629 -1.8830
  678MOL0     H91485   7.082   5.300   3.303 -3.7425 -0.8337 -1.9084
  678MOL0     H91486   6.984   5.018   3.332  1.6453 -0.1446 -3.5157
  678MOL0     H91487   6.896   5.135   3.228 -1.0360 -2.6221 -1.0224
  678MOL0     H91488   6.873   5.282   3.432 -2.5707 -0.1637  0.4838
  678MOL0     H91489   6.962   5.166   3.532  1.6934 -2.2792 -1.4567
  678MOL0     H91490   6.778   5.327   3.612 -0.3517  1.2438 -1.5805
  678MOL0     H91491   6.582   5.416   3.734  4.8995  2.0047 -2.4318
  678MOL0     H91492   6.111   5.465   3.810  1.3974 -1.9189 -3.2279
  678MOL0     H91493   5.891   5.514   3.848  0.2992 -0.8245  1.0957
  678MOL0     H91494   5.581   5.268   3.626 -1.3344  1.9605 -0.7845
  678MOL0     H91495   5.609   5.197   3.787  2.0172  0.9393  1.9919
  678MOL0     H91496   5.368   5.287   3.744 -1.2320  1.8865 -2.5496
  678MOL0     H91497   5.449   5.359   3.887 -0.0962 -2.6378 -0.0582
  678MOL0     H91498   5.524   5.528   3.678 -1.7151  0.9632 -0.6965
  678MOL0     H91499   5.358   5.478   3.629  0.3540 -0.3319 -0.4762
  678MOL0     H91500   5.356   5.680   3.736 -0.6819 -0.6140 -1.1109
  678MOL0     H91501   5.434   5.631   3.890  1.5423  2.2292 -2.1818
  678MOL0     H91502   5.264   5.472   3.932  0.5747  0.6241  0.0765
  678MOL0     H91503   5.183   5.500   3.782  1.0895 -0.0894 -0.6148
  678MOL0     H91504   5.125   5.734   3.851 -1.3014  2.8198  2.5256
  678MOL0     H91505   5.071   5.608   3.969  1.2272 -0.5654 -0.5866
  678MOL0     H91506   5.310   5.820   3.962 -0.0807  2.6463  1.8085
  678MOL0     H91507   5.290   5.705   4.091  1.2767 -0.4626 -1.7834
  678MOL0     H91508   5.225   5.922   4.131  2.2525 -2.0253 -2.1001
  678MOL0     H91509   5.076   5.900   4.028  0.8470  2.7817  0.4893
  678MOL0     H91510   5.775   5.166   3.619  1.6021 -2.3753  0.4952
  678MOL0     H91511   6.022   5.094   3.607  1.0415 -0.2711  0.7681
  678MOL0     H91512   6.346   5.070   3.593  0.2349  0.0823 -3.1164
  678MOL0     H91513   6.544   4.996   3.460  1.4969  2.2937 -3.1994
  678MOL0     H91514   7.298   6.296   2.380  1.0996 -3.2771 -1.8393
  678MOL0     H91515   7.140   6.385   2.219  1.0040 -0.0416  1.1909
  678MOL0     H91516   6.679   6.397   2.216 -0.4880 -0.1988  0.4730
  678MOL0     H91517   6.475   6.534   2.182  2.7014 -0.8668  2.4255
  678MOL0     H91518   6.255   6.757   1.977  2.9250  3.3845  2.6806
  678MOL0     H91519   6.341   6.683   2.109  1.6288  0.3758 -0.4258
  678MOL0     H91520   6.312   6.455   2.005 -1.1423 -0.1407  1.1062
  678MOL0     H91521   6.241   6.531   1.866  0.6657  0.8118 -0.9771
  678MOL0     H91522   6.064   6.458   1.988  2.9159 -1.5753  0.8026
  678MOL0     H91523   6.066   6.637   2.020 -2.5439 -1.4885 -0.6002
  678MOL0     H91524   6.161   6.408   2.199 -1.8441 -1.3817 -0.9772
  678MOL0     H91525   6.163   6.578   2.255  2.1985 -2.8716  2.3814
  678MOL0     H91526   5.760   6.494   2.320  0.7721  2.2183  1.8030
  678MOL0     H91527   6.677   6.723   1.849  0.8101 -1.9906 -1.9672
  678MOL0     H91528   6.929   6.503   1.812 -0.8722 -1.5699  3.6397
  678MOL0     H91529   6.892   6.680   1.793  2.7205  0.3705 -0.5982
  678MOL0     H91530   6.993   6.631   1.927  1.0467 -0.5543  1.1487
  679MOL0     O91531  10.652   7.362   9.557  0.8291  0.2373  0.6598
  679MOL0     C91532  10.716   7.256   9.569  1.0271  0.1061  0.1623
  679MOL0     O91533  10.843   7.253   9.609 -0.8414 -0.4473  0.3522
  679MOL0     C91534  10.906   7.368   9.641  0.9964  0.1508  0.1064
  679MOL0     C91535  11.016   7.411   9.567 -0.6665 -0.2396 -0.2417
  679MOL0     C91536  11.109   7.507   9.617  0.7775  0.3677 -0.1589
  679MOL0     C91537  11.071   7.577   9.735 -0.2534 -0.7194  0.7790
  679MOL0     O91538  11.148   7.690   9.780  0.1668 -0.1758 -0.0628
  679MOL0     C91539  11.291   7.694   9.763 -0.3745  0.4554 -1.1606
  679MOL0     C91540  11.347   7.818   9.822  0.2340 -0.1545  0.5631
  679MOL0     C91541  11.493   7.847   9.797 -0.3675  0.1027 -0.7762
  679MOL0     C91542  11.518   7.998   9.773  0.2663  0.0149 -0.0777
  679MOL0     C91543  11.663   8.016   9.735 -0.0942 -0.2593  0.3919
  679MOL0     C91544  11.716   8.157   9.734 -0.2476 -0.3033  0.6794
  679MOL0     C91545  11.867   8.164   9.755 -0.7901  0.4302 -0.5751
  679MOL0     C91546  11.931   8.080   9.647  0.3593  0.1681  0.3072
  679MOL0     N91547  12.079   8.079   9.649 -0.3872  0.4840 -0.5083
  679MOL0     C91548  12.160   8.035   9.750 -0.1234  0.0167 -0.5809
  679MOL0     C91549  12.285   8.091   9.740  0.9528  0.0180  0.0522
  679MOL0     C91550  12.395   8.093   9.834  0.3645  1.3063 -0.0614
  679MOL0     C91551  12.452   7.947   9.839 -0.4014  0.1889 -0.2897
  679MOL0     C91552  12.539   7.930   9.960  0.4685 -0.4362  0.0485
  679MOL0     C91553  12.600   7.788   9.983  0.4348 -0.1398  0.5312
  679MOL0     O91554  12.690   7.752   9.875 -0.2103 -0.6865  0.6050
  679MOL0     C91555  12.820   7.798   9.866 -0.2372  0.5523 -0.2627
  679MOL0     C91556  12.873   7.895   9.959  0.0968 -0.8726 -0.3802
  679MOL0     C91557  13.001   7.943   9.936  0.4563 -0.2381 -0.0945
  679MOL0     C91558  13.074   7.902   9.825  0.1731  0.7431  0.2659
  679MOL0     C91559  13.213   7.948   9.807 -0.5265 -0.1536  0.0837
  679MOL0     O91560  13.251   8.075   9.856 -0.1044  0.1054  0.2441
  679MOL0     C91561  13.384   8.126   9.857 -0.2813  0.0532  1.2436
  679MOL0     C91562  13.399   8.267   9.868 -0.4215 -1.1071 -0.1119
  679MOL0     C91563  13.521   8.338   9.876  0.6322 -0.8615 -0.2524
  679MOL0     C91564  13.643   8.264   9.873 -0.0317  0.3293  0.7408
  679MOL0     O91565  13.776   8.319   9.872 -0.4119 -0.7804 -0.2346
  679MOL0     C91566  13.793   8.465   9.881  0.0823 -0.3285 -0.5620
  679MOL0     C91567  13.946   8.493   9.884 -0.0512 -0.4727  0.6636
  679MOL0     C91568  14.030   8.441   9.999 -1.9656 -0.7818 -0.0560
  679MOL0     C91569  14.175   8.429   9.949 -0.2239 -0.0991 -0.1816
  679MOL0     C91570  14.232   8.558   9.878  0.2763  0.2327 -0.0832
  679MOL0     C91571  14.394   8.548   9.871  0.6772 -0.0509 -0.4100
  679MOL0     C91572  14.447   8.683   9.829 -0.4399  0.3662 -0.3551
  679MOL0     C91573  14.598   8.699   9.838 -0.1823 -0.2379  0.1999
  679MOL0    Cl91574  14.700   8.616   9.728  0.1678 -0.1700  0.5980
  679MOL0     C91575  13.627   8.125   9.854 -0.1921 -0.7336 -0.0619
  679MOL0     C91576  13.503   8.054   9.859  0.8804  0.0527 -0.1054
  679MOL0     O91577  13.291   7.870   9.758 -0.1127  0.1790 -0.3075
  679MOL0     C91578  13.024   7.797   9.740  0.3703  0.0157 -0.4378
  679MOL0     C91579  12.892   7.749   9.765  0.3575  0.0124 -0.5510
  679MOL0     N91580  12.276   8.156   9.618  0.9525 -0.4790  0.2236
  679MOL0     N91581  12.155   8.155   9.566 -0.9403 -0.5014 -0.7645
  679MOL0     C91582  10.958   7.546   9.800 -0.5481  0.4255 -0.5866
  679MOL0     C91583  10.872   7.434   9.766 -0.6019 -0.5846  0.2929
  679MOL0     C91584  10.639   7.123   9.545 -0.8420 -0.3373 -0.2173
  679MOL0     C91585  10.512   7.108   9.602 -0.0188  0.1882  0.3554
  679MOL0     C91586  10.436   6.990   9.596 -0.1827  0.0372 -0.5247
  679MOL0     C91587  10.488   6.880   9.523 -0.5388  0.7000 -0.7837
  679MOL0     O91588  10.420   6.770   9.481  0.1876  0.0257  0.3303
  679MOL0     C91589  10.298   6.732   9.544  0.5828 -0.2476 -0.6344
  679MOL0     C91590  10.267   6.582   9.537 -0.4359  0.0988  0.2424
  679MOL0     C91591  10.289   6.534   9.394  0.9489  0.1392 -0.2392
  679MOL0     C91592  10.214   6.397   9.358  0.0294  0.1345 -0.6939
  679MOL0     C91593  10.164   6.400   9.220  0.6559  0.4778 -0.0270
  679MOL0     C91594  10.132   6.408   9.107  0.0413  0.7706  0.3464
  679MOL0     C91595  10.615   6.898   9.469  0.2377  0.9072 -0.5055
  679MOL0     C91596  10.688   7.016   9.469  0.4363 -0.1997 -0.6255
  679MOL0     C91597  10.816   7.038   9.391  0.2815  0.1199  0.3209
  679MOL0     H91598  11.034   7.352   9.478  2.7344 -0.3744  0.3787
  679MOL0     H91599  11.199   7.529   9.559  0.3194 -0.3886 -1.2023
  679MOL0     H91600  11.349   7.607   9.793  0.2861  0.5504 -2.1146
  679MOL0     H91601  11.314   7.702   9.656  2.3623 -0.1479 -0.6918
  679MOL0     H91602  11.344   7.837   9.930  3.0948 -1.2835  0.9227
  679MOL0     H91603  11.300   7.898   9.764  3.5010  0.3300 -1.6941
  679MOL0     H91604  11.523   7.784   9.713  2.0837  3.5406 -2.7508
  679MOL0     H91605  11.546   7.817   9.888  1.8007 -1.1823 -2.3584
  679MOL0     H91606  11.459   8.030   9.686  0.2266 -0.2491 -0.1493
  679MOL0     H91607  11.482   8.059   9.856 -1.0235  1.2674 -1.4958
  679MOL0     H91608  11.733   7.969   9.804  0.1107  0.5904  0.7811
  679MOL0     H91609  11.690   7.968   9.641  1.6634  0.2896  0.5826
  679MOL0     H91610  11.701   8.185   9.630 -0.6358 -2.8962 -0.0310
  679MOL0     H91611  11.662   8.222   9.803  0.0524  1.1935 -0.4651
  679MOL0     H91612  11.892   8.124   9.853 -0.8964 -1.8764 -1.4250
  679MOL0     H91613  11.909   8.265   9.751  0.0404  0.0804 -0.7457
  679MOL0     H91614  11.905   7.975   9.663 -0.2660  0.7406  3.6923
  679MOL0     H91615  11.903   8.114   9.547  0.3849  1.1831  0.6374
  679MOL0     H91616  12.133   7.972   9.834  0.0120 -1.5289 -1.6583
  679MOL0     H91617  12.464   8.169   9.796  0.8495  2.4935  2.9438
  679MOL0     H91618  12.355   8.118   9.933  0.9188 -1.3558  0.9009
  679MOL0     H91619  12.377   7.868   9.836 -0.4045  0.1608  0.5157
  679MOL0     H91620  12.511   7.929   9.748  1.7678 -2.8567  1.5183
  679MOL0     H91621  12.481   7.967  10.045  0.8812  0.2881  0.0297
  679MOL0     H91622  12.619   8.005   9.954 -1.6810  1.9143 -1.4395
  679MOL0     H91623  12.522   7.711   9.988  1.4030 -1.1135  1.3120
  679MOL0     H91624  12.649   7.780  10.081 -0.2139 -0.2500  0.8547
  679MOL0     H91625  12.833   7.937  10.051 -0.0223  2.2636 -1.7311
  679MOL0     H91626  13.034   8.018  10.006 -2.1880  0.2304  0.7507
  679MOL0     H91627  13.311   8.331   9.865  1.3904  1.5034 -1.4234
  679MOL0     H91628  13.525   8.447   9.879 -0.5725 -0.7412 -1.5146
  679MOL0     H91629  13.752   8.507   9.789  1.3598  2.3979  0.0119
  679MOL0     H91630  13.750   8.505   9.973  1.6960  0.5854 -0.1704
  679MOL0     H91631  13.978   8.454   9.787  3.3674  2.4242  0.4014
  679MOL0     H91632  13.957   8.601   9.874 -0.7033 -0.3031  1.6562
  679MOL0     H91633  14.032   8.509  10.085  2.1606 -0.2762 -0.3292
  679MOL0     H91634  13.996   8.341  10.026 -0.5148 -2.0136 -2.4182
  679MOL0     H91635  14.170   8.352   9.871 -2.4031  0.6023 -0.8193
  679MOL0     H91636  14.231   8.391  10.034  0.6561  0.2462 -0.6018
  679MOL0     H91637  14.197   8.642   9.938 -2.1655 -0.8251  0.0706
  679MOL0     H91638  14.200   8.557   9.774  1.6846 -1.6975 -0.5612
  679MOL0     H91639  14.419   8.537   9.977 -2.5603 -0.2434  0.4174
  679MOL0     H91640  14.428   8.461   9.813  0.3754  0.0136 -0.6843
  679MOL0     H91641  14.405   8.761   9.892 -0.5822 -0.3907  0.5026
  679MOL0     H91642  14.420   8.705   9.725 -0.5324  0.5671 -0.2900
  679MOL0     H91643  14.623   8.805   9.830 -2.0866  0.3650  1.6396
  679MOL0     H91644  14.629   8.673   9.939 -0.0737  0.3801  0.3289
  679MOL0     H91645  13.725   8.080   9.847 -0.2799 -1.4601  2.3225
  679MOL0     H91646  13.498   7.947   9.843 -0.9450  0.5030 -3.5452
  679MOL0     H91647  13.097   7.760   9.668  0.7001 -1.5293  0.6422
  679MOL0     H91648  12.857   7.672   9.696  0.2867 -0.6594  0.2124
  679MOL0     H91649  10.923   7.590   9.894 -1.2802 -0.0211 -0.6379
  679MOL0     H91650  10.794   7.397   9.832 -1.4814 -2.4113 -1.6624
  679MOL0     H91651  10.470   7.186   9.665  1.1926  0.8156  0.4301
  679MOL0     H91652  10.342   6.996   9.650  0.9297 -0.0550  1.5129
  679MOL0     H91653  10.217   6.799   9.515  1.3340 -0.4786 -3.6725
  679MOL0     H91654  10.307   6.764   9.648 -0.2572  0.5327 -0.7873
  679MOL0     H91655  10.170   6.571   9.585 -0.2987  1.0028  0.7669
  679MOL0     H91656  10.341   6.529   9.598  1.0677 -0.2729 -1.8004
  679MOL0     H91657  10.397   6.519   9.379  0.6840 -2.1150 -0.2898
  679MOL0     H91658  10.238   6.607   9.330 -0.7005 -0.6126  0.1651
  679MOL0     H91659  10.300   6.328   9.361  0.0487  0.1490 -0.9172
  679MOL0     H91660  10.139   6.370   9.433 -0.8656  3.0266 -0.4211
  679MOL0     H91661  10.100   6.410   9.004 -1.5307 -0.8490  0.7431
  679MOL0     H91662  10.649   6.825   9.396 -0.0022 -1.1168  1.3255
  679MOL0     H91663  10.874   7.125   9.422 -1.9227  1.9040 -0.2888
  679MOL0     H91664  10.881   6.952   9.414  0.3511  0.1611  0.2772
  679MOL0     H91665  10.797   7.044   9.284 -0.2124 -2.0580  0.2338
  680MOL0     O91666   5.607   2.466   6.932 -0.2265  0.2756  0.2943
  680MOL0     C91667   5.604   2.476   7.053 -0.4912  0.4091 -0.1305
  680MOL0     O91668   5.705   2.419   7.141 -0.0390  0.3434  1.1441
  680MOL0     C91669   5.825   2.393   7.085 -0.8030  0.2136 -0.7872
  680MOL0     C91670   5.882   2.265   7.095  0.2270  0.5062  0.2053
  680MOL0     C91671   6.002   2.233   7.038 -0.1120 -0.5553  0.0359
  680MOL0     C91672   6.087   2.329   6.982  0.8412 -0.6669  0.3407
  680MOL0     O91673   6.207   2.296   6.937 -0.6568 -0.2496  0.4627
  680MOL0     C91674   6.284   2.394   6.860  0.5348 -0.2912 -0.0277
  680MOL0     C91675   6.412   2.325   6.816 -1.1312  0.5701  1.0854
  680MOL0     C91676   6.477   2.220   6.911 -0.1589  0.8606  0.2611
  680MOL0     C91677   6.521   2.277   7.043  0.4156 -0.3842 -0.5639
  680MOL0     C91678   6.560   2.162   7.136  0.4658  0.1384 -0.3032
  680MOL0     C91679   6.601   2.199   7.280  0.3252 -0.3484  0.5078
  680MOL0     C91680   6.710   2.315   7.293 -0.0962  0.4544 -0.1015
  680MOL0     C91681   6.764   2.326   7.428 -0.0880 -0.0201 -0.1550
  680MOL0     N91682   6.892   2.394   7.439 -0.4920  0.3529  0.5979
  680MOL0     C91683   7.015   2.332   7.401  0.0217 -0.2288  1.2942
  680MOL0     C91684   7.110   2.432   7.405 -0.2060  0.1089 -0.7238
  680MOL0     C91685   7.260   2.426   7.395  0.5813 -0.2882 -0.4169
  680MOL0     C91686   7.295   2.354   7.256  0.0292  0.4206 -0.4702
  680MOL0     C91687   7.439   2.309   7.275  1.0510  0.5877  0.4103
  680MOL0     C91688   7.487   2.251   7.136 -0.2806 -0.2618  0.6934
  680MOL0     O91689   7.525   2.362   7.059 -0.1256  0.0583  0.2227
  680MOL0     C91690   7.657   2.384   7.034 -0.1173  0.0289  0.5974
  680MOL0     C91691   7.687   2.470   6.928  0.1282 -0.3035  0.7356
  680MOL0     C91692   7.814   2.508   6.902 -0.2452 -0.2250 -0.0148
  680MOL0     C91693   7.921   2.464   6.981  0.1910  0.0337  0.1350
  680MOL0     C91694   8.063   2.511   6.958  0.2523  0.0908 -0.3023
  680MOL0     O91695   8.073   2.628   6.883  0.8886  0.1118  0.0638
  680MOL0     C91696   8.195   2.687   6.872 -0.3160 -0.3013  0.0692
  680MOL0     C91697   8.255   2.730   6.753 -0.2920 -0.2886 -0.9468
  680MOL0     C91698   8.373   2.798   6.753  0.6070 -0.1505 -0.2675
  680MOL0     C91699   8.445   2.832   6.873 -0.1277 -0.2466 -0.5804
  680MOL0     O91700   8.571   2.886   6.856 -0.5194 -0.0226 -0.1261
  680MOL0     C91701   8.669   2.883   6.964  0.6917  0.1093 -0.1129
  680MOL0     C91702   8.662   3.005   7.047  0.3515 -0.1405  0.1280
  680MOL0     C91703   8.773   3.035   7.145 -0.0143 -0.6057 -0.2891
  680MOL0     C91704   8.915   3.043   7.084 -0.3086 -0.5226 -0.0315
  680MOL0     C91705   9.025   3.071   7.188  0.0341  1.4361  0.4492
  680MOL0     C91706   9.162   3.112   7.132  0.6304 -0.0309 -0.9223
  680MOL0     C91707   9.273   3.079   7.228 -0.7372  0.0524  0.6790
  680MOL0     C91708   9.406   3.084   7.148 -0.6457 -0.5105 -0.3218
  680MOL0    Cl91709   9.540   3.068   7.267 -0.2175 -0.0238 -0.1173
  680MOL0     C91710   8.385   2.792   6.988  0.5202  0.4882  0.1155
  680MOL0     C91711   8.272   2.713   6.983 -0.6005 -0.1687  0.4096
  680MOL0     O91712   8.161   2.438   6.994 -0.1566 -0.1119 -0.5678
  680MOL0     C91713   7.892   2.384   7.085  0.4572 -0.1638  0.2508
  680MOL0     C91714   7.764   2.340   7.118 -0.4216 -0.3105 -1.0003
  680MOL0     N91715   7.041   2.546   7.440 -0.6572  0.0013 -0.2315
  680MOL0     N91716   6.915   2.527   7.461  0.0748 -0.1181  0.4728
  680MOL0     C91717   6.034   2.468   6.982  0.0815 -0.6286  0.5701
  680MOL0     C91718   5.898   2.490   7.023  0.7393 -0.8718 -0.1072
  680MOL0     C91719   5.502   2.567   7.125  0.1952  0.7617 -0.2855
  680MOL0     C91720   5.509   2.587   7.267  0.4380 -0.9690 -0.5594
  680MOL0     C91721   5.438   2.678   7.331  0.2307 -0.8340 -0.1449
  680MOL0     C91722   5.339   2.747   7.263 -0.7011  0.5365  0.2373
  680MOL0     O91723   5.262   2.836   7.325 -0.1031 -0.5559 -0.1688
  680MOL0     C91724   5.140   2.779   7.370  0.6528 -0.3519 -0.4042
  680MOL0     C91725   5.100   2.831   7.517 -0.4738  0.1846  0.5099
  680MOL0     C91726   5.142   2.976   7.527  0.7215  1.1348 -0.1331
  680MOL0     C91727   5.074   3.041   7.641  0.1710 -0.0756  0.0658
  680MOL0     C91728   4.938   3.066   7.611  0.8541 -0.4717  0.0204
  680MOL0     C91729   4.829   3.112   7.581 -1.2599 -0.4469  1.0308
  680MOL0     C91730   5.318   2.727   7.130  0.0654 -0.1360  0.8940
  680MOL0     C91731   5.390   2.629   7.054 -0.6949 -0.7844  0.2345
  680MOL0     C91732   5.364   2.624   6.908 -0.2197 -0.2804  0.3765
  680MOL0     H91733   5.829   2.187   7.148 -0.5023  0.3350 -0.7528
  680MOL0     H91734   6.019   2.127   7.052 -5.6027 -1.4891  2.2961
  680MOL0     H91735   6.215   2.427   6.782 -1.2249  3.0119  2.6441
  680MOL0     H91736   6.308   2.481   6.922  0.2878 -0.3712  0.1850
  680MOL0     H91737   6.481   2.402   6.782  0.1782 -1.5732 -1.5105
  680MOL0     H91738   6.375   2.267   6.731 -1.8160  1.5176  0.7238
  680MOL0     H91739   6.559   2.172   6.857 -3.1241 -3.2822 -1.0972
  680MOL0     H91740   6.404   2.139   6.922  0.7483 -0.3292 -1.9724
  680MOL0     H91741   6.601   2.351   7.035  0.7803 -0.7212 -0.0720
  680MOL0     H91742   6.441   2.332   7.093 -0.3883 -2.2707  0.3676
  680MOL0     H91743   6.484   2.083   7.137  2.7771 -2.2092 -0.7206
  680MOL0     H91744   6.644   2.116   7.084 -0.6057 -3.2715  0.7363
  680MOL0     H91745   6.509   2.229   7.333  0.3381 -1.8571  1.4413
  680MOL0     H91746   6.631   2.109   7.334 -2.5037 -1.6239  0.1253
  680MOL0     H91747   6.676   2.410   7.252  2.3830  2.4186  2.0397
  680MOL0     H91748   6.792   2.282   7.228  0.3886  0.8247  0.3183
  680MOL0     H91749   6.687   2.374   7.489 -0.9357 -0.0193 -1.1842
  680MOL0     H91750   6.779   2.229   7.475  2.0504  0.1617 -0.3765
  680MOL0     H91751   7.039   2.232   7.368  0.6242  0.4179 -0.3659
  680MOL0     H91752   7.299   2.527   7.410  0.8453 -0.7809  3.0191
  680MOL0     H91753   7.311   2.376   7.478  0.7721 -1.8340 -1.4219
  680MOL0     H91754   7.232   2.269   7.231  0.3196 -0.2165  0.8399
  680MOL0     H91755   7.285   2.428   7.176  0.6649 -0.4521 -1.3842
  680MOL0     H91756   7.432   2.223   7.342  1.0597 -1.1397 -1.7000
  680MOL0     H91757   7.501   2.390   7.313  0.4385  2.2169 -1.8448
  680MOL0     H91758   7.403   2.201   7.086 -0.0926 -1.1908  1.2721
  680MOL0     H91759   7.566   2.175   7.138 -3.1003 -3.6159 -1.7596
  680MOL0     H91760   7.617   2.518   6.861  0.0700 -0.3886  0.7368
  680MOL0     H91761   7.833   2.585   6.828  1.2076 -2.1219 -1.7133
  680MOL0     H91762   8.201   2.727   6.659 -3.4941 -0.8947  0.7682
  680MOL0     H91763   8.414   2.834   6.660  3.0310 -2.6008 -0.2461
  680MOL0     H91764   8.653   2.798   7.032  1.1611 -1.6248 -2.0659
  680MOL0     H91765   8.769   2.877   6.920  0.6658  0.7443 -0.2635
  680MOL0     H91766   8.661   3.091   6.979  0.6237 -1.2758 -1.3632
  680MOL0     H91767   8.571   3.004   7.108  1.5782  1.1815  2.0798
  680MOL0     H91768   8.751   3.131   7.191  0.2097 -0.6338 -0.1236
  680MOL0     H91769   8.773   2.960   7.224 -2.6163 -1.8962 -1.3810
  680MOL0     H91770   8.921   3.117   7.003  1.3365 -1.6133 -0.9741
  680MOL0     H91771   8.946   2.950   7.036  1.4857 -0.1512  0.3586
  680MOL0     H91772   9.029   2.984   7.255 -2.6441 -0.1109 -1.1983
  680MOL0     H91773   8.984   3.152   7.247  0.7042  1.4456  0.9126
  680MOL0     H91774   9.184   3.065   7.035  2.0561  0.9373 -1.0969
  680MOL0     H91775   9.156   3.220   7.120  0.5523  0.9749  5.0650
  680MOL0     H91776   9.258   2.975   7.256 -0.6461 -0.2302 -0.2959
  680MOL0     H91777   9.270   3.150   7.311 -2.7578  1.7216 -0.7232
  680MOL0     H91778   9.409   2.996   7.083 -0.8160 -1.1805  0.5575
  680MOL0     H91779   9.407   3.180   7.094 -0.8313 -0.4346 -0.1925
  680MOL0     H91780   8.437   2.789   7.083 -1.2353 -1.7867  1.1166
  680MOL0     H91781   8.240   2.672   7.078  2.5220 -1.2997  1.0896
  680MOL0     H91782   7.980   2.362   7.144 -0.7807 -1.5266  1.7142
  680MOL0     H91783   7.752   2.275   7.204 -0.0705  0.7986 -0.0912
  680MOL0     H91784   6.087   2.551   6.938  0.4629 -1.7253 -1.1343
  680MOL0     H91785   5.847   2.586   7.026  2.6761  0.4051 -2.9977
  680MOL0     H91786   5.590   2.537   7.320  0.8079  1.0754  0.9317
  680MOL0     H91787   5.449   2.700   7.437 -2.8785 -0.2334  0.1328
  680MOL0     H91788   5.122   2.671   7.367  0.4049 -0.4370  1.9806
  680MOL0     H91789   5.066   2.825   7.304 -0.3403  2.9185  2.6594
  680MOL0     H91790   5.155   2.765   7.585  0.5942  0.6169  0.0817
  680MOL0     H91791   4.993   2.813   7.528 -0.7582  0.4132 -1.5097
  680MOL0     H91792   5.105   3.023   7.436 -1.0223  0.0253 -0.0453
  680MOL0     H91793   5.249   2.994   7.544  0.4247  2.1504  0.7026
  680MOL0     H91794   5.077   2.971   7.725  1.1115 -3.1055 -2.2761
  680MOL0     H91795   5.129   3.134   7.655  2.7528 -1.4050 -0.4305
  680MOL0     H91796   4.733   3.160   7.578 -0.6356  0.8177  0.1843
  680MOL0     H91797   5.236   2.785   7.088 -0.3603 -2.2455 -1.3971
  680MOL0     H91798   5.302   2.537   6.882 -2.7348  1.0553  1.5548
  680MOL0     H91799   5.301   2.710   6.883 -1.0054 -0.9393  0.0440
  680MOL0     H91800   5.453   2.632   6.844  1.3959 -2.3320  2.1964
  681MOL0     O91801   5.352   6.007   6.095  0.5761 -0.0946 -0.0113
  681MOL0     C91802   5.365   5.957   5.984  0.2279  0.2602  0.2454
  681MOL0     O91803   5.483   5.902   5.933 -0.2519  0.3349  0.1958
  681MOL0     C91804   5.614   5.930   5.973 -0.1380 -0.1960  0.3075
  681MOL0     C91805   5.645   6.052   6.032  0.0025  0.1414 -0.2205
  681MOL0     C91806   5.775   6.078   6.074 -0.4804 -0.2522 -0.4337
  681MOL0     C91807   5.877   5.980   6.052  0.1388  0.1364 -0.8620
  681MOL0     O91808   6.002   5.988   6.106 -0.0855  0.2246 -0.3710
  681MOL0     C91809   6.060   6.117   6.087 -0.6715 -0.0012  0.2796
  681MOL0     C91810   6.217   6.119   6.108  0.0667  0.5180  0.5004
  681MOL0     C91811   6.295   6.056   5.991 -0.2498  0.1830 -0.1373
  681MOL0     C91812   6.447   6.070   5.997  0.0428  0.1127 -0.1220
  681MOL0     C91813   6.515   6.010   5.868 -0.6288 -0.3065  0.2038
  681MOL0     C91814   6.663   6.044   5.876  0.3899  0.1946 -0.0660
  681MOL0     C91815   6.736   5.999   5.753  0.3342  0.1811 -0.2968
  681MOL0     C91816   6.761   6.124   5.674  0.0472  0.9721  0.1405
  681MOL0     N91817   6.826   6.113   5.541 -0.3530  0.4802  0.1151
  681MOL0     C91818   6.898   5.998   5.500 -0.8461 -0.7051  0.0460
  681MOL0     C91819   6.950   6.026   5.373 -0.3152 -1.4359 -0.0350
  681MOL0     C91820   7.030   5.925   5.295 -0.2564 -0.9642 -0.3427
  681MOL0     C91821   6.943   5.849   5.192  0.1798  1.3032  0.0314
  681MOL0     C91822   7.018   5.721   5.129 -0.2049  0.3757  0.4065
  681MOL0     C91823   6.917   5.644   5.029  0.4973 -0.8793 -0.3969
  681MOL0     O91824   6.988   5.524   4.994 -0.5283 -0.2730  0.2008
  681MOL0     C91825   7.078   5.530   4.893 -1.3611 -0.1141 -0.1059
  681MOL0     C91826   7.144   5.412   4.883 -0.6364  1.4006  0.6827
  681MOL0     C91827   7.250   5.390   4.794 -0.1689  0.3498  0.3132
  681MOL0     C91828   7.292   5.495   4.710 -0.0639  0.0678  0.2073
  681MOL0     C91829   7.414   5.486   4.626  0.4334 -0.5716  0.2141
  681MOL0     O91830   7.483   5.368   4.635 -0.7098  0.8925 -0.2172
  681MOL0     C91831   7.602   5.346   4.579 -0.1679  0.1089 -0.0242
  681MOL0     C91832   7.624   5.382   4.442  0.2538 -0.0140 -0.6561
  681MOL0     C91833   7.749   5.355   4.389  1.3234  0.1542  0.2503
  681MOL0     C91834   7.845   5.285   4.457  0.3409  0.1804  0.9890
  681MOL0     O91835   7.965   5.255   4.395 -0.4997 -0.5844  0.1775
  681MOL0     C91836   7.979   5.277   4.247 -0.1171  0.3355 -0.1817
  681MOL0     C91837   8.099   5.204   4.193  0.3870 -0.1015 -0.3323
  681MOL0     C91838   8.230   5.249   4.247 -0.3382  0.2807 -0.4457
  681MOL0     C91839   8.338   5.167   4.189 -0.8358  0.7628  0.8474
  681MOL0     C91840   8.483   5.219   4.232  0.2110  0.6746  1.6838
  681MOL0     C91841   8.578   5.137   4.139  0.3534  0.4532 -0.0946
  681MOL0     C91842   8.713   5.205   4.135  0.5184 -0.2765  0.6677
  681MOL0     C91843   8.725   5.316   4.038  0.1870 -1.1465 -0.4560
  681MOL0    Cl91844   8.859   5.416   4.069  0.1979  0.3970 -0.0154
  681MOL0     C91845   7.822   5.242   4.587 -0.5668 -0.5208  0.6616
  681MOL0     C91846   7.704   5.274   4.653 -0.8341 -0.4228 -0.5867
  681MOL0     O91847   7.450   5.580   4.561  1.2156  0.3664  0.4983
  681MOL0     C91848   7.229   5.617   4.709  0.5838 -0.1763  0.1760
  681MOL0     C91849   7.120   5.633   4.804 -0.2505 -0.7263 -0.3449
  681MOL0     N91850   6.907   6.156   5.336  0.9645 -0.0994 -0.0197
  681MOL0     N91851   6.839   6.208   5.438 -0.0725 -0.1211 -0.3088
  681MOL0     C91852   5.837   5.858   5.998  0.4969 -0.5562  0.2820
  681MOL0     C91853   5.709   5.835   5.948 -0.1718  0.8304  0.0018
  681MOL0     C91854   5.245   5.947   5.894 -0.0153  0.3296 -0.2312
  681MOL0     C91855   5.271   5.951   5.756 -0.2177  0.2598  0.7594
  681MOL0     C91856   5.179   5.966   5.661 -0.5734 -0.1578 -0.9550
  681MOL0     C91857   5.044   5.983   5.700  0.3263 -0.4785  0.0488
  681MOL0     O91858   4.954   6.013   5.602  0.4194  0.0019  0.2303
  681MOL0     C91859   4.817   5.958   5.620 -0.6250  0.2548  0.1174
  681MOL0     C91860   4.718   6.058   5.685 -0.2447  0.4137  0.1174
  681MOL0     C91861   4.578   5.986   5.711 -0.3248 -0.0370  1.0095
  681MOL0     C91862   4.580   5.869   5.816  0.4002 -0.4058  0.5552
  681MOL0     C91863   4.595   5.917   5.958  0.3411  0.1925 -0.2453
  681MOL0     C91864   4.607   5.949   6.075 -0.4393 -0.1183 -0.2107
  681MOL0     C91865   5.010   5.975   5.834 -0.1423 -0.0023 -0.2185
  681MOL0     C91866   5.110   5.957   5.932 -0.2545 -0.3538  0.0340
  681MOL0     C91867   5.056   5.945   6.068 -0.8024  0.6413 -0.0202
  681MOL0     H91868   5.573   6.129   6.057 -0.3553 -0.0121 -0.7532
  681MOL0     H91869   5.797   6.170   6.127  0.3862 -1.3110  1.1564
  681MOL0     H91870   6.042   6.158   5.987 -0.9105 -4.2925 -1.6283
  681MOL0     H91871   6.021   6.183   6.166 -2.3246 -0.7307  0.0966
  681MOL0     H91872   6.237   6.062   6.199 -1.0512 -1.7167 -0.5864
  681MOL0     H91873   6.248   6.223   6.125  0.2092  0.3721  1.1462
  681MOL0     H91874   6.262   6.103   5.898 -1.2864  1.9513  1.0629
  681MOL0     H91875   6.262   5.952   5.997 -1.1494  0.5191  1.0159
  681MOL0     H91876   6.462   6.178   6.007 -3.5133  0.6513  0.4380
  681MOL0     H91877   6.488   6.027   6.088 -0.2172  0.3569  0.1125
  681MOL0     H91878   6.498   5.902   5.862  1.2778 -0.7413  1.5967
  681MOL0     H91879   6.472   6.052   5.777 -1.0403 -2.8100 -0.8341
  681MOL0     H91880   6.674   6.151   5.898 -1.2831  0.1068  1.4051
  681MOL0     H91881   6.709   6.004   5.967  2.1779  0.9492 -0.6049
  681MOL0     H91882   6.685   5.922   5.694  2.6073 -0.8869 -0.9631
  681MOL0     H91883   6.828   5.949   5.785 -1.7210 -2.9769  1.1900
  681MOL0     H91884   6.666   6.178   5.670 -1.8374 -1.9593  1.3739
  681MOL0     H91885   6.821   6.189   5.738  0.0265  1.3111 -0.1831
  681MOL0     H91886   6.908   5.902   5.551 -0.5069 -0.5535  0.2634
  681MOL0     H91887   7.119   5.966   5.246 -1.4267 -1.7280 -3.2844
  681MOL0     H91888   7.057   5.846   5.367  0.5191  0.1275  0.6063
  681MOL0     H91889   6.862   5.803   5.248  2.9839 -3.5226  0.6973
  681MOL0     H91890   6.914   5.915   5.109  2.1967  1.9695 -0.2054
  681MOL0     H91891   7.056   5.663   5.213  0.2717  2.3789  1.6412
  681MOL0     H91892   7.107   5.753   5.076  2.8859 -3.2984  2.8594
  681MOL0     H91893   6.903   5.710   4.943 -1.7984  0.5593  0.9582
  681MOL0     H91894   6.824   5.629   5.086  1.2349 -1.4973  0.6774
  681MOL0     H91895   7.112   5.333   4.949  0.5447 -0.7789 -1.2021
  681MOL0     H91896   7.301   5.294   4.786  1.9987  1.4870 -0.0911
  681MOL0     H91897   7.558   5.437   4.376  3.1910  3.3939 -1.0382
  681MOL0     H91898   7.753   5.391   4.287  0.0948  1.9529  0.7721
  681MOL0     H91899   7.892   5.231   4.200  0.7464  0.6583 -2.1967
  681MOL0     H91900   7.978   5.385   4.227 -0.0626  0.5360  0.8323
  681MOL0     H91901   8.079   5.100   4.221  0.4897 -0.2784 -0.9073
  681MOL0     H91902   8.093   5.206   4.084 -2.1051 -2.0252 -0.3198
  681MOL0     H91903   8.249   5.355   4.227 -0.1313  0.0292 -1.6222
  681MOL0     H91904   8.234   5.244   4.357  0.6430  0.5667 -0.4564
  681MOL0     H91905   8.319   5.173   4.082 -1.4892 -0.1595  0.9030
  681MOL0     H91906   8.323   5.062   4.214 -1.2927  1.0096  1.6427
  681MOL0     H91907   8.502   5.196   4.337 -1.0011  1.9753  2.2174
  681MOL0     H91908   8.488   5.325   4.208 -2.0207  0.4398 -0.2342
  681MOL0     H91909   8.591   5.037   4.180 -0.2610  0.9711  1.4338
  681MOL0     H91910   8.546   5.135   4.034  2.9032  3.0897 -1.0646
  681MOL0     H91911   8.792   5.131   4.118  0.5173 -0.0062 -0.6870
  681MOL0     H91912   8.733   5.242   4.235 -1.1059  1.6285  0.3365
  681MOL0     H91913   8.734   5.292   3.932 -0.9708 -1.0100 -0.6082
  681MOL0     H91914   8.639   5.382   4.057  1.6564  0.5404  0.6912
  681MOL0     H91915   7.891   5.167   4.624  0.3546 -0.1673 -0.2940
  681MOL0     H91916   7.682   5.226   4.747 -0.0164 -0.2985 -0.3224
  681MOL0     H91917   7.254   5.705   4.651  1.5498  0.4068  1.4185
  681MOL0     H91918   7.064   5.726   4.804 -1.4533 -1.4160  0.0509
  681MOL0     H91919   5.909   5.781   5.972  0.3868 -0.0266 -1.8372
  681MOL0     H91920   5.681   5.736   5.916  0.6801  0.2594  0.9719
  681MOL0     H91921   5.373   5.944   5.719  0.4351 -0.0776  2.5239
  681MOL0     H91922   5.220   5.984   5.562  0.8981 -1.3316 -0.5976
  681MOL0     H91923   4.836   5.870   5.682 -0.2805  0.3958  0.2126
  681MOL0     H91924   4.779   5.930   5.522 -1.3214 -0.7424  0.6612
  681MOL0     H91925   4.703   6.136   5.610  2.8058 -1.1833 -2.3994
  681MOL0     H91926   4.747   6.111   5.776 -0.1586 -1.1315  1.0295
  681MOL0     H91927   4.542   5.941   5.618  2.2083  1.0620 -0.5982
  681MOL0     H91928   4.501   6.054   5.748  0.2830  1.1155  0.2185
  681MOL0     H91929   4.479   5.827   5.808  0.0269  0.6390 -0.3979
  681MOL0     H91930   4.653   5.794   5.783 -1.9954 -1.8612 -1.8902
  681MOL0     H91931   4.620   5.976   6.178 -3.4485 -2.1364  0.8249
  681MOL0     H91932   4.905   5.990   5.859 -0.2787 -2.5764  1.1818
  681MOL0     H91933   5.115   5.893   6.144  0.8280 -0.7362 -2.1134
  681MOL0     H91934   5.047   6.050   6.097  0.5966  0.4455  1.2207
  681MOL0     H91935   4.959   5.896   6.058 -1.7432  2.3942 -0.0140
  682MOL0     O91936   9.510   5.186   3.594 -0.5268 -0.0912 -0.1927
  682MOL0     C91937   9.495   5.095   3.676  0.8553 -0.0365 -0.3397
  682MOL0     O91938   9.593   5.052   3.761  0.4566  0.3189 -0.3720
  682MOL0     C91939   9.692   5.142   3.787  0.1386  0.6677  0.2299
  682MOL0     C91940   9.805   5.128   3.704 -0.7995  0.1463 -0.1441
  682MOL0     C91941   9.914   5.216   3.722  0.7544 -0.6315 -0.7797
  682MOL0     C91942   9.914   5.313   3.833  0.3115  0.5575  0.0679
  682MOL0     O91943  10.020   5.394   3.865 -0.3803 -0.0760  0.2347
  682MOL0     C91944  10.159   5.352   3.846  0.7968  0.1457  0.4884
  682MOL0     C91945  10.243   5.483   3.861  0.4467  0.7028 -0.1470
  682MOL0     C91946  10.254   5.525   4.008 -1.1772 -0.2242 -0.0774
  682MOL0     C91947  10.346   5.650   4.011  0.3983 -0.2484  0.7302
  682MOL0     C91948  10.387   5.654   4.156  0.4670 -0.0484 -0.9544
  682MOL0     C91949  10.460   5.786   4.184 -0.9025  0.5468 -0.1762
  682MOL0     C91950  10.594   5.816   4.106  0.6921 -0.1350  0.5229
  682MOL0     C91951  10.625   5.956   4.149 -0.4430 -0.1029  0.5303
  682MOL0     N91952  10.754   6.020   4.100  0.9363  0.6890  0.0661
  682MOL0     C91953  10.875   5.956   4.078  0.4385  0.6368  0.4881
  682MOL0     C91954  10.960   6.049   4.045  0.1946  0.3219  1.0481
  682MOL0     C91955  11.106   6.031   4.009 -0.3712 -0.6489 -0.2727
  682MOL0     C91956  11.169   6.161   3.973  0.7825 -0.7043 -0.3706
  682MOL0     C91957  11.316   6.137   3.942 -0.3031  0.7713  0.4393
  682MOL0     C91958  11.389   6.263   3.909  0.4658 -0.1160  1.4328
  682MOL0     O91959  11.385   6.328   4.034 -0.0491  0.2934 -0.2476
  682MOL0     C91960  11.492   6.414   4.066 -0.0700 -0.2602  0.5427
  682MOL0     C91961  11.505   6.452   4.196  0.5821  0.6736  0.3291
  682MOL0     C91962  11.599   6.549   4.232 -0.3906 -0.1689 -0.5365
  682MOL0     C91963  11.693   6.590   4.134  0.6209  0.2582 -0.6468
  682MOL0     C91964  11.804   6.679   4.174 -0.3490 -0.0125  0.0825
  682MOL0     O91965  11.919   6.675   4.103  0.5756  0.3770 -0.4468
  682MOL0     C91966  12.013   6.770   4.097  0.0170 -0.2001 -0.1147
  682MOL0     C91967  12.022   6.890   4.171 -0.9760  0.3055 -0.3829
  682MOL0     C91968  12.131   6.975   4.160 -0.3966  0.3815  0.0217
  682MOL0     C91969  12.241   6.943   4.089 -0.9604  0.4539 -0.0896
  682MOL0     O91970  12.359   7.014   4.110  0.1808 -0.4632 -0.1585
  682MOL0     C91971  12.483   6.943   4.107  0.5914 -0.5258  0.4269
  682MOL0     C91972  12.612   7.036   4.111 -0.5540  0.2362 -0.0097
  682MOL0     C91973  12.603   7.131   4.239  0.5324  0.4432 -0.0316
  682MOL0     C91974  12.737   7.200   4.267 -0.1325 -0.1398 -0.4167
  682MOL0     C91975  12.754   7.247   4.410  0.5332  0.6138  0.9088
  682MOL0     C91976  12.876   7.324   4.454 -0.5471  0.0007 -1.2427
  682MOL0     C91977  12.912   7.439   4.362 -0.3049  0.0421  0.5822
  682MOL0     C91978  13.034   7.409   4.271 -0.4880  0.3415  0.4668
  682MOL0    Cl91979  13.182   7.416   4.372 -0.0170 -0.3293  0.0324
  682MOL0     C91980  12.227   6.838   3.997  0.6968  1.0045 -0.0774
  682MOL0     C91981  12.108   6.755   3.997 -0.0740  0.9112  0.2284
  682MOL0     O91982  11.789   6.756   4.271  0.9751 -0.7042  0.4333
  682MOL0     C91983  11.675   6.550   4.000  0.1794 -0.0288  0.3552
  682MOL0     C91984  11.575   6.463   3.967  0.7561  0.1985  0.5588
  682MOL0     N91985  10.898   6.171   4.038  0.6433  0.2939 -0.1883
  682MOL0     N91986  10.772   6.153   4.073 -0.0453  0.6291  0.1710
  682MOL0     C91987   9.801   5.320   3.905  0.1845  0.2519  0.4301
  682MOL0     C91988   9.691   5.235   3.887  1.0443 -0.6180 -0.4396
  682MOL0     C91989   9.380   5.015   3.649  0.1137 -0.5053  1.1276
  682MOL0     C91990   9.285   5.056   3.550  0.0954 -0.0701 -0.4978
  682MOL0     C91991   9.166   4.995   3.529 -0.2893 -0.5196 -0.7576
  682MOL0     C91992   9.134   4.876   3.590 -0.2482  0.4019  0.2502
  682MOL0     O91993   9.010   4.821   3.585  0.5940 -0.2506  0.1195
  682MOL0     C91994   8.947   4.800   3.465  0.0585 -0.0061 -0.1565
  682MOL0     C91995   8.838   4.703   3.507 -0.8803 -0.3551 -0.2542
  682MOL0     C91996   8.741   4.689   3.393 -0.1643  0.0748  0.0940
  682MOL0     C91997   8.635   4.578   3.417 -0.0302  0.1091  0.3035
  682MOL0     C91998   8.660   4.450   3.355  0.0456 -0.2563  0.1682
  682MOL0     C91999   8.681   4.346   3.293 -0.1329  0.6182  0.3443
  682MOL0     C92000   9.228   4.827   3.682  0.0890  0.6871 -0.6020
  682MOL0     C92001   9.345   4.890   3.718 -0.8391 -0.0990 -0.0604
  682MOL0     C92002   9.428   4.815   3.820 -0.3567  0.1833  0.4814
  682MOL0     H92003   9.811   5.058   3.621 -2.1120  1.7572 -1.6755
  682MOL0     H92004  10.001   5.215   3.658  1.1812  0.0923 -0.2186
  682MOL0     H92005  10.173   5.272   3.920 -0.6533 -2.8105 -2.2127
  682MOL0     H92006  10.173   5.309   3.747  0.0804  2.1115 -0.5112
  682MOL0     H92007  10.193   5.566   3.809 -0.0182  2.2983  2.6653
  682MOL0     H92008  10.346   5.466   3.829 -0.0802 -1.0224 -1.0632
  682MOL0     H92009  10.296   5.437   4.058  2.5838  1.4188  0.0201
  682MOL0     H92010  10.162   5.548   4.062 -2.2309  2.0424 -2.6572
  682MOL0     H92011  10.431   5.639   3.943 -0.0889  0.9119 -0.0931
  682MOL0     H92012  10.292   5.736   3.972 -1.4171 -2.0490 -0.9986
  682MOL0     H92013  10.306   5.655   4.229  0.1985  1.3759 -1.2452
  682MOL0     H92014  10.452   5.567   4.170  2.2004  1.2453 -0.5918
  682MOL0     H92015  10.391   5.869   4.170 -0.2897  1.2248  0.6930
  682MOL0     H92016  10.496   5.793   4.287 -0.2812 -3.6159  0.0437
  682MOL0     H92017  10.561   5.811   4.002 -1.5280 -1.0238  1.1996
  682MOL0     H92018  10.667   5.736   4.119 -1.0005 -2.3193 -2.2247
  682MOL0     H92019  10.541   6.019   4.115 -1.0841 -2.5979 -3.1065
  682MOL0     H92020  10.631   5.951   4.258 -0.7023  0.2002  0.5615
  682MOL0     H92021  10.890   5.851   4.100 -0.5337  0.4126  0.1411
  682MOL0     H92022  11.165   5.974   4.081  1.6605 -0.7203 -1.9263
  682MOL0     H92023  11.109   5.972   3.917 -0.8127  0.5212 -1.0648
  682MOL0     H92024  11.115   6.203   3.888  0.7373  4.2917  1.8009
  682MOL0     H92025  11.164   6.224   4.062 -2.0610 -1.2024 -0.0834
  682MOL0     H92026  11.329   6.064   3.862 -2.7098  1.0880 -0.3094
  682MOL0     H92027  11.370   6.087   4.023  0.7367 -0.9332 -1.2144
  682MOL0     H92028  11.332   6.323   3.837  3.8969  1.5705 -0.1279
  682MOL0     H92029  11.490   6.239   3.873 -0.9877  0.4914 -3.8803
  682MOL0     H92030  11.435   6.418   4.271  1.3698 -0.1360  0.7101
  682MOL0     H92031  11.607   6.581   4.335 -2.4822 -0.0819 -0.3427
  682MOL0     H92032  11.949   6.932   4.240  1.9816  1.4739  2.3024
  682MOL0     H92033  12.142   7.068   4.216  1.5922 -0.6837  1.5464
  682MOL0     H92034  12.501   6.876   4.192 -0.5763  1.8077  2.6451
  682MOL0     H92035  12.490   6.888   4.013 -0.8187 -0.4342  0.2581
  682MOL0     H92036  12.711   6.990   4.117 -0.0029  1.5941  2.1696
  682MOL0     H92037  12.613   7.093   4.017  0.5156 -0.6527 -0.5668
  682MOL0     H92038  12.525   7.207   4.225 -1.3359 -0.9356  2.0555
  682MOL0     H92039  12.578   7.072   4.328  0.7470 -0.6937 -0.7037
  682MOL0     H92040  12.756   7.280   4.195  1.7778  0.9286  1.1722
  682MOL0     H92041  12.813   7.123   4.253  1.4325  1.2021  0.3376
  682MOL0     H92042  12.756   7.157   4.471  0.6809  0.6110  0.9015
  682MOL0     H92043  12.670   7.306   4.448 -0.1915  1.3746 -1.6868
  682MOL0     H92044  12.865   7.367   4.554  0.3402  2.0583 -1.9691
  682MOL0     H92045  12.956   7.250   4.449 -0.6565 -0.4027  1.6771
  682MOL0     H92046  12.954   7.520   4.421 -2.0896  2.7561 -1.6220
  682MOL0     H92047  12.828   7.469   4.299 -0.0283 -1.2547 -0.4561
  682MOL0     H92048  13.028   7.308   4.229 -0.9711  1.3362 -2.0396
  682MOL0     H92049  13.036   7.475   4.184 -0.2809 -2.7616 -2.0646
  682MOL0     H92050  12.301   6.822   3.919  0.0623 -2.1804 -0.1707
  682MOL0     H92051  12.098   6.672   3.928 -3.6724  0.6218  0.9328
  682MOL0     H92052  11.750   6.576   3.927 -0.2580  0.5954  0.1220
  682MOL0     H92053  11.577   6.432   3.863  2.0135 -2.4081  1.2848
  682MOL0     H92054   9.800   5.386   3.991  3.3356  2.1119 -0.7509
  682MOL0     H92055   9.609   5.250   3.956 -1.1909 -2.8883 -2.4078
  682MOL0     H92056   9.301   5.151   3.498  0.5840  0.4980  0.6549
  682MOL0     H92057   9.099   5.049   3.463  0.1044 -0.4439 -1.1057
  682MOL0     H92058   9.010   4.749   3.391  1.7417  0.4304  0.9141
  682MOL0     H92059   8.910   4.896   3.427  0.0568  0.5841  1.2686
  682MOL0     H92060   8.800   4.737   3.604 -2.0127  3.3710 -1.8017
  682MOL0     H92061   8.881   4.603   3.516 -0.7143 -0.1804  1.1803
  682MOL0     H92062   8.785   4.679   3.294 -0.0481  0.2497  0.1250
  682MOL0     H92063   8.690   4.783   3.370 -0.3648 -0.4230 -1.6221
  682MOL0     H92064   8.641   4.550   3.523  1.6144  0.6105  0.3655
  682MOL0     H92065   8.537   4.620   3.394 -0.9071 -1.7649  0.4233
  682MOL0     H92066   8.707   4.257   3.239  2.1713  0.5456  1.4464
  682MOL0     H92067   9.204   4.738   3.740  0.7093  0.8912 -0.0231
  682MOL0     H92068   9.388   4.714   3.838  0.9663 -0.7079 -1.1880
  682MOL0     H92069   9.536   4.807   3.800 -0.7524 -0.9455 -1.5945
  682MOL0     H92070   9.432   4.873   3.912 -3.1944  1.5222 -0.1294
  683MOL0     O92071   8.014   8.559   3.900 -0.4177 -0.0743 -0.0613
  683MOL0     C92072   8.031   8.455   3.850  0.2748  0.1181  0.4801
  683MOL0     O92073   8.143   8.386   3.835  0.2500 -0.2636 -0.6831
  683MOL0     C92074   8.269   8.430   3.867  0.2790  0.7585  0.3184
  683MOL0     C92075   8.351   8.340   3.805 -0.2810 -0.0936  0.0304
  683MOL0     C92076   8.492   8.354   3.814  0.7392  0.6100  0.0379
  683MOL0     C92077   8.551   8.456   3.891  0.8296  0.0730  0.3762
  683MOL0     O92078   8.692   8.462   3.884  0.0208 -0.1949 -0.3295
  683MOL0     C92079   8.756   8.583   3.925  0.1057 -1.0478  0.2911
  683MOL0     C92080   8.894   8.548   3.916 -0.1943 -0.8972 -0.1538
  683MOL0     C92081   8.948   8.533   3.778 -1.3825  0.4214 -0.1005
  683MOL0     C92082   9.108   8.511   3.762  0.5491  0.1754 -0.2196
  683MOL0     C92083   9.200   8.630   3.808  0.1247  0.0898  0.5822
  683MOL0     C92084   9.353   8.594   3.777 -0.0483 -0.8476  0.2994
  683MOL0     C92085   9.384   8.666   3.637  0.0167  0.5134 -0.2220
  683MOL0     C92086   9.509   8.600   3.569 -0.4810 -0.4448 -0.2718
  683MOL0     N92087   9.625   8.595   3.664  0.5240  0.7634  0.3426
  683MOL0     C92088   9.661   8.501   3.755  0.2684  0.0307  0.1846
  683MOL0     C92089   9.779   8.541   3.808 -0.0836 -0.5964 -0.3930
  683MOL0     C92090   9.855   8.458   3.899  0.0981 -0.1202 -0.2252
  683MOL0     C92091   9.994   8.390   3.856  0.5996 -1.1737  0.1478
  683MOL0     C92092   9.962   8.270   3.759 -0.1494 -1.1670  0.3906
  683MOL0     C92093  10.078   8.199   3.695 -0.2445 -0.2159  0.8065
  683MOL0     O92094  10.161   8.173   3.810 -0.6605 -0.0398  0.6650
  683MOL0     C92095  10.288   8.124   3.763  0.0418 -0.9260 -0.8356
  683MOL0     C92096  10.321   7.992   3.764  0.5092  0.0159 -0.5783
  683MOL0     C92097  10.446   7.944   3.727  0.0347 -0.6913  0.2450
  683MOL0     C92098  10.543   8.039   3.682  0.0025  0.7514 -0.4711
  683MOL0     C92099  10.685   7.995   3.651  0.2447  0.5580 -0.5385
  683MOL0     O92100  10.778   8.088   3.665 -0.2804 -0.9418  0.0690
  683MOL0     C92101  10.905   8.085   3.622  0.9433  0.7146 -0.7847
  683MOL0     C92102  10.992   7.970   3.620 -0.0030  0.1747 -0.6126
  683MOL0     C92103  11.121   7.984   3.578  0.1864 -1.1231  0.1890
  683MOL0     C92104  11.173   8.113   3.552 -0.6945 -0.6924  0.2891
  683MOL0     O92105  11.304   8.122   3.501  0.4280  0.1127 -0.2568
  683MOL0     C92106  11.380   8.007   3.453  0.0878  0.3233 -0.0615
  683MOL0     C92107  11.500   8.063   3.378  0.8073 -0.1770 -0.4526
  683MOL0     C92108  11.601   8.121   3.472 -0.3124  0.4014 -0.3913
  683MOL0     C92109  11.717   8.171   3.392 -0.2774  0.6948 -0.1771
  683MOL0     C92110  11.835   8.219   3.478  0.1879 -0.1853 -0.6471
  683MOL0     C92111  11.952   8.268   3.399  1.3437 -0.1463 -0.8601
  683MOL0     C92112  12.027   8.390   3.465  0.4570 -0.2706  0.0115
  683MOL0     C92113  12.169   8.391   3.420 -0.0008 -0.4380 -0.5157
  683MOL0    Cl92114  12.259   8.264   3.505 -0.3127 -0.1216 -0.2222
  683MOL0     C92115  11.087   8.218   3.552 -0.0018 -0.5732  0.1696
  683MOL0     C92116  10.952   8.205   3.580  1.0196  0.2941 -0.4847
  683MOL0     O92117  10.700   7.877   3.622  0.1513  0.0146  0.5786
  683MOL0     C92118  10.512   8.176   3.684 -0.6880  0.2805  0.0636
  683MOL0     C92119  10.380   8.212   3.712  0.3408  0.1108  0.5729
  683MOL0     N92120   9.808   8.666   3.758  0.1365 -0.1827 -0.0911
  683MOL0     N92121   9.718   8.691   3.669  0.6044  0.3525 -0.9448
  683MOL0     C92122   8.466   8.548   3.956 -0.1700 -0.1611  0.5524
  683MOL0     C92123   8.323   8.536   3.939 -0.1532 -0.1666 -0.2964
  683MOL0     C92124   7.920   8.387   3.775 -0.3006 -0.2061  0.5453
  683MOL0     C92125   7.956   8.298   3.677  0.1544 -0.6116  0.0833
  683MOL0     C92126   7.864   8.228   3.607 -0.5074 -0.1380 -0.4437
  683MOL0     C92127   7.727   8.256   3.630 -0.1035  0.4652 -0.1162
  683MOL0     O92128   7.626   8.193   3.556  0.2121 -0.0457 -0.6708
  683MOL0     C92129   7.664   8.115   3.446  0.1301  0.7272  0.0935
  683MOL0     C92130   7.525   8.058   3.393 -0.0645  0.2189  0.2764
  683MOL0     C92131   7.446   7.971   3.484  0.3358  0.7392 -0.5262
  683MOL0     C92132   7.301   8.016   3.498  0.3406 -0.1887 -0.1137
  683MOL0     C92133   7.223   7.944   3.603 -0.2049  0.7120 -0.2106
  683MOL0     C92134   7.156   7.895   3.695 -0.1190  0.2644  0.7292
  683MOL0     C92135   7.688   8.341   3.735  0.2719  0.2474  0.4682
  683MOL0     C92136   7.789   8.407   3.807 -0.1027 -0.6956  1.7787
  683MOL0     C92137   7.736   8.491   3.915 -0.3733  0.4428 -0.5027
  683MOL0     H92138   8.317   8.249   3.757  3.6590 -1.0858 -1.2592
  683MOL0     H92139   8.568   8.285   3.782  0.8673 -0.3565  2.2366
  683MOL0     H92140   8.739   8.661   3.850  1.9586  2.8941  3.5718
  683MOL0     H92141   8.724   8.615   4.025  0.1094 -0.3792  0.0811
  683MOL0     H92142   8.919   8.453   3.966  1.7598 -1.6372 -2.3716
  683MOL0     H92143   8.938   8.635   3.965 -1.0733  0.1523 -1.1888
  683MOL0     H92144   8.921   8.615   3.711  1.5690  0.6091 -1.2087
  683MOL0     H92145   8.904   8.453   3.717  1.1824  1.5601 -3.8656
  683MOL0     H92146   9.142   8.423   3.817  2.6744 -0.2077 -1.9718
  683MOL0     H92147   9.125   8.504   3.654 -0.8493  2.0975 -0.6122
  683MOL0     H92148   9.166   8.726   3.769 -1.3825 -0.3174  0.8583
  683MOL0     H92149   9.199   8.632   3.917 -0.2941  1.6180  0.5662
  683MOL0     H92150   9.423   8.632   3.852  0.3205 -0.3680 -0.2836
  683MOL0     H92151   9.371   8.487   3.766 -0.7803 -0.8587 -0.9012
  683MOL0     H92152   9.410   8.770   3.656 -1.3035  0.6172  1.1304
  683MOL0     H92153   9.299   8.653   3.569  2.5424 -1.3519 -3.3435
  683MOL0     H92154   9.481   8.497   3.544  1.2732 -0.8755 -0.5517
  683MOL0     H92155   9.546   8.651   3.480 -1.3763 -1.0161 -1.0010
  683MOL0     H92156   9.611   8.409   3.783  0.9176 -0.2632  0.4083
  683MOL0     H92157   9.893   8.527   3.975 -2.0257  0.0812  0.7238
  683MOL0     H92158   9.786   8.388   3.946 -4.8361  3.9419 -0.6697
  683MOL0     H92159  10.065   8.459   3.811  0.0521 -1.2964 -0.9511
  683MOL0     H92160  10.031   8.349   3.950  1.6172  0.4823  0.5102
  683MOL0     H92161   9.897   8.308   3.680  0.1721  1.2548  1.2209
  683MOL0     H92162   9.897   8.204   3.817 -2.3660  2.1820  2.0113
  683MOL0     H92163  10.117   8.263   3.616 -2.9519 -0.9433 -1.2643
  683MOL0     H92164  10.043   8.106   3.648  1.0623  0.2458 -1.1981
  683MOL0     H92165  10.241   7.933   3.807 -1.6314  2.6092 -0.7089
  683MOL0     H92166  10.473   7.839   3.734  0.6378 -0.5986 -0.5890
  683MOL0     H92167  10.947   7.871   3.629  0.6044 -0.0784 -0.3565
  683MOL0     H92168  11.179   7.892   3.583  1.1025 -0.5179  1.0138
  683MOL0     H92169  11.408   7.935   3.530 -0.4675 -0.2737 -0.4051
  683MOL0     H92170  11.320   7.944   3.386 -1.1002 -0.0605  1.3126
  683MOL0     H92171  11.541   7.988   3.309 -0.4757 -0.9182 -0.4362
  683MOL0     H92172  11.457   8.144   3.318  0.0104 -0.6127 -0.4812
  683MOL0     H92173  11.555   8.198   3.534 -0.4829 -1.0833  1.4251
  683MOL0     H92174  11.635   8.047   3.545  1.1024  0.4507 -0.9585
  683MOL0     H92175  11.689   8.253   3.325 -1.0241 -0.3193 -1.1433
  683MOL0     H92176  11.750   8.080   3.341 -1.6459 -1.8820  3.1291
  683MOL0     H92177  11.878   8.156   3.555  1.0252  1.6340  0.4324
  683MOL0     H92178  11.797   8.309   3.529  0.2293 -0.8971  0.6698
  683MOL0     H92179  12.022   8.185   3.393 -0.1190 -1.3578 -1.9277
  683MOL0     H92180  11.929   8.301   3.297  1.0614  1.5998 -0.2732
  683MOL0     H92181  12.028   8.384   3.574  0.6304  0.8138  0.0839
  683MOL0     H92182  11.974   8.485   3.453 -2.8107 -1.9751 -0.1043
  683MOL0     H92183  12.174   8.352   3.318 -0.0465 -0.7810 -0.3905
  683MOL0     H92184  12.203   8.495   3.420 -0.6054 -0.2129  0.8977
  683MOL0     H92185  11.145   8.301   3.515  0.2835 -1.2635 -0.9714
  683MOL0     H92186  10.883   8.286   3.558  0.2181 -0.0946  0.5522
  683MOL0     H92187  10.589   8.240   3.642  0.5775 -1.3681 -0.2545
  683MOL0     H92188  10.368   8.319   3.723 -2.1293  0.0143 -0.5405
  683MOL0     H92189   8.501   8.629   4.020 -1.7253  0.1887  1.0084
  683MOL0     H92190   8.273   8.614   3.995  1.4425 -0.7246  2.0223
  683MOL0     H92191   8.060   8.281   3.655  0.2358  0.7430 -0.7187
  683MOL0     H92192   7.893   8.158   3.529 -2.3537  0.0740 -1.3799
  683MOL0     H92193   7.725   8.027   3.468 -0.1992  0.0511 -1.5306
  683MOL0     H92194   7.719   8.170   3.369  0.2054  0.7383  0.1546
  683MOL0     H92195   7.552   7.992   3.310  3.9124 -1.5770  2.7250
  683MOL0     H92196   7.459   8.141   3.365  0.0519  0.9702  2.0854
  683MOL0     H92197   7.491   7.973   3.583  1.3384  1.7732 -0.9870
  683MOL0     H92198   7.448   7.869   3.443  0.4412  1.0609 -1.3356
  683MOL0     H92199   7.290   8.120   3.530  1.1637 -0.6952  2.0049
  683MOL0     H92200   7.254   8.020   3.400 -0.5102 -0.1839  0.2807
  683MOL0     H92201   7.095   7.844   3.767  0.6313 -0.1214  1.1129
  683MOL0     H92202   7.581   8.345   3.754  0.0470 -1.0211 -0.3591
  683MOL0     H92203   7.731   8.596   3.885 -2.0839  0.1820 -1.2471
  683MOL0     H92204   7.631   8.468   3.935  0.3959 -2.9426  0.2185
  683MOL0     H92205   7.793   8.471   4.006  0.3881 -3.7118 -1.6648
  684MOL0     O92206  10.619   4.381   4.465 -0.6045  0.1895  0.2431
  684MOL0     C92207  10.624   4.311   4.571 -0.5807 -0.8385  0.1344
  684MOL0     O92208  10.730   4.312   4.652 -0.8063 -0.7649 -0.2619
  684MOL0     C92209  10.831   4.404   4.628  0.8172  0.3211 -0.1848
  684MOL0     C92210  10.950   4.362   4.579 -0.4867  0.2758 -0.5736
  684MOL0     C92211  11.051   4.452   4.547  0.4877 -0.0109  0.3606
  684MOL0     C92212  11.036   4.590   4.571  0.6769 -1.6189  0.4832
  684MOL0     O92213  11.126   4.688   4.541 -0.0076 -0.0470  0.7542
  684MOL0     C92214  11.232   4.648   4.455  0.2065  0.1621 -0.0055
  684MOL0     C92215  11.297   4.786   4.415  0.2902  0.5348 -0.4247
  684MOL0     C92216  11.419   4.758   4.322  0.0237  0.4485  0.6393
  684MOL0     C92217  11.460   4.888   4.245  0.8312 -0.0026  0.0632
  684MOL0     C92218  11.578   4.867   4.154 -0.0569  0.5209  0.0725
  684MOL0     C92219  11.716   4.834   4.221 -0.1254 -0.0899 -0.7748
  684MOL0     C92220  11.832   4.886   4.142  0.5280  1.0826 -0.1001
  684MOL0     C92221  11.961   4.814   4.160 -0.6179  0.8266  0.3712
  684MOL0     N92222  12.018   4.820   4.290  0.0478  0.1343 -0.2587
  684MOL0     C92223  12.108   4.911   4.329  0.4529  0.1632 -1.4775
  684MOL0     C92224  12.126   4.876   4.462 -0.6205  0.1423  0.4788
  684MOL0     C92225  12.218   4.961   4.550  1.5265 -0.1760  1.3988
  684MOL0     C92226  12.359   4.914   4.567 -0.5361  0.4981  0.6214
  684MOL0     C92227  12.415   4.838   4.444  0.9786  0.7284 -0.6793
  684MOL0     C92228  12.552   4.793   4.452  0.2360  0.4305 -0.6766
  684MOL0     O92229  12.640   4.911   4.472 -0.7499 -0.0218  0.1612
  684MOL0     C92230  12.775   4.899   4.426 -0.0674 -0.2712  0.2148
  684MOL0     C92231  12.851   5.012   4.458 -0.0833  0.0425  0.0021
  684MOL0     C92232  12.984   5.018   4.434 -0.6932  0.8371 -0.2305
  684MOL0     C92233  13.046   4.907   4.372 -0.1452 -0.5695  0.3508
  684MOL0     C92234  13.188   4.911   4.345 -0.6157  0.0767  0.2847
  684MOL0     O92235  13.228   5.015   4.257 -0.2888 -0.4248  0.3691
  684MOL0     C92236  13.353   5.029   4.210  0.1860 -1.7408  0.6456
  684MOL0     C92237  13.468   4.986   4.283  1.8076 -0.1029  0.6233
  684MOL0     C92238  13.599   4.989   4.240 -0.5062  0.0061  0.7827
  684MOL0     C92239  13.628   5.043   4.115  1.2020  0.2166 -0.1146
  684MOL0     O92240  13.757   5.045   4.079 -0.4132  0.2374  0.4043
  684MOL0     C92241  13.790   5.089   3.950  0.3170 -0.3179  0.4025
  684MOL0     C92242  13.936   5.059   3.918  0.1668 -0.3590 -0.4500
  684MOL0     C92243  14.034   5.116   4.028  0.2226 -0.4122 -0.0204
  684MOL0     C92244  14.158   5.023   4.031 -0.8487  0.0778  0.1473
  684MOL0     C92245  14.258   5.063   3.917 -0.1224 -0.0447  0.0174
  684MOL0     C92246  14.405   5.073   3.958 -0.5867  0.2195 -0.6041
  684MOL0     C92247  14.493   5.147   3.852  0.5597  0.3039  0.0994
  684MOL0     C92248  14.472   5.107   3.705 -0.3918  0.0366 -0.3548
  684MOL0    Cl92249  14.530   4.934   3.684 -0.1550  0.1624  0.4166
  684MOL0     C92250  13.516   5.090   4.032 -0.3521  0.5212  0.0042
  684MOL0     C92251  13.384   5.087   4.080 -0.0371  0.0499  0.2911
  684MOL0     O92252  13.262   4.823   4.390 -0.6589 -0.2605  0.3882
  684MOL0     C92253  12.978   4.792   4.346 -0.0684  0.0520 -0.5083
  684MOL0     C92254  12.840   4.792   4.374  0.6144  0.2195  0.1199
  684MOL0     N92255  12.048   4.772   4.503 -0.2921 -0.1466 -0.3017
  684MOL0     N92256  11.978   4.736   4.396 -0.0083 -0.3177 -0.3739
  684MOL0     C92257  10.925   4.629   4.645 -0.3882 -0.7330  0.4906
  684MOL0     C92258  10.821   4.539   4.666 -0.7487  1.0456  0.6448
  684MOL0     C92259  10.511   4.225   4.604 -0.3644  0.4962  0.5457
  684MOL0     C92260  10.532   4.089   4.648 -0.0803  1.3745  0.0161
  684MOL0     C92261  10.426   4.006   4.673  0.5413  0.5621  0.7193
  684MOL0     C92262  10.292   4.055   4.650  1.1232 -0.7638 -0.0309
  684MOL0     O92263  10.174   3.984   4.667 -0.3226 -0.3690  0.2015
  684MOL0     C92264  10.180   3.848   4.710 -0.1708  0.2401 -1.1263
  684MOL0     C92265  10.187   3.768   4.586  0.1580  0.5732  0.1563
  684MOL0     C92266  10.041   3.719   4.540 -0.2289 -0.2888 -0.6668
  684MOL0     C92267  10.042   3.630   4.423 -0.7784 -0.8885  0.1098
  684MOL0     C92268   9.909   3.584   4.384  0.0239  0.2037  1.2824
  684MOL0     C92269   9.800   3.532   4.372 -0.0376 -0.6110 -0.7878
  684MOL0     C92270  10.272   4.188   4.618  0.2581 -0.1438  0.0672
  684MOL0     C92271  10.379   4.271   4.585  0.3724  0.0848  0.5781
  684MOL0     C92272  10.336   4.411   4.546  0.5660 -0.2758  0.0874
  684MOL0     H92273  10.959   4.254   4.574  0.0099  0.3192 -0.6308
  684MOL0     H92274  11.147   4.420   4.507  1.5909  0.7639  2.2381
  684MOL0     H92275  11.310   4.596   4.510  3.6315  3.7488 -1.0249
  684MOL0     H92276  11.206   4.583   4.370  1.4736 -1.6121  0.8993
  684MOL0     H92277  11.326   4.848   4.500  2.9801  1.4459 -1.8893
  684MOL0     H92278  11.228   4.842   4.350 -0.2151  1.7313  1.0771
  684MOL0     H92279  11.405   4.682   4.245 -2.0928  1.0753  0.3466
  684MOL0     H92280  11.496   4.717   4.388 -0.5514 -0.9016  0.5009
  684MOL0     H92281  11.380   4.923   4.179 -0.1117 -1.7697  0.2332
  684MOL0     H92282  11.476   4.972   4.313  2.0768  0.1908 -0.4348
  684MOL0     H92283  11.551   4.793   4.078  1.6342 -1.4026  1.2380
  684MOL0     H92284  11.598   4.961   4.103  0.1708  0.4505  0.0303
  684MOL0     H92285  11.714   4.871   4.324  0.5583  0.1305 -0.8359
  684MOL0     H92286  11.726   4.726   4.235  0.5204 -0.4319 -3.2476
  684MOL0     H92287  11.858   4.987   4.174  2.5045  0.0246  1.9056
  684MOL0     H92288  11.793   4.878   4.040 -3.3135  0.5242  1.2249
  684MOL0     H92289  11.954   4.710   4.125  1.1101  0.9652 -0.4669
  684MOL0     H92290  12.026   4.865   4.089  0.6336 -1.5755 -0.3057
  684MOL0     H92291  12.143   4.989   4.262  0.2813  0.5206 -1.1603
  684MOL0     H92292  12.225   5.056   4.497  4.7048 -0.6109  0.8375
  684MOL0     H92293  12.176   4.982   4.649  1.4750 -0.6598  1.4830
  684MOL0     H92294  12.426   4.995   4.596  3.9844 -2.8072  0.5255
  684MOL0     H92295  12.362   4.840   4.648 -1.3123 -0.5075 -0.2395
  684MOL0     H92296  12.398   4.914   4.368 -0.3638 -1.4590 -2.6725
  684MOL0     H92297  12.352   4.753   4.417  3.2604 -0.5373 -2.3286
  684MOL0     H92298  12.581   4.727   4.371  2.5720 -1.7599  1.7738
  684MOL0     H92299  12.555   4.738   4.546  1.3527 -0.3111 -1.1327
  684MOL0     H92300  12.800   5.094   4.508 -2.1936 -1.7200  0.9359
  684MOL0     H92301  13.051   5.099   4.461  4.8507 -3.3511  0.4170
  684MOL0     H92302  13.450   4.965   4.388 -0.2091 -1.4513  0.0768
  684MOL0     H92303  13.684   4.950   4.294  0.3792 -1.1827 -1.3246
  684MOL0     H92304  13.737   5.035   3.871  2.7624 -3.0965  0.5140
  684MOL0     H92305  13.772   5.197   3.951 -2.1950 -0.6792  0.5217
  684MOL0     H92306  13.947   4.951   3.920 -0.3540 -0.4133  1.1307
  684MOL0     H92307  13.960   5.106   3.822 -0.0221 -1.2867 -0.9552
  684MOL0     H92308  14.066   5.217   4.001 -0.2767 -0.4344 -0.7182
  684MOL0     H92309  13.991   5.123   4.128 -0.9832 -0.1012 -0.5384
  684MOL0     H92310  14.141   4.915   4.026 -0.5043 -0.1655  2.7463
  684MOL0     H92311  14.204   5.038   4.129  1.9247  0.8124 -1.1468
  684MOL0     H92312  14.239   5.160   3.870  2.1721  0.7914  0.6838
  684MOL0     H92313  14.254   4.990   3.836  1.4440  0.4297 -0.5283
  684MOL0     H92314  14.423   5.118   4.056 -1.1747  1.0135 -0.8494
  684MOL0     H92315  14.442   4.972   3.976 -1.5156 -0.4228 -2.1204
  684MOL0     H92316  14.598   5.143   3.879  0.3205  2.1000  1.4759
  684MOL0     H92317  14.461   5.252   3.853 -1.2148 -0.1972 -0.1491
  684MOL0     H92318  14.367   5.116   3.676 -0.3940 -3.7058 -1.9700
  684MOL0     H92319  14.537   5.175   3.648  1.1521  1.4460  2.8297
  684MOL0     H92320  13.527   5.132   3.932 -1.5491  1.0860  0.0874
  684MOL0     H92321  13.304   5.127   4.019 -1.2752  0.0925  1.8854
  684MOL0     H92322  13.030   4.708   4.300 -1.5355 -1.3158  0.2436
  684MOL0     H92323  12.775   4.705   4.366 -1.2097  1.2897  2.2029
  684MOL0     H92324  10.928   4.733   4.674  3.5140 -1.1350  2.1161
  684MOL0     H92325  10.730   4.569   4.717  1.0562  3.3158  2.7261
  684MOL0     H92326  10.631   4.053   4.675 -0.4376  0.7647  0.5363
  684MOL0     H92327  10.440   3.901   4.698 -0.4652  0.1398 -0.3745
  684MOL0     H92328  10.099   3.810   4.772  1.6763 -2.5936 -0.2274
  684MOL0     H92329  10.265   3.833   4.777  0.1656  0.9195 -1.3924
  684MOL0     H92330  10.247   3.679   4.603 -0.9111 -0.0630  0.7327
  684MOL0     H92331  10.243   3.817   4.505 -1.0928  3.3632  0.8650
  684MOL0     H92332   9.972   3.802   4.522  0.0050  0.3835  1.2790
  684MOL0     H92333   9.991   3.660   4.617  0.2344 -0.1642 -0.2663
  684MOL0     H92334  10.096   3.671   4.337 -1.8686 -2.8189 -1.5932
  684MOL0     H92335  10.113   3.553   4.456 -1.0188 -0.3439  2.0240
  684MOL0     H92336   9.703   3.487   4.362 -0.7168  0.2965  1.2105
  684MOL0     H92337  10.172   4.230   4.623  1.3367  2.5758  0.0435
  684MOL0     H92338  10.230   4.433   4.561  1.4385  4.4229  1.0496
  684MOL0     H92339  10.374   4.492   4.610 -4.3669  2.0300  0.5414
  684MOL0     H92340  10.364   4.439   4.444 -0.5041  0.9531  0.1077
  685MOL0     O92341   6.461   0.737   6.663 -0.6245 -0.2139 -0.2414
  685MOL0     C92342   6.412   0.625   6.677 -0.4573 -1.1075 -0.2216
  685MOL0     O92343   6.482   0.513   6.696  0.4767  0.3343  0.6745
  685MOL0     C92344   6.612   0.512   6.675 -0.1608 -0.1524 -0.1809
  685MOL0     C92345   6.670   0.425   6.580  0.7317  0.1454 -0.0747
  685MOL0     C92346   6.804   0.420   6.555  0.5336 -0.3816 -0.5830
  685MOL0     C92347   6.890   0.499   6.618 -0.7830 -0.1773 -0.3750
  685MOL0     O92348   7.020   0.492   6.575 -0.6544  0.1892 -0.6028
  685MOL0     C92349   7.108   0.586   6.650  0.5492 -0.1863 -0.0868
  685MOL0     C92350   7.247   0.577   6.583  0.4654 -0.1537 -0.1680
  685MOL0     C92351   7.339   0.668   6.658 -0.5176 -0.5729  0.5374
  685MOL0     C92352   7.487   0.671   6.603  0.2523 -0.0871 -1.1208
  685MOL0     C92353   7.573   0.555   6.658  0.1061  0.8410 -0.4317
  685MOL0     C92354   7.722   0.607   6.646 -0.0200 -0.0621 -0.3630
  685MOL0     C92355   7.786   0.632   6.509 -0.6466 -0.5344 -0.5273
  685MOL0     C92356   7.741   0.540   6.393  0.1847  0.4499  0.2069
  685MOL0     N92357   7.806   0.555   6.267 -0.0033  0.1712  0.1197
  685MOL0     C92358   7.865   0.444   6.201  0.4152 -0.2439 -1.4241
  685MOL0     C92359   7.916   0.501   6.082 -0.2772  0.4325 -0.0681
  685MOL0     C92360   7.987   0.421   5.973 -0.0404  0.2827 -1.1765
  685MOL0     C92361   8.139   0.456   5.975 -0.0086  0.4621  0.0277
  685MOL0     C92362   8.192   0.382   5.851  0.0585  0.8090 -0.0725
  685MOL0     C92363   8.178   0.457   5.723 -0.0456 -0.0892 -0.9262
  685MOL0     O92364   8.307   0.515   5.697  0.4874 -0.4914  0.3762
  685MOL0     C92365   8.394   0.448   5.616 -0.7466 -0.1255  0.5484
  685MOL0     C92366   8.472   0.514   5.523 -0.7269  0.0118 -0.4641
  685MOL0     C92367   8.566   0.443   5.448  0.2006  0.2376 -0.3619
  685MOL0     C92368   8.599   0.313   5.479  0.1433 -0.5566  0.3529
  685MOL0     C92369   8.724   0.248   5.417  0.7803 -0.5873 -0.0279
  685MOL0     O92370   8.766   0.131   5.469 -0.1657  0.3382 -0.2773
  685MOL0     C92371   8.887   0.068   5.430 -0.5590 -0.0483  0.0885
  685MOL0     C92372   8.877  -0.061   5.370  0.9805 -0.1739  0.0885
  685MOL0     C92373   8.995  -0.132   5.340  0.3899  0.1224 -0.1554
  685MOL0     C92374   9.119  -0.080   5.350  0.4030  0.0090  0.0836
  685MOL0     O92375   9.236  -0.142   5.319 -0.3861 -0.1709  0.5131
  685MOL0     C92376   9.247  -0.287   5.333  0.2118 -0.4158 -0.3382
  685MOL0     C92377   9.389  -0.325   5.295  0.0455 -0.4456 -0.6379
  685MOL0     C92378   9.417  -0.473   5.308 -0.6137 -0.2548 -0.0020
  685MOL0     C92379   9.376  -0.553   5.187 -0.2626 -0.5665  0.0681
  685MOL0     C92380   9.368  -0.703   5.207 -0.5361  0.4334 -1.0132
  685MOL0     C92381   9.308  -0.785   5.093 -0.1497  0.8031 -0.2039
  685MOL0     C92382   9.167  -0.745   5.067  0.3496  0.8681  0.5019
  685MOL0     C92383   9.115  -0.835   4.949 -0.3429 -0.2446  0.1510
  685MOL0    Cl92384   8.961  -0.756   4.896 -0.3953  0.0568 -0.2971
  685MOL0     C92385   9.132   0.044   5.408  0.4227  0.3023  0.0708
  685MOL0     C92386   9.017   0.115   5.443 -0.3482  0.6830 -0.1239
  685MOL0     O92387   8.789   0.314   5.341 -0.0123  0.2955  0.2048
  685MOL0     C92388   8.532   0.246   5.581  0.0067 -0.4067 -0.2171
  685MOL0     C92389   8.420   0.309   5.640 -0.7477  0.1432 -0.0187
  685MOL0     N92390   7.882   0.635   6.086 -0.2767 -0.3377  0.7062
  685MOL0     N92391   7.808   0.661   6.190  0.2524  0.2628  0.0019
  685MOL0     C92392   6.840   0.584   6.721 -0.6774  0.1199 -1.1883
  685MOL0     C92393   6.700   0.589   6.749 -0.2224 -0.6224 -0.1636
  685MOL0     C92394   6.265   0.610   6.664 -0.4060  1.0860  0.0442
  685MOL0     C92395   6.199   0.569   6.781 -0.3395  0.3970  0.3582
  685MOL0     C92396   6.065   0.544   6.786  0.3879  0.1383  0.8504
  685MOL0     C92397   5.980   0.567   6.677 -0.6396  0.2382  0.7231
  685MOL0     O92398   5.849   0.526   6.683  0.2647 -0.6176  0.0649
  685MOL0     C92399   5.749   0.605   6.620  0.3524 -0.4192 -0.8191
  685MOL0     C92400   5.630   0.513   6.643  0.0877 -0.4299  0.7692
  685MOL0     C92401   5.501   0.599   6.663  0.7907  0.6748 -0.4385
  685MOL0     C92402   5.368   0.522   6.638  0.6714 -0.5397  0.9077
  685MOL0     C92403   5.341   0.434   6.751 -0.8375  0.0425 -0.1861
  685MOL0     C92404   5.296   0.361   6.840 -0.2651 -0.0481  0.1658
  685MOL0     C92405   6.047   0.614   6.555  0.3226  0.1467  0.3459
  685MOL0     C92406   6.192   0.625   6.544 -0.2369  0.2936  0.2304
  685MOL0     C92407   6.259   0.657   6.410  0.0659 -0.4102  0.1609
  685MOL0     H92408   6.599   0.370   6.518  1.0077  0.3439 -0.5708
  685MOL0     H92409   6.835   0.339   6.490 -2.4525 -2.7288  0.6844
  685MOL0     H92410   7.061   0.684   6.639 -3.8938 -2.1730 -1.0316
  685MOL0     H92411   7.112   0.567   6.758  0.6083 -0.5637 -0.1548
  685MOL0     H92412   7.234   0.597   6.476  4.1574 -0.3265 -0.7811
  685MOL0     H92413   7.296   0.480   6.587  0.6254 -0.0232  1.8549
  685MOL0     H92414   7.338   0.630   6.761 -1.2927  0.4685  0.9349
  685MOL0     H92415   7.292   0.766   6.671 -1.0468 -1.1306  3.7094
  685MOL0     H92416   7.478   0.663   6.494 -1.2861  0.7173 -1.0699
  685MOL0     H92417   7.532   0.770   6.613  1.8046 -0.4728 -3.3022
  685MOL0     H92418   7.559   0.532   6.764 -0.4705 -1.0911 -0.8741
  685MOL0     H92419   7.561   0.457   6.610 -1.3195 -0.6523  2.6801
  685MOL0     H92420   7.726   0.697   6.706  2.0739 -0.3748  0.0300
  685MOL0     H92421   7.782   0.536   6.703  0.2240  1.0869  0.8466
  685MOL0     H92422   7.895   0.637   6.510 -0.5017 -2.5549  0.3657
  685MOL0     H92423   7.759   0.735   6.486 -2.2613 -0.7421  0.3076
  685MOL0     H92424   7.765   0.445   6.442  3.4300  1.7208  1.3636
  685MOL0     H92425   7.633   0.550   6.381 -0.1885 -1.2966  1.6581
  685MOL0     H92426   7.863   0.344   6.242 -1.0389  0.7075  1.1112
  685MOL0     H92427   7.966   0.316   5.995 -2.0768  0.7645 -0.5478
  685MOL0     H92428   7.933   0.432   5.878 -0.0947  1.4757 -1.0208
  685MOL0     H92429   8.175   0.559   5.973  1.6071 -0.0716 -0.5262
  685MOL0     H92430   8.186   0.415   6.065  2.0268  3.7995  0.6784
  685MOL0     H92431   8.131   0.292   5.839 -1.1544  1.6429 -0.3817
  685MOL0     H92432   8.296   0.365   5.880 -0.7791 -0.2910  2.6078
  685MOL0     H92433   8.096   0.529   5.735 -1.4049 -1.5662 -1.0926
  685MOL0     H92434   8.155   0.400   5.633 -1.7000  1.2111 -1.3858
  685MOL0     H92435   8.463   0.621   5.508 -1.5056 -0.1923 -1.6078
  685MOL0     H92436   8.608   0.484   5.357  1.0958 -2.3222 -1.1987
  685MOL0     H92437   8.780  -0.106   5.351  0.4081  1.3285 -0.7136
  685MOL0     H92438   8.988  -0.235   5.306  2.7650  0.0985 -0.7206
  685MOL0     H92439   9.232  -0.315   5.437 -4.0099 -0.8581 -0.8747
  685MOL0     H92440   9.174  -0.351   5.283  0.3792 -1.1118  0.2975
  685MOL0     H92441   9.400  -0.296   5.191  1.8629 -0.9455 -0.6266
  685MOL0     H92442   9.457  -0.271   5.362  0.2740  0.9666 -1.9495
  685MOL0     H92443   9.523  -0.491   5.330 -1.0141 -0.3603  2.0645
  685MOL0     H92444   9.368  -0.502   5.402  1.4371 -3.0582  0.3256
  685MOL0     H92445   9.434  -0.519   5.101  0.1381 -1.2328  0.0766
  685MOL0     H92446   9.278  -0.519   5.150  1.2329  1.9826 -1.9228
  685MOL0     H92447   9.320  -0.720   5.304  0.1895 -0.1866 -0.7580
  685MOL0     H92448   9.469  -0.743   5.218 -0.1559  1.8040  1.1290
  685MOL0     H92449   9.377  -0.776   5.009  0.6704  1.2676  0.5122
  685MOL0     H92450   9.300  -0.890   5.120 -3.4854  1.0273  0.1255
  685MOL0     H92451   9.153  -0.639   5.044 -0.7270  0.7643  0.6315
  685MOL0     H92452   9.109  -0.773   5.155  0.8210 -1.7801  0.0615
  685MOL0     H92453   9.195  -0.830   4.874  0.4320 -2.1038  0.8014
  685MOL0     H92454   9.099  -0.939   4.979 -2.6536  0.7423  2.7138
  685MOL0     H92455   9.232   0.085   5.417  0.1979  1.0458 -0.7385
  685MOL0     H92456   9.022   0.215   5.484 -1.4382 -0.7055  3.8530
  685MOL0     H92457   8.563   0.144   5.600  2.7515  0.4521  0.2527
  685MOL0     H92458   8.366   0.254   5.716  1.2466 -0.3099  1.1373
  685MOL0     H92459   6.907   0.648   6.777  2.3299 -2.5207 -1.4478
  685MOL0     H92460   6.664   0.641   6.837 -0.6894 -1.7304  0.3174
  685MOL0     H92461   6.253   0.540   6.871 -0.7032 -2.5816 -0.2601
  685MOL0     H92462   6.016   0.514   6.879 -1.3719  1.7165  0.4951
  685MOL0     H92463   5.763   0.626   6.514 -3.0669 -1.2391 -1.5450
  685MOL0     H92464   5.746   0.696   6.681 -0.5140 -1.2142  0.3622
  685MOL0     H92465   5.627   0.456   6.737 -0.6555  0.8525  1.5535
  685MOL0     H92466   5.625   0.436   6.565  0.9125  0.6010 -0.3185
  685MOL0     H92467   5.507   0.683   6.593 -1.4646  0.4357 -1.0231
  685MOL0     H92468   5.485   0.634   6.766 -2.1010  1.4342 -1.0421
  685MOL0     H92469   5.292   0.601   6.626  2.3230  1.1933  1.4080
  685MOL0     H92470   5.373   0.470   6.542 -1.3178 -0.0595  0.4899
  685MOL0     H92471   5.245   0.294   6.905  1.0239 -2.8967 -1.5585
  685MOL0     H92472   5.990   0.634   6.465  2.2694 -0.4879 -1.1057
  685MOL0     H92473   6.250   0.766   6.402  1.0831 -0.3072  0.2680
  685MOL0     H92474   6.365   0.628   6.404 -0.0910 -1.7397  2.6881
  685MOL0     H92475   6.215   0.600   6.328  2.1027  0.7810 -1.8845
  686MOL0     O92476   2.048   5.532   8.902 -0.1310  0.3776  0.5038
  686MOL0     C92477   1.954   5.541   8.831 -0.4545  0.8099  0.0696
  686MOL0     O92478   1.957   5.549   8.690  0.0762 -0.5288  0.5004
  686MOL0     C92479   2.080   5.544   8.622 -0.1419 -0.6526  0.0559
  686MOL0     C92480   2.088   5.460   8.513 -0.4409 -0.1712  0.4804
  686MOL0     C92481   2.208   5.450   8.444 -0.5280  1.1434  0.0695
  686MOL0     C92482   2.321   5.531   8.474 -0.2797  0.8221  0.5068
  686MOL0     O92483   2.446   5.532   8.411  0.6169  0.7925 -0.3484
  686MOL0     C92484   2.458   5.450   8.291 -0.2783  0.0744  0.0189
  686MOL0     C92485   2.505   5.302   8.323  0.1208  0.3988 -0.0302
  686MOL0     C92486   2.651   5.291   8.352  0.5291  0.8753  0.4326
  686MOL0     C92487   2.694   5.147   8.392  0.9007  0.2450 -0.6229
  686MOL0     C92488   2.843   5.130   8.390  0.2863  0.0169 -0.5202
  686MOL0     C92489   2.887   5.106   8.248 -0.8040  0.7281 -0.2118
  686MOL0     C92490   3.021   5.184   8.222  0.5422  0.7605 -0.0512
  686MOL0     C92491   3.128   5.135   8.316 -0.7469  0.2447 -0.2894
  686MOL0     N92492   3.266   5.160   8.265  0.9017 -0.0723 -0.7221
  686MOL0     C92493   3.353   5.069   8.204  0.7527 -0.1894 -1.1362
  686MOL0     C92494   3.466   5.127   8.192 -0.4764  0.1601  0.4480
  686MOL0     C92495   3.602   5.065   8.142  0.9642 -0.5058 -0.3461
  686MOL0     C92496   3.629   5.128   8.007  0.1912  0.4026 -0.0982
  686MOL0     C92497   3.747   5.066   7.931 -0.4854 -0.1343 -0.1506
  686MOL0     C92498   3.886   5.109   7.985  0.2764 -0.2979  1.1397
  686MOL0     O92499   3.986   5.051   7.893  0.3341  0.1873  0.1218
  686MOL0     C92500   4.110   5.043   7.932 -0.6443 -0.3030 -0.8656
  686MOL0     C92501   4.173   5.142   8.019 -0.4774  0.2894 -0.1329
  686MOL0     C92502   4.305   5.121   8.068  0.8229  0.0253 -0.2826
  686MOL0     C92503   4.371   4.994   8.029 -0.0399 -0.6434 -1.0792
  686MOL0     C92504   4.505   4.973   8.083  1.0989 -0.6019 -0.0104
  686MOL0     O92505   4.570   5.087   8.132  0.4853 -0.8669  0.1811
  686MOL0     C92506   4.705   5.092   8.163  1.1871 -0.5316  0.0500
  686MOL0     C92507   4.744   5.191   8.253  0.3140  0.6469  1.0949
  686MOL0     C92508   4.885   5.213   8.274 -1.4837  0.3971 -0.2663
  686MOL0     C92509   4.981   5.126   8.233 -0.5618  0.5765  0.4971
  686MOL0     O92510   5.110   5.141   8.274 -0.0345 -0.4787 -0.2128
  686MOL0     C92511   5.197   5.031   8.262 -0.8295  0.1596 -0.7337
  686MOL0     C92512   5.320   5.063   8.349  0.1069  0.1129 -0.3126
  686MOL0     C92513   5.384   5.196   8.334 -0.1781 -0.1070  0.4458
  686MOL0     C92514   5.434   5.206   8.188  0.3758  0.0051 -0.1897
  686MOL0     C92515   5.518   5.335   8.156  0.2920 -0.6712 -0.4585
  686MOL0     C92516   5.629   5.364   8.266  0.1640  0.3488  0.8750
  686MOL0     C92517   5.711   5.487   8.238  0.2048 -0.4178 -0.3560
  686MOL0     C92518   5.828   5.517   8.339  0.0092  0.9086  0.1963
  686MOL0    Cl92519   5.947   5.373   8.338 -0.2230  0.1905  0.1754
  686MOL0     C92520   4.938   5.020   8.149  0.2511 -0.6860 -0.4900
  686MOL0     C92521   4.801   5.002   8.110 -0.0868  0.4122 -0.1687
  686MOL0     O92522   4.546   4.857   8.087 -0.1631 -0.4319 -0.6482
  686MOL0     C92523   4.308   4.908   7.943 -0.2747  0.1377  0.1333
  686MOL0     C92524   4.185   4.937   7.889 -0.0406  0.0387  0.5468
  686MOL0     N92525   3.455   5.259   8.234  0.1077 -0.5273  0.3182
  686MOL0     N92526   3.332   5.278   8.278 -0.3688  0.4176 -0.1246
  686MOL0     C92527   2.307   5.628   8.572 -0.7108  0.0937 -1.1619
  686MOL0     C92528   2.190   5.624   8.656  0.1737 -0.6475  0.9631
  686MOL0     C92529   1.823   5.548   8.902  0.5460  0.3587 -0.4514
  686MOL0     C92530   1.712   5.602   8.838 -0.2743  0.0839 -0.0759
  686MOL0     C92531   1.585   5.609   8.889  0.9822  0.7599  0.4259
  686MOL0     C92532   1.564   5.565   9.020 -0.6277  0.0885 -0.2510
  686MOL0     O92533   1.441   5.568   9.081  0.9598  0.0261  0.6676
  686MOL0     C92534   1.332   5.653   9.031  0.0657 -0.0791  0.5004
  686MOL0     C92535   1.235   5.562   8.950 -0.4925  0.7798 -0.7156
  686MOL0     C92536   1.144   5.659   8.875  0.5392 -0.3281  1.0956
  686MOL0     C92537   1.033   5.583   8.804  0.2794  0.4196  0.1152
  686MOL0     C92538   0.951   5.679   8.726 -0.3592 -0.2593 -0.1988
  686MOL0     C92539   0.889   5.769   8.657  0.2670  0.5454  0.4049
  686MOL0     C92540   1.672   5.521   9.099 -0.1264  0.8079 -0.1071
  686MOL0     C92541   1.800   5.508   9.036 -0.3256 -0.0243  0.1283
  686MOL0     C92542   1.916   5.456   9.113 -0.6417  0.6394 -0.0176
  686MOL0     H92543   1.998   5.412   8.478 -1.1288  1.0944  0.4677
  686MOL0     H92544   2.205   5.374   8.366 -3.2939  1.1759  0.0719
  686MOL0     H92545   2.373   5.447   8.222  1.0653  2.9312 -1.9455
  686MOL0     H92546   2.529   5.501   8.225 -0.1568  0.7263  0.6439
  686MOL0     H92547   2.489   5.251   8.227  1.0909  2.6519 -1.4586
  686MOL0     H92548   2.440   5.252   8.395  1.5320  1.4989  2.0904
  686MOL0     H92549   2.677   5.359   8.434 -0.7587  2.0169 -0.0501
  686MOL0     H92550   2.709   5.321   8.264 -2.2277  2.5871 -0.9555
  686MOL0     H92551   2.664   5.118   8.493  4.0980 -2.2675 -0.2454
  686MOL0     H92552   2.651   5.070   8.326 -0.0988  0.1233  0.1399
  686MOL0     H92553   2.885   5.214   8.446 -1.0813 -0.4022  1.2333
  686MOL0     H92554   2.872   5.042   8.448 -0.7075 -0.3055 -0.4936
  686MOL0     H92555   2.900   5.000   8.225  0.3913  0.0798  2.9211
  686MOL0     H92556   2.818   5.144   8.172 -0.7835 -1.7433 -1.5619
  686MOL0     H92557   2.994   5.288   8.245 -0.7453  0.1733  1.2895
  686MOL0     H92558   3.062   5.182   8.120  2.2368 -2.1579  0.5719
  686MOL0     H92559   3.113   5.197   8.405 -5.3524 -0.4479 -0.3488
  686MOL0     H92560   3.123   5.028   8.339  5.0606 -0.4554 -0.7271
  686MOL0     H92561   3.327   4.965   8.183  1.0432 -0.1951 -1.4627
  686MOL0     H92562   3.676   5.096   8.217  1.8640 -1.0190 -1.0042
  686MOL0     H92563   3.604   4.956   8.139  0.9640 -0.5127 -0.1527
  686MOL0     H92564   3.536   5.102   7.954  0.5009  0.1770 -0.5354
  686MOL0     H92565   3.642   5.237   8.007 -0.4129  0.4987  1.4587
  686MOL0     H92566   3.754   5.103   7.829  1.4068 -2.5033 -0.9714
  686MOL0     H92567   3.724   4.959   7.934 -2.9268  0.1248 -3.4089
  686MOL0     H92568   3.895   5.073   8.087 -1.1797 -1.5917  0.8337
  686MOL0     H92569   3.889   5.218   7.970 -2.1355 -0.4803 -1.3056
  686MOL0     H92570   4.112   5.229   8.042  0.1948  0.8962 -0.6184
  686MOL0     H92571   4.359   5.188   8.135 -1.5231  1.5369  0.2076
  686MOL0     H92572   4.675   5.265   8.291  0.1293  0.6683  0.7268
  686MOL0     H92573   4.909   5.303   8.328 -1.0150  2.0405 -3.0442
  686MOL0     H92574   5.159   4.939   8.307  3.4302 -0.7203  1.6276
  686MOL0     H92575   5.219   5.024   8.155  0.4040  2.1398 -0.6606
  686MOL0     H92576   5.294   5.036   8.452 -1.9698 -2.0220 -1.2785
  686MOL0     H92577   5.388   4.984   8.316 -0.9933 -0.3841 -1.5155
  686MOL0     H92578   5.318   5.278   8.364  1.6109  2.0019 -1.0945
  686MOL0     H92579   5.468   5.205   8.404  1.8990 -0.0750 -1.9197
  686MOL0     H92580   5.351   5.207   8.117  0.1714 -2.7810 -0.1244
  686MOL0     H92581   5.492   5.117   8.163  0.8736  0.6564 -1.3815
  686MOL0     H92582   5.455   5.424   8.150  1.0845 -0.1186 -0.7983
  686MOL0     H92583   5.563   5.326   8.057 -0.4508 -0.5707 -0.8093
  686MOL0     H92584   5.582   5.364   8.364  0.8662 -2.1608  1.2829
  686MOL0     H92585   5.699   5.281   8.259 -0.2605  0.1147 -1.4205
  686MOL0     H92586   5.643   5.573   8.236  2.7061  1.6754 -1.7611
  686MOL0     H92587   5.754   5.471   8.139  0.0396  0.6887 -0.6265
  686MOL0     H92588   5.880   5.604   8.299 -0.4865  0.1244 -2.3710
  686MOL0     H92589   5.783   5.527   8.438 -3.3731 -0.4597 -1.0229
  686MOL0     H92590   5.002   4.946   8.102  0.6759 -0.9902  0.5217
  686MOL0     H92591   4.777   4.930   8.033 -1.3006  1.0195 -0.3947
  686MOL0     H92592   4.360   4.815   7.926  1.3012  0.1083  3.9662
  686MOL0     H92593   4.134   4.878   7.814 -2.9680  0.7502  1.8621
  686MOL0     H92594   2.384   5.703   8.592  1.2082 -1.9184 -0.6200
  686MOL0     H92595   2.181   5.700   8.733  4.3516  1.2068 -0.0904
  686MOL0     H92596   1.724   5.644   8.739 -0.2682 -0.7638 -0.4496
  686MOL0     H92597   1.498   5.631   8.829 -2.8412 -0.7004  4.8547
  686MOL0     H92598   1.368   5.733   8.964  0.8453 -0.1307  0.8553
  686MOL0     H92599   1.285   5.701   9.118  0.2632 -1.8467  1.6139
  686MOL0     H92600   1.173   5.489   9.005  1.8696 -0.5467  0.3409
  686MOL0     H92601   1.298   5.503   8.883  4.4424  0.9787  3.1162
  686MOL0     H92602   1.204   5.701   8.794  0.9799 -1.7653  0.6504
  686MOL0     H92603   1.107   5.739   8.939 -0.3983 -0.3859  0.6486
  686MOL0     H92604   1.072   5.512   8.730 -1.0829  0.4820 -0.7078
  686MOL0     H92605   0.977   5.528   8.881  0.3296 -0.9515 -0.7861
  686MOL0     H92606   0.843   5.841   8.591 -0.3050 -0.0816  0.1083
  686MOL0     H92607   1.664   5.497   9.204 -1.4938 -1.1831 -0.6047
  686MOL0     H92608   1.973   5.374   9.068  2.1725  1.4734  1.7756
  686MOL0     H92609   1.987   5.532   9.146 -1.2213  0.0989  2.7773
  686MOL0     H92610   1.891   5.405   9.207 -1.6821  3.3966  1.3062
  687MOL0     O92611   8.293   3.142   4.756  0.2991 -0.3851 -0.1273
  687MOL0     C92612   8.287   3.176   4.635 -0.7608  0.1752  0.2024
  687MOL0     O92613   8.368   3.268   4.572 -0.1463  0.5162  0.2622
  687MOL0     C92614   8.468   3.313   4.651  0.0729 -0.2459 -0.1094
  687MOL0     C92615   8.566   3.232   4.714 -0.4586  0.1586  0.3447
  687MOL0     C92616   8.671   3.282   4.789 -0.0118 -0.4748 -0.1480
  687MOL0     C92617   8.680   3.425   4.805  0.3531 -0.9150  0.0377
  687MOL0     O92618   8.765   3.474   4.902 -0.1287 -0.2939  0.1351
  687MOL0     C92619   8.800   3.613   4.889 -0.1865  0.2679 -0.3211
  687MOL0     C92620   8.932   3.641   4.971  0.4074 -0.3902 -0.8139
  687MOL0     C92621   8.960   3.788   4.951 -0.1799 -0.1930  0.0173
  687MOL0     C92622   9.069   3.839   5.047  0.2302 -0.2042 -0.7562
  687MOL0     C92623   9.215   3.796   5.016 -0.0737 -1.2437 -0.0563
  687MOL0     C92624   9.309   3.874   5.106 -0.4925  0.3063  0.2076
  687MOL0     C92625   9.461   3.808   5.089  0.8806 -0.0302  0.0762
  687MOL0     C92626   9.557   3.868   5.190 -0.3148 -0.6517  0.4799
  687MOL0     N92627   9.577   4.010   5.168 -0.4814 -0.4555 -0.2714
  687MOL0     C92628   9.589   4.083   5.042 -0.1088  0.1093 -0.9648
  687MOL0     C92629   9.589   4.212   5.084  0.6406  1.0757 -0.3098
  687MOL0     C92630   9.618   4.318   4.986 -0.7311 -0.4608  0.0740
  687MOL0     C92631   9.763   4.306   4.936  0.5311  0.6370  0.2823
  687MOL0     C92632   9.793   4.396   4.807  0.5172  0.1087 -0.0006
  687MOL0     C92633   9.933   4.368   4.738 -0.7162  0.4783 -0.4824
  687MOL0     O92634  10.041   4.362   4.828  0.2573  0.5093  0.5176
  687MOL0     C92635  10.139   4.467   4.819 -0.4240  0.1254 -0.3558
  687MOL0     C92636  10.257   4.444   4.898 -0.4959  0.3870  0.5275
  687MOL0     C92637  10.368   4.528   4.902  0.6716  0.3379 -0.5066
  687MOL0     C92638  10.360   4.648   4.837 -0.2490 -0.6213  0.8832
  687MOL0     C92639  10.484   4.729   4.843  0.6564 -0.0835 -0.0172
  687MOL0     O92640  10.478   4.863   4.820  0.2241  0.8614  0.2468
  687MOL0     C92641  10.585   4.897   4.744  0.0772 -1.1358 -0.1025
  687MOL0     C92642  10.597   4.865   4.606 -0.8189 -0.6723 -0.0094
  687MOL0     C92643  10.703   4.915   4.529 -0.4678 -0.6071 -0.3089
  687MOL0     C92644  10.794   5.007   4.588  0.5791  0.5596 -0.1662
  687MOL0     O92645  10.894   5.072   4.518  0.4859  0.5086 -1.1634
  687MOL0     C92646  10.961   4.995   4.414 -0.1950 -0.7150 -0.3235
  687MOL0     C92647  11.046   5.092   4.330  0.0449 -0.3417 -0.4387
  687MOL0     C92648  11.164   5.155   4.403  0.7300 -0.6896  0.2232
  687MOL0     C92649  11.216   5.278   4.318 -0.3691 -0.1308 -1.0319
  687MOL0     C92650  11.313   5.378   4.384 -0.7142 -0.1733 -0.4178
  687MOL0     C92651  11.453   5.319   4.411 -0.3743  0.0913  0.8105
  687MOL0     C92652  11.529   5.300   4.279 -0.3140  0.6959 -0.5423
  687MOL0     C92653  11.678   5.271   4.302 -0.6867 -0.4012  0.3691
  687MOL0    Cl92654  11.746   5.233   4.143  0.1232 -0.5105  0.2924
  687MOL0     C92655  10.772   5.042   4.721 -0.7686  0.0813 -0.0673
  687MOL0     C92656  10.671   4.988   4.798  0.3510  0.1758 -0.5663
  687MOL0     O92657  10.596   4.676   4.877  0.2325 -0.5464  0.8927
  687MOL0     C92658  10.240   4.684   4.773 -0.6752  0.3387 -0.4942
  687MOL0     C92659  10.130   4.590   4.758 -0.5866 -0.0068 -0.6727
  687MOL0     N92660   9.585   4.226   5.223 -0.5100  0.3691 -0.0309
  687MOL0     N92661   9.557   4.105   5.271  0.4608 -0.0486 -0.2445
  687MOL0     C92662   8.583   3.504   4.745 -0.7472 -0.0092 -0.1209
  687MOL0     C92663   8.483   3.450   4.664 -0.8593 -0.6506  0.5373
  687MOL0     C92664   8.185   3.104   4.548  0.0053  0.2721 -0.0154
  687MOL0     C92665   8.171   3.148   4.424 -0.1814 -0.2586  0.4340
  687MOL0     C92666   8.072   3.098   4.340 -0.3395  1.0114  0.0243
  687MOL0     C92667   7.987   2.996   4.372 -0.6829 -0.0226 -0.7657
  687MOL0     O92668   7.907   2.942   4.281 -1.0435  1.1962  0.3488
  687MOL0     C92669   7.831   3.027   4.193 -0.6521 -0.2727  0.4266
  687MOL0     C92670   7.726   3.086   4.285  0.3730  0.9712  0.0440
  687MOL0     C92671   7.600   3.114   4.194 -0.8637 -0.5405  0.0397
  687MOL0     C92672   7.479   3.177   4.268 -0.3600  0.2712 -0.3212
  687MOL0     C92673   7.364   3.187   4.175 -0.5919  1.0882 -0.2018
  687MOL0     C92674   7.269   3.174   4.106 -0.4850  0.9363 -0.4104
  687MOL0     C92675   7.998   2.940   4.503 -0.0007 -0.1896  0.0462
  687MOL0     C92676   8.103   2.990   4.589 -0.1095  0.8838  0.2127
  687MOL0     C92677   8.120   2.915   4.732 -0.2002 -1.1269  0.3168
  687MOL0     H92678   8.557   3.124   4.704 -2.0074  0.3213 -0.4092
  687MOL0     H92679   8.747   3.226   4.841 -0.6174 -0.1015  1.1861
  687MOL0     H92680   8.819   3.632   4.782 -0.2314  1.2743 -0.1588
  687MOL0     H92681   8.725   3.678   4.933  0.4241  1.5508 -1.1073
  687MOL0     H92682   9.023   3.584   4.947  0.0863 -0.5224 -1.7799
  687MOL0     H92683   8.909   3.622   5.076  0.8044  0.1669 -0.6228
  687MOL0     H92684   8.870   3.847   4.973 -1.4856 -1.3698 -1.8781
  687MOL0     H92685   8.974   3.810   4.845 -0.4145 -1.6462 -0.3396
  687MOL0     H92686   9.060   3.948   5.047 -3.9252 -0.3898 -1.3236
  687MOL0     H92687   9.050   3.786   5.140  3.6849 -2.5231 -1.1900
  687MOL0     H92688   9.231   3.688   5.028  3.4457 -1.2829 -3.2464
  687MOL0     H92689   9.248   3.812   4.913  2.4378  0.2058  0.8912
  687MOL0     H92690   9.314   3.979   5.077  1.9201  0.1420 -0.1614
  687MOL0     H92691   9.278   3.883   5.210  3.0704  2.3774  1.2475
  687MOL0     H92692   9.497   3.824   4.987  0.5155 -1.3380 -0.2723
  687MOL0     H92693   9.453   3.701   5.109 -0.3982  0.1875  0.8195
  687MOL0     H92694   9.524   3.854   5.294 -2.1011  0.2565  0.0722
  687MOL0     H92695   9.657   3.825   5.180  0.0538  0.0152  1.1863
  687MOL0     H92696   9.596   4.038   4.943  1.1861  0.4811 -1.0646
  687MOL0     H92697   9.554   4.307   4.898 -0.1315 -0.5158 -0.3599
  687MOL0     H92698   9.605   4.419   5.027  0.5325 -0.2663  0.0486
  687MOL0     H92699   9.831   4.316   5.021  0.1699 -0.1754  0.6790
  687MOL0     H92700   9.774   4.200   4.908  0.0603  0.4013  0.9739
  687MOL0     H92701   9.805   4.502   4.826 -2.1818  1.7563 -5.3363
  687MOL0     H92702   9.711   4.388   4.735 -0.3915  3.0838  0.5923
  687MOL0     H92703   9.944   4.449   4.665 -2.0333  3.8520  2.7384
  687MOL0     H92704   9.931   4.274   4.682  3.2683  0.2732 -0.5397
  687MOL0     H92705  10.265   4.348   4.947 -0.8103  0.9188  1.6716
  687MOL0     H92706  10.456   4.492   4.954  2.6851  0.6550 -3.4642
  687MOL0     H92707  10.538   4.789   4.558  2.6870 -3.2584 -0.6512
  687MOL0     H92708  10.700   4.887   4.425 -0.7529 -0.9917 -0.1990
  687MOL0     H92709  11.019   4.914   4.461  0.7479 -0.0529 -0.3271
  687MOL0     H92710  10.888   4.954   4.343 -0.7217 -2.3750  1.0908
  687MOL0     H92711  11.080   5.044   4.238  2.6178 -1.9219  1.1694
  687MOL0     H92712  10.979   5.170   4.294  0.7671 -0.4302 -2.0731
  687MOL0     H92713  11.132   5.193   4.500 -0.1693 -0.2621 -0.2244
  687MOL0     H92714  11.248   5.085   4.403  0.8249 -0.5805 -0.1265
  687MOL0     H92715  11.125   5.331   4.287 -2.0715 -3.1723 -1.5858
  687MOL0     H92716  11.261   5.229   4.232 -1.3315  0.3711 -1.8434
  687MOL0     H92717  11.274   5.423   4.476  1.1196  0.2163  0.2114
  687MOL0     H92718  11.324   5.458   4.310  3.0374 -0.4254 -0.2955
  687MOL0     H92719  11.506   5.390   4.476  1.1097 -1.6115  1.5606
  687MOL0     H92720  11.449   5.228   4.471 -2.1776 -0.3112  0.1247
  687MOL0     H92721  11.526   5.391   4.218  4.1460  2.0213  0.8332
  687MOL0     H92722  11.485   5.213   4.230  1.3017 -2.0431  2.5037
  687MOL0     H92723  11.727   5.359   4.344  3.1324 -2.2967  0.3514
  687MOL0     H92724  11.694   5.176   4.354 -1.5880 -1.9863 -2.0425
  687MOL0     H92725  10.844   5.105   4.773 -1.0182  0.0182  0.3602
  687MOL0     H92726  10.659   5.023   4.900 -1.6053  0.1157 -0.7332
  687MOL0     H92727  10.234   4.781   4.724  2.1521  2.2127  2.4891
  687MOL0     H92728  10.037   4.621   4.711 -1.7850 -0.5087  1.2372
  687MOL0     H92729   8.584   3.611   4.762  1.2311 -0.0408  0.2451
  687MOL0     H92730   8.414   3.519   4.618  0.5225  1.3441  1.3004
  687MOL0     H92731   8.229   3.229   4.381  0.1448 -0.1873  1.0048
  687MOL0     H92732   8.067   3.150   4.245 -3.9496 -1.7314 -1.5136
  687MOL0     H92733   7.781   2.966   4.117 -2.1041  0.1345  1.0149
  687MOL0     H92734   7.884   3.111   4.148  1.1913 -1.7242 -0.2604
  687MOL0     H92735   7.758   3.177   4.336  0.8110  1.9581 -1.8845
  687MOL0     H92736   7.700   3.011   4.361 -0.3977  0.6778 -0.4930
  687MOL0     H92737   7.563   3.020   4.151  1.5660 -2.2123  1.3804
  687MOL0     H92738   7.625   3.176   4.107  0.0899 -0.9291  0.0215
  687MOL0     H92739   7.455   3.113   4.354  0.4371  0.3807 -0.0071
  687MOL0     H92740   7.516   3.273   4.306  0.7134 -1.1624  2.5551
  687MOL0     H92741   7.185   3.157   4.041 -1.2830 -1.9841  1.2075
  687MOL0     H92742   7.933   2.858   4.533  0.6482 -2.0737 -3.1881
  687MOL0     H92743   8.224   2.883   4.737  1.0767  2.6905  2.5355
  687MOL0     H92744   8.105   2.990   4.811 -1.9648  1.0177 -1.8810
  687MOL0     H92745   8.053   2.828   4.737 -1.0680 -0.9470 -4.0295
  688MOL0     O92746   3.139  10.084   2.412  0.0275  0.0470 -0.3563
  688MOL0     C92747   3.081  10.166   2.481 -0.4108 -0.5147  0.7337
  688MOL0     O92748   3.132  10.289   2.508  0.7519 -0.5459  0.6577
  688MOL0     C92749   3.263  10.332   2.492 -0.4435 -0.0313 -0.0698
  688MOL0     C92750   3.295  10.446   2.578  0.2070 -0.0636 -0.1354
  688MOL0     C92751   3.422  10.489   2.565 -0.0906 -0.2180  0.1597
  688MOL0     C92752   3.521  10.436   2.488 -0.3575 -0.0614 -0.1976
  688MOL0     O92753   3.647  10.498   2.494 -0.1083 -0.0588 -0.2834
  688MOL0     C92754   3.762  10.440   2.424  0.5729 -0.5895 -0.7529
  688MOL0     C92755   3.885  10.524   2.475 -0.2077  0.0485 -0.4154
  688MOL0     C92756   3.998  10.461   2.404  0.4320  0.8895  0.8440
  688MOL0     C92757   4.126  10.538   2.437 -0.4350 -0.3269 -0.0429
  688MOL0     C92758   4.247  10.476   2.375 -0.0960 -0.4399 -0.7111
  688MOL0     C92759   4.367  10.529   2.452  0.0096  0.5868  0.4622
  688MOL0     C92760   4.496  10.479   2.378 -0.6838  0.6175 -0.2990
  688MOL0     C92761   4.529  10.572   2.256  0.4392 -0.3442  0.3368
  688MOL0     N92762   4.597  10.696   2.301  0.8567  0.8885  0.3749
  688MOL0     C92763   4.537  10.811   2.337 -0.5865  0.1362 -0.5956
  688MOL0     C92764   4.644  10.892   2.356  0.8256 -0.4554  0.9768
  688MOL0     C92765   4.642  11.029   2.418  0.0123 -0.2009 -0.5715
  688MOL0     C92766   4.685  11.147   2.330  0.6571 -0.8631  0.6332
  688MOL0     C92767   4.587  11.166   2.207 -0.2805  0.4346  0.1504
  688MOL0     C92768   4.462  11.243   2.230  0.6930 -0.4151 -0.1966
  688MOL0     O92769   4.363  11.162   2.306  0.5561 -0.1297 -0.5696
  688MOL0     C92770   4.275  11.227   2.386 -0.4300 -0.0211 -0.5866
  688MOL0     C92771   4.222  11.354   2.357  0.2201  0.1264 -0.1635
  688MOL0     C92772   4.112  11.401   2.423 -0.9120 -0.1465 -0.4719
  688MOL0     C92773   4.054  11.328   2.528 -0.1153  0.7865  0.4120
  688MOL0     C92774   3.933  11.381   2.603 -0.2320 -0.0405  0.1255
  688MOL0     O92775   3.897  11.511   2.572 -0.0796 -0.1243 -0.7526
  688MOL0     C92776   3.780  11.562   2.633 -0.5547  0.6386  1.6544
  688MOL0     C92777   3.785  11.667   2.723 -0.3777 -0.1813  0.6323
  688MOL0     C92778   3.668  11.710   2.785  0.0778  0.6456 -0.4223
  688MOL0     C92779   3.546  11.654   2.757 -0.2788  0.1445 -0.0847
  688MOL0     O92780   3.445  11.712   2.825  0.2699 -0.8551 -0.1710
  688MOL0     C92781   3.307  11.674   2.796 -0.2574 -0.0656  1.1482
  688MOL0     C92782   3.218  11.740   2.901  0.1730  0.3277  0.1988
  688MOL0     C92783   3.077  11.692   2.895  0.9161 -0.4415 -0.3845
  688MOL0     C92784   2.993  11.766   2.790  0.4658 -1.3882 -0.0529
  688MOL0     C92785   2.884  11.687   2.720 -0.2041  0.2682  0.4787
  688MOL0     C92786   2.772  11.656   2.819  0.4514 -0.3733 -0.8674
  688MOL0     C92787   2.655  11.585   2.751  0.5950  0.2184  0.3302
  688MOL0     C92788   2.704  11.454   2.682  0.4367 -0.5388 -0.2657
  688MOL0    Cl92789   2.563  11.392   2.580 -0.3226 -0.0657  0.3986
  688MOL0     C92790   3.536  11.556   2.654  0.2163 -0.8180 -0.9868
  688MOL0     C92791   3.652  11.503   2.611 -0.5573 -0.7415  0.2734
  688MOL0     O92792   3.875  11.306   2.680  0.4499  0.1878  0.3647
  688MOL0     C92793   4.117  11.201   2.562  0.1876  0.6271 -0.5387
  688MOL0     C92794   4.221  11.150   2.489 -0.2669 -0.0870  0.5131
  688MOL0     N92795   4.762  10.824   2.325  0.0064 -0.4194  0.1793
  688MOL0     N92796   4.736  10.705   2.292 -0.7955 -0.0699  0.1877
  688MOL0     C92797   3.497  10.330   2.400 -0.9188  0.2076 -0.9169
  688MOL0     C92798   3.366  10.274   2.411 -0.7030  0.3270 -0.9081
  688MOL0     C92799   2.941  10.141   2.516  0.3133  0.3803  0.5590
  688MOL0     C92800   2.908  10.187   2.645 -0.4690  0.0592 -0.5055
  688MOL0     C92801   2.777  10.168   2.705 -0.3576  0.4705  0.1611
  688MOL0     C92802   2.689  10.087   2.637 -0.2420  0.2792 -0.4187
  688MOL0     O92803   2.574  10.060   2.708  0.5857  0.0884 -0.6397
  688MOL0     C92804   2.454  10.067   2.632  0.0164 -0.5059  0.1502
  688MOL0     C92805   2.362   9.954   2.683  0.5455  0.2499 -0.2548
  688MOL0     C92806   2.213   9.976   2.649  0.0623 -0.6794  0.3965
  688MOL0     C92807   2.123   9.910   2.748  0.0180  0.0884  0.5133
  688MOL0     C92808   1.980   9.908   2.713  0.5212 -0.0138  0.2372
  688MOL0     C92809   1.857   9.898   2.700 -0.8944 -0.0107 -0.0426
  688MOL0     C92810   2.723  10.035   2.512  0.2374 -0.2243 -0.0809
  688MOL0     C92811   2.842  10.075   2.445 -0.0691  0.1890  1.0590
  688MOL0     C92812   2.865  10.022   2.306 -0.3726 -0.2554  0.4730
  688MOL0     H92813   3.228  10.489   2.652 -0.3173 -3.2829  1.4472
  688MOL0     H92814   3.447  10.573   2.629  2.2154  1.5560 -2.8063
  688MOL0     H92815   3.772  10.336   2.458  1.6730  0.3500  2.1517
  688MOL0     H92816   3.756  10.449   2.315 -2.3620  1.7440 -0.5004
  688MOL0     H92817   3.899  10.506   2.582  0.8793 -0.7410 -0.6780
  688MOL0     H92818   3.880  10.631   2.454 -0.9440  0.2355  0.6517
  688MOL0     H92819   3.979  10.458   2.296  0.8842 -2.6446  0.7628
  688MOL0     H92820   4.013  10.357   2.434 -1.4711  0.5691  0.7449
  688MOL0     H92821   4.118  10.638   2.394  0.5668 -0.6853 -1.1079
  688MOL0     H92822   4.144  10.554   2.544 -2.3383  2.6224 -0.0449
  688MOL0     H92823   4.238  10.368   2.392  0.8455 -0.1283  2.4926
  688MOL0     H92824   4.251  10.502   2.269 -1.9626  1.1875 -0.4469
  688MOL0     H92825   4.374  10.638   2.453  1.7008  0.5392 -0.7785
  688MOL0     H92826   4.378  10.489   2.553  3.3519  0.3694  0.1212
  688MOL0     H92827   4.489  10.374   2.348  1.7756  0.6477 -1.2224
  688MOL0     H92828   4.584  10.497   2.440  1.1876 -2.5879 -1.7588
  688MOL0     H92829   4.589  10.513   2.186 -1.4948 -0.9147 -0.9133
  688MOL0     H92830   4.437  10.604   2.207  1.1596 -1.3196 -1.7846
  688MOL0     H92831   4.430  10.816   2.353 -0.2819 -0.4232  2.0885
  688MOL0     H92832   4.541  11.047   2.456 -0.6989 -0.8171 -2.0680
  688MOL0     H92833   4.709  11.033   2.503  0.3483 -2.9812 -0.5964
  688MOL0     H92834   4.665  11.243   2.378  1.0330 -0.1490 -0.6152
  688MOL0     H92835   4.790  11.132   2.303  0.1534 -1.6337 -0.9676
  688MOL0     H92836   4.550  11.066   2.185  2.1964 -0.0949 -2.1041
  688MOL0     H92837   4.648  11.203   2.124  1.2901  0.5129  1.2824
  688MOL0     H92838   4.408  11.273   2.140  1.5403  0.7241 -0.3555
  688MOL0     H92839   4.481  11.337   2.283 -1.1998  1.0646 -1.9778
  688MOL0     H92840   4.265  11.409   2.275  1.0025 -2.0395 -1.2881
  688MOL0     H92841   4.085  11.505   2.406  0.8079  0.2339 -1.0443
  688MOL0     H92842   3.872  11.722   2.756 -1.6815  1.0092  2.2469
  688MOL0     H92843   3.687  11.786   2.860  0.6328  1.6222 -1.5206
  688MOL0     H92844   3.291  11.713   2.695  2.5632  0.4118  0.7894
  688MOL0     H92845   3.302  11.565   2.794  0.9277 -0.1263  0.7912
  688MOL0     H92846   3.253  11.706   2.999 -1.1468 -2.6341 -0.2375
  688MOL0     H92847   3.217  11.847   2.883 -2.0513  0.3257  0.0923
  688MOL0     H92848   3.069  11.586   2.870  0.1030 -0.4180 -0.2510
  688MOL0     H92849   3.027  11.717   2.989  0.3093 -1.1025 -0.5150
  688MOL0     H92850   3.055  11.801   2.706 -0.9292  1.5134  0.0096
  688MOL0     H92851   2.962  11.864   2.827  2.1097 -1.0798  0.5963
  688MOL0     H92852   2.937  11.599   2.681  0.9546  1.2311 -0.1872
  688MOL0     H92853   2.846  11.747   2.637 -0.9733 -0.3978  0.3347
  688MOL0     H92854   2.807  11.591   2.900  2.4977  2.4839  0.7337
  688MOL0     H92855   2.732  11.747   2.866 -1.0396 -0.3059 -2.2002
  688MOL0     H92856   2.620  11.646   2.668  0.4701  0.8856  0.8635
  688MOL0     H92857   2.568  11.565   2.815  0.0974  0.0613 -0.3843
  688MOL0     H92858   2.780  11.481   2.607 -0.9793  0.4053 -1.4079
  688MOL0     H92859   2.738  11.379   2.753 -0.6502 -1.3443 -0.5718
  688MOL0     H92860   3.441  11.521   2.616 -1.8807  1.9333  1.2846
  688MOL0     H92861   3.640  11.423   2.538  0.3679 -0.4858 -0.1692
  688MOL0     H92862   4.074  11.136   2.637 -0.2433  1.2706 -0.2099
  688MOL0     H92863   4.258  11.050   2.507  0.4670  0.3455  1.5078
  688MOL0     H92864   3.577  10.277   2.350  0.6482 -0.6827  2.2632
  688MOL0     H92865   3.338  10.196   2.342 -1.9863  0.9117 -1.0638
  688MOL0     H92866   2.983  10.239   2.704 -0.2913  0.0861 -0.7527
  688MOL0     H92867   2.760  10.202   2.807 -0.2514 -0.7862  0.6110
  688MOL0     H92868   2.472  10.067   2.524 -0.9745 -0.0857 -0.0252
  688MOL0     H92869   2.409  10.166   2.646 -0.2449 -0.4150 -1.1808
  688MOL0     H92870   2.372   9.945   2.792  0.0943 -0.0262 -0.2375
  688MOL0     H92871   2.377   9.855   2.640 -3.4695 -1.6620  2.1899
  688MOL0     H92872   2.186   9.938   2.551  1.8086  1.9509 -1.2363
  688MOL0     H92873   2.197  10.084   2.652  0.1861 -0.6801  1.3466
  688MOL0     H92874   2.151   9.806   2.766 -0.1489  0.1866  1.3750
  688MOL0     H92875   2.133   9.959   2.845 -1.7998  0.8068  0.3670
  688MOL0     H92876   1.751   9.883   2.700 -1.4160  2.9752 -1.1178
  688MOL0     H92877   2.655   9.958   2.477  0.7228 -0.3939 -0.6766
  688MOL0     H92878   2.940   9.943   2.301  1.6778  1.5639  0.8686
  688MOL0     H92879   2.777   9.975   2.261 -0.2103  0.5684 -0.7672
  688MOL0     H92880   2.897  10.101   2.238  0.9929  0.6321  2.0909
  689MOL0     O92881  10.141   7.787   5.435  0.4934  0.0869  0.1283
  689MOL0     C92882  10.100   7.860   5.525 -0.6643  0.2093  0.2963
  689MOL0     O92883  10.183   7.925   5.609 -0.0292 -0.3579  0.3976
  689MOL0     C92884  10.321   7.897   5.601 -0.3789 -0.5375 -0.2133
  689MOL0     C92885  10.380   7.809   5.694 -0.0060 -0.4592  0.1688
  689MOL0     C92886  10.516   7.770   5.677  0.2580  0.1769 -1.2509
  689MOL0     C92887  10.597   7.833   5.587 -0.1905 -0.8664 -0.7208
  689MOL0     O92888  10.735   7.803   5.587  0.3831 -0.0637 -0.2137
  689MOL0     C92889  10.814   7.872   5.491  0.6186  0.2101 -0.1035
  689MOL0     C92890  10.966   7.843   5.499  0.4468  0.6137  1.1636
  689MOL0     C92891  11.035   7.947   5.407  0.0455  0.2197  0.1822
  689MOL0     C92892  11.185   7.922   5.380  0.5994  0.2846 -0.6119
  689MOL0     C92893  11.248   8.043   5.309  0.2563  0.1307  0.7727
  689MOL0     C92894  11.390   8.012   5.277  0.1272  0.1842  0.1109
  689MOL0     C92895  11.454   8.123   5.192  0.6026 -0.6872 -0.9087
  689MOL0     C92896  11.596   8.102   5.143  0.3026 -1.0605 -0.6432
  689MOL0     N92897  11.663   8.222   5.092  0.0507 -0.4973 -0.1283
  689MOL0     C92898  11.766   8.285   5.153 -0.1439  0.0872  0.3576
  689MOL0     C92899  11.819   8.362   5.056 -0.0134 -0.3797  0.7751
  689MOL0     C92900  11.917   8.475   5.071  0.3953  0.6219 -0.3360
  689MOL0     C92901  12.060   8.437   5.019  0.3169  0.8455  0.0602
  689MOL0     C92902  12.168   8.440   5.135  0.0222 -0.0079 -0.0162
  689MOL0     C92903  12.231   8.578   5.154  0.3625  0.0204  0.4106
  689MOL0     O92904  12.295   8.591   5.273 -0.3544  0.5151 -0.1894
  689MOL0     C92905  12.435   8.592   5.268  0.7545 -0.4075 -0.3527
  689MOL0     C92906  12.502   8.707   5.221  0.6927  0.3998  1.0543
  689MOL0     C92907  12.637   8.716   5.222  0.1703  0.2809  0.1827
  689MOL0     C92908  12.721   8.608   5.247  0.1260  1.0231 -0.0712
  689MOL0     C92909  12.870   8.619   5.241  0.3546  0.2391 -0.2712
  689MOL0     O92910  12.946   8.514   5.289  0.4259 -0.9273 -0.4842
  689MOL0     C92911  13.065   8.506   5.225 -0.6923  1.0439  0.5977
  689MOL0     C92912  13.080   8.444   5.093  0.3712 -0.2659 -0.2283
  689MOL0     C92913  13.199   8.451   5.022 -0.3110  0.0081  0.1351
  689MOL0     C92914  13.305   8.513   5.076 -0.0907 -1.3442 -0.2993
  689MOL0     O92915  13.429   8.496   5.022  0.0780  0.1324 -0.0659
  689MOL0     C92916  13.534   8.602   5.038 -0.3134 -0.2679  0.7771
  689MOL0     C92917  13.662   8.557   4.973  0.4574 -0.8397  0.9642
  689MOL0     C92918  13.772   8.652   5.009 -1.2025 -0.6468  0.1159
  689MOL0     C92919  13.914   8.608   4.963 -0.4302  0.3340 -0.1962
  689MOL0     C92920  14.018   8.712   5.029 -0.1075  0.3310 -0.2710
  689MOL0     C92921  14.164   8.704   4.981 -1.5697  0.5922 -0.3354
  689MOL0     C92922  14.181   8.687   4.830 -0.4207 -0.2121 -0.3317
  689MOL0     C92923  14.124   8.813   4.761  0.4773 -0.3996 -0.8240
  689MOL0    Cl92924  14.150   8.804   4.596 -0.5694 -0.1045 -0.0039
  689MOL0     C92925  13.285   8.575   5.206 -0.9561  0.3858  0.0166
  689MOL0     C92926  13.178   8.563   5.280 -0.4938 -1.0515 -0.0655
  689MOL0     O92927  12.916   8.722   5.185  0.2221 -0.7076  0.6386
  689MOL0     C92928  12.657   8.491   5.289 -0.6224  0.0091  0.3980
  689MOL0     C92929  12.515   8.480   5.298 -0.1984 -0.5868  0.3116
  689MOL0     N92930  11.758   8.338   4.935  0.5978  0.2911 -0.4541
  689MOL0     N92931  11.664   8.248   4.962  0.5718  0.2639  0.0943
  689MOL0     C92932  10.541   7.936   5.507 -0.4771 -1.3123 -0.3988
  689MOL0     C92933  10.405   7.970   5.510  0.2304  0.4462 -0.6340
  689MOL0     C92934   9.955   7.882   5.543 -0.5452  0.1965 -1.4179
  689MOL0     C92935   9.910   7.987   5.630  0.3593  0.9227  0.3473
  689MOL0     C92936   9.784   8.006   5.660  0.4360 -0.3579  1.1727
  689MOL0     C92937   9.684   7.931   5.604  0.5584  0.7176 -0.1809
  689MOL0     O92938   9.546   7.942   5.628  0.1843 -0.0346 -0.2755
  689MOL0     C92939   9.519   7.936   5.771  0.3393  0.6394  0.1962
  689MOL0     C92940   9.386   7.858   5.796 -0.3293  0.3530 -0.2565
  689MOL0     C92941   9.265   7.880   5.700 -0.3548 -0.6865 -0.3554
  689MOL0     C92942   9.135   7.804   5.737 -0.8002 -0.1504 -0.0097
  689MOL0     C92943   9.045   7.821   5.625  0.0589  0.4461  0.6320
  689MOL0     C92944   8.966   7.843   5.535  0.4238  0.2599  0.2735
  689MOL0     C92945   9.720   7.841   5.502  0.2466  0.4156  0.6700
  689MOL0     C92946   9.853   7.810   5.478  0.5015 -0.5945  0.3566
  689MOL0     C92947   9.876   7.684   5.394  0.0485 -0.1011  0.6498
  689MOL0     H92948  10.320   7.759   5.770  1.0805  0.9532  2.0429
  689MOL0     H92949  10.552   7.697   5.749 -0.6140  0.5709 -0.3864
  689MOL0     H92950  10.786   7.836   5.392  4.1461 -1.2197 -0.7218
  689MOL0     H92951  10.801   7.980   5.501 -3.1468 -0.1637  0.4164
  689MOL0     H92952  10.985   7.741   5.463 -1.1819  0.6808  0.0156
  689MOL0     H92953  10.996   7.861   5.603 -1.0178  0.7444  1.5833
  689MOL0     H92954  11.025   8.046   5.452  2.6772  1.5120 -1.8029
  689MOL0     H92955  10.985   7.942   5.310  0.4727 -0.3523 -0.0151
  689MOL0     H92956  11.251   7.919   5.468  2.5067  2.2721 -1.8787
  689MOL0     H92957  11.193   7.829   5.324  0.5954  0.4632 -0.9067
  689MOL0     H92958  11.197   8.039   5.212  0.2837 -0.3251  0.7745
  689MOL0     H92959  11.239   8.133   5.371  2.9021 -0.9203  2.8685
  689MOL0     H92960  11.443   7.998   5.372  0.3636  0.0365 -0.0432
  689MOL0     H92961  11.393   7.915   5.229 -2.4808 -1.6177  3.1934
  689MOL0     H92962  11.433   8.212   5.251  0.6263 -2.3715  1.8108
  689MOL0     H92963  11.390   8.128   5.103 -1.9655 -1.0899  0.8011
  689MOL0     H92964  11.656   8.074   5.230 -0.2518  2.3168  0.9938
  689MOL0     H92965  11.609   8.025   5.066  3.6612  0.9081 -2.2201
  689MOL0     H92966  11.808   8.293   5.253 -2.5366  1.5232  1.3389
  689MOL0     H92967  11.885   8.570   5.027  3.5500  1.7007 -0.5658
  689MOL0     H92968  11.932   8.497   5.177 -1.7694  0.0902  0.1325
  689MOL0     H92969  12.053   8.341   4.967 -1.2486  2.6633 -3.3229
  689MOL0     H92970  12.088   8.508   4.941 -0.9592  0.5539 -0.6857
  689MOL0     H92971  12.241   8.361   5.116 -0.0374  0.2727 -1.5608
  689MOL0     H92972  12.110   8.418   5.225 -1.3573 -0.6447 -1.0165
  689MOL0     H92973  12.152   8.654   5.148 -0.0518 -0.4917 -1.2701
  689MOL0     H92974  12.289   8.608   5.066  2.0705 -1.0260  1.1229
  689MOL0     H92975  12.444   8.797   5.204  0.2918 -0.2123 -1.1389
  689MOL0     H92976  12.692   8.808   5.205 -0.8994  0.9420  0.2224
  689MOL0     H92977  12.991   8.397   5.053 -1.0843  0.9148  1.5002
  689MOL0     H92978  13.205   8.396   4.929  0.3995  0.9080 -0.3632
  689MOL0     H92979  13.504   8.697   4.992  0.4764 -0.7069 -0.7032
  689MOL0     H92980  13.554   8.612   5.145 -1.3386  0.4484  0.9148
  689MOL0     H92981  13.690   8.458   5.011 -1.9306 -1.7963  0.4019
  689MOL0     H92982  13.646   8.562   4.865  0.7663  1.1708  0.9622
  689MOL0     H92983  13.753   8.750   4.965  0.8391 -0.3195 -0.1332
  689MOL0     H92984  13.786   8.664   5.117 -0.5048 -0.0757 -0.0304
  689MOL0     H92985  13.913   8.617   4.854 -0.4958  2.6375 -0.0565
  689MOL0     H92986  13.946   8.505   4.986  1.8404  0.8326 -0.8544
  689MOL0     H92987  14.024   8.688   5.135 -0.6010  0.1460 -0.2794
  689MOL0     H92988  13.978   8.813   5.018  1.9102  1.5404  2.4264
  689MOL0     H92989  14.225   8.792   5.005  0.6435 -0.7693 -0.6241
  689MOL0     H92990  14.231   8.630   5.027 -0.4921  0.0273 -2.6473
  689MOL0     H92991  14.132   8.593   4.802 -1.5190 -0.6483  2.6647
  689MOL0     H92992  14.284   8.679   4.794 -0.6999 -1.9477 -0.8231
  689MOL0     H92993  14.019   8.834   4.780  0.3222 -0.2723 -1.7397
  689MOL0     H92994  14.173   8.901   4.804  0.9271 -0.9452 -0.1932
  689MOL0     H92995  13.370   8.624   5.253 -1.2002 -0.5131  1.4678
  689MOL0     H92996  13.174   8.606   5.379 -0.8436  0.9932 -0.9180
  689MOL0     H92997  12.720   8.405   5.311 -1.4044 -0.6087  0.2473
  689MOL0     H92998  12.471   8.383   5.318  0.5958 -1.5129 -2.0117
  689MOL0     H92999  10.605   7.999   5.447  1.3424 -3.2017 -0.5381
  689MOL0     H93000  10.370   8.061   5.462  3.1217  1.1867 -1.5022
  689MOL0     H93001   9.986   8.046   5.680  1.5184 -0.4713  0.3068
  689MOL0     H93002   9.759   8.081   5.734 -2.4807 -0.2031  0.1660
  689MOL0     H93003   9.522   8.036   5.815 -0.8874  0.6637  0.2591
  689MOL0     H93004   9.601   7.884   5.822  1.7521 -1.3182 -3.6312
  689MOL0     H93005   9.355   7.897   5.893  1.6622  2.0556 -0.2222
  689MOL0     H93006   9.400   7.750   5.807  1.6560  0.2769 -2.6281
  689MOL0     H93007   9.303   7.837   5.608  1.8842  0.7297 -0.1737
  689MOL0     H93008   9.240   7.987   5.700 -3.2796 -1.2886 -1.7397
  689MOL0     H93009   9.160   7.700   5.757  2.3345  0.9929  2.8800
  689MOL0     H93010   9.099   7.844   5.832  0.9016 -1.1055  1.0773
  689MOL0     H93011   8.893   7.858   5.457  0.1237  1.6245  0.8020
  689MOL0     H93012   9.643   7.785   5.450  0.6229 -0.6954  1.3022
  689MOL0     H93013   9.784   7.627   5.381  2.0552 -3.7655  1.3434
  689MOL0     H93014   9.918   7.713   5.297 -1.9995 -0.8821 -0.5265
  689MOL0     H93015   9.940   7.620   5.456  0.6905  0.9614  1.1311
  690MOL0     O93016   2.994   5.987   4.010  0.1999  0.4659  0.2102
  690MOL0     C93017   3.076   5.934   4.082 -0.0953 -0.3847 -0.0178
  690MOL0     O93018   3.074   5.938   4.219  0.3220 -0.4759  0.6120
  690MOL0     C93019   2.976   6.001   4.296  0.2020 -0.7660 -0.0479
  690MOL0     C93020   2.855   6.065   4.262 -0.2758 -0.7045 -0.0922
  690MOL0     C93021   2.761   6.116   4.355 -0.2202  0.2254  0.7273
  690MOL0     C93022   2.789   6.094   4.490  0.7221 -0.1232 -0.9333
  690MOL0     O93023   2.694   6.117   4.587 -0.0431 -0.1396 -0.2907
  690MOL0     C93024   2.715   6.165   4.724  0.5957 -0.1969  0.1627
  690MOL0     C93025   2.811   6.288   4.729  0.2036 -0.3058 -0.5672
  690MOL0     C93026   2.760   6.404   4.650  0.6779 -0.0563 -0.3108
  690MOL0     C93027   2.608   6.436   4.677  0.0243 -0.0715  0.2744
  690MOL0     C93028   2.578   6.584   4.639  1.0791 -0.2444 -0.0150
  690MOL0     C93029   2.649   6.691   4.724 -0.3189 -1.3670 -0.3373
  690MOL0     C93030   2.586   6.834   4.711 -0.2691 -0.3241  0.5188
  690MOL0     C93031   2.607   6.889   4.571  0.2443 -0.6751  0.0776
  690MOL0     N93032   2.746   6.923   4.543 -0.2396 -0.4371 -0.4373
  690MOL0     C93033   2.820   6.872   4.437  0.3222  0.1353 -0.3255
  690MOL0     C93034   2.931   6.943   4.436 -1.0371 -0.1567  0.2847
  690MOL0     C93035   3.043   6.922   4.336  0.0505 -1.1502  0.2574
  690MOL0     C93036   3.127   7.053   4.326 -0.2607 -0.2570 -0.2889
  690MOL0     C93037   3.260   7.048   4.250 -0.5230  0.4444  0.0160
  690MOL0     C93038   3.362   6.960   4.306  0.3318 -0.0457 -0.3411
  690MOL0     O93039   3.493   6.987   4.266 -0.1289 -0.4569  0.3090
  690MOL0     C93040   3.590   6.891   4.292  0.0220 -0.4983 -0.2968
  690MOL0     C93041   3.713   6.921   4.258  0.7190  0.8001  0.7611
  690MOL0     C93042   3.821   6.834   4.294  0.2356  0.2832  0.1790
  690MOL0     C93043   3.803   6.711   4.363  0.6694  0.1174 -0.3820
  690MOL0     C93044   3.912   6.620   4.404 -0.0483  0.2169 -0.1978
  690MOL0     O93045   4.043   6.668   4.389  0.1285 -0.4260 -0.3654
  690MOL0     C93046   4.148   6.581   4.429  0.9249  0.1324  0.0100
  690MOL0     C93047   4.154   6.443   4.390  0.9610 -0.4889 -0.6762
  690MOL0     C93048   4.258   6.364   4.417 -0.2074 -0.2404 -0.1740
  690MOL0     C93049   4.378   6.415   4.478 -0.2299  0.2842  0.0001
  690MOL0     O93050   4.498   6.343   4.490 -0.0829  0.1144  0.1292
  690MOL0     C93051   4.484   6.214   4.554 -0.0655 -1.6702  0.3899
  690MOL0     C93052   4.610   6.128   4.535  0.5884  0.4247  0.6965
  690MOL0     C93053   4.624   6.084   4.396 -0.0948  0.1965 -0.4059
  690MOL0     C93054   4.706   5.951   4.393 -0.2076  0.2672  0.4482
  690MOL0     C93055   4.759   5.914   4.253 -0.5042 -0.0739 -0.1838
  690MOL0     C93056   4.654   5.913   4.137  0.3062 -0.4861 -0.1747
  690MOL0     C93057   4.722   5.884   4.003 -0.7123  0.1885  0.5386
  690MOL0     C93058   4.620   5.897   3.893 -0.3873  0.5551 -0.5142
  690MOL0    Cl93059   4.488   5.792   3.899  0.5129  0.0195  0.1122
  690MOL0     C93060   4.378   6.550   4.512 -0.1386 -0.2674  0.3528
  690MOL0     C93061   4.269   6.630   4.481  0.2036 -0.1307  0.2975
  690MOL0     O93062   3.880   6.516   4.466 -0.7268 -0.3165  0.1487
  690MOL0     C93063   3.668   6.678   4.379 -0.1211  0.1681  0.5507
  690MOL0     C93064   3.561   6.766   4.348 -0.6952 -0.3517  0.2145
  690MOL0     N93065   2.938   7.023   4.547 -0.2384 -0.0528  0.3244
  690MOL0     N93066   2.821   7.015   4.611 -0.1300 -0.0754  0.2843
  690MOL0     C93067   2.906   6.038   4.527  0.2748  0.3125  0.0868
  690MOL0     C93068   3.006   6.008   4.427  0.2712  0.1430 -0.6378
  690MOL0     C93069   3.194   5.872   4.023  0.2484 -0.1940  0.2878
  690MOL0     C93070   3.312   5.860   4.102  0.3607 -0.1047 -0.5420
  690MOL0     C93071   3.430   5.815   4.036  0.2772 -0.7483 -1.0800
  690MOL0     C93072   3.432   5.783   3.908 -0.4035 -0.3463 -0.0668
  690MOL0     O93073   3.544   5.747   3.844  0.2956 -0.1885  0.7419
  690MOL0     C93074   3.668   5.727   3.910 -0.2368  0.1705 -0.3631
  690MOL0     C93075   3.762   5.663   3.808 -0.7414 -0.2851 -0.6173
  690MOL0     C93076   3.809   5.753   3.691  0.3175 -0.7962 -0.0075
  690MOL0     C93077   3.911   5.865   3.728 -0.2623  0.0502 -0.6414
  690MOL0     C93078   4.046   5.802   3.762  0.0313 -0.4542 -0.0299
  690MOL0     C93079   4.158   5.764   3.766 -0.4582  0.4816 -0.4725
  690MOL0     C93080   3.321   5.781   3.830 -0.0112  1.0671 -0.6998
  690MOL0     C93081   3.201   5.823   3.881  0.5146  1.0606 -0.0634
  690MOL0     C93082   3.072   5.802   3.799 -0.4649  0.1847  0.0648
  690MOL0     H93083   2.812   6.057   4.162  0.7206  0.9657 -0.6868
  690MOL0     H93084   2.671   6.165   4.319  1.4044  0.9175 -2.7344
  690MOL0     H93085   2.616   6.191   4.765  0.6047  0.6317 -0.3199
  690MOL0     H93086   2.756   6.090   4.792 -1.4288  1.1339  3.0851
  690MOL0     H93087   2.910   6.262   4.691  0.0050 -1.1560 -0.5391
  690MOL0     H93088   2.811   6.321   4.834  1.0011 -0.3930 -0.5374
  690MOL0     H93089   2.767   6.363   4.549 -3.8307  0.5350 -1.0813
  690MOL0     H93090   2.820   6.494   4.666  0.8032 -0.4475  1.6324
  690MOL0     H93091   2.543   6.366   4.625 -0.8576  1.5527 -0.9116
  690MOL0     H93092   2.602   6.432   4.787  3.6249  1.1386  0.6433
  690MOL0     H93093   2.605   6.605   4.535 -0.1129  2.7443  0.1632
  690MOL0     H93094   2.469   6.592   4.646  1.1489  0.0277  0.8835
  690MOL0     H93095   2.638   6.681   4.833 -2.5628 -0.7316 -0.4399
  690MOL0     H93096   2.753   6.687   4.692  0.1702  0.2551  0.8721
  690MOL0     H93097   2.630   6.895   4.791 -2.4895  0.3910  1.2537
  690MOL0     H93098   2.481   6.839   4.740 -0.1429  3.2547  0.8116
  690MOL0     H93099   2.574   6.818   4.494  0.7721  0.6514 -1.4436
  690MOL0     H93100   2.547   6.978   4.550  0.4880 -0.4390  0.3878
  690MOL0     H93101   2.790   6.810   4.353 -0.9927  1.5988 -0.9901
  690MOL0     H93102   3.106   6.836   4.362 -1.5968 -1.9072  1.9868
  690MOL0     H93103   2.997   6.912   4.238 -0.4706  2.6411 -0.0412
  690MOL0     H93104   3.057   7.117   4.270 -0.1677  1.5298  1.5320
  690MOL0     H93105   3.149   7.096   4.424  2.0396  1.1828 -1.3598
  690MOL0     H93106   3.300   7.148   4.234 -0.8249  0.5559 -0.0300
  690MOL0     H93107   3.231   7.003   4.154 -0.4292  0.4487 -0.0153
  690MOL0     H93108   3.324   6.860   4.282  0.6398 -1.1590  3.1943
  690MOL0     H93109   3.360   6.961   4.415  1.3669 -0.8471 -0.2923
  690MOL0     H93110   3.722   7.015   4.205 -2.6031  1.3227  0.9311
  690MOL0     H93111   3.919   6.862   4.259  0.7542  1.5898  2.4954
  690MOL0     H93112   4.071   6.401   4.334  1.2806 -2.5933  0.3279
  690MOL0     H93113   4.248   6.265   4.374 -1.6521 -0.8029  1.3506
  690MOL0     H93114   4.461   6.231   4.660 -3.1082 -1.7445 -0.1589
  690MOL0     H93115   4.404   6.158   4.505  0.9730 -0.9539 -2.2855
  690MOL0     H93116   4.693   6.183   4.579 -0.0792  1.7512  0.3453
  690MOL0     H93117   4.599   6.040   4.600  0.5993  0.5339  0.8454
  690MOL0     H93118   4.527   6.076   4.346 -0.2883  0.4796 -0.0816
  690MOL0     H93119   4.679   6.159   4.339 -0.5292  0.5400 -0.3784
  690MOL0     H93120   4.655   5.867   4.442 -0.5689  0.5879  0.6201
  690MOL0     H93121   4.788   5.973   4.463 -1.0111  1.5537  1.0129
  690MOL0     H93122   4.794   5.810   4.253 -0.9860 -0.2597 -1.9699
  690MOL0     H93123   4.840   5.981   4.224 -0.2950 -1.2333 -2.5538
  690MOL0     H93124   4.583   5.833   4.159 -1.4458  0.8544 -0.7262
  690MOL0     H93125   4.604   6.011   4.131  0.3017 -0.3276  1.9575
  690MOL0     H93126   4.762   5.783   3.988 -1.9078 -0.2426  0.1326
  690MOL0     H93127   4.798   5.960   3.983  0.7903 -1.0991  1.1908
  690MOL0     H93128   4.595   6.004   3.899 -1.1255  0.3100  1.4383
  690MOL0     H93129   4.673   5.892   3.798  1.2144 -0.2783  0.3772
  690MOL0     H93130   4.469   6.599   4.548 -0.6480  0.3271  0.8527
  690MOL0     H93131   4.277   6.735   4.507  0.8893 -0.0204 -0.3293
  690MOL0     H93132   3.635   6.581   4.415  1.9202 -0.4021  1.0547
  690MOL0     H93133   3.461   6.734   4.373 -0.5109 -0.7550  0.4385
  690MOL0     H93134   2.927   6.011   4.630 -1.1040  0.9909  0.5760
  690MOL0     H93135   3.098   5.966   4.466 -0.9050 -1.1859  0.7942
  690MOL0     H93136   3.316   5.881   4.208  5.0891 -0.4719 -0.4191
  690MOL0     H93137   3.512   5.812   4.107 -1.2917  1.4968  0.9857
  690MOL0     H93138   3.661   5.660   3.997 -1.5221  2.3907  1.3526
  690MOL0     H93139   3.711   5.817   3.955 -1.3006  0.4381  0.1406
  690MOL0     H93140   3.712   5.577   3.763 -0.0009 -1.0325 -0.0338
  690MOL0     H93141   3.843   5.624   3.869 -0.2256  2.2642  0.4423
  690MOL0     H93142   3.722   5.807   3.652 -0.3037 -0.6131  1.5352
  690MOL0     H93143   3.869   5.696   3.620  0.0738  1.0968 -1.8524
  690MOL0     H93144   3.924   5.931   3.642  0.6406 -0.6845 -1.0838
  690MOL0     H93145   3.888   5.921   3.819  0.5483 -0.7809  0.0939
  690MOL0     H93146   4.258   5.729   3.783 -1.8390 -2.0898  4.2684
  690MOL0     H93147   3.330   5.742   3.729  1.5995  2.0610 -0.9848
  690MOL0     H93148   3.043   5.903   3.768  0.9511  0.8935  0.9569
  690MOL0     H93149   3.089   5.744   3.708  1.0478 -0.4560  0.7298
  690MOL0     H93150   2.991   5.760   3.860 -0.2290 -0.9297 -0.3637
  691MOL0     O93151   6.380   5.394   6.309  0.0782  0.2865  0.4028
  691MOL0     C93152   6.369   5.454   6.419 -0.2478 -0.5260 -0.3961
  691MOL0     O93153   6.429   5.574   6.452 -0.0342  0.6293 -0.8297
  691MOL0     C93154   6.534   5.610   6.368 -0.2501 -0.3545 -0.0843
  691MOL0     C93155   6.670   5.586   6.395  0.4916  0.1285  0.5589
  691MOL0     C93156   6.769   5.604   6.298  0.1801 -0.6121 -0.3543
  691MOL0     C93157   6.742   5.660   6.172  0.5354 -0.0490  0.3166
  691MOL0     O93158   6.835   5.663   6.070 -0.0267 -0.6825 -0.1570
  691MOL0     C93159   6.971   5.656   6.106 -0.4697 -0.3507 -0.4950
  691MOL0     C93160   7.055   5.671   5.984 -0.1012  0.7466  0.4391
  691MOL0     C93161   7.204   5.670   6.024 -0.2332  0.2507 -0.2142
  691MOL0     C93162   7.259   5.540   6.090 -0.6965  0.1317  0.1009
  691MOL0     C93163   7.398   5.498   6.040  0.2475  0.7466  0.0429
  691MOL0     C93164   7.508   5.592   6.067 -0.2158  0.3477  0.2229
  691MOL0     C93165   7.646   5.563   6.003  0.4909 -0.5443 -0.3528
  691MOL0     C93166   7.704   5.433   6.066  0.0383 -0.0157 -0.4023
  691MOL0     N93167   7.756   5.467   6.206  0.6660  0.2624  0.1087
  691MOL0     C93168   7.803   5.377   6.299  0.4919  1.0173 -0.2060
  691MOL0     C93169   7.871   5.449   6.397  0.4338  0.1795  0.8714
  691MOL0     C93170   7.954   5.403   6.514 -0.4734  0.4517  1.1716
  691MOL0     C93171   8.094   5.383   6.468  0.0109 -0.3090 -1.1607
  691MOL0     C93172   8.178   5.317   6.578  0.1877 -0.0489  0.6225
  691MOL0     C93173   8.318   5.280   6.528 -0.6105 -0.1792 -0.2936
  691MOL0     O93174   8.405   5.230   6.632 -0.8000 -0.0656  0.0477
  691MOL0     C93175   8.537   5.190   6.599  1.3662 -0.0472  0.3975
  691MOL0     C93176   8.582   5.151   6.470 -0.3429  0.2524  0.0693
  691MOL0     C93177   8.714   5.123   6.448 -0.0928  0.7246  0.3065
  691MOL0     C93178   8.814   5.150   6.549  0.4234  0.0122 -0.5497
  691MOL0     C93179   8.957   5.121   6.523 -0.1955  0.0447  0.7105
  691MOL0     O93180   9.045   5.154   6.621 -0.8130 -0.0210 -0.1886
  691MOL0     C93181   9.180   5.126   6.629  0.8522  0.0587 -0.6735
  691MOL0     C93182   9.257   5.190   6.725 -0.3644 -0.4224  0.5212
  691MOL0     C93183   9.395   5.163   6.742 -0.2856 -0.6056 -0.5956
  691MOL0     C93184   9.459   5.065   6.678 -0.4926  0.4763 -0.2302
  691MOL0     O93185   9.594   5.040   6.695 -0.4916 -0.7975  0.4161
  691MOL0     C93186   9.673   5.141   6.767 -0.0332 -0.2005  0.0302
  691MOL0     C93187   9.806   5.068   6.799 -0.8224 -0.0427  0.0268
  691MOL0     C93188   9.909   5.057   6.690  0.1552 -1.0376 -0.3331
  691MOL0     C93189  10.031   4.976   6.743 -0.4549 -0.0734 -0.4920
  691MOL0     C93190  10.150   4.987   6.656 -0.6855 -0.2309  0.3744
  691MOL0     C93191  10.248   5.106   6.695 -0.4325  0.2969 -0.1258
  691MOL0     C93192  10.379   5.103   6.619  0.0508 -0.2304 -0.5273
  691MOL0     C93193  10.452   5.231   6.631 -0.8008 -0.9339  0.4751
  691MOL0    Cl93194  10.527   5.274   6.783 -0.1023  0.1660  0.2752
  691MOL0     C93195   9.383   5.003   6.567 -0.6142 -0.7208  1.1459
  691MOL0     C93196   9.249   5.031   6.548  0.0081 -0.8039  0.1398
  691MOL0     O93197   8.987   5.072   6.415 -0.4056 -0.1872  0.3249
  691MOL0     C93198   8.775   5.186   6.679  0.6513 -0.8286  0.7466
  691MOL0     C93199   8.631   5.205   6.693 -0.3734 -0.0037  0.4797
  691MOL0     N93200   7.863   5.583   6.355  0.4556  0.1525 -0.4081
  691MOL0     N93201   7.803   5.583   6.247 -0.0307  0.2171 -0.1462
  691MOL0     C93202   6.610   5.710   6.144 -0.0348 -0.2729 -0.4682
  691MOL0     C93203   6.512   5.679   6.245 -0.3321 -1.0385 -0.6910
  691MOL0     C93204   6.287   5.393   6.530  0.6684 -0.2474  0.2279
  691MOL0     C93205   6.303   5.446   6.660 -0.1147  0.3024  0.4522
  691MOL0     C93206   6.223   5.410   6.762 -0.5382  0.3604  0.1837
  691MOL0     C93207   6.123   5.309   6.750  0.2712 -0.3068  0.5840
  691MOL0     O93208   6.057   5.292   6.862  0.4086 -0.1017 -0.4742
  691MOL0     C93209   5.970   5.180   6.867  0.1903 -0.3936  0.1942
  691MOL0     C93210   5.975   5.132   7.013  0.0275 -0.0425  0.0802
  691MOL0     C93211   6.119   5.080   7.063  0.0496  0.6034 -0.0624
  691MOL0     C93212   6.131   5.109   7.213 -0.0193  0.0174 -0.3597
  691MOL0     C93213   6.264   5.086   7.261  0.5424  0.0336 -0.0009
  691MOL0     C93214   6.375   5.071   7.312 -0.0112 -0.3732  0.7964
  691MOL0     C93215   6.109   5.244   6.625 -0.1600  0.1129 -0.0058
  691MOL0     C93216   6.182   5.298   6.515  0.2355 -0.2966  0.1158
  691MOL0     C93217   6.128   5.260   6.379  0.5881 -0.8987 -0.4073
  691MOL0     H93218   6.705   5.532   6.483  0.2187 -0.0222  0.5740
  691MOL0     H93219   6.866   5.580   6.339  0.0451 -1.2503 -0.3953
  691MOL0     H93220   7.001   5.728   6.183  0.4953 -0.5829 -0.6506
  691MOL0     H93221   6.997   5.556   6.139  3.7965 -0.0881 -2.5121
  691MOL0     H93222   7.034   5.762   5.927 -2.2988 -0.6324 -1.1048
  691MOL0     H93223   7.038   5.586   5.918  0.0358  2.6472 -2.1605
  691MOL0     H93224   7.236   5.756   6.084 -0.2238  0.5582 -0.6581
  691MOL0     H93225   7.264   5.673   5.933  0.2733 -2.3089 -0.0449
  691MOL0     H93226   7.274   5.558   6.197  1.5912  0.6846 -0.2659
  691MOL0     H93227   7.189   5.458   6.075 -1.5587  0.8789 -0.0556
  691MOL0     H93228   7.417   5.396   6.076 -1.5718 -0.7499 -2.8853
  691MOL0     H93229   7.395   5.484   5.932  0.6863 -0.3294  0.1581
  691MOL0     H93230   7.461   5.689   6.047 -2.6056 -0.5885  0.9904
  691MOL0     H93231   7.524   5.603   6.175  2.1604 -2.0544  0.2289
  691MOL0     H93232   7.714   5.648   6.012 -1.9338  1.7062 -1.9586
  691MOL0     H93233   7.648   5.551   5.894  4.3500 -3.9491 -0.1570
  691MOL0     H93234   7.614   5.375   6.088 -1.8967  2.6713 -0.6948
  691MOL0     H93235   7.790   5.396   6.009  0.0303  1.9750 -1.7996
  691MOL0     H93236   7.804   5.269   6.302  0.7172  1.0348  0.9758
  691MOL0     H93237   7.941   5.485   6.585 -3.0421  3.3931 -2.3092
  691MOL0     H93238   7.914   5.307   6.549  0.1663 -1.1527 -2.1287
  691MOL0     H93239   8.073   5.313   6.387  1.6571 -0.5906 -1.3836
  691MOL0     H93240   8.144   5.477   6.442 -1.1551  0.5747 -0.3075
  691MOL0     H93241   8.138   5.226   6.623  2.6018 -0.7162  1.5580
  691MOL0     H93242   8.204   5.398   6.647  1.2084  1.3773 -1.3492
  691MOL0     H93243   8.370   5.373   6.502 -0.7180 -0.5554 -1.9261
  691MOL0     H93244   8.323   5.206   6.448  3.6425 -4.1010  3.0271
  691MOL0     H93245   8.508   5.144   6.391  0.3879  2.9268 -0.9646
  691MOL0     H93246   8.741   5.088   6.348 -3.6734  1.2064 -0.9524
  691MOL0     H93247   9.215   5.273   6.780  1.2264  0.8979 -0.1531
  691MOL0     H93248   9.441   5.240   6.803 -3.5005  1.9350 -1.0893
  691MOL0     H93249   9.687   5.226   6.699 -1.5591  1.5736  1.7999
  691MOL0     H93250   9.635   5.176   6.863  2.7160  1.1059  0.7372
  691MOL0     H93251   9.850   5.127   6.879 -0.5115 -2.2232  1.5504
  691MOL0     H93252   9.792   4.965   6.833  0.3197 -0.8288 -1.7338
  691MOL0     H93253   9.860   5.007   6.606 -1.0442  0.3309 -0.4871
  691MOL0     H93254   9.937   5.160   6.669 -2.9381  0.1636  0.8306
  691MOL0     H93255   9.992   4.874   6.751  0.7394 -0.6909 -1.9385
  691MOL0     H93256  10.061   5.012   6.842 -1.9238 -5.2381  2.2011
  691MOL0     H93257  10.116   5.007   6.554  3.5722  2.1191 -0.8379
  691MOL0     H93258  10.210   4.895   6.659  2.0337  1.3341 -1.4859
  691MOL0     H93259  10.197   5.201   6.677 -0.2947  0.2439 -0.8489
  691MOL0     H93260  10.287   5.094   6.796 -0.8302 -2.9445 -0.2364
  691MOL0     H93261  10.356   5.070   6.518  0.6229 -2.1015 -0.0890
  691MOL0     H93262  10.440   5.023   6.661 -0.9923  0.7350  3.3069
  691MOL0     H93263  10.536   5.236   6.560 -2.5429  1.8117 -1.6265
  691MOL0     H93264  10.385   5.315   6.606  0.6618  0.7844  2.0125
  691MOL0     H93265   9.449   4.943   6.504  1.1161  0.5452  1.6712
  691MOL0     H93266   9.202   4.987   6.461  0.6047 -0.5062 -0.3385
  691MOL0     H93267   8.848   5.187   6.758  1.4270 -0.9106  0.0395
  691MOL0     H93268   8.599   5.252   6.785  0.8080  1.4536  0.2017
  691MOL0     H93269   6.582   5.758   6.051  0.7154  2.7459  0.7228
  691MOL0     H93270   6.408   5.698   6.223 -0.1683  1.3776  0.3986
  691MOL0     H93271   6.383   5.518   6.678  0.6929 -0.3872 -0.2391
  691MOL0     H93272   6.237   5.454   6.860  1.1090  0.8262 -0.2345
  691MOL0     H93273   5.994   5.094   6.803 -0.5950  1.1982 -2.4110
  691MOL0     H93274   5.866   5.202   6.841 -0.7432 -1.7360  2.5253
  691MOL0     H93275   5.903   5.051   7.029 -2.2501  1.8541 -0.0371
  691MOL0     H93276   5.942   5.218   7.071 -1.8390 -0.5401 -0.1855
  691MOL0     H93277   6.200   5.138   7.018  3.5234 -0.9886  3.5182
  691MOL0     H93278   6.125   4.972   7.042 -3.3237  0.4441 -0.9114
  691MOL0     H93279   6.105   5.209   7.250  0.0436 -0.4549  1.0031
  691MOL0     H93280   6.063   5.046   7.271 -0.7337 -0.2584 -1.4627
  691MOL0     H93281   6.475   5.061   7.348  0.1935 -1.3172  0.0016
  691MOL0     H93282   6.030   5.171   6.612 -0.4685  0.4572 -0.0462
  691MOL0     H93283   6.121   5.344   6.309  1.5004 -2.0355 -1.9041
  691MOL0     H93284   6.184   5.180   6.330  1.3004  0.9196 -2.7359
  691MOL0     H93285   6.026   5.221   6.383  0.4581 -0.5946 -0.7323
  692MOL0     O93286   5.778   9.792   7.417  0.2794 -0.3252  0.1076
  692MOL0     C93287   5.706   9.701   7.424  0.3293  1.1440 -0.4702
  692MOL0     O93288   5.749   9.564   7.446 -0.3642  0.4411 -0.2234
  692MOL0     C93289   5.874   9.524   7.492  0.0696  0.2594  0.5466
  692MOL0     C93290   5.999   9.595   7.477  1.2951 -0.4318  0.8019
  692MOL0     C93291   6.122   9.538   7.520  0.0990 -0.4768 -0.2062
  692MOL0     C93292   6.123   9.417   7.586 -0.9814 -1.0260  0.0686
  692MOL0     O93293   6.232   9.348   7.620  0.4005  0.6449 -0.4728
  692MOL0     C93294   6.364   9.411   7.614 -0.2968 -0.5672 -0.8768
  692MOL0     C93295   6.467   9.329   7.706  0.0628 -0.1245  0.6357
  692MOL0     C93296   6.566   9.428   7.775  0.5694  0.0292 -0.5494
  692MOL0     C93297   6.651   9.353   7.880  0.0758  0.3641  0.7374
  692MOL0     C93298   6.740   9.456   7.955  0.6884  0.2851 -0.2061
  692MOL0     C93299   6.779   9.430   8.097 -0.3015 -0.3637  0.4591
  692MOL0     C93300   6.872   9.304   8.119 -0.6178  0.0225 -0.8063
  692MOL0     C93301   7.021   9.339   8.146  0.8160  0.4168  0.0603
  692MOL0     N93302   7.074   9.407   8.023  0.7322  0.0079 -0.8230
  692MOL0     C93303   7.110   9.346   7.912  0.4918  0.7218  0.1958
  692MOL0     C93304   7.138   9.432   7.820 -0.0610 -1.0848 -0.2033
  692MOL0     C93305   7.183   9.415   7.678 -1.0830 -0.4735  0.2226
  692MOL0     C93306   7.333   9.429   7.647  0.2632  1.5573 -0.0082
  692MOL0     C93307   7.371   9.344   7.524  0.2412 -0.5808  0.4352
  692MOL0     C93308   7.521   9.352   7.484 -0.6816 -0.2586  0.3964
  692MOL0     O93309   7.596   9.387   7.599 -0.3134 -0.1907 -0.1141
  692MOL0     C93310   7.735   9.376   7.593 -0.8067 -0.0120 -0.6251
  692MOL0     C93311   7.801   9.395   7.470  0.0344 -0.1156  0.4512
  692MOL0     C93312   7.937   9.406   7.457  0.2713  0.9908  0.2276
  692MOL0     C93313   8.021   9.401   7.572  0.2957  0.0221 -0.1726
  692MOL0     C93314   8.165   9.416   7.562 -0.2953 -0.1499  0.5648
  692MOL0     O93315   8.229   9.465   7.668  0.0503 -0.0358 -0.1705
  692MOL0     C93316   8.360   9.500   7.650  0.0517 -0.2606 -0.5469
  692MOL0     C93317   8.407   9.575   7.544  0.5771 -0.3938 -0.5165
  692MOL0     C93318   8.539   9.620   7.545 -0.1155 -0.6192 -0.2235
  692MOL0     C93319   8.626   9.606   7.660 -0.5158  0.1308 -0.1870
  692MOL0     O93320   8.766   9.641   7.672  0.5242 -0.5590 -0.5282
  692MOL0     C93321   8.813   9.753   7.593  0.2694  1.2330 -0.3592
  692MOL0     C93322   8.942   9.815   7.648  0.1628  0.2185  0.0529
  692MOL0     C93323   8.910   9.889   7.782 -0.3007 -0.3990  0.5017
  692MOL0     C93324   9.047   9.944   7.832 -0.4699 -0.3642 -0.0190
  692MOL0     C93325   9.038   9.994   7.972  0.2297  0.1214 -0.5195
  692MOL0     C93326   9.165  10.040   8.039 -0.3071  0.0508 -1.2162
  692MOL0     C93327   9.119  10.082   8.180 -0.3538  0.2529 -1.2701
  692MOL0     C93328   9.236  10.140   8.265 -0.6195  1.0140  0.2459
  692MOL0    Cl93329   9.321  10.293   8.205  0.3247 -0.4317  0.0799
  692MOL0     C93330   8.580   9.522   7.764  0.0916  0.5421  1.0170
  692MOL0     C93331   8.446   9.476   7.756  0.7347  0.3512 -0.5717
  692MOL0     O93332   8.220   9.388   7.451  0.4518 -0.6614  0.7963
  692MOL0     C93333   7.958   9.384   7.691  0.0659  0.5633  0.0595
  692MOL0     C93334   7.817   9.370   7.710 -1.4541 -0.1848  0.6216
  692MOL0     N93335   7.137   9.559   7.880  0.0138  0.2149  0.0393
  692MOL0     N93336   7.092   9.539   8.001  0.6639 -0.8298 -0.6648
  692MOL0     C93337   6.005   9.358   7.608 -0.5002  0.4361 -0.5242
  692MOL0     C93338   5.883   9.405   7.563  0.6189  0.0707 -0.2993
  692MOL0     C93339   5.564   9.727   7.402  0.5988  0.4322  0.0944
  692MOL0     C93340   5.481   9.612   7.386 -0.1423  0.4288 -0.1273
  692MOL0     C93341   5.346   9.613   7.364  0.9460 -0.3546 -0.3932
  692MOL0     C93342   5.280   9.739   7.355 -0.3823  0.2167  0.6200
  692MOL0     O93343   5.149   9.746   7.322 -0.8546 -0.2521 -0.3054
  692MOL0     C93344   5.098   9.868   7.256  0.4077 -1.2447  0.1385
  692MOL0     C93345   4.963   9.843   7.179  0.5211  0.1240  0.4172
  692MOL0     C93346   4.855   9.767   7.261 -0.2861  0.0667  0.0863
  692MOL0     C93347   4.819   9.843   7.390 -0.4187  0.4185 -0.5004
  692MOL0     C93348   4.780   9.986   7.370  0.6635 -0.0572 -0.1817
  692MOL0     C93349   4.742  10.091   7.333  0.6451  0.3449 -0.4151
  692MOL0     C93350   5.363   9.859   7.365 -0.3237  0.6703 -0.5984
  692MOL0     C93351   5.503   9.852   7.387 -0.3267 -0.7788 -0.3809
  692MOL0     C93352   5.575   9.994   7.407 -0.3680 -0.0648  0.0573
  692MOL0     H93353   6.001   9.689   7.423  0.6916 -1.1906 -0.6118
  692MOL0     H93354   6.215   9.584   7.488 -0.7519  1.3798 -0.0969
  692MOL0     H93355   6.395   9.420   7.509 -2.4686  0.4611 -1.4948
  692MOL0     H93356   6.357   9.510   7.659  1.5762 -1.6235  2.0176
  692MOL0     H93357   6.514   9.254   7.642 -3.3691 -2.4624  0.5729
  692MOL0     H93358   6.406   9.278   7.781 -1.9107 -1.1034 -1.5124
  692MOL0     H93359   6.511   9.509   7.824  1.8053 -0.6861  2.2480
  692MOL0     H93360   6.633   9.479   7.705 -0.6850 -1.5788 -3.0889
  692MOL0     H93361   6.575   9.310   7.946 -1.2704  2.4908  0.6726
  692MOL0     H93362   6.713   9.277   7.833 -0.2739  1.5642 -1.8791
  692MOL0     H93363   6.838   9.482   7.913  2.0289  1.8808  3.4376
  692MOL0     H93364   6.688   9.551   7.945  1.4711  0.6811 -0.6397
  692MOL0     H93365   6.838   9.516   8.132  1.0897 -1.6873  1.4892
  692MOL0     H93366   6.695   9.425   8.167  1.5242  1.4089  2.9318
  692MOL0     H93367   6.862   9.226   8.043  0.5744 -3.1853  2.0398
  692MOL0     H93368   6.823   9.246   8.198  0.1735 -0.7050 -0.8286
  692MOL0     H93369   7.021   9.411   8.228  1.5046 -1.2620  1.5901
  692MOL0     H93370   7.083   9.252   8.170 -2.4573 -2.4455 -0.9411
  692MOL0     H93371   7.113   9.238   7.908 -0.0714  0.6966  0.3398
  692MOL0     H93372   7.142   9.319   7.644  0.5291 -0.8380 -0.8017
  692MOL0     H93373   7.140   9.500   7.624  1.1919 -0.0478 -1.0288
  692MOL0     H93374   7.362   9.534   7.631  2.7835  0.9179  0.0144
  692MOL0     H93375   7.392   9.400   7.735  2.2000 -0.1225 -1.7645
  692MOL0     H93376   7.315   9.379   7.437  1.9982 -0.6993 -0.8005
  692MOL0     H93377   7.354   9.237   7.535  0.7344 -0.5647  1.5697
  692MOL0     H93378   7.538   9.419   7.399  2.1706 -0.4663  0.6850
  692MOL0     H93379   7.557   9.262   7.434 -0.2354  0.9091 -1.4838
  692MOL0     H93380   7.737   9.385   7.383 -0.6423 -1.9948  1.1142
  692MOL0     H93381   7.972   9.418   7.355 -3.7526 -0.1293 -1.4698
  692MOL0     H93382   8.340   9.602   7.463 -0.2169 -0.2768  0.1642
  692MOL0     H93383   8.566   9.670   7.453 -0.4273  1.6195  0.8403
  692MOL0     H93384   8.833   9.719   7.491  1.6336 -0.7382  0.4998
  692MOL0     H93385   8.735   9.828   7.607 -0.1119  0.5617  1.2182
  692MOL0     H93386   9.014   9.736   7.670  0.2675  0.5035  0.7716
  692MOL0     H93387   8.998   9.874   7.574 -0.2789 -1.8877 -2.0945
  692MOL0     H93388   8.843   9.974   7.770 -0.1240 -0.4983 -1.5758
  692MOL0     H93389   8.873   9.808   7.845  0.4753 -0.2065  1.2244
  692MOL0     H93390   9.075  10.029   7.770  2.2199  0.4476  2.1425
  692MOL0     H93391   9.121   9.864   7.824  0.3377  0.2535  1.1332
  692MOL0     H93392   8.993   9.911   8.027  0.5222 -1.7458 -2.9575
  692MOL0     H93393   8.961  10.072   7.979 -2.9853 -2.6508 -2.1265
  692MOL0     H93394   9.243   9.963   8.046 -2.3698 -2.0117  2.3705
  692MOL0     H93395   9.205  10.124   7.982  0.3772 -0.5428 -1.6284
  692MOL0     H93396   9.099   9.991   8.236  0.9094  1.9022  2.1277
  692MOL0     H93397   9.041  10.158   8.183 -1.7251 -1.0725 -2.2995
  692MOL0     H93398   9.208  10.163   8.369 -1.4082  1.1195  0.0217
  692MOL0     H93399   9.318  10.069   8.277 -0.2272  0.9308 -2.3833
  692MOL0     H93400   8.639   9.501   7.853 -1.9570 -3.0505  1.7007
  692MOL0     H93401   8.399   9.426   7.840 -1.3274  0.3672 -1.6779
  692MOL0     H93402   8.029   9.380   7.773  0.3162  2.6906 -0.0095
  692MOL0     H93403   7.764   9.361   7.805 -1.4706 -0.4265  0.5899
  692MOL0     H93404   5.995   9.265   7.663  0.9000  0.6201  0.0874
  692MOL0     H93405   5.794   9.345   7.578 -1.1364  2.3615 -0.9425
  692MOL0     H93406   5.518   9.510   7.394 -0.5907  0.3727  1.4551
  692MOL0     H93407   5.290   9.522   7.346 -0.3945  0.5003 -0.6898
  692MOL0     H93408   5.171   9.902   7.182 -0.9867 -0.2968 -0.8424
  692MOL0     H93409   5.088   9.955   7.322  0.1116 -1.6016  0.5761
  692MOL0     H93410   4.983   9.798   7.082  0.1795 -0.6500  0.6962
  692MOL0     H93411   4.923   9.939   7.147  1.1450  0.3335  0.2498
  692MOL0     H93412   4.898   9.668   7.281  0.5119  0.3229 -0.2923
  692MOL0     H93413   4.759   9.755   7.212 -0.7639  0.4977  0.8971
  692MOL0     H93414   4.739   9.783   7.435 -0.6214 -0.1523 -1.5911
  692MOL0     H93415   4.909   9.836   7.452 -0.2521 -0.4438 -0.8220
  692MOL0     H93416   4.714  10.194   7.327  0.0146  0.2215  0.3199
  692MOL0     H93417   5.312   9.955   7.368 -0.3738  0.6391 -0.4443
  692MOL0     H93418   5.637  10.004   7.497 -1.4618  2.1641  0.6147
  692MOL0     H93419   5.634  10.012   7.316  0.4850  1.7152  0.9231
  692MOL0     H93420   5.503  10.076   7.411  1.7285  1.8009  1.8738
  693MOL0     O93421   6.619  10.356   1.722 -0.1383  0.1531 -0.5557
  693MOL0     C93422   6.641  10.403   1.609  0.2023  0.3281  0.2717
  693MOL0     O93423   6.747  10.378   1.521 -0.1369  0.7127 -0.0069
  693MOL0     C93424   6.857  10.329   1.588 -0.5901 -0.7335  0.0436
  693MOL0     C93425   6.972  10.407   1.569 -0.8012 -0.2282  0.6255
  693MOL0     C93426   7.091  10.365   1.638 -0.2599 -0.1266  0.2470
  693MOL0     C93427   7.096  10.239   1.702  0.1183  0.4631 -0.0441
  693MOL0     O93428   7.207  10.190   1.761 -0.6351  0.0856  0.5288
  693MOL0     C93429   7.316  10.180   1.658  1.1254  0.6797 -0.4899
  693MOL0     C93430   7.428  10.089   1.717 -0.5504 -0.3048  0.4984
  693MOL0     C93431   7.522  10.163   1.807 -0.4092  0.4277 -0.6095
  693MOL0     C93432   7.649  10.079   1.831 -0.3346  0.4568 -1.3758
  693MOL0     C93433   7.755  10.165   1.901 -0.2751  0.2829 -0.5037
  693MOL0     C93434   7.706  10.259   2.008 -0.3258 -0.2355 -0.2121
  693MOL0     C93435   7.828  10.304   2.090  0.3699  0.8588  0.2848
  693MOL0     C93436   7.846  10.222   2.213 -0.1267 -0.1683  0.4962
  693MOL0     N93437   7.969  10.252   2.299 -0.4386  0.1264 -0.5828
  693MOL0     C93438   8.040  10.374   2.310 -0.2479 -0.8863 -0.1438
  693MOL0     C93439   8.167  10.341   2.336  0.3001  0.4279 -0.5042
  693MOL0     C93440   8.277  10.443   2.346  0.3875  0.2701  0.7458
  693MOL0     C93441   8.292  10.469   2.496  0.8702 -0.0147 -0.2767
  693MOL0     C93442   8.332  10.347   2.574 -0.6644 -0.4063  0.0391
  693MOL0     C93443   8.468  10.279   2.541 -0.6184 -0.5196  0.4898
  693MOL0     O93444   8.583  10.365   2.568  0.5980 -0.2448  0.2212
  693MOL0     C93445   8.702  10.306   2.558  0.5190 -0.6069 -0.1324
  693MOL0     C93446   8.735  10.188   2.490  0.8282  0.6787 -0.4688
  693MOL0     C93447   8.867  10.135   2.490 -0.1269  0.3944 -0.8171
  693MOL0     C93448   8.974  10.208   2.549  1.0553 -0.8121  0.1690
  693MOL0     C93449   9.103  10.155   2.541  0.2207  0.4047 -0.3705
  693MOL0     O93450   9.209  10.232   2.591 -0.2559 -0.0198  0.6381
  693MOL0     C93451   9.341  10.196   2.563 -0.5712 -0.9623 -0.7786
  693MOL0     C93452   9.411  10.264   2.463  0.5240 -0.4845  0.2490
  693MOL0     C93453   9.533  10.207   2.425  0.4624 -0.4869  0.3947
  693MOL0     C93454   9.597  10.110   2.504  0.0648  0.0649 -0.0582
  693MOL0     O93455   9.726  10.082   2.485 -0.7434  0.2283 -0.5135
  693MOL0     C93456   9.807  10.105   2.596  0.0871 -0.0004 -0.7461
  693MOL0     C93457   9.953  10.130   2.570 -0.5757  1.0737  0.2950
  693MOL0     C93458  10.021  10.097   2.698  0.1000 -0.7081  0.1694
  693MOL0     C93459  10.166  10.150   2.679  0.1029  0.8327 -1.0541
  693MOL0     C93460  10.229  10.148   2.827 -0.1933  0.3152  1.1542
  693MOL0     C93461  10.389  10.155   2.821 -0.0273  0.2198 -0.2034
  693MOL0     C93462  10.456  10.137   2.957 -0.2096 -0.6295 -0.3636
  693MOL0     C93463  10.606  10.171   2.953 -0.7173 -0.7680  0.1521
  693MOL0    Cl93464  10.698  10.103   2.816 -0.5508  0.8691 -0.3055
  693MOL0     C93465   9.526  10.055   2.614 -0.2720 -1.2628  0.3813
  693MOL0     C93466   9.394  10.097   2.647 -0.1117 -0.0779  0.3298
  693MOL0     O93467   9.119  10.042   2.492  0.2730 -0.1651  0.7187
  693MOL0     C93468   8.941  10.333   2.610  0.1436  0.5212 -0.5636
  693MOL0     C93469   8.812  10.379   2.607  0.2872  0.1121 -0.0180
  693MOL0     N93470   8.173  10.205   2.352  0.7926  0.0637 -0.2061
  693MOL0     N93471   8.060  10.154   2.327 -0.0507  0.0308  0.3737
  693MOL0     C93472   6.977  10.166   1.722 -0.1178  0.3186  0.1617
  693MOL0     C93473   6.864  10.217   1.662 -0.2546  0.6430 -0.7132
  693MOL0     C93474   6.533  10.493   1.558  0.6144  1.7844 -0.3442
  693MOL0     C93475   6.415  10.424   1.533 -0.7002 -0.6084  0.2901
  693MOL0     C93476   6.303  10.484   1.479 -0.3048 -0.2400  0.5596
  693MOL0     C93477   6.309  10.618   1.445  0.6996  0.3757  0.6640
  693MOL0     O93478   6.204  10.696   1.396 -0.2463 -0.2201  0.2709
  693MOL0     C93479   6.097  10.705   1.486 -0.0715 -1.2225 -0.0911
  693MOL0     C93480   5.995  10.811   1.443  0.1545 -0.4115  0.2057
  693MOL0     C93481   5.867  10.783   1.521  0.3588 -0.5160 -0.2286
  693MOL0     C93482   5.749  10.857   1.454 -0.6044 -0.0668 -0.5583
  693MOL0     C93483   5.679  10.769   1.360 -0.1925 -0.3013  1.2587
  693MOL0     C93484   5.635  10.708   1.266 -0.3705 -0.2891  0.0248
  693MOL0     C93485   6.427  10.694   1.471 -0.2581  0.4967  0.0495
  693MOL0     C93486   6.539  10.629   1.529 -0.8849 -0.0427  0.2899
  693MOL0     C93487   6.670  10.703   1.545  0.6683 -0.1639 -1.1473
  693MOL0     H93488   6.974  10.480   1.489 -0.7266 -1.3773 -0.4607
  693MOL0     H93489   7.180  10.427   1.629  0.1543 -0.9625 -1.9043
  693MOL0     H93490   7.284  10.126   1.568  3.6428  0.5235 -1.3789
  693MOL0     H93491   7.351  10.279   1.628 -2.7116  1.5170 -2.9704
  693MOL0     H93492   7.474  10.036   1.633 -1.0340 -1.5395  0.9870
  693MOL0     H93493   7.383  10.011   1.780 -0.9231 -2.3353 -2.1096
  693MOL0     H93494   7.481  10.190   1.905  1.6540 -2.5124  1.2333
  693MOL0     H93495   7.562  10.253   1.760  0.3427  0.6104  0.3644
  693MOL0     H93496   7.631   9.994   1.899 -0.3645  1.3136 -0.2856
  693MOL0     H93497   7.697  10.038   1.742  2.2450 -0.7414  0.4265
  693MOL0     H93498   7.822  10.103   1.960 -0.0002  2.0008  1.0896
  693MOL0     H93499   7.809  10.221   1.824  1.9180  0.6868  1.2449
  693MOL0     H93500   7.658  10.350   1.971  1.8788  1.9426  1.8824
  693MOL0     H93501   7.639  10.205   2.076  1.1721 -0.9645  0.7304
  693MOL0     H93502   7.797  10.404   2.122  0.7144  1.1560 -0.2964
  693MOL0     H93503   7.920  10.302   2.032  2.0408 -1.3640  2.7903
  693MOL0     H93504   7.759  10.233   2.279 -0.9437  0.0714 -0.6057
  693MOL0     H93505   7.859  10.119   2.179  1.8720 -0.3254  1.5522
  693MOL0     H93506   7.998  10.472   2.290 -1.0030 -1.4385 -1.4073
  693MOL0     H93507   8.369  10.404   2.303 -0.3349 -1.7649  0.9671
  693MOL0     H93508   8.258  10.536   2.292  0.2264  0.0483  0.4208
  693MOL0     H93509   8.362  10.549   2.522  1.7774 -1.4134  1.8923
  693MOL0     H93510   8.194  10.496   2.537  0.4626 -0.2194 -1.1090
  693MOL0     H93511   8.253  10.273   2.564  0.0353 -1.1342 -0.1876
  693MOL0     H93512   8.340  10.377   2.679 -0.1580  0.8270 -0.3337
  693MOL0     H93513   8.468  10.250   2.435 -0.9901 -0.6371  0.5183
  693MOL0     H93514   8.493  10.187   2.593  0.8617 -2.1020 -2.7176
  693MOL0     H93515   8.662  10.140   2.426  2.4943  0.8223 -2.5612
  693MOL0     H93516   8.883  10.044   2.433 -2.7253 -1.3578  0.9731
  693MOL0     H93517   9.363  10.347   2.413  3.8167  1.2198 -0.4127
  693MOL0     H93518   9.592  10.252   2.346 -0.1654 -0.5697 -0.1227
  693MOL0     H93519   9.769  10.185   2.659  0.1507 -0.1551 -0.5081
  693MOL0     H93520   9.795  10.021   2.666  0.1426  1.2420  0.7973
  693MOL0     H93521   9.995  10.071   2.488 -1.6123  1.6407 -0.6797
  693MOL0     H93522   9.973  10.236   2.547  0.2161  0.3197 -3.0989
  693MOL0     H93523   9.975  10.163   2.772  3.2696  1.5339  0.3492
  693MOL0     H93524  10.018   9.989   2.709 -0.5505 -0.6604  0.4989
  693MOL0     H93525  10.170  10.252   2.641  0.9357  0.2761 -2.5085
  693MOL0     H93526  10.218  10.091   2.604 -0.1868 -1.7503  0.6202
  693MOL0     H93527  10.204  10.050   2.869  3.0242 -1.4294 -0.5532
  693MOL0     H93528  10.183  10.225   2.888  3.9150  2.8720  1.3871
  693MOL0     H93529  10.403  10.076   2.747 -0.1732  0.6167 -0.6524
  693MOL0     H93530  10.418  10.248   2.774  0.2472  0.5654  0.6248
  693MOL0     H93531  10.436  10.031   2.978 -0.0323 -0.9178 -1.5838
  693MOL0     H93532  10.399  10.194   3.031  0.0654 -1.4042  0.4540
  693MOL0     H93533  10.615  10.280   2.958  1.6149 -0.9646  2.3167
  693MOL0     H93534  10.653  10.140   3.047 -0.4047 -0.5999  0.0512
  693MOL0     H93535   9.576   9.979   2.673 -1.6305 -1.0665  1.8498
  693MOL0     H93536   9.338  10.049   2.726 -2.3570  0.1571 -1.0222
  693MOL0     H93537   9.022  10.387   2.660 -0.9482  3.0653 -1.3593
  693MOL0     H93538   8.783  10.474   2.649 -0.3117  0.6903 -1.6415
  693MOL0     H93539   6.976  10.078   1.785  1.3709  1.2741  1.5921
  693MOL0     H93540   6.773  10.158   1.663  0.7718 -1.0153 -0.7891
  693MOL0     H93541   6.410  10.321   1.567 -0.7631 -0.2088  1.5371
  693MOL0     H93542   6.210  10.429   1.487 -0.0407 -0.9060 -0.6250
  693MOL0     H93543   6.134  10.738   1.584  2.0161 -4.1191  0.2267
  693MOL0     H93544   6.050  10.606   1.484 -3.0131  0.0812 -0.0610
  693MOL0     H93545   5.977  10.798   1.336  1.2956  0.6525 -0.1403
  693MOL0     H93546   6.042  10.909   1.459 -0.4447 -0.0689 -0.1098
  693MOL0     H93547   5.892  10.824   1.619  0.0397 -0.2502 -0.2553
  693MOL0     H93548   5.835  10.679   1.525  0.3227 -0.5018 -0.1512
  693MOL0     H93549   5.683  10.882   1.537  1.1821 -1.4613  1.4098
  693MOL0     H93550   5.786  10.948   1.408 -2.0577  1.0473  0.3946
  693MOL0     H93551   5.581  10.662   1.186 -2.2946 -5.0524  3.6147
  693MOL0     H93552   6.435  10.795   1.432 -1.3049  0.0332 -1.4393
  693MOL0     H93553   6.728  10.681   1.455 -1.5092 -0.3733 -2.5744
  693MOL0     H93554   6.662  10.812   1.540  3.5448  0.0651 -2.1402
  693MOL0     H93555   6.731  10.672   1.630  0.5815 -1.2494 -1.4624
  694MOL0     O93556   4.551   3.677   6.431  0.4107 -0.5974 -0.2334
  694MOL0     C93557   4.487   3.627   6.342  0.3745  0.4147 -0.4503
  694MOL0     O93558   4.534   3.547   6.243  0.7346  0.1980 -0.2551
  694MOL0     C93559   4.670   3.530   6.223  0.0321  0.5220 -0.4736
  694MOL0     C93560   4.731   3.401   6.266  0.9731  0.1689  1.0064
  694MOL0     C93561   4.866   3.391   6.251 -0.6177  0.4775 -0.5931
  694MOL0     C93562   4.948   3.487   6.192 -0.3312  0.2800  0.2637
  694MOL0     O93563   5.084   3.472   6.182 -0.2245  0.2591 -0.2365
  694MOL0     C93564   5.152   3.359   6.230 -0.0020  0.2890 -0.0037
  694MOL0     C93565   5.302   3.400   6.220 -1.3788 -0.1379 -0.9610
  694MOL0     C93566   5.398   3.281   6.215 -0.3644 -0.0562 -0.1749
  694MOL0     C93567   5.537   3.317   6.276  0.2462  1.1950  0.7836
  694MOL0     C93568   5.629   3.192   6.247 -0.8405  0.1416 -0.4356
  694MOL0     C93569   5.696   3.191   6.104 -0.0073 -0.2305 -0.4174
  694MOL0     C93570   5.794   3.301   6.068 -0.1404 -0.8202 -0.3293
  694MOL0     C93571   5.924   3.282   6.146  0.7969 -0.1556 -0.1667
  694MOL0     N93572   6.019   3.192   6.091  0.0049  0.2276  0.0183
  694MOL0     C93573   6.110   3.225   6.007  0.0101  0.2536  0.1050
  694MOL0     C93574   6.186   3.110   6.000 -0.4696 -0.1331  0.2193
  694MOL0     C93575   6.313   3.095   5.912  0.2125 -0.0231 -0.5743
  694MOL0     C93576   6.433   3.107   6.005  0.0792  0.0610 -0.6149
  694MOL0     C93577   6.565   3.107   5.928 -0.1660 -0.0947  0.1364
  694MOL0     C93578   6.682   3.137   6.024 -0.5094  0.1985  0.1932
  694MOL0     O93579   6.710   3.028   6.108 -0.6088  0.5098 -0.3445
  694MOL0     C93580   6.837   3.010   6.157  0.1188 -0.3443  0.2510
  694MOL0     C93581   6.928   2.951   6.064  0.3159  0.3999  0.1232
  694MOL0     C93582   7.058   2.924   6.089 -0.9619 -0.9321  0.1394
  694MOL0     C93583   7.108   2.964   6.216  0.1553  0.6298 -0.2791
  694MOL0     C93584   7.253   2.947   6.242 -0.1775 -0.0516  0.1613
  694MOL0     O93585   7.332   2.888   6.149 -0.3948  0.3831 -0.5579
  694MOL0     C93586   7.471   2.885   6.163 -0.4334 -0.3103 -0.3250
  694MOL0     C93587   7.558   2.921   6.276  0.0452 -0.4558 -0.9379
  694MOL0     C93588   7.694   2.915   6.271 -0.0428 -0.5595  0.2940
  694MOL0     C93589   7.757   2.863   6.160  0.6961 -0.4052  0.2255
  694MOL0     O93590   7.890   2.879   6.165 -0.9546  0.2021  0.2194
  694MOL0     C93591   7.963   2.795   6.259  0.4965  0.1838  0.1914
  694MOL0     C93592   7.984   2.646   6.217 -0.2074 -0.0946  0.5452
  694MOL0     C93593   8.089   2.642   6.100 -0.3198 -0.2415 -0.3539
  694MOL0     C93594   8.076   2.525   6.006 -1.1797 -0.1795 -0.4766
  694MOL0     C93595   8.188   2.518   5.901 -0.2987  0.2011 -0.0607
  694MOL0     C93596   8.325   2.487   5.961 -0.5620  0.0460  0.5068
  694MOL0     C93597   8.333   2.356   6.040 -0.1228  1.0659  0.1122
  694MOL0     C93598   8.478   2.326   6.072 -0.7507 -0.1354 -0.1069
  694MOL0    Cl93599   8.496   2.173   6.168 -0.2561  0.2342  0.2412
  694MOL0     C93600   7.685   2.832   6.046  0.7038  0.1033  0.0792
  694MOL0     C93601   7.543   2.841   6.047  0.5046  0.2395  0.1907
  694MOL0     O93602   7.284   2.987   6.352 -0.3095  0.6902 -1.0637
  694MOL0     C93603   7.022   3.022   6.312 -0.4272  0.0792  0.1989
  694MOL0     C93604   6.887   3.047   6.279  0.2757  0.4185  0.6301
  694MOL0     N93605   6.142   3.016   6.081 -0.1228 -0.0805 -0.7360
  694MOL0     N93606   6.036   3.063   6.134 -1.1098  0.2579  0.8532
  694MOL0     C93607   4.891   3.605   6.151  0.5034  0.2547 -0.7377
  694MOL0     C93608   4.750   3.630   6.161  0.2577 -0.2723  0.0662
  694MOL0     C93609   4.339   3.666   6.343  0.2579 -0.4900  0.8149
  694MOL0     C93610   4.284   3.718   6.459 -0.4378 -0.5190 -0.3660
  694MOL0     C93611   4.158   3.761   6.466  0.2255  0.0137 -0.5076
  694MOL0     C93612   4.071   3.782   6.354 -0.2298 -0.0793  0.1552
  694MOL0     O93613   3.942   3.839   6.363 -0.2156  0.3782 -0.2436
  694MOL0     C93614   3.902   3.909   6.484 -0.0382  0.3638  0.6151
  694MOL0     C93615   3.820   3.839   6.583  0.4491  0.0049 -0.9703
  694MOL0     C93616   3.776   3.946   6.688  0.8701 -0.6803 -0.1786
  694MOL0     C93617   3.709   3.883   6.807 -0.3629  0.6785 -0.1780
  694MOL0     C93618   3.650   3.981   6.905 -0.3149  0.3181  0.9670
  694MOL0     C93619   3.608   4.075   6.970  0.2157 -0.1689  0.3960
  694MOL0     C93620   4.130   3.747   6.232  0.0883 -0.1983 -0.9925
  694MOL0     C93621   4.261   3.686   6.227  0.7908  0.1793  0.5559
  694MOL0     C93622   4.318   3.673   6.088  0.1101 -0.1793  1.1186
  694MOL0     H93623   4.668   3.321   6.303 -0.9259 -0.4294 -2.9472
  694MOL0     H93624   4.914   3.302   6.291 -1.5295 -0.7474 -2.1329
  694MOL0     H93625   5.126   3.344   6.335 -1.2330  0.5924 -0.2587
  694MOL0     H93626   5.146   3.270   6.167  3.0217 -0.3334  0.4180
  694MOL0     H93627   5.319   3.455   6.314 -1.2007 -1.5646 -0.1372
  694MOL0     H93628   5.331   3.464   6.136  0.4852 -0.7469 -0.8212
  694MOL0     H93629   5.401   3.238   6.115 -0.5105 -0.3016 -0.0755
  694MOL0     H93630   5.356   3.205   6.282  0.4063  0.9510  1.5046
  694MOL0     H93631   5.577   3.412   6.240 -1.1816  2.4600  2.3140
  694MOL0     H93632   5.533   3.341   6.383  1.5435  2.8092  0.5125
  694MOL0     H93633   5.710   3.179   6.321 -3.6316  0.1417  2.8679
  694MOL0     H93634   5.573   3.098   6.246 -0.2651 -0.2081 -0.3680
  694MOL0     H93635   5.742   3.096   6.074  1.8578  1.1297 -2.1579
  694MOL0     H93636   5.612   3.205   6.036 -1.4661 -1.9834  0.9145
  694MOL0     H93637   5.759   3.404   6.080 -2.1561 -1.0331 -3.3783
  694MOL0     H93638   5.822   3.289   5.963  0.7074 -0.7562 -0.1180
  694MOL0     H93639   5.978   3.377   6.153 -0.2284  0.4211  0.1265
  694MOL0     H93640   5.903   3.241   6.245  3.7648  0.2442  0.7244
  694MOL0     H93641   6.127   3.321   5.958  0.6915  0.3324  0.4796
  694MOL0     H93642   6.316   2.995   5.867 -1.7786 -0.3564 -0.0310
  694MOL0     H93643   6.322   3.171   5.834 -2.1057  4.7658  3.3413
  694MOL0     H93644   6.422   3.206   6.049  0.0547 -0.3867  0.4344
  694MOL0     H93645   6.419   3.034   6.086  0.0784  0.3524 -0.3543
  694MOL0     H93646   6.556   3.188   5.854 -0.1858 -1.3999 -1.3326
  694MOL0     H93647   6.580   3.012   5.876 -1.1359  0.4336 -1.1651
  694MOL0     H93648   6.656   3.225   6.084  0.7097 -1.5433  3.4799
  694MOL0     H93649   6.775   3.171   5.978 -0.5637  1.8536  1.2394
  694MOL0     H93650   6.882   2.923   5.970 -3.1186  0.2657  1.6581
  694MOL0     H93651   7.129   2.895   6.012  1.5662  0.2808  1.8739
  694MOL0     H93652   7.514   2.963   6.367 -2.2223  0.3441 -2.3119
  694MOL0     H93653   7.749   2.965   6.350 -0.9590  1.7369 -0.4643
  694MOL0     H93654   8.055   2.852   6.276  0.3693  0.5018 -0.1778
  694MOL0     H93655   7.904   2.787   6.351 -1.1305  3.4406 -0.4415
  694MOL0     H93656   8.024   2.590   6.302 -3.5981 -0.3168  2.1474
  694MOL0     H93657   7.883   2.608   6.198 -0.0950  1.1152 -3.1998
  694MOL0     H93658   8.091   2.734   6.041  0.3250 -1.0838 -1.6907
  694MOL0     H93659   8.186   2.640   6.150 -0.8615  1.7793  0.8902
  694MOL0     H93660   7.979   2.547   5.960 -0.1635  3.9749 -1.0220
  694MOL0     H93661   8.070   2.426   6.053 -0.7466 -0.3974 -0.8691
  694MOL0     H93662   8.187   2.613   5.848  1.9704  0.0922 -0.3944
  694MOL0     H93663   8.164   2.434   5.835 -0.6643 -0.4928  0.9265
  694MOL0     H93664   8.405   2.493   5.886  0.1157  3.7109  1.3211
  694MOL0     H93665   8.352   2.572   6.025 -2.3015  0.4184  0.7796
  694MOL0     H93666   8.278   2.277   5.988 -1.8940  0.5521  2.5931
  694MOL0     H93667   8.280   2.365   6.135  1.3482 -1.5407  1.2830
  694MOL0     H93668   8.541   2.312   5.984  0.6893 -0.5138  0.9499
  694MOL0     H93669   8.527   2.399   6.138  1.2692 -1.7192  0.2420
  694MOL0     H93670   7.731   2.792   5.956  0.8045  0.1608  0.1050
  694MOL0     H93671   7.487   2.812   5.958  2.2504 -0.5704 -0.6922
  694MOL0     H93672   7.057   3.055   6.410 -0.0063  1.1837 -0.3057
  694MOL0     H93673   6.815   3.092   6.347 -0.5880  0.2491 -0.1534
  694MOL0     H93674   4.950   3.693   6.128 -2.1616  2.3440 -0.0275
  694MOL0     H93675   4.715   3.728   6.129  3.2601  0.8369 -0.1143
  694MOL0     H93676   4.324   3.722   6.559 -1.3358 -2.9225  0.1392
  694MOL0     H93677   4.121   3.780   6.567  0.9740  0.7035 -0.3437
  694MOL0     H93678   3.850   4.001   6.456  1.7957  0.4365 -3.3656
  694MOL0     H93679   3.997   3.949   6.520  0.2910  0.1249  0.0404
  694MOL0     H93680   3.886   3.769   6.634  0.0599 -0.5395 -1.2090
  694MOL0     H93681   3.733   3.792   6.537 -1.0604  5.0036 -3.9820
  694MOL0     H93682   3.705   4.016   6.642 -1.5543 -0.9273  2.8335
  694MOL0     H93683   3.864   3.997   6.729 -1.2664  2.8355  0.5383
  694MOL0     H93684   3.636   3.811   6.770  1.0630 -1.0208  0.1835
  694MOL0     H93685   3.785   3.816   6.849 -1.0180 -0.2137 -0.3875
  694MOL0     H93686   3.571   4.158   7.026  1.6375 -0.8995  2.5664
  694MOL0     H93687   4.084   3.769   6.136 -0.1607  1.1096 -0.6012
  694MOL0     H93688   4.326   3.568   6.059 -0.5253 -0.2781  1.2686
  694MOL0     H93689   4.244   3.721   6.024 -0.0745  2.0109  2.8718
  694MOL0     H93690   4.412   3.727   6.079 -1.1167  1.9804  0.5944
  695MOL0     O93691   8.470   1.263   0.295  0.2562  0.3138 -0.5000
  695MOL0     C93692   8.442   1.150   0.254 -0.4816 -0.6291 -0.4433
  695MOL0     O93693   8.510   1.028   0.288 -0.1246 -0.7706 -1.0448
  695MOL0     C93694   8.620   1.041   0.373 -0.1540 -0.3511  0.4001
  695MOL0     C93695   8.627   0.976   0.497 -0.3142 -0.0540  0.0948
  695MOL0     C93696   8.751   0.974   0.571 -0.0612  0.2482 -0.2747
  695MOL0     C93697   8.864   1.046   0.517  0.3513 -0.0184 -0.2111
  695MOL0     O93698   8.990   1.048   0.569 -0.0446  0.4263  0.7859
  695MOL0     C93699   9.014   0.931   0.644  0.7092 -0.5264  0.6180
  695MOL0     C93700   9.157   0.902   0.648  0.0840  0.5434 -0.2878
  695MOL0     C93701   9.232   1.025   0.726 -0.0624  0.6886 -0.0558
  695MOL0     C93702   9.364   0.974   0.768 -0.4402 -0.0758 -0.0701
  695MOL0     C93703   9.459   1.089   0.815  0.3620  0.2512  0.3704
  695MOL0     C93704   9.604   1.039   0.840 -0.5467 -0.3170 -0.1811
  695MOL0     C93705   9.698   1.153   0.899 -0.2289 -0.6682  0.7574
  695MOL0     C93706   9.835   1.098   0.931 -0.0641  0.0821  0.5038
  695MOL0     N93707   9.911   1.195   1.015  1.0700  0.0135  0.0096
  695MOL0     C93708  10.006   1.277   0.962  0.5491  0.2872  0.1881
  695MOL0     C93709  10.052   1.345   1.069 -0.3731  0.0783 -0.0578
  695MOL0     C93710  10.165   1.449   1.058 -0.5789 -0.6586  0.5630
  695MOL0     C93711  10.304   1.383   1.070  0.5272 -0.1255  0.3781
  695MOL0     C93712  10.412   1.499   1.088 -0.2712 -0.4430 -0.4481
  695MOL0     C93713  10.552   1.442   1.087 -0.3890 -0.1083 -0.7692
  695MOL0     O93714  10.651   1.546   1.085  0.1132  1.3918  0.6544
  695MOL0     C93715  10.779   1.500   1.070  0.1605 -0.0845  0.3798
  695MOL0     C93716  10.826   1.365   1.038  1.1692  0.4519  0.4647
  695MOL0     C93717  10.956   1.329   1.060  0.0763  0.1968 -0.7314
  695MOL0     C93718  11.048   1.419   1.096  1.0960 -0.9513  0.0230
  695MOL0     C93719  11.189   1.373   1.108  0.3282  0.7381  0.6275
  695MOL0     O93720  11.269   1.488   1.127 -0.2597  0.0352 -0.3390
  695MOL0     C93721  11.406   1.474   1.161 -0.3332 -0.1081 -0.4600
  695MOL0     C93722  11.482   1.592   1.148 -0.6723 -0.6453  0.0964
  695MOL0     C93723  11.618   1.588   1.131 -0.3297  0.8006 -0.0243
  695MOL0     C93724  11.690   1.475   1.153 -0.5542 -0.3304 -0.5459
  695MOL0     O93725  11.829   1.495   1.156  0.6607  0.3956  0.4644
  695MOL0     C93726  11.908   1.431   1.265  0.1904 -0.2133  0.7138
  695MOL0     C93727  12.029   1.524   1.288  0.4884  0.0961  0.6331
  695MOL0     C93728  11.986   1.660   1.352  0.5360 -0.0568  0.0724
  695MOL0     C93729  12.107   1.754   1.373  0.0288 -0.2587 -1.0369
  695MOL0     C93730  12.058   1.890   1.430 -0.0705  0.7575 -0.0939
  695MOL0     C93731  12.169   1.969   1.492  0.0308 -0.3069 -0.0281
  695MOL0     C93732  12.278   2.007   1.385  0.6982 -0.6365  0.2070
  695MOL0     C93733  12.386   2.094   1.436  0.1617 -0.3396 -0.4601
  695MOL0    Cl93734  12.473   2.012   1.574 -0.1206 -0.0536  0.2943
  695MOL0     C93735  11.628   1.363   1.196 -0.5208 -0.2330 -0.2945
  695MOL0     C93736  11.489   1.363   1.199  0.8623 -0.0770 -0.2896
  695MOL0     O93737  11.218   1.255   1.127  0.3815  0.0664  0.4547
  695MOL0     C93738  11.002   1.549   1.124  0.0711  0.4199 -1.4554
  695MOL0     C93739  10.873   1.593   1.119  1.1642  0.7415 -1.2225
  695MOL0     N93740   9.988   1.302   1.185 -0.1690 -0.2187 -1.4643
  695MOL0     N93741   9.892   1.219   1.153 -0.6829  0.4368  0.1812
  695MOL0     C93742   8.855   1.109   0.386 -0.0419 -0.0199  0.3946
  695MOL0     C93743   8.731   1.107   0.320 -0.9325 -0.8153 -0.0598
  695MOL0     C93744   8.326   1.138   0.162  0.6851  0.0280  0.2830
  695MOL0     C93745   8.259   1.021   0.175  0.5895 -0.4891 -0.2663
  695MOL0     C93746   8.143   0.985   0.100  0.2400  0.2931  0.0261
  695MOL0     C93747   8.096   1.087   0.014 -0.4656  0.4907  0.7965
  695MOL0     O93748   7.976   1.053  -0.045 -0.4852  0.1075  0.5201
  695MOL0     C93749   7.932   1.121  -0.164 -0.4491  0.5199 -0.3161
  695MOL0     C93750   7.779   1.105  -0.186 -0.5794 -0.1357  0.7264
  695MOL0     C93751   7.695   1.189  -0.090 -0.0613 -0.9579  0.7672
  695MOL0     C93752   7.557   1.197  -0.137  1.0365 -0.8346  0.0206
  695MOL0     C93753   7.487   1.068  -0.118 -0.9141 -0.1085 -0.3865
  695MOL0     C93754   7.427   0.963  -0.088  0.5102  0.5777 -0.2727
  695MOL0     C93755   8.169   1.208  -0.012  0.1864  0.0154  0.1267
  695MOL0     C93756   8.290   1.226   0.058 -0.8243  0.5658 -0.2831
  695MOL0     C93757   8.356   1.355   0.021 -0.9549  0.8330 -0.0131
  695MOL0     H93758   8.540   0.925   0.538 -2.2766  2.0777 -1.1752
  695MOL0     H93759   8.753   0.928   0.669  2.5691  2.4219  0.8305
  695MOL0     H93760   8.977   0.950   0.745  2.0326  0.7471  0.8993
  695MOL0     H93761   8.959   0.846   0.603  0.6244 -0.1110 -0.1599
  695MOL0     H93762   9.198   0.891   0.548  0.4188 -1.2148  0.0158
  695MOL0     H93763   9.176   0.815   0.711  1.6250  0.1941 -1.1781
  695MOL0     H93764   9.183   1.055   0.819  0.4160 -0.8749  0.7411
  695MOL0     H93765   9.243   1.111   0.659  0.9432  1.4553  1.0629
  695MOL0     H93766   9.353   0.922   0.864  0.0030  0.8199  0.4817
  695MOL0     H93767   9.418   0.909   0.697  2.8484  0.0456  2.0676
  695MOL0     H93768   9.466   1.160   0.732  2.4584 -0.6759 -0.2977
  695MOL0     H93769   9.419   1.127   0.910 -1.5859 -0.7243  0.0106
  695MOL0     H93770   9.597   0.962   0.917 -1.5947 -0.3399 -0.2714
  695MOL0     H93771   9.639   0.988   0.749 -2.2819 -0.4783 -0.8096
  695MOL0     H93772   9.636   1.195   0.978 -2.1244 -3.9173  1.1748
  695MOL0     H93773   9.707   1.227   0.819 -0.2518 -0.6574  0.7654
  695MOL0     H93774   9.815   1.006   0.987 -0.1051  0.0194  0.3890
  695MOL0     H93775   9.892   1.070   0.842  0.2802 -0.8498  0.9988
  695MOL0     H93776  10.019   1.294   0.855  0.9419  0.7844  0.3146
  695MOL0     H93777  10.165   1.496   0.959  0.2431  1.8558  1.6643
  695MOL0     H93778  10.152   1.532   1.129  1.1546  1.5639 -1.5444
  695MOL0     H93779  10.312   1.309   1.150  0.2024 -3.8516 -2.7426
  695MOL0     H93780  10.316   1.328   0.976 -1.2993 -1.3218  0.8073
  695MOL0     H93781  10.387   1.563   1.173  0.4811 -2.2438  1.1787
  695MOL0     H93782  10.419   1.565   1.000 -0.0757  0.5101  0.2709
  695MOL0     H93783  10.562   1.379   0.998  0.2495 -0.4428 -0.4708
  695MOL0     H93784  10.562   1.371   1.170 -0.2809 -0.8537 -1.4086
  695MOL0     H93785  10.760   1.287   1.004  0.9598  1.4160 -1.4968
  695MOL0     H93786  10.983   1.230   1.024 -1.1704  0.7988 -3.6158
  695MOL0     H93787  11.429   1.686   1.146 -0.5152 -0.5556  0.1935
  695MOL0     H93788  11.674   1.680   1.115  1.2609 -0.1845 -0.3573
  695MOL0     H93789  11.847   1.412   1.354 -1.9138  0.0330 -0.6007
  695MOL0     H93790  11.941   1.333   1.228  0.3211  0.7728 -2.0734
  695MOL0     H93791  12.096   1.473   1.357  2.5005  1.1846 -0.4318
  695MOL0     H93792  12.089   1.534   1.197  1.8569  3.8734  1.7599
  695MOL0     H93793  11.911   1.714   1.294 -1.3333  0.0690  2.4800
  695MOL0     H93794  11.934   1.639   1.446  1.5168  0.5439  0.7692
  695MOL0     H93795  12.174   1.769   1.288  0.7770  1.1960 -0.2465
  695MOL0     H93796  12.175   1.707   1.445 -0.3961  1.3032  0.4710
  695MOL0     H93797  11.982   1.874   1.507  1.9216  0.9426  2.0090
  695MOL0     H93798  12.006   1.943   1.349 -1.9617  0.7752  1.0633
  695MOL0     H93799  12.124   2.057   1.539 -1.9167 -2.2518  1.9888
  695MOL0     H93800  12.215   1.910   1.572 -1.7182  1.0850  2.1389
  695MOL0     H93801  12.227   2.048   1.298  0.8057 -4.0835 -1.6427
  695MOL0     H93802  12.338   1.920   1.358 -0.2253 -1.1483 -0.2548
  695MOL0     H93803  12.459   2.122   1.360  2.3812  0.0154  1.6608
  695MOL0     H93804  12.335   2.179   1.484  0.1691  1.6094 -3.6041
  695MOL0     H93805  11.696   1.285   1.231 -0.4445 -0.7303 -1.4857
  695MOL0     H93806  11.443   1.264   1.206 -1.2249  0.5822 -2.7773
  695MOL0     H93807  11.075   1.614   1.171 -3.0387  0.2443  4.5265
  695MOL0     H93808  10.838   1.695   1.136  1.4878  1.2120 -3.1662
  695MOL0     H93809   8.944   1.157   0.347  1.2574 -1.9088  0.8959
  695MOL0     H93810   8.729   1.152   0.221  1.4508 -2.0267 -0.7152
  695MOL0     H93811   8.289   0.959   0.259  4.0030  0.3332 -0.7059
  695MOL0     H93812   8.087   0.893   0.110  0.0354  0.5055  0.9062
  695MOL0     H93813   7.978   1.062  -0.244 -1.8979  1.9784 -2.3212
  695MOL0     H93814   7.960   1.226  -0.174 -0.3520  0.4905 -0.3475
  695MOL0     H93815   7.746   1.003  -0.166 -1.1275  0.0742  0.9085
  695MOL0     H93816   7.759   1.133  -0.290  2.0945  4.0504  1.0864
  695MOL0     H93817   7.744   1.287  -0.083 -0.1578 -0.4003 -3.8597
  695MOL0     H93818   7.701   1.153   0.014  1.0097  1.1551  1.5021
  695MOL0     H93819   7.509   1.276  -0.078  2.7829 -0.1132  0.5190
  695MOL0     H93820   7.548   1.226  -0.242 -2.8843 -0.6939  0.2372
  695MOL0     H93821   7.372   0.871  -0.085  2.9728 -1.0693 -1.8265
  695MOL0     H93822   8.131   1.280  -0.083  0.2139  1.0684  1.1429
  695MOL0     H93823   8.306   1.405  -0.062  1.4117  1.4762 -1.1532
  695MOL0     H93824   8.358   1.426   0.104 -0.4165 -0.8055  1.4432
  695MOL0     H93825   8.458   1.334  -0.014 -1.1647  0.2581 -0.2834
  696MOL0     O93826   9.535   9.050   7.443  0.5363 -0.1723  0.3235
  696MOL0     C93827   9.607   9.022   7.343 -0.4210  0.0942  0.5215
  696MOL0     O93828   9.578   8.914   7.261 -0.0216 -0.1817  0.6269
  696MOL0     C93829   9.456   8.853   7.236  0.3896  0.3262  0.3979
  696MOL0     C93830   9.347   8.934   7.217  0.7165 -0.2123  0.2328
  696MOL0     C93831   9.221   8.877   7.198 -0.2662 -0.5841 -0.4456
  696MOL0     C93832   9.211   8.739   7.188  0.3047 -0.1549  0.2212
  696MOL0     O93833   9.080   8.695   7.169 -0.3375 -0.0632 -0.0394
  696MOL0     C93834   9.061   8.588   7.074  0.1520 -0.4619  0.1895
  696MOL0     C93835   8.951   8.493   7.123  0.4326  0.3736  0.5880
  696MOL0     C93836   8.811   8.529   7.067 -0.2120 -0.8091 -0.8737
  696MOL0     C93837   8.702   8.438   7.123 -0.1759 -0.6435 -0.5103
  696MOL0     C93838   8.567   8.468   7.055 -0.6130 -0.1091  0.1104
  696MOL0     C93839   8.472   8.359   7.086  0.4004 -0.0842 -0.1877
  696MOL0     C93840   8.342   8.390   7.009  0.9566  0.1098 -0.8244
  696MOL0     C93841   8.222   8.332   7.086 -0.3079 -0.6886  0.3879
  696MOL0     N93842   8.200   8.187   7.047  0.2627  0.0292 -0.3124
  696MOL0     C93843   8.245   8.077   7.126  0.0266 -0.3712 -0.3603
  696MOL0     C93844   8.212   7.974   7.053  0.1336  0.1071  0.1171
  696MOL0     C93845   8.239   7.829   7.087  0.2298  0.2879 -0.3309
  696MOL0     C93846   8.388   7.797   7.077 -0.0592  0.0695 -0.1800
  696MOL0     C93847   8.440   7.653   7.101 -0.2340 -0.5360  0.2973
  696MOL0     C93848   8.594   7.634   7.097  0.1613  0.9770 -0.0688
  696MOL0     O93849   8.653   7.724   7.197  0.0427  0.6203  0.2118
  696MOL0     C93850   8.785   7.741   7.192  0.6598 -0.1431 -0.4889
  696MOL0     C93851   8.830   7.846   7.272 -0.0546  0.7307  0.5010
  696MOL0     C93852   8.962   7.888   7.274  0.2422 -0.5141  0.1001
  696MOL0     C93853   9.050   7.818   7.194 -0.5276 -0.9618  0.6474
  696MOL0     C93854   9.192   7.856   7.188 -0.3158 -0.6481 -0.0002
  696MOL0     O93855   9.228   7.979   7.232  0.9952 -0.2894  1.2709
  696MOL0     C93856   9.361   8.026   7.234 -0.0818 -0.0225 -0.0528
  696MOL0     C93857   9.397   8.127   7.325  1.1657 -0.2161 -0.9024
  696MOL0     C93858   9.521   8.184   7.317  0.3804 -0.1874  0.5576
  696MOL0     C93859   9.613   8.158   7.215 -0.6876  0.2503  0.0729
  696MOL0     O93860   9.732   8.224   7.197 -1.7985 -0.1983 -0.0135
  696MOL0     C93861   9.754   8.348   7.267  0.2029 -0.2312 -0.3669
  696MOL0     C93862   9.872   8.417   7.215  0.1958  0.6894 -0.1248
  696MOL0     C93863   9.909   8.532   7.299 -0.4551  0.0088  1.0480
  696MOL0     C93864   9.979   8.641   7.228 -0.4916 -0.8203  0.7132
  696MOL0     C93865  10.014   8.757   7.326 -0.0707  0.6908  0.8129
  696MOL0     C93866  10.116   8.705   7.434 -0.0188  0.2790 -0.8513
  696MOL0     C93867  10.166   8.837   7.493  0.2821 -0.5265 -0.1076
  696MOL0     C93868  10.233   8.825   7.628 -0.4397  0.7007 -0.6887
  696MOL0    Cl93869  10.370   8.709   7.636 -0.0427  0.0052  0.0258
  696MOL0     C93870   9.572   8.070   7.116 -0.1212  0.3198 -0.2523
  696MOL0     C93871   9.453   8.005   7.124  0.2837  0.1049 -0.8341
  696MOL0     O93872   9.265   7.772   7.142  0.0641 -1.0115  0.1896
  696MOL0     C93873   9.004   7.706   7.112  0.4132 -0.5509 -0.2537
  696MOL0     C93874   8.869   7.664   7.112 -0.2781 -0.5631  0.1948
  696MOL0     N93875   8.161   8.008   6.930 -0.3765 -0.3895  0.3752
  696MOL0     N93876   8.150   8.138   6.933 -0.2287  0.0777  0.6292
  696MOL0     C93877   9.328   8.658   7.206 -0.0137  0.3299 -0.1888
  696MOL0     C93878   9.449   8.717   7.224  0.1229 -0.5295  0.3073
  696MOL0     C93879   9.743   9.089   7.326 -0.8600  0.3713 -0.2919
  696MOL0     C93880   9.791   9.181   7.425 -0.4012 -0.1514 -0.2373
  696MOL0     C93881   9.908   9.247   7.417 -0.6265  0.3937  0.0616
  696MOL0     C93882   9.994   9.215   7.313  0.7780  0.1773  0.0211
  696MOL0     O93883  10.113   9.273   7.293  0.2077 -0.2597  1.2050
  696MOL0     C93884  10.162   9.371   7.377 -0.3429 -0.2666  0.2568
  696MOL0     C93885  10.295   9.427   7.316  0.1805  0.5443 -0.6327
  696MOL0     C93886  10.374   9.495   7.423  0.4471  0.3317 -0.2159
  696MOL0     C93887  10.516   9.518   7.374 -0.1024 -0.0235 -0.2103
  696MOL0     C93888  10.572   9.608   7.478  0.0218 -0.1627 -0.2139
  696MOL0     C93889  10.622   9.678   7.562 -0.4627 -0.1925 -0.0256
  696MOL0     C93890   9.956   9.121   7.216 -0.0417  0.7857 -0.1346
  696MOL0     C93891   9.831   9.063   7.221  0.0200 -0.4078 -0.2864
  696MOL0     C93892   9.808   8.950   7.118  0.5023 -0.1323 -0.7115
  696MOL0     H93893   9.370   9.040   7.230  1.7590 -0.5229  1.0619
  696MOL0     H93894   9.133   8.942   7.198  0.9093  1.0985 -1.0400
  696MOL0     H93895   9.030   8.630   6.978 -1.2387  0.0397  0.8269
  696MOL0     H93896   9.151   8.529   7.054 -0.7232 -1.9407  0.4617
  696MOL0     H93897   8.953   8.498   7.232  2.0132  1.6735  0.5389
  696MOL0     H93898   8.977   8.393   7.085  0.4483 -0.2490  2.1558
  696MOL0     H93899   8.805   8.509   6.960 -0.4327 -1.9324 -0.6736
  696MOL0     H93900   8.791   8.632   7.095 -1.2057 -1.4073  0.7809
  696MOL0     H93901   8.740   8.337   7.106  0.5568 -0.8266  1.9337
  696MOL0     H93902   8.678   8.452   7.229  3.2554  1.4962  0.1600
  696MOL0     H93903   8.528   8.566   7.085 -1.1131 -1.1027  2.9622
  696MOL0     H93904   8.582   8.458   6.947  0.8749 -3.5735  0.4886
  696MOL0     H93905   8.514   8.258   7.071 -0.6920 -0.3459 -1.5852
  696MOL0     H93906   8.439   8.370   7.190 -1.7859  2.2090 -1.0548
  696MOL0     H93907   8.354   8.354   6.906  0.5218  0.1765 -0.8975
  696MOL0     H93908   8.325   8.497   6.995  0.5201 -0.1578 -2.5902
  696MOL0     H93909   8.229   8.352   7.193  2.4484 -0.8290  0.3108
  696MOL0     H93910   8.146   8.395   7.040  0.0109 -0.6250 -0.0627
  696MOL0     H93911   8.297   8.062   7.220 -0.3800 -0.9393 -0.2183
  696MOL0     H93912   8.201   7.815   7.189  0.9435 -1.2356 -0.2619
  696MOL0     H93913   8.189   7.763   7.016  2.7386  1.4255 -3.3805
  696MOL0     H93914   8.412   7.820   6.973 -2.7161  1.4938 -0.5784
  696MOL0     H93915   8.440   7.863   7.146  1.4607 -0.4198 -0.8274
  696MOL0     H93916   8.393   7.588   7.027 -1.7963  1.8673 -0.9378
  696MOL0     H93917   8.415   7.622   7.203  0.4149  0.2024  0.6934
  696MOL0     H93918   8.632   7.647   6.995 -1.6939 -0.5625 -1.0278
  696MOL0     H93919   8.614   7.530   7.123  0.7258  0.5113 -2.1908
  696MOL0     H93920   8.749   7.902   7.318  0.0153  0.0960  1.4204
  696MOL0     H93921   8.990   7.973   7.335 -2.8419  1.6133 -1.1751
  696MOL0     H93922   9.332   8.157   7.407 -0.2415 -0.0624 -2.0224
  696MOL0     H93923   9.551   8.259   7.389  1.4551 -0.1697  0.0976
  696MOL0     H93924   9.660   8.405   7.271  1.0366  1.0948  1.9231
  696MOL0     H93925   9.778   8.329   7.372 -2.4253  0.6778  0.4904
  696MOL0     H93926   9.959   8.351   7.213 -0.9835 -1.1101  2.2064
  696MOL0     H93927   9.864   8.450   7.111  1.4063 -1.1636 -0.8462
  696MOL0     H93928   9.815   8.569   7.341 -2.1870 -2.1243 -0.6960
  696MOL0     H93929   9.969   8.499   7.384  1.0255 -0.0790  0.0091
  696MOL0     H93930   9.915   8.682   7.149 -1.4854 -3.3398  0.0987
  696MOL0     H93931  10.071   8.604   7.182  0.2345  1.1777  0.4791
  696MOL0     H93932   9.921   8.799   7.365 -1.0851 -0.8010  0.1110
  696MOL0     H93933  10.063   8.834   7.265  2.3107 -1.9079 -0.8243
  696MOL0     H93934  10.071   8.654   7.520  0.2696  2.8071  0.8807
  696MOL0     H93935  10.190   8.639   7.387 -1.1130 -3.0565  1.6675
  696MOL0     H93936  10.081   8.901   7.517  1.3950 -0.2741  3.8853
  696MOL0     H93937  10.227   8.891   7.420 -1.7586  1.8694 -0.1635
  696MOL0     H93938  10.265   8.926   7.655 -0.0873  0.7819 -1.3844
  696MOL0     H93939  10.160   8.794   7.703  1.0043  3.4449  2.0519
  696MOL0     H93940   9.644   8.061   7.035  2.0264  1.4498  1.4358
  696MOL0     H93941   9.423   7.938   7.044  2.2001 -2.6089  0.5349
  696MOL0     H93942   9.069   7.638   7.058  0.2320 -1.3942  0.5569
  696MOL0     H93943   8.840   7.576   7.055  0.4508 -1.7427  1.5981
  696MOL0     H93944   9.309   8.554   7.229 -0.1023  0.5744  0.9308
  696MOL0     H93945   9.537   8.657   7.245  1.0999  1.0497  0.9025
  696MOL0     H93946   9.730   9.209   7.510  1.2651  1.6435  0.4481
  696MOL0     H93947   9.934   9.313   7.500  0.2075 -0.1533  0.2414
  696MOL0     H93948  10.186   9.325   7.472 -0.7118  0.0032  0.4847
  696MOL0     H93949  10.089   9.451   7.392 -0.5366 -0.4674  0.3761
  696MOL0     H93950  10.285   9.496   7.232  1.1354 -1.2166 -2.2609
  696MOL0     H93951  10.351   9.345   7.270  0.7016  0.5615 -0.0494
  696MOL0     H93952  10.366   9.440   7.517 -2.5943 -2.0237 -1.6910
  696MOL0     H93953  10.324   9.591   7.441  0.6344  0.2030  1.0987
  696MOL0     H93954  10.570   9.423   7.370 -0.1478 -0.2093  2.0605
  696MOL0     H93955  10.516   9.576   7.282 -1.4029  2.1786  1.0856
  696MOL0     H93956  10.668   9.742   7.635 -0.9715  0.5664 -0.3581
  696MOL0     H93957  10.031   9.106   7.140  0.1518  0.9419  0.0236
  696MOL0     H93958   9.745   8.992   7.040 -1.5479 -0.4001  0.7255
  696MOL0     H93959   9.905   8.928   7.073  0.0566 -3.5514 -0.2831
  696MOL0     H93960   9.758   8.860   7.156 -0.3349  1.2828  1.7650
  697MOL0     O93961   2.374   1.481   0.449  0.8221 -0.5481  0.3209
  697MOL0     C93962   2.350   1.497   0.574  0.3263  0.5337  0.3931
  697MOL0     O93963   2.434   1.465   0.681  0.3541  0.1596  0.2556
  697MOL0     C93964   2.551   1.420   0.624 -0.3141  0.4609 -0.0914
  697MOL0     C93965   2.658   1.508   0.625 -0.7653 -0.0738  0.1163
  697MOL0     C93966   2.788   1.470   0.587  0.1960 -0.9074  0.1191
  697MOL0     C93967   2.806   1.339   0.536  0.9471 -0.2358 -0.2753
  697MOL0     O93968   2.933   1.307   0.500 -0.3995  0.0883 -0.8923
  697MOL0     C93969   3.019   1.396   0.431  0.0431 -0.0470  0.0089
  697MOL0     C93970   3.138   1.324   0.356  0.7797  0.2410  0.7156
  697MOL0     C93971   3.259   1.415   0.345  0.2799 -0.1876 -0.0505
  697MOL0     C93972   3.384   1.345   0.291  0.1923  0.3476  0.1190
  697MOL0     C93973   3.505   1.438   0.295 -0.6055  0.6039 -0.1355
  697MOL0     C93974   3.645   1.358   0.256  0.2021 -0.1882 -0.4676
  697MOL0     C93975   3.771   1.432   0.283  1.0963  0.4794 -0.1689
  697MOL0     C93976   3.784   1.564   0.206 -0.0180  0.6511 -1.0648
  697MOL0     N93977   3.915   1.635   0.242 -0.3409  1.0540 -0.4822
  697MOL0     C93978   4.041   1.587   0.207  0.8727 -0.2424 -0.2568
  697MOL0     C93979   4.121   1.698   0.221  0.0485 -0.9477  0.1774
  697MOL0     C93980   4.260   1.711   0.190 -0.7714 -0.2404  0.9072
  697MOL0     C93981   4.297   1.672   0.050 -0.7752  0.1368 -0.8871
  697MOL0     C93982   4.212   1.738  -0.066 -0.8865 -0.0497  0.3480
  697MOL0     C93983   4.199   1.894  -0.056  0.3671 -1.0350 -0.1387
  697MOL0     O93984   4.096   1.934  -0.149  0.0576  0.4337  0.1451
  697MOL0     C93985   3.965   1.912  -0.109  0.7425 -0.9436 -0.2872
  697MOL0     C93986   3.907   2.008  -0.021 -0.0245  0.0111 -0.0191
  697MOL0     C93987   3.775   1.981   0.022  0.3039 -0.3444 -0.6907
  697MOL0     C93988   3.694   1.879  -0.027 -0.0736 -0.1430 -0.3107
  697MOL0     C93989   3.566   1.851   0.039 -0.5530  1.0125 -0.0664
  697MOL0     O93990   3.527   1.924   0.150  0.4271 -0.3680  0.0746
  697MOL0     C93991   3.418   1.900   0.223  0.0571  0.3364  0.9492
  697MOL0     C93992   3.379   1.999   0.310 -0.0859 -0.1045 -0.8058
  697MOL0     C93993   3.273   1.989   0.393  0.2392  0.2657 -0.2650
  697MOL0     C93994   3.173   1.886   0.381  0.1310  0.6151 -0.5657
  697MOL0     O93995   3.050   1.876   0.448 -0.4304 -0.1054  0.3759
  697MOL0     C93996   3.022   1.991   0.530 -0.3354 -0.4548 -0.9694
  697MOL0     C93997   2.887   1.962   0.602 -0.7349 -1.0706 -0.3102
  697MOL0     C93998   2.783   1.899   0.514  0.5429  0.1448 -0.8566
  697MOL0     C93999   2.651   1.894   0.581 -0.5776  0.3951 -0.6800
  697MOL0     C94000   2.545   1.842   0.483 -0.1817  0.0061 -0.8872
  697MOL0     C94001   2.410   1.874   0.551 -1.0811 -0.4943  0.1374
  697MOL0     C94002   2.304   1.872   0.444  0.4718  0.8428  0.1972
  697MOL0     C94003   2.297   2.009   0.362 -0.0878  0.0645 -0.0576
  697MOL0    Cl94004   2.236   2.141   0.458  0.5217 -0.2676 -0.4406
  697MOL0     C94005   3.208   1.781   0.291 -0.1799  0.0294  1.1246
  697MOL0     C94006   3.322   1.787   0.211 -0.6589 -1.1519 -1.1397
  697MOL0     O94007   3.499   1.763  -0.012  0.4789 -0.0927  0.4622
  697MOL0     C94008   3.752   1.799  -0.120 -0.0213 -0.1363  0.4373
  697MOL0     C94009   3.882   1.814  -0.161  0.6632  0.7177 -0.2036
  697MOL0     N94010   4.049   1.791   0.294 -0.2894  0.8303 -0.0137
  697MOL0     N94011   3.930   1.754   0.304  0.2040  0.3740 -0.5884
  697MOL0     C94012   2.699   1.254   0.533  0.0392 -0.0992 -0.6227
  697MOL0     C94013   2.577   1.294   0.575  0.3497  0.0920  0.1234
  697MOL0     C94014   2.215   1.555   0.616 -0.3648  0.6366  0.0325
  697MOL0     C94015   2.204   1.589   0.754 -0.2264  0.0015 -0.3747
  697MOL0     C94016   2.088   1.638   0.802  0.0161 -0.2516  0.6283
  697MOL0     C94017   1.971   1.638   0.724  0.5382 -0.3684  0.3812
  697MOL0     O94018   1.851   1.670   0.766  0.3849 -0.2715 -0.1060
  697MOL0     C94019   1.831   1.779   0.864  0.5589 -0.2120  0.3686
  697MOL0     C94020   1.894   1.912   0.827  0.3682 -0.2410  0.8792
  697MOL0     C94021   1.866   1.955   0.675  0.1235  0.9039 -0.5644
  697MOL0     C94022   1.965   2.062   0.627  1.1151 -0.5155 -0.0209
  697MOL0     C94023   1.902   2.152   0.528  0.1961  0.3399 -0.5870
  697MOL0     C94024   1.853   2.226   0.452  0.8232 -0.0065  0.1952
  697MOL0     C94025   1.981   1.608   0.591 -0.2625  0.2473  0.2806
  697MOL0     C94026   2.103   1.573   0.529  0.5979 -0.3224 -0.0990
  697MOL0     C94027   2.103   1.550   0.382  0.4725 -0.0093 -0.7875
  697MOL0     H94028   2.655   1.607   0.670 -0.6016 -0.4809  1.0507
  697MOL0     H94029   2.872   1.538   0.594  1.5910 -2.6751  1.6824
  697MOL0     H94030   2.968   1.446   0.347 -2.1505 -1.7030  0.2625
  697MOL0     H94031   3.067   1.465   0.501 -1.3064  1.0690 -0.1165
  697MOL0     H94032   3.106   1.289   0.257 -4.1261  3.6132  0.7584
  697MOL0     H94033   3.163   1.237   0.418 -0.4229 -0.7139 -0.0755
  697MOL0     H94034   3.281   1.479   0.431 -0.1604  0.1699 -0.2008
  697MOL0     H94035   3.241   1.487   0.264  0.0782 -2.2003 -1.8767
  697MOL0     H94036   3.399   1.245   0.333  2.4333  0.0123 -1.2860
  697MOL0     H94037   3.365   1.324   0.185  0.4398  2.1525 -0.3039
  697MOL0     H94038   3.493   1.519   0.223  0.1323  0.7926 -0.0539
  697MOL0     H94039   3.519   1.495   0.386 -1.4315  2.2606 -1.0009
  697MOL0     H94040   3.642   1.273   0.325  3.5818  0.1079  0.2196
  697MOL0     H94041   3.648   1.317   0.155  1.5804 -1.6024  0.0958
  697MOL0     H94042   3.852   1.364   0.254  0.2054  0.3988 -2.7319
  697MOL0     H94043   3.769   1.448   0.391 -2.7011  0.7271 -0.1537
  697MOL0     H94044   3.778   1.551   0.097 -0.7248 -1.2461 -0.8348
  697MOL0     H94045   3.703   1.631   0.235 -1.5863  0.7564 -5.0668
  697MOL0     H94046   4.071   1.488   0.175  1.3994  0.1499 -1.0167
  697MOL0     H94047   4.295   1.814   0.202 -0.1298 -0.4246  0.6399
  697MOL0     H94048   4.323   1.651   0.256  2.2307  0.4082 -1.1346
  697MOL0     H94049   4.400   1.706   0.062 -0.2734 -2.1815  4.0313
  697MOL0     H94050   4.296   1.563   0.039  1.9907  0.0761 -1.2772
  697MOL0     H94051   4.113   1.692  -0.056 -0.6585 -0.4933  0.5762
  697MOL0     H94052   4.259   1.707  -0.160 -0.1706  2.2771 -0.1273
  697MOL0     H94053   4.294   1.947  -0.068 -0.6271  0.9231  0.2369
  697MOL0     H94054   4.167   1.919   0.045 -1.3936 -2.3652 -0.3159
  697MOL0     H94055   3.946   2.100   0.023 -0.5150  0.5554 -0.6930
  697MOL0     H94056   3.729   2.043   0.098  0.2959 -0.6186 -0.4705
  697MOL0     H94057   3.444   2.086   0.314 -1.4198  0.9456 -1.0405
  697MOL0     H94058   3.247   2.077   0.451 -2.4724  0.0355 -1.0291
  697MOL0     H94059   3.102   1.997   0.605 -0.8332  1.2672 -0.5451
  697MOL0     H94060   3.017   2.082   0.471 -0.9856  0.3805  0.3264
  697MOL0     H94061   2.907   1.897   0.688  1.0236 -2.1890 -1.5081
  697MOL0     H94062   2.849   2.058   0.638 -1.4574 -0.5975 -2.2157
  697MOL0     H94063   2.771   1.947   0.417 -1.3757 -1.3133 -1.3946
  697MOL0     H94064   2.825   1.800   0.491  0.0840 -0.6545  1.5195
  697MOL0     H94065   2.625   1.994   0.616  2.1918  1.0111 -0.1958
  697MOL0     H94066   2.653   1.828   0.668  1.5666 -2.1960 -2.5575
  697MOL0     H94067   2.555   1.734   0.466  0.0661 -0.0438 -0.4619
  697MOL0     H94068   2.556   1.891   0.386  2.7236 -1.5719 -1.5009
  697MOL0     H94069   2.384   1.804   0.631 -0.8124 -1.3180 -0.4809
  697MOL0     H94070   2.410   1.970   0.603 -2.9066 -1.4968  2.1116
  697MOL0     H94071   2.201   1.858   0.479  0.5532  1.9311  0.9135
  697MOL0     H94072   2.336   1.794   0.374  1.4398 -0.9787  2.5311
  697MOL0     H94073   2.393   2.036   0.316  1.5073 -1.3864  2.2234
  697MOL0     H94074   2.228   2.001   0.277 -0.1709 -0.3879  0.0512
  697MOL0     H94075   3.148   1.692   0.277  0.9642 -0.4601 -1.1546
  697MOL0     H94076   3.336   1.691   0.162 -0.2740 -1.8731  0.3192
  697MOL0     H94077   3.696   1.720  -0.167 -0.0420  1.3247 -2.1484
  697MOL0     H94078   3.941   1.748  -0.223  2.4876  2.0840 -0.0230
  697MOL0     H94079   2.717   1.150   0.507  0.9232  0.1894 -1.2500
  697MOL0     H94080   2.494   1.223   0.576 -1.5153  2.1755 -0.1230
  697MOL0     H94081   2.296   1.588   0.811  1.1667  0.5434 -2.5042
  697MOL0     H94082   2.086   1.671   0.906 -0.4229  0.1192  0.5069
  697MOL0     H94083   1.860   1.742   0.962 -1.5578 -2.2465  0.3044
  697MOL0     H94084   1.723   1.797   0.874  1.0539  2.0624  2.8428
  697MOL0     H94085   2.001   1.907   0.851  0.6105 -2.5583 -0.3476
  697MOL0     H94086   1.855   1.991   0.891  1.3023  0.7480  0.2570
  697MOL0     H94087   1.762   1.987   0.673 -1.0108 -2.4635  0.0498
  697MOL0     H94088   1.874   1.873   0.603 -0.5748  0.0610  0.2958
  697MOL0     H94089   1.999   2.126   0.710  6.0190 -0.7231 -1.5288
  697MOL0     H94090   2.057   2.015   0.592  0.4649 -0.1522 -2.3758
  697MOL0     H94091   1.807   2.290   0.380 -0.4658 -1.2349 -0.1070
  697MOL0     H94092   1.891   1.609   0.531  0.2328  2.0202 -0.5184
  697MOL0     H94093   2.123   1.445   0.358 -0.2680 -0.4268  0.3579
  697MOL0     H94094   2.010   1.578   0.332  0.6667  1.3791 -0.4355
  697MOL0     H94095   2.180   1.617   0.340 -2.3229  3.1284 -1.3150
  698MOL0     O94096  10.558  11.037   3.108 -0.0028 -0.3641 -0.5292
  698MOL0     C94097  10.465  10.992   3.181 -0.8445  0.6034 -0.0127
  698MOL0     O94098  10.479  10.938   3.314  0.1922  0.0339  0.5305
  698MOL0     C94099  10.607  10.923   3.359 -0.2474 -0.0067 -1.0500
  698MOL0     C94100  10.652  10.802   3.402  0.0824 -0.4250 -0.2848
  698MOL0     C94101  10.788  10.777   3.432  0.3597 -0.7255 -0.5524
  698MOL0     C94102  10.878  10.882   3.431 -0.5327  0.1737 -0.0511
  698MOL0     O94103  11.008  10.847   3.451  0.3736 -0.0071 -0.3134
  698MOL0     C94104  11.111  10.945   3.441 -0.2981 -0.3663 -0.1156
  698MOL0     C94105  11.244  10.884   3.482 -0.2931  0.4210 -0.0809
  698MOL0     C94106  11.344  10.997   3.508 -0.1813 -0.4668  0.3392
  698MOL0     C94107  11.482  10.939   3.538 -0.1845  0.2183 -0.3120
  698MOL0     C94108  11.585  11.052   3.549  0.3908 -0.1764 -0.2304
  698MOL0     C94109  11.707  10.990   3.599  0.3660 -0.0763  0.2657
  698MOL0     C94110  11.810  11.098   3.613  0.0864 -0.2381 -0.2617
  698MOL0     C94111  11.948  11.050   3.660  0.1880 -0.4384  0.9618
  698MOL0     N94112  12.050  11.163   3.661 -0.6979  0.6978 -0.0121
  698MOL0     C94113  12.135  11.193   3.558 -0.1188 -0.5667  0.3661
  698MOL0     C94114  12.236  11.266   3.615 -0.5044 -0.4348 -0.2918
  698MOL0     C94115  12.347  11.322   3.538  0.7756  0.2228  0.8010
  698MOL0     C94116  12.367  11.475   3.557  0.1892  0.4663 -0.2938
  698MOL0     C94117  12.441  11.539   3.449 -0.0286 -0.4421  0.9062
  698MOL0     C94118  12.393  11.683   3.408  0.0749 -0.2779 -0.1670
  698MOL0     O94119  12.421  11.756   3.532  0.1591  0.5837  0.0721
  698MOL0     C94120  12.551  11.809   3.548  0.8577 -0.1958  0.2428
  698MOL0     C94121  12.568  11.879   3.670  0.1662 -0.8047  0.1143
  698MOL0     C94122  12.696  11.921   3.710  0.1931  0.3931 -0.7699
  698MOL0     C94123  12.802  11.913   3.632 -1.5252 -0.0812  0.6570
  698MOL0     C94124  12.937  11.958   3.680 -1.0052  0.2115  0.7795
  698MOL0     O94125  12.950  12.002   3.809 -0.3468  0.3863  0.4271
  698MOL0     C94126  13.069  12.046   3.859 -0.6393  0.6424  0.3269
  698MOL0     C94127  13.155  11.960   3.925 -0.2575 -0.1979 -0.7567
  698MOL0     C94128  13.281  12.014   3.970 -0.0043 -1.3459  0.2550
  698MOL0     C94129  13.316  12.143   3.935 -0.0938 -0.4240  0.2599
  698MOL0     O94130  13.438  12.207   3.957  0.3975 -0.4219 -0.4307
  698MOL0     C94131  13.551  12.124   3.968  0.2450  0.1989 -0.2061
  698MOL0     C94132  13.660  12.214   3.906 -0.0343  0.0091 -1.2151
  698MOL0     C94133  13.794  12.129   3.888 -0.0475 -0.7939  0.3578
  698MOL0     C94134  13.925  12.230   3.868  0.4956 -0.3329  0.5227
  698MOL0     C94135  13.920  12.289   3.720 -0.4404  0.2741 -0.2698
  698MOL0     C94136  14.033  12.379   3.687 -0.6744 -0.9247  0.0770
  698MOL0     C94137  14.015  12.443   3.546  0.9029  0.3965 -0.7912
  698MOL0     C94138  14.138  12.511   3.496 -0.0973  0.3063  0.0834
  698MOL0    Cl94139  14.281  12.397   3.487  0.5085  0.0156  0.0583
  698MOL0     C94140  13.216  12.224   3.881 -0.0183 -0.4190  0.2231
  698MOL0     C94141  13.097  12.180   3.836 -0.0342 -0.4446 -0.6675
  698MOL0     O94142  13.023  11.971   3.586 -0.3784 -0.1929 -0.5167
  698MOL0     C94143  12.790  11.839   3.505  0.3219 -0.5391 -0.6021
  698MOL0     C94144  12.664  11.790   3.469 -0.0521  1.3836 -0.1989
  698MOL0     N94145  12.204  11.287   3.741 -0.6476 -0.3058 -0.1471
  698MOL0     N94146  12.096  11.219   3.775  1.1598 -0.2421  0.0603
  698MOL0     C94147  10.830  11.005   3.393 -0.7895 -0.2086  0.2129
  698MOL0     C94148  10.699  11.028   3.362 -0.7976 -0.3602  0.3769
  698MOL0     C94149  10.323  11.015   3.146 -0.0403  0.0313 -0.5578
  698MOL0     C94150  10.293  11.117   3.045 -0.6577  0.6125  0.5447
  698MOL0     C94151  10.160  11.147   3.001 -0.8073 -0.0155  0.2859
  698MOL0     C94152  10.045  11.085   3.064 -0.1516  1.0644  0.4853
  698MOL0     O94153   9.920  11.110   3.016  0.6183  0.0543 -0.6966
  698MOL0     C94154   9.826  11.004   3.019 -0.6801 -0.0624 -0.0888
  698MOL0     C94155   9.725  11.049   2.926  0.3210  0.2052  0.6574
  698MOL0     C94156   9.595  10.961   2.921  0.2663  0.8747 -0.0900
  698MOL0     C94157   9.481  11.021   2.996  0.4298  0.6505  0.9048
  698MOL0     C94158   9.371  10.921   2.992  0.2151  0.7055  1.0398
  698MOL0     C94159   9.268  10.853   2.991  0.3100 -0.1650 -0.3205
  698MOL0     C94160  10.077  10.991   3.167 -0.9362 -0.4871 -0.4514
  698MOL0     C94161  10.211  10.952   3.206 -0.8540 -0.3584 -0.1680
  698MOL0     C94162  10.223  10.854   3.312 -0.6851  0.0108  0.1645
  698MOL0     H94163  10.589  10.713   3.406 -1.4320  0.6257  0.1436
  698MOL0     H94164  10.812  10.674   3.459 -3.5170 -1.2729  1.4935
  698MOL0     H94165  11.117  10.980   3.337  1.0153  0.4445  0.2082
  698MOL0     H94166  11.085  11.033   3.500 -0.6579  0.2253 -1.1246
  698MOL0     H94167  11.287  10.812   3.411  0.5672 -1.4625  2.2359
  698MOL0     H94168  11.230  10.836   3.579 -0.0998  0.4404 -0.0446
  698MOL0     H94169  11.318  11.056   3.596  1.7292  1.4693 -0.3124
  698MOL0     H94170  11.341  11.071   3.428 -3.4203 -0.9278 -0.1347
  698MOL0     H94171  11.491  10.873   3.625  1.4898  1.7148  0.7314
  698MOL0     H94172  11.507  10.889   3.444 -1.2637  1.1416 -1.1138
  698MOL0     H94173  11.606  11.107   3.457 -0.4469  1.6280  0.6101
  698MOL0     H94174  11.549  11.128   3.619  1.8685  0.5875 -0.2628
  698MOL0     H94175  11.695  10.937   3.694  0.6452 -0.0700  0.3031
  698MOL0     H94176  11.741  10.912   3.530 -0.7516 -0.5707  0.2415
  698MOL0     H94177  11.786  11.166   3.695 -1.2408 -2.0849  0.9713
  698MOL0     H94178  11.807  11.152   3.518 -0.5368  0.2850  0.0471
  698MOL0     H94179  11.939  11.014   3.763 -0.3370  0.9423  1.4294
  698MOL0     H94180  11.968  10.967   3.592 -3.8650  0.3512 -1.5862
  698MOL0     H94181  12.128  11.148   3.459 -2.9504 -0.2738  0.3585
  698MOL0     H94182  12.439  11.271   3.568  0.5131  0.1102  1.4179
  698MOL0     H94183  12.323  11.303   3.433 -0.6356 -1.7265  1.4071
  698MOL0     H94184  12.265  11.513   3.567  0.6109  1.0952  2.6806
  698MOL0     H94185  12.416  11.491   3.654  2.1032  1.2739 -1.3448
  698MOL0     H94186  12.431  11.473   3.362  0.1054 -0.7386  1.1141
  698MOL0     H94187  12.545  11.541   3.485 -0.4701 -0.3887  2.2252
  698MOL0     H94188  12.289  11.679   3.373  0.3254  2.6828 -1.5460
  698MOL0     H94189  12.448  11.715   3.319 -0.3252 -0.6485 -0.5530
  698MOL0     H94190  12.489  11.885   3.745 -1.1589 -0.9782 -1.2232
  698MOL0     H94191  12.703  11.967   3.808  0.6398  1.4901 -1.2878
  698MOL0     H94192  13.124  11.857   3.939  0.4996 -0.0812  2.8300
  698MOL0     H94193  13.352  11.948   4.019  1.2739  0.2927  0.6907
  698MOL0     H94194  13.581  12.089   4.068 -0.8267  0.4766  0.2227
  698MOL0     H94195  13.540  12.036   3.904 -0.6040  0.0158  0.1771
  698MOL0     H94196  13.624  12.245   3.808 -2.2297 -1.0439 -0.7965
  698MOL0     H94197  13.674  12.302   3.969  2.8962 -0.3406 -1.2253
  698MOL0     H94198  13.824  12.073   3.978  0.5748 -0.3762  0.4225
  698MOL0     H94199  13.791  12.060   3.804  2.7131  2.8423 -3.0926
  698MOL0     H94200  14.014  12.171   3.892  2.1165  1.2074 -1.2409
  698MOL0     H94201  13.923  12.318   3.933 -0.2442 -0.2106  0.3393
  698MOL0     H94202  13.825  12.343   3.715 -0.6031 -0.0193 -0.4103
  698MOL0     H94203  13.915  12.213   3.641  0.0503  0.4242 -0.4465
  698MOL0     H94204  14.054  12.461   3.757 -0.5756  0.2657 -1.2801
  698MOL0     H94205  14.125  12.320   3.681  0.9845  1.5906 -2.7996
  698MOL0     H94206  13.928  12.509   3.548  2.9077  3.4066 -2.8745
  698MOL0     H94207  13.997  12.369   3.467  3.8424 -0.2732 -0.9633
  698MOL0     H94208  14.120  12.545   3.394 -0.3350 -1.3093 -0.4506
  698MOL0     H94209  14.165  12.589   3.568  2.3008  0.5583 -0.9881
  698MOL0     H94210  13.242  12.330   3.876  3.8119 -1.2177  0.0695
  698MOL0     H94211  13.016  12.244   3.803  0.8747  1.3026  0.3613
  698MOL0     H94212  12.872  11.822   3.436 -1.4922 -4.4655 -2.1307
  698MOL0     H94213  12.650  11.733   3.378  0.9169 -1.9500  1.5441
  698MOL0     H94214  10.884  11.099   3.393 -1.1754  0.0880  2.9388
  698MOL0     H94215  10.668  11.130   3.339 -1.2203 -1.2865 -4.0326
  698MOL0     H94216  10.371  11.176   2.998  0.0367 -0.0503  0.8486
  698MOL0     H94217  10.159  11.215   2.916 -0.2140  0.3796  0.5847
  698MOL0     H94218   9.783  10.997   3.120  1.9683  3.4011  1.4460
  698MOL0     H94219   9.858  10.905   2.986 -1.2448  0.5826 -2.7770
  698MOL0     H94220   9.770  11.057   2.827  2.1861 -1.6403  1.2930
  698MOL0     H94221   9.700  11.152   2.953  0.4388  0.6032 -0.6995
  698MOL0     H94222   9.607  10.857   2.953 -0.9310  0.8506  0.3444
  698MOL0     H94223   9.556  10.949   2.819 -1.3671  0.3885  0.5580
  698MOL0     H94224   9.501  11.039   3.102  0.9863 -1.7799  1.2721
  698MOL0     H94225   9.455  11.119   2.955  3.0369  0.2731 -2.0391
  698MOL0     H94226   9.175  10.800   2.994  0.5952 -0.6308  0.9588
  698MOL0     H94227   9.992  10.941   3.213  0.5566 -1.2355  1.6258
  698MOL0     H94228  10.269  10.902   3.398  1.7473  0.0572 -1.0672
  698MOL0     H94229  10.121  10.829   3.345 -1.6816  2.4031 -0.8722
  698MOL0     H94230  10.270  10.765   3.268  2.2342  1.1349  0.8406
  699MOL0     O94231   9.589   1.687  11.214 -0.5169  0.0599  0.2614
  699MOL0     C94232   9.502   1.664  11.296 -0.0831 -0.1656  0.9382
  699MOL0     O94233   9.514   1.657  11.432  0.1162  0.0444  0.0407
  699MOL0     C94234   9.635   1.673  11.496 -0.1355  1.0213  0.8663
  699MOL0     C94235   9.662   1.592  11.604 -0.8426  0.7548 -0.6028
  699MOL0     C94236   9.768   1.632  11.691 -0.0078 -0.5109 -0.6444
  699MOL0     C94237   9.857   1.737  11.651 -0.2493 -0.3786 -0.0476
  699MOL0     O94238   9.955   1.770  11.737  0.4686 -0.2183  0.2436
  699MOL0     C94239  10.062   1.851  11.697 -0.2951  0.0847 -0.5121
  699MOL0     C94240  10.173   1.755  11.652  0.3307 -0.3884  0.2239
  699MOL0     C94241  10.299   1.836  11.627  0.3996  0.5886  0.1479
  699MOL0     C94242  10.409   1.742  11.578 -0.1161  0.9940 -0.6707
  699MOL0     C94243  10.514   1.809  11.488 -0.6862  0.2724 -0.5015
  699MOL0     C94244  10.594   1.918  11.554 -0.1379  0.2757 -0.5659
  699MOL0     C94245  10.708   1.969  11.468  0.3585 -0.7742 -0.8003
  699MOL0     C94246  10.768   2.095  11.530 -0.6052  0.2783 -0.8855
  699MOL0     N94247  10.895   2.129  11.479  0.2076 -0.6855 -0.2990
  699MOL0     C94248  11.010   2.097  11.529 -0.7747  0.6946 -0.2098
  699MOL0     C94249  11.102   2.137  11.432 -0.4577  0.5185  0.1798
  699MOL0     C94250  11.248   2.087  11.432 -0.5201 -0.2692  0.7551
  699MOL0     C94251  11.263   1.946  11.371 -0.4258  0.0837 -0.5290
  699MOL0     C94252  11.221   1.931  11.225 -1.0537 -0.0627  0.8174
  699MOL0     C94253  11.265   2.041  11.130 -0.7757 -1.3410  0.0887
  699MOL0     O94254  11.395   2.086  11.167  0.0039 -0.0717  0.3280
  699MOL0     C94255  11.461   2.176  11.091 -1.0782 -0.5724  0.4427
  699MOL0     C94256  11.404   2.241  10.980  0.5807  0.1528 -0.1970
  699MOL0     C94257  11.485   2.318  10.898 -0.2090 -0.8737  0.3923
  699MOL0     C94258  11.619   2.328  10.920  0.2526 -0.2931  0.1205
  699MOL0     C94259  11.712   2.401  10.824 -1.2495 -0.0715  0.3164
  699MOL0     O94260  11.658   2.504  10.756  0.0625  0.3167 -0.4215
  699MOL0     C94261  11.736   2.564  10.655 -0.0562  0.3051  0.5141
  699MOL0     C94262  11.854   2.627  10.677  0.0035  0.1493 -0.6020
  699MOL0     C94263  11.922   2.699  10.581 -0.3599  0.0692 -0.5346
  699MOL0     C94264  11.875   2.706  10.448 -0.9791 -0.8624  0.4984
  699MOL0     O94265  11.964   2.762  10.353 -0.7680  0.1340  0.9595
  699MOL0     C94266  12.028   2.671  10.260  0.2505  0.0754  0.1044
  699MOL0     C94267  12.147   2.602  10.317  0.8017 -0.1419  0.1306
  699MOL0     C94268  12.258   2.696  10.372  0.2444 -0.6081  0.8458
  699MOL0     C94269  12.372   2.616  10.440  0.0429  0.8175  0.0060
  699MOL0     C94270  12.500   2.703  10.449 -0.6420 -0.2649  0.5798
  699MOL0     C94271  12.611   2.632  10.526 -0.7883 -0.1050 -0.3789
  699MOL0     C94272  12.741   2.711  10.525  0.6289 -0.0098  0.5008
  699MOL0     C94273  12.859   2.619  10.555  0.5496 -0.2954  0.3304
  699MOL0    Cl94274  12.853   2.548  10.719 -0.2942 -0.1026  0.2939
  699MOL0     C94275  11.754   2.651  10.421 -0.2705  0.0383 -1.2178
  699MOL0     C94276  11.680   2.588  10.527  0.0078  0.7122  0.6694
  699MOL0     O94277  11.832   2.368  10.825  0.0911 -0.3626  0.4485
  699MOL0     C94278  11.677   2.255  11.033 -0.1411 -0.0621  0.0640
  699MOL0     C94279  11.598   2.182  11.113 -0.1467 -0.0722 -1.5015
  699MOL0     N94280  11.034   2.208  11.337 -0.3071 -0.5338  0.1758
  699MOL0     N94281  10.910   2.201  11.363  0.7596  0.2970  0.8818
  699MOL0     C94282   9.839   1.792  11.519  0.1897  0.4285 -0.1698
  699MOL0     C94283   9.723   1.771  11.451 -0.8114  0.6736 -0.2254
  699MOL0     C94284   9.365   1.628  11.235 -0.7239 -0.1116 -0.7376
  699MOL0     C94285   9.260   1.600  11.329 -0.5904  0.1730  0.2833
  699MOL0     C94286   9.141   1.534  11.293  0.2598  0.2041 -0.0664
  699MOL0     C94287   9.109   1.515  11.156  0.3446  0.7657  0.1499
  699MOL0     O94288   8.992   1.461  11.118 -0.3702 -0.9279  0.3490
  699MOL0     C94289   8.885   1.443  11.205 -0.1630  0.0215  0.6021
  699MOL0     C94290   8.761   1.385  11.136  0.2960  0.7545 -0.4719
  699MOL0     C94291   8.785   1.257  11.054 -1.0497 -0.4977 -0.5126
  699MOL0     C94292   8.849   1.137  11.126 -0.2626  1.0600  0.3007
  699MOL0     C94293   8.751   1.058  11.198 -0.0669  0.2089 -1.2578
  699MOL0     C94294   8.669   0.999  11.269 -0.1181 -0.5262  0.1681
  699MOL0     C94295   9.209   1.546  11.059  0.5312 -0.2331  0.0263
  699MOL0     C94296   9.334   1.607  11.095 -0.7405  0.0330  0.7057
  699MOL0     C94297   9.432   1.655  10.989  0.0522 -0.0744 -0.4530
  699MOL0     H94298   9.610   1.503  11.637 -0.4984  1.2172  1.2844
  699MOL0     H94299   9.792   1.588  11.787 -1.3477  1.8949  0.8903
  699MOL0     H94300  10.045   1.923  11.616  1.1930  3.4032  1.8826
  699MOL0     H94301  10.107   1.912  11.776  1.6829  0.0011 -1.4907
  699MOL0     H94302  10.136   1.698  11.566 -0.4241 -2.4811  1.8360
  699MOL0     H94303  10.193   1.674  11.724  1.4461 -0.6938 -0.4141
  699MOL0     H94304  10.320   1.874  11.727 -0.2273  0.8305  0.1919
  699MOL0     H94305  10.284   1.915  11.553  0.2881  0.9059  0.5075
  699MOL0     H94306  10.455   1.700  11.668 -1.3258  1.7262  0.3169
  699MOL0     H94307  10.369   1.660  11.517  0.2815  0.9928 -0.9380
  699MOL0     H94308  10.586   1.734  11.452 -0.0798 -0.4889  2.0891
  699MOL0     H94309  10.456   1.847  11.403  1.7863  0.0091 -2.4456
  699MOL0     H94310  10.523   2.001  11.569 -0.0380  0.8332 -2.8649
  699MOL0     H94311  10.631   1.875  11.647 -2.0015 -0.0211  0.0872
  699MOL0     H94312  10.664   1.991  11.370 -0.5072  2.2414  0.1786
  699MOL0     H94313  10.783   1.890  11.452  2.6483  0.9632  0.8256
  699MOL0     H94314  10.704   2.183  11.524 -1.4209  0.0431  2.3941
  699MOL0     H94315  10.785   2.062  11.633 -1.1286 -2.2108 -1.5393
  699MOL0     H94316  11.029   2.034  11.616 -0.1872  1.9831  0.6134
  699MOL0     H94317  11.313   2.160  11.383  2.6931 -3.6029 -0.4659
  699MOL0     H94318  11.276   2.064  11.535 -0.4221 -2.1812  0.3384
  699MOL0     H94319  11.361   1.901  11.395 -0.2165  1.6203  1.8169
  699MOL0     H94320  11.201   1.884  11.437 -1.2492 -0.1692 -1.5318
  699MOL0     H94321  11.112   1.927  11.224 -1.1404  1.0185  2.2556
  699MOL0     H94322  11.252   1.834  11.186 -0.1004 -0.1581  1.7706
  699MOL0     H94323  11.197   2.126  11.139  0.7572 -0.1196  0.6938
  699MOL0     H94324  11.261   2.009  11.026 -1.8016 -2.6177  0.4871
  699MOL0     H94325  11.301   2.231  10.947  0.1754  1.9412  0.4100
  699MOL0     H94326  11.448   2.381  10.817  0.2238  0.2925  1.0793
  699MOL0     H94327  11.899   2.615  10.775 -0.2552 -3.0320 -0.7590
  699MOL0     H94328  12.014   2.743  10.620 -0.5510  0.4664 -0.5291
  699MOL0     H94329  11.960   2.595  10.220 -0.7940  0.5829  0.8814
  699MOL0     H94330  12.067   2.735  10.181 -1.3701 -0.7953 -1.4776
  699MOL0     H94331  12.116   2.537  10.399  0.7170 -0.1634  0.0812
  699MOL0     H94332  12.187   2.535  10.241  2.2218 -2.4981  2.7720
  699MOL0     H94333  12.302   2.753  10.290  0.8436  1.2498  2.3851
  699MOL0     H94334  12.207   2.765  10.440 -3.0454 -0.1960 -1.7638
  699MOL0     H94335  12.394   2.525  10.383 -0.5333  0.1938  0.7581
  699MOL0     H94336  12.332   2.590  10.539 -4.7600 -1.0387 -2.0886
  699MOL0     H94337  12.473   2.795  10.503  1.6916  0.6741  0.3036
  699MOL0     H94338  12.525   2.732  10.346  1.4916 -2.2480  0.4734
  699MOL0     H94339  12.579   2.614  10.629 -0.6467 -1.3290 -0.5319
  699MOL0     H94340  12.618   2.532  10.483 -2.3821  0.0978 -1.1938
  699MOL0     H94341  12.741   2.804  10.584  2.8857 -0.5331  1.4290
  699MOL0     H94342  12.755   2.742  10.421 -0.5152  0.8768  0.5870
  699MOL0     H94343  12.867   2.531  10.491  0.4346 -0.7181  0.8805
  699MOL0     H94344  12.952   2.673  10.537  0.8504 -0.9183 -0.0347
  699MOL0     H94345  11.703   2.659  10.326 -0.5415 -1.7978 -1.2573
  699MOL0     H94346  11.579   2.552  10.513  0.4616 -0.9371  1.4010
  699MOL0     H94347  11.784   2.244  11.049 -0.3066 -1.7489  0.2148
  699MOL0     H94348  11.650   2.135  11.196  1.7826  0.7608 -2.1667
  699MOL0     H94349   9.899   1.874  11.481 -0.8972  1.3425  0.0215
  699MOL0     H94350   9.693   1.838  11.371  2.0246  1.0702 -1.0508
  699MOL0     H94351   9.273   1.630  11.433 -1.7233  3.3925 -0.4064
  699MOL0     H94352   9.078   1.510  11.379 -0.3941 -1.1330 -0.8759
  699MOL0     H94353   8.860   1.541  11.248  1.8568  0.1466  1.5863
  699MOL0     H94354   8.910   1.385  11.294 -1.0015 -0.7837  0.3273
  699MOL0     H94355   8.721   1.458  11.065 -2.9495 -0.5520 -0.1276
  699MOL0     H94356   8.695   1.365  11.221 -0.9466  4.2592 -0.4461
  699MOL0     H94357   8.852   1.284  10.972 -1.6644  0.4325 -0.7212
  699MOL0     H94358   8.689   1.231  11.009 -0.9209 -2.2421  0.1461
  699MOL0     H94359   8.883   1.069  11.048 -2.1327 -1.3261  1.4470
  699MOL0     H94360   8.935   1.164  11.188  0.8531 -2.5788  0.5507
  699MOL0     H94361   8.590   0.953  11.324  0.1949 -0.8278  0.3630
  699MOL0     H94362   9.199   1.515  10.955  0.9966  0.3410 -0.1927
  699MOL0     H94363   9.524   1.596  10.978 -1.1895 -1.8893 -1.6697
  699MOL0     H94364   9.382   1.656  10.892  0.0399 -1.2522 -0.4795
  699MOL0     H94365   9.452   1.759  11.014 -0.5373 -0.3199  1.1443
  700MOL0     O94366   3.993   0.663   3.357  0.1065 -0.2549  0.8447
  700MOL0     C94367   4.006   0.765   3.426 -0.7857  0.6669  0.3853
  700MOL0     O94368   4.128   0.831   3.442 -0.1254 -0.1323 -0.4696
  700MOL0     C94369   4.247   0.795   3.377 -0.3363  0.1708 -0.4956
  700MOL0     C94370   4.255   0.738   3.250  0.1903 -1.2678 -0.4038
  700MOL0     C94371   4.384   0.706   3.199 -0.3629 -0.2880 -1.0301
  700MOL0     C94372   4.505   0.736   3.277  0.0296 -0.4131 -0.3670
  700MOL0     O94373   4.630   0.710   3.228 -0.3317  0.0052  0.4865
  700MOL0     C94374   4.727   0.653   3.318 -0.7709  0.0024  0.6141
  700MOL0     C94375   4.771   0.508   3.276  0.0020  0.0459  0.3151
  700MOL0     C94376   4.660   0.411   3.236 -0.2222 -0.0087 -0.3921
  700MOL0     C94377   4.595   0.334   3.358  1.2225  0.1143  0.0479
  700MOL0     C94378   4.456   0.273   3.324  0.0635  0.1488  0.5319
  700MOL0     C94379   4.352   0.380   3.285  0.4250 -0.4775 -0.3007
  700MOL0     C94380   4.214   0.314   3.264  0.7553 -0.9412  0.5940
  700MOL0     C94381   4.168   0.286   3.404 -0.0308 -0.0058 -0.3055
  700MOL0     N94382   4.037   0.216   3.410  0.1038 -0.1136  0.7543
  700MOL0     C94383   3.913   0.283   3.416  0.1965  0.8124 -0.1580
  700MOL0     C94384   3.822   0.184   3.413  0.1209 -0.5478 -0.0105
  700MOL0     C94385   3.673   0.189   3.430  0.2200 -0.0218  0.5724
  700MOL0     C94386   3.600   0.310   3.363 -0.4100  0.8846  0.1089
  700MOL0     C94387   3.570   0.292   3.210  1.2403 -0.2370 -0.9899
  700MOL0     C94388   3.693   0.269   3.122  0.1606  0.8485 -0.0505
  700MOL0     O94389   3.760   0.388   3.102 -0.1912  0.4302  0.2946
  700MOL0     C94390   3.882   0.369   3.045 -0.1565 -0.3953  0.0203
  700MOL0     C94391   3.945   0.254   2.998 -0.1562  0.6243 -0.0448
  700MOL0     C94392   4.074   0.257   2.936  0.5902  0.3724  0.2221
  700MOL0     C94393   4.141   0.377   2.938 -0.4443  0.2155  0.4364
  700MOL0     C94394   4.279   0.387   2.882 -0.3991  0.7977  0.4286
  700MOL0     O94395   4.352   0.504   2.896  0.0878 -0.2491 -0.2566
  700MOL0     C94396   4.478   0.506   2.848 -0.0445  0.0739 -0.4626
  700MOL0     C94397   4.505   0.592   2.745 -0.0874  0.7372  1.2720
  700MOL0     C94398   4.638   0.613   2.703 -0.5449  0.1703  0.3607
  700MOL0     C94399   4.737   0.524   2.737 -0.1580 -0.0102 -0.6182
  700MOL0     O94400   4.868   0.540   2.703 -0.1143  0.5712 -0.2024
  700MOL0     C94401   4.899   0.477   2.573 -0.5040  1.1977 -0.2635
  700MOL0     C94402   4.838   0.542   2.451 -0.5133  0.0351 -0.1474
  700MOL0     C94403   4.892   0.497   2.319 -0.5531 -0.6565  0.1003
  700MOL0     C94404   4.837   0.361   2.267 -0.4178  1.0755 -0.3420
  700MOL0     C94405   4.912   0.294   2.144  0.7375 -0.0667 -0.8636
  700MOL0     C94406   5.051   0.239   2.188 -0.3440  0.5989  0.7842
  700MOL0     C94407   5.109   0.161   2.071 -0.3461 -0.1181  0.5252
  700MOL0     C94408   5.217   0.056   2.108 -0.1784  0.1812 -0.1175
  700MOL0    Cl94409   5.334   0.141   2.220 -0.2451 -0.0686 -0.2194
  700MOL0     C94410   4.711   0.436   2.840  0.7627 -0.1144 -0.3585
  700MOL0     C94411   4.583   0.420   2.891 -0.2214  0.1600  0.3213
  700MOL0     O94412   4.319   0.289   2.826 -0.5929 -0.0654 -0.5880
  700MOL0     C94413   4.079   0.494   2.989 -0.1485 -0.4084  1.0534
  700MOL0     C94414   3.949   0.489   3.049 -0.9598 -0.9760  0.1206
  700MOL0     N94415   3.888   0.064   3.394 -1.0150 -0.3725 -0.3177
  700MOL0     N94416   4.016   0.088   3.389  0.3561  0.5004  0.3305
  700MOL0     C94417   4.490   0.795   3.403 -0.1186 -0.2889 -0.5815
  700MOL0     C94418   4.366   0.824   3.443 -0.4492 -0.2257 -0.4117
  700MOL0     C94419   3.885   0.833   3.484  0.0971  0.3116 -0.8701
  700MOL0     C94420   3.904   0.967   3.536 -0.0272  0.8876  0.4441
  700MOL0     C94421   3.802   1.035   3.595 -0.9341 -0.2749 -0.1266
  700MOL0     C94422   3.671   0.975   3.603  0.2952 -0.5729  0.3612
  700MOL0     O94423   3.557   1.039   3.646  0.1213  0.1738 -0.2693
  700MOL0     C94424   3.581   1.159   3.712 -0.2088  0.4544 -0.0849
  700MOL0     C94425   3.440   1.207   3.746  0.3271 -0.0349  0.4602
  700MOL0     C94426   3.365   1.257   3.616 -0.7437  0.6748  0.3368
  700MOL0     C94427   3.237   1.332   3.642  0.3703 -0.4320  0.4099
  700MOL0     C94428   3.251   1.446   3.736  0.4272  0.3582 -0.6840
  700MOL0     C94429   3.235   1.537   3.812 -0.6964 -0.1322  0.0993
  700MOL0     C94430   3.650   0.847   3.544 -0.5393  0.1397 -0.3107
  700MOL0     C94431   3.757   0.772   3.487 -0.8922 -0.4431  0.2211
  700MOL0     C94432   3.730   0.625   3.444  0.5735  0.2150 -0.3232
  700MOL0     H94433   4.168   0.719   3.187  0.9727  0.6857 -2.1976
  700MOL0     H94434   4.398   0.654   3.104 -1.7265  0.4426 -1.6511
  700MOL0     H94435   4.818   0.712   3.309 -1.3695  0.7658 -0.7295
  700MOL0     H94436   4.692   0.650   3.422 -0.2423 -1.9308  0.7764
  700MOL0     H94437   4.832   0.471   3.359  0.7180  0.0242 -0.2108
  700MOL0     H94438   4.834   0.524   3.188 -1.9969  0.1452 -1.1703
  700MOL0     H94439   4.698   0.331   3.172 -0.8961  0.8099 -1.8659
  700MOL0     H94440   4.588   0.462   3.173 -1.4450 -1.8179 -0.5221
  700MOL0     H94441   4.654   0.247   3.388  0.4965 -1.3414 -2.4887
  700MOL0     H94442   4.590   0.400   3.446  0.2869 -0.0436  0.1220
  700MOL0     H94443   4.467   0.197   3.247 -1.7551  1.1524 -0.7851
  700MOL0     H94444   4.421   0.214   3.409 -0.5250  1.3283  1.1293
  700MOL0     H94445   4.351   0.444   3.374 -0.1195 -1.2247  0.2468
  700MOL0     H94446   4.383   0.425   3.190 -1.8563 -2.5499 -2.1656
  700MOL0     H94447   4.219   0.224   3.201  0.3121  0.0948 -0.9591
  700MOL0     H94448   4.141   0.383   3.220  2.1647  1.7980  2.3172
  700MOL0     H94449   4.231   0.229   3.473  1.8949  2.2713 -0.0306
  700MOL0     H94450   4.149   0.382   3.454  1.5140  0.0495  0.2520
  700MOL0     H94451   3.876   0.384   3.431 -2.8273 -0.1334 -0.5565
  700MOL0     H94452   3.637   0.098   3.381  1.5658  0.9971 -2.5529
  700MOL0     H94453   3.650   0.186   3.537  2.9996  1.8662  1.3299
  700MOL0     H94454   3.511   0.335   3.422 -0.7028  0.2986 -0.0799
  700MOL0     H94455   3.668   0.396   3.358  0.3918  0.2682  0.2995
  700MOL0     H94456   3.525   0.387   3.177 -2.6516 -1.1772  1.0069
  700MOL0     H94457   3.494   0.214   3.212 -1.7678  2.4216 -2.0431
  700MOL0     H94458   3.660   0.228   3.026  1.2516 -1.4337  0.4824
  700MOL0     H94459   3.759   0.199   3.174 -2.1570 -0.2250  1.6192
  700MOL0     H94460   3.900   0.155   2.998  1.6720 -0.2453 -0.0098
  700MOL0     H94461   4.112   0.179   2.871 -0.4612  0.2970 -0.3320
  700MOL0     H94462   4.432   0.656   2.697 -0.1023 -0.7497 -0.8056
  700MOL0     H94463   4.662   0.692   2.633 -1.0152 -0.0436 -0.0537
  700MOL0     H94464   5.006   0.488   2.551 -0.4746 -1.4276 -1.7753
  700MOL0     H94465   4.878   0.370   2.566  2.1461  0.6711 -1.4487
  700MOL0     H94466   4.732   0.514   2.452 -0.3477 -0.6309  0.8864
  700MOL0     H94467   4.832   0.651   2.461  0.6471  0.0041  1.1905
  700MOL0     H94468   4.867   0.568   2.241 -1.3828 -0.4660  0.5240
  700MOL0     H94469   5.001   0.494   2.325 -0.4437  1.9252  0.3468
  700MOL0     H94470   4.731   0.369   2.241 -1.1848 -1.3028  1.6326
  700MOL0     H94471   4.842   0.293   2.353 -1.1946 -0.6272 -1.5773
  700MOL0     H94472   4.914   0.371   2.067 -0.3417  1.5103  0.6088
  700MOL0     H94473   4.851   0.210   2.108  2.0301 -1.2932 -0.3128
  700MOL0     H94474   5.119   0.316   2.226 -0.1927  1.0060 -0.2844
  700MOL0     H94475   5.041   0.167   2.269 -1.4404 -2.7970 -2.1393
  700MOL0     H94476   5.167   0.236   2.016  0.7840  1.3877  3.5315
  700MOL0     H94477   5.028   0.106   2.021 -1.3029  1.4127  0.3334
  700MOL0     H94478   5.169  -0.035   2.144  0.5464 -0.7849 -1.4976
  700MOL0     H94479   5.269   0.018   2.019  0.3178 -0.1387  0.3028
  700MOL0     H94480   4.788   0.370   2.879 -0.3053 -0.7796  0.6866
  700MOL0     H94481   4.561   0.336   2.956 -0.5043 -0.5508 -0.6743
  700MOL0     H94482   4.138   0.585   2.982  2.1834 -1.9848 -1.3131
  700MOL0     H94483   3.896   0.571   3.097 -0.6731 -0.6090 -0.1800
  700MOL0     H94484   4.578   0.817   3.464 -1.6593  0.4397  1.4931
  700MOL0     H94485   4.348   0.870   3.539  1.7449 -0.7675  0.3008
  700MOL0     H94486   4.001   1.010   3.555 -0.7825  2.0988  1.7465
  700MOL0     H94487   3.824   1.135   3.631 -2.5114  0.2495 -0.5016
  700MOL0     H94488   3.630   1.230   3.646 -1.0667  1.8240  0.7018
  700MOL0     H94489   3.647   1.142   3.798 -0.2134  0.6271 -0.0466
  700MOL0     H94490   3.444   1.284   3.823 -1.5106  2.6601 -1.9413
  700MOL0     H94491   3.372   1.123   3.764  0.7105 -0.7235 -1.0365
  700MOL0     H94492   3.341   1.169   3.556  0.6712  1.5809 -1.6666
  700MOL0     H94493   3.433   1.308   3.547  1.5229 -1.4629  0.8553
  700MOL0     H94494   3.192   1.371   3.550  1.6001 -0.4597 -0.2266
  700MOL0     H94495   3.169   1.256   3.682  1.0444 -0.2978  1.8641
  700MOL0     H94496   3.231   1.611   3.890 -1.5090  0.7195 -0.7315
  700MOL0     H94497   3.551   0.804   3.555  0.6802 -2.7817 -0.0436
  700MOL0     H94498   3.775   0.568   3.525 -1.1981  0.7833  1.1127
  700MOL0     H94499   3.624   0.600   3.440  1.1743 -2.6570 -0.7546
  700MOL0     H94500   3.772   0.594   3.347  0.7352  1.5026 -0.6939
  701MOL0     O94501   3.455   6.296   1.221 -0.2041 -0.2138 -0.2043
  701MOL0     C94502   3.367   6.211   1.210  0.1483  0.1999 -0.4230
  701MOL0     O94503   3.376   6.084   1.241 -0.5386 -0.2061 -0.7094
  701MOL0     C94504   3.504   6.031   1.224 -0.6488  0.3428 -0.4926
  701MOL0     C94505   3.558   5.928   1.302  0.6613  0.3635 -0.8747
  701MOL0     C94506   3.688   5.881   1.279 -0.2646 -0.4623 -0.1899
  701MOL0     C94507   3.763   5.936   1.171 -0.0737 -0.9788  0.0740
  701MOL0     O94508   3.892   5.892   1.135 -0.4621 -0.0379 -0.6765
  701MOL0     C94509   3.979   5.871   1.250  0.0814  0.2741  0.4589
  701MOL0     C94510   4.115   5.850   1.180  0.2139 -0.0184 -0.4981
  701MOL0     C94511   4.174   5.986   1.167 -1.0844  0.7477  0.7848
  701MOL0     C94512   4.312   5.972   1.095  0.7886 -0.1402 -0.8271
  701MOL0     C94513   4.376   6.101   1.087  0.0025  0.2104 -0.2911
  701MOL0     C94514   4.521   6.097   1.048  0.4726  0.3511  1.1873
  701MOL0     C94515   4.550   6.007   0.928 -0.4136  0.1596 -1.7553
  701MOL0     C94516   4.684   6.037   0.870 -0.1458 -0.5366  0.1618
  701MOL0     N94517   4.795   6.024   0.977  0.2473 -0.7973  0.4043
  701MOL0     C94518   4.838   5.910   1.031  0.8469 -0.1356  0.1485
  701MOL0     C94519   4.915   5.950   1.133 -0.5128  0.8034 -1.0131
  701MOL0     C94520   4.978   5.854   1.239  0.1147 -0.4832  0.5350
  701MOL0     C94521   5.116   5.814   1.214 -0.2898  0.5945 -0.1745
  701MOL0     C94522   5.217   5.925   1.228  0.0046 -0.2511 -0.4294
  701MOL0     C94523   5.362   5.876   1.214 -0.2161 -1.2019 -0.0879
  701MOL0     O94524   5.395   5.813   1.338 -0.7854 -0.0946  0.0463
  701MOL0     C94525   5.524   5.789   1.372  0.1325 -0.4774  0.7134
  701MOL0     C94526   5.632   5.830   1.297 -0.5584  0.2526  0.3998
  701MOL0     C94527   5.770   5.798   1.335 -0.4836 -0.2115  0.5097
  701MOL0     C94528   5.788   5.728   1.460 -0.8585 -0.0194  0.0365
  701MOL0     C94529   5.925   5.676   1.494  0.1718  1.0815  0.1657
  701MOL0     O94530   5.934   5.600   1.602  0.3398  0.0936  0.4313
  701MOL0     C94531   6.041   5.536   1.647  0.5686 -0.5900  1.0774
  701MOL0     C94532   6.102   5.562   1.770  0.0362  0.2041  0.7470
  701MOL0     C94533   6.213   5.482   1.814  0.4829 -0.9360  0.4492
  701MOL0     C94534   6.261   5.375   1.733 -0.1936  0.2985  0.3505
  701MOL0     O94535   6.353   5.283   1.777 -0.5053  0.1034  0.3785
  701MOL0     C94536   6.367   5.263   1.917 -0.3371  0.3428  0.5691
  701MOL0     C94537   6.483   5.341   1.978 -0.5684 -0.3998 -0.4048
  701MOL0     C94538   6.508   5.337   2.130 -0.4456  1.0289  0.0249
  701MOL0     C94539   6.566   5.200   2.176 -0.0631 -1.2973  0.9984
  701MOL0     C94540   6.596   5.196   2.330 -0.0715 -0.7604  0.4327
  701MOL0     C94541   6.661   5.058   2.363 -0.4327 -0.5173  0.3187
  701MOL0     C94542   6.690   5.048   2.514 -0.1412  0.2371 -0.6193
  701MOL0     C94543   6.798   4.937   2.546 -0.1019 -0.6136  1.0153
  701MOL0    Cl94544   6.755   4.866   2.705  0.2013 -0.1794  0.1654
  701MOL0     C94545   6.198   5.357   1.606 -0.3210 -1.2489 -0.2121
  701MOL0     C94546   6.088   5.438   1.567  0.0662 -0.2371 -0.2500
  701MOL0     O94547   6.016   5.722   1.432 -0.3009 -0.1852  0.1677
  701MOL0     C94548   5.673   5.703   1.545 -0.1857  0.8312  1.1555
  701MOL0     C94549   5.548   5.724   1.492  0.9840  0.1834 -0.2019
  701MOL0     N94550   4.927   6.085   1.131 -1.1224  0.1031 -0.1979
  701MOL0     N94551   4.851   6.129   1.039 -0.2253 -0.8122  0.5580
  701MOL0     C94552   3.706   6.026   1.085 -0.0156  0.2217  0.3756
  701MOL0     C94553   3.575   6.069   1.108  0.4825 -1.1062 -0.3003
  701MOL0     C94554   3.231   6.268   1.195  0.2502 -1.1682  0.5116
  701MOL0     C94555   3.120   6.180   1.207 -1.0201  0.1129 -0.1146
  701MOL0     C94556   2.989   6.223   1.208  0.0416 -0.1872  0.4042
  701MOL0     C94557   2.960   6.357   1.190  0.9647 -0.0916 -0.9724
  701MOL0     O94558   2.824   6.391   1.179 -0.2151  0.7591  0.2945
  701MOL0     C94559   2.796   6.529   1.143 -0.0322 -0.5695  0.5818
  701MOL0     C94560   2.649   6.544   1.114 -0.5769  0.6276 -0.1150
  701MOL0     C94561   2.561   6.556   1.235  0.8510 -1.1044 -0.3228
  701MOL0     C94562   2.411   6.603   1.208  0.4321  0.8445  0.1674
  701MOL0     C94563   2.412   6.736   1.149  0.0082 -0.1496 -0.0855
  701MOL0     C94564   2.410   6.839   1.093  0.3295  0.3173 -0.0027
  701MOL0     C94565   3.063   6.453   1.180  0.1378  0.1407 -0.0770
  701MOL0     C94566   3.193   6.405   1.184  0.8370  0.6403  0.0192
  701MOL0     C94567   3.299   6.506   1.159 -0.8551  0.6174  0.0360
  701MOL0     H94568   3.495   5.897   1.385  0.9646  0.5806 -0.5594
  701MOL0     H94569   3.728   5.799   1.338 -0.3408  0.5040  1.2468
  701MOL0     H94570   3.966   5.954   1.320 -1.8192 -0.6127  1.2132
  701MOL0     H94571   3.939   5.783   1.301 -0.9558  1.0521  1.0210
  701MOL0     H94572   4.104   5.784   1.094  0.1314 -2.8168  1.5157
  701MOL0     H94573   4.173   5.793   1.253 -2.3770 -4.2552 -1.3797
  701MOL0     H94574   4.191   6.032   1.265 -1.6192 -0.4549  1.4629
  701MOL0     H94575   4.106   6.044   1.105  1.0232  0.3135 -2.1711
  701MOL0     H94576   4.384   5.908   1.148  1.5687  1.0840 -0.3560
  701MOL0     H94577   4.306   5.925   0.997  0.1204 -0.3542 -0.6904
  701MOL0     H94578   4.324   6.160   1.010 -0.4177 -0.5155 -0.5723
  701MOL0     H94579   4.364   6.157   1.180 -0.1347 -0.2856 -0.0059
  701MOL0     H94580   4.566   6.193   1.020  3.0947 -0.2218  3.0618
  701MOL0     H94581   4.578   6.061   1.134 -0.2022 -0.3423  1.3620
  701MOL0     H94582   4.471   6.023   0.854 -0.2824 -0.1203 -1.9573
  701MOL0     H94583   4.562   5.900   0.946  0.5164  0.5803  0.5483
  701MOL0     H94584   4.710   5.967   0.790  1.0075 -0.5458  0.5164
  701MOL0     H94585   4.690   6.136   0.824  2.5167 -0.2866  0.8763
  701MOL0     H94586   4.796   5.811   1.019 -2.1938  0.9580  1.0390
  701MOL0     H94587   4.965   5.903   1.336 -0.1770  1.2601 -0.3616
  701MOL0     H94588   4.913   5.767   1.248 -0.7982 -0.3230 -3.0697
  701MOL0     H94589   5.149   5.729   1.275 -0.5069 -2.0348 -3.4341
  701MOL0     H94590   5.130   5.773   1.113 -0.1108  1.8453 -0.6770
  701MOL0     H94591   5.198   5.968   1.327  1.8072 -1.0608  0.3262
  701MOL0     H94592   5.194   6.003   1.156  1.4639 -0.4668 -1.1675
  701MOL0     H94593   5.428   5.963   1.213  0.5277 -1.6961  1.5463
  701MOL0     H94594   5.392   5.814   1.129  1.2045 -2.7607  1.4528
  701MOL0     H94595   5.628   5.888   1.205  1.1302 -0.2079  0.0034
  701MOL0     H94596   5.852   5.831   1.272 -2.2344  1.4442 -1.0170
  701MOL0     H94597   6.066   5.648   1.825  0.6647  1.1640 -0.3162
  701MOL0     H94598   6.253   5.509   1.911  2.2334  2.5111 -1.0674
  701MOL0     H94599   6.282   5.307   1.969 -2.3548  0.9903 -2.9600
  701MOL0     H94600   6.388   5.157   1.933  0.4138 -0.2990 -3.5377
  701MOL0     H94601   6.578   5.312   1.933  0.5258 -1.0533  2.1530
  701MOL0     H94602   6.465   5.448   1.962  2.4353 -0.1383 -2.9019
  701MOL0     H94603   6.577   5.415   2.164  0.6707  0.1912 -0.2326
  701MOL0     H94604   6.418   5.353   2.190 -1.7695 -0.7815 -1.3661
  701MOL0     H94605   6.658   5.186   2.118 -1.3602  2.1445 -2.3469
  701MOL0     H94606   6.493   5.122   2.154  1.2018 -3.2182  3.0818
  701MOL0     H94607   6.503   5.219   2.383  1.2911 -2.0197  3.5530
  701MOL0     H94608   6.662   5.277   2.361 -0.1623 -0.0643 -1.0693
  701MOL0     H94609   6.590   4.984   2.325 -1.0604 -1.5358  3.2508
  701MOL0     H94610   6.757   5.046   2.311  0.1498 -0.3083  1.3274
  701MOL0     H94611   6.594   5.024   2.561 -0.0329 -0.1569 -0.5972
  701MOL0     H94612   6.716   5.146   2.555 -0.5551 -0.1408  0.5842
  701MOL0     H94613   6.784   4.857   2.472 -0.5313 -0.2379  0.6867
  701MOL0     H94614   6.901   4.974   2.544  0.7855 -2.9042  0.5160
  701MOL0     H94615   6.236   5.275   1.546  3.8660  0.3685 -0.1130
  701MOL0     H94616   6.033   5.415   1.477  0.4940  1.1494 -0.8843
  701MOL0     H94617   5.681   5.648   1.639 -0.9490 -0.7080  0.3553
  701MOL0     H94618   5.460   5.691   1.547  2.2887  0.3014  2.0717
  701MOL0     H94619   3.760   6.063   0.999  0.1344 -0.0476  0.3554
  701MOL0     H94620   3.540   6.137   1.031  0.9638 -3.2711 -2.5420
  701MOL0     H94621   3.147   6.075   1.201 -0.9939  0.0925  0.3275
  701MOL0     H94622   2.906   6.155   1.222  1.5582 -2.4311 -0.8480
  701MOL0     H94623   2.856   6.556   1.055 -0.2107  1.4387  1.0290
  701MOL0     H94624   2.823   6.588   1.231 -1.5331  0.0835  0.6482
  701MOL0     H94625   2.622   6.453   1.061 -1.7598  0.1341  1.2550
  701MOL0     H94626   2.637   6.630   1.048 -1.2218  1.4673  1.0543
  701MOL0     H94627   2.603   6.624   1.310 -2.1916  2.7257 -1.7277
  701MOL0     H94628   2.550   6.464   1.293  0.4411 -1.4581 -0.9551
  701MOL0     H94629   2.354   6.538   1.141 -0.4575  3.2613 -1.5439
  701MOL0     H94630   2.347   6.617   1.296 -2.6218 -0.6299 -1.6247
  701MOL0     H94631   2.408   6.938   1.052  2.2133  0.8353  1.0376
  701MOL0     H94632   3.038   6.556   1.159 -1.8769 -0.4853 -0.9674
  701MOL0     H94633   3.252   6.603   1.144 -0.3098  0.8373 -0.2881
  701MOL0     H94634   3.364   6.524   1.245 -0.7232  2.3029 -0.3878
  701MOL0     H94635   3.365   6.485   1.074  1.3304  0.7941  1.6182
  702MOL0     O94636   4.996   2.958   0.835 -0.1618 -0.3885  0.0579
  702MOL0     C94637   5.065   2.894   0.913  0.1418 -0.8915 -0.1099
  702MOL0     O94638   5.196   2.917   0.925  0.3962  0.1832 -0.8291
  702MOL0     C94639   5.263   2.967   0.815  0.3073  0.0585  0.4632
  702MOL0     C94640   5.297   3.098   0.811  0.6893 -0.1793  0.0760
  702MOL0     C94641   5.399   3.144   0.720  1.1292 -0.3221  0.2324
  702MOL0     C94642   5.473   3.052   0.639  0.5120  0.7355 -0.3548
  702MOL0     O94643   5.589   3.090   0.576  0.4381  0.3463 -0.0119
  702MOL0     C94644   5.582   3.201   0.484 -0.0429  0.4214 -0.8804
  702MOL0     C94645   5.697   3.298   0.515  0.6610  0.3627  0.2396
  702MOL0     C94646   5.693   3.404   0.407  0.6292 -0.4460 -0.2519
  702MOL0     C94647   5.830   3.483   0.399  0.0783 -0.4349  0.2729
  702MOL0     C94648   5.827   3.593   0.298  0.6266  0.1785  0.3609
  702MOL0     C94649   5.956   3.680   0.320  0.0986  0.1002  0.3970
  702MOL0     C94650   5.954   3.811   0.237 -0.4264 -1.0654 -0.6693
  702MOL0     C94651   6.076   3.896   0.285  0.8192 -0.8301  0.1467
  702MOL0     N94652   6.209   3.830   0.287 -0.2412  0.1893 -0.5924
  702MOL0     C94653   6.255   3.765   0.182  0.0765  0.9788  0.7170
  702MOL0     C94654   6.384   3.741   0.209 -0.2460 -0.6998  0.0119
  702MOL0     C94655   6.499   3.693   0.120 -0.0972  0.1375 -0.4004
  702MOL0     C94656   6.591   3.808   0.075 -0.0106 -0.0786 -0.1614
  702MOL0     C94657   6.720   3.757   0.014  0.0681 -0.4087  0.4031
  702MOL0     C94658   6.829   3.871   0.003  0.3855  0.0712 -0.2707
  702MOL0     O94659   6.804   3.971  -0.100  0.5571 -0.4244 -0.6840
  702MOL0     C94660   6.904   4.058  -0.116  0.2610 -0.1397 -0.4052
  702MOL0     C94661   6.964   4.056  -0.237 -0.3696  0.1139  0.3235
  702MOL0     C94662   7.077   4.130  -0.273  0.7266  0.2875 -0.5921
  702MOL0     C94663   7.140   4.201  -0.161 -0.1654 -0.6987  0.4171
  702MOL0     C94664   7.262   4.273  -0.178 -0.7466  0.4064 -1.1187
  702MOL0     O94665   7.330   4.300  -0.063 -0.4126 -0.4215 -0.5179
  702MOL0     C94666   7.463   4.338  -0.075  0.9758 -0.4120  0.0858
  702MOL0     C94667   7.565   4.244  -0.089  0.6235  0.2232 -0.9128
  702MOL0     C94668   7.696   4.277  -0.089 -0.6400 -0.3386  0.3367
  702MOL0     C94669   7.735   4.410  -0.063  0.3398  0.0036  0.1608
  702MOL0     O94670   7.864   4.463  -0.055  0.5713  0.1739 -0.6747
  702MOL0     C94671   7.965   4.395  -0.132 -0.0683  0.5923  0.4220
  702MOL0     C94672   8.106   4.452  -0.090  0.1771 -0.0873 -1.0234
  702MOL0     C94673   8.208   4.393  -0.186 -0.3890 -0.1536  0.3974
  702MOL0     C94674   8.361   4.435  -0.157 -0.3521 -0.1470  0.0267
  702MOL0     C94675   8.457   4.371  -0.264  0.5645 -0.2204 -0.5200
  702MOL0     C94676   8.610   4.412  -0.233  0.6751  0.2887 -0.0784
  702MOL0     C94677   8.636   4.560  -0.213 -0.2767  0.0955  0.8962
  702MOL0     C94678   8.788   4.585  -0.224 -0.4310  0.1339 -0.1603
  702MOL0    Cl94679   8.871   4.486  -0.100 -0.2336  0.0380 -0.0163
  702MOL0     C94680   7.630   4.505  -0.054  0.3423 -0.0468  0.3231
  702MOL0     C94681   7.501   4.469  -0.048  0.8241  1.1891 -0.3944
  702MOL0     O94682   7.307   4.278  -0.291  0.2220 -0.2325 -0.0478
  702MOL0     C94683   7.070   4.205  -0.033  0.1031  0.5516 -0.9847
  702MOL0     C94684   6.952   4.138  -0.012  0.3988  0.5367  0.1801
  702MOL0     N94685   6.409   3.777   0.341 -0.1778  0.0521 -0.4139
  702MOL0     N94686   6.301   3.844   0.384  0.5490  0.0303  0.1919
  702MOL0     C94687   5.429   2.912   0.643  0.6279 -0.6217 -0.0024
  702MOL0     C94688   5.328   2.877   0.734 -0.2494 -0.2987 -0.2966
  702MOL0     C94689   5.012   2.797   1.004  0.3284  0.0009  0.1748
  702MOL0     C94690   4.877   2.772   1.001  0.4543  0.2805  0.5476
  702MOL0     C94691   4.815   2.679   1.090 -0.4939 -0.6886  0.5233
  702MOL0     C94692   4.883   2.617   1.187 -0.3855 -0.0536 -1.0927
  702MOL0     O94693   4.843   2.533   1.285 -0.2292  0.6545  0.4907
  702MOL0     C94694   4.701   2.494   1.297  0.1391 -0.2046 -0.8293
  702MOL0     C94695   4.694   2.389   1.408 -0.1196 -0.6658  0.3862
  702MOL0     C94696   4.743   2.428   1.547 -0.0535 -0.3204 -0.1273
  702MOL0     C94697   4.786   2.309   1.639 -0.2185 -0.1140  0.1357
  702MOL0     C94698   4.654   2.229   1.650  0.3689  0.2453  0.2978
  702MOL0     C94699   4.561   2.158   1.677 -0.1895 -0.4233  0.0435
  702MOL0     C94700   5.022   2.643   1.192  0.2343  0.5552 -0.3235
  702MOL0     C94701   5.090   2.730   1.107  0.5863  0.9751 -0.2470
  702MOL0     C94702   5.238   2.725   1.115  0.1696  0.0171 -0.8695
  702MOL0     H94703   5.276   3.167   0.891  4.2504 -0.8641  1.8296
  702MOL0     H94704   5.406   3.251   0.705 -4.3322  0.2681 -0.1644
  702MOL0     H94705   5.599   3.153   0.387  0.5672 -1.4944  0.1339
  702MOL0     H94706   5.483   3.248   0.480  1.1918  3.5938  1.6079
  702MOL0     H94707   5.790   3.241   0.512  0.1103 -0.6780 -4.4238
  702MOL0     H94708   5.675   3.348   0.610  0.0752  1.1687 -0.3018
  702MOL0     H94709   5.609   3.471   0.431 -1.9155 -2.7340 -2.1328
  702MOL0     H94710   5.667   3.369   0.306  1.5713 -1.3361 -0.1998
  702MOL0     H94711   5.855   3.526   0.497 -2.9695 -0.7134  1.2815
  702MOL0     H94712   5.906   3.412   0.365  2.1122  3.2378 -3.9389
  702MOL0     H94713   5.831   3.567   0.192  0.7389 -0.2108  0.4581
  702MOL0     H94714   5.738   3.651   0.324  1.9865  1.7070  1.9132
  702MOL0     H94715   5.955   3.705   0.426 -4.1682 -0.5332  0.6676
  702MOL0     H94716   6.040   3.622   0.280 -1.0753  0.9171 -3.8224
  702MOL0     H94717   5.863   3.862   0.268  0.5390 -0.5995  1.6149
  702MOL0     H94718   5.951   3.785   0.131 -0.5237  0.5574 -1.0864
  702MOL0     H94719   6.082   3.975   0.210 -0.9080 -4.0115 -3.7548
  702MOL0     H94720   6.060   3.942   0.383 -3.4784  0.1447 -0.8053
  702MOL0     H94721   6.207   3.761   0.085  0.4670  1.9045  0.4768
  702MOL0     H94722   6.556   3.608   0.159  0.7478 -0.1007 -2.0644
  702MOL0     H94723   6.450   3.649   0.032 -1.1806  2.8747 -1.2542
  702MOL0     H94724   6.538   3.877   0.009 -0.4879 -0.1476  0.1382
  702MOL0     H94725   6.605   3.867   0.166  1.1531  0.7369 -0.8562
  702MOL0     H94726   6.704   3.728  -0.090  0.2515  1.0072 -0.0481
  702MOL0     H94727   6.771   3.681   0.074 -1.6340 -2.2609 -0.3706
  702MOL0     H94728   6.915   3.814  -0.032 -2.1173 -1.3811 -4.8073
  702MOL0     H94729   6.836   3.906   0.107 -4.3723  0.9402 -0.0248
  702MOL0     H94730   6.913   3.993  -0.309  0.5436 -1.4321  0.9854
  702MOL0     H94731   7.120   4.139  -0.372 -1.7100  1.4108 -1.6368
  702MOL0     H94732   7.535   4.141  -0.104 -1.4834  0.3123  1.8996
  702MOL0     H94733   7.777   4.204  -0.090  0.0625  0.4204  1.0692
  702MOL0     H94734   7.950   4.288  -0.117  0.0503  0.3426 -1.1204
  702MOL0     H94735   7.946   4.405  -0.239  0.7455 -1.3953  0.0378
  702MOL0     H94736   8.127   4.559  -0.086  0.6382 -0.2090  1.3528
  702MOL0     H94737   8.123   4.415   0.012  0.4112  1.7654 -0.3610
  702MOL0     H94738   8.204   4.284  -0.182 -0.1509 -0.1683  0.2404
  702MOL0     H94739   8.176   4.419  -0.287 -1.8668 -1.3743  0.5126
  702MOL0     H94740   8.379   4.412  -0.051  1.2945 -0.3546 -0.2621
  702MOL0     H94741   8.376   4.544  -0.158  2.9484 -0.5041 -0.7668
  702MOL0     H94742   8.417   4.396  -0.363 -6.0762 -2.4382  1.0936
  702MOL0     H94743   8.451   4.262  -0.267  1.7315 -0.2831 -2.1494
  702MOL0     H94744   8.635   4.354  -0.143 -1.9486  1.5410  1.6066
  702MOL0     H94745   8.664   4.378  -0.321 -1.3145 -0.9769 -0.8657
  702MOL0     H94746   8.598   4.601  -0.119  2.3269  1.0210  1.6119
  702MOL0     H94747   8.577   4.599  -0.297  1.0292 -0.3050 -0.2464
  702MOL0     H94748   8.822   4.552  -0.323 -1.1235  1.5967 -0.9258
  702MOL0     H94749   8.820   4.689  -0.211  0.1461 -0.1142  0.4637
  702MOL0     H94750   7.653   4.611  -0.060  2.1227 -0.4925 -3.1095
  702MOL0     H94751   7.424   4.542  -0.026  0.0788  1.4379 -3.3866
  702MOL0     H94752   7.116   4.262   0.047 -0.6083  3.6827 -2.6183
  702MOL0     H94753   6.902   4.142   0.084 -0.8671 -0.9706 -0.3641
  702MOL0     H94754   5.487   2.840   0.588 -1.8796 -1.7565 -1.3462
  702MOL0     H94755   5.304   2.773   0.754 -1.7407  0.0209 -0.2767
  702MOL0     H94756   4.808   2.829   0.939  0.2517  0.0362  0.5465
  702MOL0     H94757   4.708   2.667   1.092 -0.2737 -2.8957  0.8053
  702MOL0     H94758   4.670   2.447   1.204 -1.6530 -1.4967  0.3567
  702MOL0     H94759   4.637   2.579   1.322 -0.8182 -1.7699  2.7055
  702MOL0     H94760   4.748   2.301   1.372 -2.6876 -2.4175  0.5414
  702MOL0     H94761   4.589   2.360   1.415 -0.8262  1.3414 -1.0557
  702MOL0     H94762   4.669   2.486   1.603  2.0652 -1.0308  3.7690
  702MOL0     H94763   4.837   2.484   1.543  0.2574 -0.8356 -0.0093
  702MOL0     H94764   4.864   2.243   1.599 -2.2625 -1.2256 -2.2561
  702MOL0     H94765   4.824   2.357   1.730  1.1607  1.4588 -1.2006
  702MOL0     H94766   4.487   2.089   1.712  0.9389 -0.6133  2.2554
  702MOL0     H94767   5.078   2.588   1.267  1.6415  0.7350 -1.2059
  702MOL0     H94768   5.290   2.688   1.026  1.1727 -1.5730  0.3120
  702MOL0     H94769   5.267   2.822   1.158 -0.4340 -0.4435  0.6176
  702MOL0     H94770   5.267   2.650   1.189 -0.3261 -1.1738 -1.8429
  703MOL0     O94771   8.166   3.883   4.889 -0.8894 -0.0740 -0.2978
  703MOL0     C94772   8.204   3.767   4.897  0.1342  0.2489 -0.5481
  703MOL0     O94773   8.320   3.719   4.954 -0.2547 -0.4287 -0.7024
  703MOL0     C94774   8.385   3.797   5.044  0.0243  0.0896 -0.1091
  703MOL0     C94775   8.485   3.724   5.092 -0.0702  0.0821  0.5896
  703MOL0     C94776   8.570   3.773   5.193  0.0228 -0.3018  0.4731
  703MOL0     C94777   8.551   3.902   5.252  0.2583 -0.2687  0.3110
  703MOL0     O94778   8.638   3.960   5.347  0.3036  0.3880 -0.2818
  703MOL0     C94779   8.766   3.889   5.381 -0.7230  0.6831  0.2605
  703MOL0     C94780   8.888   3.951   5.321 -0.3639  0.5691 -0.5777
  703MOL0     C94781   8.908   4.098   5.355  0.5493 -0.4645 -0.3453
  703MOL0     C94782   9.044   4.138   5.292  0.5482 -0.6720  0.4528
  703MOL0     C94783   9.098   4.283   5.317 -1.0918 -0.5832  0.4159
  703MOL0     C94784   9.236   4.286   5.251  0.9784 -0.1665  0.2809
  703MOL0     C94785   9.281   4.431   5.250 -0.5647  0.7311 -1.7385
  703MOL0     C94786   9.206   4.523   5.160  0.9434 -0.2319  0.4462
  703MOL0     N94787   9.278   4.558   5.040 -0.2159  0.6427  0.7922
  703MOL0     C94788   9.334   4.685   5.018  0.2561  0.7673  1.0289
  703MOL0     C94789   9.389   4.676   4.897  0.1692 -0.0460 -0.2763
  703MOL0     C94790   9.464   4.776   4.808  1.1255 -0.1826  0.0448
  703MOL0     C94791   9.611   4.801   4.841  1.2150 -0.0625  0.7216
  703MOL0     C94792   9.657   4.915   4.755  0.6654  0.0826 -0.3278
  703MOL0     C94793   9.807   4.920   4.772  0.2044  1.5852 -0.4483
  703MOL0     O94794   9.863   5.040   4.708  0.0885 -0.0604  0.1320
  703MOL0     C94795   9.974   5.096   4.755 -1.0946 -0.3616  0.4648
  703MOL0     C94796  10.010   5.233   4.720 -0.1219  1.1706 -0.3228
  703MOL0     C94797  10.119   5.302   4.771  0.0569 -0.0083  0.3612
  703MOL0     C94798  10.199   5.237   4.867  0.0859 -0.5353 -0.0410
  703MOL0     C94799  10.315   5.306   4.940  0.6769 -0.2841  0.0146
  703MOL0     O94800  10.328   5.437   4.910  0.0280  0.1218 -0.0812
  703MOL0     C94801  10.440   5.494   4.967 -0.5747  0.0035  0.1894
  703MOL0     C94802  10.433   5.539   5.099 -0.8158  0.2041 -0.2170
  703MOL0     C94803  10.551   5.589   5.157  0.3277 -0.5186  0.1054
  703MOL0     C94804  10.673   5.590   5.093 -0.2307  0.5401  0.7376
  703MOL0     O94805  10.778   5.621   5.175  1.6643  0.4430 -0.1763
  703MOL0     C94806  10.866   5.722   5.120 -0.1369 -0.1978  0.8732
  703MOL0     C94807  10.985   5.720   5.213  0.2708  0.0528  0.1087
  703MOL0     C94808  11.089   5.826   5.174  0.0656  0.0519 -0.3049
  703MOL0     C94809  11.219   5.783   5.231  0.0725 -0.9869 -0.1483
  703MOL0     C94810  11.314   5.907   5.229 -0.7516  0.5061  0.0727
  703MOL0     C94811  11.313   5.997   5.356  0.9783 -0.4565 -0.1775
  703MOL0     C94812  11.416   6.114   5.353  0.8279  0.1576 -0.3872
  703MOL0     C94813  11.538   6.082   5.439  0.6344  0.3155 -0.0786
  703MOL0    Cl94814  11.499   6.109   5.610  0.4236 -0.1113  0.2570
  703MOL0     C94815  10.670   5.541   4.962  0.0333  0.1622  0.6084
  703MOL0     C94816  10.555   5.486   4.899 -0.1670 -0.7377 -0.9018
  703MOL0     O94817  10.384   5.244   5.020 -0.3439  0.1032  0.1714
  703MOL0     C94818  10.168   5.105   4.904  0.6758  0.4455  0.0145
  703MOL0     C94819  10.069   5.029   4.845  0.4930  0.0565  0.2053
  703MOL0     N94820   9.364   4.551   4.846 -0.2949 -0.6008  0.0325
  703MOL0     N94821   9.296   4.482   4.931  0.0560 -0.7001  0.5239
  703MOL0     C94822   8.450   3.984   5.198 -0.1980  0.4434  0.5071
  703MOL0     C94823   8.369   3.927   5.096 -0.4656  0.2825  0.5103
  703MOL0     C94824   8.130   3.656   4.833  0.3628  0.0329  0.6286
  703MOL0     C94825   8.140   3.527   4.891  0.3723 -0.0644  0.0544
  703MOL0     C94826   8.072   3.419   4.830 -0.7892 -0.1820 -0.5422
  703MOL0     C94827   7.997   3.442   4.719  0.6318  0.6879 -0.4178
  703MOL0     O94828   7.918   3.338   4.659  0.5183  0.0614  0.5410
  703MOL0     C94829   7.810   3.294   4.743 -0.8036 -0.1627  0.8933
  703MOL0     C94830   7.782   3.146   4.717 -0.1182  0.0928  0.9295
  703MOL0     C94831   7.641   3.111   4.752  0.1440 -0.0976 -0.3699
  703MOL0     C94832   7.622   2.957   4.753  1.0870  0.4408 -0.0933
  703MOL0     C94833   7.489   2.927   4.798  0.4463  0.5957 -1.0445
  703MOL0     C94834   7.380   2.904   4.844 -0.1136 -0.2675  0.4090
  703MOL0     C94835   7.994   3.557   4.648 -0.5493  0.2830  0.6091
  703MOL0     C94836   8.054   3.667   4.708 -0.4157 -0.4086  0.5074
  703MOL0     C94837   8.025   3.795   4.631  0.1038  0.4994 -0.4653
  703MOL0     H94838   8.505   3.624   5.053 -0.3835  1.0295 -2.2315
  703MOL0     H94839   8.633   3.692   5.230 -0.4806 -0.5351  0.8399
  703MOL0     H94840   8.788   3.894   5.488  1.0956  0.4063 -0.0602
  703MOL0     H94841   8.762   3.782   5.363 -1.4537  0.8691 -0.7347
  703MOL0     H94842   8.866   3.939   5.215 -2.6122  1.8152 -0.2994
  703MOL0     H94843   8.974   3.893   5.358 -2.0083 -0.3281  2.1695
  703MOL0     H94844   8.901   4.112   5.464 -0.3200  1.0195 -0.5592
  703MOL0     H94845   8.817   4.148   5.321 -0.4810 -0.1302  2.5761
  703MOL0     H94846   9.120   4.075   5.339 -0.7432 -2.1555  0.6293
  703MOL0     H94847   9.038   4.132   5.183 -2.2736  2.1925  0.2833
  703MOL0     H94848   9.028   4.348   5.263  0.6031 -0.1195 -1.3212
  703MOL0     H94849   9.100   4.299   5.425  2.0164  0.3379  0.3138
  703MOL0     H94850   9.300   4.217   5.307 -0.3478 -2.6983 -1.1243
  703MOL0     H94851   9.228   4.242   5.151 -0.9324  0.4319  0.1393
  703MOL0     H94852   9.389   4.427   5.233 -0.3913  2.2957 -1.2008
  703MOL0     H94853   9.272   4.466   5.353 -1.7114 -3.8675 -0.0238
  703MOL0     H94854   9.106   4.482   5.144 -0.1048  3.0696 -2.8217
  703MOL0     H94855   9.187   4.618   5.212  1.0681  0.8392 -1.3824
  703MOL0     H94856   9.334   4.775   5.078  2.2981 -0.3055  2.7886
  703MOL0     H94857   9.464   4.744   4.703  2.2576 -0.5093  0.1292
  703MOL0     H94858   9.413   4.872   4.803  0.9819 -0.2448  0.3619
  703MOL0     H94859   9.622   4.820   4.948 -1.4937  2.1155  0.7348
  703MOL0     H94860   9.662   4.707   4.819  0.0866 -0.7986  1.1856
  703MOL0     H94861   9.610   5.012   4.775 -0.4090 -0.5907  0.5708
  703MOL0     H94862   9.634   4.895   4.650  0.4258 -1.4537 -0.0065
  703MOL0     H94863   9.851   4.828   4.733 -2.7065 -0.4303  0.6381
  703MOL0     H94864   9.826   4.925   4.880 -1.4275  0.0463 -0.0337
  703MOL0     H94865   9.962   5.282   4.636 -1.0635 -2.8762 -2.3969
  703MOL0     H94866  10.140   5.404   4.741  1.9618 -0.9374 -1.7103
  703MOL0     H94867  10.346   5.528   5.162 -1.8493  0.9895 -1.4620
  703MOL0     H94868  10.546   5.636   5.254  1.7042 -0.5835  0.2215
  703MOL0     H94869  10.897   5.705   5.017  1.3178  0.0517  1.2494
  703MOL0     H94870  10.822   5.821   5.134 -1.6550 -0.8429  0.8871
  703MOL0     H94871  10.938   5.746   5.308 -0.4042  0.1304 -0.2399
  703MOL0     H94872  11.021   5.617   5.204  1.3742  0.5761 -1.8956
  703MOL0     H94873  11.086   5.832   5.065  1.6119 -1.0336 -0.4445
  703MOL0     H94874  11.059   5.921   5.219 -3.2759 -0.4630 -1.2041
  703MOL0     H94875  11.275   5.709   5.174  2.0660 -0.0436  0.4931
  703MOL0     H94876  11.212   5.756   5.337  5.9112  0.5782  0.9957
  703MOL0     H94877  11.292   5.952   5.132  0.8460 -3.5549 -2.4384
  703MOL0     H94878  11.417   5.870   5.227 -0.5469  0.5159  3.6042
  703MOL0     H94879  11.214   6.036   5.380  2.5619  1.2481  4.5586
  703MOL0     H94880  11.353   5.932   5.434  2.0318 -0.0676 -0.3737
  703MOL0     H94881  11.370   6.207   5.388  1.5637 -0.3131  1.9532
  703MOL0     H94882  11.452   6.142   5.253 -0.3957 -0.4117 -1.0055
  703MOL0     H94883  11.575   5.979   5.432  2.4833  0.7575  2.1282
  703MOL0     H94884  11.626   6.139   5.410  1.9548 -0.0918  2.7662
  703MOL0     H94885  10.762   5.525   4.907  1.0880 -0.0091  2.3418
  703MOL0     H94886  10.558   5.440   4.801 -0.9893 -2.8917 -0.0016
  703MOL0     H94887  10.237   5.057   4.973  0.9240  0.3189 -0.3166
  703MOL0     H94888  10.059   4.925   4.873  1.5514  0.1803  1.1276
  703MOL0     H94889   8.443   4.075   5.256 -1.5389 -0.9256  2.6382
  703MOL0     H94890   8.295   3.993   5.052  0.3283  0.2288 -0.9839
  703MOL0     H94891   8.178   3.523   4.992  2.1773 -1.3836 -0.6368
  703MOL0     H94892   8.095   3.324   4.877 -0.1851  0.3390  0.2647
  703MOL0     H94893   7.721   3.352   4.715 -0.3329 -0.0151 -0.3540
  703MOL0     H94894   7.820   3.322   4.849  0.2961  1.1465  0.4717
  703MOL0     H94895   7.856   3.084   4.768  0.8365  0.4788  0.0598
  703MOL0     H94896   7.780   3.129   4.609 -0.9855  2.5090  0.4898
  703MOL0     H94897   7.571   3.149   4.676  2.4933 -0.0166 -2.6229
  703MOL0     H94898   7.613   3.152   4.849  0.3692  1.6204 -0.9904
  703MOL0     H94899   7.641   2.925   4.650 -2.0758 -1.3395 -0.2399
  703MOL0     H94900   7.690   2.904   4.821  1.0458 -0.2375 -0.5652
  703MOL0     H94901   7.281   2.888   4.884 -0.4720  0.1965 -0.2777
  703MOL0     H94902   7.946   3.557   4.551  1.5374 -2.0618 -0.5559
  703MOL0     H94903   8.031   3.774   4.524  0.6060 -0.1200 -0.3220
  703MOL0     H94904   7.927   3.830   4.663  0.3144 -0.1322  0.9150
  703MOL0     H94905   8.087   3.880   4.661 -2.8102  2.8920 -0.7543
  704MOL0     O94906   5.489   0.929   9.329 -0.0847  0.2062  0.2203
  704MOL0     C94907   5.404   1.015   9.324  0.0054 -0.3548  0.0654
  704MOL0     O94908   5.427   1.157   9.348  0.2764  0.6837  0.0321
  704MOL0     C94909   5.547   1.202   9.367 -0.3115  0.1803  0.4257
  704MOL0     C94910   5.640   1.182   9.266  0.3912 -0.2674  0.5808
  704MOL0     C94911   5.771   1.236   9.284 -0.7138  0.2120 -0.4539
  704MOL0     C94912   5.804   1.296   9.403 -0.3991  0.8997  0.5471
  704MOL0     O94913   5.925   1.348   9.394 -0.3868 -0.7385 -0.3278
  704MOL0     C94914   6.019   1.315   9.496  0.8376 -0.2369 -0.6512
  704MOL0     C94915   6.153   1.375   9.468  0.0273  0.8511  1.0677
  704MOL0     C94916   6.220   1.316   9.343  0.2436 -0.7827  0.4907
  704MOL0     C94917   6.350   1.393   9.308  0.0457  0.4309  0.4256
  704MOL0     C94918   6.426   1.319   9.200  0.6209 -0.2061  0.5356
  704MOL0     C94919   6.501   1.406   9.099 -0.3670  0.3035 -0.1759
  704MOL0     C94920   6.534   1.542   9.138  0.2872 -0.6989  0.1239
  704MOL0     C94921   6.625   1.617   9.033  0.8339  0.1035 -0.3057
  704MOL0     N94922   6.746   1.554   9.002 -0.4889 -0.3596  0.4682
  704MOL0     C94923   6.845   1.518   9.090 -0.7574 -0.6413  0.3210
  704MOL0     C94924   6.952   1.484   9.022 -0.2633  0.2004  0.5420
  704MOL0     C94925   7.087   1.461   9.081  0.7121  0.6950  0.2984
  704MOL0     C94926   7.153   1.590   9.112 -0.2418 -0.0646  0.3729
  704MOL0     C94927   7.268   1.576   9.205 -0.5523  0.3128 -0.1326
  704MOL0     C94928   7.333   1.700   9.252 -0.4420 -0.8499  0.2164
  704MOL0     O94929   7.439   1.651   9.334  0.1187 -0.3254 -0.0976
  704MOL0     C94930   7.504   1.727   9.428  0.2435 -0.4661 -0.4235
  704MOL0     C94931   7.503   1.872   9.437 -0.5981  0.5345  0.6570
  704MOL0     C94932   7.576   1.931   9.544 -0.5425  0.0058  0.0134
  704MOL0     C94933   7.639   1.855   9.646  0.9834  0.1126  0.7712
  704MOL0     C94934   7.696   1.911   9.773 -0.0926  0.0302  0.1769
  704MOL0     O94935   7.738   1.818   9.872 -0.0773  0.1026 -0.0394
  704MOL0     C94936   7.786   1.877   9.985  0.2571 -0.2011  0.2445
  704MOL0     C94937   7.915   1.915  10.010 -0.4901 -0.0637 -0.5046
  704MOL0     C94938   7.953   1.969  10.135 -0.3523  0.0707  0.3638
  704MOL0     C94939   7.854   1.990  10.234  0.0735  0.7707  0.0072
  704MOL0     O94940   7.904   2.059  10.340 -0.5505  0.2187 -0.5013
  704MOL0     C94941   7.821   2.132  10.427 -0.9333 -0.0779 -0.0492
  704MOL0     C94942   7.914   2.215  10.523  0.0462 -0.5458  0.0471
  704MOL0     C94943   7.826   2.327  10.578 -0.5376  0.1607  0.5757
  704MOL0     C94944   7.914   2.423  10.663 -0.2831 -0.8409 -0.1756
  704MOL0     C94945   8.008   2.520  10.593 -0.4780 -0.5678 -0.8828
  704MOL0     C94946   8.097   2.566  10.711  0.5966  0.5544  0.3632
  704MOL0     C94947   8.221   2.481  10.725  0.2999 -0.4354  0.1187
  704MOL0     C94948   8.322   2.524  10.833 -0.4641 -0.4900  0.3327
  704MOL0    Cl94949   8.405   2.676  10.785  0.0517 -0.1297 -0.1706
  704MOL0     C94950   7.725   1.949  10.218 -0.3388 -0.4040 -0.3994
  704MOL0     C94951   7.692   1.896  10.094 -0.3730 -0.2161 -0.2452
  704MOL0     O94952   7.706   2.039   9.783  0.3139  0.0165  0.6994
  704MOL0     C94953   7.630   1.716   9.635  0.6891 -0.0262  0.2234
  704MOL0     C94954   7.570   1.657   9.522  0.8544 -0.0050  0.0805
  704MOL0     N94955   6.908   1.467   8.889 -0.4512  0.2845  0.7836
  704MOL0     N94956   6.798   1.520   8.879  1.2335 -0.5762  0.0271
  704MOL0     C94957   5.714   1.305   9.505 -0.5095  0.8067  1.3708
  704MOL0     C94958   5.582   1.273   9.483  0.1639 -0.0668  1.2367
  704MOL0     C94959   5.264   0.967   9.306  0.8966 -0.2370  0.0170
  704MOL0     C94960   5.237   0.827   9.298 -0.2176  0.0360  0.1432
  704MOL0     C94961   5.106   0.778   9.272 -1.1994 -0.9582  0.1800
  704MOL0     C94962   5.005   0.864   9.256  0.7386 -0.2719  0.0551
  704MOL0     O94963   4.878   0.811   9.251 -0.5222 -0.0011  0.0061
  704MOL0     C94964   4.867   0.725   9.143 -0.3955  0.3592 -0.0757
  704MOL0     C94965   4.755   0.791   9.059  0.0886  0.6372 -0.5307
  704MOL0     C94966   4.746   0.708   8.932 -0.2235  0.3021 -0.2508
  704MOL0     C94967   4.655   0.785   8.835  0.0243  0.0019 -0.3077
  704MOL0     C94968   4.618   0.699   8.723 -0.1656  0.6898 -0.0399
  704MOL0     C94969   4.584   0.624   8.634  0.3299 -0.3590 -0.8345
  704MOL0     C94970   5.023   1.005   9.257 -0.2356  0.5035  0.5895
  704MOL0     C94971   5.154   1.053   9.288  0.6313 -0.0327  0.0014
  704MOL0     C94972   5.160   1.200   9.283 -0.0258 -1.4141 -0.3917
  704MOL0     H94973   5.618   1.138   9.169 -1.4385 -0.4988  1.0709
  704MOL0     H94974   5.827   1.223   9.192 -0.3320 -2.6821  0.0929
  704MOL0     H94975   5.977   1.367   9.584 -1.2310  0.2193 -1.8392
  704MOL0     H94976   6.040   1.210   9.518 -2.3821 -0.5528  1.7181
  704MOL0     H94977   6.209   1.364   9.562 -1.1858 -2.3687  1.5130
  704MOL0     H94978   6.149   1.484   9.460 -0.3806  0.8280  0.9153
  704MOL0     H94979   6.147   1.318   9.261  0.1383 -2.3338  0.5169
  704MOL0     H94980   6.249   1.213   9.364 -0.7310 -0.9418  1.1243
  704MOL0     H94981   6.328   1.494   9.273 -1.0536  0.7316  1.8947
  704MOL0     H94982   6.421   1.406   9.391  2.0784 -2.9187 -0.5805
  704MOL0     H94983   6.487   1.238   9.239 -1.6370 -1.1982  2.1672
  704MOL0     H94984   6.346   1.272   9.143 -0.3885 -0.3317  2.0115
  704MOL0     H94985   6.595   1.356   9.072 -1.5100 -1.0422 -1.8420
  704MOL0     H94986   6.444   1.409   9.006  0.2615 -1.2785 -0.6477
  704MOL0     H94987   6.585   1.553   9.234  2.0968  1.2049 -0.9715
  704MOL0     H94988   6.444   1.604   9.138 -0.4445 -1.7102 -1.1370
  704MOL0     H94989   6.572   1.638   8.940  0.6471 -2.2465 -0.7746
  704MOL0     H94990   6.643   1.709   9.090 -1.9211  0.8032 -0.4487
  704MOL0     H94991   6.829   1.539   9.196  0.2124  4.0063 -0.2313
  704MOL0     H94992   7.082   1.392   9.165 -0.1249  1.0018  0.5121
  704MOL0     H94993   7.155   1.406   9.015  0.7241  0.9096  0.1291
  704MOL0     H94994   7.192   1.631   9.019  1.8795  0.3282  1.3766
  704MOL0     H94995   7.078   1.660   9.152  0.7289  1.0179  0.3620
  704MOL0     H94996   7.343   1.514   9.154 -1.3622 -1.7799  1.0696
  704MOL0     H94997   7.230   1.523   9.293 -3.0321  0.2310 -1.1981
  704MOL0     H94998   7.259   1.756   9.310  0.6489  1.1062 -0.1662
  704MOL0     H94999   7.362   1.771   9.174 -0.0348  0.3819  1.4334
  704MOL0     H95000   7.454   1.934   9.363  0.6193  2.0231  1.0665
  704MOL0     H95001   7.568   2.038   9.561  2.2456 -0.0106  2.2847
  704MOL0     H95002   7.992   1.899   9.935  0.3095 -2.0040  0.6620
  704MOL0     H95003   8.053   2.000  10.163 -0.6336  0.0647  1.4101
  704MOL0     H95004   7.756   2.200  10.372 -0.6826  0.2504  0.0551
  704MOL0     H95005   7.760   2.065  10.488  0.0291  0.3726  1.4653
  704MOL0     H95006   7.956   2.151  10.600  0.9819 -0.5175 -0.4191
  704MOL0     H95007   8.001   2.260  10.475  1.0877 -3.1511 -0.6790
  704MOL0     H95008   7.798   2.386  10.490  0.1134 -0.6864 -0.2136
  704MOL0     H95009   7.740   2.296  10.638  0.0785 -0.2372  1.2814
  704MOL0     H95010   7.972   2.360  10.732  0.0490 -2.0577 -1.5240
  704MOL0     H95011   7.842   2.486  10.716  0.7229 -2.0862  2.8933
  704MOL0     H95012   7.948   2.606  10.561 -0.0751 -0.5086 -1.4954
  704MOL0     H95013   8.068   2.474  10.515  2.6395 -2.7037  2.4386
  704MOL0     H95014   8.130   2.663  10.673 -1.6709  1.4153  0.4660
  704MOL0     H95015   8.048   2.578  10.808  0.2157 -2.3809  0.6097
  704MOL0     H95016   8.274   2.490  10.630 -1.2877  1.8409 -0.6222
  704MOL0     H95017   8.178   2.384  10.750 -1.6411  1.0927  3.4942
  704MOL0     H95018   8.264   2.543  10.924  1.0320  0.5565  1.1076
  704MOL0     H95019   8.396   2.452  10.867  1.5034  2.9094  4.0894
  704MOL0     H95020   7.644   1.959  10.290 -1.1577 -1.9898 -1.0274
  704MOL0     H95021   7.588   1.875  10.072 -0.5378  1.1235 -0.8647
  704MOL0     H95022   7.665   1.655   9.717 -2.1545  0.3279  1.8454
  704MOL0     H95023   7.575   1.549   9.516  2.6099  0.1479 -2.1863
  704MOL0     H95024   5.740   1.365   9.592 -1.3160  0.8661  1.5829
  704MOL0     H95025   5.510   1.295   9.561 -0.6951  4.0182 -0.4364
  704MOL0     H95026   5.320   0.757   9.301  0.6442  0.7885 -2.6209
  704MOL0     H95027   5.089   0.671   9.275 -0.1229 -1.2089 -1.3272
  704MOL0     H95028   4.836   0.626   9.179  1.2714 -0.4395 -0.7384
  704MOL0     H95029   4.956   0.705   9.084  1.3240  4.0453  1.0196
  704MOL0     H95030   4.784   0.893   9.030  2.9055  0.3716  0.9826
  704MOL0     H95031   4.665   0.784   9.120 -0.1796 -2.1334 -1.0886
  704MOL0     H95032   4.708   0.607   8.951  0.3321 -0.3504 -2.3489
  704MOL0     H95033   4.843   0.695   8.883  0.2157 -0.4087  0.7612
  704MOL0     H95034   4.569   0.818   8.894  0.5890 -0.8806  1.0538
  704MOL0     H95035   4.708   0.876   8.805 -2.6245  2.0802  0.8833
  704MOL0     H95036   4.550   0.547   8.569  1.8480 -0.4993 -1.4914
  704MOL0     H95037   4.935   1.066   9.240 -1.5126 -1.5367 -0.5270
  704MOL0     H95038   5.215   1.233   9.194 -1.7598 -0.0851 -1.0409
  704MOL0     H95039   5.063   1.251   9.285  0.4478 -0.4891 -0.3174
  704MOL0     H95040   5.216   1.247   9.365 -0.4048 -0.9170 -0.4079
  705MOL0     O95041   4.945   6.390   8.532 -0.7029  0.4540  0.6836
  705MOL0     C95042   5.037   6.362   8.461 -0.6871 -0.2130 -0.3215
  705MOL0     O95043   5.030   6.295   8.349 -0.2135  0.4700  0.0061
  705MOL0     C95044   4.902   6.281   8.299  0.7948 -0.0790  0.2439
  705MOL0     C95045   4.819   6.175   8.330 -0.6670  0.1381 -0.0795
  705MOL0     C95046   4.687   6.175   8.279 -0.2032  0.3234 -0.7038
  705MOL0     C95047   4.636   6.278   8.197 -0.1250 -0.8335 -0.4284
  705MOL0     O95048   4.513   6.297   8.152 -0.4285  0.6614  0.1174
  705MOL0     C95049   4.412   6.271   8.251 -0.8580  0.3934 -0.3156
  705MOL0     C95050   4.287   6.307   8.181  0.6791  0.4847  0.2545
  705MOL0     C95051   4.155   6.296   8.259 -0.4923  0.9286  0.9771
  705MOL0     C95052   4.038   6.266   8.166 -0.1518 -0.8906 -0.0994
  705MOL0     C95053   3.901   6.303   8.224 -0.0738 -0.3038 -0.0060
  705MOL0     C95054   3.866   6.454   8.190  0.0447  0.0702 -0.1699
  705MOL0     C95055   3.715   6.489   8.219 -0.1248  0.0281 -0.6152
  705MOL0     C95056   3.669   6.461   8.353 -0.7653  0.3656  0.1732
  705MOL0     N95057   3.542   6.520   8.383  0.0813  0.0821 -0.2886
  705MOL0     C95058   3.475   6.618   8.319 -0.5246  0.4054 -0.4554
  705MOL0     C95059   3.359   6.641   8.386 -0.4354 -0.0057  0.1157
  705MOL0     C95060   3.240   6.732   8.353 -1.1964  0.2822  0.0377
  705MOL0     C95061   3.164   6.686   8.228  0.2348 -0.2549  0.7082
  705MOL0     C95062   3.079   6.561   8.268 -0.0107  0.3396  0.2263
  705MOL0     C95063   3.154   6.430   8.229  0.1811 -0.1658  0.0408
  705MOL0     O95064   3.151   6.400   8.089  0.5385  0.1545  0.1941
  705MOL0     C95065   3.257   6.334   8.039 -0.1818 -0.2886 -0.0774
  705MOL0     C95066   3.296   6.208   8.090 -0.4952 -0.7365 -0.3121
  705MOL0     C95067   3.404   6.137   8.046  0.0751  0.2082  0.0648
  705MOL0     C95068   3.487   6.193   7.943  1.7132  0.8100  0.4603
  705MOL0     C95069   3.607   6.129   7.883  0.2482  1.0574 -1.0961
  705MOL0     O95070   3.695   6.207   7.808 -0.1817  0.1903 -0.7471
  705MOL0     C95071   3.811   6.135   7.767  0.2983  0.0406  0.4542
  705MOL0     C95072   3.829   6.093   7.635 -0.1961 -0.3676 -0.3569
  705MOL0     C95073   3.943   6.013   7.594  0.0703  0.0440 -0.5811
  705MOL0     C95074   4.032   5.966   7.698  0.0730 -0.4363  1.0629
  705MOL0     O95075   4.155   5.901   7.673 -1.0857  0.0373 -0.5053
  705MOL0     C95076   4.207   5.911   7.540 -0.1710  0.6971  0.9316
  705MOL0     C95077   4.359   5.881   7.544  0.8955  0.0639 -0.0258
  705MOL0     C95078   4.438   5.896   7.412 -1.0508  0.7408 -0.0053
  705MOL0     C95079   4.460   6.040   7.364  0.0741  0.1690  1.1517
  705MOL0     C95080   4.427   6.058   7.219 -0.0275  0.4852 -0.0596
  705MOL0     C95081   4.279   6.034   7.182  0.4440  0.0363  0.5529
  705MOL0     C95082   4.284   6.034   7.030  0.4997 -0.0095 -0.3450
  705MOL0     C95083   4.148   6.028   6.965  0.3290 -0.4489  0.1827
  705MOL0    Cl95084   4.039   5.907   7.051  0.4561  0.0350 -0.0315
  705MOL0     C95085   4.007   6.010   7.829 -0.1038 -0.1228 -0.7020
  705MOL0     C95086   3.897   6.093   7.860 -0.8457 -0.2542  0.1518
  705MOL0     O95087   3.620   6.006   7.903 -1.0023  0.5381  0.5621
  705MOL0     C95088   3.440   6.311   7.884 -0.3096 -0.1910 -0.5590
  705MOL0     C95089   3.332   6.376   7.936 -0.6703 -0.2562 -0.6064
  705MOL0     N95090   3.359   6.539   8.482  0.6955  0.3646 -0.1696
  705MOL0     N95091   3.457   6.464   8.473  0.0141  0.0984 -0.1171
  705MOL0     C95092   4.732   6.373   8.151  0.1958  0.1473 -0.2737
  705MOL0     C95093   4.863   6.383   8.206  0.0842  0.4690  0.2357
  705MOL0     C95094   5.171   6.422   8.504 -0.3947 -0.1047 -0.3336
  705MOL0     C95095   5.188   6.439   8.640  0.2262  0.1543 -0.1507
  705MOL0     C95096   5.297   6.513   8.693 -0.2945  0.0511 -0.1251
  705MOL0     C95097   5.383   6.575   8.603 -0.1704 -0.3349  0.6327
  705MOL0     O95098   5.501   6.634   8.648 -0.5682  0.0001 -0.3976
  705MOL0     C95099   5.486   6.717   8.761 -0.3807  0.5342  0.5510
  705MOL0     C95100   5.591   6.836   8.747  0.2743 -0.1095 -0.9285
  705MOL0     C95101   5.721   6.781   8.678  0.1450  0.7627  0.4560
  705MOL0     C95102   5.835   6.870   8.719 -0.3999  0.2094 -0.4242
  705MOL0     C95103   5.944   6.826   8.627  0.7523  0.4347  0.2789
  705MOL0     C95104   6.018   6.782   8.541 -1.3344  0.1996 -0.7529
  705MOL0     C95105   5.366   6.561   8.465 -0.6276  0.9679 -0.3220
  705MOL0     C95106   5.263   6.487   8.413 -0.0698  0.3079 -0.5098
  705MOL0     C95107   5.232   6.488   8.271  0.2850 -0.1369  0.4847
  705MOL0     H95108   4.861   6.096   8.391  0.6451  0.8723  0.0109
  705MOL0     H95109   4.618   6.093   8.295  0.1300  0.1441 -0.1340
  705MOL0     H95110   4.422   6.175   8.303 -0.3194 -0.0477 -1.2108
  705MOL0     H95111   4.413   6.350   8.327  0.4919  0.9733 -0.8988
  705MOL0     H95112   4.283   6.240   8.095 -0.9660  1.3661 -0.3932
  705MOL0     H95113   4.285   6.399   8.123  0.6580  0.7993  0.7480
  705MOL0     H95114   4.141   6.391   8.312  1.5651  0.5897  2.2383
  705MOL0     H95115   4.176   6.217   8.331  1.3127 -0.5006 -0.9904
  705MOL0     H95116   4.046   6.314   8.068 -2.1636  0.6820  0.4267
  705MOL0     H95117   4.039   6.157   8.152  1.3377 -0.8813 -0.2342
  705MOL0     H95118   3.824   6.242   8.177 -2.0515  1.6055  0.5988
  705MOL0     H95119   3.905   6.287   8.332  0.6082  2.8646  0.5390
  705MOL0     H95120   3.918   6.522   8.257 -0.6135 -0.7191  1.1869
  705MOL0     H95121   3.903   6.475   8.089  5.3595 -1.2076  1.1958
  705MOL0     H95122   3.653   6.430   8.150  1.4876 -0.5706 -1.6002
  705MOL0     H95123   3.702   6.596   8.201 -0.5739 -0.0737 -0.9148
  705MOL0     H95124   3.648   6.354   8.367  0.6500 -0.3400 -2.3800
  705MOL0     H95125   3.740   6.486   8.432 -0.3917 -0.2443  0.0391
  705MOL0     H95126   3.513   6.677   8.236  0.8068 -1.3630 -1.1671
  705MOL0     H95127   3.173   6.721   8.439  2.3440 -3.2713  2.7202
  705MOL0     H95128   3.277   6.834   8.350 -0.7812  0.1184 -2.1799
  705MOL0     H95129   3.085   6.755   8.194  2.6243  1.0446 -2.7765
  705MOL0     H95130   3.221   6.663   8.137 -1.0255 -2.0468  0.3068
  705MOL0     H95131   2.981   6.560   8.218 -1.6886  2.2082  3.1549
  705MOL0     H95132   3.063   6.554   8.376 -0.5580 -3.5951  0.0342
  705MOL0     H95133   3.128   6.345   8.293  0.5149  1.1199  1.9768
  705MOL0     H95134   3.259   6.440   8.258  0.2315 -0.4732 -0.0337
  705MOL0     H95135   3.242   6.172   8.177 -0.0972 -1.1597 -0.2376
  705MOL0     H95136   3.423   6.041   8.092  2.3105  0.8485  0.5758
  705MOL0     H95137   3.753   6.117   7.562 -0.2617 -2.2359 -0.9383
  705MOL0     H95138   3.959   5.988   7.490  0.2170  0.8986 -0.7694
  705MOL0     H95139   4.162   5.835   7.476  3.4049  0.1616 -1.1824
  705MOL0     H95140   4.197   6.014   7.504  0.4329 -0.9007 -4.6510
  705MOL0     H95141   4.389   5.929   7.638 -0.8852 -1.0726  1.2049
  705MOL0     H95142   4.366   5.776   7.576  3.1272  0.3224  0.5211
  705MOL0     H95143   4.533   5.842   7.416 -1.1690  0.5482  0.1808
  705MOL0     H95144   4.382   5.832   7.343 -1.7807  2.6239 -1.2176
  705MOL0     H95145   4.562   6.073   7.384  0.6173 -1.5377  1.3579
  705MOL0     H95146   4.400   6.103   7.430 -0.3320  0.4267  0.5497
  705MOL0     H95147   4.502   5.999   7.166  0.8253  1.6633 -0.2139
  705MOL0     H95148   4.451   6.164   7.204  2.8659  0.6369  4.1024
  705MOL0     H95149   4.244   5.936   7.216  3.7514 -2.2353 -1.9515
  705MOL0     H95150   4.206   6.107   7.217  0.3597 -0.7253  2.0470
  705MOL0     H95151   4.332   5.944   6.989  2.1025  0.3577  0.6384
  705MOL0     H95152   4.344   6.117   6.991 -0.2619 -0.7825 -3.4472
  705MOL0     H95153   4.099   6.125   6.978  0.7417 -0.2630  0.3903
  705MOL0     H95154   4.160   6.010   6.858  0.6487 -0.6104  0.2433
  705MOL0     H95155   4.084   5.974   7.897  0.0852  0.7963 -0.4156
  705MOL0     H95156   3.869   6.115   7.962 -4.9094  3.0182 -1.3969
  705MOL0     H95157   3.486   6.365   7.802 -0.5918  1.7775  0.5093
  705MOL0     H95158   3.300   6.466   7.885 -1.4460 -0.7969 -1.0819
  705MOL0     H95159   4.691   6.449   8.086  1.2940  0.5055 -0.5545
  705MOL0     H95160   4.923   6.465   8.169 -0.0979  0.3344 -0.3673
  705MOL0     H95161   5.113   6.393   8.704 -0.7872  1.8256 -0.0600
  705MOL0     H95162   5.307   6.531   8.799  0.2210 -1.7231  0.1629
  705MOL0     H95163   5.504   6.651   8.845 -1.4167  0.8062  1.0085
  705MOL0     H95164   5.380   6.744   8.763 -0.6306 -0.3702 -0.0507
  705MOL0     H95165   5.612   6.868   8.849  0.4179 -0.4308 -0.8535
  705MOL0     H95166   5.545   6.916   8.689 -0.2647 -1.9006 -3.1417
  705MOL0     H95167   5.708   6.775   8.570 -2.4222  0.6715  0.7108
  705MOL0     H95168   5.744   6.678   8.708  2.1667 -0.0451 -3.1986
  705MOL0     H95169   5.824   6.976   8.695  0.5779  0.5588  0.5818
  705MOL0     H95170   5.873   6.865   8.821  2.0911  3.6405 -1.0074
  705MOL0     H95171   6.078   6.734   8.466  0.0752 -0.3188  0.6344
  705MOL0     H95172   5.420   6.621   8.392 -2.7283  1.8577 -1.2350
  705MOL0     H95173   5.308   6.541   8.214 -1.8128  2.5754  0.0061
  705MOL0     H95174   5.211   6.398   8.213 -1.0834  1.1230 -1.0824
  705MOL0     H95175   5.140   6.547   8.264 -0.3049 -0.6654  2.8347
  706MOL0     O95176   3.169   2.735   3.750 -0.6059  0.1978  0.0127
  706MOL0     C95177   3.218   2.621   3.731 -0.7479  0.1895  0.3018
  706MOL0     O95178   3.219   2.526   3.822 -0.4321  0.6281 -0.0643
  706MOL0     C95179   3.171   2.537   3.945 -0.4437  0.5148 -0.4456
  706MOL0     C95180   3.232   2.472   4.059  0.6277  0.3189 -0.0100
  706MOL0     C95181   3.163   2.460   4.177 -0.1442  0.1219 -0.1465
  706MOL0     C95182   3.039   2.519   4.198  0.9574  0.1561  0.9635
  706MOL0     O95183   2.956   2.503   4.309  0.4828 -0.0070 -0.6434
  706MOL0     C95184   2.989   2.401   4.408 -0.1888 -0.0259 -0.6815
  706MOL0     C95185   2.955   2.263   4.351 -0.5254 -0.5974  0.2903
  706MOL0     C95186   2.958   2.165   4.465 -0.6119  0.4213 -0.3516
  706MOL0     C95187   2.945   2.020   4.416 -0.4779 -0.1050 -0.6330
  706MOL0     C95188   2.889   1.920   4.525 -0.7406  0.4643  0.2575
  706MOL0     C95189   2.992   1.918   4.643 -0.5331  0.6387  0.0226
  706MOL0     C95190   2.936   1.818   4.743 -0.1019  0.5883 -0.2907
  706MOL0     C95191   3.032   1.783   4.857 -0.4375 -0.0961  1.5219
  706MOL0     N95192   3.170   1.740   4.817 -0.2327  0.0214 -0.1432
  706MOL0     C95193   3.191   1.622   4.749 -0.0329 -0.1829 -0.9520
  706MOL0     C95194   3.323   1.606   4.733 -0.5675 -0.0008 -0.1685
  706MOL0     C95195   3.397   1.497   4.668  0.4507  0.6016  0.4144
  706MOL0     C95196   3.540   1.501   4.690  0.3148 -0.2654  0.2608
  706MOL0     C95197   3.612   1.376   4.640  0.3144  0.3742  0.7990
  706MOL0     C95198   3.760   1.386   4.624 -0.7800  0.4121  0.3720
  706MOL0     O95199   3.815   1.269   4.573  0.5311  0.4556  0.4490
  706MOL0     C95200   3.944   1.238   4.568  0.0133  0.2846  0.7581
  706MOL0     C95201   3.990   1.137   4.480  0.4110 -0.1041 -0.3157
  706MOL0     C95202   4.121   1.092   4.483  0.6929  0.8374 -0.6498
  706MOL0     C95203   4.215   1.151   4.561  0.5810 -0.2742  0.1435
  706MOL0     C95204   4.356   1.113   4.549  0.2178 -0.2511 -0.4781
  706MOL0     O95205   4.432   1.145   4.658 -0.8447 -0.4134 -0.0563
  706MOL0     C95206   4.563   1.099   4.680 -1.1112 -0.5066  0.9904
  706MOL0     C95207   4.615   1.122   4.797 -0.2595 -0.1588  0.1042
  706MOL0     C95208   4.745   1.088   4.819  0.3647  0.0481 -0.9986
  706MOL0     C95209   4.832   1.031   4.729  0.4952 -0.7741  0.1470
  706MOL0     O95210   4.958   1.004   4.760  0.1356  0.2708  0.2385
  706MOL0     C95211   5.065   1.008   4.666  0.6420 -0.0125  0.0069
  706MOL0     C95212   5.112   0.863   4.629  0.3975 -0.4732 -1.1316
  706MOL0     C95213   5.234   0.885   4.530  0.2338  0.5135 -0.1849
  706MOL0     C95214   5.286   0.743   4.504 -0.6059  1.0718  0.0926
  706MOL0     C95215   5.383   0.743   4.384  0.0368 -0.3156 -0.5821
  706MOL0     C95216   5.430   0.596   4.369 -0.4322 -0.5477 -0.0802
  706MOL0     C95217   5.550   0.577   4.274  0.0080 -0.6011  0.2209
  706MOL0     C95218   5.606   0.433   4.302  0.0193  0.1475 -0.1400
  706MOL0    Cl95219   5.783   0.417   4.273 -0.1348  0.1139 -0.0788
  706MOL0     C95220   4.780   1.017   4.599  0.4599  0.0437 -0.8768
  706MOL0     C95221   4.652   1.064   4.567  0.9402  0.0582 -0.3424
  706MOL0     O95222   4.387   1.037   4.458 -0.5411 -0.0324  0.0683
  706MOL0     C95223   4.170   1.253   4.644  0.8139 -0.1240 -0.6554
  706MOL0     C95224   4.037   1.290   4.661 -0.0537  0.8777  0.5139
  706MOL0     N95225   3.382   1.721   4.782  0.7511  0.2898  0.2514
  706MOL0     N95226   3.291   1.807   4.825 -0.5157 -0.1274 -0.7309
  706MOL0     C95227   2.990   2.598   4.090  0.3460  0.0410 -1.3821
  706MOL0     C95228   3.061   2.611   3.973  0.3829  0.6986 -0.2241
  706MOL0     C95229   3.284   2.589   3.601  0.0995 -0.7339  0.2777
  706MOL0     C95230   3.366   2.471   3.583  0.2415  0.5974  0.0196
  706MOL0     C95231   3.446   2.459   3.465  0.5928  0.7834  0.2617
  706MOL0     C95232   3.431   2.539   3.352 -0.5658  0.6602  0.6230
  706MOL0     O95233   3.514   2.510   3.243  0.2210 -0.1470 -0.3830
  706MOL0     C95234   3.524   2.615   3.146 -0.7573 -0.6841  0.2905
  706MOL0     C95235   3.615   2.733   3.192  0.3333  0.3470 -0.6877
  706MOL0     C95236   3.747   2.682   3.242 -0.4102 -0.1816  0.5035
  706MOL0     C95237   3.823   2.612   3.130  0.0586 -0.3469 -0.8821
  706MOL0     C95238   3.967   2.607   3.164  1.0327 -0.3068 -0.4000
  706MOL0     C95239   4.082   2.597   3.192  0.3585  0.0713 -1.2236
  706MOL0     C95240   3.345   2.644   3.363  0.4666  0.2873  0.3881
  706MOL0     C95241   3.269   2.673   3.483 -0.4836 -0.0291 -0.2776
  706MOL0     C95242   3.179   2.798   3.467  0.0587 -0.4172  0.1228
  706MOL0     H95243   3.316   2.409   4.032  0.8211 -0.0516  1.3721
  706MOL0     H95244   3.185   2.389   4.256 -0.4582  1.7480  1.4936
  706MOL0     H95245   3.092   2.414   4.443 -0.4666 -1.3848  0.7756
  706MOL0     H95246   2.933   2.422   4.500 -0.5754  1.1782 -1.1676
  706MOL0     H95247   3.033   2.237   4.279  0.5093  1.6625  0.5177
  706MOL0     H95248   2.861   2.264   4.295  1.0636  1.1633 -2.6380
  706MOL0     H95249   2.881   2.188   4.540 -2.7694 -1.2138 -1.9135
  706MOL0     H95250   3.059   2.174   4.505 -0.0794  1.0125 -1.7802
  706MOL0     H95251   2.871   2.009   4.336  0.9182  0.6190 -2.0736
  706MOL0     H95252   3.037   1.978   4.374 -0.1364 -0.5959  0.5652
  706MOL0     H95253   2.789   1.954   4.554 -0.2296  0.9091  1.5604
  706MOL0     H95254   2.886   1.820   4.481  0.3863  0.4223  0.2646
  706MOL0     H95255   3.083   1.877   4.598 -1.4114 -0.9440 -0.3560
  706MOL0     H95256   3.019   2.017   4.682 -1.9155  2.5952 -3.5624
  706MOL0     H95257   2.913   1.723   4.695 -3.3580 -0.0670  2.1710
  706MOL0     H95258   2.852   1.858   4.801 -0.4036  0.5168 -0.6710
  706MOL0     H95259   3.051   1.877   4.909  2.4272  1.2962 -1.6539
  706MOL0     H95260   3.008   1.706   4.930  0.6677 -1.3057  0.6543
  706MOL0     H95261   3.116   1.551   4.717  2.4260 -3.3700 -0.1930
  706MOL0     H95262   3.359   1.404   4.711  4.6716 -2.1141 -1.0424
  706MOL0     H95263   3.381   1.484   4.561 -1.6520 -0.4108  0.7956
  706MOL0     H95264   3.588   1.585   4.638  0.6650 -1.0294 -0.6816
  706MOL0     H95265   3.562   1.517   4.796  1.1229 -3.5644  0.6964
  706MOL0     H95266   3.563   1.350   4.545  1.7994  0.8107 -0.1110
  706MOL0     H95267   3.603   1.283   4.698 -1.4667  1.5422  2.5549
  706MOL0     H95268   3.807   1.417   4.718  1.6700  2.3224 -1.3744
  706MOL0     H95269   3.787   1.462   4.551  2.1234 -0.5284  0.3393
  706MOL0     H95270   3.927   1.087   4.407 -1.9539 -0.4868  1.8522
  706MOL0     H95271   4.151   1.015   4.412  2.8229 -0.8210  1.8297
  706MOL0     H95272   4.559   1.161   4.882 -0.1990 -1.8041  0.9323
  706MOL0     H95273   4.778   1.109   4.920 -3.8854  0.7537  0.4559
  706MOL0     H95274   5.039   1.067   4.577 -1.2185 -1.7024 -0.6450
  706MOL0     H95275   5.153   1.056   4.709 -0.9976  3.4680 -0.2094
  706MOL0     H95276   5.117   0.802   4.720 -2.6343  3.1602  1.8580
  706MOL0     H95277   5.026   0.815   4.583 -1.8630  0.0021  2.2132
  706MOL0     H95278   5.188   0.930   4.441 -1.2517 -0.4215  0.0820
  706MOL0     H95279   5.310   0.949   4.575  0.8088 -0.2154 -0.1174
  706MOL0     H95280   5.200   0.677   4.493 -0.6764  1.1574  0.1315
  706MOL0     H95281   5.339   0.730   4.599 -3.0384  1.1762  1.5353
  706MOL0     H95282   5.471   0.807   4.394  0.5009 -0.5634 -2.7561
  706MOL0     H95283   5.313   0.771   4.305 -1.4691  1.7304  1.3480
  706MOL0     H95284   5.467   0.563   4.467  0.7604 -0.5684 -0.5230
  706MOL0     H95285   5.349   0.530   4.335 -1.2028  0.6554 -0.6270
  706MOL0     H95286   5.631   0.645   4.303  1.5605 -1.3496 -2.0947
  706MOL0     H95287   5.523   0.605   4.172 -1.0345 -1.8717  0.1294
  706MOL0     H95288   5.580   0.398   4.402  3.3653 -0.2505  0.7221
  706MOL0     H95289   5.568   0.357   4.233  2.8918 -0.0233 -1.7294
  706MOL0     H95290   4.836   0.986   4.511  2.2846 -2.8134  1.1467
  706MOL0     H95291   4.612   1.045   4.468  0.6686 -2.6107  0.2020
  706MOL0     H95292   4.248   1.306   4.697 -0.6784 -0.2444  1.7717
  706MOL0     H95293   4.024   1.367   4.735 -0.4596  2.9668 -1.6134
  706MOL0     H95294   2.898   2.657   4.092 -0.0341 -0.5597 -0.7097
  706MOL0     H95295   3.016   2.677   3.900  1.0515  0.6927 -0.6529
  706MOL0     H95296   3.381   2.409   3.672 -0.0380  0.1222 -0.2590
  706MOL0     H95297   3.525   2.386   3.450  1.6634  1.9448  0.0379
  706MOL0     H95298   3.437   2.654   3.093  0.1514  0.5148 -0.3719
  706MOL0     H95299   3.575   2.566   3.062  0.3846  1.3452 -0.2791
  706MOL0     H95300   3.561   2.772   3.278 -1.1078 -4.2333  0.7864
  706MOL0     H95301   3.627   2.812   3.117  0.9457  0.5739 -0.3546
  706MOL0     H95302   3.728   2.616   3.327 -3.8486  0.3205  0.2666
  706MOL0     H95303   3.801   2.773   3.271 -1.9300  0.1502  2.5563
  706MOL0     H95304   3.773   2.517   3.109 -5.8889  1.3827  2.9504
  706MOL0     H95305   3.809   2.663   3.034 -1.3951 -2.3035 -1.7693
  706MOL0     H95306   4.183   2.563   3.205  0.3222  0.2572 -0.4008
  706MOL0     H95307   3.331   2.712   3.280 -2.8756 -0.9013 -0.1916
  706MOL0     H95308   3.079   2.771   3.504 -0.5239 -1.3927 -2.0294
  706MOL0     H95309   3.218   2.876   3.533 -0.1133 -0.2506  0.0318
  706MOL0     H95310   3.178   2.846   3.369  2.6656 -2.0567 -0.7861
  707MOL0     O95311   4.702   3.788   3.717 -0.1306 -0.2287  1.0779
  707MOL0     C95312   4.656   3.730   3.815  0.2204 -0.0483  0.5322
  707MOL0     O95313   4.711   3.632   3.889  0.3603 -0.4828  0.6661
  707MOL0     C95314   4.835   3.580   3.864 -0.2732 -0.2083  0.3202
  707MOL0     C95315   4.860   3.443   3.870 -0.1238  0.0907  0.2275
  707MOL0     C95316   4.989   3.389   3.841 -0.1450 -0.1718 -0.8008
  707MOL0     C95317   5.099   3.473   3.832  0.8491  0.1195 -0.0775
  707MOL0     O95318   5.218   3.420   3.799  0.0985  0.4226 -0.3580
  707MOL0     C95319   5.316   3.450   3.914  0.5479 -0.2091  0.9765
  707MOL0     C95320   5.424   3.349   3.942  0.1188  0.9822 -0.7210
  707MOL0     C95321   5.493   3.305   3.809 -0.1393  0.0954 -0.1553
  707MOL0     C95322   5.597   3.195   3.826  0.0258 -0.4678  0.9931
  707MOL0     C95323   5.684   3.174   3.701 -0.0890 -0.1988 -0.3590
  707MOL0     C95324   5.801   3.077   3.732  0.7667  0.6097  0.7712
  707MOL0     C95325   5.855   3.014   3.600  0.5031  0.6201 -0.3436
  707MOL0     C95326   5.952   3.109   3.530 -1.1648  0.1425 -0.0558
  707MOL0     N95327   6.054   3.041   3.448  0.9573  0.0123 -0.3252
  707MOL0     C95328   6.028   2.977   3.331  0.0500 -0.8237 -0.3070
  707MOL0     C95329   6.147   2.926   3.301  0.1492 -0.6364  0.2856
  707MOL0     C95330   6.168   2.869   3.159  0.1897  0.4919 -0.5211
  707MOL0     C95331   6.311   2.825   3.141 -0.1086 -0.3593 -0.3569
  707MOL0     C95332   6.304   2.757   2.999 -0.6564  0.2435  0.3923
  707MOL0     C95333   6.456   2.744   2.965  0.2786 -0.4776  0.3641
  707MOL0     O95334   6.456   2.677   2.842 -0.5570  0.4949 -0.2158
  707MOL0     C95335   6.581   2.624   2.810 -0.0903  0.0158 -0.1602
  707MOL0     C95336   6.578   2.580   2.680 -0.1952  0.7855  0.1482
  707MOL0     C95337   6.703   2.556   2.622  0.0218 -0.2089  0.2605
  707MOL0     C95338   6.824   2.552   2.689 -0.0353 -0.6456 -0.4409
  707MOL0     C95339   6.955   2.508   2.632 -0.1255 -0.0584 -0.3206
  707MOL0     O95340   7.065   2.511   2.711  1.0354  1.0663  0.1683
  707MOL0     C95341   7.191   2.483   2.665 -0.4326  0.3132  0.5642
  707MOL0     C95342   7.236   2.528   2.543 -0.5517  0.1196 -0.2201
  707MOL0     C95343   7.371   2.507   2.504 -0.5633 -0.0963 -0.7198
  707MOL0     C95344   7.461   2.452   2.593  0.5217 -0.3258  0.3030
  707MOL0     O95345   7.591   2.437   2.565 -0.6187  0.4375  0.3320
  707MOL0     C95346   7.627   2.406   2.432  0.3252  0.1590  0.3279
  707MOL0     C95347   7.769   2.364   2.424  0.3021  0.2266 -0.1504
  707MOL0     C95348   7.815   2.360   2.280  0.5321 -0.7091  0.2054
  707MOL0     C95349   7.953   2.299   2.264 -0.0108 -0.7814 -0.7396
  707MOL0     C95350   8.050   2.413   2.287 -0.5686  0.6986 -0.1778
  707MOL0     C95351   8.194   2.356   2.282 -0.5199 -0.5102  0.1344
  707MOL0     C95352   8.307   2.461   2.331 -0.0631 -0.5880 -0.2152
  707MOL0     C95353   8.298   2.594   2.264 -0.3267 -0.8506 -0.0331
  707MOL0    Cl95354   8.441   2.685   2.339  0.0413  0.2120 -0.1464
  707MOL0     C95355   7.420   2.409   2.716 -0.9629  0.6689 -0.1804
  707MOL0     C95356   7.284   2.420   2.741 -0.1693  0.4936  0.2778
  707MOL0     O95357   6.953   2.461   2.516 -0.0982  0.1307 -0.9180
  707MOL0     C95358   6.821   2.590   2.826  0.6421  0.6876 -0.3646
  707MOL0     C95359   6.700   2.627   2.890 -0.2779  0.0628  0.2594
  707MOL0     N95360   6.244   2.972   3.385 -0.7727 -0.5364 -0.1577
  707MOL0     N95361   6.186   3.036   3.474  0.0772 -0.3236  0.1624
  707MOL0     C95362   5.072   3.603   3.819  1.2312 -1.0936  0.1812
  707MOL0     C95363   4.942   3.669   3.830 -0.4804  0.5785  0.1269
  707MOL0     C95364   4.508   3.759   3.827 -0.8416  0.2892 -0.1003
  707MOL0     C95365   4.431   3.657   3.882  0.0485  0.0944 -0.2728
  707MOL0     C95366   4.295   3.681   3.905 -0.3283  0.0628  0.5720
  707MOL0     C95367   4.244   3.809   3.879 -0.0712  0.7762 -0.1917
  707MOL0     O95368   4.119   3.842   3.895 -0.5068  0.6835  0.1866
  707MOL0     C95369   4.041   3.785   4.004 -0.6051 -0.3128  0.3650
  707MOL0     C95370   3.917   3.723   3.951  0.3661  0.0233 -0.4355
  707MOL0     C95371   3.833   3.677   4.069  1.0752 -0.4258 -0.3694
  707MOL0     C95372   3.703   3.598   4.051 -0.4811  0.0891  0.0967
  707MOL0     C95373   3.614   3.655   3.947  0.8206  0.0942 -0.0330
  707MOL0     C95374   3.553   3.693   3.845 -0.6936  0.2005  0.4696
  707MOL0     C95375   4.321   3.907   3.832  0.4023  0.0141 -0.3759
  707MOL0     C95376   4.458   3.886   3.809  1.3393  0.5984 -0.6389
  707MOL0     C95377   4.534   4.006   3.783  0.0176 -0.1865 -0.8211
  707MOL0     H95378   4.774   3.376   3.874  0.4185 -0.6667 -0.4162
  707MOL0     H95379   4.994   3.284   3.816 -1.7978 -0.1879 -1.1750
  707MOL0     H95380   5.372   3.539   3.883 -0.2899 -0.4159 -1.3341
  707MOL0     H95381   5.264   3.468   4.008 -1.4412  1.4516 -0.3592
  707MOL0     H95382   5.375   3.265   3.993 -0.5413  2.4615  1.1975
  707MOL0     H95383   5.504   3.389   4.005  0.9704 -2.6876  0.8454
  707MOL0     H95384   5.537   3.390   3.755  1.5989 -0.6837 -0.0336
  707MOL0     H95385   5.419   3.269   3.736  2.0137 -0.2843 -2.3021
  707MOL0     H95386   5.666   3.215   3.908  1.5505  1.2089 -0.6078
  707MOL0     H95387   5.548   3.097   3.835  0.3443 -0.7482 -0.0899
  707MOL0     H95388   5.620   3.132   3.622 -1.4597  1.1048 -0.0030
  707MOL0     H95389   5.729   3.266   3.663  3.4640 -1.2445  0.9842
  707MOL0     H95390   5.873   3.136   3.789 -0.9877  4.6282 -0.8324
  707MOL0     H95391   5.756   2.994   3.788 -0.7598 -0.6745 -2.1064
  707MOL0     H95392   5.774   2.974   3.539 -0.4593 -2.1942  2.5303
  707MOL0     H95393   5.912   2.925   3.628 -0.9153  0.1782  1.2636
  707MOL0     H95394   5.889   3.176   3.470 -0.5925 -0.2959 -1.1745
  707MOL0     H95395   6.003   3.172   3.603  1.4181  0.0947 -1.6942
  707MOL0     H95396   5.940   2.964   3.269 -0.8084 -3.2699  1.2814
  707MOL0     H95397   6.097   2.789   3.133 -0.5141  1.5033 -1.8214
  707MOL0     H95398   6.149   2.944   3.082 -1.9836 -0.0986 -0.6205
  707MOL0     H95399   6.375   2.914   3.135 -0.1600 -0.2644  0.4367
  707MOL0     H95400   6.346   2.758   3.220 -1.4282 -2.3199 -1.3531
  707MOL0     H95401   6.273   2.822   2.917  1.0944 -0.7786 -1.1546
  707MOL0     H95402   6.244   2.666   3.002 -1.0148  0.4347 -0.5837
  707MOL0     H95403   6.501   2.689   3.048  0.3370  1.3153  1.5942
  707MOL0     H95404   6.512   2.838   2.958 -0.6513  0.1772  1.2744
  707MOL0     H95405   6.485   2.565   2.627 -0.9637 -0.7794  1.8509
  707MOL0     H95406   6.711   2.527   2.518 -1.0524 -0.5172  0.2582
  707MOL0     H95407   7.173   2.588   2.477  1.0467  4.1905  1.5987
  707MOL0     H95408   7.398   2.539   2.404  3.0630  1.2563  0.5199
  707MOL0     H95409   7.579   2.314   2.398  3.0844 -0.4834 -2.2136
  707MOL0     H95410   7.600   2.484   2.360 -1.2493 -0.2362  0.4567
  707MOL0     H95411   7.832   2.426   2.488 -0.9459 -0.6932  2.1009
  707MOL0     H95412   7.781   2.261   2.461  0.1528  0.1085 -0.4215
  707MOL0     H95413   7.743   2.301   2.222 -0.2908 -0.8522  1.3464
  707MOL0     H95414   7.816   2.458   2.232  1.9276 -0.4684  0.6828
  707MOL0     H95415   7.966   2.255   2.165 -1.2660  1.5464 -2.0422
  707MOL0     H95416   7.969   2.216   2.333  1.4758 -1.0642 -1.3965
  707MOL0     H95417   8.023   2.447   2.387 -1.8453 -0.1321 -0.2069
  707MOL0     H95418   8.037   2.491   2.211  0.7369  1.0939 -0.0123
  707MOL0     H95419   8.195   2.275   2.356  0.5317 -0.4114  0.2443
  707MOL0     H95420   8.214   2.317   2.181 -2.0287  1.0234 -0.7987
  707MOL0     H95421   8.412   2.430   2.326  0.7239  1.8593 -0.1580
  707MOL0     H95422   8.280   2.465   2.437 -0.7589 -2.9996 -0.2306
  707MOL0     H95423   8.310   2.575   2.157  0.6800 -0.9713  0.0868
  707MOL0     H95424   8.205   2.645   2.290  0.2608  0.0638  0.3164
  707MOL0     H95425   7.483   2.354   2.785  0.7279  0.1108 -2.0490
  707MOL0     H95426   7.257   2.383   2.840  1.0374 -0.1426  0.3925
  707MOL0     H95427   6.907   2.601   2.891 -1.0401  0.6637  1.9901
  707MOL0     H95428   6.700   2.664   2.992 -1.3828  0.8413  0.0095
  707MOL0     H95429   5.160   3.661   3.792 -0.4458  1.6506  0.2174
  707MOL0     H95430   4.932   3.777   3.824  0.9334  0.7290  0.1333
  707MOL0     H95431   4.466   3.559   3.914 -1.2005  0.2191  1.6295
  707MOL0     H95432   4.240   3.600   3.952 -1.5761 -0.9815 -2.4372
  707MOL0     H95433   4.013   3.866   4.071 -0.0001 -0.4768  0.8243
  707MOL0     H95434   4.090   3.709   4.067 -1.6540 -0.2117  1.3179
  707MOL0     H95435   3.946   3.644   3.881  2.0161 -1.5217  1.8640
  707MOL0     H95436   3.861   3.803   3.902 -0.0522  1.4559  2.1716
  707MOL0     H95437   3.815   3.771   4.121  1.4939  1.1469 -2.9274
  707MOL0     H95438   3.889   3.611   4.136  3.6608  0.6253 -1.4063
  707MOL0     H95439   3.733   3.494   4.039  1.2065  0.4970  0.4045
  707MOL0     H95440   3.648   3.604   4.146 -1.0057  0.6266 -0.2325
  707MOL0     H95441   3.509   3.714   3.749  0.8526  2.1822  0.1492
  707MOL0     H95442   4.271   3.999   3.802 -0.7445 -1.2503 -2.6578
  707MOL0     H95443   4.578   3.999   3.683  0.1326  1.6141 -0.9245
  707MOL0     H95444   4.475   4.098   3.784 -0.5446 -0.4765  1.8840
  707MOL0     H95445   4.602   4.012   3.869 -3.1042 -0.5908  1.9032
  708MOL0     O95446   8.578   2.953  10.142 -0.0417 -0.0177  0.4591
  708MOL0     C95447   8.619   3.005  10.032 -0.0936  0.1987  0.6597
  708MOL0     O95448   8.746   2.989   9.983 -0.2974 -0.1917  0.0787
  708MOL0     C95449   8.814   2.887  10.037  0.5321  0.7844 -0.0531
  708MOL0     C95450   8.881   2.897  10.156  0.2709  0.5542  0.4284
  708MOL0     C95451   8.970   2.799  10.192 -0.6324  0.6845  0.7567
  708MOL0     C95452   8.974   2.679  10.130  0.2385  0.5655 -0.3470
  708MOL0     O95453   9.060   2.579  10.171  0.9449  0.7294 -0.6481
  708MOL0     C95454   9.172   2.576  10.084  0.3289  0.1982  0.5218
  708MOL0     C95455   9.299   2.555  10.158 -0.0244  0.4935 -0.2204
  708MOL0     C95456   9.425   2.582  10.075 -0.1239 -0.0652  0.0501
  708MOL0     C95457   9.546   2.588  10.171 -0.9066 -0.4717 -0.1397
  708MOL0     C95458   9.604   2.458  10.227  0.4413 -0.1139 -0.4711
  708MOL0     C95459   9.731   2.474  10.312 -0.1310 -0.2280 -0.2025
  708MOL0     C95460   9.794   2.330  10.324 -0.1279  0.3934 -0.7389
  708MOL0     C95461   9.903   2.338  10.431 -0.0287  0.3324 -0.0610
  708MOL0     N95462  10.004   2.444  10.409 -0.1859  1.4829  0.3297
  708MOL0     C95463  10.072   2.452  10.293  0.2203  0.4467 -0.5740
  708MOL0     C95464  10.175   2.535  10.313 -1.1181 -0.6887 -0.3896
  708MOL0     C95465  10.266   2.583  10.203  0.5680 -0.4221 -0.5025
  708MOL0     C95466  10.412   2.611  10.254  0.3967  0.5633 -0.0265
  708MOL0     C95467  10.486   2.670  10.137 -0.5590 -0.3303  0.0468
  708MOL0     C95468  10.626   2.720  10.169  0.3198 -0.0440 -0.4074
  708MOL0     O95469  10.716   2.630  10.243  0.4174 -0.0934  0.4062
  708MOL0     C95470  10.841   2.668  10.266 -0.7290  0.4041  0.9244
  708MOL0     C95471  10.886   2.795  10.244 -1.1478 -0.8325 -0.4401
  708MOL0     C95472  11.028   2.830  10.264  0.5929 -0.0176 -0.4870
  708MOL0     C95473  11.121   2.736  10.313  0.6294 -0.5927  0.0071
  708MOL0     C95474  11.258   2.782  10.340  0.6968 -0.3715  0.5441
  708MOL0     O95475  11.294   2.893  10.271  0.4340  0.0161 -0.0856
  708MOL0     C95476  11.424   2.943  10.252 -0.1545  0.2598 -0.7136
  708MOL0     C95477  11.533   2.927  10.346  0.3610  0.5648 -0.2534
  708MOL0     C95478  11.661   2.989  10.337 -0.2784 -0.2575  0.5230
  708MOL0     C95479  11.675   3.077  10.232  0.0435 -0.7216  0.8604
  708MOL0     O95480  11.793   3.148  10.205  0.7090  0.2031  0.5403
  708MOL0     C95481  11.879   3.188  10.321  1.3510  0.2805  0.2595
  708MOL0     C95482  12.021   3.221  10.278  0.1409 -0.1258 -0.4959
  708MOL0     C95483  12.079   3.107  10.196  0.1921  0.0474 -0.4115
  708MOL0     C95484  12.227   3.124  10.189 -0.7711 -0.3369  0.3868
  708MOL0     C95485  12.284   3.015  10.095 -0.7245 -0.0117  0.7810
  708MOL0     C95486  12.440   2.994  10.104  0.0666 -0.4357  0.1438
  708MOL0     C95487  12.510   2.956   9.973 -0.7945  0.0215  0.3130
  708MOL0     C95488  12.653   2.918  10.009  0.6477  0.2647 -0.3218
  708MOL0    Cl95489  12.725   2.850   9.859  0.1346 -0.0844 -0.2137
  708MOL0     C95490  11.575   3.097  10.138  0.7370 -0.1457 -0.1638
  708MOL0     C95491  11.449   3.032  10.150  0.8330 -0.4597  0.0897
  708MOL0     O95492  11.329   2.710  10.402  0.0768 -0.3770 -0.1081
  708MOL0     C95493  11.071   2.609  10.329  0.0459  0.0609 -0.0106
  708MOL0     C95494  10.937   2.572  10.299 -0.0754 -0.7926 -0.1895
  708MOL0     N95495  10.174   2.576  10.446 -0.7136  0.6539  0.0956
  708MOL0     N95496  10.080   2.505  10.496 -0.3591 -1.1075 -0.4211
  708MOL0     C95497   8.901   2.655  10.014  0.0551 -0.3131 -0.1942
  708MOL0     C95498   8.821   2.761   9.967  0.2771  0.6958  0.5760
  708MOL0     C95499   8.533   3.094   9.947 -0.3068 -0.6279 -0.2131
  708MOL0     C95500   8.576   3.126   9.820  0.3836 -0.4215 -0.2518
  708MOL0     C95501   8.498   3.217   9.740 -0.0476  0.2810  1.0391
  708MOL0     C95502   8.377   3.271   9.782  0.1873 -0.2703 -0.1939
  708MOL0     O95503   8.321   3.361   9.693  0.1109  0.1385 -0.5745
  708MOL0     C95504   8.210   3.425   9.743 -0.5313 -0.0479  0.4605
  708MOL0     C95505   8.079   3.354   9.716 -0.2411  0.9339  0.6724
  708MOL0     C95506   7.958   3.429   9.766 -0.6844 -0.0730 -0.2412
  708MOL0     C95507   7.830   3.405   9.679 -0.4198 -0.8113 -0.0390
  708MOL0     C95508   7.819   3.261   9.649  0.3103  0.2191 -0.2814
  708MOL0     C95509   7.794   3.147   9.620 -0.8138 -0.0523  0.3308
  708MOL0     C95510   8.331   3.232   9.914  1.1562  0.5926 -0.9258
  708MOL0     C95511   8.401   3.133   9.990  0.3978 -0.0141  0.2102
  708MOL0     C95512   8.352   3.103  10.126 -0.0587 -0.7043 -0.0905
  708MOL0     H95513   8.886   2.985  10.220 -1.0216 -0.4449  1.9880
  708MOL0     H95514   9.032   2.817  10.279  1.4802 -0.4594 -0.4283
  708MOL0     H95515   9.156   2.493  10.015 -0.6158 -1.0401  2.1533
  708MOL0     H95516   9.176   2.664  10.019  1.3960 -0.1457  0.1036
  708MOL0     H95517   9.293   2.460  10.213  2.6009  1.2543  1.5542
  708MOL0     H95518   9.309   2.626  10.240 -0.4092  0.9877 -0.5951
  708MOL0     H95519   9.415   2.680  10.028 -2.4759  0.9958  2.5610
  708MOL0     H95520   9.442   2.502  10.001  0.7691 -0.5310  0.7434
  708MOL0     H95521   9.630   2.633  10.119 -1.3985  0.4493 -0.1517
  708MOL0     H95522   9.515   2.650  10.256 -3.6129 -1.6388 -0.1464
  708MOL0     H95523   9.535   2.411  10.298  0.2704 -1.3881 -1.4260
  708MOL0     H95524   9.624   2.386  10.146 -1.0639 -3.1662  1.6676
  708MOL0     H95525   9.802   2.540  10.263 -0.6939  2.1730  1.9929
  708MOL0     H95526   9.707   2.514  10.411  0.8312  1.2732 -0.5500
  708MOL0     H95527   9.831   2.300  10.226 -2.6955 -1.6594 -1.1871
  708MOL0     H95528   9.717   2.262  10.362  0.7330  1.0155  2.4574
  708MOL0     H95529   9.857   2.366  10.526  1.2129  0.4383  0.5330
  708MOL0     H95530   9.956   2.242  10.432  0.0243  0.3594 -0.3790
  708MOL0     H95531  10.050   2.411  10.195 -0.4392 -2.7460  0.7901
  708MOL0     H95532  10.265   2.507  10.125  2.5271 -3.5339  2.2431
  708MOL0     H95533  10.227   2.675  10.158 -0.9377  0.0340  1.5725
  708MOL0     H95534  10.409   2.688  10.331  1.2664 -0.0980  0.6909
  708MOL0     H95535  10.473   2.525  10.282  1.1177  1.3232  0.8357
  708MOL0     H95536  10.423   2.743  10.086 -1.4287 -1.3990 -0.4532
  708MOL0     H95537  10.503   2.591  10.063  0.2912  1.3826 -1.6597
  708MOL0     H95538  10.619   2.816  10.222 -1.2706 -0.5272  0.2829
  708MOL0     H95539  10.671   2.735  10.070  1.3962 -1.1381 -0.1054
  708MOL0     H95540  10.816   2.875  10.221  1.4424  1.8621  0.3366
  708MOL0     H95541  11.049   2.937  10.261  3.1254 -0.2348  2.9566
  708MOL0     H95542  11.527   2.857  10.428 -1.7906  0.9267 -0.0603
  708MOL0     H95543  11.746   2.957  10.397  0.9590 -4.5674 -3.0091
  708MOL0     H95544  11.839   3.278  10.368 -0.2188 -0.4425  0.3823
  708MOL0     H95545  11.884   3.107  10.394 -0.7284 -1.4248 -1.3556
  708MOL0     H95546  12.018   3.308  10.211  0.0939 -0.8112 -1.4090
  708MOL0     H95547  12.088   3.244  10.361  0.5318 -0.4747 -0.7106
  708MOL0     H95548  12.066   3.014  10.253  2.0211  0.1078  0.1669
  708MOL0     H95549  12.027   3.103  10.100  1.0850 -0.5767 -0.8868
  708MOL0     H95550  12.266   3.111  10.291  0.0377 -0.7157  0.0372
  708MOL0     H95551  12.262   3.218  10.146 -0.0042 -0.9627 -0.4045
  708MOL0     H95552  12.268   3.054   9.995  1.9569  1.1342  0.6999
  708MOL0     H95553  12.236   2.917  10.103 -0.8588  0.0132  0.2742
  708MOL0     H95554  12.489   3.085  10.139  2.0586 -0.6549 -1.8535
  708MOL0     H95555  12.457   2.909  10.170 -0.9561 -1.9215 -1.4178
  708MOL0     H95556  12.504   3.044   9.907  2.5337 -0.5101 -0.9039
  708MOL0     H95557  12.454   2.883   9.914 -1.0721  1.5309 -1.4174
  708MOL0     H95558  12.713   2.999  10.050  0.8519  0.9148 -1.8545
  708MOL0     H95559  12.649   2.837  10.083  2.3642  1.3504  1.0342
  708MOL0     H95560  11.616   3.167  10.064  2.2112 -1.5126 -0.7027
  708MOL0     H95561  11.377   3.057  10.072 -0.1007 -0.4067  0.9467
  708MOL0     H95562  11.136   2.533  10.372  0.3577  0.5804  0.4607
  708MOL0     H95563  10.898   2.472  10.308 -0.2087 -0.7674 -0.4711
  708MOL0     H95564   8.908   2.565   9.955  1.2898 -0.8976  0.7967
  708MOL0     H95565   8.777   2.761   9.868  1.5259  1.5201 -0.0000
  708MOL0     H95566   8.674   3.092   9.788  1.4172  1.8751  0.2786
  708MOL0     H95567   8.541   3.242   9.643  2.1833  2.8552  2.5626
  708MOL0     H95568   8.196   3.514   9.681 -0.5125 -1.3292 -1.4859
  708MOL0     H95569   8.217   3.448   9.849  1.7025  2.5564 -0.1273
  708MOL0     H95570   8.081   3.257   9.767 -4.8658  0.5482  0.5611
  708MOL0     H95571   8.069   3.332   9.610  1.6713 -0.8151  0.8070
  708MOL0     H95572   7.975   3.537   9.764 -2.1534  0.2136  0.9997
  708MOL0     H95573   7.939   3.392   9.868  1.0301  1.6434  0.7784
  708MOL0     H95574   7.738   3.437   9.729 -1.5181 -0.2031 -2.3307
  708MOL0     H95575   7.842   3.469   9.592 -0.4596  1.4530  1.5313
  708MOL0     H95576   7.771   3.044   9.601 -0.0119 -0.0212 -0.8533
  708MOL0     H95577   8.233   3.262   9.949  0.6722 -1.1967 -0.6478
  708MOL0     H95578   8.319   2.999  10.131 -0.6366 -0.4989  0.6748
  708MOL0     H95579   8.424   3.131  10.204  1.9525  2.4297 -2.8118
  708MOL0     H95580   8.264   3.167  10.144  1.3477  1.7997 -1.6153
  709MOL0     O95581   9.425   7.895   2.695  0.7257 -0.7230  0.7839
  709MOL0     C95582   9.386   7.964   2.600 -0.0701  0.0044  0.6409
  709MOL0     O95583   9.459   8.011   2.496 -0.7025 -0.7598  0.0136
  709MOL0     C95584   9.591   7.965   2.482 -0.0064 -0.0049  0.3271
  709MOL0     C95585   9.692   8.061   2.455 -0.0922 -0.3179  0.2302
  709MOL0     C95586   9.825   8.025   2.444 -0.4693 -0.1752 -0.0093
  709MOL0     C95587   9.868   7.891   2.466  0.9819  0.0575 -0.4958
  709MOL0     O95588  10.001   7.870   2.455  0.6537  0.2896  0.4933
  709MOL0     C95589  10.041   7.737   2.471 -0.0979 -0.9565  0.8487
  709MOL0     C95590  10.190   7.733   2.472 -0.7001  1.0900  0.3628
  709MOL0     C95591  10.240   7.584   2.485 -0.4393 -0.0566  0.5075
  709MOL0     C95592  10.388   7.567   2.501  0.1748  0.2854 -0.2979
  709MOL0     C95593  10.434   7.423   2.507 -0.4892  0.1260  0.3646
  709MOL0     C95594  10.570   7.403   2.563 -0.9348  0.7474  0.2817
  709MOL0     C95595  10.589   7.250   2.564  0.3812  0.5726 -0.0077
  709MOL0     C95596  10.737   7.195   2.559  0.2075 -0.0132 -0.1597
  709MOL0     N95597  10.823   7.284   2.638  0.0055 -0.2563 -0.3191
  709MOL0     C95598  10.841   7.292   2.777 -0.0878  1.1265  0.0586
  709MOL0     C95599  10.920   7.402   2.800  0.1938  0.6123 -0.3840
  709MOL0     C95600  10.964   7.434   2.937 -0.1163  0.8659  0.4666
  709MOL0     C95601  11.117   7.429   2.959 -0.5750  0.7001  1.0396
  709MOL0     C95602  11.172   7.295   2.896  0.3864  0.9723 -0.3034
  709MOL0     C95603  11.316   7.272   2.947 -0.0921  0.4676 -0.3585
  709MOL0     O95604  11.389   7.400   2.934 -0.4576 -0.0315 -0.3425
  709MOL0     C95605  11.525   7.412   2.975  0.8025 -0.3357 -0.3127
  709MOL0     C95606  11.597   7.309   3.025 -0.0137  0.7897 -0.3351
  709MOL0     C95607  11.738   7.318   3.023 -0.0296 -0.2547 -0.5050
  709MOL0     C95608  11.803   7.439   2.983  0.6119 -0.1440 -0.3155
  709MOL0     C95609  11.948   7.450   3.014 -0.4734 -0.4055  0.5094
  709MOL0     O95610  12.010   7.578   2.997  0.0689  0.4941 -0.7081
  709MOL0     C95611  12.137   7.604   3.037  0.8131  0.2225  0.4125
  709MOL0     C95612  12.188   7.727   2.980 -0.0873  0.1841  0.3655
  709MOL0     C95613  12.317   7.772   3.016 -0.4305  0.5837  0.7097
  709MOL0     C95614  12.389   7.707   3.113 -0.5601 -0.0038  0.3318
  709MOL0     O95615  12.500   7.774   3.147 -0.8050 -0.4191 -0.0193
  709MOL0     C95616  12.612   7.704   3.212  1.2819  0.1280 -0.5508
  709MOL0     C95617  12.733   7.794   3.245  0.3960 -0.3415  0.8893
  709MOL0     C95618  12.715   7.867   3.387  0.0896  0.7867  0.9250
  709MOL0     C95619  12.837   7.953   3.419  0.3817  0.6442  0.5857
  709MOL0     C95620  12.817   8.027   3.552 -0.3765 -0.4252 -0.0930
  709MOL0     C95621  12.941   8.108   3.577  0.0303 -0.4465  0.4358
  709MOL0     C95622  12.944   8.175   3.712  0.2438  0.9574  0.0646
  709MOL0     C95623  13.054   8.273   3.722  0.7115 -0.3206 -1.4839
  709MOL0    Cl95624  13.050   8.329   3.895 -0.0644  0.2727  0.2722
  709MOL0     C95625  12.347   7.585   3.164  0.1158  0.2078  0.4610
  709MOL0     C95626  12.220   7.535   3.123 -0.4354 -0.2592  0.1604
  709MOL0     O95627  12.006   7.345   3.047  0.2831  0.0421  0.8167
  709MOL0     C95628  11.723   7.547   2.942 -0.8337 -0.1541  0.4882
  709MOL0     C95629  11.584   7.534   2.930  0.3071  1.1856  0.1791
  709MOL0     N95630  10.953   7.455   2.683 -0.0497  0.0446  0.2786
  709MOL0     N95631  10.896   7.380   2.589 -1.1532  0.3302 -0.6527
  709MOL0     C95632   9.761   7.801   2.501  0.2488  0.1919 -0.0009
  709MOL0     C95633   9.631   7.837   2.514  0.4256 -0.6647 -0.6304
  709MOL0     C95634   9.240   8.005   2.588  0.1104 -0.4732  0.5741
  709MOL0     C95635   9.158   7.997   2.708 -0.1998 -0.6171 -0.0711
  709MOL0     C95636   9.029   8.047   2.706 -0.4908 -0.1156 -0.6226
  709MOL0     C95637   8.974   8.108   2.600 -0.1065 -0.3320  1.6267
  709MOL0     O95638   8.854   8.168   2.600 -0.2451  0.0445  0.0731
  709MOL0     C95639   8.818   8.245   2.719 -0.3233  0.6096 -0.8012
  709MOL0     C95640   8.680   8.301   2.705 -0.0122  0.0675 -0.2111
  709MOL0     C95641   8.569   8.201   2.735 -0.2347 -0.8426  0.4425
  709MOL0     C95642   8.424   8.258   2.735 -0.4042  0.5768  0.0873
  709MOL0     C95643   8.405   8.370   2.828 -0.8112 -0.0192  0.8392
  709MOL0     C95644   8.378   8.467   2.899 -0.3515 -0.3220  0.3468
  709MOL0     C95645   9.046   8.099   2.480  1.4930 -0.0614  0.9138
  709MOL0     C95646   9.173   8.046   2.469 -0.3494 -0.3351 -0.2003
  709MOL0     C95647   9.233   8.042   2.333  0.8196  0.3163 -0.2188
  709MOL0     H95648   9.677   8.166   2.431  1.2292 -0.4134 -1.2673
  709MOL0     H95649   9.902   8.095   2.414  0.7665 -1.3308  0.3431
  709MOL0     H95650  10.014   7.694   2.568 -1.2276  1.3936  1.6524
  709MOL0     H95651  10.011   7.682   2.381  0.3760  0.7323 -0.4012
  709MOL0     H95652  10.239   7.798   2.545  0.7068 -0.7445  1.1313
  709MOL0     H95653  10.227   7.778   2.379  4.0353 -0.7280  1.0797
  709MOL0     H95654  10.210   7.534   2.393  0.9416  0.7441 -0.4210
  709MOL0     H95655  10.185   7.542   2.569 -1.4734  1.6282  0.7243
  709MOL0     H95656  10.450   7.610   2.422  2.4120 -3.0066 -0.5669
  709MOL0     H95657  10.412   7.613   2.598 -2.5912  0.2619  0.4877
  709MOL0     H95658  10.364   7.364   2.567 -0.8877  2.2412  2.1190
  709MOL0     H95659  10.441   7.384   2.404 -0.6557  1.1827 -0.0588
  709MOL0     H95660  10.647   7.454   2.504  1.4555 -1.3793  1.3837
  709MOL0     H95661  10.578   7.451   2.661 -0.1486 -0.9094  1.0590
  709MOL0     H95662  10.546   7.205   2.474  1.2820  0.0314 -0.1838
  709MOL0     H95663  10.536   7.216   2.654  1.2795  0.7266  0.5936
  709MOL0     H95664  10.740   7.091   2.594  1.4457 -0.3712 -1.2379
  709MOL0     H95665  10.777   7.199   2.457 -0.3505  2.5054 -0.3497
  709MOL0     H95666  10.805   7.233   2.861 -0.7354  1.8510  0.3091
  709MOL0     H95667  10.934   7.533   2.971  1.0817  1.1640  0.6808
  709MOL0     H95668  10.914   7.357   2.998  3.2628 -3.0937 -1.2612
  709MOL0     H95669  11.158   7.513   2.903 -2.6661  0.3279 -1.2199
  709MOL0     H95670  11.142   7.417   3.064  0.8917  1.7094  0.8270
  709MOL0     H95671  11.168   7.300   2.787 -0.2204  3.1249 -0.2316
  709MOL0     H95672  11.099   7.222   2.932  0.5133  1.5423  1.1668
  709MOL0     H95673  11.374   7.191   2.902  3.9303  1.7465  2.0023
  709MOL0     H95674  11.319   7.249   3.054 -0.6240  0.0152 -0.4363
  709MOL0     H95675  11.546   7.217   3.051 -0.8025  1.3837  0.2607
  709MOL0     H95676  11.801   7.242   3.068 -0.6923 -1.2410 -1.1987
  709MOL0     H95677  12.140   7.782   2.900  1.9339  2.1791  0.4362
  709MOL0     H95678  12.349   7.863   2.965 -0.2400  0.9196  1.4229
  709MOL0     H95679  12.570   7.657   3.302  1.6000 -2.4739 -1.6760
  709MOL0     H95680  12.640   7.629   3.138  2.6960  2.3579 -2.4275
  709MOL0     H95681  12.819   7.726   3.250  0.5784 -0.5293 -2.5378
  709MOL0     H95682  12.743   7.867   3.165  0.4765 -0.4423  0.8057
  709MOL0     H95683  12.624   7.927   3.379  1.3354  2.7645  0.9810
  709MOL0     H95684  12.709   7.785   3.459  1.1614 -0.4370 -0.3185
  709MOL0     H95685  12.852   8.029   3.342  1.1696 -0.6236 -0.5472
  709MOL0     H95686  12.924   7.889   3.435  3.1352  4.4311  2.5861
  709MOL0     H95687  12.813   7.960   3.639  1.7738 -0.9021 -0.3196
  709MOL0     H95688  12.726   8.088   3.545 -0.3578 -0.4574 -0.6530
  709MOL0     H95689  13.017   8.033   3.600 -0.7183 -0.8153  1.8022
  709MOL0     H95690  12.962   8.166   3.486 -1.4650 -0.6581 -0.0599
  709MOL0     H95691  12.952   8.097   3.789 -0.0714 -0.4187 -1.2560
  709MOL0     H95692  12.848   8.226   3.719  0.3179  2.2942 -5.0006
  709MOL0     H95693  13.147   8.226   3.689  0.4292 -2.1100  0.1005
  709MOL0     H95694  13.042   8.362   3.659 -1.1928  0.2657 -0.3844
  709MOL0     H95695  12.407   7.530   3.235 -1.5771 -1.6530  0.5403
  709MOL0     H95696  12.192   7.436   3.160  1.5131 -0.2508  1.8278
  709MOL0     H95697  11.775   7.636   2.908  0.7182 -1.1977  0.0086
  709MOL0     H95698  11.522   7.618   2.899 -1.4831  0.0885  0.6489
  709MOL0     H95699   9.789   7.696   2.514  1.9458  0.3547 -1.9038
  709MOL0     H95700   9.556   7.774   2.560  1.5997 -0.2814  1.9934
  709MOL0     H95701   9.205   7.963   2.799 -2.0951 -2.1788  0.3967
  709MOL0     H95702   8.973   8.027   2.797 -0.0825  0.2842 -0.2759
  709MOL0     H95703   8.894   8.323   2.731 -0.7513  0.8584  0.3705
  709MOL0     H95704   8.832   8.186   2.810  1.4959 -0.2071 -1.5569
  709MOL0     H95705   8.664   8.339   2.604 -0.7485  2.1863  0.6617
  709MOL0     H95706   8.685   8.388   2.770  1.6933 -0.6283  0.6504
  709MOL0     H95707   8.588   8.164   2.836  0.4170 -0.2505  0.5427
  709MOL0     H95708   8.576   8.114   2.670  1.0756 -0.3798 -0.0613
  709MOL0     H95709   8.405   8.298   2.635 -1.6164 -1.2105 -0.4261
  709MOL0     H95710   8.347   8.184   2.756 -1.3837  1.6881  0.5404
  709MOL0     H95711   8.348   8.540   2.971 -0.4569 -2.7516  2.9486
  709MOL0     H95712   8.993   8.140   2.395  2.0787  3.6547  2.1540
  709MOL0     H95713   9.154   8.034   2.258  1.1053  0.2005 -0.5133
  709MOL0     H95714   9.291   8.135   2.323  0.5893  1.3395  5.0208
  709MOL0     H95715   9.304   7.960   2.319  0.5259 -0.1545  0.9499
  710MOL0     O95716   6.394   7.609   4.748  1.0152 -0.0937 -0.2399
  710MOL0     C95717   6.363   7.712   4.685  0.3040 -0.0573 -0.8173
  710MOL0     O95718   6.421   7.752   4.571  0.4147 -0.4874  0.7453
  710MOL0     C95719   6.531   7.687   4.516 -0.2325  0.5982 -0.1200
  710MOL0     C95720   6.519   7.626   4.386  0.6927  0.5266  0.2953
  710MOL0     C95721   6.627   7.549   4.337 -1.0495  0.0925 -0.5632
  710MOL0     C95722   6.756   7.546   4.405 -0.0044  0.0416  0.2334
  710MOL0     O95723   6.867   7.462   4.369  0.2619  0.1844 -0.0376
  710MOL0     C95724   6.845   7.360   4.277 -0.3197 -0.1904 -0.1649
  710MOL0     C95725   6.952   7.254   4.265 -0.2603 -0.4914  0.1525
  710MOL0     C95726   7.094   7.300   4.249 -0.1381  0.1229 -0.3536
  710MOL0     C95727   7.166   7.179   4.180  0.3959 -1.2938 -0.1889
  710MOL0     C95728   7.319   7.197   4.181  0.3416  0.0671 -0.0010
  710MOL0     C95729   7.391   7.070   4.131 -0.0439  0.2771  0.4484
  710MOL0     C95730   7.546   7.080   4.122  0.2683  0.7608 -0.0461
  710MOL0     C95731   7.627   7.075   4.249 -0.3524 -0.7074  0.0399
  710MOL0     N95732   7.770   7.078   4.213 -0.1214  0.5816 -0.4364
  710MOL0     C95733   7.832   7.189   4.182 -1.0741  0.9349  0.2002
  710MOL0     C95734   7.952   7.136   4.123 -0.2284 -0.4507  1.0737
  710MOL0     C95735   8.058   7.217   4.043 -0.1785 -0.3165 -0.2068
  710MOL0     C95736   8.177   7.261   4.134 -0.3225 -0.1965  0.5531
  710MOL0     C95737   8.300   7.313   4.054 -0.7765 -0.0029  0.1540
  710MOL0     C95738   8.411   7.208   4.037 -0.2551  0.2620 -0.3830
  710MOL0     O95739   8.514   7.238   3.942  0.5921 -0.7555 -0.5478
  710MOL0     C95740   8.645   7.205   3.974  0.0958  0.3995  0.3587
  710MOL0     C95741   8.740   7.235   3.870  0.3192 -0.7494 -0.0305
  710MOL0     C95742   8.871   7.183   3.871 -0.5182 -0.3135  0.4837
  710MOL0     C95743   8.921   7.123   3.996  0.4147  0.3187  1.1575
  710MOL0     C95744   9.058   7.093   4.018 -0.4189  0.5229 -0.2712
  710MOL0     O95745   9.147   7.117   3.914 -0.3120 -0.1565  0.2620
  710MOL0     C95746   9.283   7.101   3.937  0.0448  0.3991 -0.0662
  710MOL0     C95747   9.351   7.134   4.055 -0.3170 -0.0069 -0.6650
  710MOL0     C95748   9.491   7.134   4.051  0.4617 -0.1973 -0.6279
  710MOL0     C95749   9.575   7.112   3.945  0.1835  0.0311  0.3728
  710MOL0     O95750   9.710   7.126   3.934 -0.2176 -0.1934 -0.0703
  710MOL0     C95751   9.784   7.152   4.055  0.0245 -0.8059  0.0083
  710MOL0     C95752   9.934   7.155   4.021  0.2191  0.3124  0.8698
  710MOL0     C95753  10.027   7.174   4.134  0.2113 -0.1203  0.4325
  710MOL0     C95754  10.077   7.318   4.145  0.0084 -0.2157  0.6348
  710MOL0     C95755  10.144   7.358   4.281 -0.2386  0.3167 -0.9240
  710MOL0     C95756  10.291   7.292   4.285 -0.1086 -0.1957  0.0067
  710MOL0     C95757  10.373   7.350   4.406  0.4916  1.0154 -0.0351
  710MOL0     C95758  10.504   7.270   4.421  0.1395  0.9991  0.4839
  710MOL0    Cl95759  10.615   7.361   4.313 -0.6481  0.3955  0.5721
  710MOL0     C95760   9.500   7.079   3.827  0.2966  0.1251  0.4166
  710MOL0     C95761   9.358   7.065   3.825  0.1198 -0.1993 -0.0195
  710MOL0     O95762   9.091   7.043   4.122 -0.1550  0.0792 -0.6052
  710MOL0     C95763   8.831   7.101   4.099 -0.2163  0.6475 -0.5852
  710MOL0     C95764   8.696   7.131   4.080  0.0062  0.1184  0.1907
  710MOL0     N95765   7.946   6.999   4.125  0.3238 -0.3638  0.7091
  710MOL0     N95766   7.837   6.962   4.188 -0.8779  0.0728 -0.2880
  710MOL0     C95767   6.765   7.619   4.518 -0.1666 -0.4041  0.2402
  710MOL0     C95768   6.659   7.687   4.569  0.8326 -0.1669  0.0799
  710MOL0     C95769   6.233   7.787   4.727 -0.3176 -0.0224  0.3426
  710MOL0     C95770   6.159   7.850   4.620 -1.2854  0.2985  0.2732
  710MOL0     C95771   6.035   7.913   4.651 -0.3733 -0.3289 -0.1598
  710MOL0     C95772   5.986   7.927   4.779  0.2126 -0.2275  0.6041
  710MOL0     O95773   5.873   7.999   4.787 -1.2987 -0.4278 -0.1129
  710MOL0     C95774   5.842   8.048   4.913 -0.0045  0.1840  0.3899
  710MOL0     C95775   5.761   8.179   4.907  1.1706  0.5310  0.3681
  710MOL0     C95776   5.695   8.212   5.048 -0.0975 -0.0453  0.1514
  710MOL0     C95777   5.547   8.168   5.034 -0.0691  0.6476 -0.4683
  710MOL0     C95778   5.469   8.207   5.152 -0.3743 -0.8516 -0.5383
  710MOL0     C95779   5.411   8.243   5.248  0.0417  0.6692 -0.5814
  710MOL0     C95780   6.058   7.858   4.880  0.3140  0.0105 -0.6235
  710MOL0     C95781   6.183   7.798   4.861  0.5384  0.2215  0.5996
  710MOL0     C95782   6.250   7.727   4.982  0.6307 -0.0461 -0.7515
  710MOL0     H95783   6.431   7.636   4.323  0.5279 -1.1761  0.2003
  710MOL0     H95784   6.625   7.492   4.244 -0.6849  2.5303 -2.1439
  710MOL0     H95785   6.750   7.317   4.308 -0.4619  0.0874 -0.2087
  710MOL0     H95786   6.836   7.408   4.179 -2.6974  2.8551  1.3335
  710MOL0     H95787   6.921   7.183   4.188  1.2075  0.3815 -1.3218
  710MOL0     H95788   6.946   7.202   4.361  0.5764 -1.5979 -0.3806
  710MOL0     H95789   7.144   7.328   4.342 -2.2712 -1.5809  1.4248
  710MOL0     H95790   7.090   7.387   4.182 -1.9592  0.5583  0.2425
  710MOL0     H95791   7.146   7.085   4.232 -2.1920 -0.0846  1.2482
  710MOL0     H95792   7.137   7.167   4.075  1.0769  1.3137 -0.7662
  710MOL0     H95793   7.340   7.282   4.116  0.4982 -1.1889 -1.6368
  710MOL0     H95794   7.363   7.220   4.279  1.7823  0.5009 -0.7235
  710MOL0     H95795   7.365   6.986   4.197  2.9989  0.4823  2.1049
  710MOL0     H95796   7.356   7.041   4.032 -2.3624 -0.4162  1.3916
  710MOL0     H95797   7.564   7.177   4.076  3.3982 -0.0540 -0.7523
  710MOL0     H95798   7.579   6.997   4.059  1.0529  2.3450 -1.8267
  710MOL0     H95799   7.604   7.162   4.311  3.4931  1.0919 -0.7359
  710MOL0     H95800   7.605   6.988   4.311 -0.2399 -0.4951  0.3795
  710MOL0     H95801   7.806   7.294   4.178  0.2793  1.2705 -0.3669
  710MOL0     H95802   8.087   7.152   3.959 -1.3067  0.1522 -0.9852
  710MOL0     H95803   8.017   7.303   3.990  0.9596  1.0948  1.1367
  710MOL0     H95804   8.138   7.342   4.197  1.1606  1.3919 -0.4699
  710MOL0     H95805   8.199   7.170   4.190  1.6837 -0.2691 -0.2944
  710MOL0     H95806   8.326   7.407   4.104 -1.9999 -0.9043  2.6814
  710MOL0     H95807   8.272   7.327   3.950  0.2005 -1.9663 -0.4121
  710MOL0     H95808   8.365   7.112   4.012 -2.3701  1.2974 -0.7648
  710MOL0     H95809   8.442   7.193   4.141 -0.0426  1.7911 -0.1993
  710MOL0     H95810   8.704   7.301   3.792 -2.7992 -0.8205  1.2006
  710MOL0     H95811   8.947   7.213   3.800 -0.4145 -2.7458 -0.5137
  710MOL0     H95812   9.311   7.173   4.148  1.9527 -0.6589  0.6403
  710MOL0     H95813   9.549   7.163   4.138  0.2268 -1.7439  0.0757
  710MOL0     H95814   9.749   7.244   4.103 -2.1970  0.0604 -2.9736
  710MOL0     H95815   9.759   7.071   4.124  0.6542  1.1034  2.6246
  710MOL0     H95816   9.958   7.063   3.967 -0.3432  0.4728  0.3283
  710MOL0     H95817   9.960   7.233   3.949  3.0667  0.7425  2.1986
  710MOL0     H95818   9.997   7.133   4.231 -2.0802 -0.5680 -0.4155
  710MOL0     H95819  10.117   7.114   4.114  2.4791  2.9063  0.7773
  710MOL0     H95820   9.995   7.388   4.126  0.1890 -0.2028 -0.1552
  710MOL0     H95821  10.148   7.347   4.067  0.5539  0.2226  1.2797
  710MOL0     H95822  10.073   7.327   4.359 -0.4658  3.1614  0.1108
  710MOL0     H95823  10.149   7.467   4.282 -2.0303  0.4781  1.6079
  710MOL0     H95824  10.287   7.185   4.304 -0.9809 -0.2887 -0.6013
  710MOL0     H95825  10.336   7.307   4.186 -1.6029  0.6815 -0.5847
  710MOL0     H95826  10.314   7.336   4.497 -0.5810 -1.2734 -1.0034
  710MOL0     H95827  10.389   7.458   4.403 -0.7133  1.2431  0.9930
  710MOL0     H95828  10.537   7.267   4.525 -1.7190 -0.4159  1.0805
  710MOL0     H95829  10.492   7.168   4.385 -0.0531  0.1236  2.8628
  710MOL0     H95830   9.547   7.039   3.737 -1.2386 -0.2238 -0.2597
  710MOL0     H95831   9.308   7.031   3.734  0.4754  2.4994 -1.3252
  710MOL0     H95832   8.874   7.059   4.190  1.4917 -0.4943 -1.8492
  710MOL0     H95833   8.625   7.102   4.157 -3.2962  3.3340 -1.3542
  710MOL0     H95834   6.856   7.625   4.576  0.9120 -0.6368 -1.3594
  710MOL0     H95835   6.666   7.742   4.662  2.1734 -0.3786  0.1253
  710MOL0     H95836   6.184   7.860   4.515 -2.2676  0.1846  0.0129
  710MOL0     H95837   5.982   7.952   4.565 -2.6724 -0.6511  1.0572
  710MOL0     H95838   5.925   8.058   4.984 -0.1325 -0.5453  0.6529
  710MOL0     H95839   5.787   7.973   4.970 -1.6580  1.6145  0.7439
  710MOL0     H95840   5.687   8.172   4.827  1.4489 -0.9234  0.2008
  710MOL0     H95841   5.823   8.258   4.864  2.4891  1.0727  3.0432
  710MOL0     H95842   5.703   8.319   5.066 -0.2680  0.1820 -1.0222
  710MOL0     H95843   5.737   8.154   5.131 -1.6542 -1.7204 -0.1665
  710MOL0     H95844   5.501   8.209   4.944  1.2231 -1.7279 -2.3272
  710MOL0     H95845   5.551   8.061   5.014  2.1394  0.2884  1.5103
  710MOL0     H95846   5.343   8.280   5.323 -1.5785 -1.0206 -1.1339
  710MOL0     H95847   5.997   7.850   4.970 -1.2617 -0.5813 -1.6993
  710MOL0     H95848   6.354   7.757   4.994  0.1556  1.2212  0.5749
  710MOL0     H95849   6.193   7.747   5.073  0.6535  3.2864 -1.3379
  710MOL0     H95850   6.238   7.621   4.959 -1.3899  0.0297 -0.2126
  711MOL0     O95851   5.210   5.533   7.015  0.3730 -0.1735 -0.2665
  711MOL0     C95852   5.245   5.632   6.948 -0.2693  0.9670 -0.5437
  711MOL0     O95853   5.256   5.757   7.003 -0.4115 -0.1218 -0.0883
  711MOL0     C95854   5.258   5.779   7.138 -0.5606 -0.3979  0.3295
  711MOL0     C95855   5.312   5.688   7.225 -0.4353 -0.0017 -0.3921
  711MOL0     C95856   5.321   5.704   7.361  0.2674  0.4396 -0.6889
  711MOL0     C95857   5.272   5.830   7.416  0.2291  1.0498  0.4122
  711MOL0     O95858   5.262   5.854   7.552 -0.3044 -0.1147  1.3806
  711MOL0     C95859   5.373   5.807   7.631  0.8628 -1.0495  0.3932
  711MOL0     C95860   5.424   5.925   7.703 -1.0400  0.0493 -0.7260
  711MOL0     C95861   5.520   5.896   7.820 -0.2398  0.8978  0.4950
  711MOL0     C95862   5.579   6.020   7.873 -0.5734 -0.1653  1.0777
  711MOL0     C95863   5.658   6.002   7.998 -0.2103 -0.6598  0.0950
  711MOL0     C95864   5.771   5.908   7.986 -0.0661  0.2107 -0.2893
  711MOL0     C95865   5.856   5.882   8.114  1.0909  0.6521  0.5324
  711MOL0     C95866   5.963   5.979   8.134 -0.6495 -0.2240  0.9220
  711MOL0     N95867   6.049   5.931   8.239 -0.0211 -0.6221  1.1866
  711MOL0     C95868   6.119   5.808   8.233 -0.1643  1.2543  0.0786
  711MOL0     C95869   6.190   5.797   8.349  0.7982 -0.0199 -0.0327
  711MOL0     C95870   6.285   5.689   8.386 -0.7688  0.5466 -0.3621
  711MOL0     C95871   6.401   5.677   8.280 -0.6310  0.2783  0.6409
  711MOL0     C95872   6.527   5.609   8.347  0.5071 -0.2371  0.2580
  711MOL0     C95873   6.636   5.596   8.250 -0.5354  0.5087  0.7443
  711MOL0     O95874   6.753   5.534   8.313  0.5315 -0.3289 -0.1314
  711MOL0     C95875   6.878   5.570   8.260 -0.2775  1.3368 -0.0276
  711MOL0     C95876   6.899   5.591   8.129 -0.1695 -0.1883  0.5095
  711MOL0     C95877   7.026   5.617   8.078  0.3889  0.1729  0.0188
  711MOL0     C95878   7.139   5.607   8.160  0.7862  0.1935  0.0000
  711MOL0     C95879   7.280   5.630   8.123  0.3304 -0.0420 -0.1342
  711MOL0     O95880   7.385   5.581   8.201 -0.6829 -0.2687  1.3069
  711MOL0     C95881   7.512   5.585   8.153 -0.0169  0.5380 -0.7054
  711MOL0     C95882   7.602   5.570   8.261  0.0270  0.3603 -0.1715
  711MOL0     C95883   7.739   5.551   8.248  0.1145 -0.5247 -0.1755
  711MOL0     C95884   7.786   5.547   8.120 -0.3541  0.4594  0.2998
  711MOL0     O95885   7.920   5.539   8.113 -0.2839  0.1216  0.4868
  711MOL0     C95886   7.995   5.576   7.991  0.1049 -0.1616  0.4354
  711MOL0     C95887   8.126   5.634   8.032  0.1824  0.1092  0.5801
  711MOL0     C95888   8.209   5.522   8.104  0.8809  0.2378  0.2767
  711MOL0     C95889   8.355   5.563   8.111  0.0405 -0.6174  0.1312
  711MOL0     C95890   8.458   5.453   8.084  0.1318 -0.7975  0.2318
  711MOL0     C95891   8.609   5.489   8.100  0.9619 -0.6530 -0.0723
  711MOL0     C95892   8.684   5.381   8.026  0.1778 -0.6082 -0.8291
  711MOL0     C95893   8.834   5.411   8.031 -0.6378  0.9034  0.6211
  711MOL0    Cl95894   8.853   5.536   7.912 -0.1040  0.3217 -0.0093
  711MOL0     C95895   7.706   5.552   8.002 -0.0212  0.6089 -0.0478
  711MOL0     C95896   7.569   5.571   8.023  0.3239 -0.2569  0.3080
  711MOL0     O95897   7.293   5.690   8.015 -0.5981 -0.8090  0.2762
  711MOL0     C95898   7.110   5.585   8.300  0.3034 -0.3971  0.5872
  711MOL0     C95899   6.981   5.566   8.348  0.2695 -0.0835  0.6757
  711MOL0     N95900   6.151   5.909   8.430  0.6871  0.3197 -0.3435
  711MOL0     N95901   6.062   5.983   8.363  0.5172 -0.2497  0.7278
  711MOL0     C95902   5.205   5.916   7.326 -0.4107  0.0027 -0.0642
  711MOL0     C95903   5.201   5.898   7.186 -0.2911  0.4178  0.5297
  711MOL0     C95904   5.240   5.623   6.800 -0.1209 -0.6048  0.1359
  711MOL0     C95905   5.212   5.737   6.725  0.4644 -0.9945  0.1841
  711MOL0     C95906   5.191   5.724   6.584 -1.3361 -0.0505  0.8308
  711MOL0     C95907   5.199   5.600   6.515 -0.5732  0.0492  0.2747
  711MOL0     O95908   5.178   5.600   6.377 -0.0746  0.7452 -0.2982
  711MOL0     C95909   5.278   5.674   6.316 -0.8059 -0.1112 -0.5954
  711MOL0     C95910   5.418   5.610   6.346 -0.1939  0.7608 -0.8250
  711MOL0     C95911   5.521   5.674   6.266  0.2937  0.2424  0.3090
  711MOL0     C95912   5.593   5.795   6.330  0.2322  0.9481  0.4271
  711MOL0     C95913   5.683   5.747   6.443 -0.0326 -0.1711  0.0132
  711MOL0     C95914   5.755   5.711   6.530 -1.1392  0.1065 -0.0856
  711MOL0     C95915   5.224   5.485   6.595  0.4663  0.5539  0.6163
  711MOL0     C95916   5.253   5.499   6.730  0.0745 -0.4607 -0.7750
  711MOL0     C95917   5.295   5.366   6.802  0.3392 -0.6429  0.1549
  711MOL0     H95918   5.355   5.596   7.188 -0.2564 -0.5468  1.0941
  711MOL0     H95919   5.366   5.631   7.427  2.0254 -1.6834 -3.9288
  711MOL0     H95920   5.331   5.742   7.709  1.3093 -2.9529 -0.8766
  711MOL0     H95921   5.448   5.747   7.579  0.1567 -0.1986 -1.7102
  711MOL0     H95922   5.336   5.975   7.746 -1.3871 -1.8576  0.8977
  711MOL0     H95923   5.479   5.995   7.638  1.2110 -0.4407  0.5566
  711MOL0     H95924   5.598   5.824   7.793  1.9204  2.0821  3.1482
  711MOL0     H95925   5.464   5.839   7.895 -1.4378  0.5759 -0.5915
  711MOL0     H95926   5.650   6.068   7.804 -2.2873  0.6738 -0.1657
  711MOL0     H95927   5.504   6.097   7.890 -0.0240  0.2521  1.6417
  711MOL0     H95928   5.698   6.103   8.014  1.5434 -0.9419 -1.9861
  711MOL0     H95929   5.584   5.979   8.075 -2.7450  2.0851 -1.2667
  711MOL0     H95930   5.718   5.814   7.969  1.0476 -0.0673 -2.4968
  711MOL0     H95931   5.824   5.939   7.896  1.4090  1.1146  0.8517
  711MOL0     H95932   5.901   5.783   8.105  0.3792  0.2602  1.1626
  711MOL0     H95933   5.793   5.879   8.203  1.8603  2.8194  1.1889
  711MOL0     H95934   6.027   5.991   8.046  0.7486  3.8065  2.2413
  711MOL0     H95935   5.932   6.081   8.156  0.1743  0.6047 -1.5005
  711MOL0     H95936   6.121   5.733   8.155  1.5397 -3.0809  3.8349
  711MOL0     H95937   6.331   5.701   8.484  0.7561  2.7774 -1.2595
  711MOL0     H95938   6.252   5.585   8.392 -0.1765  0.4329  2.0063
  711MOL0     H95939   6.374   5.617   8.192  0.5484 -0.4989  0.7688
  711MOL0     H95940   6.432   5.779   8.257  0.4595  0.0046  0.8225
  711MOL0     H95941   6.500   5.511   8.386  2.2395 -0.5331  0.8309
  711MOL0     H95942   6.549   5.676   8.431 -4.1142  1.8933  0.1024
  711MOL0     H95943   6.676   5.693   8.220  2.0482 -0.7769 -0.2341
  711MOL0     H95944   6.596   5.534   8.169 -0.3721 -1.0883  1.8240
  711MOL0     H95945   6.809   5.587   8.069 -1.5645  1.4556  2.3880
  711MOL0     H95946   7.043   5.636   7.972 -1.0067 -0.0861 -0.2711
  711MOL0     H95947   7.538   5.559   8.348 -1.9978 -2.4439 -1.8605
  711MOL0     H95948   7.798   5.524   8.335 -1.7587 -3.7012  0.2908
  711MOL0     H95949   8.018   5.487   7.932 -0.6403 -0.0736 -0.0041
  711MOL0     H95950   7.941   5.654   7.936 -2.0102 -1.8600 -0.0268
  711MOL0     H95951   8.180   5.668   7.944 -0.0651 -0.4355  0.2111
  711MOL0     H95952   8.108   5.727   8.087 -0.3557  1.2078 -1.3517
  711MOL0     H95953   8.173   5.497   8.204  3.0711  2.3585  1.7218
  711MOL0     H95954   8.198   5.426   8.053 -1.6341 -0.2175  1.5467
  711MOL0     H95955   8.365   5.605   8.212 -2.5487 -1.8231  0.9756
  711MOL0     H95956   8.378   5.642   8.039 -4.9438  1.1524  0.0936
  711MOL0     H95957   8.444   5.415   7.982 -0.1914  0.3278 -0.1571
  711MOL0     H95958   8.428   5.378   8.158 -2.5323 -3.4939 -3.2359
  711MOL0     H95959   8.630   5.590   8.064  1.3035 -1.3526 -1.9957
  711MOL0     H95960   8.637   5.483   8.205 -3.7424 -1.5556  1.3673
  711MOL0     H95961   8.648   5.370   7.924  1.8727 -3.9295 -1.2247
  711MOL0     H95962   8.654   5.287   8.073 -0.7256  1.7648  4.0418
  711MOL0     H95963   8.872   5.437   8.130 -0.7117  3.3629  0.0633
  711MOL0     H95964   8.870   5.315   7.992  0.3480  1.4939  0.0177
  711MOL0     H95965   7.750   5.549   7.903  1.3751  2.9044  0.4243
  711MOL0     H95966   7.504   5.581   7.937  0.0927  0.7290  0.5942
  711MOL0     H95967   7.197   5.576   8.364  1.2816 -1.1152 -0.7637
  711MOL0     H95968   6.960   5.539   8.450 -2.4087  1.2352  0.5424
  711MOL0     H95969   5.167   6.005   7.375 -1.5016 -0.8840  0.7497
  711MOL0     H95970   5.172   5.975   7.115 -0.4110 -0.6538 -0.6135
  711MOL0     H95971   5.199   5.835   6.771  4.5788 -0.6644  0.9974
  711MOL0     H95972   5.173   5.816   6.530  2.3269  1.5460  2.0106
  711MOL0     H95973   5.277   5.778   6.351 -2.5894 -0.7870  1.6586
  711MOL0     H95974   5.250   5.687   6.211  1.7423  0.2324 -1.2915
  711MOL0     H95975   5.414   5.503   6.320  2.9056  0.9402 -2.5102
  711MOL0     H95976   5.455   5.609   6.449  0.5647 -0.1421 -1.0845
  711MOL0     H95977   5.471   5.685   6.170  1.6477 -1.8860 -0.6979
  711MOL0     H95978   5.595   5.603   6.230  0.8779  1.4920 -1.0352
  711MOL0     H95979   5.650   5.857   6.261 -0.9592  0.4594 -1.0282
  711MOL0     H95980   5.515   5.860   6.371 -0.8721 -0.4186  0.5596
  711MOL0     H95981   5.834   5.689   6.600  0.3014 -1.7453 -2.1323
  711MOL0     H95982   5.237   5.397   6.533  0.4030  2.1499 -1.7528
  711MOL0     H95983   5.197   5.338   6.842 -0.4595  1.6310 -0.0844
  711MOL0     H95984   5.332   5.282   6.743 -0.2124 -1.1497  0.5165
  711MOL0     H95985   5.372   5.384   6.878  1.3360 -2.1377 -0.4496
  712MOL0     O95986   7.870   1.840   4.271 -0.4911 -0.6641  0.7459
  712MOL0     C95987   7.773   1.775   4.300 -0.8780 -0.5162 -0.4329
  712MOL0     O95988   7.765   1.672   4.396  0.3465  0.4028  0.7897
  712MOL0     C95989   7.878   1.641   4.467 -0.2762 -0.7789  0.3323
  712MOL0     C95990   7.998   1.608   4.398 -0.6232 -0.7363 -0.7638
  712MOL0     C95991   8.112   1.562   4.471  0.0607 -0.0846  0.3344
  712MOL0     C95992   8.120   1.567   4.602  0.8420  0.0443  0.1625
  712MOL0     O95993   8.234   1.545   4.679  0.1443 -0.0345  0.2101
  712MOL0     C95994   8.363   1.564   4.624  0.4676  0.2321  0.3628
  712MOL0     C95995   8.465   1.564   4.735  0.3148  0.3660 -0.4800
  712MOL0     C95996   8.607   1.596   4.672  0.7578 -0.0921  0.7143
  712MOL0     C95997   8.715   1.591   4.776 -0.4335 -1.2761  0.3183
  712MOL0     C95998   8.849   1.642   4.725 -0.4806 -0.4934  0.1466
  712MOL0     C95999   8.950   1.664   4.844  0.3981 -0.6553  0.4510
  712MOL0     C96000   9.092   1.709   4.806 -0.0448 -0.2400  0.4861
  712MOL0     C96001   9.187   1.734   4.923  0.1172 -0.2322  0.4830
  712MOL0     N96002   9.244   1.614   4.973  0.5559  0.0332  0.1715
  712MOL0     C96003   9.210   1.539   5.088  0.3391  0.1953  0.2591
  712MOL0     C96004   9.307   1.455   5.110 -0.6461  0.0914  0.8295
  712MOL0     C96005   9.303   1.340   5.215  0.0080  0.7877 -0.3812
  712MOL0     C96006   9.408   1.354   5.338 -0.2615 -0.7310  1.1827
  712MOL0     C96007   9.555   1.319   5.308 -0.8925 -0.3516  0.0975
  712MOL0     C96008   9.639   1.371   5.429  0.4304  0.6696  0.5631
  712MOL0     O96009   9.774   1.307   5.434  0.1519  0.1245 -0.5372
  712MOL0     C96010   9.875   1.370   5.507  0.5151  0.0618 -0.1050
  712MOL0     C96011  10.000   1.312   5.499 -1.7838  0.0305  0.6321
  712MOL0     C96012  10.109   1.361   5.570  0.6386  1.2372  0.5967
  712MOL0     C96013  10.098   1.476   5.652  0.0229 -0.0066  0.1665
  712MOL0     C96014  10.217   1.516   5.734 -1.0536 -0.4075  0.6145
  712MOL0     O96015  10.339   1.456   5.718  0.1002 -0.1249  0.1025
  712MOL0     C96016  10.436   1.486   5.811  1.1714  0.1932 -0.7175
  712MOL0     C96017  10.548   1.544   5.769  0.1242 -0.4189 -0.3432
  712MOL0     C96018  10.656   1.582   5.855 -0.0467  0.3454 -1.1058
  712MOL0     C96019  10.644   1.546   5.992  0.5694 -0.7468 -0.3825
  712MOL0     O96020  10.736   1.557   6.089  0.6489 -0.8959 -0.6247
  712MOL0     C96021  10.859   1.616   6.052 -0.2176 -0.1043  0.0128
  712MOL0     C96022  10.934   1.661   6.173 -0.2332 -0.6989  0.6667
  712MOL0     C96023  11.077   1.702   6.133  0.7774 -1.0214  0.6870
  712MOL0     C96024  11.165   1.740   6.258  0.5689 -0.4146  0.2763
  712MOL0     C96025  11.319   1.759   6.226  0.0994  0.8567  0.4932
  712MOL0     C96026  11.341   1.857   6.112 -0.4883 -0.0891  0.1740
  712MOL0     C96027  11.483   1.906   6.097 -1.0291  1.2924 -0.9466
  712MOL0     C96028  11.504   1.991   5.965  0.1446 -0.8396 -0.5487
  712MOL0    Cl96029  11.457   1.897   5.819  0.3077 -0.2274  0.0652
  712MOL0     C96030  10.526   1.482   6.037  0.1890 -1.0182  0.1658
  712MOL0     C96031  10.420   1.448   5.945 -1.0968  0.1535  0.4986
  712MOL0     O96032  10.196   1.607   5.808  0.6517 -1.0448  0.1866
  712MOL0     C96033   9.975   1.547   5.650  0.1156 -0.7767  0.8120
  712MOL0     C96034   9.859   1.490   5.576 -0.1834 -0.1918 -0.0708
  712MOL0     N96035   9.412   1.491   5.021  0.0076 -1.7700 -0.3580
  712MOL0     N96036   9.372   1.578   4.940  0.3098  0.2741  0.1703
  712MOL0     C96037   7.997   1.592   4.666  0.6141  0.2822 -0.4365
  712MOL0     C96038   7.876   1.626   4.607 -1.1838  0.1214  0.2248
  712MOL0     C96039   7.643   1.815   4.250 -0.8634  0.7348 -0.5195
  712MOL0     C96040   7.536   1.727   4.258 -1.3882 -0.0529 -0.2290
  712MOL0     C96041   7.411   1.757   4.218  0.4164 -0.3406 -0.7095
  712MOL0     C96042   7.380   1.881   4.162  0.7726  0.1184  0.8669
  712MOL0     O96043   7.252   1.930   4.130  0.0300 -0.6140 -0.0292
  712MOL0     C96044   7.147   1.830   4.120  0.1920 -0.2399  0.1457
  712MOL0     C96045   7.021   1.900   4.067  0.3062  0.2577  0.9022
  712MOL0     C96046   7.050   2.013   3.966  0.5860 -0.1064 -0.1747
  712MOL0     C96047   7.132   1.982   3.844  0.2423  0.9091  0.3069
  712MOL0     C96048   7.085   1.862   3.781  0.1780 -0.0190 -0.4170
  712MOL0     C96049   7.046   1.749   3.755 -0.1120  0.0776 -0.8298
  712MOL0     C96050   7.484   1.972   4.157 -0.0815 -0.1272 -0.1406
  712MOL0     C96051   7.618   1.945   4.195 -0.0662  0.8752 -0.1738
  712MOL0     C96052   7.717   2.063   4.186  0.4181  0.7006 -0.0837
  712MOL0     H96053   8.001   1.617   4.290  0.4947  1.6190 -0.5963
  712MOL0     H96054   8.202   1.532   4.418 -1.4383  1.0594 -3.1879
  712MOL0     H96055   8.384   1.487   4.549 -0.1067 -1.2454  1.6636
  712MOL0     H96056   8.371   1.664   4.580  1.4255 -0.3508 -0.8414
  712MOL0     H96057   8.466   1.462   4.773  2.4759  0.3879 -0.3542
  712MOL0     H96058   8.428   1.625   4.818 -1.9861 -3.5418  1.6540
  712MOL0     H96059   8.607   1.696   4.628  0.8496 -0.3405  0.1432
  712MOL0     H96060   8.622   1.531   4.586  0.9612 -0.7412  1.2371
  712MOL0     H96061   8.691   1.641   4.870 -0.5822 -0.1288 -0.3146
  712MOL0     H96062   8.719   1.485   4.802  1.1799 -0.5273  3.5897
  712MOL0     H96063   8.881   1.575   4.645 -2.3887 -3.0781  1.4264
  712MOL0     H96064   8.833   1.739   4.677 -0.8039 -0.3062  0.6176
  712MOL0     H96065   8.909   1.741   4.910  1.5056  0.4104 -0.0643
  712MOL0     H96066   8.960   1.567   4.893  0.5583 -0.5679  0.5917
  712MOL0     H96067   9.074   1.803   4.755  2.6576 -0.2577 -0.7124
  712MOL0     H96068   9.131   1.643   4.727 -4.0100 -1.7573 -0.4575
  712MOL0     H96069   9.263   1.806   4.893 -0.8549  0.8562  0.5684
  712MOL0     H96070   9.123   1.787   4.994 -1.0243 -0.1233 -0.6072
  712MOL0     H96071   9.117   1.540   5.143 -0.0853  1.6495 -0.4405
  712MOL0     H96072   9.204   1.322   5.259  1.4523 -1.7190  2.2180
  712MOL0     H96073   9.311   1.240   5.170 -2.2071  1.8022 -3.3739
  712MOL0     H96074   9.404   1.458   5.373 -0.0999  0.5591 -2.2848
  712MOL0     H96075   9.372   1.285   5.416  1.3410 -0.6561  2.0217
  712MOL0     H96076   9.592   1.347   5.209  0.0816 -0.4176  0.4329
  712MOL0     H96077   9.556   1.210   5.314  0.0193 -0.2583  3.0294
  712MOL0     H96078   9.588   1.352   5.524  1.1515  0.8225  0.9915
  712MOL0     H96079   9.645   1.480   5.419 -1.4651  0.8207  0.6780
  712MOL0     H96080  10.018   1.230   5.429 -0.2357 -0.7168  1.8355
  712MOL0     H96081  10.208   1.321   5.552 -0.5689 -0.2732 -3.8530
  712MOL0     H96082  10.555   1.575   5.665 -2.7168 -0.5323 -0.6231
  712MOL0     H96083  10.740   1.633   5.809  1.1044 -1.1268 -0.7188
  712MOL0     H96084  10.918   1.548   5.990 -0.3476 -2.4416  2.2694
  712MOL0     H96085  10.849   1.707   5.991  1.8236  0.4033  0.3650
  712MOL0     H96086  10.889   1.752   6.215 -0.0620 -0.9681  1.4553
  712MOL0     H96087  10.932   1.583   6.249 -0.5934 -1.9839 -0.6204
  712MOL0     H96088  11.121   1.611   6.091  1.2833  0.1969 -1.5552
  712MOL0     H96089  11.072   1.786   6.064 -1.0680 -1.2534  0.4931
  712MOL0     H96090  11.156   1.668   6.340  2.3117 -0.9532  0.0431
  712MOL0     H96091  11.126   1.833   6.301  0.7073  0.1039 -0.6879
  712MOL0     H96092  11.355   1.661   6.193 -2.0146 -0.1238  0.9316
  712MOL0     H96093  11.378   1.789   6.314 -1.4691  2.2303  1.1411
  712MOL0     H96094  11.325   1.789   6.028  2.1782 -1.9140  0.9891
  712MOL0     H96095  11.267   1.937   6.113  0.7096  1.0478  0.9798
  712MOL0     H96096  11.547   1.818   6.110 -2.1060  0.3729 -1.6955
  712MOL0     H96097  11.512   1.964   6.185  0.9520  2.5215 -2.3029
  712MOL0     H96098  11.450   2.085   5.977  3.3143  1.2606 -1.5569
  712MOL0     H96099  11.609   2.020   5.966 -0.7681  2.9315  0.1395
  712MOL0     H96100  10.514   1.470   6.145 -0.1246 -1.3416  0.0975
  712MOL0     H96101  10.335   1.392   5.984 -0.7564 -0.6728  0.0998
  712MOL0     H96102   9.977   1.637   5.710 -0.4682  0.2244 -0.6381
  712MOL0     H96103   9.769   1.550   5.579  0.1597  0.2958  0.8531
  712MOL0     H96104   8.009   1.593   4.774 -0.8223  1.7036 -0.2548
  712MOL0     H96105   7.794   1.661   4.669 -2.1344  2.0932 -1.9687
  712MOL0     H96106   7.548   1.633   4.310  1.8378  1.3635  1.9208
  712MOL0     H96107   7.328   1.694   4.246 -0.7130  0.8994 -1.1506
  712MOL0     H96108   7.123   1.778   4.213  4.0781 -0.9738  0.8772
  712MOL0     H96109   7.200   1.756   4.060  2.7244  1.0275  0.6764
  712MOL0     H96110   6.964   1.938   4.152 -0.4383 -3.0259  2.0145
  712MOL0     H96111   6.951   1.833   4.015  1.0324  1.4104 -1.7428
  712MOL0     H96112   7.092   2.095   4.024 -3.3879  0.4669  2.2455
  712MOL0     H96113   6.947   2.042   3.946  0.3166 -0.4556  0.6195
  712MOL0     H96114   7.117   2.067   3.777 -2.6132  0.5466  0.3979
  712MOL0     H96115   7.241   1.971   3.856  0.2860 -3.1333 -1.9445
  712MOL0     H96116   7.001   1.657   3.723  1.1026 -1.1330  0.8035
  712MOL0     H96117   7.469   2.074   4.122 -0.8238 -0.0748  0.2973
  712MOL0     H96118   7.765   2.089   4.281  0.8375 -0.0250 -0.0819
  712MOL0     H96119   7.795   2.025   4.120 -0.5527 -1.3171 -0.1590
  712MOL0     H96120   7.681   2.157   4.146 -0.7934  0.0589 -0.5378
  713MOL0     O96121   3.167   1.200   4.032 -0.0929 -0.1487 -0.5674
  713MOL0     C96122   3.129   1.161   4.142 -1.0914  0.4654 -0.9124
  713MOL0     O96123   3.225   1.116   4.248 -0.1221  0.0519  0.8283
  713MOL0     C96124   3.361   1.119   4.219  0.2908 -0.4605 -0.4309
  713MOL0     C96125   3.417   1.036   4.120 -0.5156 -0.3022 -0.1629
  713MOL0     C96126   3.563   1.025   4.114  0.4302 -0.9947 -0.1833
  713MOL0     C96127   3.646   1.108   4.196  0.0913 -0.5621 -0.4854
  713MOL0     O96128   3.783   1.101   4.196 -0.5355  0.3628  0.3435
  713MOL0     C96129   3.850   0.988   4.130 -0.1188 -0.1528  0.4339
  713MOL0     C96130   3.891   1.007   3.976 -0.4115 -0.4635 -0.1848
  713MOL0     C96131   4.030   1.072   3.966 -0.1776 -0.7309 -0.0870
  713MOL0     C96132   4.137   0.960   3.988  0.4600 -0.0951 -0.1755
  713MOL0     C96133   4.255   1.027   4.052  0.0295 -0.3058  0.4118
  713MOL0     C96134   4.373   0.934   4.062 -0.5957 -0.3271 -1.0400
  713MOL0     C96135   4.489   1.029   4.109  0.0877 -0.4536  0.0098
  713MOL0     C96136   4.557   1.114   3.998  0.1949  0.0531  0.0922
  713MOL0     N96137   4.628   1.039   3.899 -0.0495  0.2475  0.0121
  713MOL0     C96138   4.764   1.030   3.905 -0.0904  0.0946 -0.3443
  713MOL0     C96139   4.806   0.966   3.795  0.2295 -0.1745 -0.0838
  713MOL0     C96140   4.945   0.921   3.771 -0.1485 -0.4283  0.4364
  713MOL0     C96141   5.044   1.045   3.753 -0.9366 -0.8680 -0.5878
  713MOL0     C96142   5.173   0.995   3.694  0.2922 -0.5561  0.2561
  713MOL0     C96143   5.288   1.096   3.684  0.3097 -0.2248  0.0926
  713MOL0     O96144   5.394   1.041   3.606 -0.6460  0.8365 -0.6573
  713MOL0     C96145   5.518   1.105   3.599  0.7282 -0.5817  0.2038
  713MOL0     C96146   5.604   1.064   3.491  0.5172 -0.5673  0.8132
  713MOL0     C96147   5.734   1.112   3.481  0.1103  0.2338  0.2273
  713MOL0     C96148   5.784   1.210   3.566  0.0170 -1.1395 -0.3866
  713MOL0     C96149   5.921   1.273   3.557 -0.3188 -0.0573 -0.9098
  713MOL0     O96150   5.961   1.363   3.654  0.1587 -0.5525  0.1200
  713MOL0     C96151   6.098   1.399   3.655  0.6167 -0.4850  1.2833
  713MOL0     C96152   6.197   1.334   3.725 -0.3067  0.1430 -0.0167
  713MOL0     C96153   6.330   1.381   3.727 -1.3834 -0.4254  0.8453
  713MOL0     C96154   6.368   1.488   3.640  0.0436 -0.2919  0.0837
  713MOL0     O96155   6.501   1.522   3.644 -0.8986 -0.5477 -0.4476
  713MOL0     C96156   6.557   1.604   3.538 -0.1287  0.2228 -0.1034
  713MOL0     C96157   6.710   1.607   3.544 -0.0769 -0.1918  0.6184
  713MOL0     C96158   6.775   1.717   3.454 -0.5383 -0.1996  0.7284
  713MOL0     C96159   6.786   1.852   3.514  0.2024 -0.3446  0.1977
  713MOL0     C96160   6.672   1.943   3.468 -0.3250  0.9066  0.6687
  713MOL0     C96161   6.705   2.088   3.450  0.0330  0.2203 -0.4456
  713MOL0     C96162   6.724   2.159   3.590  0.6284 -0.1905  0.5985
  713MOL0     C96163   6.712   2.310   3.576  0.4165 -0.0588 -0.3592
  713MOL0    Cl96164   6.711   2.366   3.749  0.1472  0.2866 -0.1817
  713MOL0     C96165   6.260   1.553   3.564  0.2520  0.6255 -0.0290
  713MOL0     C96166   6.128   1.520   3.587 -0.3281 -0.1245 -0.5548
  713MOL0     O96167   5.987   1.244   3.456 -0.2954  0.8416 -0.2699
  713MOL0     C96168   5.698   1.255   3.669  0.9597  0.1081 -0.2352
  713MOL0     C96169   5.572   1.199   3.690 -0.7549 -0.5352 -0.0311
  713MOL0     N96170   4.696   0.932   3.722  0.1437 -0.3342  0.1151
  713MOL0     N96171   4.593   0.981   3.788  0.5725  0.1143  0.7263
  713MOL0     C96172   3.581   1.191   4.291 -0.2556  0.2585  0.1887
  713MOL0     C96173   3.442   1.193   4.305  0.2394 -0.2686  1.2722
  713MOL0     C96174   2.989   1.157   4.184  0.2915  0.5362  0.6602
  713MOL0     C96175   2.959   1.084   4.295  0.2532  0.3251  0.5235
  713MOL0     C96176   2.826   1.066   4.337  1.3254 -0.2958 -0.2943
  713MOL0     C96177   2.717   1.123   4.270 -0.1345 -0.2969  0.0634
  713MOL0     O96178   2.594   1.095   4.315 -0.3146 -0.7093  0.1818
  713MOL0     C96179   2.533   0.976   4.273  0.2708  0.1997  0.5173
  713MOL0     C96180   2.393   0.973   4.333 -0.3505 -0.0107  0.1788
  713MOL0     C96181   2.307   1.101   4.314 -0.6095  0.1109  0.6568
  713MOL0     C96182   2.161   1.101   4.352  0.4831  0.8802  0.0646
  713MOL0     C96183   2.117   1.090   4.496 -0.6020 -0.3535  0.2887
  713MOL0     C96184   2.083   1.086   4.611  0.2502 -0.5076 -0.3012
  713MOL0     C96185   2.743   1.203   4.158 -0.1338  0.7237 -0.5019
  713MOL0     C96186   2.880   1.208   4.106  0.6937 -0.1172  0.0213
  713MOL0     C96187   2.909   1.281   3.967 -0.3921  0.5262  0.3623
  713MOL0     H96188   3.368   0.978   4.042 -0.0469  0.2912 -0.9089
  713MOL0     H96189   3.608   0.968   4.034  2.8305  0.2363  0.1970
  713MOL0     H96190   3.945   0.975   4.183  1.4163  4.8555 -0.5925
  713MOL0     H96191   3.792   0.896   4.136  0.8765 -0.8789 -0.6240
  713MOL0     H96192   3.820   1.076   3.930  0.2045 -1.0425 -2.0969
  713MOL0     H96193   3.879   0.917   3.916 -2.4289 -1.8171  2.0556
  713MOL0     H96194   4.028   1.153   4.039  3.5593 -0.2870 -0.3203
  713MOL0     H96195   4.050   1.119   3.870  1.0346 -2.8468 -0.9422
  713MOL0     H96196   4.100   0.885   4.058 -1.6475  1.1547  0.1382
  713MOL0     H96197   4.152   0.923   3.886 -4.3056  0.5526 -1.3663
  713MOL0     H96198   4.275   1.115   3.991 -3.1973 -0.4534 -1.0675
  713MOL0     H96199   4.221   1.067   4.148  1.5413 -1.0472  1.3074
  713MOL0     H96200   4.361   0.860   4.141  0.7070  0.7139  0.1761
  713MOL0     H96201   4.399   0.879   3.970  0.4498 -1.4680 -0.1041
  713MOL0     H96202   4.569   0.973   4.157 -0.8060 -0.0220  2.0896
  713MOL0     H96203   4.444   1.095   4.183 -0.8554 -0.1540 -0.8042
  713MOL0     H96204   4.481   1.176   3.951 -2.1265 -0.7543  2.5595
  713MOL0     H96205   4.619   1.190   4.047 -1.1365  0.6121  0.9659
  713MOL0     H96206   4.820   1.078   3.984 -1.1860  2.7049 -1.0099
  713MOL0     H96207   4.978   0.854   3.851  2.1172 -1.5249 -1.3049
  713MOL0     H96208   4.950   0.861   3.680 -0.2058 -0.9293  0.7587
  713MOL0     H96209   4.999   1.112   3.680  0.2850 -0.9316 -1.4397
  713MOL0     H96210   5.048   1.094   3.851  0.9090  0.6306 -1.3495
  713MOL0     H96211   5.152   0.966   3.591 -0.9088  0.9942  0.0378
  713MOL0     H96212   5.200   0.901   3.744  2.4934  0.1307  0.4615
  713MOL0     H96213   5.316   1.108   3.789 -0.4762 -0.8622  0.3844
  713MOL0     H96214   5.242   1.188   3.646 -0.7804 -1.4552 -1.7502
  713MOL0     H96215   5.557   0.999   3.418 -2.0994  0.4325  1.4824
  713MOL0     H96216   5.792   1.081   3.395  1.9486  0.7856  1.2178
  713MOL0     H96217   6.179   1.248   3.788  0.6808 -2.2842 -2.7656
  713MOL0     H96218   6.416   1.347   3.783 -0.6607  0.1935  0.1549
  713MOL0     H96219   6.519   1.564   3.444  0.0243  1.7535 -0.8508
  713MOL0     H96220   6.524   1.708   3.548  0.8023  0.4949  0.2340
  713MOL0     H96221   6.745   1.624   3.647 -0.9380 -0.6392  0.9957
  713MOL0     H96222   6.757   1.515   3.509 -0.7149 -0.3014  0.0486
  713MOL0     H96223   6.875   1.675   3.441 -0.1493  1.0260 -0.4660
  713MOL0     H96224   6.717   1.710   3.361  0.9216  0.7526 -0.2976
  713MOL0     H96225   6.879   1.897   3.477  0.8038 -1.1598  0.6914
  713MOL0     H96226   6.790   1.845   3.623  1.1702  0.7067  0.2480
  713MOL0     H96227   6.577   1.924   3.519 -1.1111  0.2348 -0.9814
  713MOL0     H96228   6.642   1.917   3.366  0.5192  0.0884  0.6060
  713MOL0     H96229   6.795   2.090   3.387  0.1591 -2.7931 -0.5166
  713MOL0     H96230   6.626   2.132   3.389  0.0816  1.4823  0.3815
  713MOL0     H96231   6.823   2.139   3.634  3.2829  1.2820 -3.9703
  713MOL0     H96232   6.651   2.122   3.662 -1.5882  0.7556 -1.0634
  713MOL0     H96233   6.797   2.358   3.528 -0.5136  1.2049 -0.7910
  713MOL0     H96234   6.619   2.333   3.522  0.8168  2.7119 -0.0234
  713MOL0     H96235   6.284   1.632   3.495  1.2944 -0.0539 -0.4694
  713MOL0     H96236   6.064   1.586   3.530 -0.4571  0.9279  0.7532
  713MOL0     H96237   5.725   1.334   3.739 -1.9207  0.4111  0.6667
  713MOL0     H96238   5.528   1.231   3.785 -0.1729  0.1269  0.0295
  713MOL0     H96239   3.647   1.255   4.350 -0.1555  0.2533  0.0825
  713MOL0     H96240   3.400   1.267   4.373  3.6951  2.5061  0.6925
  713MOL0     H96241   3.032   1.020   4.343 -2.7229 -3.8729 -0.0306
  713MOL0     H96242   2.807   1.011   4.428 -1.6014  4.6662  2.5874
  713MOL0     H96243   2.592   0.892   4.310  0.4603  1.0050  2.0837
  713MOL0     H96244   2.520   0.973   4.164  0.6788 -1.5750  0.4925
  713MOL0     H96245   2.392   0.944   4.439  1.4947  2.4567  0.9503
  713MOL0     H96246   2.340   0.893   4.280  2.3952 -0.9180 -1.4007
  713MOL0     H96247   2.314   1.139   4.212  0.9290  0.7822  0.9891
  713MOL0     H96248   2.344   1.181   4.379 -2.0632  0.5997  0.9236
  713MOL0     H96249   2.121   1.189   4.300 -2.8155 -0.7453 -0.4185
  713MOL0     H96250   2.127   1.010   4.303  1.4545  1.7886 -2.4797
  713MOL0     H96251   2.038   1.076   4.708 -0.2138  2.7973 -0.0855
  713MOL0     H96252   2.661   1.250   4.104  0.1555 -1.3488 -2.9745
  713MOL0     H96253   2.964   1.222   3.893 -0.9464  1.2748 -0.6595
  713MOL0     H96254   2.818   1.323   3.924 -2.2078 -0.1929  3.1683
  713MOL0     H96255   2.976   1.362   3.995  0.7160 -0.6522  1.2589
  714MOL0     O96256   3.663   6.060   3.677 -0.2280  0.4008  1.1883
  714MOL0     C96257   3.636   6.173   3.652 -0.1265 -0.5227 -0.0853
  714MOL0     O96258   3.721   6.269   3.608 -0.5926  0.1266 -0.3803
  714MOL0     C96259   3.858   6.247   3.600  0.6665  0.4092  0.0161
  714MOL0     C96260   3.913   6.273   3.473  0.7447  0.6206 -0.0626
  714MOL0     C96261   4.039   6.247   3.446 -0.1027 -0.9011  1.2404
  714MOL0     C96262   4.131   6.211   3.541  0.3668  0.9632  0.1363
  714MOL0     O96263   4.263   6.197   3.509 -0.6171 -0.0748 -0.2831
  714MOL0     C96264   4.345   6.126   3.601  0.0998  0.4019 -0.2849
  714MOL0     C96265   4.483   6.098   3.543  0.1554 -0.4158 -0.2509
  714MOL0     C96266   4.563   6.234   3.531 -0.8220  0.3230 -0.0144
  714MOL0     C96267   4.698   6.175   3.488  1.4609  0.6831 -0.1710
  714MOL0     C96268   4.796   6.286   3.466 -1.2116 -0.3753  0.5844
  714MOL0     C96269   4.921   6.247   3.393 -0.9586  0.0704  0.3849
  714MOL0     C96270   5.020   6.368   3.373 -0.0701 -0.4746  0.5767
  714MOL0     C96271   5.132   6.341   3.274 -0.2809 -0.0206  0.0350
  714MOL0     N96272   5.251   6.428   3.300  0.5713 -0.1839 -0.7146
  714MOL0     C96273   5.315   6.481   3.193  0.1514  0.0818  0.4259
  714MOL0     C96274   5.439   6.503   3.239  0.6587 -0.1361  0.4155
  714MOL0     C96275   5.555   6.554   3.170  0.1867  0.1520 -0.2186
  714MOL0     C96276   5.601   6.451   3.067 -0.5249 -0.0390  0.4674
  714MOL0     C96277   5.668   6.536   2.959  0.1416  0.9151  0.8920
  714MOL0     C96278   5.800   6.603   2.990 -0.3074  0.0781 -0.6306
  714MOL0     O96279   5.917   6.512   3.000 -0.1531  0.7985  0.3776
  714MOL0     C96280   6.039   6.576   3.007  0.1856  0.7290 -0.0107
  714MOL0     C96281   6.153   6.490   2.978  0.2673  0.6980  0.1754
  714MOL0     C96282   6.281   6.540   3.013 -0.1777 -0.0405 -0.0831
  714MOL0     C96283   6.293   6.673   3.040 -0.0796 -0.4663 -0.1235
  714MOL0     C96284   6.430   6.734   3.038 -0.2585 -0.6223  0.8099
  714MOL0     O96285   6.524   6.644   3.077 -0.2947 -0.5681 -0.1817
  714MOL0     C96286   6.656   6.691   3.095  0.1192 -0.1852  0.3103
  714MOL0     C96287   6.703   6.697   3.230  0.2083 -0.3214  0.3406
  714MOL0     C96288   6.831   6.739   3.251  0.4504 -0.9946  0.6547
  714MOL0     C96289   6.906   6.794   3.141  0.3146 -1.3728 -0.8977
  714MOL0     O96290   7.034   6.856   3.156 -0.3007 -0.2682 -0.1689
  714MOL0     C96291   7.115   6.830   3.270 -0.0557  0.1321  0.7311
  714MOL0     C96292   7.261   6.884   3.244  0.6801 -0.0554  0.6186
  714MOL0     C96293   7.256   7.031   3.203  0.4386 -0.0670 -0.1284
  714MOL0     C96294   7.380   7.097   3.253 -0.5431 -0.0256 -0.5389
  714MOL0     C96295   7.372   7.246   3.205 -0.4576  0.1671  0.5340
  714MOL0     C96296   7.403   7.270   3.059  0.1220 -0.3160  0.6510
  714MOL0     C96297   7.452   7.423   3.049  0.1318 -0.4350  0.3086
  714MOL0     C96298   7.493   7.467   2.910 -0.1022 -0.0814 -0.0955
  714MOL0    Cl96299   7.638   7.372   2.861 -0.3877  0.4451  0.0390
  714MOL0     C96300   6.849   6.798   3.013  0.8353 -0.1832 -0.9957
  714MOL0     C96301   6.730   6.733   2.990 -0.4686  0.2689  0.2479
  714MOL0     O96302   6.446   6.846   2.993 -0.2420 -0.4139 -0.1698
  714MOL0     C96303   6.183   6.754   3.057  0.0176  0.4525 -0.3850
  714MOL0     C96304   6.054   6.709   3.044 -0.1790  0.5594  0.1389
  714MOL0     N96305   5.441   6.463   3.374 -0.2188 -0.8949  0.9332
  714MOL0     N96306   5.331   6.415   3.409 -0.0804 -0.3901 -0.4850
  714MOL0     C96307   4.085   6.194   3.671 -0.1243 -0.2016  0.6473
  714MOL0     C96308   3.949   6.205   3.701 -0.4218  0.7900 -0.5836
  714MOL0     C96309   3.495   6.213   3.694  0.0013  0.0919  0.1369
  714MOL0     C96310   3.411   6.117   3.755 -0.1029 -0.7943  0.5133
  714MOL0     C96311   3.288   6.159   3.811  0.4187  0.3945  0.6314
  714MOL0     C96312   3.241   6.294   3.795 -0.8221  1.0287 -0.1747
  714MOL0     O96313   3.114   6.317   3.831 -0.4680  0.6802 -0.5410
  714MOL0     C96314   3.099   6.395   3.950 -0.0224  0.3205  0.0846
  714MOL0     C96315   3.091   6.310   4.078  0.4830  1.1306 -0.4821
  714MOL0     C96316   3.230   6.280   4.139 -0.0815  0.0803  0.2161
  714MOL0     C96317   3.283   6.400   4.220  0.1190 -0.2115  0.8051
  714MOL0     C96318   3.427   6.378   4.248 -0.3679 -0.1115 -0.3183
  714MOL0     C96319   3.548   6.367   4.266  1.0025 -0.6920  0.6102
  714MOL0     C96320   3.323   6.384   3.725  0.8729 -1.2163 -0.5918
  714MOL0     C96321   3.448   6.348   3.680 -0.0710  0.0560 -0.0877
  714MOL0     C96322   3.526   6.460   3.616  0.6945  0.4348  0.7885
  714MOL0     H96323   3.845   6.291   3.390 -1.6701  2.1305  2.1107
  714MOL0     H96324   4.058   6.254   3.340 -3.8962  2.2798  0.5650
  714MOL0     H96325   4.351   6.179   3.696  0.2057  0.0449 -0.0904
  714MOL0     H96326   4.300   6.035   3.642  1.9162 -0.0326  0.8617
  714MOL0     H96327   4.473   6.059   3.441  2.2644  0.5860 -0.9013
  714MOL0     H96328   4.529   6.019   3.602  0.0575 -1.5589 -1.6402
  714MOL0     H96329   4.568   6.279   3.630  1.3815  0.9150 -0.3588
  714MOL0     H96330   4.519   6.294   3.451  0.3422  0.5376 -0.5135
  714MOL0     H96331   4.743   6.102   3.556 -0.7763  0.2187  0.9294
  714MOL0     H96332   4.688   6.116   3.396 -1.0182  0.6990  0.0214
  714MOL0     H96333   4.752   6.372   3.415  1.1543 -0.8316 -2.5415
  714MOL0     H96334   4.816   6.323   3.567 -1.4230  2.1011 -0.2280
  714MOL0     H96335   4.979   6.174   3.450  3.7730  1.7102 -1.8149
  714MOL0     H96336   4.894   6.198   3.299 -1.0750  0.1018  0.4010
  714MOL0     H96337   5.064   6.387   3.471  3.7220  3.0335 -1.5018
  714MOL0     H96338   4.967   6.456   3.337  0.0823 -0.7838 -0.4499
  714MOL0     H96339   5.155   6.241   3.310 -0.0946  0.8329  2.5087
  714MOL0     H96340   5.101   6.340   3.169 -1.2581 -0.9332  0.3174
  714MOL0     H96341   5.276   6.495   3.093  1.2031  0.4282  0.0557
  714MOL0     H96342   5.533   6.657   3.142 -1.0653 -0.3351 -1.1092
  714MOL0     H96343   5.640   6.564   3.238  1.2593 -0.6020 -1.4040
  714MOL0     H96344   5.677   6.380   3.100  0.2086  0.6487  0.2705
  714MOL0     H96345   5.512   6.400   3.027 -0.8576 -1.0857  2.4072
  714MOL0     H96346   5.601   6.620   2.942 -0.3637  0.3888  0.1991
  714MOL0     H96347   5.681   6.477   2.868  3.1296 -0.9946  2.3928
  714MOL0     H96348   5.795   6.657   3.085 -1.4207  0.5876 -0.9559
  714MOL0     H96349   5.820   6.675   2.911 -0.2579 -0.3969 -1.0581
  714MOL0     H96350   6.130   6.394   2.934 -2.4317  1.7829 -0.9790
  714MOL0     H96351   6.372   6.483   2.998 -0.0749  0.2127 -0.4265
  714MOL0     H96352   6.634   6.665   3.308 -0.7983  0.7984 -0.0711
  714MOL0     H96353   6.873   6.724   3.350 -0.2657 -2.4089  0.7688
  714MOL0     H96354   7.071   6.893   3.349 -0.0308  1.7750 -0.5163
  714MOL0     H96355   7.130   6.724   3.294 -1.2255 -0.6049 -1.5105
  714MOL0     H96356   7.316   6.869   3.338  2.5550 -1.2856 -0.6018
  714MOL0     H96357   7.309   6.821   3.169  0.6923 -0.0221  0.5986
  714MOL0     H96358   7.245   7.054   3.097  2.1812 -0.6775 -0.4727
  714MOL0     H96359   7.165   7.072   3.248  0.4963  0.4582 -0.4818
  714MOL0     H96360   7.469   7.044   3.218  0.5289 -0.9578  3.1643
  714MOL0     H96361   7.396   7.105   3.361  2.2861  3.2606 -1.0521
  714MOL0     H96362   7.441   7.303   3.268 -0.9363  0.2841  0.9595
  714MOL0     H96363   7.274   7.286   3.235 -0.5784  1.9613 -1.9581
  714MOL0     H96364   7.472   7.197   3.014 -1.9337 -0.1644 -3.1169
  714MOL0     H96365   7.311   7.260   3.000  1.8777  0.7377 -2.5117
  714MOL0     H96366   7.528   7.444   3.126 -2.0798  2.6684  1.8904
  714MOL0     H96367   7.368   7.486   3.081 -1.7511 -1.8778 -1.5297
  714MOL0     H96368   7.411   7.460   2.838  0.2589  3.1825 -0.9515
  714MOL0     H96369   7.529   7.570   2.909  0.8015 -0.3696 -2.0335
  714MOL0     H96370   6.900   6.844   2.929 -0.0471 -0.6657 -1.8143
  714MOL0     H96371   6.686   6.713   2.893 -0.1421 -1.1865  0.3696
  714MOL0     H96372   6.200   6.857   3.089  0.1453  0.3170 -0.0167
  714MOL0     H96373   5.976   6.783   3.055  0.3502  1.5822 -2.2867
  714MOL0     H96374   4.152   6.177   3.755 -0.8683 -0.1603  1.2608
  714MOL0     H96375   3.916   6.202   3.805 -0.5911 -1.1720 -0.6413
  714MOL0     H96376   3.441   6.013   3.764  0.7607 -0.6174 -0.2353
  714MOL0     H96377   3.238   6.079   3.866 -0.9982  0.9066  0.1233
  714MOL0     H96378   3.000   6.442   3.955 -0.3998 -0.5556  1.2154
  714MOL0     H96379   3.170   6.478   3.955  0.0633  0.2552 -0.0519
  714MOL0     H96380   3.044   6.214   4.055 -1.5681  2.3986 -2.0673
  714MOL0     H96381   3.026   6.366   4.146 -0.4760 -0.1753 -0.2817
  714MOL0     H96382   3.295   6.249   4.057 -0.6603 -1.7292  0.4137
  714MOL0     H96383   3.220   6.192   4.203 -1.8370 -1.1086 -1.5613
  714MOL0     H96384   3.260   6.487   4.157 -3.1925 -1.0310  0.6799
  714MOL0     H96385   3.236   6.418   4.318  1.2461  0.8818  1.1748
  714MOL0     H96386   3.652   6.380   4.286  1.1454 -1.2229  0.2192
  714MOL0     H96387   3.284   6.482   3.704 -2.5237 -2.3510 -0.1593
  714MOL0     H96388   3.557   6.443   3.512 -0.0948 -1.6793  0.8484
  714MOL0     H96389   3.472   6.554   3.633  1.0675  0.7680  0.1707
  714MOL0     H96390   3.619   6.466   3.673  1.3801  2.3594 -0.4166
  715MOL0     O96391   9.999  10.333   1.251 -0.8345 -0.0528 -0.6579
  715MOL0     C96392  10.043  10.248   1.181  0.4655 -0.4637  1.2538
  715MOL0     O96393  10.174  10.219   1.164  0.2351  0.4113 -0.6362
  715MOL0     C96394  10.277  10.311   1.192  0.0147  0.3708  0.9752
  715MOL0     C96395  10.284  10.407   1.290 -0.4628 -0.0200 -0.0638
  715MOL0     C96396  10.399  10.486   1.302 -0.8145  0.9992  0.4910
  715MOL0     C96397  10.514  10.467   1.216 -1.1576  0.1063  0.6127
  715MOL0     O96398  10.617  10.550   1.241 -0.4094 -0.7489 -0.3536
  715MOL0     C96399  10.740  10.480   1.214  0.0899 -0.4669  0.5898
  715MOL0     C96400  10.855  10.575   1.244 -0.6090  0.0933  0.2371
  715MOL0     C96401  10.987  10.522   1.176  0.5101 -0.8113  0.2720
  715MOL0     C96402  11.112  10.584   1.234 -0.2243  0.6197 -0.5451
  715MOL0     C96403  11.238  10.513   1.164  1.2949  0.0333 -0.3971
  715MOL0     C96404  11.374  10.581   1.206 -0.7148  0.5712 -0.4001
  715MOL0     C96405  11.476  10.543   1.105  0.7789 -0.1411  0.1574
  715MOL0     C96406  11.608  10.582   1.158  0.2508  0.2131 -0.2033
  715MOL0     N96407  11.719  10.535   1.075 -0.3398 -0.1952 -0.6502
  715MOL0     C96408  11.766  10.407   1.072 -0.6948  0.0491 -0.4113
  715MOL0     C96409  11.861  10.398   0.971 -0.1890 -0.2622  0.4518
  715MOL0     C96410  11.929  10.274   0.925  0.4571 -0.1781  0.5291
  715MOL0     C96411  12.066  10.290   0.855  0.9183 -0.1204 -0.0861
  715MOL0     C96412  12.113  10.153   0.799 -0.1511 -0.2520 -0.4726
  715MOL0     C96413  12.239  10.174   0.717 -0.2658  0.6003 -0.4682
  715MOL0     O96414  12.278  10.050   0.644  0.0640 -0.0730  0.6784
  715MOL0     C96415  12.398  10.036   0.584 -0.9232  0.3263 -0.1158
  715MOL0     C96416  12.511  10.112   0.605 -0.4070  0.5298 -0.3111
  715MOL0     C96417  12.639  10.089   0.550  0.2158 -0.5623  0.5857
  715MOL0     C96418  12.646   9.978   0.468  0.5745  0.3025 -0.6634
  715MOL0     C96419  12.782   9.935   0.419 -0.0217 -0.5698 -0.5492
  715MOL0     O96420  12.881  10.019   0.461 -0.7850  0.4932 -0.0219
  715MOL0     C96421  12.984  10.037   0.375 -0.4751 -0.2451  0.0151
  715MOL0     C96422  12.982  10.114   0.261  0.2259  0.5571  0.8083
  715MOL0     C96423  13.106  10.150   0.208  0.1760 -0.1510 -0.7992
  715MOL0     C96424  13.228  10.094   0.244 -0.5532 -0.6710 -0.0076
  715MOL0     O96425  13.352  10.110   0.186  0.1761  0.2032 -0.7153
  715MOL0     C96426  13.366  10.203   0.075  0.0516 -0.0398  0.7349
  715MOL0     C96427  13.516  10.254   0.080  0.2093  0.5637 -0.6347
  715MOL0     C96428  13.533  10.393   0.019 -0.2037 -0.1459  0.3779
  715MOL0     C96429  13.678  10.435   0.023  1.3715  0.6606 -0.1391
  715MOL0     C96430  13.713  10.561  -0.058 -0.2919  0.1539 -0.0406
  715MOL0     C96431  13.871  10.583  -0.053 -0.0099 -0.4660  0.4419
  715MOL0     C96432  13.906  10.700  -0.149  0.6719 -0.0539  0.3715
  715MOL0     C96433  14.043  10.693  -0.193 -0.2257 -0.1067 -0.9791
  715MOL0    Cl96434  14.162  10.677  -0.066  0.3596 -0.3896  0.2043
  715MOL0     C96435  13.229  10.006   0.350 -0.9464  0.9015  0.1405
  715MOL0     C96436  13.110   9.975   0.415  0.6992  0.3744 -1.1177
  715MOL0     O96437  12.801   9.829   0.364  0.6703  0.0761  0.0888
  715MOL0     C96438  12.540   9.909   0.433 -0.3862 -0.3037  0.3105
  715MOL0     C96439  12.410   9.932   0.491 -0.7562  0.8138  0.8223
  715MOL0     N96440  11.870  10.526   0.920 -0.4473 -0.0002 -0.6197
  715MOL0     N96441  11.793  10.605   0.984  0.4460  0.4772 -0.2862
  715MOL0     C96442  10.496  10.371   1.120  0.4549 -0.9313  0.8995
  715MOL0     C96443  10.384  10.291   1.106  0.4141 -0.3316  0.8480
  715MOL0     C96444   9.945  10.151   1.118 -0.2006  0.1704  0.2564
  715MOL0     C96445  10.002  10.083   1.008  0.9107  0.5947 -0.3567
  715MOL0     C96446   9.915   9.999   0.931 -1.2606 -0.2351  0.1217
  715MOL0     C96447   9.781   9.990   0.962  0.6334  0.5649  0.4685
  715MOL0     O96448   9.701   9.914   0.884  0.2595  0.0417  0.1548
  715MOL0     C96449   9.636   9.979   0.778  0.1607 -0.1244  0.5065
  715MOL0     C96450   9.630   9.894   0.652 -0.0615 -0.0137 -0.0261
  715MOL0     C96451   9.531   9.778   0.676  0.1264  0.5507 -0.0695
  715MOL0     C96452   9.498   9.705   0.543  0.7048 -0.1778 -0.3149
  715MOL0     C96453   9.420   9.584   0.584  0.5040 -0.2970  0.0873
  715MOL0     C96454   9.363   9.481   0.607 -0.0976  0.1966  0.1567
  715MOL0     C96455   9.725  10.052   1.072  0.8562 -0.3037  0.3421
  715MOL0     C96456   9.805  10.137   1.152 -0.8189 -0.5825  0.0509
  715MOL0     C96457   9.740  10.216   1.268 -0.0170  0.2098  0.2830
  715MOL0     H96458  10.196  10.405   1.353 -0.3525  0.1551  0.0957
  715MOL0     H96459  10.401  10.558   1.384  1.3227  0.4634  0.9638
  715MOL0     H96460  10.735  10.390   1.275 -2.1492 -0.1928  0.8993
  715MOL0     H96461  10.746  10.460   1.107  0.0019  0.6314  0.3658
  715MOL0     H96462  10.865  10.597   1.350 -1.4103 -1.6344  0.7054
  715MOL0     H96463  10.835  10.675   1.205 -5.6804 -0.3882  0.9042
  715MOL0     H96464  10.990  10.543   1.069 -0.2790 -0.8771  0.2293
  715MOL0     H96465  10.987  10.414   1.195 -0.7558 -0.7899  0.5116
  715MOL0     H96466  11.118  10.693   1.226 -1.7048  0.6263 -2.0616
  715MOL0     H96467  11.111  10.569   1.343 -2.8800  1.0714 -0.4405
  715MOL0     H96468  11.243  10.406   1.188 -0.7783 -0.4313 -1.7749
  715MOL0     H96469  11.220  10.525   1.057 -0.8740  2.9539  0.1636
  715MOL0     H96470  11.365  10.690   1.205  2.6417  0.9743 -3.0918
  715MOL0     H96471  11.410  10.529   1.295 -0.7967 -2.5381 -2.0331
  715MOL0     H96472  11.452  10.596   1.012 -0.4086 -0.3410  0.3342
  715MOL0     H96473  11.459  10.437   1.082 -1.6977 -0.0118  1.0557
  715MOL0     H96474  11.610  10.692   1.153 -0.0014  0.1689 -2.7191
  715MOL0     H96475  11.618  10.551   1.262  1.1295  0.4391 -0.2085
  715MOL0     H96476  11.720  10.319   1.116  2.2420 -0.4154  2.0682
  715MOL0     H96477  11.927  10.199   1.005  1.9520  0.0990  0.8596
  715MOL0     H96478  11.856  10.235   0.854  2.8257 -1.1955 -1.5098
  715MOL0     H96479  12.064  10.368   0.779  1.4836  1.7606  1.7565
  715MOL0     H96480  12.141  10.317   0.930  0.2127  1.4908  0.0746
  715MOL0     H96481  12.034  10.110   0.738 -0.2536 -0.9632  0.1447
  715MOL0     H96482  12.140  10.082   0.878 -0.4654  1.9614  1.7431
  715MOL0     H96483  12.316  10.202   0.790  0.4539  0.3852 -1.1383
  715MOL0     H96484  12.220  10.252   0.643 -0.5209 -1.5257 -2.7609
  715MOL0     H96485  12.508  10.193   0.677  1.0384  2.9737 -2.7897
  715MOL0     H96486  12.723  10.140   0.594 -0.4261 -0.0131  1.2117
  715MOL0     H96487  12.892  10.156   0.217  2.4523  3.6684 -1.2218
  715MOL0     H96488  13.105  10.216   0.122  0.0326  0.4703 -0.3357
  715MOL0     H96489  13.338  10.143  -0.012 -0.4175 -0.2050  0.9989
  715MOL0     H96490  13.300  10.289   0.069 -1.7944 -1.4664 -0.3176
  715MOL0     H96491  13.536  10.253   0.188 -0.9156 -0.1740 -0.4119
  715MOL0     H96492  13.573  10.175   0.032  0.2235 -1.0817  1.8804
  715MOL0     H96493  13.496  10.393  -0.084  0.6572 -1.2410  0.0466
  715MOL0     H96494  13.468  10.458   0.077 -2.9912 -1.6508 -0.8322
  715MOL0     H96495  13.728  10.354  -0.031 -1.9215 -2.9657  1.7966
  715MOL0     H96496  13.716  10.444   0.125  2.3403 -1.7519 -0.2123
  715MOL0     H96497  13.658  10.649  -0.024 -0.9681 -0.7938  1.4289
  715MOL0     H96498  13.682  10.539  -0.160  1.9339 -0.2576 -0.6643
  715MOL0     H96499  13.910  10.611   0.046 -0.3861 -0.2000  0.5226
  715MOL0     H96500  13.921  10.495  -0.092  2.6004  1.1324 -0.0624
  715MOL0     H96501  13.887  10.799  -0.105 -0.8592  0.3993 -1.2087
  715MOL0     H96502  13.844  10.683  -0.237  0.2659  0.0375  0.6341
  715MOL0     H96503  14.051  10.602  -0.254 -0.7419 -0.5914 -0.3302
  715MOL0     H96504  14.058  10.784  -0.252 -1.0146  0.0853 -0.8943
  715MOL0     H96505  13.321   9.952   0.370  0.9507  3.4331 -1.2378
  715MOL0     H96506  13.113   9.905   0.497  2.0507 -0.9082 -2.2020
  715MOL0     H96507  12.542   9.821   0.369 -0.6130 -0.1725  0.1210
  715MOL0     H96508  12.329   9.866   0.464  0.5942 -0.2198 -0.9677
  715MOL0     H96509  10.572  10.352   1.045 -1.9506 -0.7148 -1.7560
  715MOL0     H96510  10.368  10.225   1.022 -0.0739  1.2598 -0.3497
  715MOL0     H96511  10.108  10.086   0.985  0.7103 -0.4321 -1.4800
  715MOL0     H96512   9.967   9.942   0.855  0.8939 -1.5909  2.4382
  715MOL0     H96513   9.690  10.068   0.746 -2.2124  1.1282 -0.2549
  715MOL0     H96514   9.533  10.008   0.801 -0.0107 -0.1367 -0.2406
  715MOL0     H96515   9.726   9.845   0.632 -0.9677 -1.6548 -0.5753
  715MOL0     H96516   9.598   9.959   0.570  1.2611 -0.0243 -0.5763
  715MOL0     H96517   9.439   9.814   0.722 -1.2788 -1.2606 -1.3115
  715MOL0     H96518   9.566   9.703   0.747  0.1813  0.5697 -0.0765
  715MOL0     H96519   9.437   9.780   0.491  0.1968  0.8878  1.7118
  715MOL0     H96520   9.587   9.670   0.490  0.6985 -2.9166  1.3331
  715MOL0     H96521   9.309   9.392   0.629  2.3733 -1.3759  0.1984
  715MOL0     H96522   9.621  10.045   1.102  1.4821  0.6020  3.0231
  715MOL0     H96523   9.797  10.212   1.361  0.2511  1.3509  0.1853
  715MOL0     H96524   9.740  10.324   1.247  0.1776  0.2905  0.6881
  715MOL0     H96525   9.639  10.184   1.293  0.1253 -0.1704  0.3730
  716MOL0     O96526   7.101   3.829   0.392  0.7747 -0.1802 -0.1341
  716MOL0     C96527   7.077   3.945   0.424 -1.0394 -0.3468 -0.1705
  716MOL0     O96528   7.174   4.036   0.439 -0.6286 -0.0017  0.4172
  716MOL0     C96529   7.293   4.000   0.387 -0.1568 -0.5408  0.1614
  716MOL0     C96530   7.321   4.056   0.265 -0.0971 -0.1775  0.2830
  716MOL0     C96531   7.441   4.030   0.197 -0.3055  0.1266 -0.3040
  716MOL0     C96532   7.534   3.943   0.256  0.3094 -0.4619 -0.4366
  716MOL0     O96533   7.644   3.907   0.185  0.0329 -0.1503 -0.3639
  716MOL0     C96534   7.710   3.791   0.232 -0.5358 -0.0023 -0.6870
  716MOL0     C96535   7.781   3.724   0.116  0.6045  0.1896  0.3446
  716MOL0     C96536   7.868   3.602   0.154 -0.0311  1.0618 -0.1902
  716MOL0     C96537   7.943   3.538   0.030  0.3406 -0.9530 -0.2102
  716MOL0     C96538   7.968   3.390   0.050  0.3593  0.2501  0.5990
  716MOL0     C96539   8.005   3.310  -0.077 -0.8344 -0.1387 -0.0119
  716MOL0     C96540   8.117   3.387  -0.160  0.3038  0.6896  0.5709
  716MOL0     C96541   8.248   3.362  -0.096 -0.8772 -0.2810 -0.0967
  716MOL0     N96542   8.347   3.450  -0.160 -0.1374  0.6895 -0.0707
  716MOL0     C96543   8.424   3.422  -0.273  0.1222  0.3491  0.4041
  716MOL0     C96544   8.526   3.513  -0.275  1.2221 -0.0799  0.1646
  716MOL0     C96545   8.643   3.482  -0.362  0.5211 -0.0096 -0.2872
  716MOL0     C96546   8.749   3.401  -0.295 -0.2744  0.7871 -0.7374
  716MOL0     C96547   8.830   3.473  -0.181 -0.3140  0.0276 -0.1840
  716MOL0     C96548   8.975   3.414  -0.159 -0.2989 -0.7202  0.7324
  716MOL0     O96549   9.046   3.464  -0.287 -0.4528 -0.3950 -0.3082
  716MOL0     C96550   9.183   3.466  -0.272 -0.2218  0.5011 -0.0040
  716MOL0     C96551   9.248   3.570  -0.349 -0.0590 -0.2295 -0.1963
  716MOL0     C96552   9.382   3.581  -0.324  0.5110 -0.9590 -0.4519
  716MOL0     C96553   9.462   3.503  -0.232  0.4351  0.0347  0.2565
  716MOL0     C96554   9.611   3.515  -0.217 -0.1497  0.3903 -0.6009
  716MOL0     O96555   9.682   3.426  -0.132 -0.0987  0.3597 -0.4832
  716MOL0     C96556   9.816   3.439  -0.109 -0.7566 -0.3330 -0.8323
  716MOL0     C96557   9.888   3.560  -0.081  0.8445  0.5761  0.5246
  716MOL0     C96558  10.030   3.551  -0.060  0.4713 -0.9485 -0.4693
  716MOL0     C96559  10.096   3.433  -0.041 -0.0703  0.2484  1.0325
  716MOL0     O96560  10.230   3.448  -0.011 -0.4120  0.8789  0.2064
  716MOL0     C96561  10.272   3.425   0.125  0.2393  0.1563  0.5222
  716MOL0     C96562  10.423   3.405   0.135  0.6433  0.0917 -0.5817
  716MOL0     C96563  10.466   3.398   0.281 -0.4262  0.8034 -0.4451
  716MOL0     C96564  10.620   3.368   0.289  0.8044 -0.6160  0.2050
  716MOL0     C96565  10.662   3.410   0.430 -0.0401  0.1291  0.3514
  716MOL0     C96566  10.799   3.354   0.476  0.8886 -0.7172  0.1344
  716MOL0     C96567  10.871   3.436   0.590 -0.5009  0.3001  0.0460
  716MOL0     C96568  10.814   3.392   0.727  0.2331 -1.0234  0.1545
  716MOL0    Cl96569  10.910   3.454   0.865  0.3128  0.0055 -0.0626
  716MOL0     C96570  10.021   3.311  -0.058 -1.1428  0.3496 -0.0077
  716MOL0     C96571   9.879   3.312  -0.075  0.1247 -0.1103 -0.1615
  716MOL0     O96572   9.664   3.603  -0.287  1.6261 -0.5726  0.3828
  716MOL0     C96573   9.391   3.401  -0.157 -0.8115 -0.5824  0.0890
  716MOL0     C96574   9.259   3.389  -0.182  0.0713  1.2178  0.0527
  716MOL0     N96575   8.503   3.609  -0.178 -0.0394 -0.6155 -0.3048
  716MOL0     N96576   8.404   3.569  -0.109  0.3729  0.8749  0.1288
  716MOL0     C96577   7.506   3.897   0.384  0.1922  0.0088  0.3336
  716MOL0     C96578   7.382   3.916   0.449  0.8623  1.0080  0.0862
  716MOL0     C96579   6.938   3.995   0.426  0.2763  0.4152 -0.2299
  716MOL0     C96580   6.913   4.134   0.450  0.8317  0.4456  0.6096
  716MOL0     C96581   6.782   4.186   0.460  0.0959 -0.2334  0.6831
  716MOL0     C96582   6.673   4.109   0.450  0.1342  0.5616  0.3101
  716MOL0     O96583   6.552   4.159   0.454  1.0933  0.0117  0.2412
  716MOL0     C96584   6.518   4.282   0.523 -0.2322 -0.2044  0.3549
  716MOL0     C96585   6.373   4.320   0.506  0.1885 -0.3414  0.4651
  716MOL0     C96586   6.275   4.212   0.551  0.3024  0.6802 -0.6066
  716MOL0     C96587   6.131   4.265   0.570  0.6641 -0.0332 -0.0747
  716MOL0     C96588   6.064   4.299   0.441  0.0159  0.2109  0.2580
  716MOL0     C96589   6.031   4.318   0.321  0.6990 -0.1867 -0.0728
  716MOL0     C96590   6.690   3.970   0.422  0.0923 -0.7672 -1.2160
  716MOL0     C96591   6.817   3.911   0.422 -0.1585 -0.6010 -0.4863
  716MOL0     C96592   6.800   3.767   0.378 -1.4772  0.7616 -0.4688
  716MOL0     H96593   7.252   4.124   0.217  2.4142  0.2011 -3.2762
  716MOL0     H96594   7.462   4.075   0.101  1.8502 -0.7257 -0.2863
  716MOL0     H96595   7.780   3.819   0.311  0.1609 -1.6555 -0.6798
  716MOL0     H96596   7.638   3.718   0.269  1.0601 -2.4708 -2.1620
  716MOL0     H96597   7.842   3.798   0.064 -0.3763 -0.5780 -2.0055
  716MOL0     H96598   7.699   3.703   0.047  0.4616  2.2221 -0.1635
  716MOL0     H96599   7.801   3.528   0.197  1.2605  0.4465  0.8161
  716MOL0     H96600   7.950   3.617   0.225  0.3537 -1.3143 -0.0587
  716MOL0     H96601   7.885   3.565  -0.059 -1.5304  1.5709  1.6299
  716MOL0     H96602   8.037   3.590   0.010 -1.2450  2.5773  0.6479
  716MOL0     H96603   8.042   3.361   0.126  0.0628 -2.9141 -0.1883
  716MOL0     H96604   7.876   3.354   0.096 -0.5075  1.7591  0.1294
  716MOL0     H96605   8.037   3.209  -0.048 -0.0091  0.1328  0.0405
  716MOL0     H96606   7.915   3.304  -0.139 -0.1243  0.0825 -1.1027
  716MOL0     H96607   8.082   3.488  -0.182 -0.9364  0.5303  1.7245
  716MOL0     H96608   8.130   3.341  -0.258  4.4517  0.8248  0.8970
  716MOL0     H96609   8.240   3.386   0.010 -1.6007  0.9237 -0.4055
  716MOL0     H96610   8.283   3.260  -0.117 -1.5399 -0.3623 -0.8477
  716MOL0     H96611   8.410   3.339  -0.341  4.5747 -1.0613  0.8812
  716MOL0     H96612   8.604   3.414  -0.439 -0.2664 -0.6522  0.6562
  716MOL0     H96613   8.685   3.573  -0.406  1.1549  0.2011  0.7389
  716MOL0     H96614   8.707   3.305  -0.264 -2.5732  1.0053 -2.8581
  716MOL0     H96615   8.817   3.369  -0.375 -0.3486 -1.4361  0.0260
  716MOL0     H96616   8.772   3.468  -0.088  0.2333  1.4927  0.2635
  716MOL0     H96617   8.844   3.580  -0.199  1.3378  0.0992  1.2413
  716MOL0     H96618   8.968   3.305  -0.156  2.1333 -1.0122 -1.0662
  716MOL0     H96619   9.019   3.453  -0.066 -1.7147  0.0510  1.1049
  716MOL0     H96620   9.190   3.633  -0.415  0.7524  1.5657  0.7380
  716MOL0     H96621   9.430   3.652  -0.391  0.0689  2.6252  2.6736
  716MOL0     H96622   9.834   3.654  -0.076  1.0144  0.7153 -0.0942
  716MOL0     H96623  10.083   3.643  -0.040  1.9611 -1.8370 -0.2393
  716MOL0     H96624  10.249   3.515   0.183 -1.4088 -1.4936  2.5845
  716MOL0     H96625  10.221   3.339   0.169  1.6511 -2.3115 -2.2972
  716MOL0     H96626  10.450   3.318   0.074  1.8228  0.5323 -0.7094
  716MOL0     H96627  10.478   3.483   0.082 -0.1602 -0.8376 -2.9647
  716MOL0     H96628  10.453   3.498   0.323  0.4339  0.6984  0.1060
  716MOL0     H96629  10.420   3.307   0.320  3.2104 -1.1641 -0.2673
  716MOL0     H96630  10.673   3.424   0.212 -1.1166  1.2942  0.1888
  716MOL0     H96631  10.642   3.261   0.277 -1.0717 -1.0902  0.6407
  716MOL0     H96632  10.584   3.385   0.502 -0.2192  0.1306  0.1603
  716MOL0     H96633  10.683   3.517   0.435  0.1033  0.0944  0.5022
  716MOL0     H96634  10.781   3.248   0.498 -2.8720 -0.6974 -1.9858
  716MOL0     H96635  10.866   3.357   0.389 -1.6149 -1.4136 -1.9529
  716MOL0     H96636  10.853   3.543   0.574  1.6427  0.9222  1.3889
  716MOL0     H96637  10.979   3.425   0.586 -0.4220  1.2739 -2.8188
  716MOL0     H96638  10.712   3.430   0.740  0.1737 -0.3036 -2.0230
  716MOL0     H96639  10.819   3.284   0.739  0.2645 -0.7583  3.4486
  716MOL0     H96640  10.076   3.218  -0.060  1.8414  1.9960 -1.0182
  716MOL0     H96641   9.821   3.220  -0.085 -0.3775  0.3457 -1.7913
  716MOL0     H96642   9.438   3.345  -0.076  1.8104  0.4620 -0.6175
  716MOL0     H96643   9.209   3.311  -0.125  0.5767  0.3229 -0.6943
  716MOL0     H96644   7.576   3.838   0.442  1.0228  2.2546  1.7912
  716MOL0     H96645   7.354   3.863   0.540  1.2322  0.0234 -0.3527
  716MOL0     H96646   6.997   4.202   0.456  0.7873  0.5050  0.5618
  716MOL0     H96647   6.773   4.293   0.480 -1.0689 -0.3378  0.8258
  716MOL0     H96648   6.574   4.367   0.484 -0.1401  0.8405  2.6077
  716MOL0     H96649   6.548   4.262   0.626  3.3124 -1.0746 -0.7351
  716MOL0     H96650   6.355   4.343   0.400 -0.2150 -0.7796  0.4325
  716MOL0     H96651   6.361   4.417   0.555 -1.0208  0.8539 -2.0161
  716MOL0     H96652   6.307   4.175   0.649  0.3412  0.7830 -0.5801
  716MOL0     H96653   6.272   4.127   0.482 -4.3640  0.4066 -0.3925
  716MOL0     H96654   6.076   4.178   0.607  0.1568  0.5681  0.5846
  716MOL0     H96655   6.134   4.357   0.629  1.3362 -0.6462  0.8817
  716MOL0     H96656   5.999   4.342   0.222 -0.4329  0.8785  0.5259
  716MOL0     H96657   6.602   3.907   0.414  1.0820 -2.6962  1.2919
  716MOL0     H96658   6.866   3.704   0.438 -3.0918 -0.2655  0.2837
  716MOL0     H96659   6.697   3.731   0.383 -0.8823 -1.1470 -1.1827
  716MOL0     H96660   6.846   3.758   0.279  0.2374 -2.0040  0.4508
  717MOL0     O96661   7.912   4.419   3.637  0.3156  0.0910  0.4216
  717MOL0     C96662   7.892   4.537   3.642  0.5278 -0.8278  0.5341
  717MOL0     O96663   7.929   4.636   3.535  0.3198  0.1592 -0.5755
  717MOL0     C96664   8.032   4.616   3.447  0.0343 -0.3462  0.0784
  717MOL0     C96665   8.131   4.521   3.449 -0.0542 -0.0390 -0.1900
  717MOL0     C96666   8.233   4.521   3.354  1.0620 -0.4179  1.2896
  717MOL0     C96667   8.223   4.604   3.240  0.0539 -0.3979 -0.5218
  717MOL0     O96668   8.326   4.601   3.152 -0.0399 -0.1838  0.1083
  717MOL0     C96669   8.340   4.704   3.043  0.4608 -0.0576  0.2770
  717MOL0     C96670   8.460   4.673   2.956 -0.5796  0.0900 -0.1978
  717MOL0     C96671   8.583   4.644   3.038  0.0999  0.0489  0.3332
  717MOL0     C96672   8.719   4.641   2.959 -0.1662  0.3123 -0.6581
  717MOL0     C96673   8.791   4.778   2.954  0.5147 -0.3464  0.1356
  717MOL0     C96674   8.926   4.767   2.883 -0.3505  0.0531  0.7412
  717MOL0     C96675   9.038   4.700   2.966  0.1287 -0.2064  0.0579
  717MOL0     C96676   9.067   4.785   3.092  0.1858 -0.1566 -0.3984
  717MOL0     N96677   9.179   4.738   3.171 -0.2547  0.2029  0.2612
  717MOL0     C96678   9.255   4.809   3.259  0.3540 -0.0516 -0.5907
  717MOL0     C96679   9.354   4.722   3.293  0.2257  1.1388  0.3640
  717MOL0     C96680   9.461   4.753   3.389  0.3533 -0.0296 -0.5140
  717MOL0     C96681   9.591   4.807   3.333 -1.0031 -0.3433 -0.0521
  717MOL0     C96682   9.663   4.703   3.235 -0.3734 -0.6624  0.7259
  717MOL0     C96683   9.802   4.748   3.191  0.0233  0.0254  0.5842
  717MOL0     O96684   9.877   4.771   3.314  0.1585  0.3689  0.7718
  717MOL0     C96685   9.948   4.882   3.326  0.1016  0.6531 -0.1598
  717MOL0     C96686   9.993   4.955   3.217 -0.1856 -0.1546 -0.1841
  717MOL0     C96687  10.100   5.055   3.236  0.6811  0.0916 -0.8918
  717MOL0     C96688  10.155   5.082   3.353 -0.1496  0.0553 -0.3882
  717MOL0     C96689  10.255   5.186   3.382  0.3837  0.2633  0.2380
  717MOL0     O96690  10.324   5.186   3.503  0.0859  0.5924 -0.0346
  717MOL0     C96691  10.417   5.278   3.532  0.5539  0.1699 -0.2376
  717MOL0     C96692  10.506   5.244   3.621 -0.1224  0.0735 -0.3456
  717MOL0     C96693  10.591   5.332   3.684 -0.5792 -0.2820  0.0209
  717MOL0     C96694  10.578   5.473   3.660  0.5250  0.4606  0.0346
  717MOL0     O96695  10.676   5.546   3.715  0.0312 -0.3194  0.5478
  717MOL0     C96696  10.699   5.680   3.679  0.0836  0.6359  0.7253
  717MOL0     C96697  10.851   5.706   3.694  0.2442 -0.1994  0.4915
  717MOL0     C96698  10.875   5.861   3.673 -0.0442  0.4413 -0.7217
  717MOL0     C96699  11.027   5.875   3.684  0.0046  0.4308  0.5498
  717MOL0     C96700  11.098   5.853   3.549  0.5046 -0.1965 -0.2290
  717MOL0     C96701  11.075   5.949   3.436 -0.4481  0.3792 -0.3526
  717MOL0     C96702  11.083   6.097   3.484  1.2386 -0.2762 -0.2042
  717MOL0     C96703  11.209   6.136   3.538  0.3883 -0.7675  0.2894
  717MOL0    Cl96704  11.201   6.302   3.611 -0.0559  0.5374  0.2406
  717MOL0     C96705  10.485   5.514   3.563 -0.5329 -0.2058  0.2054
  717MOL0     C96706  10.397   5.421   3.506 -0.2730  0.1035  0.4880
  717MOL0     O96707  10.283   5.260   3.293  0.2479  0.2646  0.0883
  717MOL0     C96708  10.099   5.013   3.465 -0.1010  0.1146  0.1654
  717MOL0     C96709  10.001   4.913   3.454  0.4683 -0.5745 -0.3979
  717MOL0     N96710   9.339   4.604   3.222 -0.0261  0.0141  0.0742
  717MOL0     N96711   9.231   4.611   3.166  0.8560 -0.3550  0.6065
  717MOL0     C96712   8.115   4.688   3.225  0.3676 -0.1065 -0.4612
  717MOL0     C96713   8.028   4.689   3.332 -0.1999 -0.3271  0.8227
  717MOL0     C96714   7.804   4.593   3.752  0.3910  0.3985 -0.2142
  717MOL0     C96715   7.734   4.711   3.735 -0.1048 -0.1083 -0.7230
  717MOL0     C96716   7.636   4.748   3.823  0.2106 -0.9407  0.1450
  717MOL0     C96717   7.597   4.669   3.930  0.1641  0.3505  0.8210
  717MOL0     O96718   7.494   4.702   4.006 -0.1562 -0.5196  0.2229
  717MOL0     C96719   7.423   4.587   4.050 -0.8832  0.1139 -0.3544
  717MOL0     C96720   7.275   4.617   4.087  0.1676 -0.4293  0.2760
  717MOL0     C96721   7.255   4.699   4.210  0.1979 -0.5808 -1.1664
  717MOL0     C96722   7.111   4.702   4.279  0.2066  0.1850  0.9682
  717MOL0     C96723   7.010   4.708   4.180 -0.3130 -0.8004 -0.2847
  717MOL0     C96724   6.937   4.710   4.087  0.3167  0.2171 -0.1089
  717MOL0     C96725   7.675   4.556   3.949 -0.6840  0.0446  0.3278
  717MOL0     C96726   7.790   4.522   3.880  0.1564 -0.0596  0.5592
  717MOL0     C96727   7.865   4.397   3.925  0.2205 -0.9753 -0.0604
  717MOL0     H96728   8.153   4.466   3.540 -0.3517 -0.2713 -0.2548
  717MOL0     H96729   8.327   4.467   3.360  1.5511  0.5408  3.5993
  717MOL0     H96730   8.252   4.709   2.979 -1.1589  0.6760  2.4530
  717MOL0     H96731   8.351   4.801   3.093 -0.7890  0.4692 -0.4514
  717MOL0     H96732   8.483   4.756   2.889 -0.1744 -0.0815 -0.2742
  717MOL0     H96733   8.444   4.600   2.877  0.9992  0.8134 -1.2309
  717MOL0     H96734   8.567   4.544   3.077  4.0046 -0.1444  1.9696
  717MOL0     H96735   8.586   4.707   3.127 -0.1048  0.4534  0.0594
  717MOL0     H96736   8.784   4.584   3.026  0.3097  1.1893 -0.3474
  717MOL0     H96737   8.718   4.594   2.860 -0.4268  2.2428 -1.6396
  717MOL0     H96738   8.735   4.846   2.889 -2.0324 -2.6024 -0.1771
  717MOL0     H96739   8.797   4.825   3.053 -0.1160  1.8528 -0.8051
  717MOL0     H96740   8.900   4.728   2.784 -1.0804  2.1934  0.0475
  717MOL0     H96741   8.965   4.867   2.865 -1.4572  0.4121  0.3029
  717MOL0     H96742   9.114   4.682   2.889 -1.7250  0.9794 -2.1886
  717MOL0     H96743   9.008   4.604   3.008 -2.2410 -0.4726 -1.9902
  717MOL0     H96744   9.092   4.886   3.057 -0.7605  0.2627  0.0941
  717MOL0     H96745   8.979   4.780   3.157 -0.4603 -0.6387 -1.3013
  717MOL0     H96746   9.250   4.915   3.279 -0.8647 -0.3374  0.7903
  717MOL0     H96747   9.430   4.817   3.473  2.3494  1.3223 -0.7335
  717MOL0     H96748   9.491   4.659   3.437  2.4427  0.9825  0.2926
  717MOL0     H96749   9.556   4.897   3.281 -1.4157 -0.5115 -0.0685
  717MOL0     H96750   9.655   4.834   3.417 -0.6626  0.6323 -0.6042
  717MOL0     H96751   9.603   4.695   3.144 -0.6749 -4.2515  1.1143
  717MOL0     H96752   9.667   4.607   3.287 -3.2474 -1.4956 -0.3950
  717MOL0     H96753   9.778   4.845   3.146 -1.9882  0.0806  1.6495
  717MOL0     H96754   9.853   4.682   3.122 -0.6659 -1.8525  1.8000
  717MOL0     H96755   9.957   4.944   3.116  1.4042 -4.6554 -0.4563
  717MOL0     H96756  10.136   5.107   3.147  1.2635  0.6797 -0.3193
  717MOL0     H96757  10.517   5.139   3.644 -2.1414  0.2947  1.9461
  717MOL0     H96758  10.668   5.297   3.752  0.1571 -0.2070 -0.7481
  717MOL0     H96759  10.664   5.702   3.578  1.2985 -1.2415 -0.1633
  717MOL0     H96760  10.660   5.749   3.755  1.1555  0.9761  0.9876
  717MOL0     H96761  10.872   5.675   3.797 -0.6926 -0.5008  0.6024
  717MOL0     H96762  10.910   5.651   3.620  0.2037 -2.4857  2.0490
  717MOL0     H96763  10.828   5.890   3.579 -0.4343  0.2227 -0.5954
  717MOL0     H96764  10.830   5.913   3.757 -0.6223 -0.7506 -0.2628
  717MOL0     H96765  11.054   5.800   3.758 -1.2161  1.1702  1.7880
  717MOL0     H96766  11.058   5.978   3.707  2.9088  0.0967 -1.3153
  717MOL0     H96767  11.072   5.755   3.509 -0.4354 -0.6235  1.3230
  717MOL0     H96768  11.205   5.855   3.571  1.2038  1.9102 -3.1604
  717MOL0     H96769  11.153   5.942   3.359  1.3356  0.4206  1.3725
  717MOL0     H96770  10.976   5.935   3.391 -0.5242  1.3419 -0.5105
  717MOL0     H96771  10.997   6.109   3.551  0.3197 -0.8766 -1.2229
  717MOL0     H96772  11.062   6.158   3.396 -1.2766 -0.1820  0.3699
  717MOL0     H96773  11.233   6.074   3.624 -4.3331 -1.7131  1.2393
  717MOL0     H96774  11.280   6.129   3.456  0.7645 -1.9371  0.7060
  717MOL0     H96775  10.463   5.618   3.539  0.3852 -0.0678 -0.0859
  717MOL0     H96776  10.311   5.442   3.443  0.6711  1.5425 -0.3821
  717MOL0     H96777  10.141   5.019   3.565 -3.4724 -0.4006  1.7425
  717MOL0     H96778   9.967   4.847   3.533 -2.5651 -2.7779 -3.2791
  717MOL0     H96779   8.102   4.763   3.147 -2.7583  0.8709  0.8589
  717MOL0     H96780   7.942   4.756   3.329  2.0972  2.8269  0.6964
  717MOL0     H96781   7.758   4.772   3.649  2.3694  0.8990  0.5761
  717MOL0     H96782   7.589   4.842   3.793  2.8948 -0.1210 -1.8457
  717MOL0     H96783   7.467   4.550   4.143 -1.8264  1.1019  0.5139
  717MOL0     H96784   7.420   4.517   3.966  3.0564 -1.3038  0.5021
  717MOL0     H96785   7.229   4.520   4.107  3.3270 -2.0535  0.3501
  717MOL0     H96786   7.221   4.672   4.009  0.6523  1.7019  1.3687
  717MOL0     H96787   7.283   4.803   4.190  0.6796 -0.1998  1.2002
  717MOL0     H96788   7.332   4.658   4.277 -0.5784  0.4648  0.4209
  717MOL0     H96789   7.100   4.611   4.338 -1.4489 -0.6632 -0.5342
  717MOL0     H96790   7.110   4.778   4.357 -0.4415 -2.1454  3.3568
  717MOL0     H96791   6.882   4.717   3.995 -1.0061 -0.7996  0.5605
  717MOL0     H96792   7.644   4.488   4.028  3.0251 -1.9779  0.2170
  717MOL0     H96793   7.970   4.412   3.898  0.1533  1.4283  0.8063
  717MOL0     H96794   7.867   4.387   4.034  0.8030 -0.1403  0.0150
  717MOL0     H96795   7.821   4.305   3.884  0.3174 -2.1419  2.2611
  718MOL0     O96796   2.289   8.333   2.538  0.0171  0.4212 -0.2132
  718MOL0     C96797   2.303   8.216   2.508 -0.9782 -0.8698 -0.6269
  718MOL0     O96798   2.422   8.140   2.539 -0.1809 -0.0135  0.0684
  718MOL0     C96799   2.493   8.188   2.643 -0.0846 -0.3307 -0.2344
  718MOL0     C96800   2.581   8.297   2.634 -0.2474 -0.3195  0.3493
  718MOL0     C96801   2.665   8.345   2.737 -0.5257 -0.2574 -0.3666
  718MOL0     C96802   2.677   8.281   2.859  0.3419  0.3374 -0.4295
  718MOL0     O96803   2.760   8.334   2.958  0.1605 -0.3463 -0.2756
  718MOL0     C96804   2.788   8.262   3.078 -0.1374 -0.4691  0.4400
  718MOL0     C96805   2.889   8.341   3.165 -0.5619  0.3187 -0.3998
  718MOL0     C96806   3.006   8.397   3.086 -0.5113 -0.1006 -0.0444
  718MOL0     C96807   3.110   8.467   3.173 -0.0251  0.0391 -0.0651
  718MOL0     C96808   3.231   8.507   3.102 -0.6011 -0.0073  0.0873
  718MOL0     C96809   3.320   8.613   3.168 -0.9979  0.2964  0.3391
  718MOL0     C96810   3.464   8.596   3.117 -0.3131 -0.4685 -0.6382
  718MOL0     C96811   3.554   8.714   3.168 -0.0976 -0.8112 -0.2952
  718MOL0     N96812   3.699   8.689   3.156  0.3552  0.2946  0.6098
  718MOL0     C96813   3.790   8.724   3.251  0.4865  0.4299  0.6122
  718MOL0     C96814   3.907   8.701   3.193 -0.1140 -0.1537  0.2503
  718MOL0     C96815   4.045   8.709   3.257 -0.6457  0.4920 -0.9151
  718MOL0     C96816   4.049   8.857   3.321 -1.2226  0.2909 -0.0108
  718MOL0     C96817   4.175   8.866   3.417  0.0923 -0.1335 -0.6610
  718MOL0     C96818   4.305   8.812   3.353 -0.0418  0.1517 -0.4411
  718MOL0     O96819   4.403   8.827   3.457 -0.6332  0.1234  0.4561
  718MOL0     C96820   4.536   8.817   3.432 -0.2812 -0.0859 -0.3337
  718MOL0     C96821   4.630   8.850   3.535  0.3463  0.5279  0.4918
  718MOL0     C96822   4.769   8.845   3.511  1.0057 -0.5035 -0.7681
  718MOL0     C96823   4.828   8.781   3.403  0.0885  0.1227 -0.7971
  718MOL0     C96824   4.979   8.773   3.385  0.9193  0.9761 -0.6038
  718MOL0     O96825   5.018   8.686   3.286 -0.3679  0.5438 -0.8267
  718MOL0     C96826   5.142   8.634   3.291 -0.2842 -0.2935  0.9207
  718MOL0     C96827   5.203   8.565   3.400  0.3532 -0.7688 -0.3365
  718MOL0     C96828   5.342   8.526   3.399  0.3043 -0.5683 -0.2946
  718MOL0     C96829   5.411   8.559   3.273  0.5144 -0.3689 -0.1778
  718MOL0     O96830   5.542   8.537   3.249 -0.6818 -0.2373  0.5770
  718MOL0     C96831   5.644   8.488   3.333 -0.0372 -0.2292 -0.0950
  718MOL0     C96832   5.771   8.490   3.257 -0.2516  0.1686  1.3731
  718MOL0     C96833   5.875   8.414   3.338 -0.0310 -0.0900 -0.1629
  718MOL0     C96834   6.013   8.435   3.273 -0.0289  0.2650  0.4001
  718MOL0     C96835   6.125   8.339   3.316 -0.1467 -0.3605 -0.8754
  718MOL0     C96836   6.257   8.370   3.256 -0.1933  0.1889 -0.0753
  718MOL0     C96837   6.366   8.262   3.293 -0.5655  0.0026 -0.5444
  718MOL0     C96838   6.495   8.293   3.219  0.2110  0.3491 -0.7286
  718MOL0    Cl96839   6.621   8.184   3.292  0.1621 -0.1490  0.5877
  718MOL0     C96840   5.350   8.622   3.166 -0.6001  0.0627  0.2333
  718MOL0     C96841   5.219   8.659   3.177  0.9856 -0.0127 -0.4353
  718MOL0     O96842   5.057   8.841   3.455 -0.0197 -0.2859 -0.2405
  718MOL0     C96843   4.738   8.734   3.303 -0.2824  0.5505 -0.1260
  718MOL0     C96844   4.598   8.754   3.322  0.3272 -0.5717  0.3175
  718MOL0     N96845   3.888   8.663   3.060 -0.4939 -0.4033 -0.5508
  718MOL0     N96846   3.766   8.650   3.044 -0.9163  0.3803 -0.4275
  718MOL0     C96847   2.597   8.157   2.868  0.0846 -0.3123 -0.2071
  718MOL0     C96848   2.513   8.112   2.765  0.2178 -0.3402 -0.8872
  718MOL0     C96849   2.202   8.153   2.419 -0.6119  0.7169 -0.7608
  718MOL0     C96850   2.229   8.037   2.342 -0.2803 -0.4527  0.2945
  718MOL0     C96851   2.140   7.972   2.267  0.6885  0.8632  0.8057
  718MOL0     C96852   2.000   8.002   2.276 -0.4828  0.3778  0.9224
  718MOL0     O96853   1.902   7.931   2.217  0.1630  0.3567  0.2255
  718MOL0     C96854   1.927   7.902   2.078  0.6118  0.4466  0.5384
  718MOL0     C96855   1.798   7.840   2.015  0.6549 -0.4203  0.1938
  718MOL0     C96856   1.681   7.942   2.024  0.1534  0.1953  0.1541
  718MOL0     C96857   1.543   7.871   1.984  0.5706 -0.5263  0.2814
  718MOL0     C96858   1.506   7.770   2.083 -0.1425 -0.4788 -0.0506
  718MOL0     C96859   1.473   7.691   2.168  0.5092  0.4552  0.5717
  718MOL0     C96860   1.969   8.114   2.363  0.0315  0.1644 -0.1198
  718MOL0     C96861   2.060   8.188   2.435 -0.7518  0.0971 -0.2968
  718MOL0     C96862   2.005   8.279   2.539 -0.1496 -0.1768 -0.8615
  718MOL0     H96863   2.580   8.331   2.531  1.7851  0.3597  0.5044
  718MOL0     H96864   2.732   8.428   2.714 -1.6302  0.8622  0.3288
  718MOL0     H96865   2.691   8.242   3.124  0.3414  0.1689  1.7645
  718MOL0     H96866   2.824   8.161   3.057  1.3462  0.1885 -0.3519
  718MOL0     H96867   2.923   8.278   3.248 -2.3469  1.5710  1.3780
  718MOL0     H96868   2.841   8.425   3.216  1.4862 -0.4835  3.2604
  718MOL0     H96869   2.980   8.462   3.002  0.7023  0.4124 -0.0436
  718MOL0     H96870   3.051   8.307   3.043 -1.3290 -0.6696  0.2682
  718MOL0     H96871   3.060   8.558   3.208  1.3901  0.7460  0.1752
  718MOL0     H96872   3.135   8.401   3.256 -1.9534 -2.4513 -1.3453
  718MOL0     H96873   3.278   8.408   3.099 -2.1431 -0.7499 -0.2686
  718MOL0     H96874   3.196   8.537   3.003 -1.9703  0.9775  0.8404
  718MOL0     H96875   3.277   8.708   3.135 -1.3204 -0.6642 -2.2355
  718MOL0     H96876   3.331   8.606   3.277  2.7372 -1.8905 -0.0126
  718MOL0     H96877   3.463   8.613   3.009  1.7486 -2.5370 -1.0782
  718MOL0     H96878   3.497   8.496   3.149  0.9243  0.1979  0.2837
  718MOL0     H96879   3.526   8.810   3.124  0.0153 -1.4926 -1.9135
  718MOL0     H96880   3.536   8.728   3.275  1.0782  1.3434 -0.3196
  718MOL0     H96881   3.785   8.758   3.354 -0.9526  1.7553  0.1440
  718MOL0     H96882   4.053   8.630   3.333  0.8144  1.0904 -0.4203
  718MOL0     H96883   4.124   8.696   3.184 -0.7992 -1.0445 -0.8469
  718MOL0     H96884   4.046   8.934   3.244 -4.4721  2.7985  2.3483
  718MOL0     H96885   3.958   8.868   3.381  0.3734  2.7257  2.2302
  718MOL0     H96886   4.159   8.816   3.514 -1.2971  1.7791  0.1664
  718MOL0     H96887   4.201   8.968   3.446 -1.4717 -0.0619  0.6706
  718MOL0     H96888   4.333   8.858   3.258  4.2003 -0.6626  0.2094
  718MOL0     H96889   4.305   8.705   3.330 -0.4101 -0.3008  1.4851
  718MOL0     H96890   4.597   8.881   3.634 -2.2326  0.2118 -0.1925
  718MOL0     H96891   4.830   8.867   3.599 -1.3048  0.9754  0.5553
  718MOL0     H96892   5.147   8.564   3.493 -0.2504 -0.4734 -0.6919
  718MOL0     H96893   5.393   8.489   3.487  0.1124  0.8938  0.4607
  718MOL0     H96894   5.645   8.553   3.421 -0.4247  2.8573 -2.1877
  718MOL0     H96895   5.613   8.387   3.360 -1.0387  0.0659 -0.0994
  718MOL0     H96896   5.766   8.447   3.156 -2.0055  1.1267  1.0071
  718MOL0     H96897   5.805   8.592   3.236 -2.9781  0.9724  0.4024
  718MOL0     H96898   5.886   8.454   3.439 -1.6523  1.7782 -0.6579
  718MOL0     H96899   5.849   8.310   3.315 -2.2343  1.0376 -3.4778
  718MOL0     H96900   6.057   8.534   3.288 -0.3946  0.2483  1.7880
  718MOL0     H96901   6.002   8.420   3.165 -2.6918  2.5333  0.2418
  718MOL0     H96902   6.103   8.234   3.298 -0.1338 -0.9664  2.1839
  718MOL0     H96903   6.131   8.337   3.425 -0.2520 -4.2108 -0.8139
  718MOL0     H96904   6.252   8.373   3.147 -1.6328  0.2774 -0.0267
  718MOL0     H96905   6.291   8.468   3.291 -0.2124 -0.8888  3.2996
  718MOL0     H96906   6.333   8.162   3.264  1.3167 -0.7046 -0.4353
  718MOL0     H96907   6.381   8.277   3.400 -4.6172  1.0166  0.0377
  718MOL0     H96908   6.484   8.272   3.112 -2.4787 -0.3343 -0.3978
  718MOL0     H96909   6.526   8.397   3.235 -3.6671  1.5195  0.2692
  718MOL0     H96910   5.407   8.651   3.079  1.3584  1.4094  1.8775
  718MOL0     H96911   5.176   8.706   3.089 -1.4564 -0.5913  0.3881
  718MOL0     H96912   4.779   8.678   3.220  1.2668  0.0691  0.9186
  718MOL0     H96913   4.521   8.724   3.251  0.5856 -1.4481  0.4004
  718MOL0     H96914   2.607   8.094   2.956 -1.4291 -1.2273 -0.6546
  718MOL0     H96915   2.458   8.019   2.775  1.7191 -1.1620  0.2005
  718MOL0     H96916   2.332   8.003   2.338  1.4961  4.2323 -0.1445
  718MOL0     H96917   2.178   7.886   2.213 -0.9142  1.2293 -1.0247
  718MOL0     H96918   2.003   7.824   2.067 -1.4942 -1.4593 -1.6922
  718MOL0     H96919   1.960   7.988   2.018 -0.9838  0.0412 -1.0126
  718MOL0     H96920   1.764   7.745   2.059  1.6105  0.0358  2.0020
  718MOL0     H96921   1.819   7.820   1.910 -0.2696  1.0282 -0.2987
  718MOL0     H96922   1.703   8.023   1.953  3.4526 -0.5865  0.0970
  718MOL0     H96923   1.676   7.996   2.119 -2.7360 -1.4727  1.0595
  718MOL0     H96924   1.470   7.952   1.987  1.4552  0.2811  1.9823
  718MOL0     H96925   1.539   7.821   1.887 -0.0558  2.4266 -1.3119
  718MOL0     H96926   1.420   7.622   2.231 -1.0917  0.6845 -0.4367
  718MOL0     H96927   1.866   8.145   2.379  0.1030  1.2681 -1.6427
  718MOL0     H96928   1.896   8.277   2.549 -0.1028 -1.7705 -0.4337
  718MOL0     H96929   2.052   8.238   2.629  0.8546  0.4643 -1.0687
  718MOL0     H96930   2.039   8.382   2.522  0.1218  0.1577  1.3552
  719MOL0     O96931   2.619   5.160   1.339 -0.4727 -0.2134 -0.0107
  719MOL0     C96932   2.626   5.049   1.296 -0.5876 -0.0759  0.0936
  719MOL0     O96933   2.735   4.991   1.231  0.3141 -0.4055  0.5641
  719MOL0     C96934   2.844   5.051   1.164 -0.2458  0.6097 -0.0859
  719MOL0     C96935   2.935   4.964   1.101 -0.1291 -0.1731 -0.2880
  719MOL0     C96936   3.045   5.021   1.035 -0.0075  0.1434 -0.2865
  719MOL0     C96937   3.070   5.159   1.030  0.4846 -0.5761  0.2318
  719MOL0     O96938   3.174   5.199   0.946  0.1598  0.1819 -0.4390
  719MOL0     C96939   3.207   5.340   0.943 -0.3043  0.1695  0.1492
  719MOL0     C96940   3.284   5.379   1.069 -0.3823  0.4456  1.0346
  719MOL0     C96941   3.332   5.526   1.070  0.4266  0.1011 -0.2491
  719MOL0     C96942   3.470   5.545   1.012 -0.8383 -0.2784  0.5861
  719MOL0     C96943   3.568   5.507   1.118  0.2489  0.1290  0.5572
  719MOL0     C96944   3.709   5.539   1.068 -0.1627  0.8422  0.1246
  719MOL0     C96945   3.811   5.533   1.176 -0.1252  0.0222  0.2807
  719MOL0     C96946   3.834   5.390   1.221  0.1095  0.2614 -0.1681
  719MOL0     N96947   3.943   5.374   1.316 -0.4030  0.1289 -1.1483
  719MOL0     C96948   4.034   5.268   1.320 -0.1617 -0.5854  0.4557
  719MOL0     C96949   4.109   5.300   1.428 -0.4638 -0.1782 -0.5924
  719MOL0     C96950   4.221   5.216   1.483  0.8846  0.9987 -0.6556
  719MOL0     C96951   4.353   5.292   1.463 -0.4068  1.0519  0.0109
  719MOL0     C96952   4.429   5.257   1.584 -0.4001  0.8975 -0.2191
  719MOL0     C96953   4.582   5.239   1.556 -0.7599 -0.3071 -0.0308
  719MOL0     O96954   4.649   5.184   1.668 -0.0319  0.0208 -0.8315
  719MOL0     C96955   4.791   5.193   1.665 -0.2822  0.9934  1.4349
  719MOL0     C96956   4.861   5.178   1.785 -0.2456 -1.0481  0.0898
  719MOL0     C96957   4.999   5.175   1.795 -0.5274  0.2301  0.6576
  719MOL0     C96958   5.075   5.189   1.673 -0.1447  0.5607 -0.2636
  719MOL0     C96959   5.224   5.179   1.680  0.1448 -0.3133  0.9320
  719MOL0     O96960   5.291   5.190   1.562 -0.0764 -0.3874 -0.3029
  719MOL0     C96961   5.424   5.172   1.567  0.9064 -0.2143 -0.0794
  719MOL0     C96962   5.517   5.281   1.587  0.2085 -0.2243  0.3295
  719MOL0     C96963   5.651   5.256   1.567  0.5895  0.0992 -0.0024
  719MOL0     C96964   5.699   5.126   1.560 -0.2845  0.1036  0.4204
  719MOL0     O96965   5.834   5.113   1.545 -1.1980  1.0818  0.0176
  719MOL0     C96966   5.903   5.054   1.660  0.0324 -0.0049  0.0106
  719MOL0     C96967   5.974   4.920   1.610  1.6030  0.6733 -0.4188
  719MOL0     C96968   6.110   4.962   1.558 -0.4259  0.1314 -1.1100
  719MOL0     C96969   6.165   4.855   1.459  0.3402  0.2908  0.2946
  719MOL0     C96970   6.292   4.906   1.403 -0.2305  0.5843 -0.6678
  719MOL0     C96971   6.335   4.836   1.281 -0.1131 -0.3465 -0.0301
  719MOL0     C96972   6.472   4.881   1.224 -0.1918 -0.4597  0.1425
  719MOL0     C96973   6.581   4.848   1.319 -0.9705 -0.7339  0.3803
  719MOL0    Cl96974   6.745   4.903   1.256 -0.1524 -0.1328  0.2788
  719MOL0     C96975   5.609   5.018   1.562 -0.6819 -0.5581  0.1071
  719MOL0     C96976   5.471   5.043   1.559 -0.9394  0.5086  0.6873
  719MOL0     O96977   5.275   5.134   1.782  0.0976 -0.0526 -0.9710
  719MOL0     C96978   5.006   5.215   1.552  0.1890  0.1206 -0.1789
  719MOL0     C96979   4.863   5.225   1.552  0.4584 -0.6399 -0.3665
  719MOL0     N96980   4.044   5.411   1.488  0.2006 -0.1725 -0.9614
  719MOL0     N96981   3.954   5.460   1.420  0.2384 -0.0654  0.6947
  719MOL0     C96982   2.980   5.242   1.101  0.1002 -0.5756 -0.4329
  719MOL0     C96983   2.869   5.186   1.160 -0.6071 -0.0484  0.1072
  719MOL0     C96984   2.506   4.966   1.327  0.4341 -0.2382 -1.0458
  719MOL0     C96985   2.398   5.034   1.398  0.1675 -0.3020  0.2690
  719MOL0     C96986   2.293   4.952   1.448 -0.1446  0.6295 -0.9712
  719MOL0     C96987   2.275   4.820   1.423 -0.1686 -0.7798 -0.8093
  719MOL0     O96988   2.185   4.743   1.504  0.2095  0.2881  0.8104
  719MOL0     C96989   2.202   4.599   1.489  0.5242  0.3033 -1.0575
  719MOL0     C96990   2.108   4.545   1.384 -0.4100 -0.7555 -0.3970
  719MOL0     C96991   2.116   4.392   1.389 -0.3412 -0.4548  0.3572
  719MOL0     C96992   2.013   4.331   1.299 -0.7089  0.8588 -1.1791
  719MOL0     C96993   2.028   4.348   1.153 -0.2650 -0.1885 -1.1393
  719MOL0     C96994   2.039   4.364   1.034  1.0791  0.1781 -0.4469
  719MOL0     C96995   2.372   4.768   1.338 -0.7093 -0.2087 -0.2418
  719MOL0     C96996   2.487   4.835   1.290  0.0979 -0.7942 -0.5282
  719MOL0     C96997   2.589   4.755   1.217 -0.6245 -0.0813 -0.1570
  719MOL0     H96998   2.922   4.856   1.100  1.4448 -0.4001 -1.8981
  719MOL0     H96999   3.110   4.958   0.975  0.9017  1.2918 -0.5459
  719MOL0     H97000   3.265   5.348   0.850 -3.6649 -2.1841 -2.4375
  719MOL0     H97001   3.118   5.403   0.935  1.5279  2.7971 -0.8922
  719MOL0     H97002   3.369   5.311   1.068 -1.5704 -1.0955  0.8864
  719MOL0     H97003   3.222   5.358   1.157 -1.6970 -4.8926 -0.7623
  719MOL0     H97004   3.326   5.569   1.171  0.0654 -3.1574  1.2520
  719MOL0     H97005   3.267   5.586   1.005  0.8285 -0.1347 -0.8762
  719MOL0     H97006   3.496   5.480   0.927  0.2656  2.9297 -1.7378
  719MOL0     H97007   3.479   5.646   0.971  0.0537 -0.3234  0.6528
  719MOL0     H97008   3.551   5.550   1.218 -0.1358 -2.5317  1.7275
  719MOL0     H97009   3.541   5.401   1.125 -0.3459  0.2560  0.2091
  719MOL0     H97010   3.742   5.491   0.976  2.7146  0.4323  1.2680
  719MOL0     H97011   3.706   5.647   1.058 -0.9056  1.3565  4.0765
  719MOL0     H97012   3.784   5.588   1.267 -0.8249 -1.5051  1.0334
  719MOL0     H97013   3.907   5.575   1.145 -2.0911  5.3381  0.3908
  719MOL0     H97014   3.748   5.345   1.271 -0.7262  1.3070 -0.6352
  719MOL0     H97015   3.851   5.322   1.137 -0.2641  0.7599 -0.6553
  719MOL0     H97016   4.046   5.182   1.254 -1.7521  1.0162 -2.1203
  719MOL0     H97017   4.194   5.215   1.589 -1.0195  1.0007 -1.1037
  719MOL0     H97018   4.226   5.111   1.452 -0.3184  0.7687 -0.1308
  719MOL0     H97019   4.410   5.266   1.373  2.3114  0.7601  1.7326
  719MOL0     H97020   4.339   5.400   1.456 -0.0701  1.0670 -0.5313
  719MOL0     H97021   4.394   5.161   1.622  0.8149  0.6701  0.3683
  719MOL0     H97022   4.414   5.332   1.662 -1.0020  0.6347 -0.0725
  719MOL0     H97023   4.612   5.339   1.525 -0.8986 -1.1355 -3.1871
  719MOL0     H97024   4.601   5.169   1.474 -2.2632 -1.8558  0.8792
  719MOL0     H97025   4.797   5.166   1.872 -1.8971  0.8144 -0.7864
  719MOL0     H97026   5.043   5.159   1.893 -0.2235 -3.1107  0.0873
  719MOL0     H97027   5.488   5.386   1.588 -1.1249 -0.4163 -3.0281
  719MOL0     H97028   5.715   5.344   1.562 -1.9738  2.2168  1.4154
  719MOL0     H97029   5.979   5.125   1.694 -0.8257  1.2764 -0.6544
  719MOL0     H97030   5.823   5.025   1.728  0.1169 -2.3494 -0.7980
  719MOL0     H97031   5.975   4.834   1.678 -0.0993 -1.7977 -3.2980
  719MOL0     H97032   5.920   4.888   1.521  1.2128  0.8943 -0.2634
  719MOL0     H97033   6.096   5.055   1.502  0.9869  1.1578  0.1518
  719MOL0     H97034   6.177   4.987   1.641 -3.1380  2.5768  0.5272
  719MOL0     H97035   6.099   4.844   1.372 -0.4066  2.8059  0.4878
  719MOL0     H97036   6.174   4.756   1.505 -0.3293  0.3137  0.4858
  719MOL0     H97037   6.368   4.893   1.480  1.3897  1.6808 -1.9930
  719MOL0     H97038   6.287   5.014   1.382  2.9285  0.6172 -1.8174
  719MOL0     H97039   6.334   4.730   1.311  1.1812  0.3504  2.8715
  719MOL0     H97040   6.259   4.846   1.203 -1.2184 -1.5567  0.8278
  719MOL0     H97041   6.456   4.989   1.214  0.4809 -0.2332  1.3093
  719MOL0     H97042   6.490   4.846   1.122 -1.0866  1.5761 -0.7906
  719MOL0     H97043   6.575   4.895   1.418  0.5357  0.1479  0.0868
  719MOL0     H97044   6.583   4.739   1.329  0.1764 -1.0125 -2.1504
  719MOL0     H97045   5.641   4.915   1.576 -3.2604 -1.2068  2.0757
  719MOL0     H97046   5.407   4.955   1.563 -1.0534  0.3531 -2.1970
  719MOL0     H97047   5.050   5.224   1.453 -0.2714 -0.6293 -0.4536
  719MOL0     H97048   4.814   5.249   1.458  0.8684 -0.6223 -0.5780
  719MOL0     H97049   2.989   5.350   1.108 -0.5051 -0.6452  3.4396
  719MOL0     H97050   2.807   5.252   1.220 -3.1631 -1.7801 -0.4518
  719MOL0     H97051   2.414   5.135   1.435  3.8024 -0.7844  0.3684
  719MOL0     H97052   2.212   4.992   1.508  0.7421 -0.9678  1.4363
  719MOL0     H97053   2.164   4.550   1.579  1.0405 -0.7958 -1.4165
  719MOL0     H97054   2.307   4.568   1.481  0.9174  1.1091  0.7240
  719MOL0     H97055   2.127   4.588   1.285 -1.7708 -0.2519 -0.4636
  719MOL0     H97056   2.007   4.577   1.409  0.4694  0.3084  2.1368
  719MOL0     H97057   2.102   4.356   1.492  1.7719  1.0503  1.2581
  719MOL0     H97058   2.213   4.351   1.362  0.2562  1.3578 -0.3835
  719MOL0     H97059   2.009   4.223   1.317  0.6826  0.6885 -1.7663
  719MOL0     H97060   1.915   4.372   1.325 -0.5944 -0.1520  1.0213
  719MOL0     H97061   2.053   4.382   0.929  2.0586 -3.7924 -1.1529
  719MOL0     H97062   2.386   4.661   1.325  0.6394 -0.1098  0.1911
  719MOL0     H97063   2.687   4.756   1.267 -0.1178  3.0671 -0.9766
  719MOL0     H97064   2.557   4.652   1.203  3.0744 -1.4454  0.3880
  719MOL0     H97065   2.590   4.798   1.116 -0.5581  1.1303  0.3438
  720MOL0     O97066   8.756   1.017   4.309  0.1910  0.4522  0.0155
  720MOL0     C97067   8.740   0.905   4.358  0.1776  0.1836  0.0985
  720MOL0     O97068   8.840   0.820   4.406  0.1596 -0.7519  0.2404
  720MOL0     C97069   8.973   0.845   4.372  0.5967  0.0008  0.4555
  720MOL0     C97070   9.017   0.876   4.242 -0.0997  0.1602  0.2431
  720MOL0     C97071   9.151   0.900   4.220  0.1245 -0.1450 -0.3984
  720MOL0     C97072   9.247   0.881   4.321  0.2453  0.1093 -0.0796
  720MOL0     O97073   9.373   0.923   4.291  1.0737 -0.3045  0.3778
  720MOL0     C97074   9.474   0.885   4.387  0.1038 -0.3359  0.4582
  720MOL0     C97075   9.605   0.944   4.347 -0.1217 -0.5034  0.3003
  720MOL0     C97076   9.695   0.970   4.467  0.3644  0.0164  0.2268
  720MOL0     C97077   9.832   1.028   4.427  0.4684 -0.1450 -0.5531
  720MOL0     C97078   9.950   0.999   4.517 -0.5198 -0.0164  0.4678
  720MOL0     C97079  10.078   1.073   4.464  0.6388 -0.3964  0.3856
  720MOL0     C97080  10.095   1.223   4.473  0.7250 -0.4459  0.2388
  720MOL0     C97081  10.075   1.289   4.605 -0.3057  0.0307  0.0602
  720MOL0     N97082  10.097   1.438   4.604 -1.3266  0.3657  0.3974
  720MOL0     C97083  10.044   1.531   4.519 -0.0606  0.4338  0.3983
  720MOL0     C97084  10.074   1.651   4.569 -0.4472  0.5236  0.2077
  720MOL0     C97085  10.053   1.781   4.493  0.9353 -0.3653 -0.2170
  720MOL0     C97086  10.160   1.878   4.523 -0.4721  0.7847 -0.7163
  720MOL0     C97087  10.265   1.864   4.417 -1.0522 -0.2243 -0.6039
  720MOL0     C97088  10.420   1.885   4.465  0.2050 -0.2481 -0.4486
  720MOL0     O97089  10.500   1.866   4.352 -0.0051  0.0304  0.1395
  720MOL0     C97090  10.635   1.839   4.388  0.7106  0.4273 -0.1177
  720MOL0     C97091  10.711   1.754   4.307  0.5326  0.7358  0.8693
  720MOL0     C97092  10.850   1.735   4.328 -0.3413 -0.5616  0.0862
  720MOL0     C97093  10.908   1.778   4.450 -0.7444 -0.7221  0.4651
  720MOL0     C97094  11.048   1.746   4.479  0.4433  0.5316 -0.0111
  720MOL0     O97095  11.103   1.790   4.593 -0.4696 -0.1936  0.2980
  720MOL0     C97096  11.221   1.736   4.628 -0.4808  0.2047 -0.4036
  720MOL0     C97097  11.255   1.597   4.639 -0.5923  0.0056  0.1541
  720MOL0     C97098  11.376   1.552   4.686 -0.1378  0.0016  0.5279
  720MOL0     C97099  11.472   1.647   4.722  0.2078 -0.5118  0.2427
  720MOL0     O97100  11.590   1.604   4.786 -0.2815 -0.4520  0.0227
  720MOL0     C97101  11.662   1.504   4.710 -0.2023  0.0569 -0.0886
  720MOL0     C97102  11.806   1.515   4.754 -0.4845  0.2830  0.5758
  720MOL0     C97103  11.896   1.401   4.707 -0.8797 -0.4129 -0.7825
  720MOL0     C97104  11.892   1.365   4.556  0.3520  0.2173  0.2781
  720MOL0     C97105  11.958   1.468   4.469  0.6093 -0.6269  0.4908
  720MOL0     C97106  11.976   1.438   4.316 -0.0249  0.1028  0.4815
  720MOL0     C97107  12.043   1.553   4.250  0.5744  0.0247 -0.2601
  720MOL0     C97108  12.080   1.505   4.119 -0.3682  0.2649  0.8146
  720MOL0    Cl97109  12.152   1.639   4.032 -0.0444  0.2434  0.5536
  720MOL0     C97110  11.437   1.787   4.725 -0.6348  0.6557 -0.5087
  720MOL0     C97111  11.317   1.828   4.669  0.4442  0.3357 -0.1501
  720MOL0     O97112  11.111   1.681   4.392 -0.6099  0.6270 -0.4076
  720MOL0     C97113  10.839   1.862   4.537  0.7442 -0.0083  0.3035
  720MOL0     C97114  10.703   1.899   4.503  0.6993  0.3030  0.1431
  720MOL0     N97115  10.141   1.635   4.690  0.1249  0.3387  0.9500
  720MOL0     N97116  10.159   1.508   4.709  0.5921  0.2437  1.1174
  720MOL0     C97117   9.206   0.835   4.445 -0.4292  0.1308 -0.0179
  720MOL0     C97118   9.073   0.821   4.470  0.1011  0.0541  0.6663
  720MOL0     C97119   8.607   0.878   4.394  0.5436  0.5276 -0.4507
  720MOL0     C97120   8.585   0.818   4.518 -0.5801 -0.1146  0.1313
  720MOL0     C97121   8.454   0.789   4.555  0.1062 -0.2454 -0.2460
  720MOL0     C97122   8.340   0.829   4.478  0.8156  0.2180  0.1682
  720MOL0     O97123   8.211   0.814   4.524  0.0061  0.2144  0.1084
  720MOL0     C97124   8.175   0.697   4.595  0.8332  0.5368 -0.9202
  720MOL0     C97125   8.027   0.652   4.567 -0.0256 -0.5748  0.0586
  720MOL0     C97126   8.014   0.582   4.425  0.7293 -0.1180  0.1537
  720MOL0     C97127   7.876   0.513   4.389  0.0847 -0.2621  0.3043
  720MOL0     C97128   7.887   0.453   4.257 -0.4707 -0.8944 -0.5314
  720MOL0     C97129   7.903   0.418   4.146  0.2050 -0.2538  0.3107
  720MOL0     C97130   8.361   0.901   4.369 -0.1883  0.4420  0.2570
  720MOL0     C97131   8.490   0.917   4.320 -0.1258 -0.3864  0.1830
  720MOL0     C97132   8.501   0.972   4.177  0.3057 -0.1375 -0.6564
  720MOL0     H97133   8.951   0.885   4.156  1.3982  1.9997 -0.7967
  720MOL0     H97134   9.185   0.926   4.120 -0.3288  0.0972 -0.4935
  720MOL0     H97135   9.447   0.925   4.486 -1.8867 -0.2622 -0.0628
  720MOL0     H97136   9.475   0.776   4.391 -0.9271 -0.4818 -1.9478
  720MOL0     H97137   9.609   1.037   4.291  2.2944 -0.6899  0.0520
  720MOL0     H97138   9.666   0.873   4.289  2.2166  2.3278 -0.9614
  720MOL0     H97139   9.724   0.871   4.503 -1.8782 -1.3014 -1.3290
  720MOL0     H97140   9.645   1.028   4.544 -0.6759 -0.3782 -0.1389
  720MOL0     H97141   9.870   0.983   4.336  1.9309 -2.5701  1.1475
  720MOL0     H97142   9.827   1.137   4.427  1.8746 -0.0096  1.8515
  720MOL0     H97143   9.918   1.041   4.612  0.5684  0.2225  0.7377
  720MOL0     H97144   9.968   0.892   4.535 -1.8874 -0.0831  1.6671
  720MOL0     H97145  10.179   1.045   4.496  2.0098  0.9420 -2.3378
  720MOL0     H97146  10.083   1.052   4.356 -0.8170  2.2277 -0.2805
  720MOL0     H97147  10.026   1.274   4.405 -1.4123 -2.9929  0.3484
  720MOL0     H97148  10.198   1.244   4.440  0.0431  4.5209  0.5652
  720MOL0     H97149   9.969   1.274   4.626  0.2540 -0.5513  2.8044
  720MOL0     H97150  10.131   1.229   4.677 -0.8877 -1.7257 -0.9146
  720MOL0     H97151   9.992   1.523   4.424 -1.5059 -0.3143  1.2186
  720MOL0     H97152  10.030   1.771   4.387 -1.0955 -0.2080  0.1708
  720MOL0     H97153   9.961   1.827   4.531  1.1333 -0.2410  0.1163
  720MOL0     H97154  10.103   1.971   4.529 -1.4524  0.1726 -0.2383
  720MOL0     H97155  10.202   1.864   4.623 -2.2425  0.7464  0.0547
  720MOL0     H97156  10.250   1.938   4.339 -3.7025  0.4902  0.4795
  720MOL0     H97157  10.257   1.766   4.369  0.2684 -1.2671  1.1551
  720MOL0     H97158  10.440   1.805   4.536 -2.4037  0.1893  0.9327
  720MOL0     H97159  10.429   1.985   4.509  0.3401 -0.5075  0.1164
  720MOL0     H97160  10.658   1.700   4.229  1.3153  2.3935 -0.8998
  720MOL0     H97161  10.894   1.676   4.249 -2.1583 -1.7589 -0.0736
  720MOL0     H97162  11.184   1.520   4.610  0.9392 -1.0508 -0.9260
  720MOL0     H97163  11.401   1.447   4.692  2.3225  0.4175 -0.8880
  720MOL0     H97164  11.626   1.405   4.740  2.2941 -0.3947  1.7660
  720MOL0     H97165  11.647   1.524   4.604  0.1455  2.0187  0.1916
  720MOL0     H97166  11.847   1.604   4.705  1.0022  0.5823  2.2662
  720MOL0     H97167  11.828   1.522   4.861  2.6898 -0.4903  0.0782
  720MOL0     H97168  11.997   1.430   4.735  0.5901 -4.2915 -1.4041
  720MOL0     H97169  11.881   1.309   4.765  1.9585 -0.3065  0.2412
  720MOL0     H97170  11.783   1.360   4.547 -0.0900  3.7656  1.9218
  720MOL0     H97171  11.936   1.267   4.534 -0.3057 -0.1915  0.7584
  720MOL0     H97172  12.052   1.491   4.520  0.2095 -0.5905  1.2161
  720MOL0     H97173  11.900   1.560   4.478 -0.5538 -1.0883 -1.4849
  720MOL0     H97174  12.051   1.359   4.302  2.5503  2.3946  0.4397
  720MOL0     H97175  11.884   1.425   4.259  0.0687  1.6160 -0.0613
  720MOL0     H97176  12.134   1.572   4.308 -0.8629 -1.3316  2.6424
  720MOL0     H97177  11.989   1.648   4.241  1.2070  0.3044 -1.3302
  720MOL0     H97178  12.153   1.423   4.128 -0.5885  0.0853  0.9630
  720MOL0     H97179  11.998   1.460   4.062 -0.0998  0.9691 -0.1621
  720MOL0     H97180  11.506   1.850   4.781  0.6504 -1.7090  0.7162
  720MOL0     H97181  11.299   1.935   4.677 -2.5073 -0.2133  2.2108
  720MOL0     H97182  10.892   1.907   4.620  0.0284  1.4420  0.0105
  720MOL0     H97183  10.640   1.964   4.562  0.9937 -0.8352  1.7845
  720MOL0     H97184   9.281   0.820   4.522 -1.7157  2.2942  1.7399
  720MOL0     H97185   9.042   0.803   4.573 -1.0904 -1.8337  0.0204
  720MOL0     H97186   8.666   0.778   4.578 -0.2940  0.9142  0.4632
  720MOL0     H97187   8.437   0.728   4.643 -0.6043  0.0886 -0.1458
  720MOL0     H97188   8.180   0.728   4.700 -5.5883  0.1027 -0.0673
  720MOL0     H97189   8.235   0.608   4.573  0.9015  1.0907 -3.2182
  720MOL0     H97190   7.949   0.728   4.561  0.4110  0.2376  3.1310
  720MOL0     H97191   8.014   0.573   4.642  2.6319  0.7662  2.1101
  720MOL0     H97192   8.081   0.496   4.435 -0.2636 -0.7024  2.3210
  720MOL0     H97193   8.042   0.647   4.341 -0.8131 -1.7124 -1.7115
  720MOL0     H97194   7.847   0.430   4.453 -0.0234 -0.5522 -0.1171
  720MOL0     H97195   7.802   0.594   4.386  2.7076  2.3666  1.2143
  720MOL0     H97196   7.929   0.374   4.052 -0.0112 -1.6637  0.8932
  720MOL0     H97197   8.275   0.931   4.311  0.5659  1.3394 -0.4308
  720MOL0     H97198   8.412   0.940   4.123 -0.0254 -1.0454  0.3934
  720MOL0     H97199   8.500   1.082   4.181 -0.8248 -0.1604  0.5761
  720MOL0     H97200   8.593   0.932   4.134 -1.5993 -2.2327 -3.0655
  721MOL0     O97201   1.859  11.198   9.543  0.8178 -0.3941  0.5601
  721MOL0     C97202   1.896  11.291   9.613 -0.0047 -0.2167  0.1502
  721MOL0     O97203   2.015  11.290   9.686 -0.1833  0.8480  0.4687
  721MOL0     C97204   2.078  11.177   9.718  0.0656 -0.0717  0.5127
  721MOL0     C97205   2.214  11.169   9.713  0.2661 -0.3347 -0.5520
  721MOL0     C97206   2.288  11.061   9.750 -0.1341  0.4804  0.4815
  721MOL0     C97207   2.217  10.951   9.795 -0.4518  0.1299 -0.4612
  721MOL0     O97208   2.283  10.830   9.832 -0.3857 -0.6878  0.3129
  721MOL0     C97209   2.420  10.815   9.820  0.1134 -0.4925  0.0446
  721MOL0     C97210   2.456  10.663   9.812 -0.1633  0.3564  0.3310
  721MOL0     C97211   2.595  10.633   9.845 -0.3949  0.1241  0.4461
  721MOL0     C97212   2.639  10.490   9.814 -1.1617 -0.9530 -0.9313
  721MOL0     C97213   2.783  10.476   9.812  0.1860 -0.1412 -0.2100
  721MOL0     C97214   2.855  10.509   9.682 -0.5387  0.4211  0.2164
  721MOL0     C97215   2.996  10.557   9.698  0.2830 -0.0055 -0.3994
  721MOL0     C97216   3.081  10.457   9.787  0.6091 -0.3133  0.2363
  721MOL0     N97217   3.219  10.498   9.804  0.1030 -0.6178  0.4758
  721MOL0     C97218   3.324  10.475   9.720 -0.4876  1.0944 -0.7285
  721MOL0     C97219   3.432  10.526   9.791  0.5629 -0.5186 -0.7691
  721MOL0     C97220   3.575  10.534   9.755  0.5896  0.0980  0.9149
  721MOL0     C97221   3.595  10.596   9.616  0.3877  0.1081  0.2267
  721MOL0     C97222   3.736  10.581   9.559 -1.2054 -0.1828 -0.5070
  721MOL0     C97223   3.753  10.601   9.409  0.4995  0.0807 -0.4235
  721MOL0     O97224   3.736  10.741   9.387 -0.0757  0.4109  0.1319
  721MOL0     C97225   3.840  10.830   9.401 -0.3143 -0.6474  0.5733
  721MOL0     C97226   3.973  10.792   9.437 -0.5452  0.3416  1.0979
  721MOL0     C97227   4.076  10.883   9.449 -0.1879 -0.7437  0.0871
  721MOL0     C97228   4.048  11.021   9.444 -0.3176 -0.0482  0.6316
  721MOL0     C97229   4.153  11.120   9.477 -0.3357 -0.2505  0.4459
  721MOL0     O97230   4.105  11.251   9.498 -0.3174  0.2679  0.4770
  721MOL0     C97231   4.197  11.351   9.513  0.1362  1.0375  0.3181
  721MOL0     C97232   4.152  11.462   9.584 -0.0073 -0.1692  0.0025
  721MOL0     C97233   4.229  11.576   9.596 -0.6683  0.1275  0.6421
  721MOL0     C97234   4.356  11.589   9.532 -0.3563  0.2359  0.0366
  721MOL0     O97235   4.437  11.704   9.547  0.7822 -0.1369 -0.9862
  721MOL0     C97236   4.542  11.728   9.457 -0.2193  0.2240  0.5170
  721MOL0     C97237   4.590  11.866   9.461  0.0482 -0.5400 -0.7990
  721MOL0     C97238   4.497  11.989   9.443 -0.2292  0.0301 -0.2644
  721MOL0     C97239   4.581  12.117   9.447 -0.2451  0.3276  0.3734
  721MOL0     C97240   4.659  12.138   9.589 -0.2970  0.2934  0.5887
  721MOL0     C97241   4.673  12.289   9.622  0.1699  0.4921 -0.4713
  721MOL0     C97242   4.750  12.368   9.520  0.3706 -0.1818 -0.2338
  721MOL0     C97243   4.762  12.507   9.568  0.7394 -0.2677  0.0785
  721MOL0    Cl97244   4.853  12.615   9.467  0.0710 -0.1681 -0.1711
  721MOL0     C97245   4.398  11.472   9.454  0.6064 -0.3269 -0.1908
  721MOL0     C97246   4.319  11.358   9.443 -0.4046 -0.2049 -0.7680
  721MOL0     O97247   4.260  11.083   9.511 -0.0436 -0.2144  0.0853
  721MOL0     C97248   3.924  11.062   9.406  0.5150  0.0813  0.0816
  721MOL0     C97249   3.819  10.971   9.373  0.0538 -0.2488  0.1309
  721MOL0     N97250   3.391  10.578   9.914 -0.6063  0.0458 -0.7824
  721MOL0     N97251   3.265  10.553   9.917  0.5723 -0.4485  0.8649
  721MOL0     C97252   2.081  10.962   9.816 -0.6182 -0.0896 -0.1519
  721MOL0     C97253   2.006  11.070   9.773 -0.3635 -0.0117 -0.1893
  721MOL0     C97254   1.812  11.412   9.607  0.0523 -0.7508 -0.3751
  721MOL0     C97255   1.687  11.406   9.543 -0.4056 -0.7797 -0.8505
  721MOL0     C97256   1.616  11.520   9.514 -0.4101 -0.5629 -0.1842
  721MOL0     C97257   1.653  11.642   9.559  0.3019  0.2271  0.5007
  721MOL0     O97258   1.597  11.764   9.530  0.5102  0.9421  0.1270
  721MOL0     C97259   1.458  11.771   9.487  0.9296  0.7213  0.6948
  721MOL0     C97260   1.403  11.910   9.516 -0.0841 -0.3000  0.2929
  721MOL0     C97261   1.256  11.932   9.470  0.4270  0.0170  0.0120
  721MOL0     C97262   1.228  11.894   9.315 -0.4924  0.0141 -0.0371
  721MOL0     C97263   1.311  11.973   9.223 -0.0022 -0.2625  0.5966
  721MOL0     C97264   1.388  12.039   9.156 -0.1063  0.5952 -0.2476
  721MOL0     C97265   1.769  11.653   9.627 -0.2469 -0.0143 -0.3550
  721MOL0     C97266   1.856  11.543   9.644 -0.0979 -0.1035 -0.0287
  721MOL0     C97267   1.995  11.576   9.700 -0.4347  0.0066 -0.2753
  721MOL0     H97268   2.261  11.255   9.666  2.2904 -1.2969 -0.3952
  721MOL0     H97269   2.395  11.079   9.750 -0.1952  0.9609 -0.6396
  721MOL0     H97270   2.461  10.861   9.730  0.0584 -0.9207 -0.2001
  721MOL0     H97271   2.464  10.859   9.910 -0.2773  1.0161 -0.4629
  721MOL0     H97272   2.433  10.626   9.711  1.9294 -0.2037  0.0063
  721MOL0     H97273   2.387  10.609   9.877  1.7542 -3.3072 -0.4408
  721MOL0     H97274   2.624  10.666   9.945 -1.2064 -2.4730  1.6237
  721MOL0     H97275   2.665  10.691   9.784  0.1040 -1.4577 -0.5489
  721MOL0     H97276   2.592  10.420   9.884 -0.1271 -0.5760  0.1940
  721MOL0     H97277   2.606  10.465   9.713 -2.3402  1.6543 -1.2737
  721MOL0     H97278   2.823  10.540   9.892 -2.4773  0.2207  0.9274
  721MOL0     H97279   2.797  10.367   9.816 -3.4931 -0.7701 -1.1411
  721MOL0     H97280   2.834  10.418   9.624 -3.7089  1.0554  0.2166
  721MOL0     H97281   2.797  10.589   9.635  0.3502  1.4580  0.8479
  721MOL0     H97282   2.983  10.656   9.744 -3.2988 -0.9111  0.8619
  721MOL0     H97283   3.045  10.566   9.601  1.6365 -0.9236  0.1841
  721MOL0     H97284   3.034  10.447   9.885 -0.3558  2.6391  0.2013
  721MOL0     H97285   3.083  10.359   9.739  1.0292 -1.1337  1.8362
  721MOL0     H97286   3.332  10.410   9.633 -2.3026 -1.6359  0.9580
  721MOL0     H97287   3.629  10.599   9.825  0.6716  3.4076 -1.9659
  721MOL0     H97288   3.623  10.438   9.778 -0.8183 -0.5348  1.3941
  721MOL0     H97289   3.523  10.556   9.545  0.6712  0.7390 -0.4295
  721MOL0     H97290   3.575  10.701   9.638 -0.5311 -0.0748  0.2925
  721MOL0     H97291   3.769  10.478   9.576 -1.2711  0.0246  1.0425
  721MOL0     H97292   3.798  10.658   9.606  1.2915 -0.1621 -3.5826
  721MOL0     H97293   3.668  10.546   9.366 -1.2929  0.9493  1.8076
  721MOL0     H97294   3.849  10.565   9.370  1.2033  1.7014 -0.2770
  721MOL0     H97295   3.999  10.687   9.441 -1.7052 -0.0470 -0.5056
  721MOL0     H97296   4.172  10.843   9.482  0.1270 -2.7719 -2.9158
  721MOL0     H97297   4.059  11.462   9.640  0.0510  0.9359  0.1148
  721MOL0     H97298   4.196  11.654   9.664  0.9844 -0.1109  1.7807
  721MOL0     H97299   4.632  11.672   9.483  0.1564  0.9457  0.7918
  721MOL0     H97300   4.515  11.703   9.354 -1.9180  1.2202  0.6846
  721MOL0     H97301   4.625  11.863   9.565 -2.0698 -1.1637 -0.0545
  721MOL0     H97302   4.681  11.868   9.400 -0.1765 -0.8446 -1.1472
  721MOL0     H97303   4.452  11.984   9.343  1.0977 -0.1161 -0.8836
  721MOL0     H97304   4.416  11.995   9.516 -1.3567 -1.1854 -1.3688
  721MOL0     H97305   4.508  12.198   9.440 -1.6672 -0.9549  0.0193
  721MOL0     H97306   4.657  12.116   9.368  0.7959 -0.9886  1.3435
  721MOL0     H97307   4.754  12.083   9.587 -0.1521  0.5485  0.4916
  721MOL0     H97308   4.606  12.087   9.671  1.3304 -1.4047  0.6544
  721MOL0     H97309   4.568  12.320   9.628 -0.2032 -0.6712 -0.8485
  721MOL0     H97310   4.724  12.300   9.718  0.3962  1.8774 -0.7225
  721MOL0     H97311   4.707  12.367   9.420 -0.4782  1.9191  0.0471
  721MOL0     H97312   4.852  12.331   9.507  1.1280  1.7617 -0.1461
  721MOL0     H97313   4.659  12.537   9.586 -0.7592 -2.7280 -3.2817
  721MOL0     H97314   4.809  12.498   9.667  2.9350  0.6358 -0.8259
  721MOL0     H97315   4.487  11.469   9.393 -0.1077 -0.1835 -1.2652
  721MOL0     H97316   4.352  11.282   9.373 -0.8436  0.5366 -1.8249
  721MOL0     H97317   3.897  11.165   9.384 -4.5357 -1.5441 -3.0253
  721MOL0     H97318   3.728  11.007   9.327 -0.1232 -1.6044 -0.6133
  721MOL0     H97319   2.017  10.880   9.849 -0.9175  0.3593  0.3980
  721MOL0     H97320   1.899  11.054   9.787  0.0413 -0.4370  3.2229
  721MOL0     H97321   1.660  11.312   9.495 -0.9368 -0.3951 -1.3235
  721MOL0     H97322   1.522  11.509   9.461 -0.2652 -1.5597 -0.2609
  721MOL0     H97323   1.393  11.695   9.532  1.3657  1.0508  1.9442
  721MOL0     H97324   1.456  11.748   9.380  0.6291  0.7113  0.7034
  721MOL0     H97325   1.465  11.984   9.464  1.2634  0.5048  2.8625
  721MOL0     H97326   1.404  11.933   9.623  1.1435  3.1303 -0.3174
  721MOL0     H97327   1.228  12.034   9.499 -1.2377 -0.8789  1.7597
  721MOL0     H97328   1.189  11.866   9.524 -2.4928  2.9717  0.3378
  721MOL0     H97329   1.248  11.788   9.297  2.4910  0.3430  0.7843
  721MOL0     H97330   1.120  11.905   9.305 -0.5043  1.2222  1.1468
  721MOL0     H97331   1.457  12.095   9.097 -1.2857  1.0906 -1.1823
  721MOL0     H97332   1.796  11.750   9.668 -1.4625 -0.3343  1.3482
  721MOL0     H97333   2.077  11.512   9.667 -0.8375 -0.9948  0.6105
  721MOL0     H97334   2.012  11.680   9.670  0.0036 -0.5421 -2.0660
  721MOL0     H97335   1.991  11.562   9.808  0.8330  0.1159 -0.2028
  722MOL0     O97336  11.127   2.989   5.245  0.4009 -0.6624  0.1660
  722MOL0     C97337  11.128   2.905   5.154 -0.3348  0.6875 -0.0172
  722MOL0     O97338  11.242   2.861   5.088 -0.0385 -0.5022 -0.7976
  722MOL0     C97339  11.365   2.907   5.135  0.7115  0.1592 -0.3497
  722MOL0     C97340  11.441   2.971   5.044 -0.1509 -0.2815  0.5810
  722MOL0     C97341  11.585   2.999   5.069  1.0948 -0.1703 -0.2542
  722MOL0     C97342  11.637   2.971   5.199  0.5845 -0.3450  0.1103
  722MOL0     O97343  11.764   2.993   5.214  0.3017 -0.0178 -0.0659
  722MOL0     C97344  11.828   2.990   5.339 -0.4110  0.4720  0.0274
  722MOL0     C97345  11.972   3.033   5.325  1.2940  0.4019  0.7713
  722MOL0     C97346  11.988   3.193   5.313 -0.6781  0.3229  0.1444
  722MOL0     C97347  12.139   3.207   5.271  1.1969 -0.3548 -0.3061
  722MOL0     C97348  12.187   3.348   5.243 -0.0775  0.0808  0.1131
  722MOL0     C97349  12.237   3.398   5.375  0.0052  0.5547  0.1045
  722MOL0     C97350  12.294   3.542   5.364 -0.4907  0.2592 -0.0464
  722MOL0     C97351  12.300   3.610   5.505  0.5558 -0.1556  0.2838
  722MOL0     N97352  12.341   3.756   5.497 -0.1285  0.5730 -0.5391
  722MOL0     C97353  12.468   3.791   5.459 -0.1645 -0.6020 -1.3082
  722MOL0     C97354  12.481   3.920   5.483  0.5244  0.2891 -0.5281
  722MOL0     C97355  12.607   3.996   5.478 -0.1819 -0.7261 -0.1788
  722MOL0     C97356  12.709   3.977   5.600  0.6416 -0.9451 -0.0207
  722MOL0     C97357  12.777   3.842   5.606  0.6536 -0.5456  0.4089
  722MOL0     C97358  12.867   3.819   5.492 -0.0460  0.2872 -0.0179
  722MOL0     O97359  12.980   3.911   5.501  0.0433  0.4360  0.1536
  722MOL0     C97360  13.090   3.882   5.576 -0.0620 -0.4337  0.3834
  722MOL0     C97361  13.152   3.758   5.580 -0.0655  0.0099  0.2344
  722MOL0     C97362  13.276   3.757   5.649 -0.1718  0.4087  0.2095
  722MOL0     C97363  13.330   3.869   5.713  0.2307 -0.0278 -0.4856
  722MOL0     C97364  13.452   3.861   5.795  0.1493  0.5873  0.1072
  722MOL0     O97365  13.468   3.735   5.851  0.2776  1.0908  0.8189
  722MOL0     C97366  13.564   3.707   5.942 -0.2697  0.5402  1.3546
  722MOL0     C97367  13.668   3.615   5.907  0.6204  0.9809 -0.7662
  722MOL0     C97368  13.788   3.588   5.982  0.2935 -0.2863 -0.0988
  722MOL0     C97369  13.802   3.678   6.096 -0.1929 -0.5496  0.3568
  722MOL0     O97370  13.925   3.663   6.162  0.4198  0.6385 -0.6872
  722MOL0     C97371  13.956   3.757   6.270  0.3180 -0.8869 -0.9276
  722MOL0     C97372  14.078   3.712   6.348 -0.1767 -0.6364  0.7522
  722MOL0     C97373  14.139   3.831   6.418 -0.1673  0.0326  0.0700
  722MOL0     C97374  14.264   3.777   6.495 -0.0143  0.1166  0.6232
  722MOL0     C97375  14.313   3.869   6.603 -0.4821  0.0476  0.8837
  722MOL0     C97376  14.381   3.997   6.547  0.0173  0.6607 -0.0198
  722MOL0     C97377  14.431   4.087   6.667  0.4713 -0.2470 -0.7939
  722MOL0     C97378  14.547   4.045   6.757 -0.1509 -1.0239  0.0442
  722MOL0    Cl97379  14.704   4.016   6.666 -0.3061 -0.0266  0.1448
  722MOL0     C97380  13.700   3.773   6.129 -0.0059  0.3012 -0.4586
  722MOL0     C97381  13.586   3.778   6.057  0.0950 -1.0528  0.1181
  722MOL0     O97382  13.517   3.960   5.817  0.4267  0.5659  0.3525
  722MOL0     C97383  13.268   3.990   5.706  0.2185  0.3786 -0.7795
  722MOL0     C97384  13.150   3.996   5.632  0.7948 -0.4373  0.7160
  722MOL0     N97385  12.361   3.972   5.535 -0.8022  0.9828  0.2754
  722MOL0     N97386  12.276   3.869   5.532  0.0469  0.0424  0.2347
  722MOL0     C97387  11.551   2.911   5.294 -0.6398 -0.0155 -0.0198
  722MOL0     C97388  11.413   2.878   5.266 -0.0413  0.2164 -0.2438
  722MOL0     C97389  11.004   2.831   5.114  0.1047  0.1406  0.7506
  722MOL0     C97390  11.018   2.707   5.036  0.0694 -0.0998 -0.6031
  722MOL0     C97391  10.912   2.618   5.022  0.3104  0.3384  0.1254
  722MOL0     C97392  10.782   2.663   5.043 -1.1682  0.0782 -0.8408
  722MOL0     O97393  10.680   2.582   4.993  0.0859 -0.0276  0.3208
  722MOL0     C97394  10.545   2.604   5.030  0.2747 -0.7589 -0.0990
  722MOL0     C97395  10.449   2.527   4.939 -1.2759 -0.2681 -0.1851
  722MOL0     C97396  10.470   2.555   4.793  0.2162 -0.3424  0.2126
  722MOL0     C97397  10.561   2.451   4.710  0.3782  0.1355  0.3370
  722MOL0     C97398  10.511   2.319   4.714 -0.0418  0.2821  0.6018
  722MOL0     C97399  10.433   2.222   4.704  0.3536 -0.1309  0.1146
  722MOL0     C97400  10.765   2.781   5.122 -0.2493 -0.6011 -0.0466
  722MOL0     C97401  10.873   2.866   5.159  0.1501  0.6014  1.2309
  722MOL0     C97402  10.832   2.992   5.241  0.0051  0.0246  0.8576
  722MOL0     H97403  11.401   2.983   4.944  2.0181 -0.1744 -0.3369
  722MOL0     H97404  11.645   3.039   4.988  0.7834 -1.6922 -1.2820
  722MOL0     H97405  11.775   3.050   5.413 -0.6377 -1.1714  1.2715
  722MOL0     H97406  11.835   2.886   5.373  2.6870  0.7582  0.5431
  722MOL0     H97407  12.011   2.989   5.233  1.4622 -0.3873  1.2105
  722MOL0     H97408  12.029   2.990   5.408  1.6249  1.5813  1.1908
  722MOL0     H97409  11.979   3.246   5.409 -0.3297 -3.5460  2.5437
  722MOL0     H97410  11.922   3.240   5.240  1.5389  2.5747 -0.5596
  722MOL0     H97411  12.194   3.164   5.356  0.7933  1.8069  1.1259
  722MOL0     H97412  12.162   3.138   5.189 -1.1934 -1.1960 -0.3336
  722MOL0     H97413  12.258   3.351   5.159 -0.4740 -0.2474 -0.2388
  722MOL0     H97414  12.106   3.414   5.210  1.6459  1.6206 -1.3099
  722MOL0     H97415  12.159   3.396   5.451 -1.8696  0.3479 -1.7341
  722MOL0     H97416  12.319   3.331   5.404  0.0500  0.9463  0.8895
  722MOL0     H97417  12.233   3.603   5.298  0.1781  3.8377  2.3055
  722MOL0     H97418  12.393   3.536   5.317 -0.3079  0.7431  0.2646
  722MOL0     H97419  12.199   3.610   5.547  0.0284  0.0075 -0.9567
  722MOL0     H97420  12.358   3.558   5.582 -2.7051  0.2167  3.2012
  722MOL0     H97421  12.551   3.735   5.417  0.7372  1.3920 -2.3059
  722MOL0     H97422  12.661   3.978   5.384  2.3735  0.8508  0.8595
  722MOL0     H97423  12.581   4.102   5.481 -1.8596 -1.1111 -0.2856
  722MOL0     H97424  12.781   4.057   5.586 -1.5604  1.0126 -0.8168
  722MOL0     H97425  12.661   3.996   5.696 -1.3323 -0.2455 -1.0788
  722MOL0     H97426  12.700   3.763   5.611 -1.2012  1.1598 -0.0401
  722MOL0     H97427  12.834   3.829   5.699  1.1732 -1.3510 -0.0081
  722MOL0     H97428  12.804   3.855   5.410  2.7665  2.5026 -1.4292
  722MOL0     H97429  12.900   3.716   5.481  1.4986  0.7885 -0.2969
  722MOL0     H97430  13.112   3.662   5.548  0.6129 -0.0301 -0.5036
  722MOL0     H97431  13.331   3.663   5.651 -1.7437 -0.5812 -0.8407
  722MOL0     H97432  13.655   3.568   5.810  1.4430 -2.6119  0.7164
  722MOL0     H97433  13.862   3.514   5.954 -0.7828 -1.5440  0.2658
  722MOL0     H97434  13.976   3.855   6.225  1.1762 -0.3371  0.5724
  722MOL0     H97435  13.880   3.765   6.347  2.2170 -1.6493  1.1291
  722MOL0     H97436  14.058   3.633   6.421 -0.9475 -2.8758 -1.7207
  722MOL0     H97437  14.149   3.667   6.277 -0.1000 -1.9692  1.6305
  722MOL0     H97438  14.169   3.902   6.340  2.6779 -1.9809 -0.8442
  722MOL0     H97439  14.061   3.861   6.488 -0.3743 -1.9584  0.7292
  722MOL0     H97440  14.343   3.763   6.421 -1.1315 -0.0991 -0.5694
  722MOL0     H97441  14.247   3.678   6.539  2.0631 -0.1384  0.9500
  722MOL0     H97442  14.392   3.817   6.657 -1.1054 -1.8490  0.0466
  722MOL0     H97443  14.229   3.896   6.667  0.8272  0.3907  2.5257
  722MOL0     H97444  14.470   3.972   6.488 -0.7691  0.0274 -0.9541
  722MOL0     H97445  14.308   4.052   6.487 -3.4492 -3.1229  0.3109
  722MOL0     H97446  14.350   4.128   6.729  0.6057  0.8526 -1.3145
  722MOL0     H97447  14.472   4.172   6.612 -1.4951 -0.6001 -2.9436
  722MOL0     H97448  14.566   4.123   6.831  2.2100 -0.8158 -0.7051
  722MOL0     H97449  14.502   3.961   6.811 -3.1870  1.1515  1.2239
  722MOL0     H97450  13.706   3.842   6.213  0.8073 -0.2245 -0.0682
  722MOL0     H97451  13.512   3.850   6.091  2.1416  1.6236 -0.7141
  722MOL0     H97452  13.302   4.077   5.761 -1.6102  1.0372 -0.6108
  722MOL0     H97453  13.091   4.087   5.621 -1.6045 -2.0701 -1.0526
  722MOL0     H97454  11.606   2.892   5.386 -0.3720  0.1051 -0.1558
  722MOL0     H97455  11.358   2.810   5.330 -0.6152  0.0158 -0.9454
  722MOL0     H97456  11.113   2.677   4.993  0.4883  0.6310 -0.2065
  722MOL0     H97457  10.921   2.525   4.967  0.3880 -0.7947  1.9532
  722MOL0     H97458  10.515   2.708   5.014 -0.6172 -1.0787 -0.5879
  722MOL0     H97459  10.536   2.577   5.135  0.9054 -1.2475 -0.1666
  722MOL0     H97460  10.345   2.542   4.969 -2.0058 -1.0013 -2.1566
  722MOL0     H97461  10.457   2.421   4.966 -2.2380 -0.1711  0.5459
  722MOL0     H97462  10.527   2.646   4.774  1.3087 -0.7102  1.5992
  722MOL0     H97463  10.376   2.572   4.739  0.2577 -0.9979 -0.0758
  722MOL0     H97464  10.577   2.486   4.608  2.1807  0.5532  0.7308
  722MOL0     H97465  10.660   2.446   4.757 -0.3356  1.9198  2.1629
  722MOL0     H97466  10.355   2.150   4.697  0.9915 -0.8828  0.5877
  722MOL0     H97467  10.666   2.818   5.150 -0.7257 -2.0581  0.2843
  722MOL0     H97468  10.899   3.011   5.326  2.1709 -1.2970 -0.4522
  722MOL0     H97469  10.834   3.081   5.177  0.4289  1.2920  2.5543
  722MOL0     H97470  10.734   2.981   5.288 -0.6726  0.1364 -0.5077
  723MOL0     O97471   3.805  11.011   4.304  0.2716 -0.3701 -0.7095
  723MOL0     C97472   3.718  10.969   4.381 -0.5133  0.3966 -0.1472
  723MOL0     O97473   3.744  10.898   4.500 -0.4510  0.2108 -0.3206
  723MOL0     C97474   3.882  10.882   4.523 -0.1156  0.4282  0.1533
  723MOL0     C97475   3.942  10.949   4.630  0.8625  0.1184  0.0279
  723MOL0     C97476   4.086  10.959   4.647 -0.3677  0.0465 -0.0973
  723MOL0     C97477   4.169  10.873   4.569 -0.2176 -0.3104 -0.6007
  723MOL0     O97478   4.306  10.855   4.599  1.1722  0.5635 -0.7146
  723MOL0     C97479   4.393  10.801   4.497 -0.0599 -0.4003 -0.5891
  723MOL0     C97480   4.536  10.863   4.527 -0.2726 -0.2253 -0.5638
  723MOL0     C97481   4.637  10.805   4.432  0.3778 -0.1501 -0.0609
  723MOL0     C97482   4.678  10.655   4.465  0.4537 -0.0515 -0.0726
  723MOL0     C97483   4.817  10.628   4.413 -0.4100  0.8051  0.5755
  723MOL0     C97484   4.923  10.664   4.516  0.1066  0.1860  1.3181
  723MOL0     C97485   5.069  10.655   4.469  0.2279 -0.1523  0.1585
  723MOL0     C97486   5.169  10.685   4.565  0.2836 -0.2220  0.4644
  723MOL0     N97487   5.154  10.824   4.619 -0.4829  0.7361  0.1489
  723MOL0     C97488   5.098  10.859   4.735  0.0885 -0.4731 -0.1424
  723MOL0     C97489   5.123  10.989   4.736  0.0711 -0.9837 -0.6930
  723MOL0     C97490   5.090  11.086   4.846 -0.8147  0.1079  0.6167
  723MOL0     C97491   5.172  11.088   4.981  0.3781 -0.1562 -0.3785
  723MOL0     C97492   5.289  11.178   4.972 -0.3458  0.3360 -0.2713
  723MOL0     C97493   5.343  11.207   5.118 -0.2274 -0.7385  0.1972
  723MOL0     O97494   5.391  11.098   5.190 -0.5835 -0.0467  0.1035
  723MOL0     C97495   5.514  11.034   5.172  0.1339  0.2790 -0.0256
  723MOL0     C97496   5.562  10.950   5.273 -0.0355  0.1213 -0.6133
  723MOL0     C97497   5.689  10.896   5.259 -0.0212  0.3442 -0.2225
  723MOL0     C97498   5.776  10.922   5.152  0.8446 -0.1760 -0.3217
  723MOL0     C97499   5.906  10.848   5.145  0.4919 -0.0339  0.4464
  723MOL0     O97500   5.951  10.796   5.264 -0.0482 -0.5152 -0.2832
  723MOL0     C97501   6.066  10.726   5.288  1.0626 -0.2042  0.2772
  723MOL0     C97502   6.178  10.756   5.214 -0.3571 -0.5879 -0.4378
  723MOL0     C97503   6.295  10.682   5.230 -0.4074  0.7126  0.6363
  723MOL0     C97504   6.301  10.572   5.312 -0.7881 -0.0362 -0.0124
  723MOL0     O97505   6.412  10.500   5.323 -0.4227 -1.2407  0.3009
  723MOL0     C97506   6.508  10.490   5.214 -0.0908  0.3488  0.1091
  723MOL0     C97507   6.631  10.592   5.240  0.0365 -0.2201  0.5412
  723MOL0     C97508   6.737  10.594   5.126  0.0940 -0.1400  0.8217
  723MOL0     C97509   6.803  10.451   5.105  0.4254  0.1802 -0.2855
  723MOL0     C97510   6.941  10.454   5.033  0.0396 -0.0998  0.3219
  723MOL0     C97511   7.033  10.331   5.053  0.9508 -0.4759  0.0743
  723MOL0     C97512   7.169  10.360   4.989  0.4633  0.0319  0.3196
  723MOL0     C97513   7.265  10.244   5.004  0.2225 -0.3457  0.1635
  723MOL0    Cl97514   7.216  10.113   4.903  0.4011  0.0669  0.0486
  723MOL0     C97515   6.180  10.535   5.374 -0.3308  0.5368 -0.1080
  723MOL0     C97516   6.066  10.614   5.374 -0.3948 -0.4282 -0.4271
  723MOL0     O97517   5.967  10.842   5.037 -0.3626 -0.7470  0.5122
  723MOL0     C97518   5.725  11.004   5.041 -0.2135  0.8842  0.3981
  723MOL0     C97519   5.594  11.059   5.055 -0.5899 -0.4468 -0.2905
  723MOL0     N97520   5.184  11.025   4.622 -0.4920  0.0004 -0.7526
  723MOL0     N97521   5.215  10.920   4.560 -1.1017 -0.0190 -0.3376
  723MOL0     C97522   4.101  10.796   4.470 -0.3372 -0.2088  0.6500
  723MOL0     C97523   3.958  10.806   4.446  0.1190 -0.0205 -0.3411
  723MOL0     C97524   3.578  11.001   4.348 -0.3228 -0.1737  1.0657
  723MOL0     C97525   3.473  10.945   4.428 -0.4310  0.0084  0.5449
  723MOL0     C97526   3.336  10.979   4.408  0.2951 -0.0427 -0.3384
  723MOL0     C97527   3.297  11.051   4.304  0.0539 -0.6831  0.7802
  723MOL0     O97528   3.168  11.094   4.268 -0.4038  0.5823 -0.4068
  723MOL0     C97529   3.058  10.997   4.274  0.3547  0.4345 -0.4936
  723MOL0     C97530   2.923  11.064   4.229  0.6601  0.3275  0.5231
  723MOL0     C97531   2.866  11.136   4.354 -1.0711 -0.6649  0.3094
  723MOL0     C97532   2.757  11.244   4.327 -0.2083  0.4194 -0.6043
  723MOL0     C97533   2.620  11.196   4.322 -0.3462  0.4856  0.5763
  723MOL0     C97534   2.501  11.168   4.308  0.5573 -0.1113 -1.3223
  723MOL0     C97535   3.397  11.103   4.219 -0.3869 -0.6540  0.4324
  723MOL0     C97536   3.535  11.082   4.239 -0.0393  0.1870 -0.0967
  723MOL0     C97537   3.628  11.169   4.153 -0.5170  0.0584  0.0039
  723MOL0     H97538   3.880  11.014   4.691 -1.3622 -3.1742  1.5552
  723MOL0     H97539   4.122  11.020   4.730 -0.4684 -2.9185  2.3234
  723MOL0     H97540   4.392  10.692   4.501  2.1487 -0.4353  2.1475
  723MOL0     H97541   4.352  10.833   4.401 -2.3728  3.5159  1.4420
  723MOL0     H97542   4.576  10.828   4.623  2.7410  2.5042 -0.6284
  723MOL0     H97543   4.533  10.971   4.537 -1.1269 -0.4073  1.5269
  723MOL0     H97544   4.723  10.869   4.451 -1.1109  1.3324  2.0979
  723MOL0     H97545   4.598  10.817   4.330  1.0855  1.3845 -0.1907
  723MOL0     H97546   4.670  10.641   4.573 -0.8427 -0.4268 -0.2069
  723MOL0     H97547   4.605  10.585   4.424  0.4378 -0.0056 -0.1226
  723MOL0     H97548   4.834  10.525   4.381 -0.0280  1.4986 -1.6305
  723MOL0     H97549   4.848  10.680   4.322  1.1849  0.5588  0.9488
  723MOL0     H97550   4.905  10.766   4.551  1.4415  0.7218  0.5319
  723MOL0     H97551   4.915  10.594   4.600 -0.4839 -1.9197 -0.3983
  723MOL0     H97552   5.080  10.720   4.381  1.2941 -0.0113  0.3818
  723MOL0     H97553   5.090  10.554   4.434  2.7665 -0.1855  1.5516
  723MOL0     H97554   5.154  10.606   4.640 -0.6385 -2.0088 -1.5106
  723MOL0     H97555   5.272  10.677   4.527 -0.5753 -1.8256 -1.7251
  723MOL0     H97556   5.051  10.797   4.811 -0.1832 -1.1688 -0.8633
  723MOL0     H97557   5.097  11.184   4.799  0.1327 -0.7236 -1.0682
  723MOL0     H97558   4.982  11.074   4.863 -0.8864  0.0718  0.1531
  723MOL0     H97559   5.105  11.111   5.064  1.1198 -2.1144  0.8493
  723MOL0     H97560   5.204  10.985   5.000 -0.9021 -0.4215  0.4474
  723MOL0     H97561   5.248  11.270   4.930 -0.7792 -0.1363 -0.9092
  723MOL0     H97562   5.364  11.137   4.904  0.8377 -1.3620  1.9277
  723MOL0     H97563   5.268  11.253   5.183  0.4526 -0.3393  0.7201
  723MOL0     H97564   5.425  11.278   5.107  1.6169 -3.0369 -2.1500
  723MOL0     H97565   5.500  10.930   5.361  1.6494 -0.6847  0.4420
  723MOL0     H97566   5.708  10.840   5.349 -0.1168  0.1330 -0.3327
  723MOL0     H97567   6.176  10.849   5.157 -0.2749  0.0829  0.6110
  723MOL0     H97568   6.381  10.719   5.174  0.6937 -0.9761  1.1229
  723MOL0     H97569   6.536  10.384   5.211  2.4003  0.9619 -1.8014
  723MOL0     H97570   6.452  10.504   5.121 -0.0197 -2.9240 -0.5676
  723MOL0     H97571   6.606  10.699   5.242  2.5218  0.4710 -1.2102
  723MOL0     H97572   6.688  10.573   5.331 -2.3759 -0.7064  2.0343
  723MOL0     H97573   6.688  10.633   5.036  0.9844 -0.7695  0.0419
  723MOL0     H97574   6.810  10.670   5.151 -0.1021  0.4391 -0.3003
  723MOL0     H97575   6.736  10.380   5.056  2.9726 -2.4238 -0.2722
  723MOL0     H97576   6.814  10.408   5.205 -1.2195  0.9237  0.2508
  723MOL0     H97577   7.000  10.539   5.070  0.3505  1.5104 -3.4149
  723MOL0     H97578   6.917  10.479   4.930  0.4990 -0.3645  0.1485
  723MOL0     H97579   7.035  10.295   5.156 -1.0523  0.0202  0.3316
  723MOL0     H97580   6.972  10.252   5.011 -4.7118  1.8656  2.8599
  723MOL0     H97581   7.214  10.439   5.049 -0.9652 -0.5811  2.3220
  723MOL0     H97582   7.161  10.394   4.886 -3.3501  3.2456  1.4102
  723MOL0     H97583   7.363  10.289   4.988  0.0439  1.8187  4.0703
  723MOL0     H97584   7.261  10.195   5.101 -1.8746  1.7620  1.2583
  723MOL0     H97585   6.187  10.445   5.434 -0.3890  1.6135  1.5827
  723MOL0     H97586   5.981  10.591   5.437  0.3340 -0.6974  0.4926
  723MOL0     H97587   5.775  11.007   4.945 -0.3499 -1.9873  0.1522
  723MOL0     H97588   5.559  11.112   4.967 -1.5535  0.5173  0.6432
  723MOL0     H97589   4.157  10.733   4.401 -0.7045  0.5316 -0.3526
  723MOL0     H97590   3.911  10.756   4.361  0.3634  0.8707 -1.0149
  723MOL0     H97591   3.499  10.884   4.514 -1.0852 -0.1906  0.6061
  723MOL0     H97592   3.266  10.943   4.482  0.3352  0.7040  0.0751
  723MOL0     H97593   3.051  10.963   4.378  1.7692  1.6557  0.0404
  723MOL0     H97594   3.079  10.911   4.210 -1.1702 -0.4018  0.0731
  723MOL0     H97595   2.847  10.991   4.199  0.7585 -0.4501  2.0634
  723MOL0     H97596   2.949  11.141   4.156  0.6677  2.1828  2.3847
  723MOL0     H97597   2.950  11.178   4.411 -0.1303 -0.7486 -0.9622
  723MOL0     H97598   2.821  11.065   4.424 -1.6675  0.1638  0.7942
  723MOL0     H97599   2.767  11.321   4.404 -1.2484  0.8087 -0.8482
  723MOL0     H97600   2.776  11.295   4.232 -1.1455  3.7684  0.8597
  723MOL0     H97601   2.407  11.137   4.268 -0.2933  1.8770 -0.9890
  723MOL0     H97602   3.363  11.156   4.130  1.4051 -1.0438 -0.5233
  723MOL0     H97603   3.569  11.242   4.097  0.2328  0.5108 -0.2017
  723MOL0     H97604   3.706  11.221   4.208  0.4676 -1.4947  0.1353
  723MOL0     H97605   3.676  11.108   4.077  0.3657 -0.5201  0.9913
  724MOL0     O97606   9.307   7.763   5.016  0.0661 -0.1817 -0.0604
  724MOL0     C97607   9.267   7.781   4.900 -0.0682 -0.3849  0.8886
  724MOL0     O97608   9.345   7.795   4.791 -0.4981  0.2451 -0.3394
  724MOL0     C97609   9.482   7.807   4.802 -0.3449 -0.4043 -0.5444
  724MOL0     C97610   9.564   7.693   4.819 -0.6176  0.0398  0.2992
  724MOL0     C97611   9.703   7.716   4.823  0.5295  0.4918 -0.0691
  724MOL0     C97612   9.757   7.845   4.814  0.1039  0.4707  0.0594
  724MOL0     O97613   9.890   7.860   4.850 -0.3090 -0.3200 -0.2782
  724MOL0     C97614   9.920   7.934   4.969  0.3234 -0.0356  0.6604
  724MOL0     C97615  10.066   7.926   4.991 -0.6039  0.2859 -0.1749
  724MOL0     C97616  10.159   8.025   4.913  0.6497  0.1722  0.4774
  724MOL0     C97617  10.309   7.997   4.953 -0.2642  0.0853 -0.4485
  724MOL0     C97618  10.388   8.103   4.884  0.2417  0.9176 -0.2919
  724MOL0     C97619  10.539   8.086   4.885 -0.2498  0.6362 -0.4201
  724MOL0     C97620  10.590   8.138   5.026 -0.4600  0.4035 -0.1972
  724MOL0     C97621  10.741   8.141   5.030 -0.3787  0.3287  0.8646
  724MOL0     N97622  10.792   8.202   5.159  0.0466  0.2867 -0.4451
  724MOL0     C97623  10.918   8.251   5.184  0.4045 -0.1853  0.3136
  724MOL0     C97624  10.906   8.314   5.306  0.2202 -0.2286 -0.0096
  724MOL0     C97625  11.022   8.375   5.393  0.1391  0.1195  0.4585
  724MOL0     C97626  11.119   8.470   5.313 -0.1626 -0.0415  0.0916
  724MOL0     C97627  11.057   8.578   5.228  0.4088  0.2379  0.1502
  724MOL0     C97628  10.943   8.661   5.292 -0.0184 -0.3967 -1.3303
  724MOL0     O97629  10.988   8.733   5.405 -0.3884 -0.1512 -0.4358
  724MOL0     C97630  11.089   8.829   5.383  0.5728 -0.1929  0.4251
  724MOL0     C97631  11.164   8.853   5.503 -0.4577  0.8483  0.7429
  724MOL0     C97632  11.268   8.950   5.500  1.0418  0.2435  0.1936
  724MOL0     C97633  11.301   9.017   5.379  0.0287 -0.5439  0.7325
  724MOL0     C97634  11.394   9.128   5.381  0.6572 -1.0038  0.7264
  724MOL0     O97635  11.498   9.122   5.461 -1.1055  1.0858 -0.4315
  724MOL0     C97636  11.591   9.219   5.499 -0.8059  0.1522  0.4416
  724MOL0     C97637  11.607   9.355   5.456 -0.5312 -0.2310  0.4808
  724MOL0     C97638  11.705   9.441   5.521 -0.6482  0.2977 -0.1220
  724MOL0     C97639  11.778   9.393   5.631  0.3725  0.5594  0.0513
  724MOL0     O97640  11.870   9.479   5.681 -1.0377 -0.7407  0.1475
  724MOL0     C97641  11.976   9.421   5.762 -0.1037  0.1716 -0.3627
  724MOL0     C97642  12.107   9.491   5.738  0.0946  0.4923 -0.0021
  724MOL0     C97643  12.220   9.452   5.838 -0.0666  0.0585 -0.5295
  724MOL0     C97644  12.316   9.574   5.875 -0.1536  0.0236  0.5015
  724MOL0     C97645  12.365   9.569   6.019  0.6689 -0.9516 -0.3809
  724MOL0     C97646  12.470   9.467   6.052  0.1079  0.7171  0.1762
  724MOL0     C97647  12.538   9.481   6.185 -0.0879  0.2209  0.2922
  724MOL0     C97648  12.635   9.364   6.217  0.3304  0.9273  0.8583
  724MOL0    Cl97649  12.799   9.410   6.258 -0.3021  0.4873 -0.1004
  724MOL0     C97650  11.754   9.261   5.676  1.0575  0.6517  1.3754
  724MOL0     C97651  11.667   9.178   5.610  0.0707 -0.2010  0.2106
  724MOL0     O97652  11.370   9.224   5.313  0.0915  0.0490 -0.4227
  724MOL0     C97653  11.229   8.993   5.260  1.1791  0.6309  0.7241
  724MOL0     C97654  11.123   8.906   5.263  0.7606  0.0231  0.4191
  724MOL0     N97655  10.785   8.288   5.359  0.7472 -1.0216 -0.2457
  724MOL0     N97656  10.716   8.228   5.267  0.2508  0.1936  0.0547
  724MOL0     C97657   9.675   7.950   4.789 -0.3933 -0.1823 -0.4094
  724MOL0     C97658   9.537   7.933   4.785 -0.2302  0.1839  0.0764
  724MOL0     C97659   9.120   7.781   4.878  0.6387 -0.2949 -0.2837
  724MOL0     C97660   9.075   7.830   4.754 -0.3973  0.5140 -0.0697
  724MOL0     C97661   8.938   7.826   4.715 -0.1180 -0.1282 -0.8993
  724MOL0     C97662   8.842   7.781   4.806  0.9976  0.0139 -0.3840
  724MOL0     O97663   8.715   7.785   4.760  0.2109 -0.5568 -0.2951
  724MOL0     C97664   8.607   7.737   4.843  0.3165  0.3201  0.5950
  724MOL0     C97665   8.470   7.761   4.761  0.3671 -0.3635  0.0855
  724MOL0     C97666   8.342   7.736   4.848 -0.0416  0.4247  0.2018
  724MOL0     C97667   8.304   7.865   4.921 -0.6254  1.1162 -0.8866
  724MOL0     C97668   8.196   7.845   5.017  0.2444  0.5803 -0.3347
  724MOL0     C97669   8.102   7.827   5.089  0.0471 -0.2416  0.1529
  724MOL0     C97670   8.886   7.732   4.932  0.6401  0.3544  0.1781
  724MOL0     C97671   9.028   7.725   4.963  0.1291  0.0582  0.3810
  724MOL0     C97672   9.053   7.663   5.098 -0.2942 -0.3775 -0.4716
  724MOL0     H97673   9.529   7.592   4.835  2.8943 -1.3002  0.2875
  724MOL0     H97674   9.762   7.626   4.841 -2.1676 -1.6339 -1.2298
  724MOL0     H97675   9.899   8.039   4.946 -1.5424 -0.2240  1.3912
  724MOL0     H97676   9.864   7.906   5.058  1.0771  0.4715  1.3118
  724MOL0     H97677  10.095   7.822   4.972 -2.9783 -0.4624 -0.0983
  724MOL0     H97678  10.072   7.954   5.097  5.1401  1.6100 -0.5190
  724MOL0     H97679  10.128   8.128   4.933 -3.2087 -0.3962 -1.6288
  724MOL0     H97680  10.151   8.013   4.805  6.1875 -1.0441 -0.1172
  724MOL0     H97681  10.332   8.001   5.059  1.8874 -2.7492 -0.6987
  724MOL0     H97682  10.339   7.894   4.929 -1.0296 -0.0047 -1.0785
  724MOL0     H97683  10.362   8.088   4.779 -0.0799  0.4891 -0.1546
  724MOL0     H97684  10.363   8.204   4.920  0.9971  1.2818 -0.7671
  724MOL0     H97685  10.566   7.982   4.868  0.4714  0.5780  0.8809
  724MOL0     H97686  10.576   8.153   4.807 -1.3973  3.6290  1.4118
  724MOL0     H97687  10.565   8.069   5.107 -1.8489  2.4030  1.1393
  724MOL0     H97688  10.542   8.234   5.047 -0.2156  0.3519  0.6373
  724MOL0     H97689  10.773   8.036   5.038 -1.9954 -0.3211 -0.5286
  724MOL0     H97690  10.791   8.181   4.941 -1.0574  1.1830  0.8629
  724MOL0     H97691  11.009   8.226   5.131 -0.5027 -0.1497 -1.3269
  724MOL0     H97692  10.977   8.426   5.478 -1.5761 -0.5441 -0.0183
  724MOL0     H97693  11.082   8.296   5.439  1.4788  0.5520 -0.4841
  724MOL0     H97694  11.201   8.508   5.374  0.5699 -1.7219  0.2292
  724MOL0     H97695  11.175   8.407   5.244 -1.0188  0.2629 -0.9061
  724MOL0     H97696  11.019   8.543   5.132 -3.3174  3.0648  0.3675
  724MOL0     H97697  11.139   8.644   5.195  0.5382 -0.4920 -1.0537
  724MOL0     H97698  10.877   8.579   5.323 -0.7274  0.7331  0.2729
  724MOL0     H97699  10.898   8.732   5.221  0.4523 -0.9395 -2.1924
  724MOL0     H97700  11.150   8.797   5.595 -1.5844 -0.6996 -0.3302
  724MOL0     H97701  11.326   8.980   5.587  0.8173 -0.9500  0.7820
  724MOL0     H97702  11.550   9.396   5.374  0.0806 -3.2587 -1.6063
  724MOL0     H97703  11.730   9.542   5.491  2.7569 -0.3550  0.0565
  724MOL0     H97704  11.943   9.427   5.866 -0.0077 -1.6596 -0.1836
  724MOL0     H97705  11.997   9.314   5.747  0.2003 -0.1092  1.7946
  724MOL0     H97706  12.141   9.453   5.642  1.8523 -1.0979  1.1699
  724MOL0     H97707  12.097   9.600   5.735  2.4013  0.7445 -0.6896
  724MOL0     H97708  12.188   9.417   5.936  0.0610  0.9058 -0.1798
  724MOL0     H97709  12.285   9.382   5.785 -0.4904 -0.3222 -0.5507
  724MOL0     H97710  12.268   9.670   5.851 -1.8314 -0.6537  1.0041
  724MOL0     H97711  12.406   9.558   5.816  0.8297 -1.8073  2.4023
  724MOL0     H97712  12.274   9.561   6.079  0.8575  0.4974  0.1482
  724MOL0     H97713  12.416   9.665   6.034 -0.3600 -0.0944 -1.9815
  724MOL0     H97714  12.427   9.367   6.044 -0.9081  1.0856  0.7246
  724MOL0     H97715  12.549   9.473   5.977  0.3236 -1.2413  0.2005
  724MOL0     H97716  12.460   9.478   6.261 -1.1372 -0.1744 -0.7688
  724MOL0     H97717  12.592   9.576   6.193  1.1104 -0.4499  0.4602
  724MOL0     H97718  12.605   9.299   6.299  0.3425  0.2653  0.3511
  724MOL0     H97719  12.634   9.307   6.123  0.1380  2.9735 -0.4690
  724MOL0     H97720  11.813   9.218   5.756  1.4713  0.6638  1.0801
  724MOL0     H97721  11.663   9.076   5.649 -0.1857  0.5552  2.2947
  724MOL0     H97722  11.234   9.051   5.169 -0.5057  0.5730  0.5636
  724MOL0     H97723  11.056   8.898   5.177  2.8345 -1.6863 -1.1588
  724MOL0     H97724   9.727   8.045   4.776 -0.3639 -0.3982 -1.9374
  724MOL0     H97725   9.476   8.022   4.774  0.6857  0.7097 -0.9565
  724MOL0     H97726   9.151   7.865   4.685  2.6872 -0.9815  2.2729
  724MOL0     H97727   8.915   7.865   4.616  0.6973  1.9781 -0.3143
  724MOL0     H97728   8.610   7.787   4.940  3.4293  0.3503  0.6056
  724MOL0     H97729   8.621   7.629   4.855 -0.7621  0.0049 -0.8422
  724MOL0     H97730   8.469   7.691   4.676  2.3361 -0.1684 -0.1469
  724MOL0     H97731   8.465   7.859   4.714 -0.9449 -1.7213 -2.9105
  724MOL0     H97732   8.357   7.650   4.914 -1.3504 -1.0527 -1.3337
  724MOL0     H97733   8.261   7.708   4.780  0.4101  1.3985 -0.7809
  724MOL0     H97734   8.391   7.906   4.973  0.6934  1.6659 -3.3417
  724MOL0     H97735   8.276   7.940   4.846 -0.4034  0.5179 -1.5828
  724MOL0     H97736   8.010   7.803   5.139  0.2569 -1.6916 -0.1077
  724MOL0     H97737   8.807   7.708   5.003 -1.7414  0.8452 -2.1386
  724MOL0     H97738   9.127   7.583   5.084 -2.4029 -2.0438 -3.3524
  724MOL0     H97739   9.084   7.727   5.181 -0.0507 -2.1134  0.8428
  724MOL0     H97740   8.966   7.612   5.142  0.9696  0.3308  3.1521
  725MOL0     O97741   3.909   2.671   7.939 -0.4398 -0.3475  0.7783
  725MOL0     C97742   3.853   2.569   7.978 -0.4144  0.3901 -0.8152
  725MOL0     O97743   3.917   2.462   8.036  0.1951  0.1464  0.1463
  725MOL0     C97744   4.051   2.487   8.045  0.1711  1.2442 -0.5977
  725MOL0     C97745   4.107   2.556   8.157  0.1042 -1.2563  0.3038
  725MOL0     C97746   4.241   2.568   8.175  0.4224  0.6009  0.3192
  725MOL0     C97747   4.326   2.493   8.093  0.0466  0.3652 -0.0631
  725MOL0     O97748   4.460   2.500   8.136 -0.0501  0.1798 -0.1499
  725MOL0     C97749   4.547   2.414   8.067  0.0376 -0.5736 -1.1694
  725MOL0     C97750   4.686   2.450   8.116  1.8317 -0.3360  0.1525
  725MOL0     C97751   4.708   2.425   8.270  0.3121  0.8873  0.2960
  725MOL0     C97752   4.856   2.453   8.298 -0.0277  0.1794 -0.1634
  725MOL0     C97753   4.886   2.606   8.323  1.1368 -0.7308 -0.2437
  725MOL0     C97754   5.005   2.635   8.399  0.5107  0.2042 -0.7399
  725MOL0     C97755   5.136   2.579   8.340 -0.3970 -0.7831 -0.3510
  725MOL0     C97756   5.181   2.641   8.204 -0.0981  0.5388  0.5822
  725MOL0     N97757   5.316   2.601   8.154  0.6753  0.2926 -0.3516
  725MOL0     C97758   5.430   2.679   8.169  0.1773  0.5520  1.3762
  725MOL0     C97759   5.523   2.609   8.103  0.6454 -0.4052  0.4056
  725MOL0     C97760   5.659   2.646   8.094 -0.6434 -0.2788 -0.5152
  725MOL0     C97761   5.759   2.556   8.170  0.0086 -0.5720  1.0651
  725MOL0     C97762   5.905   2.604   8.148  0.4137 -0.0856 -0.0413
  725MOL0     C97763   5.998   2.529   8.244 -0.1271 -0.5434 -0.0371
  725MOL0     O97764   6.135   2.573   8.220  0.6440 -0.2393 -0.6198
  725MOL0     C97765   6.229   2.531   8.315  0.0427 -0.1618  0.2587
  725MOL0     C97766   6.212   2.450   8.430  0.5646 -0.1210  0.5401
  725MOL0     C97767   6.313   2.435   8.524 -0.1206  0.8163  0.5503
  725MOL0     C97768   6.438   2.486   8.497  0.4808  0.1747  0.1080
  725MOL0     C97769   6.536   2.465   8.599  0.1877 -1.1898 -0.2170
  725MOL0     O97770   6.659   2.531   8.578 -0.0879 -1.0601  0.2436
  725MOL0     C97771   6.751   2.517   8.668  0.2410  0.4239 -0.0864
  725MOL0     C97772   6.827   2.625   8.696 -0.2191 -0.3168  0.4803
  725MOL0     C97773   6.926   2.630   8.788 -0.7346 -0.2989 -0.6220
  725MOL0     C97774   6.960   2.508   8.856  0.3914  0.1679  0.1914
  725MOL0     O97775   7.060   2.493   8.948  0.0120  0.5260 -0.3028
  725MOL0     C97776   7.152   2.607   8.961 -0.1992 -0.2328  0.2259
  725MOL0     C97777   7.268   2.558   9.046 -0.0193  0.2378 -0.1851
  725MOL0     C97778   7.344   2.690   9.074  0.1444 -0.0757 -0.2596
  725MOL0     C97779   7.455   2.666   9.177  0.0049 -0.5262  0.2193
  725MOL0     C97780   7.527   2.803   9.200 -0.1590  0.2105 -0.3993
  725MOL0     C97781   7.666   2.767   9.254  0.4250 -0.1516  0.0357
  725MOL0     C97782   7.722   2.881   9.340 -0.2074  0.1841 -0.8802
  725MOL0     C97783   7.763   3.016   9.263  0.7418  0.2792  0.7433
  725MOL0    Cl97784   7.874   2.990   9.129  0.0058  0.0246 -0.3306
  725MOL0     C97785   6.893   2.390   8.823  1.6348  0.1199  0.4738
  725MOL0     C97786   6.789   2.394   8.734  0.5258 -0.3008 -0.7851
  725MOL0     O97787   6.510   2.398   8.704  0.2222  0.0172 -0.4309
  725MOL0     C97788   6.458   2.553   8.378 -0.5521 -0.6284  0.0434
  725MOL0     C97789   6.352   2.589   8.293 -0.1819  0.5761 -0.2127
  725MOL0     N97790   5.473   2.489   8.042 -0.0515 -1.1959  0.1741
  725MOL0     N97791   5.355   2.475   8.088  0.0534 -0.6440 -0.3955
  725MOL0     C97792   4.282   2.428   7.980  0.7306 -0.4209 -0.0749
  725MOL0     C97793   4.140   2.439   7.955  0.4082  0.1445 -0.2908
  725MOL0     C97794   3.718   2.549   7.936 -0.8667  0.1692  0.0329
  725MOL0     C97795   3.693   2.563   7.798 -0.5168  0.1654 -0.2755
  725MOL0     C97796   3.563   2.546   7.754 -0.2247 -0.2160 -0.3580
  725MOL0     C97797   3.456   2.517   7.830 -0.9410  0.9059 -0.6053
  725MOL0     O97798   3.329   2.498   7.780 -0.0614  0.0063  0.4307
  725MOL0     C97799   3.313   2.384   7.682  0.4386  0.3198 -0.9005
  725MOL0     C97800   3.313   2.437   7.539  0.8582 -0.7217 -0.7480
  725MOL0     C97801   3.193   2.388   7.453  0.0339 -0.1082  0.1875
  725MOL0     C97802   3.070   2.491   7.482 -0.0566  1.0131 -0.2769
  725MOL0     C97803   2.949   2.431   7.416  1.1538 -0.9189 -0.5305
  725MOL0     C97804   2.852   2.373   7.359  0.7138  0.4477  0.0953
  725MOL0     C97805   3.481   2.505   7.973  0.2284 -0.2501 -0.1327
  725MOL0     C97806   3.611   2.535   8.021  0.1495 -0.6260 -0.8915
  725MOL0     C97807   3.621   2.548   8.170  0.2837 -0.5090  0.2729
  725MOL0     H97808   4.045   2.595   8.236  2.1401 -0.8202  1.7635
  725MOL0     H97809   4.282   2.614   8.264 -1.0419  1.3103  0.6585
  725MOL0     H97810   4.518   2.310   8.090 -2.0063 -0.0457 -1.1459
  725MOL0     H97811   4.543   2.433   7.960 -1.6780 -4.3157 -1.9611
  725MOL0     H97812   4.696   2.555   8.086 -2.7520  1.3304  3.3488
  725MOL0     H97813   4.753   2.384   8.060 -0.2722 -0.9542 -1.8093
  725MOL0     H97814   4.690   2.319   8.289  1.0652  0.3480 -1.7722
  725MOL0     H97815   4.642   2.474   8.342  2.1535  3.5145  0.3457
  725MOL0     H97816   4.896   2.399   8.385  0.3172  1.1375  0.2929
  725MOL0     H97817   4.903   2.422   8.204  0.2598 -0.3165  0.1365
  725MOL0     H97818   4.905   2.663   8.232  1.9644  1.9232  1.4675
  725MOL0     H97819   4.804   2.659   8.372  0.0935 -0.0703 -2.5853
  725MOL0     H97820   5.006   2.743   8.417 -0.2423  0.4798 -2.2426
  725MOL0     H97821   4.993   2.592   8.499  1.5961 -2.0017 -1.4892
  725MOL0     H97822   5.134   2.471   8.320  2.4053 -0.8772 -0.4954
  725MOL0     H97823   5.216   2.607   8.410 -1.1439 -0.1891  0.2825
  725MOL0     H97824   5.102   2.615   8.133 -2.1645  0.4824  2.7747
  725MOL0     H97825   5.174   2.750   8.214  0.6113  0.4925  1.7151
  725MOL0     H97826   5.437   2.775   8.219 -1.7821  0.6379  1.5358
  725MOL0     H97827   5.688   2.645   7.989  4.5150  3.5301  0.4943
  725MOL0     H97828   5.661   2.748   8.132  0.4236  0.0245 -1.3246
  725MOL0     H97829   5.727   2.548   8.274  1.1510 -0.4313  1.4380
  725MOL0     H97830   5.764   2.461   8.116  3.1056  1.6093 -3.0603
  725MOL0     H97831   5.922   2.710   8.169 -1.3982  0.2205  0.0902
  725MOL0     H97832   5.940   2.602   8.045  4.4613 -1.0535  1.1783
  725MOL0     H97833   5.988   2.421   8.230 -1.9539 -0.9190  3.2265
  725MOL0     H97834   5.967   2.553   8.346 -2.7755  1.8374 -1.2515
  725MOL0     H97835   6.112   2.415   8.454 -0.1923  2.3547  1.4075
  725MOL0     H97836   6.291   2.400   8.624 -0.1357  1.7493  0.8764
  725MOL0     H97837   6.794   2.713   8.642 -0.0994  0.6680  1.9634
  725MOL0     H97838   6.976   2.725   8.802 -1.8293 -0.0909  3.0116
  725MOL0     H97839   7.190   2.627   8.860 -0.5122 -0.9276 -0.0345
  725MOL0     H97840   7.098   2.691   9.005 -1.9664  0.0940 -2.3862
  725MOL0     H97841   7.238   2.515   9.142  0.1946  1.1724  0.3106
  725MOL0     H97842   7.328   2.486   8.989 -3.1568 -2.6833 -0.1261
  725MOL0     H97843   7.392   2.732   8.985  0.0587  2.5258  0.8227
  725MOL0     H97844   7.281   2.773   9.108  1.7431 -0.4493  4.3107
  725MOL0     H97845   7.530   2.596   9.140  0.6444 -0.4701  1.3596
  725MOL0     H97846   7.422   2.633   9.276  1.3118 -1.5499  0.3432
  725MOL0     H97847   7.479   2.859   9.281 -0.4629  1.7007 -1.5681
  725MOL0     H97848   7.531   2.868   9.112  0.5233  3.0845  1.5916
  725MOL0     H97849   7.651   2.687   9.327 -2.4755  1.1810  1.0324
  725MOL0     H97850   7.737   2.734   9.177 -0.2636 -0.4058 -0.4985
  725MOL0     H97851   7.810   2.839   9.390 -1.2648  1.2233  2.1114
  725MOL0     H97852   7.653   2.906   9.422 -0.5015 -2.4402 -0.2198
  725MOL0     H97853   7.676   3.053   9.209  1.7684 -0.4929 -1.5820
  725MOL0     H97854   7.803   3.091   9.332  1.2762 -1.6173  2.6138
  725MOL0     H97855   6.924   2.297   8.870  0.5526  0.0636  1.1178
  725MOL0     H97856   6.727   2.306   8.723 -1.2436  0.9005 -0.9056
  725MOL0     H97857   6.549   2.601   8.344 -1.4921 -0.2381 -2.0941
  725MOL0     H97858   6.362   2.644   8.200 -2.1940 -0.6817 -1.2545
  725MOL0     H97859   4.349   2.375   7.913  0.3021 -1.7460  0.5155
  725MOL0     H97860   4.103   2.401   7.860  2.2357  0.1416 -1.0408
  725MOL0     H97861   3.764   2.581   7.718 -1.2678  0.5355 -0.8745
  725MOL0     H97862   3.563   2.551   7.645 -0.6150 -2.3209 -0.5050
  725MOL0     H97863   3.222   2.329   7.708  2.2711 -1.6198  2.2476
  725MOL0     H97864   3.401   2.319   7.694 -0.2955 -0.3533  1.6845
  725MOL0     H97865   3.407   2.407   7.492  1.7291  1.5220 -0.5662
  725MOL0     H97866   3.312   2.545   7.522 -3.2466 -0.7599 -1.9885
  725MOL0     H97867   3.172   2.285   7.482 -0.2992 -0.2202 -0.4339
  725MOL0     H97868   3.230   2.391   7.350 -0.9134 -0.2612 -0.1633
  725MOL0     H97869   3.050   2.497   7.589 -1.4269  2.6784 -0.5904
  725MOL0     H97870   3.099   2.589   7.442  4.3547 -0.2449 -0.7499
  725MOL0     H97871   2.774   2.308   7.326 -0.2062  1.5606 -0.0086
  725MOL0     H97872   3.402   2.474   8.040 -0.1401 -0.0968 -0.4925
  725MOL0     H97873   3.585   2.462   8.226 -3.3481  1.6920  1.6694
  725MOL0     H97874   3.724   2.568   8.201  0.6367 -0.5948 -0.8091
  725MOL0     H97875   3.565   2.635   8.206 -0.0052 -0.7827  0.4898
  726MOL0     O97876   2.065   4.433   1.908 -0.0855  0.1288  0.4504
  726MOL0     C97877   2.032   4.547   1.944  0.4127 -0.0968  0.0006
  726MOL0     O97878   2.118   4.650   1.953  0.1409  0.0388  0.2205
  726MOL0     C97879   2.252   4.635   1.944 -0.6025 -0.7625 -0.4440
  726MOL0     C97880   2.331   4.522   1.969 -0.0289  0.1177  0.9867
  726MOL0     C97881   2.470   4.517   1.942  0.2657  0.5466  0.4558
  726MOL0     C97882   2.543   4.633   1.908  0.3957  0.2145 -0.1308
  726MOL0     O97883   2.678   4.641   1.879  0.3914 -0.0055  0.1848
  726MOL0     C97884   2.759   4.529   1.910 -0.0686  1.0959  0.2240
  726MOL0     C97885   2.898   4.559   1.847 -0.1934  0.2926  0.4407
  726MOL0     C97886   2.977   4.652   1.932 -0.5872  0.3415  0.9624
  726MOL0     C97887   3.132   4.664   1.901  0.8275  0.0729 -0.3167
  726MOL0     C97888   3.158   4.719   1.766  0.2098 -0.2177  0.8147
  726MOL0     C97889   3.306   4.736   1.740 -1.5652 -0.2022  0.2628
  726MOL0     C97890   3.363   4.866   1.799  0.0362  0.3838 -0.1883
  726MOL0     C97891   3.513   4.881   1.781  0.0469  0.7203  0.1394
  726MOL0     N97892   3.582   4.995   1.841  0.3708  0.1948 -0.5748
  726MOL0     C97893   3.629   5.107   1.778  0.1420  0.6240  0.7762
  726MOL0     C97894   3.728   5.150   1.857  0.4595 -0.3714 -0.0759
  726MOL0     C97895   3.821   5.264   1.818 -0.4372  1.0345  0.2069
  726MOL0     C97896   3.960   5.273   1.881  0.1536  0.5104  0.3365
  726MOL0     C97897   4.025   5.402   1.840 -0.3385 -0.3084 -0.0946
  726MOL0     C97898   4.179   5.390   1.868 -0.6593 -0.3489  0.2478
  726MOL0     O97899   4.206   5.345   2.005  0.5081  0.9932  0.5967
  726MOL0     C97900   4.319   5.276   2.028  0.1114 -0.8013  0.5024
  726MOL0     C97901   4.320   5.179   2.130  0.2468 -0.0422 -0.6013
  726MOL0     C97902   4.448   5.128   2.169 -0.1739 -0.2661  1.2216
  726MOL0     C97903   4.563   5.176   2.108 -0.3046  0.5879  0.2813
  726MOL0     C97904   4.689   5.110   2.152 -0.1936 -0.0795  0.5435
  726MOL0     O97905   4.686   4.987   2.204 -0.5325  0.0277 -0.6044
  726MOL0     C97906   4.797   4.912   2.243 -0.9035  0.3947  0.0317
  726MOL0     C97907   4.794   4.781   2.232 -1.3995  0.2591  0.5152
  726MOL0     C97908   4.916   4.706   2.250  0.0546  0.3263 -0.3735
  726MOL0     C97909   5.039   4.765   2.286 -0.1569  0.2020  0.3505
  726MOL0     O97910   5.158   4.688   2.286 -0.0335  0.0471  0.3759
  726MOL0     C97911   5.142   4.567   2.358  1.1134 -0.4872 -0.1250
  726MOL0     C97912   5.277   4.535   2.384  0.3973  0.0771  1.4124
  726MOL0     C97913   5.341   4.461   2.261 -0.2703 -1.1499 -0.2236
  726MOL0     C97914   5.477   4.409   2.299  0.1573 -0.1397  0.8607
  726MOL0     C97915   5.529   4.343   2.175 -0.9162 -0.1845  0.1095
  726MOL0     C97916   5.686   4.327   2.183 -0.4244 -0.0857  0.0839
  726MOL0     C97917   5.736   4.268   2.055 -0.0945  0.1914  0.3793
  726MOL0     C97918   5.889   4.248   2.065  0.4227 -0.1340  0.9037
  726MOL0    Cl97919   5.994   4.397   2.047  0.1481 -0.1393 -0.7501
  726MOL0     C97920   5.033   4.896   2.324 -0.8781 -0.2239  0.5782
  726MOL0     C97921   4.910   4.969   2.302  0.0052 -0.8225 -0.6943
  726MOL0     O97922   4.795   5.167   2.119  0.2299  0.5859  0.0600
  726MOL0     C97923   4.559   5.277   2.012  0.5748 -0.0464 -0.7797
  726MOL0     C97924   4.437   5.325   1.967  1.0898  0.0490 -0.4230
  726MOL0     N97925   3.732   5.068   1.967  0.1066  0.2355 -0.6136
  726MOL0     N97926   3.641   4.982   1.963  0.2221  0.2187  0.0022
  726MOL0     C97927   2.472   4.747   1.902 -0.5838 -0.0992  0.0976
  726MOL0     C97928   2.332   4.749   1.923  0.2092 -0.2021 -0.1010
  726MOL0     C97929   1.888   4.583   1.949  0.3869  0.4990  0.1789
  726MOL0     C97930   1.793   4.514   1.868 -0.8274 -0.6971 -0.1317
  726MOL0     C97931   1.653   4.544   1.868 -0.2742 -1.0276  0.0789
  726MOL0     C97932   1.603   4.656   1.938 -0.1424 -0.6407 -0.6154
  726MOL0     O97933   1.466   4.676   1.928 -0.0756  0.4547  0.6341
  726MOL0     C97934   1.413   4.795   1.998 -0.1909 -0.1763  0.1160
  726MOL0     C97935   1.264   4.829   1.973 -0.1774  0.2508  0.1903
  726MOL0     C97936   1.170   4.707   1.982  0.1445 -0.4163 -0.1518
  726MOL0     C97937   1.037   4.732   1.919 -1.1391 -0.0818 -0.1068
  726MOL0     C97938   0.981   4.858   1.962  0.5829  0.4044  0.0476
  726MOL0     C97939   0.930   4.962   2.001  0.4739  0.0256  0.1279
  726MOL0     C97940   1.705   4.733   2.008  0.2160  0.3895 -0.5563
  726MOL0     C97941   1.839   4.696   2.021  0.4051  0.5406 -0.1502
  726MOL0     C97942   1.916   4.788   2.110 -0.3114 -0.5000 -0.1490
  726MOL0     H97943   2.279   4.430   1.993 -2.6441  0.8001 -1.4906
  726MOL0     H97944   2.524   4.425   1.964  1.4401  1.3277  0.9215
  726MOL0     H97945   2.760   4.510   2.018 -2.5876  0.0819  0.1448
  726MOL0     H97946   2.714   4.444   1.856  1.5122  0.3329  0.0414
  726MOL0     H97947   2.879   4.611   1.753 -4.2933  1.1796  1.5786
  726MOL0     H97948   2.946   4.461   1.836 -2.2737 -1.3546  4.0536
  726MOL0     H97949   2.959   4.616   2.034 -2.4519 -1.8224 -0.0381
  726MOL0     H97950   2.924   4.747   1.919 -0.6770  0.1394 -0.2822
  726MOL0     H97951   3.174   4.724   1.982  1.0285  1.3350 -1.3159
  726MOL0     H97952   3.179   4.566   1.911  4.3647  1.2591 -3.0685
  726MOL0     H97953   3.117   4.648   1.693  2.1616  1.8968 -2.6136
  726MOL0     H97954   3.110   4.815   1.746  1.9255  0.4431 -0.4606
  726MOL0     H97955   3.363   4.647   1.770  1.3691  1.7660  0.8709
  726MOL0     H97956   3.317   4.743   1.631 -0.5388  2.0063  0.4742
  726MOL0     H97957   3.351   4.876   1.907 -0.3514  1.4474 -0.3163
  726MOL0     H97958   3.322   4.960   1.759  1.9230  1.3153 -0.0272
  726MOL0     H97959   3.562   4.797   1.831 -1.5584 -1.2832 -1.4626
  726MOL0     H97960   3.540   4.869   1.676  2.8695 -2.5946  1.0732
  726MOL0     H97961   3.589   5.136   1.681 -0.0247  2.7211  1.4160
  726MOL0     H97962   3.841   5.256   1.711  0.4730  2.0211  0.2995
  726MOL0     H97963   3.760   5.354   1.833 -2.3443  0.5788 -3.4741
  726MOL0     H97964   3.965   5.269   1.990  0.9878  3.1069  0.4689
  726MOL0     H97965   4.036   5.202   1.849  0.5132  1.0829 -0.1090
  726MOL0     H97966   3.999   5.490   1.900  3.0670 -0.0393  1.2351
  726MOL0     H97967   4.010   5.435   1.737  0.8704  0.5968 -0.0101
  726MOL0     H97968   4.223   5.489   1.854 -0.7904 -0.3517 -0.2100
  726MOL0     H97969   4.214   5.320   1.792  0.0794 -1.7676  1.8318
  726MOL0     H97970   4.228   5.146   2.177  0.8100 -1.1053 -0.2252
  726MOL0     H97971   4.461   5.051   2.245 -0.0398 -0.2346  1.2301
  726MOL0     H97972   4.704   4.730   2.201  0.1215 -0.4247 -3.2633
  726MOL0     H97973   4.902   4.601   2.228  1.3153  0.4368 -1.8153
  726MOL0     H97974   5.069   4.585   2.438  0.8806 -0.8487 -0.2537
  726MOL0     H97975   5.098   4.494   2.289 -0.5002  1.2584 -1.0410
  726MOL0     H97976   5.334   4.625   2.408 -1.6509  1.9930 -0.4451
  726MOL0     H97977   5.280   4.464   2.468  1.3921 -1.3896  0.2061
  726MOL0     H97978   5.280   4.379   2.223  0.0324 -1.6545  0.3585
  726MOL0     H97979   5.373   4.540   2.193  1.3590 -1.7203 -0.1678
  726MOL0     H97980   5.470   4.327   2.372 -1.0232 -1.1781 -0.3629
  726MOL0     H97981   5.543   4.485   2.340 -0.1963 -0.5815  2.2984
  726MOL0     H97982   5.511   4.409   2.090 -1.2069  1.2581  1.2529
  726MOL0     H97983   5.479   4.248   2.150 -0.7784 -0.8004  2.0298
  726MOL0     H97984   5.738   4.420   2.209  3.1832 -2.0110  0.3382
  726MOL0     H97985   5.714   4.256   2.261  0.1316  0.5025  0.4328
  726MOL0     H97986   5.726   4.330   1.965  0.9710 -0.9426 -0.5543
  726MOL0     H97987   5.681   4.175   2.041 -3.3123  2.0147 -0.1248
  726MOL0     H97988   5.912   4.202   2.162 -1.3802 -0.9074  1.0183
  726MOL0     H97989   5.915   4.179   1.984 -1.6945  1.5174 -1.3362
  726MOL0     H97990   5.126   4.943   2.356 -1.0326  1.0340 -0.7085
  726MOL0     H97991   4.910   5.074   2.328 -1.8209 -1.0059  0.1710
  726MOL0     H97992   4.656   5.311   1.977 -0.2619 -0.1770 -3.4349
  726MOL0     H97993   4.434   5.406   1.895  1.8598  0.4373 -0.0325
  726MOL0     H97994   2.521   4.841   1.880 -0.5127 -0.4102 -1.1310
  726MOL0     H97995   2.280   4.844   1.922  2.3663  1.0305 -1.6117
  726MOL0     H97996   1.832   4.443   1.796  0.3178  3.1794 -3.7451
  726MOL0     H97997   1.582   4.481   1.815 -0.0225 -2.6072  1.5211
  726MOL0     H97998   1.476   4.877   1.963 -1.2926  1.4478  1.7607
  726MOL0     H97999   1.423   4.792   2.107 -0.1769 -0.5602  0.1039
  726MOL0     H98000   1.265   4.866   1.870  1.7352 -1.6236 -0.5397
  726MOL0     H98001   1.236   4.905   2.046 -1.9502  3.7672 -3.7113
  726MOL0     H98002   1.152   4.685   2.088  0.4833 -0.8866 -0.1897
  726MOL0     H98003   1.219   4.625   1.929  0.5943 -0.4770  0.3519
  726MOL0     H98004   1.041   4.733   1.810 -1.1976  2.0083 -0.1341
  726MOL0     H98005   0.974   4.647   1.946  0.6402 -1.5133 -0.2329
  726MOL0     H98006   0.881   5.054   2.027 -1.5421 -1.0803  0.4364
  726MOL0     H98007   1.670   4.812   2.074  0.1380 -1.2609  1.5152
  726MOL0     H98008   1.866   4.828   2.198 -0.1652  1.3723 -0.8856
  726MOL0     H98009   1.990   4.729   2.165  0.6368  1.7202  1.0482
  726MOL0     H98010   1.966   4.862   2.047  1.1670 -1.6679 -0.4264
  727MOL0     O98011   7.304   4.193   5.978  0.0379  0.2861 -0.2957
  727MOL0     C98012   7.328   4.105   5.890 -0.0672  0.1490  0.1914
  727MOL0     O98013   7.435   4.021   5.879 -0.2398  0.9848 -0.1426
  727MOL0     C98014   7.528   4.034   5.979  1.1272 -0.1773  0.4140
  727MOL0     C98015   7.522   3.949   6.092 -0.0565 -0.5904 -0.8644
  727MOL0     C98016   7.626   3.950   6.193 -0.3623  0.4499 -0.1550
  727MOL0     C98017   7.724   4.046   6.177 -0.1367 -0.4391 -0.1532
  727MOL0     O98018   7.825   4.067   6.271  0.0252  0.2711 -0.1934
  727MOL0     C98019   7.768   4.131   6.393  0.0760 -0.9467 -0.0548
  727MOL0     C98020   7.867   4.233   6.461 -0.1684 -0.0425 -0.2320
  727MOL0     C98021   7.915   4.334   6.356 -0.1065 -0.4795 -0.5082
  727MOL0     C98022   8.004   4.452   6.414 -0.9243  0.1742  1.1312
  727MOL0     C98023   8.056   4.555   6.301 -0.4175  0.4794  0.9232
  727MOL0     C98024   8.133   4.672   6.373 -0.0521 -0.3961  0.0068
  727MOL0     C98025   8.139   4.789   6.284  0.5917  0.0582  0.0170
  727MOL0     C98026   8.244   4.760   6.175 -1.0325 -0.4079  0.3134
  727MOL0     N98027   8.382   4.742   6.229 -0.7572  0.1281  0.1499
  727MOL0     C98028   8.478   4.654   6.183  0.1568  0.4683  0.1291
  727MOL0     C98029   8.595   4.691   6.235 -0.6026 -0.0203  0.3137
  727MOL0     C98030   8.728   4.627   6.211 -0.7404 -0.6339  0.0618
  727MOL0     C98031   8.820   4.614   6.335 -0.1601  0.2738 -0.2430
  727MOL0     C98032   8.981   4.612   6.305 -0.2523 -0.2181 -0.7595
  727MOL0     C98033   9.054   4.613   6.430 -0.7497  0.1946  0.6984
  727MOL0     O98034   9.195   4.663   6.423  1.1139  0.2419  0.1188
  727MOL0     C98035   9.293   4.592   6.359  0.2435 -1.0084 -0.0771
  727MOL0     C98036   9.281   4.459   6.318  1.0388 -0.3756  0.9742
  727MOL0     C98037   9.366   4.401   6.229 -0.1135  0.8727 -0.3457
  727MOL0     C98038   9.485   4.470   6.182 -1.4491  0.0886 -1.3097
  727MOL0     C98039   9.591   4.408   6.095 -0.2504  0.7758 -1.0765
  727MOL0     O98040   9.698   4.487   6.059 -1.6754 -0.7846 -0.1646
  727MOL0     C98041   9.810   4.437   5.989 -0.5838  1.1578  0.1298
  727MOL0     C98042   9.804   4.358   5.872 -0.8708 -0.0684 -0.1352
  727MOL0     C98043   9.921   4.331   5.804  0.4539  0.0397 -0.0858
  727MOL0     C98044  10.038   4.364   5.857 -0.1329  0.1400 -0.3661
  727MOL0     O98045  10.161   4.336   5.791  0.1818  0.7411  0.7087
  727MOL0     C98046  10.161   4.284   5.654  0.6968 -0.4199 -0.0989
  727MOL0     C98047  10.310   4.304   5.612 -0.6587 -0.1282 -0.3801
  727MOL0     C98048  10.349   4.457   5.595  0.3850 -0.3133 -0.3054
  727MOL0     C98049  10.494   4.465   5.545 -0.6712 -0.2503  0.0879
  727MOL0     C98050  10.544   4.608   5.522  0.0629  0.8035 -0.2421
  727MOL0     C98051  10.691   4.606   5.500 -0.0148  0.1695  0.1671
  727MOL0     C98052  10.733   4.759   5.529 -0.0407  1.7476 -0.0485
  727MOL0     C98053  10.885   4.770   5.516 -1.1428 -0.3028  0.4759
  727MOL0    Cl98054  10.958   4.936   5.553  0.0203  0.3037  0.0083
  727MOL0     C98055  10.045   4.428   5.983 -0.4265  0.7394 -0.4266
  727MOL0     C98056   9.933   4.473   6.041 -0.2113  0.1072 -0.8224
  727MOL0     O98057   9.578   4.292   6.063 -1.1426  0.4912 -0.2116
  727MOL0     C98058   9.501   4.600   6.220 -0.5449 -0.5198  0.1670
  727MOL0     C98059   9.406   4.659   6.313 -0.2333 -0.7999 -0.2027
  727MOL0     N98060   8.577   4.811   6.288  0.3472  0.6663  0.3420
  727MOL0     N98061   8.454   4.849   6.277 -0.4353 -0.1622  0.1791
  727MOL0     C98062   7.728   4.121   6.068 -0.4122 -0.9302  0.1856
  727MOL0     C98063   7.633   4.111   5.964  0.2314 -1.0736  1.1627
  727MOL0     C98064   7.228   4.092   5.783 -0.6603  0.3127 -0.8129
  727MOL0     C98065   7.284   4.054   5.657  0.6337  0.8166 -0.0484
  727MOL0     C98066   7.206   4.046   5.540  0.4984 -0.5658 -0.3508
  727MOL0     C98067   7.073   4.077   5.543  0.0967  0.7402 -0.1925
  727MOL0     O98068   6.996   4.076   5.431 -0.4661 -0.5807 -0.6066
  727MOL0     C98069   6.858   4.030   5.456 -0.4930 -0.0190  1.1432
  727MOL0     C98070   6.810   3.981   5.313 -0.0089 -0.2544  0.5746
  727MOL0     C98071   6.708   3.860   5.311 -0.3478 -0.0323  1.0366
  727MOL0     C98072   6.725   3.776   5.179 -1.1115 -0.4337  0.1921
  727MOL0     C98073   6.621   3.681   5.152 -0.6277  0.3602 -0.2764
  727MOL0     C98074   6.552   3.592   5.112  1.0083  0.0341 -1.0292
  727MOL0     C98075   7.011   4.109   5.672 -0.4588 -0.4751  0.0377
  727MOL0     C98076   7.093   4.123   5.786  0.2525  0.2138  0.7037
  727MOL0     C98077   7.023   4.164   5.915 -0.5582 -0.3062 -0.1286
  727MOL0     H98078   7.442   3.879   6.111  1.4154 -1.2573  4.4864
  727MOL0     H98079   7.631   3.887   6.281  1.4803 -3.1739 -2.5630
  727MOL0     H98080   7.674   4.182   6.371  0.3315 -1.4428 -2.5455
  727MOL0     H98081   7.746   4.059   6.472 -2.7003  2.2680  2.4134
  727MOL0     H98082   7.944   4.182   6.520 -0.6145 -0.0307  0.3734
  727MOL0     H98083   7.818   4.286   6.543  1.6056 -0.4651  1.1674
  727MOL0     H98084   7.826   4.386   6.319  0.2317 -0.2465 -1.0239
  727MOL0     H98085   7.973   4.284   6.277 -0.4777  0.3916 -1.3590
  727MOL0     H98086   7.952   4.513   6.488 -0.8608  2.2878 -0.4785
  727MOL0     H98087   8.092   4.416   6.467  0.7491  2.8592  0.3467
  727MOL0     H98088   8.115   4.497   6.229  1.4073  1.0199  1.9248
  727MOL0     H98089   7.968   4.595   6.249 -0.2212 -1.1303 -0.7750
  727MOL0     H98090   8.064   4.704   6.451  2.3401  1.6094  1.4547
  727MOL0     H98091   8.229   4.644   6.417 -0.2228 -1.8265 -0.4855
  727MOL0     H98092   8.168   4.875   6.345  2.1912  0.7775 -1.6383
  727MOL0     H98093   8.043   4.806   6.235  1.6174  2.0702 -1.4483
  727MOL0     H98094   8.205   4.679   6.112 -0.9130  1.3168 -2.1183
  727MOL0     H98095   8.249   4.847   6.109 -4.9781  0.9333  1.4545
  727MOL0     H98096   8.454   4.575   6.112  3.9343 -0.7156 -0.0516
  727MOL0     H98097   8.711   4.530   6.163 -3.2797  0.0429 -0.5383
  727MOL0     H98098   8.782   4.697   6.146  0.4633 -0.9814  0.6566
  727MOL0     H98099   8.796   4.697   6.402  0.8790 -0.0683  0.5825
  727MOL0     H98100   8.796   4.521   6.388 -0.9727  0.8802  0.4736
  727MOL0     H98101   9.009   4.695   6.240 -0.9982 -0.8677 -1.9363
  727MOL0     H98102   9.005   4.518   6.255 -1.4825 -0.6517 -0.5720
  727MOL0     H98103   9.045   4.531   6.502 -0.4833 -1.0680 -0.6793
  727MOL0     H98104   9.018   4.698   6.490  0.2572  1.7676 -0.8299
  727MOL0     H98105   9.189   4.410   6.347 -0.8255  1.4380 -1.3847
  727MOL0     H98106   9.371   4.293   6.219  0.0031  0.3203  3.8123
  727MOL0     H98107   9.710   4.325   5.827 -0.5827  1.1824 -1.7196
  727MOL0     H98108   9.905   4.279   5.710 -0.5586 -0.9955  0.6352
  727MOL0     H98109  10.138   4.178   5.661  0.9618 -0.3777  1.8926
  727MOL0     H98110  10.098   4.346   5.589  2.6310  4.1123  1.8661
  727MOL0     H98111  10.378   4.270   5.692 -0.0791  1.8266  0.0117
  727MOL0     H98112  10.319   4.256   5.514 -1.4760  2.5691 -1.8526
  727MOL0     H98113  10.273   4.509   5.535  1.4602  2.0025  0.2233
  727MOL0     H98114  10.347   4.497   5.696  1.2749 -1.8486  0.3470
  727MOL0     H98115  10.515   4.404   5.457  0.9458 -2.4969  1.9052
  727MOL0     H98116  10.554   4.424   5.627 -1.8301  0.5227  1.3818
  727MOL0     H98117  10.519   4.653   5.619 -1.8449 -3.0540  1.2962
  727MOL0     H98118  10.484   4.667   5.452 -1.4722 -0.2905  0.0932
  727MOL0     H98119  10.746   4.538   5.565  1.0238  0.1579 -0.6791
  727MOL0     H98120  10.715   4.574   5.398 -0.0680  0.1940  0.1465
  727MOL0     H98121  10.710   4.770   5.635 -1.6444 -1.1489 -0.0138
  727MOL0     H98122  10.678   4.819   5.456  0.9000  0.8945 -1.4958
  727MOL0     H98123  10.943   4.705   5.581  1.0193 -2.4454 -3.2326
  727MOL0     H98124  10.922   4.739   5.418  0.1683 -2.0480  1.4732
  727MOL0     H98125  10.145   4.439   6.025  0.9322 -1.5730 -2.7337
  727MOL0     H98126   9.940   4.544   6.123 -2.2663  1.1632 -1.4804
  727MOL0     H98127   9.581   4.659   6.178 -2.3458  1.1242 -1.1383
  727MOL0     H98128   9.441   4.758   6.339  0.8358 -1.6155  1.7081
  727MOL0     H98129   7.812   4.188   6.057  0.6272 -1.8597  1.9157
  727MOL0     H98130   7.633   4.179   5.879 -0.2190 -2.5310 -0.0494
  727MOL0     H98131   7.389   4.040   5.636  0.3723  0.5177 -1.2172
  727MOL0     H98132   7.246   4.015   5.444 -1.5160 -1.5224 -0.9298
  727MOL0     H98133   6.788   4.106   5.491 -0.4773 -0.1456  1.4499
  727MOL0     H98134   6.842   3.948   5.526 -3.7915  0.3882  1.0216
  727MOL0     H98135   6.901   3.954   5.258 -0.6675 -1.6784  0.1359
  727MOL0     H98136   6.763   4.062   5.257 -1.7001 -1.3298  0.3754
  727MOL0     H98137   6.607   3.900   5.326 -0.2400  0.4001  0.6161
  727MOL0     H98138   6.730   3.797   5.398 -3.3308  0.6427  2.4044
  727MOL0     H98139   6.726   3.839   5.090 -0.2040  1.7908  1.6687
  727MOL0     H98140   6.827   3.736   5.177 -1.4579 -1.3494  0.2454
  727MOL0     H98141   6.487   3.513   5.078  1.5071 -0.8589  0.0123
  727MOL0     H98142   6.908   4.142   5.678  0.2228  2.0449 -0.9517
  727MOL0     H98143   7.036   4.090   5.995  0.8420  0.3346  0.2558
  727MOL0     H98144   7.076   4.253   5.948  2.3289 -1.7276 -0.5994
  727MOL0     H98145   6.914   4.177   5.907 -0.8092 -2.0656 -0.1539
  728MOL0     O98146   3.398  10.051   6.189  0.1767  0.4966 -0.4884
  728MOL0     C98147   3.350  10.039   6.302  0.9788  0.4343 -0.2180
  728MOL0     O98148   3.345  10.138   6.392  0.8680 -0.3626 -0.7083
  728MOL0     C98149   3.381  10.264   6.358  0.0034 -0.0190  0.2068
  728MOL0     C98150   3.288  10.361   6.399 -0.0825  0.5472  0.1705
  728MOL0     C98151   3.306  10.494   6.372 -0.2236  0.5848  0.5466
  728MOL0     C98152   3.424  10.538   6.315  0.4089 -0.4512  0.1583
  728MOL0     O98153   3.443  10.664   6.296 -0.0614 -0.4540 -0.2168
  728MOL0     C98154   3.474  10.698   6.160  0.7248  0.2761 -0.7077
  728MOL0     C98155   3.489  10.848   6.154  0.6309 -0.5018  0.6861
  728MOL0     C98156   3.620  10.913   6.210  0.1414  0.0713 -0.3067
  728MOL0     C98157   3.631  11.068   6.191  0.0987 -0.3665  0.3038
  728MOL0     C98158   3.764  11.108   6.256 -0.4179  0.1023  0.0208
  728MOL0     C98159   3.886  11.088   6.174  0.8117 -0.1625 -0.7718
  728MOL0     C98160   4.015  11.162   6.224 -0.2524  0.1994  0.2701
  728MOL0     C98161   4.131  11.100   6.149 -0.5240  0.0737 -0.0971
  728MOL0     N98162   4.263  11.131   6.192  0.6677 -0.9519  0.1945
  728MOL0     C98163   4.373  11.053   6.164  0.2962 -0.5093 -0.2281
  728MOL0     C98164   4.470  11.097   6.252 -1.2003 -0.4251  0.4006
  728MOL0     C98165   4.609  11.037   6.254 -0.4036  0.6436  0.0595
  728MOL0     C98166   4.686  11.084   6.134 -0.0498 -0.3666  0.0229
  728MOL0     C98167   4.724  11.231   6.131  0.9551 -0.0880  0.7566
  728MOL0     C98168   4.755  11.264   5.982  0.4403 -0.9455  0.3418
  728MOL0     O98169   4.860  11.188   5.940 -0.4201  0.0043  0.3957
  728MOL0     C98170   4.992  11.205   5.982 -0.4318 -0.2697  0.3343
  728MOL0     C98171   5.069  11.090   5.968 -0.1525  0.2910 -0.4836
  728MOL0     C98172   5.203  11.105   6.006 -0.3249  0.3241  0.0748
  728MOL0     C98173   5.263  11.229   6.047 -0.3433  0.1553  0.0074
  728MOL0     C98174   5.406  11.252   6.066 -0.1051 -1.0905  0.5799
  728MOL0     O98175   5.494  11.157   6.011  0.0256  0.1922  0.3607
  728MOL0     C98176   5.631  11.164   6.024  0.0966 -0.2702  0.0034
  728MOL0     C98177   5.699  11.187   6.143  0.3145  0.0391 -0.0300
  728MOL0     C98178   5.839  11.197   6.141  0.5003 -0.1586 -0.4718
  728MOL0     C98179   5.911  11.186   6.024  0.6119 -0.4727 -0.1553
  728MOL0     O98180   6.047  11.174   6.055 -0.6608  0.0118 -0.3822
  728MOL0     C98181   6.120  11.064   6.012  0.2154  0.5574 -0.6232
  728MOL0     C98182   6.126  10.950   6.121 -0.0024 -0.3566  0.3862
  728MOL0     C98183   6.171  11.004   6.256 -1.2971 -0.6447 -0.2010
  728MOL0     C98184   6.321  11.048   6.258 -0.0667  0.2075  0.2317
  728MOL0     C98185   6.369  11.077   6.397 -0.6697  0.7657  0.5938
  728MOL0     C98186   6.523  11.113   6.380  0.4661  1.3469 -0.2729
  728MOL0     C98187   6.590  11.084   6.517 -0.0102  0.3355  0.4999
  728MOL0     C98188   6.547  11.194   6.618 -0.0098 -0.4796 -0.2538
  728MOL0    Cl98189   6.623  11.349   6.581 -0.3670 -0.1785  0.2697
  728MOL0     C98190   5.847  11.159   5.907 -1.6961  0.1562  0.5727
  728MOL0     C98191   5.707  11.152   5.908 -0.2719  0.5987  0.3706
  728MOL0     O98192   5.446  11.359   6.118 -0.0884 -0.0579  0.0294
  728MOL0     C98193   5.173  11.339   6.069  0.5171  0.1630  0.1525
  728MOL0     C98194   5.037  11.330   6.038  0.0825  0.6637 -0.2051
  728MOL0     N98195   4.418  11.202   6.319 -0.6761 -0.8107 -0.0698
  728MOL0     N98196   4.296  11.222   6.293  0.4464 -0.2200  1.2239
  728MOL0     C98197   3.524  10.443   6.282  0.6204 -0.0802 -0.7152
  728MOL0     C98198   3.504  10.302   6.303  0.1929 -0.3123 -0.1181
  728MOL0     C98199   3.320   9.905   6.369 -0.6239  0.3617  0.4578
  728MOL0     C98200   3.379   9.880   6.494  0.8686 -0.1319 -0.6740
  728MOL0     C98201   3.370   9.756   6.559  0.3564  0.6075 -0.1868
  728MOL0     C98202   3.300   9.648   6.514  0.5977  0.5631  0.5455
  728MOL0     O98203   3.273   9.537   6.589 -0.0244 -0.3062 -0.2476
  728MOL0     C98204   3.373   9.474   6.666  0.7831  0.4651  0.7344
  728MOL0     C98205   3.326   9.463   6.808 -0.4327 -0.3948 -0.0214
  728MOL0     C98206   3.196   9.377   6.824 -0.1774 -0.6037  0.3630
  728MOL0     C98207   3.066   9.455   6.846 -0.2165 -0.2939 -0.4827
  728MOL0     C98208   2.948   9.368   6.878  0.5220 -1.0413 -0.4459
  728MOL0     C98209   2.858   9.300   6.927 -0.0233  0.1352 -0.3914
  728MOL0     C98210   3.237   9.680   6.390  0.2158 -0.0419 -0.5884
  728MOL0     C98211   3.244   9.793   6.312 -0.0703  0.0461 -0.7895
  728MOL0     C98212   3.190   9.779   6.167 -0.5491 -0.3818  1.5012
  728MOL0     H98213   3.197  10.345   6.455 -0.7863 -0.8135 -1.2889
  728MOL0     H98214   3.230  10.570   6.391 -2.8527 -1.0149 -2.5197
  728MOL0     H98215   3.569  10.656   6.124 -0.6976 -3.2650 -0.7453
  728MOL0     H98216   3.386  10.661   6.106 -0.5042  0.5661  1.0138
  728MOL0     H98217   3.401  10.891   6.203  0.3855  1.6193 -1.4094
  728MOL0     H98218   3.477  10.857   6.046 -2.7006 -2.5263  0.7290
  728MOL0     H98219   3.702  10.856   6.164 -2.4052 -2.9379 -1.4408
  728MOL0     H98220   3.635  10.899   6.317 -2.2482  0.7277  0.1771
  728MOL0     H98221   3.626  11.098   6.086 -0.5652 -1.2315  0.0770
  728MOL0     H98222   3.546  11.120   6.238  0.5750  0.6764  0.0415
  728MOL0     H98223   3.762  11.215   6.280  1.2595  0.7578 -2.3545
  728MOL0     H98224   3.788  11.071   6.356 -1.6583  1.9593  1.0683
  728MOL0     H98225   3.909  10.982   6.178  2.6792  0.0935 -2.9388
  728MOL0     H98226   3.872  11.110   6.068 -1.7514  0.9218 -0.2870
  728MOL0     H98227   4.024  11.150   6.333  0.0183  1.1417  0.3643
  728MOL0     H98228   4.015  11.269   6.203  1.0286  0.0164 -0.7708
  728MOL0     H98229   4.124  10.992   6.140 -1.4762 -0.2012  2.8982
  728MOL0     H98230   4.122  11.148   6.051  0.7465  0.1190 -0.2108
  728MOL0     H98231   4.375  10.970   6.095 -0.6062  0.6279 -1.6766
  728MOL0     H98232   4.663  11.062   6.346  0.3086 -1.1881  0.1603
  728MOL0     H98233   4.613  10.928   6.251  1.4641  0.6400  1.0117
  728MOL0     H98234   4.773  11.024   6.105  0.3242  0.2497 -0.1407
  728MOL0     H98235   4.614  11.063   6.054 -0.9978  0.0446  0.7564
  728MOL0     H98236   4.806  11.265   6.195 -0.1255  0.0254  2.1129
  728MOL0     H98237   4.632  11.285   6.154  2.6658  3.2735  0.3472
  728MOL0     H98238   4.775  11.371   5.971 -1.9150 -0.5648 -0.8276
  728MOL0     H98239   4.664  11.242   5.925 -0.1851 -0.4447  1.1194
  728MOL0     H98240   5.037  10.994   5.929 -0.5136 -0.3920  1.3941
  728MOL0     H98241   5.264  11.019   5.981 -1.0356  0.2870 -1.6688
  728MOL0     H98242   5.639  11.195   6.234 -0.4705  2.0877 -0.6646
  728MOL0     H98243   5.896  11.208   6.233  0.1400 -2.2838  0.0545
  728MOL0     H98244   6.092  11.027   5.914  0.5226  0.6841 -0.7607
  728MOL0     H98245   6.224  11.094   5.997 -0.1568  1.9275 -0.6064
  728MOL0     H98246   6.026  10.913   6.146 -0.0343  0.8552  2.2640
  728MOL0     H98247   6.188  10.866   6.088 -1.6202 -0.7177 -1.9518
  728MOL0     H98248   6.104  11.075   6.306 -1.7939 -1.8292  0.8893
  728MOL0     H98249   6.155  10.922   6.326 -1.0279  1.2844  2.3058
  728MOL0     H98250   6.340  11.143   6.206  1.5575 -0.2224 -0.0089
  728MOL0     H98251   6.375  10.963   6.216 -1.3383 -0.7580  0.4993
  728MOL0     H98252   6.348  10.988   6.458  0.5897 -2.0586 -2.7389
  728MOL0     H98253   6.310  11.162   6.431  0.0336  0.9396  1.4050
  728MOL0     H98254   6.569  11.049   6.305 -1.0143  1.1881 -1.0935
  728MOL0     H98255   6.528  11.218   6.349 -1.5975  1.6162  0.1790
  728MOL0     H98256   6.697  11.072   6.493 -0.8562 -1.5221 -3.0389
  728MOL0     H98257   6.543  10.993   6.553 -1.6983  0.7780 -0.5174
  728MOL0     H98258   6.438  11.204   6.623  0.1581  0.9106  1.3120
  728MOL0     H98259   6.582  11.172   6.719  1.1977 -1.9809 -0.9494
  728MOL0     H98260   5.903  11.149   5.815 -2.4880  0.5117  0.0372
  728MOL0     H98261   5.652  11.128   5.817 -0.1275 -0.7011  0.6010
  728MOL0     H98262   5.215  11.432   6.107  2.4511 -0.5104 -0.2285
  728MOL0     H98263   4.973  11.413   6.065 -0.4602  0.8832 -2.0458
  728MOL0     H98264   3.614  10.490   6.246  0.6597  0.1682 -0.3053
  728MOL0     H98265   3.578  10.232   6.265  1.1329  0.5214  0.1695
  728MOL0     H98266   3.419   9.966   6.546 -0.1278  0.7493 -1.3097
  728MOL0     H98267   3.419   9.746   6.655  0.6934  0.6976 -0.3454
  728MOL0     H98268   3.464   9.532   6.678 -0.1001  1.2800  5.1267
  728MOL0     H98269   3.391   9.375   6.622  1.6062  0.8991  0.0607
  728MOL0     H98270   3.302   9.566   6.837  1.3829 -0.2517  1.1569
  728MOL0     H98271   3.404   9.432   6.878  1.1953  3.3261  0.0845
  728MOL0     H98272   3.210   9.315   6.913 -0.9778  2.5033  2.8313
  728MOL0     H98273   3.173   9.315   6.737 -0.5481 -0.5826  0.4458
  728MOL0     H98274   3.068   9.529   6.925 -0.3665 -0.8932  0.0936
  728MOL0     H98275   3.050   9.513   6.755 -0.5211  2.7262  1.3706
  728MOL0     H98276   2.793   9.223   6.964  0.1307 -0.0063 -0.4143
  728MOL0     H98277   3.168   9.604   6.355  0.0695 -0.6121  0.8785
  728MOL0     H98278   3.173   9.878   6.125 -0.8045 -0.2440  1.9338
  728MOL0     H98279   3.261   9.724   6.104 -1.3184  1.4482 -1.1359
  728MOL0     H98280   3.092   9.731   6.175  1.0737 -3.9387  1.8888
  729MOL0     O98281   3.297   8.458   6.426 -0.3057  0.4877  0.1906
  729MOL0     C98282   3.180   8.436   6.396  0.0050 -0.9362 -0.5680
  729MOL0     O98283   3.101   8.516   6.322 -0.0444 -0.1310  0.3335
  729MOL0     C98284   3.148   8.648   6.308  0.3702 -0.8973  0.0703
  729MOL0     C98285   3.065   8.754   6.362  0.1419  0.1471 -0.0021
  729MOL0     C98286   3.090   8.882   6.322 -0.5547  0.3820 -0.4029
  729MOL0     C98287   3.201   8.925   6.251  0.2804 -0.1653  0.6237
  729MOL0     O98288   3.220   9.057   6.202  0.8633  1.0628 -0.0538
  729MOL0     C98289   3.162   9.166   6.275 -0.8230  0.4455  0.6607
  729MOL0     C98290   3.218   9.301   6.220 -0.4585 -0.3038 -0.5558
  729MOL0     C98291   3.375   9.315   6.219 -0.3126 -0.0429  0.1837
  729MOL0     C98292   3.413   9.455   6.177 -0.7018  0.5342  0.3671
  729MOL0     C98293   3.554   9.457   6.112 -0.3151 -0.7628 -0.0839
  729MOL0     C98294   3.592   9.606   6.072 -0.2489  0.3947  0.3146
  729MOL0     C98295   3.706   9.606   5.972 -1.4511 -0.1700  0.6318
  729MOL0     C98296   3.827   9.530   6.020  0.2666 -0.3846  0.1383
  729MOL0     N98297   3.941   9.560   5.933  0.0901  0.7461  0.6691
  729MOL0     C98298   4.070   9.586   5.968  0.0647  0.1212 -0.1036
  729MOL0     C98299   4.124   9.630   5.857 -0.4824  0.1077 -0.1649
  729MOL0     C98300   4.263   9.688   5.848  0.1171 -0.6532 -0.3341
  729MOL0     C98301   4.372   9.584   5.812  0.2576  0.3143  0.9790
  729MOL0     C98302   4.510   9.632   5.830  0.2515  0.8446 -0.1441
  729MOL0     C98303   4.611   9.528   5.795 -0.6724 -0.0917  0.2332
  729MOL0     O98304   4.739   9.581   5.837  0.2175  0.1030 -0.7868
  729MOL0     C98305   4.855   9.525   5.777 -0.2870 -0.0685  0.3991
  729MOL0     C98306   4.982   9.585   5.817  0.7612 -0.3663  0.6225
  729MOL0     C98307   5.102   9.533   5.767 -0.9384  0.2543  0.1120
  729MOL0     C98308   5.104   9.410   5.694 -0.8991 -0.4386 -0.7179
  729MOL0     C98309   5.230   9.355   5.652  0.7236  0.0994  0.0193
  729MOL0     O98310   5.235   9.266   5.553 -0.2042  0.0712 -0.3884
  729MOL0     C98311   5.353   9.196   5.517  0.0551 -0.3506  0.7831
  729MOL0     C98312   5.462   9.174   5.593 -0.5463  0.3486 -0.7307
  729MOL0     C98313   5.579   9.120   5.548 -0.4498 -1.1098 -0.1353
  729MOL0     C98314   5.598   9.079   5.410  1.4594  0.3971 -0.0237
  729MOL0     O98315   5.706   9.025   5.346 -0.3395 -0.1151 -0.3522
  729MOL0     C98316   5.842   9.040   5.396  0.3719  0.1496  0.5622
  729MOL0     C98317   5.890   9.180   5.373  0.5084  0.8240 -0.4418
  729MOL0     C98318   6.043   9.182   5.404  0.5499 -0.5347  0.1363
  729MOL0     C98319   6.129   9.160   5.282 -1.1208  0.1369 -0.5791
  729MOL0     C98320   6.273   9.143   5.318  0.2113  0.8748  0.2082
  729MOL0     C98321   6.356   9.059   5.228  0.6721  0.0684  0.0253
  729MOL0     C98322   6.501   9.053   5.279  0.1797  0.8466  0.0792
  729MOL0     C98323   6.590   8.991   5.175 -0.6939 -1.0374 -0.2158
  729MOL0    Cl98324   6.563   8.812   5.176  0.1967  0.0576  0.1837
  729MOL0     C98325   5.475   9.089   5.338  0.4494 -0.5035  0.7801
  729MOL0     C98326   5.364   9.156   5.381 -0.3734  1.0060  0.4082
  729MOL0     O98327   5.325   9.403   5.707  0.0079 -0.6113  0.4059
  729MOL0     C98328   4.981   9.348   5.661 -0.6283 -0.3678  0.3189
  729MOL0     C98329   4.860   9.401   5.708 -0.5336 -0.6515  0.5895
  729MOL0     N98330   4.038   9.611   5.750  0.2539  0.3352  0.0943
  729MOL0     N98331   3.924   9.564   5.799 -0.0218 -0.7049 -0.1773
  729MOL0     C98332   3.289   8.828   6.212  0.3374  0.3788 -0.0603
  729MOL0     C98333   3.267   8.692   6.239  0.2520  0.4666 -0.0374
  729MOL0     C98334   3.110   8.321   6.458 -0.0735  0.0925 -0.6911
  729MOL0     C98335   2.973   8.331   6.471  0.3775 -0.1762  0.4162
  729MOL0     C98336   2.900   8.218   6.506  0.4956 -0.1253  0.5373
  729MOL0     C98337   2.959   8.097   6.543  0.1886  0.4822 -0.1994
  729MOL0     O98338   2.894   7.991   6.598 -0.2268 -0.2772 -0.3002
  729MOL0     C98339   2.762   8.010   6.639  0.3207 -0.4184  0.1037
  729MOL0     C98340   2.728   7.897   6.736  0.0946  0.2320 -0.1470
  729MOL0     C98341   2.593   7.845   6.687 -0.1860 -0.2190 -0.0603
  729MOL0     C98342   2.536   7.732   6.773  0.0784 -0.4792 -0.1071
  729MOL0     C98343   2.504   7.791   6.900  1.3050  0.2363 -0.1874
  729MOL0     C98344   2.481   7.846   7.003 -0.7319 -1.0968 -0.6877
  729MOL0     C98345   3.100   8.096   6.529  0.4997  0.4258  1.0423
  729MOL0     C98346   3.175   8.201   6.496 -0.5091 -0.5731  0.7759
  729MOL0     C98347   3.332   8.178   6.503  0.1210 -0.4007 -0.1166
  729MOL0     H98348   2.975   8.735   6.421 -0.6065  0.4795 -1.0191
  729MOL0     H98349   3.028   8.960   6.366 -2.3208 -2.7553  3.2555
  729MOL0     H98350   3.054   9.164   6.257 -1.0895 -0.2439  2.1697
  729MOL0     H98351   3.183   9.159   6.382 -0.5047  0.4457  0.5981
  729MOL0     H98352   3.180   9.374   6.293  1.8697 -1.4779  1.9997
  729MOL0     H98353   3.170   9.305   6.122 -1.2013 -0.8490 -0.2290
  729MOL0     H98354   3.419   9.240   6.152  0.9774 -0.1974  1.1635
  729MOL0     H98355   3.421   9.292   6.316  1.0180 -1.4350 -0.7224
  729MOL0     H98356   3.342   9.480   6.098  0.2566 -2.3361 -1.5442
  729MOL0     H98357   3.419   9.528   6.259  1.4644 -0.8371  1.5320
  729MOL0     H98358   3.628   9.408   6.175  0.8738  0.8439 -0.1455
  729MOL0     H98359   3.542   9.397   6.021  0.2184  1.5141 -1.7699
  729MOL0     H98360   3.509   9.658   6.023  0.4182  1.5492  0.3846
  729MOL0     H98361   3.625   9.662   6.160  0.1196  0.3162  0.2264
  729MOL0     H98362   3.724   9.711   5.947 -1.3845 -0.0024  1.3561
  729MOL0     H98363   3.675   9.572   5.872  0.3551 -1.3871  0.4423
  729MOL0     H98364   3.846   9.570   6.120 -0.0333 -0.3394  0.1785
  729MOL0     H98365   3.812   9.422   6.029 -0.7869 -0.1449  1.8541
  729MOL0     H98366   4.116   9.577   6.066 -0.1313  1.5911  0.1523
  729MOL0     H98367   4.261   9.761   5.767  0.0913 -0.0846  0.1784
  729MOL0     H98368   4.292   9.734   5.943 -0.4057 -1.1615  0.0750
  729MOL0     H98369   4.348   9.500   5.877  0.7732 -2.2570 -1.9059
  729MOL0     H98370   4.354   9.547   5.710 -2.6872 -1.4947  2.0291
  729MOL0     H98371   4.507   9.641   5.939 -2.4981  1.3063 -0.1868
  729MOL0     H98372   4.528   9.719   5.766  0.8770 -1.7207 -3.8013
  729MOL0     H98373   4.603   9.503   5.689 -1.2515 -0.6194  0.3926
  729MOL0     H98374   4.597   9.430   5.841  2.7909 -1.9364 -2.2232
  729MOL0     H98375   4.982   9.676   5.877 -2.4208  0.3871 -0.3168
  729MOL0     H98376   5.191   9.592   5.787 -0.9938 -0.5317  3.0120
  729MOL0     H98377   5.454   9.210   5.694  0.5230  0.8568 -0.8183
  729MOL0     H98378   5.661   9.099   5.616 -0.3876 -0.1015  0.1137
  729MOL0     H98379   5.845   9.010   5.501 -0.0242  2.2219  1.2007
  729MOL0     H98380   5.907   8.983   5.329 -0.7936 -0.1146 -0.3885
  729MOL0     H98381   5.866   9.212   5.271  0.2501 -3.0359 -1.7571
  729MOL0     H98382   5.836   9.245   5.442  1.0141  1.3391 -0.5205
  729MOL0     H98383   6.062   9.282   5.442 -3.3217  1.1751 -1.8911
  729MOL0     H98384   6.067   9.107   5.480 -2.3461 -1.4997  0.2334
  729MOL0     H98385   6.120   9.251   5.221 -2.8389  0.1670 -0.3233
  729MOL0     H98386   6.089   9.078   5.222 -4.7673 -0.8943  2.8694
  729MOL0     H98387   6.275   9.101   5.419 -0.0109  2.4051  0.8815
  729MOL0     H98388   6.325   9.239   5.321  1.6197  0.1573 -0.0216
  729MOL0     H98389   6.305   8.963   5.212 -0.0934  0.6109 -0.9125
  729MOL0     H98390   6.353   9.103   5.128 -1.7174  3.8558  1.5483
  729MOL0     H98391   6.514   9.004   5.376  2.1024 -0.4954 -0.7766
  729MOL0     H98392   6.540   9.153   5.300  1.0294  0.3637  0.8814
  729MOL0     H98393   6.558   9.022   5.075 -0.7164 -0.0560  0.0850
  729MOL0     H98394   6.696   9.019   5.181 -1.0050  0.3520 -0.8715
  729MOL0     H98395   5.488   9.064   5.233  1.6659 -1.8646  1.2195
  729MOL0     H98396   5.276   9.173   5.320  0.0374  0.0638 -0.4698
  729MOL0     H98397   4.980   9.254   5.608 -2.1850  0.0344 -0.4151
  729MOL0     H98398   4.771   9.342   5.688  0.2912 -1.3919 -1.1185
  729MOL0     H98399   3.374   8.860   6.153  0.3694  3.8172  1.6287
  729MOL0     H98400   3.337   8.619   6.199  0.9431  1.8348 -1.4355
  729MOL0     H98401   2.920   8.425   6.457  2.1345  0.9720  1.2003
  729MOL0     H98402   2.793   8.233   6.517  0.5020  0.3916 -0.0471
  729MOL0     H98403   2.691   8.023   6.556 -1.2089  0.3278  1.4617
  729MOL0     H98404   2.751   8.107   6.687  2.3334  2.0976 -3.9856
  729MOL0     H98405   2.729   7.931   6.840 -2.2603 -0.2459  0.1024
  729MOL0     H98406   2.814   7.829   6.736  1.4970  1.9386 -1.6649
  729MOL0     H98407   2.621   7.800   6.591  1.9426 -0.0138  0.4287
  729MOL0     H98408   2.520   7.926   6.679  0.5491  0.4087 -0.4126
  729MOL0     H98409   2.444   7.699   6.725  0.5612  1.3490 -2.4279
  729MOL0     H98410   2.611   7.653   6.784  1.1362  0.4423 -0.4877
  729MOL0     H98411   2.450   7.889   7.097  0.1639 -2.3881  0.2253
  729MOL0     H98412   3.131   7.992   6.537 -1.9694 -0.5167 -0.4625
  729MOL0     H98413   3.391   8.237   6.575 -2.2803  1.0312  0.8030
  729MOL0     H98414   3.345   8.078   6.546 -1.4776  0.4727  2.6818
  729MOL0     H98415   3.382   8.192   6.407  1.1099 -0.6509  0.3558
  730MOL0     O98416   7.694   7.017  10.702  0.3890 -0.1060  0.5490
  730MOL0     C98417   7.740   6.932  10.772 -0.4404  0.6051 -1.0157
  730MOL0     O98418   7.868   6.879  10.758 -0.2076  0.0061 -0.3273
  730MOL0     C98419   7.923   6.862  10.634 -0.6454  0.7615  0.7709
  730MOL0     C98420   8.060   6.891  10.603  0.5368  0.1367 -0.1659
  730MOL0     C98421   8.108   6.866  10.466 -0.3073  0.6592 -0.4853
  730MOL0     C98422   8.031   6.794  10.374 -0.0630  0.2103  0.8344
  730MOL0     O98423   8.075   6.754  10.249  0.4661  0.0838 -0.4459
  730MOL0     C98424   8.199   6.808  10.202 -0.1243 -0.0380 -0.2927
  730MOL0     C98425   8.233   6.726  10.091 -0.0265  0.2909  0.2214
  730MOL0     C98426   8.350   6.777  10.002  0.1810  0.2426 -0.2726
  730MOL0     C98427   8.428   6.658   9.938 -0.6837  0.1969  0.3429
  730MOL0     C98428   8.544   6.705   9.852  0.1992  0.1429  0.5151
  730MOL0     C98429   8.628   6.578   9.808 -0.3177 -0.3994  0.7049
  730MOL0     C98430   8.745   6.614   9.723 -0.5185  0.2403  0.7393
  730MOL0     C98431   8.853   6.703   9.783 -0.7069 -0.2280 -0.5800
  730MOL0     N98432   8.929   6.642   9.897  0.3650  0.0916  0.2212
  730MOL0     C98433   8.943   6.710  10.007  0.0817  0.1744  0.3768
  730MOL0     C98434   9.036   6.649  10.077  0.2961  1.0646  0.1029
  730MOL0     C98435   9.086   6.694  10.208 -0.4092  0.2800 -0.1666
  730MOL0     C98436   9.226   6.752  10.198  0.4445  0.2566  1.3480
  730MOL0     C98437   9.268   6.800  10.336  0.1898  0.3142  0.2984
  730MOL0     C98438   9.410   6.853  10.316 -0.1158 -0.1486  0.3582
  730MOL0     O98439   9.502   6.748  10.266  0.3411 -0.2595  0.4217
  730MOL0     C98440   9.627   6.776  10.242 -0.4499  0.0028 -0.7253
  730MOL0     C98441   9.706   6.669  10.192  0.3064 -0.2546  0.2376
  730MOL0     C98442   9.840   6.695  10.175  0.0518  0.6660 -0.7616
  730MOL0     C98443   9.901   6.825  10.183 -0.0621 -0.4951  1.0791
  730MOL0     C98444  10.040   6.848  10.144  0.1349 -0.0046  0.6006
  730MOL0     O98445  10.105   6.730  10.113 -0.4248  0.1761 -0.5043
  730MOL0     C98446  10.235   6.742  10.087  0.0622 -0.0288 -0.4386
  730MOL0     C98447  10.283   6.762   9.955 -0.1714 -0.1277  0.3747
  730MOL0     C98448  10.418   6.764   9.935  0.4330 -0.5167  0.5434
  730MOL0     C98449  10.511   6.753  10.037  0.5241 -0.4418  0.4354
  730MOL0     O98450  10.643   6.763  10.010  0.1842  0.0211  0.1760
  730MOL0     C98451  10.705   6.878  10.067 -0.4159 -1.2608  0.2052
  730MOL0     C98452  10.818   6.911   9.966  0.3488  0.8094 -0.0783
  730MOL0     C98453  10.914   7.023  10.014  0.4302 -0.2639 -0.5670
  730MOL0     C98454  11.006   7.067   9.906 -0.3876  1.2087 -0.3856
  730MOL0     C98455  11.108   7.163   9.945  0.4663  0.3046  0.0009
  730MOL0     C98456  11.216   7.195   9.840 -0.8794  0.7177 -0.8475
  730MOL0     C98457  11.315   7.297   9.885  0.0052  0.6435  0.0063
  730MOL0     C98458  11.434   7.302   9.799 -0.3195 -0.6824  1.2166
  730MOL0    Cl98459  11.519   7.145   9.813  0.1528 -0.1770 -0.0226
  730MOL0     C98460  10.472   6.738  10.167  0.7866  0.7585 -0.1773
  730MOL0     C98461  10.331   6.725  10.190  0.6397  0.6041 -0.0227
  730MOL0     O98462  10.092   6.959  10.132 -0.0477 -0.1661 -0.3858
  730MOL0     C98463   9.815   6.937  10.221  0.4960 -0.5897 -0.5052
  730MOL0     C98464   9.677   6.905  10.251 -1.2850  0.4984  0.3417
  730MOL0     N98465   9.075   6.530  10.013 -0.2416 -0.7438  0.2581
  730MOL0     N98466   9.012   6.534   9.900 -0.0730 -0.3279  0.1347
  730MOL0     C98467   7.903   6.757  10.408 -0.2252 -0.1688 -0.5190
  730MOL0     C98468   7.848   6.794  10.532  0.3284 -0.4609 -1.5644
  730MOL0     C98469   7.659   6.885  10.896 -0.9183  0.3953 -0.8127
  730MOL0     C98470   7.739   6.815  10.995 -1.5040  0.1340 -0.1647
  730MOL0     C98471   7.692   6.786  11.115  0.5457  0.4392 -0.2624
  730MOL0     C98472   7.555   6.810  11.154 -1.0004  0.4243  1.2164
  730MOL0     O98473   7.515   6.776  11.279 -0.4430 -0.5630  0.6728
  730MOL0     C98474   7.373   6.744  11.285 -0.2581  0.2449  0.4640
  730MOL0     C98475   7.354   6.707  11.431 -1.0635 -0.5826  0.2826
  730MOL0     C98476   7.207   6.715  11.478  0.3482  0.2184  0.2027
  730MOL0     C98477   7.125   6.600  11.410  1.0134  0.3460  0.2627
  730MOL0     C98478   7.077   6.619  11.274 -1.0659 -0.4427 -0.2664
  730MOL0     C98479   7.040   6.627  11.162  0.3870 -0.3215  0.6460
  730MOL0     C98480   7.479   6.879  11.060  0.8092 -0.7614  0.3856
  730MOL0     C98481   7.532   6.918  10.931  1.2536 -0.4520 -0.6305
  730MOL0     C98482   7.437   7.001  10.840  0.0593  0.2876  0.2798
  730MOL0     H98483   8.120   6.937  10.680 -2.3649  0.7354  1.9025
  730MOL0     H98484   8.210   6.896  10.442 -0.3724  1.2329 -0.0709
  730MOL0     H98485   8.186   6.912  10.168  0.2901 -0.0067 -0.3639
  730MOL0     H98486   8.280   6.802  10.275  0.3687  2.2189 -0.5508
  730MOL0     H98487   8.143   6.710  10.030 -0.4725 -1.2730  1.2355
  730MOL0     H98488   8.261   6.628  10.129 -0.9480  0.3480  1.0839
  730MOL0     H98489   8.425   6.834  10.057 -0.2656  1.1161 -0.5452
  730MOL0     H98490   8.306   6.837   9.921 -0.1885  1.8212  1.0356
  730MOL0     H98491   8.468   6.600  10.022  1.9917  1.3565 -0.0372
  730MOL0     H98492   8.358   6.599   9.879 -1.0713  0.8568  0.1365
  730MOL0     H98493   8.514   6.764   9.765 -1.7914 -2.1337 -0.4556
  730MOL0     H98494   8.605   6.767   9.918  0.2426 -0.6767  1.2707
  730MOL0     H98495   8.676   6.531   9.894  1.2671  0.6451  0.4216
  730MOL0     H98496   8.561   6.507   9.758  0.2064 -2.8176  3.1802
  730MOL0     H98497   8.711   6.651   9.626  1.1370  2.7027  0.9874
  730MOL0     H98498   8.789   6.516   9.704 -1.4980 -0.1017  0.1583
  730MOL0     H98499   8.925   6.712   9.701  0.4457 -0.0174  0.4437
  730MOL0     H98500   8.819   6.803   9.812 -0.9986 -0.8962  1.4833
  730MOL0     H98501   8.898   6.806  10.029  1.0906  0.5015  1.1243
  730MOL0     H98502   9.023   6.775  10.246  1.2897  1.3172  0.5544
  730MOL0     H98503   9.086   6.607  10.274  6.0997 -1.8024 -2.1142
  730MOL0     H98504   9.290   6.671  10.162  1.7392  0.6549  2.6225
  730MOL0     H98505   9.226   6.827  10.118  1.2311 -2.1246 -1.0286
  730MOL0     H98506   9.271   6.714  10.403  0.4873 -1.3685 -1.7581
  730MOL0     H98507   9.202   6.873  10.383 -0.6020  0.2193 -0.6465
  730MOL0     H98508   9.447   6.900  10.408 -3.1323  0.8982  1.1489
  730MOL0     H98509   9.415   6.941  10.250 -1.6775 -0.5249 -0.3066
  730MOL0     H98510   9.650   6.576  10.191 -0.9130  0.4522  0.4628
  730MOL0     H98511   9.895   6.606  10.147 -0.7833  0.5408 -2.0857
  730MOL0     H98512  10.218   6.785   9.871  1.1015 -0.4051 -0.7290
  730MOL0     H98513  10.457   6.784   9.836  2.0078  1.0273  1.4113
  730MOL0     H98514  10.644   6.968  10.075 -1.1626 -1.8834  1.7780
  730MOL0     H98515  10.740   6.849  10.166  2.2419  0.9273  0.0294
  730MOL0     H98516  10.882   6.825   9.945  0.5369  1.2903 -1.5965
  730MOL0     H98517  10.775   6.941   9.870  1.0274 -0.2545 -0.7294
  730MOL0     H98518  10.861   7.113  10.045 -0.5824  0.0957 -3.0454
  730MOL0     H98519  10.961   6.996  10.109 -0.0592  2.8131  0.6488
  730MOL0     H98520  10.944   7.115   9.831  1.9963  2.5323 -1.6192
  730MOL0     H98521  11.056   6.981   9.860  0.9335  1.1514  1.0477
  730MOL0     H98522  11.150   7.121  10.037 -2.6906  0.2165  1.5379
  730MOL0     H98523  11.056   7.252   9.983 -0.0239 -0.4015  1.0235
  730MOL0     H98524  11.265   7.098   9.825 -0.2411  1.2719 -2.5283
  730MOL0     H98525  11.167   7.228   9.748 -1.6922 -0.3035 -0.8049
  730MOL0     H98526  11.346   7.272   9.987 -3.0756 -0.3452  0.7858
  730MOL0     H98527  11.254   7.387   9.897 -1.1199 -0.2975  1.8284
  730MOL0     H98528  11.397   7.319   9.697  1.6055 -2.6212  0.1294
  730MOL0     H98529  11.491   7.388   9.836 -0.7822  0.0601  0.2494
  730MOL0     H98530  10.542   6.736  10.249  0.8215  1.1142 -0.1947
  730MOL0     H98531  10.292   6.712  10.290 -1.0527  0.3312 -0.6892
  730MOL0     H98532   9.864   7.034  10.215 -0.2841 -0.2296 -1.2365
  730MOL0     H98533   9.622   6.988  10.294 -0.5508  1.4317 -0.4547
  730MOL0     H98534   7.839   6.699  10.343 -0.0534  0.6915 -1.4902
  730MOL0     H98535   7.749   6.770  10.569  0.8268  1.2297  1.2069
  730MOL0     H98536   7.837   6.779  10.967  0.2687  2.7520  2.1053
  730MOL0     H98537   7.750   6.749  11.199  1.3120 -0.1713 -1.0332
  730MOL0     H98538   7.349   6.663  11.216  1.6677 -0.4138  0.5108
  730MOL0     H98539   7.304   6.826  11.262 -0.3797 -0.5510 -2.3132
  730MOL0     H98540   7.418   6.773  11.491 -2.0540 -0.1720  0.9180
  730MOL0     H98541   7.381   6.603  11.451  0.1780 -0.2716  0.3194
  730MOL0     H98542   7.167   6.815  11.460  0.4898  0.4062  0.8977
  730MOL0     H98543   7.201   6.702  11.586  2.4814  0.4378  0.3944
  730MOL0     H98544   7.183   6.507  11.412 -0.8157 -0.8936 -0.7493
  730MOL0     H98545   7.037   6.586  11.474  2.1242 -0.0189  1.7556
  730MOL0     H98546   7.004   6.639  11.062 -0.7188  3.4016  1.3490
  730MOL0     H98547   7.373   6.897  11.076  0.0497 -1.3879 -3.1054
  730MOL0     H98548   7.438   6.980  10.733 -1.9450  2.6074 -0.2797
  730MOL0     H98549   7.336   7.007  10.882 -0.9404  0.7364 -2.0741
  730MOL0     H98550   7.466   7.107  10.848 -0.9267  0.5465  0.5576
  731MOL0     O98551   7.533  10.873   5.562 -0.0908  0.6411 -0.6913
  731MOL0     C98552   7.458  10.774   5.582 -0.4239  0.7963  0.1087
  731MOL0     O98553   7.502  10.644   5.580 -0.8327  0.4831  0.1295
  731MOL0     C98554   7.640  10.621   5.543 -0.0128  0.3174 -0.7352
  731MOL0     C98555   7.693  10.681   5.424  0.1229 -1.1316 -0.5687
  731MOL0     C98556   7.827  10.650   5.392 -0.5928 -0.7661 -0.5015
  731MOL0     C98557   7.909  10.563   5.468  0.4606 -0.0434 -0.3129
  731MOL0     O98558   8.034  10.542   5.425  0.2465 -0.8730  0.2853
  731MOL0     C98559   8.134  10.484   5.510  0.6176  0.4037  0.4409
  731MOL0     C98560   8.241  10.406   5.435 -0.5591  0.8017 -0.1497
  731MOL0     C98561   8.355  10.348   5.522 -0.3120 -0.0300  0.8065
  731MOL0     C98562   8.462  10.267   5.444  0.1293  0.1960  0.0266
  731MOL0     C98563   8.598  10.235   5.516  0.0904 -0.8344 -0.6499
  731MOL0     C98564   8.692  10.133   5.438 -0.7137 -0.2125 -0.0912
  731MOL0     C98565   8.838  10.141   5.511  0.1975 -0.9104  0.5289
  731MOL0     C98566   8.844  10.037   5.625 -0.5800 -0.3027 -1.0227
  731MOL0     N98567   8.964  10.049   5.705  0.3091  0.2186 -0.1098
  731MOL0     C98568   9.081  10.001   5.672  0.1230  0.7508  0.2549
  731MOL0     C98569   9.155   9.996   5.784 -0.1826  0.0907  0.1250
  731MOL0     C98570   9.297   9.942   5.804  0.0031  0.2440 -0.6240
  731MOL0     C98571   9.390  10.058   5.827 -0.1608  0.7824 -0.8072
  731MOL0     C98572   9.513  10.017   5.908  0.4241  0.4093 -0.8036
  731MOL0     C98573   9.614  10.128   5.925  0.0261 -0.1899  1.0113
  731MOL0     O98574   9.688  10.151   5.804  0.2397 -0.1718 -0.2867
  731MOL0     C98575   9.788  10.242   5.803  0.6180 -0.0510  0.8536
  731MOL0     C98576   9.839  10.310   5.913 -0.3051 -0.1974 -1.7556
  731MOL0     C98577   9.955  10.392   5.894 -0.3458  0.1911 -0.5142
  731MOL0     C98578  10.019  10.409   5.766  1.0462 -0.3016  0.3630
  731MOL0     C98579  10.141  10.494   5.761  0.2064  0.3677 -0.2294
  731MOL0     O98580  10.193  10.513   5.640  0.2353 -0.9259 -0.2737
  731MOL0     C98581  10.305  10.592   5.628 -0.2470 -0.2471 -0.8462
  731MOL0     C98582  10.312  10.698   5.539  0.7779 -0.6242 -0.0296
  731MOL0     C98583  10.425  10.786   5.536  0.2046  0.1983  1.3054
  731MOL0     C98584  10.545  10.758   5.606  0.9084  0.0899 -0.2538
  731MOL0     O98585  10.654  10.834   5.596  0.4707  0.0360 -0.3631
  731MOL0     C98586  10.639  10.967   5.551 -0.0423  0.3879  0.3250
  731MOL0     C98587  10.765  11.043   5.576 -0.7255  0.0061 -0.0953
  731MOL0     C98588  10.805  11.052   5.723  0.1764  0.2204 -0.0666
  731MOL0     C98589  10.954  11.091   5.746  0.1341 -1.0406 -0.6238
  731MOL0     C98590  10.981  11.233   5.702  0.4186 -0.1181  0.0422
  731MOL0     C98591  11.102  11.289   5.775 -0.0292 -0.4159 -1.1077
  731MOL0     C98592  11.133  11.438   5.751  0.1170 -0.2014 -0.4754
  731MOL0     C98593  11.173  11.470   5.605 -0.0278  0.3194  0.9644
  731MOL0    Cl98594  11.181  11.642   5.576  0.1309  0.2622 -0.1688
  731MOL0     C98595  10.542  10.644   5.692 -0.8153  0.3190 -0.2099
  731MOL0     C98596  10.425  10.562   5.697 -0.2599 -0.8999 -0.0681
  731MOL0     O98597  10.174  10.554   5.864  0.0205 -0.0297  0.5008
  731MOL0     C98598   9.955  10.349   5.659  0.3514 -0.3829 -0.0780
  731MOL0     C98599   9.847  10.263   5.684 -1.1832  0.7723 -0.5030
  731MOL0     N98600   9.073  10.034   5.888 -0.4625 -0.3052  0.4878
  731MOL0     N98601   8.958  10.068   5.839  0.4272 -0.0045  0.6444
  731MOL0     C98602   7.845  10.501   5.586 -0.4056  0.7943 -0.2478
  731MOL0     C98603   7.718  10.530   5.622  0.2308  0.0127 -0.0150
  731MOL0     C98604   7.317  10.792   5.623 -0.6517 -0.1714 -0.8635
  731MOL0     C98605   7.268  10.688   5.710  0.6084  0.4075  0.3649
  731MOL0     C98606   7.134  10.697   5.743 -0.3499 -0.4225 -0.6345
  731MOL0     C98607   7.051  10.808   5.698 -0.5768  0.9640 -0.4825
  731MOL0     O98608   6.932  10.821   5.752  0.2693 -0.5221 -0.1291
  731MOL0     C98609   6.921  10.897   5.872 -0.4791  0.1676 -0.2597
  731MOL0     C98610   6.791  10.890   5.941  0.4020  0.0586  0.3794
  731MOL0     C98611   6.680  10.946   5.863  1.5291  0.4110 -0.3644
  731MOL0     C98612   6.538  10.928   5.936 -0.1847  0.7618  0.1785
  731MOL0     C98613   6.507  10.784   5.949 -0.2277  0.6723 -0.6058
  731MOL0     C98614   6.468  10.671   5.937  0.1918  0.7179 -1.1763
  731MOL0     C98615   7.107  10.913   5.619 -0.3132 -0.2651 -0.1610
  731MOL0     C98616   7.238  10.910   5.582  0.0606  0.1402 -0.4070
  731MOL0     C98617   7.289  11.021   5.511  1.0666 -0.0639  1.2281
  731MOL0     H98618   7.639  10.746   5.356 -0.9418 -0.2348  1.0504
  731MOL0     H98619   7.867  10.693   5.301  0.2321 -0.1039  0.1506
  731MOL0     H98620   8.186  10.559   5.571  0.8654  0.9790 -0.4482
  731MOL0     H98621   8.092  10.407   5.576  1.2562 -0.9051 -0.6382
  731MOL0     H98622   8.283  10.454   5.346  0.2592  1.0874  0.3775
  731MOL0     H98623   8.185  10.316   5.410 -2.0402  0.3140  4.1404
  731MOL0     H98624   8.313  10.269   5.584  2.0514  0.2022  2.8652
  731MOL0     H98625   8.393  10.421   5.594 -0.4589 -0.9534  1.8444
  731MOL0     H98626   8.420  10.173   5.406  0.4638 -0.0181  0.1724
  731MOL0     H98627   8.497  10.329   5.361  1.0227  2.8349  2.2330
  731MOL0     H98628   8.663  10.320   5.539 -0.8110 -0.4056  0.3601
  731MOL0     H98629   8.585  10.188   5.614 -0.9015 -0.6094 -0.6683
  731MOL0     H98630   8.658  10.030   5.439  0.0104 -0.4693  1.2011
  731MOL0     H98631   8.686  10.160   5.333 -2.5828 -0.6684 -0.1213
  731MOL0     H98632   8.863  10.240   5.551 -1.6148  0.3510 -1.2525
  731MOL0     H98633   8.914  10.104   5.442  2.1616 -0.2464  2.2194
  731MOL0     H98634   8.763  10.068   5.692  0.6379 -0.2092  0.4575
  731MOL0     H98635   8.822   9.937   5.588  0.1585 -0.6226 -0.6118
  731MOL0     H98636   9.109   9.966   5.573  0.8500  0.3515  0.5958
  731MOL0     H98637   9.307   9.871   5.886  0.6388 -0.3368 -1.1959
  731MOL0     H98638   9.321   9.890   5.711 -2.1875  1.7818 -2.1455
  731MOL0     H98639   9.428  10.099   5.733 -0.6165  1.8249 -0.5567
  731MOL0     H98640   9.339  10.134   5.888  1.5564 -0.9625  3.1812
  731MOL0     H98641   9.560   9.931   5.860  0.7911 -0.3276  0.8050
  731MOL0     H98642   9.466   9.982   6.000  0.9170  1.3738 -0.1707
  731MOL0     H98643   9.681  10.099   6.006  0.2873 -0.6569  0.6325
  731MOL0     H98644   9.560  10.220   5.950 -2.4508 -0.7755 -1.6392
  731MOL0     H98645   9.800  10.308   6.015  3.2884  2.4399 -0.1045
  731MOL0     H98646   9.996  10.441   5.982 -2.7436 -0.5792  1.1235
  731MOL0     H98647  10.216  10.714   5.491  0.7311  1.0019  0.5602
  731MOL0     H98648  10.417  10.869   5.468 -0.2212 -0.2036  0.8546
  731MOL0     H98649  10.620  10.966   5.444 -0.8471 -0.6301  0.4641
  731MOL0     H98650  10.561  11.019   5.608 -2.0177 -0.9304 -1.0643
  731MOL0     H98651  10.844  10.988   5.525 -0.8409 -1.1826  0.9609
  731MOL0     H98652  10.749  11.140   5.528 -0.8362 -0.3465 -0.7914
  731MOL0     H98653  10.750  11.129   5.779 -0.6773 -1.5376  1.6390
  731MOL0     H98654  10.785  10.957   5.774 -1.8257 -0.3223 -1.7580
  731MOL0     H98655  11.014  11.021   5.688 -1.2316 -1.9258 -1.0182
  731MOL0     H98656  10.966  11.079   5.854 -2.8841 -4.5075 -0.4768
  731MOL0     H98657  10.893  11.293   5.723 -0.0970 -1.1999  1.0850
  731MOL0     H98658  10.997  11.230   5.593 -3.7222 -1.9635 -0.7266
  731MOL0     H98659  11.087  11.271   5.882  2.9201 -0.2105 -0.5910
  731MOL0     H98660  11.184  11.224   5.743 -1.5237 -1.5707 -2.8232
  731MOL0     H98661  11.212  11.471   5.819 -0.1220  1.4617 -0.9598
  731MOL0     H98662  11.046  11.500   5.773  0.4545  0.4458 -0.9534
  731MOL0     H98663  11.264  11.413   5.586 -0.3849 -0.7689  2.3378
  731MOL0     H98664  11.096  11.439   5.534 -0.9561  2.2125  1.0793
  731MOL0     H98665  10.623  10.613   5.758 -1.6739 -1.1011  0.2265
  731MOL0     H98666  10.413  10.481   5.768  1.3220 -0.7113  0.4553
  731MOL0     H98667   9.985  10.368   5.557 -0.1271  0.1430 -0.1235
  731MOL0     H98668   9.806  10.213   5.597 -0.4273  0.6965 -0.8309
  731MOL0     H98669   7.909  10.430   5.638 -0.1394  0.1769 -1.3686
  731MOL0     H98670   7.658  10.476   5.695 -0.3500 -0.6107 -0.9213
  731MOL0     H98671   7.327  10.600   5.732  0.5428  0.7077  1.8115
  731MOL0     H98672   7.088  10.625   5.810  1.8877 -2.3005 -0.9922
  731MOL0     H98673   6.946  11.002   5.852 -2.7634  0.4658 -1.9708
  731MOL0     H98674   6.998  10.856   5.938 -0.1191 -1.0497 -1.3817
  731MOL0     H98675   6.815  10.947   6.031  0.4019 -0.7410  0.9001
  731MOL0     H98676   6.778  10.788   5.979  1.0521  0.5500  2.0290
  731MOL0     H98677   6.679  10.908   5.761 -1.6148  1.0004 -0.6547
  731MOL0     H98678   6.702  11.053   5.855 -1.7088  1.1777 -0.3478
  731MOL0     H98679   6.532  10.971   6.036 -2.4039 -1.2570  1.0221
  731MOL0     H98680   6.461  10.972   5.873  0.0460 -2.7932 -3.0174
  731MOL0     H98681   6.437  10.570   5.918  1.6117  0.0061  0.0484
  731MOL0     H98682   7.036  10.993   5.598 -1.1703 -1.2963 -1.3224
  731MOL0     H98683   7.338  10.985   5.420  2.5534  0.7578  1.6671
  731MOL0     H98684   7.219  11.101   5.484  0.9464 -0.6964 -0.4709
  731MOL0     H98685   7.368  11.063   5.575  3.2344 -1.6786 -0.2478
  732MOL0     O98686   7.529   0.229   4.640  0.8495 -0.4825 -0.5324
  732MOL0     C98687   7.495   0.111   4.644 -0.4607 -0.0124  0.2896
  732MOL0     O98688   7.562   0.009   4.595 -0.9643 -0.2289 -0.1276
  732MOL0     C98689   7.687   0.027   4.534  1.1466  0.0155 -0.5064
  732MOL0     C98690   7.689   0.059   4.399  0.1402 -0.4031 -0.1786
  732MOL0     C98691   7.815   0.101   4.348 -0.1244  0.2934 -0.5952
  732MOL0     C98692   7.935   0.089   4.416  0.1232  1.1827 -1.4535
  732MOL0     O98693   8.055   0.127   4.362 -0.6103  0.0045  0.6772
  732MOL0     C98694   8.088   0.078   4.232  0.1388 -0.8982 -0.1687
  732MOL0     C98695   8.229   0.128   4.195  0.0393 -0.5737  0.6504
  732MOL0     C98696   8.280   0.063   4.069 -0.5467 -0.2743  0.7981
  732MOL0     C98697   8.428   0.112   4.025  0.2465  0.5357  0.2884
  732MOL0     C98698   8.536   0.084   4.129 -1.3020 -0.6382  0.4887
  732MOL0     C98699   8.678   0.118   4.075 -0.3580  0.8896 -0.1877
  732MOL0     C98700   8.775   0.114   4.202  0.5721 -0.1471 -0.0078
  732MOL0     C98701   8.911   0.178   4.170  0.0604  0.0502  0.1166
  732MOL0     N98702   9.001   0.089   4.105  0.0648 -0.1717  0.6148
  732MOL0     C98703   9.113   0.033   4.167 -0.2133  0.2026  0.5789
  732MOL0     C98704   9.186  -0.016   4.064  0.3760 -0.2492 -0.0890
  732MOL0     C98705   9.314  -0.092   4.075  0.0478 -0.3340 -1.0196
  732MOL0     C98706   9.418  -0.026   4.169  0.5955 -0.3912  0.4626
  732MOL0     C98707   9.548  -0.106   4.200 -0.0760 -0.1856  1.0795
  732MOL0     C98708   9.595  -0.186   4.083  0.4069  0.5393  1.5031
  732MOL0     O98709   9.696  -0.287   4.108 -0.8841 -0.5705  0.1378
  732MOL0     C98710   9.831  -0.267   4.092  0.2627  0.6045  0.4041
  732MOL0     C98711   9.914  -0.383   4.061 -1.6076 -0.3173 -0.0853
  732MOL0     C98712  10.053  -0.369   4.051 -0.3688  0.2359 -0.2061
  732MOL0     C98713  10.115  -0.249   4.090 -0.2046  0.0229  0.0586
  732MOL0     C98714  10.260  -0.260   4.125  0.1225 -0.0476 -0.0504
  732MOL0     O98715  10.302  -0.163   4.211  0.8019 -0.3681  0.4153
  732MOL0     C98716  10.431  -0.161   4.254  0.6618 -0.3290 -0.8092
  732MOL0     C98717  10.543  -0.169   4.164  0.3525 -0.3868  0.5510
  732MOL0     C98718  10.670  -0.184   4.216  0.0477  0.4838 -0.0617
  732MOL0     C98719  10.696  -0.172   4.353 -0.3421  0.2083  0.2104
  732MOL0     O98720  10.823  -0.204   4.397  0.1167  0.0305  0.6050
  732MOL0     C98721  10.942  -0.151   4.335 -0.0687  0.4221 -0.2887
  732MOL0     C98722  11.063  -0.191   4.416 -0.7422  0.8291  0.1623
  732MOL0     C98723  11.194  -0.178   4.343  0.6123  0.0850 -0.7327
  732MOL0     C98724  11.225  -0.042   4.273 -0.0523  0.7699  0.6632
  732MOL0     C98725  11.373  -0.038   4.237 -0.8456 -0.2803  0.6126
  732MOL0     C98726  11.427  -0.142   4.140  0.0356  0.5026  0.4702
  732MOL0     C98727  11.365  -0.126   3.995 -0.5465  1.3059 -0.7763
  732MOL0     C98728  11.410  -0.250   3.907  0.8303 -0.0316  0.6350
  732MOL0    Cl98729  11.568  -0.335   3.945 -0.1590 -0.1186  0.6968
  732MOL0     C98730  10.589  -0.155   4.440 -0.3795 -0.4229  0.3077
  732MOL0     C98731  10.460  -0.147   4.387 -0.1728 -0.0413  0.6463
  732MOL0     O98732  10.322  -0.349   4.077  0.1143 -0.2333  0.0696
  732MOL0     C98733  10.033  -0.133   4.106 -0.8081  0.6666 -1.2165
  732MOL0     C98734   9.894  -0.141   4.110  0.9550 -0.8618 -0.8046
  732MOL0     N98735   9.119   0.018   3.945 -0.1650 -0.1958  0.0645
  732MOL0     N98736   9.012   0.082   3.974  0.0462  0.0585  0.5474
  732MOL0     C98737   7.919   0.037   4.547  0.1959  0.3420  0.1788
  732MOL0     C98738   7.801   0.001   4.603  0.3661 -0.4872 -0.0592
  732MOL0     C98739   7.364   0.079   4.702 -0.2442 -0.5614 -0.0734
  732MOL0     C98740   7.287  -0.007   4.629  0.0687  0.4266  0.0732
  732MOL0     C98741   7.165  -0.052   4.674  0.7988  0.2546 -0.0129
  732MOL0     C98742   7.102   0.019   4.780 -0.1979  0.1875  0.3161
  732MOL0     O98743   6.966  -0.007   4.808  0.0825 -0.4171 -0.2327
  732MOL0     C98744   6.905   0.076   4.921  0.1305  0.2206 -0.0194
  732MOL0     C98745   6.754   0.060   4.900  0.4882 -0.5148 -0.0371
  732MOL0     C98746   6.684   0.141   5.008  0.6789  0.3256  0.4557
  732MOL0     C98747   6.680   0.082   5.149 -0.4617 -0.0128  0.0628
  732MOL0     C98748   6.561   0.095   5.223 -0.4923  0.4737 -0.0121
  732MOL0     C98749   6.447   0.112   5.268 -0.0141 -0.3879  0.2810
  732MOL0     C98750   7.181   0.104   4.856  0.1626  0.1129  0.0095
  732MOL0     C98751   7.313   0.135   4.822 -1.3896  0.4040  0.1861
  732MOL0     C98752   7.391   0.245   4.901 -0.6820  0.0731 -0.7798
  732MOL0     H98753   7.602   0.064   4.334 -0.1888  2.0446  0.3325
  732MOL0     H98754   7.803   0.135   4.246 -0.7847 -1.0172 -0.9676
  732MOL0     H98755   8.092  -0.031   4.229 -1.8281 -0.9812 -1.6603
  732MOL0     H98756   8.016   0.127   4.166 -0.1611  0.8866  1.3725
  732MOL0     H98757   8.302   0.118   4.276 -0.7229  3.1074  2.0072
  732MOL0     H98758   8.221   0.236   4.177  1.7921 -0.3250  1.2130
  732MOL0     H98759   8.218   0.099   3.986 -1.0357 -3.6460 -0.4456
  732MOL0     H98760   8.273  -0.046   4.072 -0.0839 -0.3498 -0.5277
  732MOL0     H98761   8.464   0.049   3.943  1.2626 -0.2975  1.3350
  732MOL0     H98762   8.414   0.216   3.995 -4.1403 -0.0755 -0.4389
  732MOL0     H98763   8.533   0.149   4.217  5.1860 -1.1246  1.6087
  732MOL0     H98764   8.528  -0.023   4.149 -4.5984 -1.0901 -2.3698
  732MOL0     H98765   8.705   0.048   3.995 -1.6726 -0.6268  0.6384
  732MOL0     H98766   8.676   0.219   4.033 -3.4775  0.6879 -0.8112
  732MOL0     H98767   8.791   0.011   4.233  0.2804  0.2766  1.6685
  732MOL0     H98768   8.727   0.163   4.288 -1.4099 -0.8042 -0.6858
  732MOL0     H98769   8.892   0.268   4.111  1.7018 -0.4082 -1.1992
  732MOL0     H98770   8.948   0.208   4.269 -1.3016 -1.9400  1.3171
  732MOL0     H98771   9.121   0.022   4.275 -1.2744 -0.3486  0.6124
  732MOL0     H98772   9.292  -0.191   4.116 -0.3177 -1.1458 -3.0379
  732MOL0     H98773   9.359  -0.102   3.976 -1.6943 -1.3501 -1.7588
  732MOL0     H98774   9.447   0.068   4.120 -0.3349 -1.9514 -3.3846
  732MOL0     H98775   9.366  -0.007   4.264  2.0740 -2.2542  1.7212
  732MOL0     H98776   9.532  -0.168   4.289 -1.5612 -1.5451 -0.0915
  732MOL0     H98777   9.629  -0.034   4.221 -1.2277  3.0022 -3.7525
  732MOL0     H98778   9.604  -0.131   3.989 -2.5946  0.2354  0.9371
  732MOL0     H98779   9.518  -0.263   4.069  0.6967  0.4596  0.2941
  732MOL0     H98780   9.864  -0.470   4.020 -2.9491  1.6179 -2.9123
  732MOL0     H98781  10.107  -0.462   4.039 -2.1409 -0.7820 -0.4566
  732MOL0     H98782  10.526  -0.171   4.057 -1.3862 -1.3984  0.8154
  732MOL0     H98783  10.754  -0.197   4.149  0.4294 -1.9648  0.7947
  732MOL0     H98784  10.961  -0.197   4.237 -0.0196 -2.0039  0.7998
  732MOL0     H98785  10.928  -0.044   4.319 -0.8930  0.3985  0.2194
  732MOL0     H98786  11.072  -0.131   4.508  1.0993  1.6203 -0.4841
  732MOL0     H98787  11.044  -0.293   4.450 -0.5319  0.3979 -0.9706
  732MOL0     H98788  11.274  -0.201   4.414 -0.0452  0.8507  0.2786
  732MOL0     H98789  11.198  -0.260   4.270 -0.4714  0.0182 -0.7297
  732MOL0     H98790  11.191   0.039   4.338 -0.1673  3.0504 -2.0270
  732MOL0     H98791  11.170  -0.018   4.181  0.0449  0.3701  0.5011
  732MOL0     H98792  11.431  -0.045   4.330  2.6744 -2.3403 -1.5356
  732MOL0     H98793  11.396   0.055   4.186 -2.1883 -0.1081  0.2740
  732MOL0     H98794  11.536  -0.132   4.134  0.1232 -0.0097  1.0793
  732MOL0     H98795  11.408  -0.241   4.184 -0.6014  1.0559  1.4746
  732MOL0     H98796  11.403  -0.035   3.947  0.5823  0.0966 -2.3178
  732MOL0     H98797  11.256  -0.122   4.002 -0.8298 -1.9053 -1.7106
  732MOL0     H98798  11.328  -0.322   3.919  1.5529 -1.2087 -1.0453
  732MOL0     H98799  11.404  -0.219   3.802 -0.6505  1.5324  1.1210
  732MOL0     H98800  10.599  -0.155   4.549 -0.4743 -1.9017  0.3401
  732MOL0     H98801  10.372  -0.148   4.450 -2.1308  0.1718 -1.9444
  732MOL0     H98802  10.080  -0.035   4.117  1.4289 -0.5677  1.8177
  732MOL0     H98803   9.836  -0.051   4.124  0.5226 -1.0468 -1.3956
  732MOL0     H98804   8.000   0.040   4.619  0.9652 -0.9407 -0.5865
  732MOL0     H98805   7.806  -0.015   4.711  0.1754  2.1214  0.3969
  732MOL0     H98806   7.319  -0.052   4.535 -1.1944  1.2347 -0.7781
  732MOL0     H98807   7.112  -0.125   4.615  2.3983 -0.2523 -0.8937
  732MOL0     H98808   6.935   0.179   4.902  1.1491  0.1739  1.1639
  732MOL0     H98809   6.938   0.048   5.021 -0.8980 -0.9471  0.0233
  732MOL0     H98810   6.723  -0.043   4.878 -2.6638  0.8760 -2.9389
  732MOL0     H98811   6.741   0.107   4.802  0.9373 -1.3395 -0.5026
  732MOL0     H98812   6.581   0.152   4.976  0.6829  0.0197  0.3331
  732MOL0     H98813   6.727   0.242   5.012  2.0545 -0.1757 -0.7915
  732MOL0     H98814   6.706  -0.024   5.138  0.3851  0.4693 -3.5864
  732MOL0     H98815   6.755   0.135   5.209 -0.9584  2.4889 -1.3892
  732MOL0     H98816   6.343   0.113   5.293  0.0513 -1.0374  0.6010
  732MOL0     H98817   7.145   0.177   4.927 -0.4579  1.6791 -1.8628
  732MOL0     H98818   7.340   0.291   4.987 -0.1159  1.5773 -1.2324
  732MOL0     H98819   7.480   0.192   4.937 -0.1236  1.7761  0.4793
  732MOL0     H98820   7.419   0.321   4.828 -0.8768 -0.7418 -1.7200
  733MOL0     O98821  10.885   6.576   5.346 -0.5499 -0.7128  0.6931
  733MOL0     C98822  10.894   6.583   5.218  0.3283  0.3539  0.2467
  733MOL0     O98823  10.978   6.658   5.143  0.1425  0.0505 -0.4522
  733MOL0     C98824  11.080   6.733   5.196  0.0850 -0.1317  0.6407
  733MOL0     C98825  11.160   6.785   5.096 -0.4571 -0.3364 -0.2634
  733MOL0     C98826  11.271   6.860   5.123 -0.5522  0.7581 -0.6487
  733MOL0     C98827  11.308   6.888   5.256 -0.2217 -0.0141  0.0552
  733MOL0     O98828  11.433   6.953   5.296  0.7468 -0.4173  0.1238
  733MOL0     C98829  11.491   7.038   5.195 -0.1459 -0.0788  0.1697
  733MOL0     C98830  11.600   7.128   5.257  0.2356 -0.2167  0.3346
  733MOL0     C98831  11.723   7.056   5.313  0.3777  0.3504  0.1044
  733MOL0     C98832  11.807   6.983   5.207  0.1552 -0.3117  0.6149
  733MOL0     C98833  11.951   6.960   5.247 -0.5760 -0.0237  0.2714
  733MOL0     C98834  11.961   6.866   5.359  1.5144 -1.1618  1.2517
  733MOL0     C98835  12.097   6.819   5.389 -0.3521 -0.3027  0.4931
  733MOL0     C98836  12.161   6.732   5.276  0.5655 -0.2913  0.4382
  733MOL0     N98837  12.294   6.674   5.324 -0.5267  0.2202 -0.3929
  733MOL0     C98838  12.362   6.556   5.284 -0.0040 -0.6068 -0.3812
  733MOL0     C98839  12.486   6.573   5.341 -0.1122  0.2801 -0.3606
  733MOL0     C98840  12.609   6.503   5.303 -0.3125  0.0058 -0.2052
  733MOL0     C98841  12.702   6.466   5.422  0.0282  0.3303 -0.6551
  733MOL0     C98842  12.819   6.570   5.434 -1.0362 -0.2250 -0.0773
  733MOL0     C98843  12.944   6.504   5.511  0.7728 -0.4066 -0.3101
  733MOL0     O98844  13.045   6.601   5.541 -0.2847 -0.3173 -0.3686
  733MOL0     C98845  13.183   6.571   5.524  0.1852  0.3386 -0.5840
  733MOL0     C98846  13.245   6.442   5.495  0.6777  0.1480 -0.2989
  733MOL0     C98847  13.393   6.438   5.477  0.0810  0.0707  0.7746
  733MOL0     C98848  13.468   6.550   5.503  0.0154  0.4733  0.3527
  733MOL0     C98849  13.614   6.542   5.493  0.6238 -0.7542 -0.0463
  733MOL0     O98850  13.677   6.659   5.521  0.2753 -0.0215  0.1843
  733MOL0     C98851  13.812   6.669   5.520 -0.2440 -0.2907 -0.2744
  733MOL0     C98852  13.903   6.563   5.545 -0.3158 -0.0919  0.3075
  733MOL0     C98853  14.039   6.593   5.544 -0.5319  0.4172 -0.0766
  733MOL0     C98854  14.090   6.715   5.506 -0.6973 -0.3578  0.1507
  733MOL0     O98855  14.232   6.724   5.493  0.5488  0.4755 -0.2136
  733MOL0     C98856  14.284   6.852   5.499  0.3010 -0.3989 -0.1793
  733MOL0     C98857  14.435   6.864   5.463  0.3881 -0.0905 -0.4069
  733MOL0     C98858  14.460   7.020   5.432 -0.2293 -0.4915  0.5098
  733MOL0     C98859  14.598   7.042   5.381 -0.5978 -0.9837  0.6381
  733MOL0     C98860  14.609   7.190   5.323 -0.6574  0.4499 -0.4821
  733MOL0     C98861  14.753   7.198   5.255  0.4835 -0.0676  0.5234
  733MOL0     C98862  14.786   7.342   5.205 -0.1991 -0.8087  0.4806
  733MOL0     C98863  14.932   7.339   5.159 -0.4534 -0.0489 -0.1398
  733MOL0    Cl98864  14.983   7.497   5.076  0.1433 -0.3884  0.2287
  733MOL0     C98865  14.007   6.821   5.490 -1.4824  0.6266  0.7692
  733MOL0     C98866  13.866   6.797   5.493  0.0109  0.2728  0.6296
  733MOL0     O98867  13.666   6.436   5.465  0.7489 -0.2153  0.8165
  733MOL0     C98868  13.401   6.666   5.541  0.2489 -0.3879  1.3857
  733MOL0     C98869  13.264   6.678   5.558  1.1424  0.8848  0.0574
  733MOL0     N98870  12.491   6.688   5.412  0.1316 -1.0376 -1.0220
  733MOL0     N98871  12.375   6.749   5.399 -0.5445 -0.2886 -0.5175
  733MOL0     C98872  11.222   6.844   5.355  0.4792  0.0406 -0.6560
  733MOL0     C98873  11.117   6.757   5.326  0.3050 -0.4204 -0.4423
  733MOL0     C98874  10.787   6.509   5.151  0.0122 -0.5857 -0.3835
  733MOL0     C98875  10.660   6.488   5.219 -0.8015  0.9299  0.5158
  733MOL0     C98876  10.546   6.419   5.169 -1.1404 -0.2996  0.4585
  733MOL0     C98877  10.556   6.384   5.035  0.1127  0.3058  0.1957
  733MOL0     O98878  10.454   6.323   4.964  0.3238  0.7575 -0.6363
  733MOL0     C98879  10.328   6.313   5.033  0.7171  0.3650  0.5134
  733MOL0     C98880  10.212   6.242   4.962 -0.0480 -0.2766  0.1202
  733MOL0     C98881  10.089   6.262   5.037  0.1555 -0.2899 -0.5123
  733MOL0     C98882   9.964   6.204   4.960  0.1962 -0.3209 -0.1190
  733MOL0     C98883   9.844   6.272   5.023 -0.4728  0.7668  0.1232
  733MOL0     C98884   9.757   6.333   5.078  1.0800 -0.3732  0.3461
  733MOL0     C98885  10.675   6.406   4.959  0.0006 -0.6349  0.9580
  733MOL0     C98886  10.789   6.463   5.019  0.6174 -0.3167  0.1339
  733MOL0     C98887  10.891   6.507   4.925  0.0739  0.1596  0.1815
  733MOL0     H98888  11.130   6.766   4.994 -1.8245  1.3659 -0.2354
  733MOL0     H98889  11.339   6.878   5.040  0.0035  0.5911 -0.2335
  733MOL0     H98890  11.520   6.971   5.113 -2.3453  0.6133 -1.2651
  733MOL0     H98891  11.423   7.117   5.160 -1.8246 -1.6611 -0.3053
  733MOL0     H98892  11.556   7.185   5.339  1.3397  0.3477  0.5429
  733MOL0     H98893  11.625   7.207   5.186 -1.2594 -0.4745 -0.5251
  733MOL0     H98894  11.696   6.976   5.382 -1.2815  0.9618  0.2196
  733MOL0     H98895  11.787   7.126   5.367  2.4650 -0.6513 -0.9851
  733MOL0     H98896  11.758   6.891   5.172 -1.1007  0.5968 -0.1280
  733MOL0     H98897  11.813   7.042   5.115  1.1615 -2.5747 -0.8597
  733MOL0     H98898  12.011   6.925   5.163  0.4264  1.5347  0.2854
  733MOL0     H98899  11.999   7.056   5.271 -0.4233 -0.2335  0.8212
  733MOL0     H98900  11.920   6.908   5.451 -1.6335  0.1170 -0.5892
  733MOL0     H98901  11.901   6.778   5.333 -0.7400  0.9956 -1.4602
  733MOL0     H98902  12.084   6.755   5.476  0.1718 -2.1773 -0.7295
  733MOL0     H98903  12.157   6.907   5.414 -0.8200  0.3493 -0.6181
  733MOL0     H98904  12.086   6.655   5.254 -1.3148  1.9087 -1.4368
  733MOL0     H98905  12.183   6.789   5.185 -0.8365 -0.0912  0.1967
  733MOL0     H98906  12.327   6.481   5.214 -3.0558 -1.1952  1.5562
  733MOL0     H98907  12.583   6.409   5.254  0.0567 -0.7999  1.0918
  733MOL0     H98908  12.667   6.561   5.231 -1.7364 -0.9938 -2.2377
  733MOL0     H98909  12.646   6.464   5.516  0.1124 -1.8494 -0.6063
  733MOL0     H98910  12.749   6.369   5.405 -0.6761  0.2079 -2.0046
  733MOL0     H98911  12.777   6.657   5.486  0.8348 -0.4151  1.8656
  733MOL0     H98912  12.857   6.594   5.335  5.2879 -0.3976  1.9058
  733MOL0     H98913  12.986   6.408   5.478  0.9319 -1.4088  2.5250
  733MOL0     H98914  12.911   6.477   5.612  1.4180 -1.7887 -0.4418
  733MOL0     H98915  13.182   6.355   5.477 -1.5128  1.8752 -1.3906
  733MOL0     H98916  13.434   6.343   5.447 -0.2165  0.4927 -1.0567
  733MOL0     H98917  13.883   6.458   5.562 -0.1985 -0.4784 -1.7147
  733MOL0     H98918  14.119   6.521   5.555  0.1696  0.5104 -3.5709
  733MOL0     H98919  14.234   6.923   5.432 -2.0470 -2.6847 -1.0524
  733MOL0     H98920  14.273   6.901   5.596  2.5479  1.9620 -1.0088
  733MOL0     H98921  14.481   6.816   5.550 -0.0901  0.6201  0.2494
  733MOL0     H98922  14.461   6.809   5.372 -0.7950  1.9303 -2.0561
  733MOL0     H98923  14.400   7.059   5.350 -0.3226 -2.4732 -0.4360
  733MOL0     H98924  14.442   7.087   5.517 -0.8613  0.7518 -0.5794
  733MOL0     H98925  14.616   6.970   5.301  1.4648 -0.6461  0.7463
  733MOL0     H98926  14.674   7.038   5.460  2.0699 -0.1703 -1.7440
  733MOL0     H98927  14.602   7.267   5.399  1.7086 -0.9436  1.2991
  733MOL0     H98928  14.539   7.200   5.239 -1.1844 -0.1560 -0.1218
  733MOL0     H98929  14.822   7.163   5.332 -0.9841 -0.7620  1.5675
  733MOL0     H98930  14.760   7.139   5.163 -0.1983  2.3720 -1.1867
  733MOL0     H98931  14.769   7.412   5.288  0.0093 -1.8347  1.4177
  733MOL0     H98932  14.715   7.369   5.127  2.0142  0.6223 -1.1543
  733MOL0     H98933  15.007   7.337   5.238  2.8054 -0.9806 -3.0376
  733MOL0     H98934  14.951   7.260   5.087 -1.0632 -0.2898 -0.0425
  733MOL0     H98935  14.045   6.921   5.469  0.1986 -0.2376 -0.5013
  733MOL0     H98936  13.797   6.877   5.471 -0.8333 -1.1062 -2.2037
  733MOL0     H98937  13.446   6.765   5.544  0.3511 -0.2466 -1.7106
  733MOL0     H98938  13.215   6.768   5.593  1.0669  0.6248  0.6442
  733MOL0     H98939  11.252   6.861   5.458  0.3866 -0.1487 -0.5957
  733MOL0     H98940  11.063   6.724   5.414  3.2163 -1.4242  1.0973
  733MOL0     H98941  10.643   6.522   5.320 -0.4369 -1.1364  1.3230
  733MOL0     H98942  10.468   6.395   5.239 -0.2875  0.0029  1.5395
  733MOL0     H98943  10.294   6.412   5.063  1.0085 -0.1401  2.6128
  733MOL0     H98944  10.334   6.266   5.131 -0.9986  0.2422  0.5893
  733MOL0     H98945  10.231   6.135   4.964 -1.8916 -0.6305  1.7309
  733MOL0     H98946  10.201   6.291   4.865  1.8300  0.6241  0.3152
  733MOL0     H98947  10.065   6.368   5.051  0.3828 -0.1426 -1.1995
  733MOL0     H98948  10.095   6.212   5.134  1.3069 -2.2319 -1.5266
  733MOL0     H98949   9.966   6.227   4.853  0.7635 -1.4134 -0.3554
  733MOL0     H98950   9.962   6.097   4.983  1.2838  0.3587  3.8072
  733MOL0     H98951   9.680   6.399   5.111 -0.0392 -1.6817  0.4632
  733MOL0     H98952  10.682   6.398   4.851  2.7627  1.5779  0.8587
  733MOL0     H98953  10.897   6.450   4.832  1.0548  1.5284 -0.6293
  733MOL0     H98954  10.884   6.615   4.911  0.7612  0.1857  0.0037
  733MOL0     H98955  10.985   6.485   4.976  0.8645  2.0179 -0.3758
  734MOL0     O98956   8.277   7.271   2.078  0.1088  0.1085  0.5343
  734MOL0     C98957   8.227   7.162   2.090 -0.1390 -0.1984 -0.6467
  734MOL0     O98958   8.300   7.046   2.120  0.0134 -0.0080 -0.7744
  734MOL0     C98959   8.422   7.067   2.167 -0.6388 -1.1855 -0.6674
  734MOL0     C98960   8.457   7.053   2.301  1.1108  0.0066  0.1774
  734MOL0     C98961   8.588   7.067   2.349 -0.2780  0.0684 -1.0498
  734MOL0     C98962   8.692   7.077   2.247 -0.2154  0.4327 -0.0798
  734MOL0     O98963   8.822   7.078   2.271 -0.4884 -0.8520 -0.0128
  734MOL0     C98964   8.869   7.130   2.396 -0.4202  0.2705 -0.2185
  734MOL0     C98965   9.022   7.152   2.400 -0.8096 -0.4301  0.1054
  734MOL0     C98966   9.096   7.028   2.426 -0.5091  0.0148 -0.3915
  734MOL0     C98967   9.249   7.051   2.426 -0.6675 -0.6084  0.5615
  734MOL0     C98968   9.314   6.918   2.453  0.6015  0.2022 -0.2222
  734MOL0     C98969   9.464   6.922   2.418 -0.2812  0.8965 -0.2941
  734MOL0     C98970   9.554   7.003   2.511 -0.2324  0.1638  0.5322
  734MOL0     C98971   9.699   7.006   2.462 -0.0501  0.7767  0.0763
  734MOL0     N98972   9.775   6.882   2.477  0.1242  0.5350 -0.1610
  734MOL0     C98973   9.800   6.811   2.594 -0.0041 -0.4594 -0.1850
  734MOL0     C98974   9.880   6.709   2.545 -0.5571 -0.1451 -0.8291
  734MOL0     C98975   9.945   6.607   2.643  0.8733 -0.4929  0.2584
  734MOL0     C98976  10.094   6.576   2.602  0.4442  0.0623 -0.0885
  734MOL0     C98977  10.168   6.490   2.712 -0.5911 -0.5513 -0.0300
  734MOL0     C98978  10.268   6.566   2.807  0.7333  1.1717  0.5136
  734MOL0     O98979  10.379   6.603   2.734  0.1382 -0.3249 -0.1456
  734MOL0     C98980  10.473   6.670   2.799 -0.1349  0.3698  0.0215
  734MOL0     C98981  10.559   6.750   2.715  0.6122  0.4431  0.0079
  734MOL0     C98982  10.658   6.829   2.761  0.2471  0.3060 -1.0316
  734MOL0     C98983  10.695   6.828   2.902 -0.0160  0.0240  0.2149
  734MOL0     C98984  10.805   6.919   2.950  0.2472  0.3881  0.4311
  734MOL0     O98985  10.826   6.912   3.082  0.5771  0.0530 -0.8078
  734MOL0     C98986  10.921   6.993   3.136 -0.5445  0.4154  0.0901
  734MOL0     C98987  11.057   6.948   3.138  0.3655 -0.1751 -0.6746
  734MOL0     C98988  11.158   7.027   3.198 -0.5471 -0.4251  0.0795
  734MOL0     C98989  11.123   7.150   3.266  0.0304 -0.5274  0.1685
  734MOL0     O98990  11.210   7.241   3.316  0.4719  0.3198 -0.1201
  734MOL0     C98991  11.335   7.187   3.358  0.3074  0.0479 -0.9001
  734MOL0     C98992  11.429   7.292   3.413  0.3989  0.5881 -0.1603
  734MOL0     C98993  11.563   7.242   3.465  0.2818 -0.0267 -0.0310
  734MOL0     C98994  11.676   7.335   3.414 -0.4187 -0.1199  0.7642
  734MOL0     C98995  11.808   7.301   3.476 -0.3241 -0.1359 -0.8738
  734MOL0     C98996  11.925   7.384   3.421  0.0010  0.7309  0.7194
  734MOL0     C98997  12.041   7.349   3.515 -0.8292  0.5212  0.7198
  734MOL0     C98998  12.173   7.417   3.474 -0.4465 -0.1838  0.3985
  734MOL0    Cl98999  12.304   7.429   3.596  0.0077  0.1500  0.2834
  734MOL0     C99000  10.991   7.190   3.262 -0.0229 -0.0105  0.5607
  734MOL0     C99001  10.892   7.113   3.197  0.4078 -0.8239 -1.2421
  734MOL0     O99002  10.869   6.977   2.868 -0.2976 -0.2514  0.1228
  734MOL0     C99003  10.607   6.747   2.988 -0.9850 -0.6837  0.4126
  734MOL0     C99004  10.497   6.670   2.941 -0.7128  0.2669  0.6145
  734MOL0     N99005   9.904   6.716   2.411  0.1768 -0.5914 -0.6304
  734MOL0     N99006   9.831   6.817   2.374 -0.4104  0.9781  0.7547
  734MOL0     C99007   8.652   7.073   2.111 -0.5487  0.5683  0.3031
  734MOL0     C99008   8.521   7.071   2.071 -0.2782  0.5655  0.2120
  734MOL0     C99009   8.080   7.141   2.065  0.0513 -0.3837  0.3748
  734MOL0     C99010   8.043   7.005   2.040  1.1572 -0.1490  0.3731
  734MOL0     C99011   7.911   6.971   2.007  0.5539  0.5607 -0.1869
  734MOL0     C99012   7.811   7.073   2.005 -0.0532 -0.0735 -0.5952
  734MOL0     O99013   7.679   7.035   1.978  0.2720  0.4690 -0.6900
  734MOL0     C99014   7.574   7.137   1.985  0.5735 -0.4168  0.0216
  734MOL0     C99015   7.434   7.074   1.958 -0.3065  0.5979 -0.0379
  734MOL0     C99016   7.404   6.955   2.052 -0.0175 -0.5947 -0.0137
  734MOL0     C99017   7.249   6.925   2.052  0.1716  0.4234  0.3350
  734MOL0     C99018   7.207   6.823   2.156 -0.5087  0.4234 -0.0636
  734MOL0     C99019   7.181   6.743   2.243  0.7878 -0.1848  0.3272
  734MOL0     C99020   7.853   7.205   2.017 -0.0897  0.4150 -0.0121
  734MOL0     C99021   7.984   7.236   2.039 -0.2604  0.3295 -0.2423
  734MOL0     C99022   8.010   7.383   2.047 -0.5905  0.5971  0.3557
  734MOL0     H99023   8.386   7.024   2.378  0.3727  0.3944 -0.3590
  734MOL0     H99024   8.606   7.057   2.455 -1.4260 -0.6991 -0.9035
  734MOL0     H99025   8.820   7.227   2.409 -1.4860 -0.3874  0.8693
  734MOL0     H99026   8.840   7.066   2.480 -2.0347  1.6909  0.3655
  734MOL0     H99027   9.046   7.226   2.477  0.1053 -2.3450  1.7447
  734MOL0     H99028   9.057   7.188   2.302 -1.1978  1.0768  0.4969
  734MOL0     H99029   9.071   6.947   2.356 -0.2651  0.8030 -1.4123
  734MOL0     H99030   9.067   6.993   2.526 -4.4699  0.5348 -1.1690
  734MOL0     H99031   9.271   7.089   2.326 -2.3543  0.0810  0.4164
  734MOL0     H99032   9.283   7.125   2.499 -1.4656  0.3020  0.0400
  734MOL0     H99033   9.295   6.894   2.558 -2.6788 -1.5013 -1.0632
  734MOL0     H99034   9.269   6.843   2.387 -0.5872  1.1105 -0.4637
  734MOL0     H99035   9.489   6.815   2.421  0.3273  1.0445  0.1503
  734MOL0     H99036   9.482   6.952   2.314 -1.8080 -3.2011 -1.9687
  734MOL0     H99037   9.538   6.963   2.612  0.7337 -0.9162  0.2689
  734MOL0     H99038   9.508   7.102   2.499  0.7826  0.4569 -1.1671
  734MOL0     H99039   9.695   7.019   2.353  0.2519  1.2928  0.1205
  734MOL0     H99040   9.753   7.096   2.493 -0.6499  1.3315 -0.4501
  734MOL0     H99041   9.772   6.842   2.694  2.5256  0.0084  0.4374
  734MOL0     H99042   9.945   6.657   2.740 -3.6373  2.7618 -1.1042
  734MOL0     H99043   9.882   6.518   2.650 -3.8551  2.4943 -0.0866
  734MOL0     H99044  10.082   6.522   2.507  0.4673  0.2681 -0.2098
  734MOL0     H99045  10.143   6.671   2.577 -1.3021  1.1522  0.3743
  734MOL0     H99046  10.227   6.414   2.659 -0.8650  0.5241 -1.9531
  734MOL0     H99047  10.084   6.441   2.761 -1.8655 -0.6976 -2.2262
  734MOL0     H99048  10.288   6.506   2.896 -2.9562  1.2553  1.5354
  734MOL0     H99049  10.220   6.658   2.841  0.6190  2.4044 -2.6667
  734MOL0     H99050  10.543   6.751   2.608  0.5986 -1.1153 -0.0251
  734MOL0     H99051  10.713   6.885   2.687 -2.2599  1.3847 -2.1898
  734MOL0     H99052  11.073   6.854   3.085  1.7856  0.4339 -1.3785
  734MOL0     H99053  11.250   6.970   3.203 -1.5817 -2.3893 -1.5894
  734MOL0     H99054  11.319   7.111   3.435 -1.3675  1.7477  0.5426
  734MOL0     H99055  11.391   7.132   3.282  0.0675 -2.8506  0.8986
  734MOL0     H99056  11.447   7.350   3.322 -1.0993 -0.7526 -1.3499
  734MOL0     H99057  11.373   7.343   3.492 -0.3814  0.7665 -0.8196
  734MOL0     H99058  11.560   7.253   3.574  0.6453 -0.6984  0.0543
  734MOL0     H99059  11.582   7.138   3.439  1.2788 -0.1071  0.9309
  734MOL0     H99060  11.647   7.439   3.427  2.1979  1.6849 -4.6468
  734MOL0     H99061  11.680   7.326   3.305  0.5613 -0.1307  0.7916
  734MOL0     H99062  11.833   7.195   3.478 -1.9291 -0.5456 -0.8457
  734MOL0     H99063  11.808   7.326   3.583  1.1008 -1.8996 -0.4232
  734MOL0     H99064  11.963   7.361   3.321  0.0339  0.7436  0.7289
  734MOL0     H99065  11.917   7.493   3.431  0.8755  0.6993  1.9901
  734MOL0     H99066  12.054   7.242   3.536  0.5000  0.6745  0.7347
  734MOL0     H99067  12.016   7.397   3.610 -1.7470  0.2561  0.6247
  734MOL0     H99068  12.206   7.361   3.386 -0.1864 -1.1813  1.1178
  734MOL0     H99069  12.149   7.522   3.452  2.1504  0.5898  0.9360
  734MOL0     H99070  10.953   7.280   3.310  1.9820 -0.4922  3.2837
  734MOL0     H99071  10.794   7.160   3.197  1.4601  1.7353  1.5963
  734MOL0     H99072  10.613   6.745   3.096  0.0915 -0.4967  0.3680
  734MOL0     H99073  10.441   6.607   3.009 -0.2861 -0.2062  0.5317
  734MOL0     H99074   8.736   7.083   2.043  1.2638 -0.0181  2.3272
  734MOL0     H99075   8.500   7.081   1.965 -3.0259  0.0158  0.6154
  734MOL0     H99076   8.115   6.925   2.051  1.2003 -0.1048  0.4141
  734MOL0     H99077   7.882   6.869   1.986  0.4113  0.4885  0.3563
  734MOL0     H99078   7.604   7.210   1.909  2.1368 -1.3496 -0.3066
  734MOL0     H99079   7.578   7.187   2.082  1.2125  0.9452 -0.6813
  734MOL0     H99080   7.441   7.044   1.853  1.3310  0.3385  0.1288
  734MOL0     H99081   7.370   7.161   1.977  0.0595  0.3965  2.4643
  734MOL0     H99082   7.440   6.975   2.154  1.3330 -2.7182  0.0052
  734MOL0     H99083   7.445   6.861   2.013 -1.5931 -1.8829  1.2350
  734MOL0     H99084   7.189   7.016   2.051  0.8251  0.8710 -0.7641
  734MOL0     H99085   7.224   6.875   1.958  0.1002 -2.4462  1.7709
  734MOL0     H99086   7.157   6.676   2.323 -1.4019 -1.2105 -1.0761
  734MOL0     H99087   7.778   7.283   2.019  0.8758  1.4479 -1.7897
  734MOL0     H99088   8.104   7.409   1.998  0.1571 -2.4132  0.0133
  734MOL0     H99089   7.933   7.442   1.997 -1.0030 -0.0320  0.2415
  734MOL0     H99090   8.001   7.415   2.151 -2.0852 -1.0017  0.7483
  735MOL0     O99091  10.916   3.418   7.409  0.0178  0.4701  0.2043
  735MOL0     C99092  10.874   3.305   7.447 -0.2889 -0.6648  0.3239
  735MOL0     O99093  10.947   3.191   7.456  0.2072 -0.6450 -0.0542
  735MOL0     C99094  11.082   3.191   7.420 -0.0550  0.0959 -0.8287
  735MOL0     C99095  11.132   3.226   7.294 -1.4236 -0.1192 -0.6995
  735MOL0     C99096  11.269   3.210   7.259  0.8147  0.6605 -0.8745
  735MOL0     C99097  11.351   3.154   7.361  0.0586  0.5386 -0.0581
  735MOL0     O99098  11.489   3.132   7.355 -0.2746  0.1070 -0.5594
  735MOL0     C99099  11.561   3.178   7.242 -0.7481 -0.1548  0.3574
  735MOL0     C99100  11.545   3.070   7.138 -0.3648  0.1942  0.7784
  735MOL0     C99101  11.580   3.118   6.995  0.1272 -0.0325 -0.1728
  735MOL0     C99102  11.722   3.083   6.952  0.3704 -0.0837  0.1665
  735MOL0     C99103  11.833   3.165   7.018 -0.3673 -0.3822  0.7371
  735MOL0     C99104  11.949   3.157   6.920 -0.1230  0.4693  0.3004
  735MOL0     C99105  12.073   3.233   6.966  0.1417  1.0816  0.5241
  735MOL0     C99106  12.174   3.130   7.031  0.3890  0.3580  1.1275
  735MOL0     N99107  12.284   3.190   7.110 -0.3824 -0.4389  0.4007
  735MOL0     C99108  12.419   3.203   7.067  0.5901  0.3349 -0.5024
  735MOL0     C99109  12.471   3.249   7.188 -0.5453  0.3571  0.3615
  735MOL0     C99110  12.613   3.266   7.225 -0.3053  0.0708  0.2042
  735MOL0     C99111  12.669   3.147   7.304 -0.1477  0.1154  0.5397
  735MOL0     C99112  12.648   3.015   7.227  0.1928 -0.1791 -1.3082
  735MOL0     C99113  12.702   2.894   7.314 -0.2902  0.2091 -0.6273
  735MOL0     O99114  12.848   2.901   7.301  0.6994  0.5493 -0.1294
  735MOL0     C99115  12.919   2.786   7.315 -0.6090 -0.7509  0.0374
  735MOL0     C99116  13.042   2.787   7.242  0.1598  0.5736  0.0373
  735MOL0     C99117  13.116   2.671   7.259 -0.5165 -1.1101 -0.4644
  735MOL0     C99118  13.095   2.565   7.349  0.4644 -0.8327 -0.5830
  735MOL0     C99119  13.198   2.466   7.393  0.1032 -0.4997  0.7020
  735MOL0     O99120  13.319   2.478   7.332  1.1781 -0.4526 -0.0262
  735MOL0     C99121  13.437   2.413   7.372 -0.0216  0.4536 -0.6694
  735MOL0     C99122  13.440   2.302   7.460  0.0582 -0.0410  0.2443
  735MOL0     C99123  13.567   2.255   7.502 -0.1031 -0.6528  0.3773
  735MOL0     C99124  13.686   2.303   7.454 -0.4270 -0.1475 -0.0784
  735MOL0     O99125  13.807   2.245   7.483 -0.0056 -0.1619 -0.0272
  735MOL0     C99126  13.870   2.294   7.604  0.0742 -0.2206  0.3153
  735MOL0     C99127  13.908   2.441   7.601 -0.1961 -0.0565 -0.1024
  735MOL0     C99128  13.983   2.496   7.725  0.5725  0.2080 -0.3344
  735MOL0     C99129  13.972   2.650   7.734  0.4036  0.0043  0.7226
  735MOL0     C99130  14.099   2.709   7.791 -0.5992 -0.1224 -0.3660
  735MOL0     C99131  14.198   2.771   7.691  0.2775  0.4755  1.2596
  735MOL0     C99132  14.327   2.821   7.752 -0.2630 -0.5448 -0.6384
  735MOL0     C99133  14.421   2.878   7.641  0.7013 -0.4914 -0.3474
  735MOL0    Cl99134  14.567   2.933   7.722  0.0598  0.1258  0.1551
  735MOL0     C99135  13.682   2.411   7.363 -0.2177  1.1452 -0.1976
  735MOL0     C99136  13.554   2.457   7.326  0.0370  0.1100 -0.4297
  735MOL0     O99137  13.152   2.371   7.462 -0.1291  0.2776 -1.0408
  735MOL0     C99138  12.971   2.571   7.414  0.8877 -0.7004 -0.2939
  735MOL0     C99139  12.883   2.681   7.396  0.7531 -0.0178  0.1355
  735MOL0     N99140  12.377   3.265   7.281 -0.1985  0.4169 -0.8209
  735MOL0     N99141  12.265   3.231   7.237 -0.1567  0.7552  0.3393
  735MOL0     C99142  11.305   3.119   7.483 -0.5136 -0.6656 -0.5062
  735MOL0     C99143  11.173   3.137   7.510  0.1490 -0.3429 -0.2869
  735MOL0     C99144  10.724   3.300   7.479 -0.4678 -0.7508 -1.0159
  735MOL0     C99145  10.676   3.173   7.491  0.4031  0.0484 -0.0627
  735MOL0     C99146  10.543   3.150   7.541 -0.3985 -1.0725  0.1402
  735MOL0     C99147  10.465   3.264   7.583 -0.3721 -0.4581 -0.2464
  735MOL0     O99148  10.337   3.255   7.627  0.5355  0.3743  0.4014
  735MOL0     C99149  10.315   3.141   7.718 -0.3640  0.8300 -0.1283
  735MOL0     C99150  10.203   3.157   7.809 -0.0699 -0.3346 -0.2739
  735MOL0     C99151  10.083   3.216   7.735  0.3829  0.4839  0.3954
  735MOL0     C99152   9.953   3.229   7.819 -1.0889 -0.2460  0.2410
  735MOL0     C99153   9.841   3.248   7.728 -0.5448  0.1745 -0.0544
  735MOL0     C99154   9.753   3.269   7.645  0.1294  0.4945 -0.4257
  735MOL0     C99155  10.508   3.388   7.559 -0.3848 -0.4493  0.4032
  735MOL0     C99156  10.642   3.414   7.512 -0.3413 -0.3527  0.2823
  735MOL0     C99157  10.692   3.557   7.515  0.2833  0.1795  0.1183
  735MOL0     H99158  11.067   3.289   7.235  1.0321  4.0641  0.6214
  735MOL0     H99159  11.307   3.244   7.163 -0.8938 -1.4971 -2.4332
  735MOL0     H99160  11.525   3.273   7.202  0.9071 -0.7937 -2.9371
  735MOL0     H99161  11.663   3.197   7.277 -1.3544 -0.1889  2.2832
  735MOL0     H99162  11.443   3.030   7.137 -0.7090  1.0286  1.3669
  735MOL0     H99163  11.600   2.977   7.154  1.7039  0.6413 -2.7554
  735MOL0     H99164  11.558   3.225   6.987 -1.4779 -0.4063 -1.3103
  735MOL0     H99165  11.509   3.067   6.929 -3.5594  3.6959  0.4107
  735MOL0     H99166  11.741   2.976   6.969 -0.4505 -0.5205 -1.4906
  735MOL0     H99167  11.722   3.095   6.843  0.1458 -0.3007  0.1412
  735MOL0     H99168  11.810   3.271   7.032  3.0787  0.5969 -0.0183
  735MOL0     H99169  11.864   3.125   7.115  0.6232  1.3267  1.1641
  735MOL0     H99170  11.980   3.056   6.891 -0.4902  1.0546 -2.3596
  735MOL0     H99171  11.922   3.204   6.826  2.4063  1.5263  0.0222
  735MOL0     H99172  12.044   3.313   7.034 -1.7358  0.1407  0.9042
  735MOL0     H99173  12.125   3.274   6.879 -1.2769 -0.5415 -1.1857
  735MOL0     H99174  12.115   3.068   7.100 -3.6849  3.4368  0.8140
  735MOL0     H99175  12.213   3.064   6.953 -1.4179  0.3411  0.1738
  735MOL0     H99176  12.458   3.182   6.968  0.7246 -2.3009  0.0535
  735MOL0     H99177  12.667   3.280   7.131 -0.6313 -1.0040 -0.1657
  735MOL0     H99178  12.635   3.348   7.294 -0.6736  0.6406 -0.3468
  735MOL0     H99179  12.778   3.155   7.312  0.0993 -0.9464 -1.3350
  735MOL0     H99180  12.633   3.145   7.408  1.4935 -0.8854  1.1229
  735MOL0     H99181  12.688   3.006   7.126  0.0028 -2.7562 -1.2197
  735MOL0     H99182  12.539   3.003   7.223  0.0089  0.4580  0.6311
  735MOL0     H99183  12.659   2.802   7.272  0.1515 -0.0567 -0.5035
  735MOL0     H99184  12.668   2.915   7.415 -2.5752  2.9874 -1.8273
  735MOL0     H99185  13.070   2.873   7.182  0.5906  1.6092  1.6681
  735MOL0     H99186  13.214   2.670   7.213 -0.7776  0.5450 -1.1353
  735MOL0     H99187  13.345   2.252   7.477 -0.0538 -1.7360 -4.0305
  735MOL0     H99188  13.567   2.170   7.569  2.8292 -0.7671  0.3282
  735MOL0     H99189  13.809   2.277   7.694 -0.9654 -1.6693 -0.5995
  735MOL0     H99190  13.963   2.237   7.615  0.8142  0.8299 -0.3788
  735MOL0     H99191  13.963   2.471   7.511  1.5725 -0.1234  0.9037
  735MOL0     H99192  13.816   2.500   7.596 -0.4139 -0.4766 -1.3999
  735MOL0     H99193  13.953   2.457   7.823  3.2196  1.4543  1.0888
  735MOL0     H99194  14.087   2.464   7.713  0.2725 -0.3946 -1.3609
  735MOL0     H99195  13.879   2.673   7.786 -0.9701 -0.2434 -1.5219
  735MOL0     H99196  13.966   2.706   7.641 -0.4162  2.6210  2.2451
  735MOL0     H99197  14.149   2.629   7.847  1.6582  0.3430 -1.5706
  735MOL0     H99198  14.068   2.790   7.857  1.8517 -0.8386  1.8146
  735MOL0     H99199  14.219   2.700   7.611 -3.2717 -2.0428  2.2986
  735MOL0     H99200  14.143   2.852   7.643 -0.1094  0.0403  0.9577
  735MOL0     H99201  14.374   2.745   7.816 -0.4649  0.0301  0.2100
  735MOL0     H99202  14.303   2.903   7.821  0.9134 -0.1063 -0.7320
  735MOL0     H99203  14.443   2.801   7.567  0.2765 -0.4511 -0.5170
  735MOL0     H99204  14.370   2.965   7.598  3.3268  1.4857  0.2516
  735MOL0     H99205  13.779   2.440   7.325  0.8042 -2.3154 -0.5896
  735MOL0     H99206  13.544   2.526   7.242 -2.6720 -1.5036 -1.5422
  735MOL0     H99207  12.952   2.495   7.489 -0.6162 -0.0999 -0.0370
  735MOL0     H99208  12.790   2.685   7.452 -1.0831 -1.6534 -2.5541
  735MOL0     H99209  11.369   3.095   7.568 -3.4875  0.9625  2.4459
  735MOL0     H99210  11.130   3.112   7.606  0.9721 -3.0496 -0.5349
  735MOL0     H99211  10.740   3.087   7.472  0.4300  0.4676 -2.0465
  735MOL0     H99212  10.516   3.045   7.534 -0.6080 -0.8950 -3.3497
  735MOL0     H99213  10.409   3.117   7.769 -0.2934 -1.5783 -1.2723
  735MOL0     H99214  10.303   3.049   7.660  1.7624 -0.8742  1.9140
  735MOL0     H99215  10.237   3.228   7.886  1.6726  1.5800 -2.6621
  735MOL0     H99216  10.176   3.066   7.864  2.0393 -1.2631 -0.6611
  735MOL0     H99217  10.061   3.150   7.651 -0.1157  0.5975  0.4364
  735MOL0     H99218  10.108   3.318   7.705 -0.7693  1.2556  1.8865
  735MOL0     H99219   9.930   3.143   7.882  0.1543  0.7453  2.1167
  735MOL0     H99220   9.961   3.316   7.885  2.6118  0.5609 -1.0432
  735MOL0     H99221   9.685   3.281   7.563 -1.2530  1.4771  0.8154
  735MOL0     H99222  10.429   3.461   7.574 -0.7394 -0.8650  0.5651
  735MOL0     H99223  10.723   3.589   7.415 -3.3292 -0.1639 -1.2433
  735MOL0     H99224  10.608   3.617   7.551 -0.8160 -0.4441 -1.3164
  735MOL0     H99225  10.774   3.577   7.584 -0.0485  1.2648  0.2142
  736MOL0     O99226   0.662   3.414   2.672 -0.2193  0.6517  0.1537
  736MOL0     C99227   0.589   3.402   2.769  0.6152  0.9537  0.4732
  736MOL0     O99228   0.634   3.393   2.899  0.3247  0.4626 -0.2929
  736MOL0     C99229   0.766   3.409   2.934  0.0173 -0.2641  0.3051
  736MOL0     C99230   0.814   3.542   2.934  0.3730  0.5793 -0.2945
  736MOL0     C99231   0.955   3.563   2.962 -0.0818 -0.6582 -0.5239
  736MOL0     C99232   1.037   3.465   3.032  0.6989 -0.0085  0.8029
  736MOL0     O99233   1.165   3.469   3.077 -0.4334 -0.0720 -0.2016
  736MOL0     C99234   1.244   3.574   3.042  0.1470 -0.1316 -0.4169
  736MOL0     C99235   1.378   3.578   3.119  0.2794  0.9133 -0.1331
  736MOL0     C99236   1.489   3.506   3.054  0.5827  0.1098 -0.2701
  736MOL0     C99237   1.614   3.525   3.135 -0.2339  1.1670 -0.0274
  736MOL0     C99238   1.732   3.456   3.070 -0.3175 -0.2711 -0.5166
  736MOL0     C99239   1.866   3.486   3.140  0.4871  0.4504  0.2011
  736MOL0     C99240   1.989   3.413   3.079 -0.0998 -0.2751  0.1807
  736MOL0     C99241   1.984   3.263   3.092 -0.0567 -0.3585  0.3232
  736MOL0     N99242   2.096   3.201   3.033 -0.4561  0.4999  0.3212
  736MOL0     C99243   2.196   3.149   3.100 -0.2375  0.0827 -0.8793
  736MOL0     C99244   2.287   3.101   3.016  0.5796 -0.1775 -0.0913
  736MOL0     C99245   2.417   3.045   3.058 -0.7059  0.0084  0.1659
  736MOL0     C99246   2.512   3.023   2.938 -0.3819  0.8128  0.8093
  736MOL0     C99247   2.640   2.937   2.979 -0.1799 -0.0645 -0.5947
  736MOL0     C99248   2.755   2.936   2.867  0.1481  0.3470  0.8353
  736MOL0     O99249   2.808   3.071   2.846  0.0205  0.6257 -0.4601
  736MOL0     C99250   2.899   3.097   2.751  0.6246  0.2854  0.0755
  736MOL0     C99251   2.988   2.999   2.691 -0.8125 -0.0751 -0.9099
  736MOL0     C99252   3.078   3.031   2.592 -0.7445  0.0160 -0.1912
  736MOL0     C99253   3.077   3.160   2.536 -0.2744 -0.2581  0.5809
  736MOL0     C99254   3.177   3.193   2.431  1.1148  0.0748 -0.5955
  736MOL0     O99255   3.258   3.084   2.405  0.0591 -0.6402 -0.4436
  736MOL0     C99256   3.344   3.083   2.294 -0.2341  0.4706 -0.2877
  736MOL0     C99257   3.467   3.008   2.309  0.8851 -0.4912  0.1413
  736MOL0     C99258   3.551   2.993   2.203 -0.2173  0.0458 -0.7770
  736MOL0     C99259   3.518   3.058   2.081 -0.6606 -0.4078 -0.0807
  736MOL0     O99260   3.602   3.066   1.973  0.3558 -0.0853  0.0079
  736MOL0     C99261   3.709   2.970   1.963 -0.8107  0.1885 -0.1389
  736MOL0     C99262   3.776   2.972   1.822  0.2252  0.8168  0.1153
  736MOL0     C99263   3.909   2.890   1.828  0.7262  0.0610 -0.1286
  736MOL0     C99264   3.934   2.847   1.682 -0.6210  0.9707  0.0888
  736MOL0     C99265   4.068   2.766   1.654  0.4862  0.2124  0.8226
  736MOL0     C99266   4.194   2.830   1.700  0.8514 -0.4277 -0.3432
  736MOL0     C99267   4.307   2.725   1.660  0.2156 -0.8248  0.4443
  736MOL0     C99268   4.362   2.746   1.520 -0.2246  0.1599 -0.7014
  736MOL0    Cl99269   4.422   2.919   1.503 -0.7111  0.4128 -0.4094
  736MOL0     C99270   3.389   3.115   2.061  0.1306 -0.9528 -0.9189
  736MOL0     C99271   3.301   3.129   2.171 -0.2834 -0.8003 -0.2549
  736MOL0     O99272   3.196   3.309   2.386 -0.6300 -0.4323 -0.4348
  736MOL0     C99273   2.988   3.258   2.587 -0.5465 -0.8287 -0.2500
  736MOL0     C99274   2.898   3.233   2.690 -0.4105  0.7174  0.0544
  736MOL0     N99275   2.245   3.135   2.891  0.5732 -0.1502 -0.4219
  736MOL0     N99276   2.120   3.183   2.898  0.0059  0.7505 -0.5192
  736MOL0     C99277   0.963   3.343   3.043 -1.2508 -0.1557  0.8686
  736MOL0     C99278   0.843   3.301   2.989  0.0704 -0.2378 -0.1376
  736MOL0     C99279   0.444   3.414   2.741 -0.0171 -0.9436  0.8256
  736MOL0     C99280   0.353   3.340   2.812  0.6286 -0.8976  0.4516
  736MOL0     C99281   0.221   3.334   2.779  0.2459  0.7143 -0.4030
  736MOL0     C99282   0.174   3.407   2.664  0.0806  0.1343 -1.3800
  736MOL0     O99283   0.046   3.413   2.607  0.1896  0.0830  0.0508
  736MOL0     C99284  -0.062   3.344   2.676 -0.6453 -0.8535 -0.1062
  736MOL0     C99285  -0.180   3.308   2.581  0.0450 -0.0941 -0.4792
  736MOL0     C99286  -0.292   3.236   2.651  0.4239 -0.0237  0.3895
  736MOL0     C99287  -0.415   3.236   2.559  0.5898  0.1212  0.2741
  736MOL0     C99288  -0.509   3.144   2.616 -0.7101 -0.8544 -0.3722
  736MOL0     C99289  -0.601   3.083   2.665 -0.1166 -0.1037  0.3210
  736MOL0     C99290   0.265   3.490   2.593 -1.2489  0.5411  0.0041
  736MOL0     C99291   0.396   3.493   2.629  0.6429 -0.7550  0.6267
  736MOL0     C99292   0.476   3.607   2.568  0.4284  1.1448  0.7704
  736MOL0     H99293   0.759   3.628   2.897 -0.4538 -0.3851 -1.3738
  736MOL0     H99294   0.999   3.661   2.946  1.1720 -0.9273  0.9968
  736MOL0     H99295   1.261   3.585   2.935 -2.8270  0.8008 -0.8722
  736MOL0     H99296   1.199   3.668   3.076  1.6637 -0.2000  2.1015
  736MOL0     H99297   1.355   3.541   3.219 -0.8478  2.3431  0.1660
  736MOL0     H99298   1.410   3.681   3.137  2.9164 -0.3249  3.6149
  736MOL0     H99299   1.498   3.544   2.952  0.7943  0.4717 -0.1192
  736MOL0     H99300   1.462   3.400   3.045  2.9109 -0.7043  1.3385
  736MOL0     H99301   1.643   3.629   3.146  0.4437  0.8721  1.2154
  736MOL0     H99302   1.596   3.462   3.223  0.5999  1.6950  0.5240
  736MOL0     H99303   1.705   3.353   3.092 -0.8774 -0.1189 -0.4857
  736MOL0     H99304   1.737   3.467   2.961  1.7485 -2.4081 -0.7366
  736MOL0     H99305   1.874   3.595   3.139 -0.6773  0.5551 -0.3799
  736MOL0     H99306   1.855   3.464   3.246 -3.0484 -0.0717 -0.1369
  736MOL0     H99307   2.069   3.451   3.144 -1.7229  0.6728  1.7219
  736MOL0     H99308   2.003   3.447   2.976  1.2419  0.2906  0.5154
  736MOL0     H99309   1.971   3.230   3.196 -3.7253 -1.2966 -0.2836
  736MOL0     H99310   1.893   3.215   3.056 -0.6602  0.5993  0.5357
  736MOL0     H99311   2.207   3.138   3.208  0.8103  0.6510 -0.9153
  736MOL0     H99312   2.472   3.110   3.127  0.1090 -0.6293  0.1303
  736MOL0     H99313   2.386   2.951   3.105 -0.4222 -0.5568 -0.7604
  736MOL0     H99314   2.454   2.978   2.856  0.8729  1.9835 -0.8035
  736MOL0     H99315   2.545   3.112   2.883  0.1158  0.0843 -0.1050
  736MOL0     H99316   2.610   2.834   2.998  1.6802 -0.7431 -1.1589
  736MOL0     H99317   2.698   2.991   3.054  0.9845 -1.1222 -0.7171
  736MOL0     H99318   2.713   2.894   2.775 -2.6261  1.1887  1.6556
  736MOL0     H99319   2.834   2.867   2.901 -0.8430 -1.8430 -1.0306
  736MOL0     H99320   2.990   2.902   2.741  2.5464 -0.2078 -1.0443
  736MOL0     H99321   3.148   2.955   2.559 -2.5015 -2.8003  2.0558
  736MOL0     H99322   3.494   2.982   2.411  0.4936 -1.9554 -0.1026
  736MOL0     H99323   3.647   2.948   2.224 -0.1718 -0.1396 -1.3757
  736MOL0     H99324   3.786   3.004   2.034 -0.0724  0.2404 -0.9489
  736MOL0     H99325   3.668   2.870   1.979 -0.8969  0.3865  0.9820
  736MOL0     H99326   3.710   2.926   1.747  1.6935  1.3171 -1.5609
  736MOL0     H99327   3.795   3.075   1.790 -1.0006  1.2832  0.8293
  736MOL0     H99328   3.985   2.958   1.870 -0.9892  1.8501  0.2268
  736MOL0     H99329   3.901   2.804   1.895  0.8553 -0.2833 -0.5561
  736MOL0     H99330   3.931   2.935   1.618 -2.3456  1.6909  1.1028
  736MOL0     H99331   3.855   2.780   1.647 -0.2766  0.8280 -0.4343
  736MOL0     H99332   4.066   2.749   1.546  0.1145 -0.4918  0.9289
  736MOL0     H99333   4.050   2.673   1.711 -0.9710  2.1663  3.8583
  736MOL0     H99334   4.216   2.930   1.662  0.9918 -0.6757 -0.9395
  736MOL0     H99335   4.192   2.845   1.808 -1.6279  2.6049 -0.6801
  736MOL0     H99336   4.262   2.626   1.674  0.6332 -1.0805  0.0102
  736MOL0     H99337   4.391   2.732   1.730 -0.8261  1.0867  1.5801
  736MOL0     H99338   4.441   2.672   1.501 -0.5786 -0.3927 -0.0694
  736MOL0     H99339   4.284   2.743   1.443 -0.6244  4.1223 -0.6451
  736MOL0     H99340   3.365   3.164   1.968 -1.2478  0.1772 -0.0042
  736MOL0     H99341   3.210   3.188   2.167  0.1175  0.6776  4.8659
  736MOL0     H99342   2.978   3.358   2.545 -0.0317 -1.0648 -0.9660
  736MOL0     H99343   2.843   3.309   2.745 -1.0490 -0.1918  0.7072
  736MOL0     H99344   1.030   3.266   3.078  1.7918  2.1665  0.5322
  736MOL0     H99345   0.800   3.201   2.991 -1.0947  0.2405 -0.3130
  736MOL0     H99346   0.395   3.278   2.891  1.0842  0.7790  1.5811
  736MOL0     H99347   0.149   3.271   2.831 -0.7039  0.1989 -2.2462
  736MOL0     H99348  -0.104   3.416   2.747  0.6714 -1.2181  1.0849
  736MOL0     H99349  -0.033   3.258   2.736  1.7346 -1.7724 -2.4173
  736MOL0     H99350  -0.150   3.243   2.499 -1.3674 -1.4474  0.0211
  736MOL0     H99351  -0.216   3.401   2.536  2.4433  0.0579 -2.2365
  736MOL0     H99352  -0.313   3.277   2.750 -1.9190  1.3438 -0.6068
  736MOL0     H99353  -0.262   3.131   2.659  2.8588  0.3228 -2.4330
  736MOL0     H99354  -0.460   3.335   2.561  1.3058  0.4646 -0.1782
  736MOL0     H99355  -0.389   3.207   2.456  0.0711 -0.3341  0.2645
  736MOL0     H99356  -0.685   3.035   2.711 -2.0775  2.6365 -0.1672
  736MOL0     H99357   0.227   3.566   2.525  0.3234  1.4801  0.1301
  736MOL0     H99358   0.525   3.666   2.646 -0.0099  0.6335  1.4484
  736MOL0     H99359   0.556   3.568   2.504 -1.3079  0.4453 -1.0788
  736MOL0     H99360   0.414   3.675   2.509  1.1625  1.0933 -0.0788
  737MOL0     O99361  11.076   5.675   7.076 -0.5237  0.2900 -1.2039
  737MOL0     C99362  11.097   5.564   7.133 -0.2594 -0.0833 -0.5539
  737MOL0     O99363  11.182   5.543   7.243  0.0440  0.5964  0.3102
  737MOL0     C99364  11.280   5.627   7.286  0.4742  0.0063  1.2268
  737MOL0     C99365  11.317   5.750   7.217 -0.5428  0.5417  0.3342
  737MOL0     C99366  11.428   5.827   7.257 -0.2043 -0.7411  0.0684
  737MOL0     C99367  11.493   5.793   7.375 -0.3711  0.0361 -0.3858
  737MOL0     O99368  11.604   5.863   7.417 -0.1140 -0.6999 -0.2565
  737MOL0     C99369  11.697   5.805   7.508  0.6289 -0.5798  0.1512
  737MOL0     C99370  11.835   5.876   7.503 -0.0590 -0.9082  0.1945
  737MOL0     C99371  11.922   5.808   7.617  0.1750  0.9214  0.0201
  737MOL0     C99372  11.927   5.660   7.613 -0.2926 -0.0771 -0.9737
  737MOL0     C99373  12.064   5.607   7.668  1.2776  0.6126 -0.0909
  737MOL0     C99374  12.193   5.635   7.592 -0.0355  0.3907 -0.7681
  737MOL0     C99375  12.315   5.567   7.667  0.5759 -0.1600 -0.4562
  737MOL0     C99376  12.319   5.603   7.819  0.0851  0.7827  0.4604
  737MOL0     N99377  12.423   5.539   7.893  0.4394 -0.1124 -0.2643
  737MOL0     C99378  12.553   5.597   7.904  0.5089 -0.3044 -0.9108
  737MOL0     C99379  12.610   5.520   8.000 -0.1479  0.5429  0.7729
  737MOL0     C99380  12.722   5.552   8.090  0.0889 -0.5449  0.3266
  737MOL0     C99381  12.817   5.652   8.012  0.4753  0.5547 -0.1639
  737MOL0     C99382  12.900   5.586   7.902 -0.5959 -0.3022  0.0002
  737MOL0     C99383  12.995   5.687   7.827  0.1675  0.8369  0.0105
  737MOL0     O99384  13.109   5.711   7.903 -0.4004  0.0958  0.5503
  737MOL0     C99385  13.195   5.805   7.854 -0.2571 -0.9049  0.6804
  737MOL0     C99386  13.178   5.869   7.722 -0.2026  0.4345 -0.9672
  737MOL0     C99387  13.278   5.944   7.666  0.0463  0.3311 -1.1729
  737MOL0     C99388  13.392   5.982   7.742 -0.3994 -0.4864 -0.5360
  737MOL0     C99389  13.487   6.087   7.692 -0.0986 -0.9146 -0.3374
  737MOL0     O99390  13.600   6.106   7.763 -0.1416 -0.2919 -0.7674
  737MOL0     C99391  13.695   6.193   7.714  0.2707 -1.1041 -0.9206
  737MOL0     C99392  13.765   6.151   7.602  0.7745 -0.2803 -0.0576
  737MOL0     C99393  13.839   6.236   7.521  0.2545  0.1821  0.0966
  737MOL0     C99394  13.864   6.362   7.574  0.9248  0.2421 -0.0659
  737MOL0     O99395  13.941   6.447   7.493 -0.0470  0.0248 -0.3006
  737MOL0     C99396  13.993   6.561   7.560 -0.2413  0.5333 -0.7611
  737MOL0     C99397  14.066   6.643   7.460 -0.5080  0.0441  0.6401
  737MOL0     C99398  14.118   6.770   7.528  0.1000 -0.0104  0.0441
  737MOL0     C99399  14.245   6.815   7.469  0.1431  0.0851 -0.2175
  737MOL0     C99400  14.302   6.942   7.528 -0.4725  0.1291  0.7036
  737MOL0     C99401  14.404   7.006   7.431 -0.4087 -0.5174 -0.2642
  737MOL0     C99402  14.543   6.931   7.420  0.5204 -0.2862  0.1357
  737MOL0     C99403  14.636   7.024   7.334 -0.0829  0.4139  0.5718
  737MOL0    Cl99404  14.685   7.163   7.434 -0.4666  0.0592  0.2457
  737MOL0     C99405  13.797   6.406   7.696  0.2139  0.1673  0.0658
  737MOL0     C99406  13.703   6.323   7.761 -0.1822  0.0319 -0.0524
  737MOL0     O99407  13.460   6.130   7.571 -0.7157  0.6490  0.0736
  737MOL0     C99408  13.411   5.923   7.869 -0.0143 -0.4346 -0.2562
  737MOL0     C99409  13.311   5.827   7.921 -0.4783  0.1488  0.4175
  737MOL0     N99410  12.529   5.406   8.018 -0.2681  0.5905 -0.1297
  737MOL0     N99411  12.415   5.426   7.963 -0.1533 -0.1970  0.5488
  737MOL0     C99412  11.449   5.687   7.445  0.6977 -0.0850  0.6913
  737MOL0     C99413  11.342   5.607   7.409  0.4232  0.1035  0.2604
  737MOL0     C99414  11.020   5.433   7.081  0.6118  0.2307  0.0154
  737MOL0     C99415  11.043   5.307   7.142 -0.4647 -1.1065 -0.0138
  737MOL0     C99416  10.991   5.190   7.091  0.2226  0.6883  0.0062
  737MOL0     C99417  10.903   5.183   6.983  0.3858 -0.7666 -0.7148
  737MOL0     O99418  10.851   5.063   6.954  0.0705 -0.0168  0.0154
  737MOL0     C99419  10.739   5.068   6.861 -0.2860 -0.0853  0.6685
  737MOL0     C99420  10.697   4.925   6.810 -0.1197  0.2672 -0.8157
  737MOL0     C99421  10.631   4.840   6.922  0.2899  0.2620 -0.7659
  737MOL0     C99422  10.585   4.701   6.868 -0.2187 -0.9414  0.4460
  737MOL0     C99423  10.701   4.618   6.836  0.2051  0.7932  0.3389
  737MOL0     C99424  10.799   4.540   6.809  0.7174 -0.0186 -0.4691
  737MOL0     C99425  10.879   5.304   6.923  0.3112 -0.2795 -0.2864
  737MOL0     C99426  10.936   5.425   6.970  0.0805  0.0514  0.5451
  737MOL0     C99427  10.901   5.542   6.889 -0.2383 -0.4740 -0.5694
  737MOL0     H99428  11.266   5.787   7.128  2.2751  0.3179 -1.5105
  737MOL0     H99429  11.457   5.918   7.206 -2.4257  0.3571  0.6717
  737MOL0     H99430  11.656   5.815   7.609 -0.7598 -0.1220 -0.4303
  737MOL0     H99431  11.717   5.703   7.475 -1.4906 -1.0091  0.0301
  737MOL0     H99432  11.823   5.981   7.528  1.9688 -0.6842  0.4182
  737MOL0     H99433  11.879   5.879   7.403  1.1718 -0.5858  0.7251
  737MOL0     H99434  11.879   5.839   7.713 -3.3469  1.6617 -1.6551
  737MOL0     H99435  12.022   5.852   7.607  2.0596 -3.0443 -0.4587
  737MOL0     H99436  11.842   5.622   7.671 -0.2036  1.1861  0.0205
  737MOL0     H99437  11.920   5.633   7.507 -0.3415  1.3074 -1.3433
  737MOL0     H99438  12.075   5.661   7.762 -0.0924  1.6477 -0.5021
  737MOL0     H99439  12.062   5.502   7.699 -1.4793  0.5314 -0.2731
  737MOL0     H99440  12.184   5.607   7.487 -0.2502  5.0984 -2.1993
  737MOL0     H99441  12.221   5.737   7.617  2.2039 -0.3506 -0.0278
  737MOL0     H99442  12.400   5.605   7.609  1.9793  0.4932  1.9103
  737MOL0     H99443  12.315   5.459   7.654 -0.8739 -0.3644  0.9625
  737MOL0     H99444  12.317   5.709   7.847 -1.7250  0.4775  1.7285
  737MOL0     H99445  12.232   5.553   7.863  0.6236  2.0545  3.2011
  737MOL0     H99446  12.593   5.688   7.861  2.9154 -0.4901  0.7347
  737MOL0     H99447  12.692   5.601   8.183  3.2829 -0.6777  1.5654
  737MOL0     H99448  12.773   5.459   8.116  2.2210  0.4859  0.0591
  737MOL0     H99449  12.770   5.746   7.980  2.9940  1.4175 -1.6769
  737MOL0     H99450  12.894   5.686   8.083 -0.2352 -0.1409  0.9711
  737MOL0     H99451  12.826   5.543   7.833 -3.3531  2.7769  0.7917
  737MOL0     H99452  12.962   5.517   7.960 -2.2506 -0.9468  1.0636
  737MOL0     H99453  12.933   5.776   7.811  1.3029  1.6754  0.1339
  737MOL0     H99454  13.027   5.653   7.728  3.3069  0.9085  0.8840
  737MOL0     H99455  13.089   5.859   7.661 -0.4579  1.3790 -0.7553
  737MOL0     H99456  13.263   5.983   7.566  1.4790 -1.1209 -1.9968
  737MOL0     H99457  13.761   6.049   7.565 -0.0499 -1.0697  2.0348
  737MOL0     H99458  13.880   6.198   7.428 -1.1842 -1.5426  0.1036
  737MOL0     H99459  13.917   6.626   7.606 -0.7696 -0.2037 -0.5734
  737MOL0     H99460  14.061   6.529   7.640 -2.9201  1.9648  2.3244
  737MOL0     H99461  14.150   6.582   7.425 -0.7645  0.3463 -0.5463
  737MOL0     H99462  14.000   6.673   7.379  0.3225 -1.4035 -0.6325
  737MOL0     H99463  14.053   6.858   7.518  0.2744  0.1780  0.5624
  737MOL0     H99464  14.137   6.757   7.634  0.9224 -1.7263 -0.2803
  737MOL0     H99465  14.233   6.816   7.360 -0.0112 -2.7518 -0.3154
  737MOL0     H99466  14.312   6.731   7.491 -1.0271 -0.5497  1.0426
  737MOL0     H99467  14.351   6.923   7.623  0.9036  1.9622  0.4196
  737MOL0     H99468  14.213   7.004   7.549  0.2234  1.2551  0.4222
  737MOL0     H99469  14.358   7.026   7.334  0.5684 -1.1100 -0.8662
  737MOL0     H99470  14.416   7.099   7.487 -2.1998 -0.0886 -0.5277
  737MOL0     H99471  14.528   6.828   7.387 -3.2642  0.5899 -1.3428
  737MOL0     H99472  14.592   6.925   7.518  3.3503 -3.9817 -1.2880
  737MOL0     H99473  14.729   6.972   7.310 -0.6140 -1.6151  2.6086
  737MOL0     H99474  14.580   7.041   7.242 -2.9336 -1.0395  1.9232
  737MOL0     H99475  13.808   6.509   7.729  1.2418  0.5066 -1.2558
  737MOL0     H99476  13.650   6.356   7.850  0.9855  1.3222  0.2149
  737MOL0     H99477  13.498   5.936   7.933  0.2465 -1.2946 -0.4191
  737MOL0     H99478  13.311   5.770   8.013 -1.0701 -5.8093 -2.7354
  737MOL0     H99479  11.489   5.644   7.536 -3.7737 -2.1237  2.0000
  737MOL0     H99480  11.305   5.522   7.465 -3.4070  0.1241 -1.9156
  737MOL0     H99481  11.104   5.298   7.232 -1.5224 -1.0810  0.7327
  737MOL0     H99482  11.038   5.104   7.139  1.3593  2.2650  1.8768
  737MOL0     H99483  10.767   5.125   6.772 -1.9601  0.3774  0.3909
  737MOL0     H99484  10.654   5.112   6.914  1.0781  0.3024  2.6274
  737MOL0     H99485  10.778   4.863   6.771 -1.5797 -0.5047 -2.8585
  737MOL0     H99486  10.623   4.942   6.731 -2.4993  0.3238  1.3148
  737MOL0     H99487  10.534   4.889   6.937  1.2374  2.3805 -1.1678
  737MOL0     H99488  10.697   4.835   7.009  1.6269  3.4339 -1.4384
  737MOL0     H99489  10.528   4.654   6.949 -2.1960 -0.9164 -0.8701
  737MOL0     H99490  10.518   4.718   6.783  0.7642  2.5966  0.2207
  737MOL0     H99491  10.879   4.470   6.800  1.7676  1.1606 -0.5059
  737MOL0     H99492  10.807   5.304   6.842 -1.8824  2.2695  1.4923
  737MOL0     H99493  10.856   5.617   6.955  1.7121 -1.0065  1.4975
  737MOL0     H99494  10.986   5.591   6.841 -0.2614 -0.2789 -0.4120
  737MOL0     H99495  10.824   5.515   6.816 -2.1847 -0.1897  1.2754
  738MOL0     O99496   5.135   5.757   9.988 -0.1782 -0.2024 -0.1802
  738MOL0     C99497   5.074   5.822   9.907  0.5745  0.1408 -0.2261
  738MOL0     O99498   5.127   5.940   9.848 -0.1853 -0.0850  0.2982
  738MOL0     C99499   5.262   5.978   9.868 -0.4703  0.3231  0.8013
  738MOL0     C99500   5.325   6.016   9.746 -0.5068 -0.3427 -0.1887
  738MOL0     C99501   5.459   6.054   9.743 -0.6604 -0.2584  0.0798
  738MOL0     C99502   5.540   6.060   9.857 -0.1355 -0.2477  0.6732
  738MOL0     O99503   5.671   6.107   9.841 -0.1584  0.8547 -0.1239
  738MOL0     C99504   5.745   6.024   9.746  0.4826  0.0310  0.8585
  738MOL0     C99505   5.891   6.015   9.779 -0.5650  0.4960 -0.1660
  738MOL0     C99506   5.971   5.961   9.662  0.6187 -0.2008  0.1659
  738MOL0     C99507   6.120   5.964   9.696  0.0236 -0.1643  0.2177
  738MOL0     C99508   6.212   5.913   9.591 -0.4309  0.8885 -0.8921
  738MOL0     C99509   6.355   5.901   9.651 -0.4658 -0.1142 -0.9539
  738MOL0     C99510   6.453   5.881   9.534  0.1255 -0.0494  0.1739
  738MOL0     C99511   6.600   5.933   9.568  0.3536  0.3592 -0.1538
  738MOL0     N99512   6.664   5.957   9.436 -0.2145 -0.0343 -0.8002
  738MOL0     C99513   6.758   5.874   9.386  0.5373 -0.5630 -0.4465
  738MOL0     C99514   6.798   5.924   9.264  0.1276  0.5604 -0.3142
  738MOL0     C99515   6.910   5.884   9.173  0.1398 -0.4308 -0.0407
  738MOL0     C99516   6.885   5.749   9.108 -0.2156  0.7205 -0.7420
  738MOL0     C99517   6.956   5.730   8.980 -0.5569  0.1993  0.4305
  738MOL0     C99518   7.115   5.709   8.996  0.0143 -0.6151  0.2424
  738MOL0     O99519   7.182   5.843   9.001  0.4633  0.1615 -0.0382
  738MOL0     C99520   7.317   5.858   9.006  0.3036 -0.0695 -0.5940
  738MOL0     C99521   7.413   5.761   8.974 -0.0919  0.0075 -0.1640
  738MOL0     C99522   7.548   5.781   8.984  0.0688  0.9212  0.5121
  738MOL0     C99523   7.601   5.903   9.018 -0.3371 -0.0402  0.2935
  738MOL0     C99524   7.752   5.921   9.031  0.9668  0.5497 -0.7727
  738MOL0     O99525   7.821   5.807   9.057 -0.2540 -0.4100  0.0938
  738MOL0     C99526   7.958   5.812   9.041  0.0611  0.1211 -0.0857
  738MOL0     C99527   8.035   5.750   9.142  1.2856  0.1788 -0.5880
  738MOL0     C99528   8.172   5.731   9.122  0.1421 -0.1467 -0.4329
  738MOL0     C99529   8.240   5.775   9.011 -0.7141 -0.0137 -0.2385
  738MOL0     O99530   8.382   5.762   8.993  0.0879  0.1192  0.3737
  738MOL0     C99531   8.449   5.644   9.031  0.5589  0.6199 -0.2321
  738MOL0     C99532   8.559   5.616   8.925  0.0732 -0.3398  0.4095
  738MOL0     C99533   8.682   5.545   8.985  0.5795 -0.4822  0.6756
  738MOL0     C99534   8.738   5.454   8.877 -0.6316  0.7710 -0.2508
  738MOL0     C99535   8.872   5.402   8.926 -0.8126  0.4091  0.3115
  738MOL0     C99536   8.959   5.354   8.805 -0.2032 -0.1357  1.2786
  738MOL0     C99537   9.087   5.301   8.853 -0.3959  0.5388  0.6792
  738MOL0     C99538   9.182   5.265   8.735 -0.5707  0.0528  0.1407
  738MOL0    Cl99539   9.314   5.168   8.797  0.1604 -0.3320  0.5010
  738MOL0     C99540   8.170   5.840   8.912 -0.1556 -1.2801  0.1014
  738MOL0     C99541   8.024   5.852   8.923 -0.3344  0.0087 -0.4635
  738MOL0     O99542   7.795   6.034   9.052  0.7574  0.6459  0.2174
  738MOL0     C99543   7.504   6.007   9.045 -0.8301  0.4523  0.1855
  738MOL0     C99544   7.369   5.988   9.039  0.1812  0.2738 -0.2444
  738MOL0     N99545   6.732   6.048   9.256  0.1023  0.3033 -0.0724
  738MOL0     N99546   6.641   6.056   9.353 -0.7954 -0.0066  0.3781
  738MOL0     C99547   5.486   6.020   9.978 -0.5055  0.0108 -0.1357
  738MOL0     C99548   5.349   5.979   9.982  0.9796  0.6652  0.4128
  738MOL0     C99549   4.942   5.769   9.849 -0.2374 -0.0439  0.0078
  738MOL0     C99550   4.905   5.835   9.735  0.1944 -0.0511 -0.1352
  738MOL0     C99551   4.789   5.795   9.674  0.6652  0.0068  0.1851
  738MOL0     C99552   4.712   5.689   9.723  0.4501 -0.9075 -0.5736
  738MOL0     O99553   4.596   5.639   9.673 -0.1330  0.1985  0.3969
  738MOL0     C99554   4.584   5.635   9.533 -0.0641 -0.1647 -0.1597
  738MOL0     C99555   4.441   5.583   9.502 -0.2174 -0.8629  0.2506
  738MOL0     C99556   4.439   5.431   9.538 -0.6090 -0.1310  0.2772
  738MOL0     C99557   4.308   5.357   9.501 -0.5143  0.6704 -0.1096
  738MOL0     C99558   4.286   5.341   9.359  0.3554  0.2142  0.0765
  738MOL0     C99559   4.299   5.336   9.236 -0.5660  0.2496 -0.5659
  738MOL0     C99560   4.753   5.623   9.838  0.4752  0.1594  0.4923
  738MOL0     C99561   4.872   5.663   9.906  0.8848  0.0809  0.4782
  738MOL0     C99562   4.908   5.583  10.026  0.4756 -0.8513 -0.0676
  738MOL0     H99563   5.258   6.016   9.661  2.0349 -0.8157 -2.3200
  738MOL0     H99564   5.493   6.064   9.641  0.2042 -1.4399  0.2343
  738MOL0     H99565   5.704   5.923   9.750 -2.0222  0.9668  0.6217
  738MOL0     H99566   5.727   6.060   9.644 -0.0696 -0.6006  0.7236
  738MOL0     H99567   5.913   5.948   9.863  1.9430  2.1471  0.5900
  738MOL0     H99568   5.927   6.116   9.799  2.9362 -0.8808  1.2250
  738MOL0     H99569   5.962   6.023   9.572  0.1799  0.1305  0.4323
  738MOL0     H99570   5.922   5.871   9.625 -0.4807  0.6482 -0.4844
  738MOL0     H99571   6.148   6.066   9.722 -1.3103  1.1408 -2.9278
  738MOL0     H99572   6.129   5.890   9.776  3.4183 -2.1433 -1.7356
  738MOL0     H99573   6.170   5.817   9.559  1.7301 -0.0552 -1.0126
  738MOL0     H99574   6.207   5.997   9.520 -0.9102 -0.2288 -2.2225
  738MOL0     H99575   6.375   5.996   9.701 -5.2934  0.1476  1.0178
  738MOL0     H99576   6.371   5.825   9.729  2.9346  1.6382  0.2658
  738MOL0     H99577   6.413   5.936   9.449 -0.8731  0.5872  1.0371
  738MOL0     H99578   6.454   5.778   9.497  0.0154 -0.3192  0.8963
  738MOL0     H99579   6.604   6.029   9.620 -0.2137  0.1142  0.3511
  738MOL0     H99580   6.643   5.851   9.626 -0.5242  0.4118  0.5919
  738MOL0     H99581   6.785   5.779   9.430 -1.5083 -1.0837 -0.2090
  738MOL0     H99582   6.918   5.954   9.089  1.5774 -2.9408 -2.1500
  738MOL0     H99583   7.004   5.888   9.229 -0.0789  1.2827  0.2703
  738MOL0     H99584   6.917   5.675   9.183 -1.8943 -0.6730 -1.3210
  738MOL0     H99585   6.779   5.724   9.091  0.2934 -1.4274 -1.1407
  738MOL0     H99586   6.946   5.815   8.912  1.0474  1.9372  2.2206
  738MOL0     H99587   6.913   5.639   8.938  1.3462 -1.1168  1.2128
  738MOL0     H99588   7.150   5.647   8.913  0.4097  0.7030 -0.6028
  738MOL0     H99589   7.134   5.664   9.094  1.2995 -2.1628 -0.6523
  738MOL0     H99590   7.399   5.656   8.952  1.9289 -0.8175  2.0429
  738MOL0     H99591   7.612   5.696   8.962  0.2365  1.6020 -2.0074
  738MOL0     H99592   7.976   5.713   9.225 -1.6579 -0.9111 -3.0074
  738MOL0     H99593   8.215   5.683   9.209 -0.8942 -0.1846  0.0746
  738MOL0     H99594   8.488   5.644   9.133  0.2635  0.4295 -0.1171
  738MOL0     H99595   8.379   5.560   9.028 -1.1100  1.9985 -1.2009
  738MOL0     H99596   8.521   5.547   8.850 -0.3598 -0.7697  1.0206
  738MOL0     H99597   8.582   5.715   8.884 -1.8898  0.4492  1.1086
  738MOL0     H99598   8.755   5.621   9.014 -0.4184  0.8556 -0.1788
  738MOL0     H99599   8.650   5.498   9.079  0.4164 -1.2571  0.2357
  738MOL0     H99600   8.732   5.505   8.780 -1.3905 -1.1802 -1.2777
  738MOL0     H99601   8.675   5.366   8.866  1.8662 -1.2400  0.4416
  738MOL0     H99602   8.859   5.322   9.000 -1.4777 -1.2699 -1.5330
  738MOL0     H99603   8.921   5.485   8.978 -0.1475  1.9704 -2.6137
  738MOL0     H99604   8.916   5.281   8.736  2.2638 -2.2669  1.7973
  738MOL0     H99605   8.985   5.438   8.740  2.5988 -2.2651 -0.5934
  738MOL0     H99606   9.078   5.206   8.907 -0.0503 -1.0421 -1.8394
  738MOL0     H99607   9.135   5.374   8.918  2.9466 -1.4578  0.6960
  738MOL0     H99608   9.139   5.213   8.649 -0.0162 -0.2643  0.0506
  738MOL0     H99609   9.218   5.361   8.696  3.7481 -2.3956 -2.7453
  738MOL0     H99610   8.222   5.882   8.827  0.9782 -0.8378  0.9822
  738MOL0     H99611   7.971   5.885   8.834  0.5092 -0.7936 -1.3069
  738MOL0     H99612   7.542   6.106   9.066 -1.2082  1.0413 -1.7500
  738MOL0     H99613   7.299   6.061   9.077  0.6416  0.5509  0.0731
  738MOL0     H99614   5.548   6.028  10.066  1.5040  0.2406 -1.5163
  738MOL0     H99615   5.307   5.947  10.077 -0.3413 -1.8188 -0.8926
  738MOL0     H99616   4.954   5.926   9.702  0.5516 -0.6098 -1.2133
  738MOL0     H99617   4.758   5.850   9.586 -2.1109 -1.3957  0.1603
  738MOL0     H99618   4.657   5.565   9.491  0.8072  0.1721  0.7402
  738MOL0     H99619   4.607   5.734   9.494  1.6029  0.5930  2.4783
  738MOL0     H99620   4.414   5.599   9.398 -2.7143 -1.6065  0.7219
  738MOL0     H99621   4.376   5.632   9.575  0.4598 -0.1103  0.3561
  738MOL0     H99622   4.466   5.414   9.643 -0.8972  1.1718  0.5731
  738MOL0     H99623   4.519   5.384   9.479 -1.5134 -0.1771 -0.9337
  738MOL0     H99624   4.312   5.259   9.550  0.5031  0.3887 -0.7362
  738MOL0     H99625   4.215   5.406   9.532 -2.1330 -1.5260 -1.2083
  738MOL0     H99626   4.288   5.335   9.130 -1.9846  0.8281 -0.4562
  738MOL0     H99627   4.705   5.531   9.868  2.3354 -0.9843  0.1309
  738MOL0     H99628   5.006   5.534  10.024  0.3106 -1.5903  3.7993
  738MOL0     H99629   4.900   5.637  10.120  0.6444 -1.0644  0.0715
  738MOL0     H99630   4.842   5.497  10.039  1.8396 -1.6325  2.1693
  739MOL0     O99631   3.614   2.516   7.298 -1.2986  0.1544 -0.3173
  739MOL0     C99632   3.538   2.502   7.207 -0.7170 -0.2114  0.8133
  739MOL0     O99633   3.565   2.415   7.100  0.0042  0.1116 -0.4232
  739MOL0     C99634   3.684   2.338   7.083  0.5129 -0.4177 -0.3798
  739MOL0     C99635   3.673   2.225   7.005  0.4050 -0.4888  0.2255
  739MOL0     C99636   3.790   2.148   6.975 -0.2941 -0.0716 -0.2610
  739MOL0     C99637   3.912   2.190   7.022 -0.1329 -0.6881  0.0267
  739MOL0     O99638   4.016   2.106   6.999 -0.2996 -0.4086 -0.2199
  739MOL0     C99639   4.112   2.087   7.102 -0.0186  0.4034 -0.8710
  739MOL0     C99640   4.183   1.956   7.068  0.2602  0.3640  0.4089
  739MOL0     C99641   4.310   1.984   6.985  0.1099  0.2685 -0.3484
  739MOL0     C99642   4.387   1.856   6.970  0.2144  0.3090 -0.3313
  739MOL0     C99643   4.507   1.876   6.885  0.1987 -0.3570  0.5056
  739MOL0     C99644   4.567   1.746   6.832 -0.5284 -0.2420  0.1502
  739MOL0     C99645   4.683   1.770   6.740 -0.4556 -0.7075  0.5951
  739MOL0     C99646   4.721   1.648   6.647 -0.4335  0.2485  0.4747
  739MOL0     N99647   4.828   1.685   6.552 -0.7574  0.2173 -0.2045
  739MOL0     C99648   4.940   1.752   6.577  0.1368  0.0889 -1.0098
  739MOL0     C99649   4.968   1.808   6.456  0.0083 -0.1616 -0.0892
  739MOL0     C99650   5.097   1.892   6.434 -0.5358 -0.7739 -0.1030
  739MOL0     C99651   5.220   1.804   6.421 -0.6510 -0.0265 -0.2177
  739MOL0     C99652   5.211   1.691   6.323 -0.2438  0.2315 -0.5835
  739MOL0     C99653   5.343   1.624   6.289 -0.6751 -0.0154 -0.2025
  739MOL0     O99654   5.422   1.580   6.406  0.0029  0.2974  0.4714
  739MOL0     C99655   5.558   1.559   6.385 -0.6271 -0.8948 -0.1649
  739MOL0     C99656   5.623   1.509   6.497  0.0089 -0.4659  0.2727
  739MOL0     C99657   5.761   1.496   6.496 -0.0061 -0.1650 -0.0085
  739MOL0     C99658   5.845   1.515   6.379  0.4645 -0.1609 -0.1596
  739MOL0     C99659   5.993   1.499   6.363  0.0246 -0.8083 -0.4166
  739MOL0     O99660   6.056   1.542   6.250  0.3506 -1.0351 -0.4461
  739MOL0     C99661   6.184   1.513   6.240 -0.7234  0.4477  0.1299
  739MOL0     C99662   6.283   1.539   6.340  1.3970  0.1023  0.2094
  739MOL0     C99663   6.418   1.526   6.315  0.0594  0.3697  0.3501
  739MOL0     C99664   6.462   1.477   6.196  0.1710  0.6326  0.5145
  739MOL0     O99665   6.594   1.446   6.191 -0.0426  1.1532  0.2471
  739MOL0     C99666   6.648   1.374   6.074  0.4989 -0.9178 -0.4616
  739MOL0     C99667   6.793   1.339   6.111 -0.4517  0.5118 -0.2663
  739MOL0     C99668   6.851   1.254   5.998  0.1260 -0.0876 -1.1189
  739MOL0     C99669   6.997   1.235   6.025 -0.9379  0.8312  0.2279
  739MOL0     C99670   7.067   1.113   5.958 -0.3902 -0.0269 -0.8561
  739MOL0     C99671   7.047   1.097   5.797 -0.7489  0.0488  0.5812
  739MOL0     C99672   7.119   0.978   5.741  0.6016  0.2750 -0.4596
  739MOL0     C99673   7.128   0.958   5.588  0.0931  0.3329 -0.4776
  739MOL0    Cl99674   6.972   0.955   5.528 -0.1837 -0.6718 -0.1738
  739MOL0     C99675   6.367   1.458   6.089 -0.6674 -0.4987  0.0373
  739MOL0     C99676   6.234   1.465   6.120  0.2201 -0.4652 -0.0934
  739MOL0     O99677   6.048   1.454   6.462  0.5782 -0.5078 -0.3427
  739MOL0     C99678   5.773   1.560   6.261 -0.4643 -0.7856  0.9120
  739MOL0     C99679   5.634   1.575   6.268 -0.9851 -0.5077  0.6622
  739MOL0     N99680   4.888   1.761   6.353 -0.1786 -0.1087  0.2196
  739MOL0     N99681   4.800   1.694   6.414 -0.3539  0.2023 -1.0372
  739MOL0     C99682   3.917   2.306   7.102 -0.9306  0.6609  0.0805
  739MOL0     C99683   3.806   2.375   7.137  0.2842 -0.3122  0.2860
  739MOL0     C99684   3.413   2.584   7.199  0.5289 -0.0435 -0.2280
  739MOL0     C99685   3.308   2.531   7.119  0.2839  0.3971  0.0067
  739MOL0     C99686   3.177   2.585   7.123  0.2976 -0.2187  0.3752
  739MOL0     C99687   3.147   2.704   7.197  0.2495 -0.3683 -0.7365
  739MOL0     O99688   3.028   2.768   7.218 -0.3158 -0.4246 -0.4532
  739MOL0     C99689   2.918   2.722   7.138  0.1319  0.6979 -0.2216
  739MOL0     C99690   2.784   2.768   7.188 -0.0972 -0.3398  0.2611
  739MOL0     C99691   2.676   2.703   7.099  0.5712  1.0095 -0.1460
  739MOL0     C99692   2.657   2.798   6.979  0.8201 -0.0617  0.2873
  739MOL0     C99693   2.564   2.908   7.003 -0.2004  0.3025 -0.6778
  739MOL0     C99694   2.483   2.991   7.029 -0.7213 -0.1264 -0.1889
  739MOL0     C99695   3.255   2.762   7.269  0.4381  0.3885  0.4904
  739MOL0     C99696   3.384   2.705   7.273 -0.5549  0.8684 -0.3668
  739MOL0     C99697   3.489   2.761   7.365  0.0928 -1.1152  0.3563
  739MOL0     H99698   3.581   2.188   6.961  0.0475  1.8758 -1.1492
  739MOL0     H99699   3.790   2.057   6.915  2.5660 -0.3870  0.1108
  739MOL0     H99700   4.176   2.174   7.122 -0.2737  0.2249  0.8482
  739MOL0     H99701   4.064   2.067   7.198  1.3686 -3.7309 -0.8539
  739MOL0     H99702   4.109   1.887   7.028  0.4828 -0.6515  1.6473
  739MOL0     H99703   4.219   1.905   7.158  0.4224 -3.4210 -1.6111
  739MOL0     H99704   4.378   2.051   7.039  0.4408 -1.0190  0.8810
  739MOL0     H99705   4.288   2.012   6.882  3.3227 -0.5084 -1.3552
  739MOL0     H99706   4.414   1.825   7.071 -1.0145  2.2899  0.6821
  739MOL0     H99707   4.322   1.784   6.920  2.5828 -2.0497 -0.2140
  739MOL0     H99708   4.480   1.944   6.804  1.3523 -1.0991 -0.5303
  739MOL0     H99709   4.578   1.927   6.951 -1.1492  0.1979  1.5798
  739MOL0     H99710   4.591   1.693   6.925 -0.1984  0.4739  0.4809
  739MOL0     H99711   4.489   1.692   6.779 -1.7584 -0.6396  2.2377
  739MOL0     H99712   4.770   1.807   6.795 -0.3815  2.8954 -1.6411
  739MOL0     H99713   4.658   1.851   6.671 -1.3846 -0.5136  1.1474
  739MOL0     H99714   4.769   1.569   6.706  0.3438  1.1331  1.0761
  739MOL0     H99715   4.642   1.599   6.591 -0.1445  0.7407 -0.3848
  739MOL0     H99716   4.991   1.760   6.673 -0.5878 -1.1626 -0.5093
  739MOL0     H99717   5.077   1.956   6.348 -1.6241  0.0349  0.7215
  739MOL0     H99718   5.128   1.958   6.516  1.9501  0.7760 -2.1715
  739MOL0     H99719   5.309   1.861   6.393  0.4384 -0.5286  2.0430
  739MOL0     H99720   5.245   1.761   6.518  1.0587 -1.2450 -1.1419
  739MOL0     H99721   5.169   1.730   6.231  1.0414  0.7712 -0.9684
  739MOL0     H99722   5.149   1.607   6.354  0.9379 -0.5461 -0.2388
  739MOL0     H99723   5.401   1.690   6.226 -1.0938  1.2447  0.6929
  739MOL0     H99724   5.322   1.532   6.234 -0.1840 -0.3638  0.1836
  739MOL0     H99725   5.570   1.497   6.590 -2.4146 -1.5531 -1.1527
  739MOL0     H99726   5.804   1.488   6.595  1.1242  2.4798 -0.1990
  739MOL0     H99727   6.261   1.588   6.435 -0.6368 -0.0311 -0.1454
  739MOL0     H99728   6.495   1.547   6.389  0.2870 -1.3261  0.6190
  739MOL0     H99729   6.598   1.280   6.048  3.0923 -3.3131  2.3217
  739MOL0     H99730   6.647   1.446   5.992 -1.5003 -1.3934 -0.8961
  739MOL0     H99731   6.851   1.432   6.108  0.3322  0.3020  3.6494
  739MOL0     H99732   6.812   1.296   6.209 -0.4036 -2.6789 -1.5559
  739MOL0     H99733   6.808   1.153   5.999  1.0295 -0.4988 -1.6619
  739MOL0     H99734   6.825   1.288   5.897 -2.3583  1.5499 -0.0057
  739MOL0     H99735   7.009   1.220   6.132  0.5512 -0.7761 -0.1161
  739MOL0     H99736   7.051   1.321   5.984  3.2460 -0.5324  2.3069
  739MOL0     H99737   7.013   1.034   6.012  1.8245  1.1485  3.5743
  739MOL0     H99738   7.170   1.109   5.995 -1.3910 -0.4837  2.2263
  739MOL0     H99739   6.940   1.076   5.787 -0.3704 -1.6006 -0.3002
  739MOL0     H99740   7.075   1.190   5.745 -1.0237  0.9638  2.0118
  739MOL0     H99741   7.070   0.886   5.774  1.5818 -0.3179 -0.6400
  739MOL0     H99742   7.224   0.965   5.769  0.2638 -2.8094 -0.2372
  739MOL0     H99743   7.188   1.040   5.547 -1.6968  0.8063 -2.2845
  739MOL0     H99744   7.176   0.862   5.565 -1.0511 -0.9344  1.9662
  739MOL0     H99745   6.398   1.422   5.991  2.4294 -0.0389  0.7348
  739MOL0     H99746   6.163   1.440   6.042 -0.7154  1.4130  0.1033
  739MOL0     H99747   5.822   1.578   6.167  0.8554  1.0289  1.8822
  739MOL0     H99748   5.585   1.595   6.173  2.4346 -0.0976 -1.1937
  739MOL0     H99749   4.012   2.342   7.141  0.0129 -3.3075  1.9394
  739MOL0     H99750   3.820   2.463   7.199 -0.4901  0.6219 -0.8229
  739MOL0     H99751   3.330   2.446   7.055 -2.0110  0.8618 -1.5152
  739MOL0     H99752   3.099   2.533   7.069  0.1857  1.3655 -1.0943
  739MOL0     H99753   2.914   2.613   7.142 -1.0165  0.7147  3.6518
  739MOL0     H99754   2.936   2.763   7.039  0.5776  3.0818  0.7729
  739MOL0     H99755   2.787   2.877   7.189 -0.4458 -0.3334  1.5698
  739MOL0     H99756   2.775   2.727   7.289  2.2353  0.0399  0.6691
  739MOL0     H99757   2.581   2.686   7.152  0.8227  2.5120  0.8392
  739MOL0     H99758   2.689   2.603   7.058  1.1517  1.1957 -0.4151
  739MOL0     H99759   2.754   2.836   6.945  0.5573  1.3453  1.0471
  739MOL0     H99760   2.611   2.736   6.902  0.9537 -0.7348  0.7405
  739MOL0     H99761   2.408   3.067   7.045  1.0343  1.0263  3.6898
  739MOL0     H99762   3.236   2.850   7.330 -0.0973 -0.8704  2.2301
  739MOL0     H99763   3.483   2.714   7.463  2.1373 -0.5355  0.8166
  739MOL0     H99764   3.589   2.752   7.321 -0.2865 -2.1322 -0.3335
  739MOL0     H99765   3.463   2.867   7.379  3.1989 -0.1668 -0.3128
  740MOL0     O99766   4.087   5.518   7.995  0.6585 -0.3208  1.0719
  740MOL0     C99767   4.033   5.622   8.037 -0.0876 -0.0277  0.1159
  740MOL0     O99768   4.089   5.742   8.063 -0.5520  0.3936 -0.5875
  740MOL0     C99769   4.214   5.779   8.029 -0.4402  0.5559  0.4124
  740MOL0     C99770   4.278   5.876   8.114 -0.0883  0.1878  0.8259
  740MOL0     C99771   4.417   5.907   8.091 -0.1251  0.4625 -0.8250
  740MOL0     C99772   4.482   5.847   7.980 -0.2061 -0.9595 -0.7842
  740MOL0     O99773   4.620   5.875   7.955  0.4592  0.0362 -0.6199
  740MOL0     C99774   4.634   6.001   7.895 -0.3539 -0.2906  0.8139
  740MOL0     C99775   4.787   6.039   7.895  0.0312  0.0211 -0.0353
  740MOL0     C99776   4.889   5.949   7.820  0.1647  0.7990  0.3279
  740MOL0     C99777   5.040   5.978   7.851 -0.1212  0.3718 -0.1818
  740MOL0     C99778   5.071   6.028   7.995 -0.3753  0.5295 -0.1757
  740MOL0     C99779   5.223   6.055   8.003  0.2893 -0.4625 -0.0680
  740MOL0     C99780   5.263   6.113   8.141 -0.1650  0.0892 -0.2265
  740MOL0     C99781   5.265   6.013   8.254  0.0922 -1.3117  0.1122
  740MOL0     N99782   5.331   6.066   8.373  0.7694 -0.2160  0.5539
  740MOL0     C99783   5.466   6.064   8.385 -0.5553  0.2372 -0.6401
  740MOL0     C99784   5.494   6.139   8.487  0.9237 -0.3021  0.0544
  740MOL0     C99785   5.629   6.171   8.540 -0.4386  0.4096 -0.7071
  740MOL0     C99786   5.664   6.317   8.522 -1.3380  0.9848 -0.1390
  740MOL0     C99787   5.679   6.352   8.373 -0.4547 -0.2178 -0.0699
  740MOL0     C99788   5.735   6.483   8.343 -0.1120  0.3168  0.0942
  740MOL0     O99789   5.877   6.504   8.383 -0.1343  0.2467  0.2283
  740MOL0     C99790   5.984   6.435   8.328 -0.5162  0.9908 -0.2511
  740MOL0     C99791   5.993   6.369   8.198 -0.2408  0.0226 -0.5839
  740MOL0     C99792   6.106   6.303   8.161  0.0396 -0.1458  0.1936
  740MOL0     C99793   6.226   6.304   8.243  0.2392 -0.3970  0.2619
  740MOL0     C99794   6.335   6.224   8.215  0.5814  0.1295  0.5712
  740MOL0     O99795   6.314   6.137   8.111 -0.0651  0.2480 -0.6424
  740MOL0     C99796   6.408   6.050   8.060 -0.4755 -0.1509 -0.5789
  740MOL0     C99797   6.549   6.070   8.065 -0.6741 -0.4390  0.4283
  740MOL0     C99798   6.628   5.976   8.016 -0.4767  0.7923 -1.3024
  740MOL0     C99799   6.582   5.859   7.950  0.3830  0.1753 -0.0035
  740MOL0     O99800   6.668   5.769   7.889  0.5103  0.3795 -0.4479
  740MOL0     C99801   6.608   5.667   7.809 -0.3842 -0.3139 -1.2941
  740MOL0     C99802   6.711   5.608   7.707  0.0457 -0.6134 -0.9698
  740MOL0     C99803   6.854   5.661   7.711 -0.5437 -1.2491 -0.1169
  740MOL0     C99804   6.959   5.552   7.667  0.6635 -0.7668 -0.0997
  740MOL0     C99805   7.107   5.590   7.662 -0.1488 -0.2313  0.0026
  740MOL0     C99806   7.189   5.461   7.651 -0.0897 -0.0808  0.4095
  740MOL0     C99807   7.337   5.497   7.634  0.5858 -0.4349  0.1223
  740MOL0     C99808   7.425   5.379   7.641  0.7577 -0.6447 -0.4688
  740MOL0    Cl99809   7.434   5.322   7.807  0.2609 -0.2321  0.2774
  740MOL0     C99810   6.439   5.837   7.954 -0.1580  0.1058  0.3370
  740MOL0     C99811   6.353   5.935   7.999 -0.0428 -0.9555  0.1627
  740MOL0     O99812   6.438   6.227   8.281 -0.2077  0.7963 -0.1072
  740MOL0     C99813   6.222   6.385   8.358 -0.0568 -0.9742  0.1528
  740MOL0     C99814   6.104   6.438   8.395 -0.4066  0.0915 -0.5209
  740MOL0     N99815   5.372   6.169   8.547 -0.5677  0.0164 -0.3500
  740MOL0     N99816   5.273   6.138   8.466 -0.9899  0.6001 -0.5595
  740MOL0     C99817   4.419   5.751   7.905 -0.2118 -0.2558  0.2787
  740MOL0     C99818   4.287   5.725   7.915 -0.3512 -0.0220 -0.1021
  740MOL0     C99819   3.883   5.619   8.031  0.4820  0.1090 -0.0857
  740MOL0     C99820   3.831   5.699   7.930 -1.0814  0.0776  0.3151
  740MOL0     C99821   3.696   5.699   7.907 -0.2572 -0.1883  0.4440
  740MOL0     C99822   3.610   5.622   7.981  0.1567 -1.0101  0.3299
  740MOL0     O99823   3.472   5.635   7.950 -0.4229 -0.1077 -0.1566
  740MOL0     C99824   3.371   5.585   8.039  0.7144 -0.1470 -0.7141
  740MOL0     C99825   3.226   5.592   7.984  0.6222 -0.3052 -0.2137
  740MOL0     C99826   3.121   5.577   8.098 -0.7136 -0.9392  0.3799
  740MOL0     C99827   2.974   5.608   8.053 -0.4612  1.0169 -0.1695
  740MOL0     C99828   2.889   5.595   8.169  0.1412  0.6243 -0.1115
  740MOL0     C99829   2.802   5.574   8.258  0.7639 -0.1833 -0.4424
  740MOL0     C99830   3.658   5.547   8.088 -0.1398 -0.1375 -0.2419
  740MOL0     C99831   3.793   5.541   8.106 -0.0939 -0.1203  0.7381
  740MOL0     C99832   3.846   5.451   8.218  0.4686  0.2723 -0.0832
  740MOL0     H99833   4.232   5.915   8.204  2.3944  4.5952  0.4352
  740MOL0     H99834   4.476   5.957   8.168 -1.4669 -1.5024  1.6125
  740MOL0     H99835   4.596   6.003   7.793  0.4469  0.1548  0.5179
  740MOL0     H99836   4.572   6.074   7.947 -5.5412 -1.6603 -2.7082
  740MOL0     H99837   4.820   6.042   7.999  1.3153  1.8473 -0.4300
  740MOL0     H99838   4.792   6.139   7.849 -1.2850 -0.8645 -2.2695
  740MOL0     H99839   4.868   5.958   7.713 -1.9580  0.0325  0.6385
  740MOL0     H99840   4.880   5.843   7.843  1.2771  0.6019 -0.1014
  740MOL0     H99841   5.093   5.886   7.825  1.7830  1.5239 -0.5242
  740MOL0     H99842   5.078   6.055   7.784  3.6618 -1.3860 -0.3143
  740MOL0     H99843   5.013   6.118   8.018 -1.5668  0.0096 -1.0446
  740MOL0     H99844   5.050   5.959   8.077 -3.0507 -0.4223 -1.5414
  740MOL0     H99845   5.276   5.962   7.983  0.8648 -0.1768  0.0890
  740MOL0     H99846   5.242   6.125   7.921  0.9040 -1.0884 -0.4752
  740MOL0     H99847   5.195   6.192   8.174  0.8192  1.0410 -0.4478
  740MOL0     H99848   5.363   6.157   8.135 -0.0475  0.5930  3.2512
  740MOL0     H99849   5.162   5.993   8.285 -0.6668  1.4468 -0.4395
  740MOL0     H99850   5.312   5.919   8.222 -0.9327 -1.0149 -2.5070
  740MOL0     H99851   5.544   6.031   8.318 -0.8524 -1.8294 -0.0209
  740MOL0     H99852   5.630   6.152   8.647  0.1141  1.2690 -0.5461
  740MOL0     H99853   5.707   6.111   8.493 -0.3055 -0.0471  0.0897
  740MOL0     H99854   5.585   6.377   8.569  0.6224  2.9247  0.8869
  740MOL0     H99855   5.758   6.336   8.575 -0.2043  1.2583 -2.1332
  740MOL0     H99856   5.581   6.357   8.323 -0.5313 -1.0739 -0.0198
  740MOL0     H99857   5.736   6.272   8.325 -0.9431 -1.6810  1.6648
  740MOL0     H99858   5.674   6.554   8.400 -2.0840  0.7769 -2.3948
  740MOL0     H99859   5.720   6.506   8.237  0.4182 -0.5960 -0.1856
  740MOL0     H99860   5.907   6.352   8.134  0.3017 -2.4719 -0.7397
  740MOL0     H99861   6.119   6.241   8.074 -0.8147  0.0066 -0.0508
  740MOL0     H99862   6.594   6.164   8.096 -3.9858  1.8579 -1.0437
  740MOL0     H99863   6.737   5.979   8.014  0.0542 -3.9200  1.9240
  740MOL0     H99864   6.575   5.602   7.890 -2.2551  1.2491 -0.7157
  740MOL0     H99865   6.516   5.702   7.760 -0.7419  1.9961  0.8000
  740MOL0     H99866   6.729   5.500   7.714  2.9957 -0.4693 -4.0824
  740MOL0     H99867   6.668   5.633   7.610  0.5119 -2.4131 -1.6890
  740MOL0     H99868   6.867   5.745   7.642  0.8386 -1.3076  0.0540
  740MOL0     H99869   6.888   5.695   7.809  0.3872  0.8249 -1.1073
  740MOL0     H99870   6.933   5.531   7.563  0.4482  1.8805 -0.6477
  740MOL0     H99871   6.950   5.463   7.730 -0.4172  0.4011  1.4978
  740MOL0     H99872   7.132   5.653   7.748 -0.0138 -2.0262  1.3449
  740MOL0     H99873   7.117   5.654   7.575  3.2415  1.6258  1.5372
  740MOL0     H99874   7.165   5.394   7.734  0.5821  1.8629  2.2374
  740MOL0     H99875   7.152   5.410   7.561  2.2645  0.7556 -1.1135
  740MOL0     H99876   7.368   5.568   7.710  0.9153 -0.8888  0.4199
  740MOL0     H99877   7.353   5.540   7.535 -0.9943 -1.6001 -0.6993
  740MOL0     H99878   7.384   5.306   7.571 -1.1615  2.0046 -2.3170
  740MOL0     H99879   7.527   5.395   7.606  0.1881 -1.1273 -2.5279
  740MOL0     H99880   6.406   5.747   7.903  0.5006  0.2331 -0.3279
  740MOL0     H99881   6.245   5.927   7.998 -0.4299  2.6943  0.2048
  740MOL0     H99882   6.307   6.412   8.419 -0.5324 -1.4926  1.0783
  740MOL0     H99883   6.100   6.505   8.481 -0.0583 -0.3140 -0.1861
  740MOL0     H99884   4.470   5.702   7.823 -1.9215 -0.3399 -0.7806
  740MOL0     H99885   4.242   5.651   7.850  0.1397 -0.2307 -0.2060
  740MOL0     H99886   3.890   5.758   7.860 -2.8550  3.3940  1.3856
  740MOL0     H99887   3.659   5.752   7.820 -0.4856 -0.3400  0.4493
  740MOL0     H99888   3.374   5.652   8.125  0.2237  2.2470 -2.4488
  740MOL0     H99889   3.397   5.480   8.055  0.0507 -0.2747 -0.4575
  740MOL0     H99890   3.211   5.515   7.908  0.1306 -0.4443  0.0206
  740MOL0     H99891   3.209   5.687   7.932 -0.5594 -0.7478 -0.6762
  740MOL0     H99892   3.149   5.644   8.180  0.4380  2.8227 -2.7500
  740MOL0     H99893   3.121   5.475   8.135 -2.5875 -0.4290  1.9348
  740MOL0     H99894   2.971   5.714   8.026  1.5744  1.1875  0.0940
  740MOL0     H99895   2.939   5.544   7.972  1.7966  0.6725 -0.9674
  740MOL0     H99896   2.726   5.555   8.330 -2.1135 -2.2200 -3.7296
  740MOL0     H99897   3.596   5.490   8.156 -1.6516  1.3792 -0.2883
  740MOL0     H99898   3.906   5.502   8.293  0.4946  2.0012 -1.2147
  740MOL0     H99899   3.762   5.408   8.274  0.9473 -0.7328 -0.1239
  740MOL0     H99900   3.903   5.362   8.189  0.9804 -0.3471  2.5867
  741MOL0     O99901   8.192   4.325   7.393 -0.6882 -0.1468  0.6703
  741MOL0     C99902   8.195   4.205   7.425 -0.4424  0.5573 -0.0658
  741MOL0     O99903   8.277   4.144   7.515 -0.3696 -0.3855  0.0455
  741MOL0     C99904   8.402   4.201   7.543 -0.0101  0.3862 -0.0159
  741MOL0     C99905   8.502   4.197   7.447 -0.3321 -1.0761  0.1896
  741MOL0     C99906   8.625   4.265   7.466 -0.1472  0.6480 -0.0326
  741MOL0     C99907   8.658   4.326   7.594  0.0591 -0.6452  0.0168
  741MOL0     O99908   8.778   4.393   7.625 -0.0276 -0.0263 -0.2221
  741MOL0     C99909   8.873   4.400   7.517  0.7660  1.0611 -0.7931
  741MOL0     C99910   8.993   4.475   7.574 -0.0734  0.1044 -0.2928
  741MOL0     C99911   9.114   4.384   7.618 -0.0547 -0.0232  0.0485
  741MOL0     C99912   9.222   4.469   7.689  0.6681 -0.4613  0.4885
  741MOL0     C99913   9.331   4.371   7.725  0.6422 -0.1607  0.3729
  741MOL0     C99914   9.437   4.428   7.811 -1.0305  0.0535 -0.0990
  741MOL0     C99915   9.548   4.324   7.824 -0.2538 -0.3676 -0.3214
  741MOL0     C99916   9.657   4.394   7.911 -0.4400  0.4033 -0.7006
  741MOL0     N99917   9.760   4.293   7.930 -0.6916  0.2695  0.3463
  741MOL0     C99918   9.785   4.238   8.052 -0.6686 -0.2239 -0.9572
  741MOL0     C99919   9.888   4.151   8.020  0.0926  0.2763  0.0558
  741MOL0     C99920   9.938   4.036   8.106 -0.1914 -0.6160  1.1543
  741MOL0     C99921  10.085   4.037   8.148 -0.1925  0.0211  0.1630
  741MOL0     C99922  10.130   4.174   8.182 -0.1129  0.2335  0.1123
  741MOL0     C99923  10.274   4.164   8.250  0.0150  0.2311 -0.0438
  741MOL0     O99924  10.357   4.087   8.161  0.1810 -0.7632 -0.4111
  741MOL0     C99925  10.494   4.061   8.189  0.0125  0.3939  0.3439
  741MOL0     C99926  10.538   4.051   8.326  0.5037 -0.4550  0.3816
  741MOL0     C99927  10.674   4.038   8.350  0.1323 -0.1752  0.2055
  741MOL0     C99928  10.761   4.020   8.238 -0.1598 -0.4716  0.0585
  741MOL0     C99929  10.908   4.004   8.263 -0.8464 -0.4425 -0.0412
  741MOL0     O99930  10.958   4.039   8.383  0.4854  0.4969  0.0576
  741MOL0     C99931  11.076   3.996   8.425  0.6574  0.6139  0.4447
  741MOL0     C99932  11.123   3.868   8.411 -1.2847 -0.2549 -1.4405
  741MOL0     C99933  11.250   3.829   8.456 -0.5048  0.5629  0.7143
  741MOL0     C99934  11.335   3.924   8.513 -0.3650 -0.0350 -0.1856
  741MOL0     O99935  11.463   3.878   8.551  0.5907 -0.2254  0.5775
  741MOL0     C99936  11.573   3.959   8.506  0.1042  0.4330 -0.2181
  741MOL0     C99937  11.612   3.925   8.365  0.2943  0.1196  0.0796
  741MOL0     C99938  11.743   3.995   8.318  0.8403  0.7688 -0.1669
  741MOL0     C99939  11.801   3.955   8.178  0.3166  0.6650 -0.6794
  741MOL0     C99940  11.893   4.057   8.113 -0.4815 -0.0533 -0.4917
  741MOL0     C99941  11.935   4.013   7.969  0.2392 -0.7215 -0.3709
  741MOL0     C99942  12.000   4.132   7.889  0.9842  0.0469 -0.7366
  741MOL0     C99943  12.059   4.089   7.759 -0.6028  0.7819  0.2135
  741MOL0    Cl99944  12.093   4.239   7.667 -0.2122 -0.4976  0.3317
  741MOL0     C99945  11.291   4.055   8.522 -0.2318 -0.1808  0.3002
  741MOL0     C99946  11.163   4.092   8.473 -0.0096 -0.2227 -0.2093
  741MOL0     O99947  10.977   3.965   8.172  0.7131 -0.1662 -0.2427
  741MOL0     C99948  10.709   4.020   8.104  0.4032  0.6490 -0.2938
  741MOL0     C99949  10.575   4.039   8.081 -0.7827 -0.5449 -0.0831
  741MOL0     N99950   9.929   4.164   7.892  0.3763 -0.2181  0.0170
  741MOL0     N99951   9.854   4.251   7.835  0.4941  0.0515  0.3365
  741MOL0     C99952   8.557   4.336   7.690 -0.1463 -0.1149  0.4638
  741MOL0     C99953   8.428   4.272   7.665  0.7736  0.0325 -0.7565
  741MOL0     C99954   8.094   4.116   7.353 -0.1578 -0.7315 -0.4752
  741MOL0     C99955   7.970   4.171   7.308 -0.0490  0.2597 -0.3749
  741MOL0     C99956   7.887   4.098   7.229 -0.1947  0.2905 -0.1849
  741MOL0     C99957   7.899   3.960   7.219 -0.4673 -0.2086  0.2541
  741MOL0     O99958   7.789   3.886   7.178 -0.2481 -0.2505 -0.3643
  741MOL0     C99959   7.779   3.742   7.179 -0.3632  0.5438  0.0182
  741MOL0     C99960   7.777   3.690   7.042 -0.0167  0.6562 -0.4020
  741MOL0     C99961   7.917   3.689   6.973 -0.3816  0.3056 -0.2068
  741MOL0     C99962   7.912   3.617   6.839 -0.0803  0.1967 -0.0734
  741MOL0     C99963   7.928   3.474   6.852  0.4929  0.8439 -0.1177
  741MOL0     C99964   7.922   3.350   6.862  0.5079 -0.2798  0.1370
  741MOL0     C99965   8.021   3.902   7.256 -0.9349  0.7243  0.3515
  741MOL0     C99966   8.123   3.979   7.316  0.6268 -0.8862 -0.2656
  741MOL0     C99967   8.249   3.916   7.347 -0.1586  0.2970  0.6176
  741MOL0     H99968   8.479   4.148   7.353 -1.5698 -3.2917  1.5617
  741MOL0     H99969   8.694   4.268   7.381 -0.9508  1.1397 -0.6798
  741MOL0     H99970   8.904   4.307   7.470  2.0774  1.3545 -0.5412
  741MOL0     H99971   8.833   4.469   7.442 -1.3401  0.4059 -0.3575
  741MOL0     H99972   8.968   4.538   7.660  2.1391  0.7842 -0.1085
  741MOL0     H99973   9.033   4.540   7.496  1.2786  3.2762  2.7986
  741MOL0     H99974   9.167   4.344   7.531 -2.1702 -0.2003 -1.2447
  741MOL0     H99975   9.082   4.300   7.681 -0.1582 -0.0961 -0.0993
  741MOL0     H99976   9.266   4.539   7.617 -1.9721  0.8696  0.0470
  741MOL0     H99977   9.177   4.520   7.775  1.1147 -0.1691  0.5542
  741MOL0     H99978   9.286   4.287   7.778 -1.6335  1.6496  1.5167
  741MOL0     H99979   9.376   4.327   7.636  2.6293  0.9144  0.7929
  741MOL0     H99980   9.471   4.523   7.769 -0.6025  0.4631  1.1278
  741MOL0     H99981   9.409   4.453   7.914  2.5357  1.0550  0.7528
  741MOL0     H99982   9.592   4.293   7.729 -0.0460 -0.0394 -0.3332
  741MOL0     H99983   9.492   4.241   7.869  3.3590 -1.0812  3.5378
  741MOL0     H99984   9.695   4.484   7.862 -0.5708  1.6273  1.3298
  741MOL0     H99985   9.620   4.424   8.009  0.0744 -1.9145  0.2801
  741MOL0     H99986   9.718   4.236   8.138  0.4537  0.4024 -0.0300
  741MOL0     H99987   9.874   4.029   8.194 -0.9622 -0.1005  0.6437
  741MOL0     H99988   9.931   3.953   8.035  2.4515  0.6814 -0.7907
  741MOL0     H99989  10.111   3.964   8.226 -2.5304 -1.9134 -0.7444
  741MOL0     H99990  10.135   4.011   8.054 -1.2922 -2.7933  0.2383
  741MOL0     H99991  10.068   4.228   8.253  2.3469  2.0230  1.0667
  741MOL0     H99992  10.145   4.236   8.093 -1.8942 -0.5711 -0.7945
  741MOL0     H99993  10.256   4.115   8.346 -0.6277  0.5761  0.0172
  741MOL0     H99994  10.330   4.255   8.274 -1.2917  1.0590 -0.0014
  741MOL0     H99995  10.465   4.081   8.401 -1.0892  1.2359 -1.7091
  741MOL0     H99996  10.718   4.035   8.450  0.9378  1.4205 -0.0573
  741MOL0     H99997  11.049   3.791   8.390 -1.8240 -0.4670  0.9746
  741MOL0     H99998  11.291   3.728   8.456  0.7793  1.0449  2.0497
  741MOL0     H99999  11.546   4.065   8.510 -3.9922 -0.4765  1.5696
  741MOL0     H    0  11.656   3.925   8.568  0.5332 -1.4825 -1.7369
  741MOL0     H    1  11.618   3.816   8.375 -2.7740 -0.0528  1.1188
  741MOL0     H    2  11.529   3.944   8.295 -0.0192  1.9369  0.8960
  741MOL0     H    3  11.713   4.100   8.326  0.2290  0.4663  3.4715
  741MOL0     H    4  11.818   3.962   8.390 -0.5487  0.9223  1.4293
  741MOL0     H    5  11.717   3.927   8.114  0.0236 -0.3566  0.1262
  741MOL0     H    6  11.861   3.868   8.203 -0.2119  1.3025  3.4565
  741MOL0     H    7  11.980   4.078   8.176 -0.6729 -0.8144  0.0482
  741MOL0     H    8  11.834   4.149   8.104  0.3451  0.6472  0.8397
  741MOL0     H    9  12.002   3.927   7.979  1.4727  0.3942  1.3936
  741MOL0     H   10  11.842   3.990   7.916 -1.1541 -1.8604  2.3790
  741MOL0     H   11  12.073   4.179   7.955 -1.7127  0.7707  1.9513
  741MOL0     H   12  11.919   4.204   7.875 -3.4121 -4.0991  0.7592
  741MOL0     H   13  12.146   4.028   7.782 -2.0302 -1.0504  1.0712
  741MOL0     H   14  11.990   4.023   7.706  1.3887 -0.9193 -0.3833
  741MOL0     H   15  11.356   4.128   8.568 -0.2093  0.3445 -0.5625
  741MOL0     H   16  11.136   4.197   8.481 -0.2749 -0.4177  2.5149
  741MOL0     H   17  10.762   4.009   8.011 -3.1062 -1.1570 -2.2907
  741MOL0     H   18  10.553   4.044   7.975  1.9886 -0.2846 -0.7257
  741MOL0     H   19   8.572   4.382   7.788  1.2159  1.1100 -0.2784
  741MOL0     H   20   8.342   4.286   7.730  0.1426  2.7853 -2.0006
  741MOL0     H   21   7.952   4.276   7.330  0.3198  0.5141 -1.2429
  741MOL0     H   22   7.792   4.138   7.195 -1.7780 -2.2597  1.0082
  741MOL0     H   23   7.683   3.718   7.226  0.2679 -4.2921 -0.6191
  741MOL0     H   24   7.849   3.693   7.248  2.5213 -0.7788 -3.5501
  741MOL0     H   25   7.707   3.750   6.984  2.7879  3.1461 -1.5072
  741MOL0     H   26   7.746   3.585   7.046  0.2483  0.5092 -1.7660
  741MOL0     H   27   7.991   3.653   7.045  1.7651  2.1518 -1.3705
  741MOL0     H   28   7.950   3.791   6.954  2.8779 -0.2975  1.4619
  741MOL0     H   29   7.815   3.635   6.793  0.6681  0.0033 -1.8171
  741MOL0     H   30   7.984   3.662   6.771 -1.7096  0.3037 -1.7887
  741MOL0     H   31   7.921   3.243   6.867  1.8260 -0.5315 -2.9657
  741MOL0     H   32   8.027   3.796   7.234  1.1701  0.2240  2.7998
  741MOL0     H   33   8.250   3.822   7.291 -3.2228 -0.5045  1.7265
  741MOL0     H   34   8.326   3.988   7.320 -1.9442  2.5290  1.1709
  741MOL0     H   35   8.255   3.880   7.450  0.0768 -0.2575  0.4175
  742MOL0     O   36   9.986   7.109   7.176  0.0840  0.3277  0.0993
  742MOL0     C   37  10.010   7.164   7.284  1.1062 -0.1883  0.1056
  742MOL0     O   38   9.932   7.160   7.391  0.2762  0.3976 -0.7645
  742MOL0     C   39   9.822   7.077   7.376  0.1849 -0.1506 -0.8888
  742MOL0     C   40   9.826   6.941   7.409 -0.0027 -0.2748  0.3967
  742MOL0     C   41   9.706   6.868   7.395 -0.1350 -0.0402  0.0072
  742MOL0     C   42   9.589   6.926   7.343 -0.2309  0.0087 -0.9591
  742MOL0     O   43   9.485   6.833   7.325  0.0334 -0.4814 -0.3586
  742MOL0     C   44   9.380   6.875   7.248 -0.8587  0.1991  0.5235
  742MOL0     C   45   9.269   6.774   7.256 -0.3852 -0.0140  0.3822
  742MOL0     C   46   9.161   6.799   7.155 -0.0936  0.4551  0.4081
  742MOL0     C   47   9.025   6.736   7.190 -0.5118 -0.5810  0.3868
  742MOL0     C   48   8.912   6.735   7.075  0.0570 -0.4121 -0.6145
  742MOL0     C   49   8.789   6.653   7.117  0.3253 -0.5219 -1.1244
  742MOL0     C   50   8.677   6.675   7.013 -0.0952 -0.2852 -1.0301
  742MOL0     C   51   8.541   6.625   7.070  0.5371  0.3079  0.6513
  742MOL0     N   52   8.431   6.634   6.973  0.1848  0.2228 -0.0753
  742MOL0     C   53   8.318   6.556   6.986  0.3295 -0.0391  0.3800
  742MOL0     C   54   8.239   6.593   6.886  0.2923  0.2085  0.4260
  742MOL0     C   55   8.096   6.556   6.855 -1.0265 -0.0559  0.7717
  742MOL0     C   56   8.031   6.463   6.954  0.3436  0.4593 -0.4511
  742MOL0     C   57   7.944   6.538   7.058 -0.2435  0.2067  0.0023
  742MOL0     C   58   8.040   6.599   7.166  0.4650  0.2492 -0.5119
  742MOL0     O   59   7.949   6.674   7.252  0.5470 -0.5333  0.6728
  742MOL0     C   60   7.994   6.789   7.313 -0.7912  0.5967 -0.3467
  742MOL0     C   61   8.131   6.815   7.336  0.1945  0.2073  0.0070
  742MOL0     C   62   8.165   6.927   7.402 -0.4267 -1.7005 -0.1870
  742MOL0     C   63   8.073   7.035   7.424 -0.5079 -0.2086 -0.9729
  742MOL0     C   64   8.114   7.162   7.478 -0.2718 -0.2859  0.1351
  742MOL0     O   65   8.027   7.269   7.474 -0.0392  0.3294  0.4606
  742MOL0     C   66   8.067   7.386   7.520  1.4664 -0.8760 -0.5733
  742MOL0     C   67   8.114   7.485   7.429  0.3761  0.5973 -0.8412
  742MOL0     C   68   8.162   7.604   7.484 -0.0098  0.2205  0.3786
  742MOL0     C   69   8.164   7.619   7.626  0.7321 -0.2785  0.3433
  742MOL0     O   70   8.203   7.741   7.663  0.2106  0.1045  0.6896
  742MOL0     C   71   8.322   7.751   7.744  0.4527  0.0611  0.6576
  742MOL0     C   72   8.452   7.792   7.656  0.3531  0.0492  0.3638
  742MOL0     C   73   8.573   7.787   7.737  0.9257  0.3447 -0.4232
  742MOL0     C   74   8.685   7.852   7.668 -0.9688  0.1749  0.1628
  742MOL0     C   75   8.828   7.840   7.727 -0.1273  0.1047  0.0376
  742MOL0     C   76   8.928   7.909   7.630 -0.6473 -0.0864  0.6567
  742MOL0     C   77   9.075   7.896   7.676  0.1996 -0.9046 -0.5353
  742MOL0     C   78   9.176   7.938   7.572  1.0603 -0.5628 -0.1502
  742MOL0    Cl   79   9.340   7.939   7.654  0.1649  0.0437  0.2965
  742MOL0     C   80   8.125   7.526   7.715 -0.1564 -0.0426  0.4424
  742MOL0     C   81   8.077   7.405   7.656  0.3869 -0.1452 -0.8164
  742MOL0     O   82   8.229   7.165   7.531  0.3047  0.3853  0.4912
  742MOL0     C   83   7.935   7.004   7.409 -0.3765 -0.4026  0.4471
  742MOL0     C   84   7.899   6.874   7.365 -0.5852  0.5365  1.3079
  742MOL0     N   85   8.304   6.691   6.809  0.5945 -0.2984 -0.0904
  742MOL0     N   86   8.415   6.724   6.875  0.0544 -1.2610  0.0102
  742MOL0     C   87   9.591   7.060   7.309  0.5092  1.0708 -0.2474
  742MOL0     C   88   9.706   7.143   7.324 -0.0337  0.8895  0.6700
  742MOL0     C   89  10.120   7.272   7.294  0.0717  0.0758 -0.3683
  742MOL0     C   90  10.138   7.347   7.412 -0.5087 -0.0477  0.5477
  742MOL0     C   91  10.242   7.430   7.432  0.2536 -0.0569 -1.1133
  742MOL0     C   92  10.341   7.450   7.336 -0.2489  0.0335  0.0224
  742MOL0     O   93  10.457   7.520   7.347 -0.1810 -0.6974 -0.5460
  742MOL0     C   94  10.512   7.565   7.474  0.0498  0.1006 -0.0856
  742MOL0     C   95  10.594   7.451   7.547 -0.0264  0.3543 -0.4820
  742MOL0     C   96  10.714   7.423   7.460  0.4889  1.1450 -0.3118
  742MOL0     C   97  10.798   7.295   7.491  0.0088  0.2441 -0.7693
  742MOL0     C   98  10.929   7.297   7.420  0.1429  0.3388  0.5358
  742MOL0     C   99  11.033   7.301   7.356  0.3386  1.3337 -0.8164
  742MOL0     C  100  10.318   7.395   7.207  0.7698 -0.1646  0.1678
  742MOL0     C  101  10.219   7.301   7.191  0.0820  0.7484 -0.3719
  742MOL0     C  102  10.222   7.233   7.060  0.4728  0.2370  1.2420
  742MOL0     H  103   9.920   6.896   7.438  1.6643  1.7266 -1.5150
  742MOL0     H  104   9.699   6.760   7.401 -2.7772  0.0642 -0.0525
  742MOL0     H  105   9.339   6.975   7.265 -1.4706 -0.2235  1.5746
  742MOL0     H  106   9.425   6.886   7.148  1.5568  2.0450  1.6883
  742MOL0     H  107   9.225   6.763   7.356 -0.7884 -2.4457  0.0105
  742MOL0     H  108   9.303   6.672   7.236  0.5275 -0.1664  2.4238
  742MOL0     H  109   9.185   6.767   7.053  2.1273  2.0137  0.3716
  742MOL0     H  110   9.155   6.908   7.150 -1.0245  0.3498 -1.4272
  742MOL0     H  111   9.045   6.631   7.212 -3.7086 -1.9815 -2.5015
  742MOL0     H  112   8.992   6.786   7.282 -0.8986 -0.8266  0.3842
  742MOL0     H  113   8.885   6.840   7.069 -1.3526 -0.7478 -0.6353
  742MOL0     H  114   8.960   6.698   6.984  1.8314 -0.6758  0.3884
  742MOL0     H  115   8.819   6.548   7.118 -0.2277 -0.7167 -2.4734
  742MOL0     H  116   8.747   6.678   7.215 -0.0428 -1.1302 -1.1181
  742MOL0     H  117   8.710   6.617   6.927  0.4199 -0.9435 -0.3985
  742MOL0     H  118   8.667   6.780   6.981 -0.3018 -0.8206 -2.8236
  742MOL0     H  119   8.551   6.523   7.108 -2.3033  0.6795  2.6975
  742MOL0     H  120   8.505   6.692   7.148 -0.5286 -0.0697  0.4981
  742MOL0     H  121   8.296   6.477   7.057  0.4306  1.2206  1.8465
  742MOL0     H  122   8.039   6.649   6.852  0.7486  1.1303  1.6762
  742MOL0     H  123   8.103   6.522   6.752  2.9372  0.4485  0.7147
  742MOL0     H  124   7.967   6.387   6.907  1.7712 -0.4542 -0.9724
  742MOL0     H  125   8.096   6.402   7.016 -1.7083  0.3722  1.7675
  742MOL0     H  126   7.886   6.457   7.104  2.2310 -2.3938 -1.1623
  742MOL0     H  127   7.882   6.617   7.014 -1.0051 -1.1698 -1.5323
  742MOL0     H  128   8.116   6.666   7.124  1.4563  1.0998  2.3822
  742MOL0     H  129   8.099   6.519   7.210  0.8140  0.0119 -1.3889
  742MOL0     H  130   8.219   6.759   7.305  0.5413  1.6718 -1.8481
  742MOL0     H  131   8.270   6.946   7.424 -0.2961 -0.1055 -1.9154
  742MOL0     H  132   8.103   7.471   7.322 -0.2245 -0.9814 -0.6001
  742MOL0     H  133   8.188   7.685   7.417 -2.1839  1.2141  0.6300
  742MOL0     H  134   8.307   7.815   7.832 -2.6179 -0.5235  0.6629
  742MOL0     H  135   8.340   7.651   7.784  1.4364 -0.5305 -1.1334
  742MOL0     H  136   8.450   7.714   7.579 -0.5836  1.2637 -0.8893
  742MOL0     H  137   8.443   7.889   7.606  0.4847 -0.4363 -0.6249
  742MOL0     H  138   8.556   7.833   7.835  1.1369 -4.0938  1.9296
  742MOL0     H  139   8.595   7.682   7.758 -1.1435 -0.6836 -2.8950
  742MOL0     H  140   8.669   7.960   7.653  0.6340  0.0763 -3.1995
  742MOL0     H  141   8.683   7.809   7.568 -1.5674  2.3740 -0.8325
  742MOL0     H  142   8.852   7.734   7.739 -1.3168 -0.2646 -0.6234
  742MOL0     H  143   8.838   7.895   7.821  3.2945 -1.0279  0.4674
  742MOL0     H  144   8.921   7.862   7.531 -1.4509 -0.3948  0.8565
  742MOL0     H  145   8.897   8.012   7.608  0.1512 -0.2268 -1.3907
  742MOL0     H  146   9.098   7.792   7.699  1.6628 -0.6234 -0.6230
  742MOL0     H  147   9.102   7.954   7.765  0.1445 -1.9553  0.1875
  742MOL0     H  148   9.162   7.867   7.490 -2.9167 -1.4037  1.0461
  742MOL0     H  149   9.159   8.038   7.532  0.1474 -0.6209  0.0789
  742MOL0     H  150   8.123   7.544   7.822 -1.0204 -1.1402  0.6277
  742MOL0     H  151   8.051   7.323   7.722  0.4315  1.1078  0.8233
  742MOL0     H  152   7.855   7.072   7.435  0.1340  0.1429  0.6267
  742MOL0     H  153   7.797   6.842   7.349  0.4637 -2.2287 -0.6129
  742MOL0     H  154   9.509   7.118   7.269 -0.1592 -0.1255 -0.6435
  742MOL0     H  155   9.706   7.249   7.297 -1.4219  0.7465  0.0037
  742MOL0     H  156  10.069   7.333   7.494 -0.0041  0.4010  1.0584
  742MOL0     H  157  10.249   7.487   7.525  0.3186 -1.1846 -0.4049
  742MOL0     H  158  10.426   7.592   7.536 -1.0722  1.2821 -2.0572
  742MOL0     H  159  10.573   7.655   7.458  0.5688  0.6081  3.6637
  742MOL0     H  160  10.528   7.363   7.551 -1.0923  1.1562  0.0183
  742MOL0     H  161  10.630   7.491   7.642 -1.0634  1.1186 -0.3922
  742MOL0     H  162  10.779   7.509   7.475  1.0627  0.8136 -0.8612
  742MOL0     H  163  10.687   7.407   7.355  1.9461 -1.4479 -0.3906
  742MOL0     H  164  10.837   7.290   7.593  3.4560 -1.1243 -1.9969
  742MOL0     H  165  10.727   7.216   7.463 -1.2579  0.7540  0.8096
  742MOL0     H  166  11.120   7.321   7.297  1.5177 -1.0267 -0.0055
  742MOL0     H  167  10.386   7.423   7.127  0.4346 -1.1075 -0.4739
  742MOL0     H  168  10.139   7.266   6.998  2.0890  1.2169 -0.5131
  742MOL0     H  169  10.317   7.244   7.007 -2.5312 -0.7318 -5.3118
  742MOL0     H  170  10.205   7.125   7.070  1.9452 -0.0068  1.4554
  743MOL0     O  171   7.383   3.519   2.179 -0.1487  0.5070  0.2593
  743MOL0     C  172   7.462   3.615   2.185  0.1848  0.0349 -0.7870
  743MOL0     O  173   7.425   3.747   2.179 -0.4317  0.2563  0.0132
  743MOL0     C  174   7.291   3.769   2.181  0.1987 -0.3385 -0.3788
  743MOL0     C  175   7.206   3.738   2.078 -0.4115 -0.5718  0.4593
  743MOL0     C  176   7.065   3.753   2.106  0.0366  0.5418 -0.3031
  743MOL0     C  177   7.019   3.802   2.231 -1.0671  0.5649 -0.3822
  743MOL0     O  178   6.884   3.794   2.259  0.1032  0.1691  0.1648
  743MOL0     C  179   6.793   3.732   2.164 -0.7351  0.1442 -0.1681
  743MOL0     C  180   6.646   3.746   2.211 -0.0836  0.4551 -0.6011
  743MOL0     C  181   6.592   3.891   2.215 -0.1633 -0.7190  0.4556
  743MOL0     C  182   6.449   3.906   2.267 -0.4719  0.2110 -0.2038
  743MOL0     C  183   6.419   4.054   2.305  0.6365 -0.1548 -0.5521
  743MOL0     C  184   6.440   4.154   2.186 -0.3036  0.1638 -0.5599
  743MOL0     C  185   6.360   4.282   2.204 -0.3850 -0.0287 -0.7260
  743MOL0     C  186   6.380   4.388   2.101  0.5122 -0.6233  0.2355
  743MOL0     N  187   6.521   4.434   2.081 -0.6545 -0.1093  0.4728
  743MOL0     C  188   6.572   4.549   2.132  1.0513 -0.8091  0.1573
  743MOL0     C  189   6.698   4.556   2.085 -0.2284 -0.4291 -0.0215
  743MOL0     C  190   6.789   4.676   2.083 -0.0120 -0.3089  0.0752
  743MOL0     C  191   6.843   4.723   2.217 -0.7226 -0.0226 -0.3978
  743MOL0     C  192   6.961   4.641   2.281 -0.0749 -0.0698  0.0049
  743MOL0     C  193   7.100   4.675   2.211 -0.4093 -0.2688  0.0422
  743MOL0     O  194   7.152   4.798   2.250  0.3015 -0.6874 -0.3910
  743MOL0     C  195   7.289   4.817   2.233  0.2415 -0.1850  0.3674
  743MOL0     C  196   7.369   4.765   2.133 -0.0453  0.8383  0.7638
  743MOL0     C  197   7.506   4.782   2.127  0.0039  0.6725 -0.4288
  743MOL0     C  198   7.570   4.851   2.234  0.1496 -0.1724  0.0760
  743MOL0     C  199   7.716   4.863   2.224 -0.1212 -0.6719  0.2606
  743MOL0     O  200   7.776   4.784   2.135 -0.5613  0.3742  0.7819
  743MOL0     C  201   7.905   4.800   2.113 -0.1860 -0.4597  0.0963
  743MOL0     C  202   7.958   4.882   2.010  0.8199 -0.5092  0.3380
  743MOL0     C  203   8.093   4.904   1.994  0.2272  0.2184 -0.0243
  743MOL0     C  204   8.188   4.842   2.075 -0.2342 -0.3670  0.2301
  743MOL0     O  205   8.317   4.875   2.057  0.0712 -0.2352 -0.8538
  743MOL0     C  206   8.412   4.861   2.164  0.9283  1.0821 -0.3982
  743MOL0     C  207   8.523   4.956   2.134  0.1445 -0.1885 -0.7106
  743MOL0     C  208   8.616   4.985   2.252  0.5188 -0.1391 -0.5550
  743MOL0     C  209   8.716   5.096   2.232 -0.0580 -0.0859 -0.5214
  743MOL0     C  210   8.669   5.239   2.257 -0.1440  0.8783  0.3381
  743MOL0     C  211   8.773   5.348   2.247  0.6235  0.1565  0.2916
  743MOL0     C  212   8.856   5.353   2.382 -0.7815  0.1717  0.3075
  743MOL0     C  213   8.968   5.455   2.381  0.2324 -0.1083  0.6843
  743MOL0    Cl  214   9.098   5.415   2.264 -0.1353 -0.2385  0.2857
  743MOL0     C  215   8.138   4.746   2.166  0.8075  0.2034 -0.4826
  743MOL0     C  216   7.995   4.728   2.184 -0.4786  0.9100 -0.4002
  743MOL0     O  217   7.774   4.936   2.296 -0.4603 -0.4151 -0.3292
  743MOL0     C  218   7.493   4.898   2.342  1.0988  0.9239 -0.5326
  743MOL0     C  219   7.352   4.892   2.331 -0.0977 -0.1059 -0.1319
  743MOL0     N  220   6.720   4.446   2.009 -0.3370 -0.3117  0.6123
  743MOL0     N  221   6.621   4.362   2.016  0.0713  0.2669 -0.3331
  743MOL0     C  222   7.117   3.835   2.327  0.0846  1.0767 -0.4228
  743MOL0     C  223   7.254   3.830   2.301 -0.3947  0.6081 -0.3040
  743MOL0     C  224   7.611   3.582   2.187 -0.5964 -0.5175  0.1614
  743MOL0     C  225   7.708   3.685   2.213 -0.1851 -0.7647  0.2624
  743MOL0     C  226   7.848   3.667   2.220  0.1277 -0.0831 -0.3472
  743MOL0     C  227   7.891   3.538   2.217 -0.2007 -0.5066  0.2901
  743MOL0     O  228   8.024   3.507   2.244 -0.3587  0.1589  0.0520
  743MOL0     C  229   8.081   3.540   2.370 -0.7408  1.1272 -0.9490
  743MOL0     C  230   8.223   3.598   2.349 -0.3112  0.3795  0.2077
  743MOL0     C  231   8.303   3.530   2.242 -0.3519 -0.4269 -0.4621
  743MOL0     C  232   8.456   3.550   2.250 -0.0648  0.4080 -0.7964
  743MOL0     C  233   8.514   3.503   2.379  0.4388 -0.2401  0.9505
  743MOL0     C  234   8.539   3.459   2.490  0.7028 -0.9769 -0.2786
  743MOL0     C  235   7.809   3.440   2.187 -0.2703 -0.2911 -0.3690
  743MOL0     C  236   7.677   3.456   2.165 -0.3203  0.5949 -0.4403
  743MOL0     C  237   7.592   3.330   2.126 -0.2099 -0.7839 -0.6251
  743MOL0     H  238   7.245   3.697   1.985 -0.0713 -2.7498  1.4903
  743MOL0     H  239   6.998   3.717   2.028 -2.0186 -2.9737  2.7547
  743MOL0     H  240   6.799   3.778   2.065 -0.7040  1.0411  0.2439
  743MOL0     H  241   6.805   3.623   2.164 -0.7860  0.1387 -0.2245
  743MOL0     H  242   6.640   3.703   2.311  0.3465  0.8705 -0.3935
  743MOL0     H  243   6.578   3.684   2.153 -2.3154  1.8496  0.4055
  743MOL0     H  244   6.595   3.918   2.109  3.3720  0.6871  0.8026
  743MOL0     H  245   6.664   3.956   2.264 -0.1715 -1.7096  1.8443
  743MOL0     H  246   6.390   3.866   2.184  2.1041 -5.6558  0.3035
  743MOL0     H  247   6.427   3.847   2.357 -1.1677 -0.1700 -0.6199
  743MOL0     H  248   6.318   4.063   2.346  1.4351  1.0142  1.2874
  743MOL0     H  249   6.489   4.085   2.383  0.2701 -0.8022  0.0383
  743MOL0     H  250   6.546   4.182   2.176  0.1635 -1.7622 -1.4710
  743MOL0     H  251   6.415   4.101   2.093  0.2351  0.0795 -0.6630
  743MOL0     H  252   6.383   4.330   2.300  3.1188  0.8872 -1.8653
  743MOL0     H  253   6.255   4.255   2.212  0.0350 -1.8181 -0.9782
  743MOL0     H  254   6.338   4.358   2.005  0.9342  1.9612 -0.8322
  743MOL0     H  255   6.326   4.478   2.131 -0.6997 -1.1863 -0.1731
  743MOL0     H  256   6.525   4.640   2.166  0.6322 -0.0324 -2.2603
  743MOL0     H  257   6.873   4.659   2.015  1.3278  3.9981  0.3947
  743MOL0     H  258   6.736   4.760   2.039 -2.5054 -1.6342  0.3310
  743MOL0     H  259   6.878   4.826   2.208 -0.6339  0.3999  3.4115
  743MOL0     H  260   6.767   4.723   2.295  1.2638  1.0623  1.6642
  743MOL0     H  261   6.951   4.534   2.260  0.0734 -0.2019  0.6071
  743MOL0     H  262   6.973   4.645   2.389  0.7971  2.4734 -0.1215
  743MOL0     H  263   7.088   4.678   2.103  2.0210 -0.0886 -0.2702
  743MOL0     H  264   7.164   4.591   2.239  0.6991  0.2392 -0.9106
  743MOL0     H  265   7.333   4.688   2.066  0.2771 -0.0440  1.5931
  743MOL0     H  266   7.560   4.739   2.043 -1.6309 -2.2056 -0.1619
  743MOL0     H  267   7.896   4.953   1.955 -0.5011 -1.3638  0.6605
  743MOL0     H  268   8.124   4.984   1.927  1.2097 -1.3790 -1.5755
  743MOL0     H  269   8.361   4.898   2.253 -1.4093  4.2123 -2.8154
  743MOL0     H  270   8.449   4.758   2.169 -1.0836  0.1717 -2.4969
  743MOL0     H  271   8.596   4.918   2.062  0.1918  0.5895 -1.0806
  743MOL0     H  272   8.475   5.043   2.088  0.1019 -0.4907 -1.2483
  743MOL0     H  273   8.556   5.008   2.341 -0.6698 -0.6640 -1.2031
  743MOL0     H  274   8.671   4.894   2.276  0.1915  0.4223  2.7458
  743MOL0     H  275   8.749   5.087   2.128  0.2164  2.1746 -0.6668
  743MOL0     H  276   8.793   5.076   2.307  0.3834  0.6784 -0.7654
  743MOL0     H  277   8.622   5.252   2.355  0.8723  0.2614  0.9256
  743MOL0     H  278   8.586   5.262   2.190 -1.6990  0.0637  1.9108
  743MOL0     H  279   8.831   5.327   2.157 -0.2205 -3.5248  0.4464
  743MOL0     H  280   8.713   5.439   2.242  0.4075 -0.0578 -1.7509
  743MOL0     H  281   8.900   5.253   2.391 -0.7406  0.1093 -0.4753
  743MOL0     H  282   8.779   5.373   2.457 -1.5686  1.0668 -0.7054
  743MOL0     H  283   8.928   5.547   2.337  2.3600 -0.1647 -1.5899
  743MOL0     H  284   9.000   5.462   2.485 -1.0468 -3.8815  1.5262
  743MOL0     H  285   8.206   4.698   2.236  0.5386 -0.1569 -0.4661
  743MOL0     H  286   7.950   4.667   2.261  0.2873 -0.3240 -0.8911
  743MOL0     H  287   7.536   4.951   2.426  0.8656  0.3237 -0.0201
  743MOL0     H  288   7.292   4.924   2.416  0.2231  2.7098 -0.8686
  743MOL0     H  289   7.090   3.870   2.426  2.6144  2.6707 -0.1997
  743MOL0     H  290   7.331   3.864   2.369 -1.1877 -0.7093  1.3256
  743MOL0     H  291   7.671   3.787   2.224  0.2309 -0.4287 -1.1894
  743MOL0     H  292   7.919   3.747   2.237  0.8037 -0.6378 -0.5439
  743MOL0     H  293   8.087   3.450   2.431 -2.9087 -0.8886 -3.4234
  743MOL0     H  294   8.030   3.621   2.424 -0.4191  0.3581  0.5492
  743MOL0     H  295   8.267   3.612   2.448 -1.8731  2.8143  0.6419
  743MOL0     H  296   8.201   3.697   2.308 -1.1954 -0.3289 -1.0767
  743MOL0     H  297   8.283   3.572   2.143 -1.3727  0.2122 -0.0021
  743MOL0     H  298   8.279   3.423   2.240  0.7568 -0.6713 -1.9022
  743MOL0     H  299   8.506   3.500   2.167  0.3245  1.3645 -1.1504
  743MOL0     H  300   8.478   3.657   2.242  1.6305  0.2765  1.2582
  743MOL0     H  301   8.564   3.419   2.586  3.1933  2.3166  0.6173
  743MOL0     H  302   7.838   3.336   2.175 -2.1185 -0.9617  0.6308
  743MOL0     H  303   7.536   3.294   2.213  3.0405 -3.9429  0.3622
  743MOL0     H  304   7.526   3.362   2.045 -0.1025  2.2556  0.3619
  743MOL0     H  305   7.663   3.252   2.098  1.0234 -0.6131  1.7783
  744MOL0     O  306   9.185   1.922   8.378  0.2332  0.1582 -0.0353
  744MOL0     C  307   9.068   1.963   8.380 -0.0963  1.1962  0.2883
  744MOL0     O  308   9.007   2.021   8.488  0.1697  0.0476  0.4631
  744MOL0     C  309   9.088   2.037   8.601 -0.3769  1.2239 -0.4980
  744MOL0     C  310   9.123   2.157   8.658  0.0821  0.0352  0.6690
  744MOL0     C  311   9.208   2.169   8.771  0.2962  0.5543  0.1292
  744MOL0     C  312   9.234   2.054   8.845 -0.7093  1.3398 -0.8728
  744MOL0     O  313   9.300   2.044   8.963  0.5777 -0.0428 -0.1355
  744MOL0     C  314   9.362   2.166   9.004  0.3641 -0.7623  0.2581
  744MOL0     C  315   9.450   2.160   9.121  0.1306  0.4261 -0.9518
  744MOL0     C  316   9.520   2.290   9.130  0.1042 -0.5356  0.1775
  744MOL0     C  317   9.589   2.284   9.271 -0.3165  0.0631  0.3225
  744MOL0     C  318   9.724   2.361   9.278  0.5311 -0.1302 -0.0933
  744MOL0     C  319   9.795   2.357   9.420  0.9556  0.8506  0.0827
  744MOL0     C  320   9.944   2.406   9.412  0.3361  0.1214  0.4862
  744MOL0     C  321   9.978   2.554   9.417 -0.8283  0.9622  0.2409
  744MOL0     N  322  10.118   2.571   9.458  0.0721 -0.0815  0.1817
  744MOL0     C  323  10.149   2.565   9.593  0.2014 -0.5764  0.6270
  744MOL0     C  324  10.274   2.605   9.596  0.1067  0.7252 -0.6410
  744MOL0     C  325  10.344   2.634   9.727 -0.1460  0.6678 -0.1121
  744MOL0     C  326  10.332   2.777   9.758  0.2633 -0.0767  0.7885
  744MOL0     C  327  10.422   2.874   9.681  0.1561 -0.6961  0.4254
  744MOL0     C  328  10.567   2.837   9.718 -0.5707 -0.2878  0.5588
  744MOL0     O  329  10.637   2.955   9.696 -0.7547 -0.7548  0.1760
  744MOL0     C  330  10.765   2.962   9.737  0.0951  0.0492  0.4184
  744MOL0     C  331  10.818   2.886   9.836  0.1247  0.2232  0.0460
  744MOL0     C  332  10.953   2.890   9.864  0.2778  0.8169 -0.8953
  744MOL0     C  333  11.037   2.977   9.805 -0.6460  0.2150 -0.1139
  744MOL0     C  334  11.180   2.989   9.838 -0.9491  0.3791 -0.6357
  744MOL0     O  335  11.248   3.099   9.788 -0.0235  0.2466 -0.1093
  744MOL0     C  336  11.387   3.118   9.785 -0.2324  0.1211  0.0601
  744MOL0     C  337  11.435   3.249   9.768  0.1541 -0.1948 -0.7826
  744MOL0     C  338  11.574   3.277   9.762 -0.7116  0.2725  0.2888
  744MOL0     C  339  11.667   3.174   9.769 -1.1485 -0.4519 -1.3930
  744MOL0     O  340  11.805   3.203   9.772 -0.0492  0.7658 -0.3186
  744MOL0     C  341  11.853   3.337   9.786  0.4748  0.0081  0.0588
  744MOL0     C  342  12.006   3.318   9.799  1.0764  0.6771 -0.3831
  744MOL0     C  343  12.078   3.446   9.810  0.1601 -0.7073  0.6932
  744MOL0     C  344  12.226   3.425   9.789 -0.4679  0.3277  0.3213
  744MOL0     C  345  12.309   3.544   9.831 -0.5256 -0.1173  0.4612
  744MOL0     C  346  12.455   3.530   9.790 -0.4263  0.0744  1.0955
  744MOL0     C  347  12.546   3.653   9.836  0.3665 -0.2973 -0.2018
  744MOL0     C  348  12.686   3.655   9.774 -0.8275 -0.3758 -0.8102
  744MOL0    Cl  349  12.771   3.795   9.842  0.0924 -0.0675  0.4194
  744MOL0     C  350  11.619   3.044   9.782  0.0604  0.7918 -0.4788
  744MOL0     C  351  11.482   3.015   9.784  0.3386 -0.1504 -0.2542
  744MOL0     O  352  11.227   2.895   9.899 -0.2410  0.5866  0.1492
  744MOL0     C  353  10.979   3.060   9.708  0.0571 -0.1997 -0.1340
  744MOL0     C  354  10.845   3.052   9.675  0.0609 -0.1401  0.7636
  744MOL0     N  355  10.322   2.618   9.474  0.1029 -0.2434  0.2581
  744MOL0     N  356  10.226   2.604   9.386 -0.3869 -0.8153  0.0300
  744MOL0     C  357   9.197   1.922   8.794  1.1141 -0.4607  0.0846
  744MOL0     C  358   9.126   1.923   8.671 -0.1274 -0.7371  1.0084
  744MOL0     C  359   8.980   1.958   8.256  0.2105 -0.7578 -1.5365
  744MOL0     C  360   8.861   2.034   8.265 -0.0060 -0.1636 -0.2391
  744MOL0     C  361   8.774   2.035   8.154  0.8072 -0.0044  0.0220
  744MOL0     C  362   8.804   1.964   8.039  0.7100  0.3958 -0.2973
  744MOL0     O  363   8.711   1.984   7.941 -0.0369  0.0614 -0.5784
  744MOL0     C  364   8.739   1.934   7.809  0.4923 -0.7593  0.3653
  744MOL0     C  365   8.638   1.986   7.702 -0.7911  0.1663 -0.5440
  744MOL0     C  366   8.619   1.899   7.582 -0.3130  0.0566  0.1481
  744MOL0     C  367   8.518   1.960   7.480 -0.5445  0.7466  0.7847
  744MOL0     C  368   8.379   1.966   7.529  0.5139  1.1809 -0.6528
  744MOL0     C  369   8.276   1.972   7.588 -0.6540  0.1505  0.0535
  744MOL0     C  370   8.921   1.887   8.036 -0.7078  0.9802 -0.0053
  744MOL0     C  371   9.016   1.891   8.141 -0.5985 -0.1689 -0.7393
  744MOL0     C  372   9.141   1.808   8.115  0.1972  0.0545 -0.4003
  744MOL0     H  373   9.079   2.245   8.612 -1.8322  0.0995  2.5039
  744MOL0     H  374   9.238   2.268   8.806  1.5131 -0.0066  0.6942
  744MOL0     H  375   9.419   2.215   8.925 -1.3903  1.6924  0.4101
  744MOL0     H  376   9.280   2.234   9.030 -0.7846 -1.5094 -1.2336
  744MOL0     H  377   9.521   2.077   9.124 -3.0825 -2.5121 -0.0453
  744MOL0     H  378   9.382   2.145   9.205  2.7551 -1.0324  1.0581
  744MOL0     H  379   9.455   2.378   9.119  2.1017  1.0494  0.3454
  744MOL0     H  380   9.590   2.283   9.046 -1.5703 -1.5045 -1.2070
  744MOL0     H  381   9.521   2.322   9.347 -1.7042 -0.5575 -0.5520
  744MOL0     H  382   9.617   2.180   9.291 -0.3109  0.1939  1.0095
  744MOL0     H  383   9.789   2.307   9.208 -1.5095 -1.5058 -1.0175
  744MOL0     H  384   9.699   2.465   9.255 -2.1117 -0.9766 -1.4108
  744MOL0     H  385   9.735   2.405   9.498  1.1081  0.8477  0.2022
  744MOL0     H  386   9.797   2.253   9.454  1.5084  1.0718  0.7600
  744MOL0     H  387   9.988   2.372   9.318  0.0654  1.9122 -0.3276
  744MOL0     H  388   9.995   2.354   9.494 -0.9296 -1.4427  0.3247
  744MOL0     H  389   9.958   2.602   9.321  1.6675  0.3087 -0.6818
  744MOL0     H  390   9.915   2.609   9.487  0.8951  4.4250 -0.7111
  744MOL0     H  391  10.076   2.538   9.669 -1.9499  0.6212 -0.9092
  744MOL0     H  392  10.294   2.581   9.809  0.6556  0.9340  0.5575
  744MOL0     H  393  10.450   2.608   9.721 -0.1875  0.5392 -0.2892
  744MOL0     H  394  10.229   2.813   9.757  0.4616  0.7503 -2.5329
  744MOL0     H  395  10.360   2.781   9.864  0.1168 -1.4840  0.8882
  744MOL0     H  396  10.400   2.974   9.719  1.9829  1.0349 -2.6544
  744MOL0     H  397  10.404   2.873   9.573 -1.4095 -1.3642  0.6622
  744MOL0     H  398  10.614   2.751   9.668  2.1408  0.2870  1.9200
  744MOL0     H  399  10.573   2.806   9.823 -0.4000 -1.6658  0.1687
  744MOL0     H  400  10.749   2.825   9.893 -1.5681  0.2725 -1.8746
  744MOL0     H  401  11.000   2.821   9.933  0.5841  1.3918 -0.5201
  744MOL0     H  402  11.361   3.325   9.790 -2.5519 -3.2417  1.8184
  744MOL0     H  403  11.601   3.381   9.749 -0.4585 -0.1084 -3.4959
  744MOL0     H  404  11.841   3.396   9.694  1.1323  0.9638  0.5784
  744MOL0     H  405  11.822   3.385   9.879  1.8789 -0.7680  0.9502
  744MOL0     H  406  12.032   3.259   9.887  0.0517  1.3448  0.3824
  744MOL0     H  407  12.045   3.263   9.712 -2.3687 -0.4817 -1.3500
  744MOL0     H  408  12.033   3.510   9.733  1.0464 -0.1738  0.6046
  744MOL0     H  409  12.059   3.504   9.901 -1.8502  0.7835 -0.5930
  744MOL0     H  410  12.245   3.405   9.683 -2.1711 -0.0637  0.0626
  744MOL0     H  411  12.263   3.339   9.846 -0.9884 -0.8081 -0.9926
  744MOL0     H  412  12.300   3.546   9.940  1.6912 -2.4894  0.7813
  744MOL0     H  413  12.267   3.640   9.801  1.8242  0.9323  0.2811
  744MOL0     H  414  12.493   3.439   9.838  0.4699 -0.2214 -0.1165
  744MOL0     H  415  12.449   3.531   9.680  2.1517  0.2340  0.8911
  744MOL0     H  416  12.557   3.661   9.945 -0.3166  1.8574 -0.2478
  744MOL0     H  417  12.505   3.749   9.804 -1.9029 -1.1980 -0.1908
  744MOL0     H  418  12.742   3.566   9.804 -0.7664 -0.0914 -0.0659
  744MOL0     H  419  12.676   3.663   9.665 -2.5881 -3.3154 -0.9836
  744MOL0     H  420  11.691   2.964   9.773 -1.0309 -0.5461  1.7555
  744MOL0     H  421  11.464   2.908   9.785 -2.3888  0.1920  2.3328
  744MOL0     H  422  11.036   3.143   9.668 -1.0500  0.3462 -0.6081
  744MOL0     H  423  10.792   3.121   9.610  0.9396  0.4714  0.6689
  744MOL0     H  424   9.216   1.833   8.852 -1.6346 -0.6789  0.7896
  744MOL0     H  425   9.108   1.825   8.628 -1.6143 -0.5091  1.0457
  744MOL0     H  426   8.829   2.077   8.360  0.0028 -2.7942  1.0249
  744MOL0     H  427   8.679   2.088   8.153  0.6960 -0.0566  2.4030
  744MOL0     H  428   8.724   1.825   7.812  0.7382 -0.7801  1.6576
  744MOL0     H  429   8.841   1.957   7.779 -0.3459  2.0578 -0.5779
  744MOL0     H  430   8.679   2.084   7.676  0.4897  0.5631  2.5523
  744MOL0     H  431   8.545   1.996   7.758  1.9035  2.4285  4.1623
  744MOL0     H  432   8.581   1.803   7.620  0.0030 -0.2767 -0.3655
  744MOL0     H  433   8.717   1.886   7.534 -0.1302  0.1395  0.4968
  744MOL0     H  434   8.540   2.065   7.459  0.1316  0.4424 -0.0790
  744MOL0     H  435   8.521   1.900   7.389 -0.8886  1.8974  0.0030
  744MOL0     H  436   8.190   1.982   7.650 -0.3716  1.4684  0.2564
  744MOL0     H  437   8.945   1.831   7.946 -0.7541  0.2392  0.4290
  744MOL0     H  438   9.235   1.841   8.161  1.7722 -2.3313 -1.7077
  744MOL0     H  439   9.141   1.708   8.160 -0.7303 -0.2928 -1.1420
  744MOL0     H  440   9.161   1.801   8.008  0.2308  0.3274 -0.4131
  745MOL0     O  441   4.003  10.829   3.390 -0.0499  0.2595 -0.1655
  745MOL0     C  442   3.956  10.941   3.406 -0.3413 -0.5390 -0.0719
  745MOL0     O  443   4.031  11.051   3.427 -0.1200  0.0597 -1.1472
  745MOL0     C  444   4.169  11.049   3.424  0.0061 -0.0268 -0.4699
  745MOL0     C  445   4.234  11.146   3.349 -1.3341  0.9338 -0.9396
  745MOL0     C  446   4.368  11.161   3.337 -0.9324 -0.6046 -0.8890
  745MOL0     C  447   4.456  11.061   3.394  1.3968  0.2114  0.6683
  745MOL0     O  448   4.595  11.058   3.375  0.6199  0.3350 -0.7311
  745MOL0     C  449   4.646  11.158   3.287  0.9192  0.5524 -0.4959
  745MOL0     C  450   4.793  11.124   3.254  1.1002  0.7112 -0.8638
  745MOL0     C  451   4.818  10.975   3.218  0.1651  0.1525 -0.1712
  745MOL0     C  452   4.965  10.935   3.172  0.1588 -0.7065 -0.1093
  745MOL0     C  453   4.990  10.792   3.161  0.2763  0.1073  0.5782
  745MOL0     C  454   5.123  10.768   3.076 -0.3993 -0.5775 -0.2822
  745MOL0     C  455   5.163  10.619   3.084  0.0952  0.6583  0.2501
  745MOL0     C  456   5.271  10.578   2.983 -1.4504 -0.5557 -0.8008
  745MOL0     N  457   5.395  10.537   3.042  0.1171  0.6655 -0.1532
  745MOL0     C  458   5.450  10.582   3.156 -0.2341 -0.3053  0.3368
  745MOL0     C  459   5.566  10.517   3.175  0.0404 -0.1961  0.8602
  745MOL0     C  460   5.650  10.537   3.296 -0.1473 -0.0553  0.1529
  745MOL0     C  461   5.800  10.569   3.267 -0.1164 -0.3241 -0.0930
  745MOL0     C  462   5.821  10.715   3.208 -0.7150  0.0212  0.8621
  745MOL0     C  463   5.955  10.772   3.239  0.2057  0.9209 -1.1197
  745MOL0     O  464   5.961  10.914   3.221 -0.3048 -0.2890  0.3057
  745MOL0     C  465   6.092  10.956   3.235  0.1091  0.0546  0.6554
  745MOL0     C  466   6.163  11.004   3.116 -0.8256  0.4847 -0.2801
  745MOL0     C  467   6.294  11.058   3.136  1.1854  0.2492  0.1305
  745MOL0     C  468   6.355  11.061   3.267 -0.0129 -0.5110 -0.1735
  745MOL0     C  469   6.490  11.110   3.293  0.4220  0.2291  0.5257
  745MOL0     O  470   6.535  11.099   3.422  0.0710 -0.1477 -0.4198
  745MOL0     C  471   6.661  11.158   3.447  0.1321  1.1630 -0.2805
  745MOL0     C  472   6.779  11.080   3.456 -0.0467  0.2041  0.0927
  745MOL0     C  473   6.905  11.126   3.481 -0.8709  0.1100 -0.3462
  745MOL0     C  474   6.924  11.261   3.503  0.9007 -1.0912  0.1879
  745MOL0     O  475   7.048  11.308   3.511 -0.3361  0.0768  0.1917
  745MOL0     C  476   7.082  11.422   3.579 -0.9211 -1.0158 -0.4172
  745MOL0     C  477   7.219  11.403   3.662  0.6962 -0.4021  0.6213
  745MOL0     C  478   7.341  11.408   3.566 -0.3223 -0.0235 -0.0014
  745MOL0     C  479   7.475  11.368   3.639  0.5600  1.1625 -0.2349
  745MOL0     C  480   7.545  11.478   3.715 -0.3599  0.8417  0.5355
  745MOL0     C  481   7.686  11.431   3.783 -0.2447 -0.3773  0.4162
  745MOL0     C  482   7.680  11.309   3.872 -0.3449  0.5615  0.4984
  745MOL0     C  483   7.815  11.295   3.954 -0.3565  0.4860  0.2499
  745MOL0    Cl  484   7.951  11.242   3.852 -0.0564  0.0706  0.0983
  745MOL0     C  485   6.809  11.348   3.493 -0.1300  0.2838 -0.2522
  745MOL0     C  486   6.683  11.293   3.464  0.1397 -0.2035 -0.4096
  745MOL0     O  487   6.542  11.180   3.209  0.1401  0.2631  0.2277
  745MOL0     C  488   6.280  11.008   3.379  0.2015  0.3652  0.5918
  745MOL0     C  489   6.147  10.957   3.358  0.5156 -0.3146  0.4571
  745MOL0     N  490   5.578  10.438   3.057 -0.3971  0.6232 -1.4092
  745MOL0     N  491   5.484  10.453   2.979  0.5096 -0.1769 -0.5695
  745MOL0     C  492   4.394  10.960   3.463  1.0926  0.1178 -0.9694
  745MOL0     C  493   4.253  10.950   3.480  0.1501 -0.7844  0.7039
  745MOL0     C  494   3.811  10.955   3.397  0.0348 -0.3136  0.0248
  745MOL0     C  495   3.748  10.866   3.309  0.1494  0.3874  0.3895
  745MOL0     C  496   3.607  10.856   3.299  0.0297 -0.2098  0.6416
  745MOL0     C  497   3.530  10.951   3.363  0.7180  0.1019  0.5779
  745MOL0     O  498   3.393  10.959   3.369  0.0220 -0.2762 -0.1087
  745MOL0     C  499   3.332  10.910   3.253 -1.0169 -0.2867 -0.5566
  745MOL0     C  500   3.193  10.960   3.237 -0.7269  0.0364  0.8052
  745MOL0     C  501   3.111  10.880   3.342 -0.5817  0.7835  1.1282
  745MOL0     C  502   2.965  10.912   3.348 -0.0015  0.6731 -0.1094
  745MOL0     C  503   2.891  10.898   3.223  0.5303 -0.2804  0.5387
  745MOL0     C  504   2.820  10.891   3.121 -0.5560 -0.1937 -0.8193
  745MOL0     C  505   3.593  11.044   3.442  0.2196 -0.1294  0.3205
  745MOL0     C  506   3.734  11.045   3.464  0.7580  0.9357 -0.2555
  745MOL0     C  507   3.779  11.141   3.565  0.3058  0.6787  0.6589
  745MOL0     H  508   4.171  11.224   3.306  0.0586  2.6446 -0.0091
  745MOL0     H  509   4.394  11.255   3.289 -2.0928  0.9009  1.2390
  745MOL0     H  510   4.588  11.153   3.194  2.3482  1.8173 -1.5093
  745MOL0     H  511   4.638  11.256   3.335 -1.4675 -0.2094  0.8340
  745MOL0     H  512   4.841  11.150   3.348 -0.5205  0.2929  0.1098
  745MOL0     H  513   4.832  11.193   3.178  1.4690 -1.1853 -2.4911
  745MOL0     H  514   4.757  10.957   3.129  1.5538 -0.2005 -1.0826
  745MOL0     H  515   4.781  10.917   3.303 -1.5856  2.0534  0.4490
  745MOL0     H  516   4.999  10.990   3.084  1.8297 -3.1737 -1.1157
  745MOL0     H  517   5.029  10.971   3.253 -2.8520  1.2440  1.5657
  745MOL0     H  518   4.998  10.745   3.259  0.6946  0.7289  0.8461
  745MOL0     H  519   4.900  10.753   3.112  0.1236 -0.9617  1.6893
  745MOL0     H  520   5.116  10.800   2.972  2.1634  0.0039 -0.3365
  745MOL0     H  521   5.204  10.832   3.113 -0.0218  0.2416 -2.4002
  745MOL0     H  522   5.078  10.559   3.051 -0.1110  1.0006  0.1497
  745MOL0     H  523   5.190  10.588   3.185 -1.2542  0.6912  0.6365
  745MOL0     H  524   5.248  10.482   2.937  2.4451 -1.0099 -2.1875
  745MOL0     H  525   5.279  10.649   2.900 -2.7794 -0.9441 -1.2908
  745MOL0     H  526   5.417  10.658   3.226 -1.8472  1.2775 -1.9741
  745MOL0     H  527   5.614  10.625   3.350 -2.8049  1.7296 -4.0046
  745MOL0     H  528   5.643  10.447   3.358  0.9415  0.5388  1.2041
  745MOL0     H  529   5.860  10.564   3.358  0.5017  1.8643 -0.3286
  745MOL0     H  530   5.832  10.488   3.200 -1.8829 -1.7365  0.6649
  745MOL0     H  531   5.742  10.776   3.254 -0.4938  0.6033  0.4810
  745MOL0     H  532   5.794  10.714   3.102 -1.9016 -1.8927  1.1233
  745MOL0     H  533   6.027  10.718   3.177 -1.2521 -1.7433 -0.6284
  745MOL0     H  534   5.979  10.737   3.340 -1.2909 -1.7970 -1.5978
  745MOL0     H  535   6.117  10.998   3.017  2.4329 -0.1395 -1.9108
  745MOL0     H  536   6.360  11.082   3.053 -0.1771  0.9649 -0.7995
  745MOL0     H  537   6.757  10.974   3.457 -0.2983  0.2136 -1.4511
  745MOL0     H  538   6.983  11.052   3.498 -0.0567  0.7997 -0.9757
  745MOL0     H  539   7.088  11.510   3.515  0.6148 -1.8324 -1.4650
  745MOL0     H  540   7.009  11.451   3.655  1.7402  2.6661  1.0354
  745MOL0     H  541   7.217  11.496   3.720 -0.2474  0.3741 -0.6020
  745MOL0     H  542   7.211  11.319   3.731  1.6775 -0.4897  0.6309
  745MOL0     H  543   7.328  11.332   3.489  0.0015  0.6654 -0.7548
  745MOL0     H  544   7.343  11.504   3.513  1.4289  1.8145  3.0877
  745MOL0     H  545   7.545  11.326   3.566  0.8032  1.7901 -0.3649
  745MOL0     H  546   7.443  11.285   3.703  0.3370  1.5815  0.2092
  745MOL0     H  547   7.478  11.514   3.794 -1.6880  1.0985 -0.6723
  745MOL0     H  548   7.561  11.566   3.653  0.5910  0.6429  0.4816
  745MOL0     H  549   7.761  11.399   3.711 -0.6929 -0.2756 -0.1014
  745MOL0     H  550   7.723  11.510   3.849 -1.2594  0.3727  0.1232
  745MOL0     H  551   7.680  11.215   3.818  2.4641 -0.0368  1.3833
  745MOL0     H  552   7.591  11.322   3.935  0.2483  1.2323  1.2217
  745MOL0     H  553   7.827  11.392   4.003 -0.8580  1.1808 -0.9396
  745MOL0     H  554   7.795  11.216   4.027 -0.4593  0.1610 -0.1266
  745MOL0     H  555   6.815  11.456   3.501 -0.2574  0.2218  0.8570
  745MOL0     H  556   6.598  11.360   3.454  0.4281  0.0412 -1.2828
  745MOL0     H  557   6.316  11.000   3.481 -3.6346 -0.6102  2.0400
  745MOL0     H  558   6.096  10.910   3.441 -1.0993 -0.5689 -0.6442
  745MOL0     H  559   4.458  10.886   3.510 -0.5066  0.5395  2.0940
  745MOL0     H  560   4.211  10.871   3.542 -0.2789  0.2314  1.7525
  745MOL0     H  561   3.807  10.786   3.267 -0.7685 -0.0095 -0.1854
  745MOL0     H  562   3.566  10.778   3.235  1.2388 -0.7543  0.4987
  745MOL0     H  563   3.332  10.802   3.237 -2.3656 -0.2000 -1.2512
  745MOL0     H  564   3.393  10.957   3.175  1.1457  0.2328  1.3415
  745MOL0     H  565   3.148  10.950   3.138  2.5471  0.2221 -0.8303
  745MOL0     H  566   3.189  11.065   3.266  0.9068  0.5990 -0.8001
  745MOL0     H  567   3.168  10.871   3.435  1.4944 -0.3489 -0.1714
  745MOL0     H  568   3.112  10.777   3.305  3.7337  0.9040  0.4117
  745MOL0     H  569   2.918  10.843   3.419 -0.0331 -1.3076 -1.9575
  745MOL0     H  570   2.937  11.012   3.383 -2.7506 -0.0116 -0.1651
  745MOL0     H  571   2.754  10.896   3.038 -3.5302 -2.2331  1.2128
  745MOL0     H  572   3.531  11.113   3.499  3.5972  2.8757  0.6725
  745MOL0     H  573   3.727  11.122   3.659  1.4698 -2.2802  0.8021
  745MOL0     H  574   3.885  11.126   3.587  0.5517  0.6298 -0.4929
  745MOL0     H  575   3.768  11.243   3.527  0.6544  0.3921 -0.2490
  746MOL0     O  576   0.784   1.092   2.413  0.1813 -0.0884 -0.1731
  746MOL0     C  577   0.730   1.185   2.365 -0.0289 -0.2725  0.3633
  746MOL0     O  578   0.793   1.290   2.295  0.0173  0.3027  0.7739
  746MOL0     C  579   0.928   1.314   2.300 -0.0591 -0.5309  0.0721
  746MOL0     C  580   0.995   1.358   2.183  0.4932 -0.5727 -0.0159
  746MOL0     C  581   1.133   1.393   2.188  0.8483  0.8629  0.3143
  746MOL0     C  582   1.199   1.391   2.314 -0.3785  0.7571  0.8316
  746MOL0     O  583   1.322   1.427   2.329  0.1955  0.2168  0.3391
  746MOL0     C  584   1.360   1.518   2.432 -0.3331  0.2532 -0.3459
  746MOL0     C  585   1.482   1.590   2.384  0.9347  0.4124  0.1598
  746MOL0     C  586   1.538   1.700   2.475  0.4697  0.6725  0.4544
  746MOL0     C  587   1.688   1.721   2.461 -0.3539 -0.4356 -0.1470
  746MOL0     C  588   1.733   1.866   2.494 -0.0779  0.2007 -0.3090
  746MOL0     C  589   1.884   1.880   2.463 -0.4927  0.5776  0.7761
  746MOL0     C  590   1.920   2.027   2.435  0.1602 -0.9050 -0.1374
  746MOL0     C  591   2.067   2.056   2.448 -0.7222 -0.4287  0.0935
  746MOL0     N  592   2.145   1.950   2.389 -0.0256 -0.1495  0.0132
  746MOL0     C  593   2.179   1.956   2.258  0.1271  0.8683  0.7645
  746MOL0     C  594   2.271   1.860   2.245  0.4224  0.0796 -0.4529
  746MOL0     C  595   2.349   1.824   2.116 -0.7386  0.0068 -0.9485
  746MOL0     C  596   2.476   1.916   2.095 -0.1720  0.9085  0.4089
  746MOL0     C  597   2.561   1.852   1.990 -0.1847  0.7702  0.0502
  746MOL0     C  598   2.669   1.953   1.950 -0.2721 -0.3503 -0.0419
  746MOL0     O  599   2.734   1.917   1.827  0.4484 -0.0705  0.6928
  746MOL0     C  600   2.818   2.001   1.768 -0.0200 -0.3020  0.0585
  746MOL0     C  601   2.945   2.039   1.825 -0.3750  0.2668  0.9080
  746MOL0     C  602   3.043   2.114   1.751  0.1301 -0.3957 -0.4694
  746MOL0     C  603   3.000   2.162   1.623 -0.6453 -0.2103 -0.2709
  746MOL0     C  604   3.096   2.248   1.541  0.4420  0.0426 -0.1356
  746MOL0     O  605   3.035   2.293   1.430 -0.2518 -0.7856  0.4016
  746MOL0     C  606   3.111   2.378   1.346  0.0008 -0.0824  0.8983
  746MOL0     C  607   3.098   2.356   1.212 -0.3603 -0.2657 -0.8572
  746MOL0     C  608   3.167   2.434   1.115 -1.0189  0.4771  0.3102
  746MOL0     C  609   3.237   2.551   1.155  0.0008  0.0100  0.0628
  746MOL0     O  610   3.319   2.622   1.072  0.2512 -0.0845  0.1116
  746MOL0     C  611   3.329   2.579   0.941  0.0852  0.4430  0.2637
  746MOL0     C  612   3.438   2.649   0.873  0.3306  0.2844  0.0878
  746MOL0     C  613   3.574   2.581   0.870 -0.2696  0.3128  0.5318
  746MOL0     C  614   3.684   2.657   0.796  0.0880 -0.1419 -0.7079
  746MOL0     C  615   3.667   2.657   0.639 -0.5617  0.5886  0.2494
  746MOL0     C  616   3.748   2.751   0.553  0.1414 -0.2346 -0.1830
  746MOL0     C  617   3.899   2.744   0.567  0.2111 -0.1635 -0.2767
  746MOL0     C  618   3.968   2.850   0.492 -0.1038  0.1956  0.5369
  746MOL0    Cl  619   3.930   3.023   0.550 -0.1602  0.1001  0.0521
  746MOL0     C  620   3.250   2.581   1.294 -0.3982  0.2318 -0.2522
  746MOL0     C  621   3.190   2.487   1.385  0.4708  0.2911  0.5721
  746MOL0     O  622   3.207   2.268   1.584 -0.8867  0.1613 -0.0830
  746MOL0     C  623   2.876   2.133   1.576  0.0798  0.0855  0.3579
  746MOL0     C  624   2.780   2.048   1.642  0.5818  0.8189 -0.1559
  746MOL0     N  625   2.278   1.785   2.368  0.2084 -0.4450  0.0470
  746MOL0     N  626   2.199   1.844   2.451  0.0485  0.0915  0.6116
  746MOL0     C  627   1.132   1.339   2.425 -0.1941  0.2339 -0.3527
  746MOL0     C  628   0.999   1.299   2.422  0.5019  1.0831  0.8012
  746MOL0     C  629   0.577   1.184   2.366 -0.3246  0.3202  0.6437
  746MOL0     C  630   0.517   1.306   2.347  0.0368  0.4152  0.6830
  746MOL0     C  631   0.384   1.306   2.335 -0.1076 -0.6272  0.6820
  746MOL0     C  632   0.303   1.193   2.340  0.2283  0.0906  0.1061
  746MOL0     O  633   0.163   1.223   2.329  0.2129  0.0593 -0.5154
  746MOL0     C  634   0.078   1.149   2.416  0.8618  0.5317  0.0010
  746MOL0     C  635  -0.066   1.149   2.359 -0.6875  0.3480  0.3834
  746MOL0     C  636  -0.169   1.084   2.446 -0.3507 -0.3967 -0.2268
  746MOL0     C  637  -0.311   1.123   2.412 -0.9093  0.1053 -0.3431
  746MOL0     C  638  -0.412   1.051   2.499  0.0176  0.1801  0.2402
  746MOL0     C  639  -0.485   0.990   2.566 -0.1593  0.0225  0.2602
  746MOL0     C  640   0.365   1.073   2.363  0.5528 -0.4772  0.9910
  746MOL0     C  641   0.500   1.067   2.374 -0.5382 -0.0242  0.6177
  746MOL0     C  642   0.558   0.932   2.385  0.2976  0.0273 -0.3647
  746MOL0     H  643   0.933   1.377   2.096 -0.8560 -0.8264  0.8565
  746MOL0     H  644   1.175   1.421   2.092  0.7087 -0.6546 -0.2231
  746MOL0     H  645   1.282   1.595   2.445 -0.5117 -0.2903  2.2782
  746MOL0     H  646   1.379   1.476   2.531  0.6181  2.6093  0.5633
  746MOL0     H  647   1.450   1.637   2.291  1.6760  3.0236  1.1492
  746MOL0     H  648   1.566   1.520   2.371  1.8901  1.6985 -0.7950
  746MOL0     H  649   1.527   1.661   2.577 -1.5420  0.8575  0.3338
  746MOL0     H  650   1.489   1.796   2.458  0.2389  0.4855  0.0441
  746MOL0     H  651   1.740   1.657   2.533  1.0216  0.1255 -0.6080
  746MOL0     H  652   1.735   1.690   2.367  2.1862 -2.1509  1.5406
  746MOL0     H  653   1.678   1.944   2.439 -1.2789  0.5531  1.3208
  746MOL0     H  654   1.721   1.880   2.601 -0.2130  1.8388 -0.5083
  746MOL0     H  655   1.942   1.826   2.538 -0.3871  0.8784  0.9146
  746MOL0     H  656   1.900   1.828   2.369 -1.0498  0.9075  0.4943
  746MOL0     H  657   1.870   2.088   2.511  0.0399  1.1902 -1.7890
  746MOL0     H  658   1.889   2.057   2.334  2.7190  0.1563 -0.6821
  746MOL0     H  659   2.090   2.154   2.403 -0.1313  0.2635  1.8285
  746MOL0     H  660   2.088   2.065   2.555 -2.7510  1.3662  0.4239
  746MOL0     H  661   2.144   2.026   2.184 -0.6264  0.7060  0.9604
  746MOL0     H  662   2.381   1.719   2.111  1.4499  0.5446  0.3664
  746MOL0     H  663   2.280   1.844   2.034 -1.2380 -2.0901 -1.0968
  746MOL0     H  664   2.454   2.020   2.070  1.1758  1.1166  0.0320
  746MOL0     H  665   2.526   1.921   2.193 -1.6028  0.4288  1.1989
  746MOL0     H  666   2.496   1.826   1.906 -0.8863 -0.5477  0.9477
  746MOL0     H  667   2.601   1.759   2.033 -2.0915  0.0000  0.2819
  746MOL0     H  668   2.734   1.954   2.038 -0.7964 -0.5285  0.3527
  746MOL0     H  669   2.633   2.055   1.933  0.5384 -0.3197 -1.8060
  746MOL0     H  670   2.976   1.995   1.919  1.1830  0.6079  0.5884
  746MOL0     H  671   3.139   2.138   1.796 -0.6164  0.3545  0.7732
  746MOL0     H  672   3.028   2.283   1.173  0.9002 -0.9737 -1.8576
  746MOL0     H  673   3.160   2.413   1.009 -0.5329  2.8450 -0.2496
  746MOL0     H  674   3.355   2.475   0.917  0.8635  0.7373 -0.1942
  746MOL0     H  675   3.233   2.607   0.898  1.5801  1.6921 -2.5325
  746MOL0     H  676   3.411   2.670   0.769  2.8983 -0.7140 -0.8732
  746MOL0     H  677   3.456   2.736   0.937 -0.9376 -1.5038  3.1071
  746MOL0     H  678   3.606   2.575   0.975 -1.5224  3.7329  1.2300
  746MOL0     H  679   3.559   2.482   0.826 -0.0076  1.3306 -1.9795
  746MOL0     H  680   3.785   2.619   0.815 -0.1888 -0.5187  0.0511
  746MOL0     H  681   3.683   2.760   0.836 -1.2869  0.4177 -2.1156
  746MOL0     H  682   3.559   2.663   0.620 -1.1765 -1.4376  2.4868
  746MOL0     H  683   3.701   2.560   0.599  0.6532  0.8733  0.5656
  746MOL0     H  684   3.729   2.738   0.446 -2.7100  0.9653  0.0837
  746MOL0     H  685   3.730   2.857   0.577  0.5366  0.1348 -1.4263
  746MOL0     H  686   3.933   2.647   0.530 -0.4521  0.0538 -1.4937
  746MOL0     H  687   3.932   2.744   0.672  0.2163 -4.5973 -0.0969
  746MOL0     H  688   4.075   2.827   0.502 -0.0749 -0.2033 -0.5383
  746MOL0     H  689   3.954   2.841   0.384  2.6426 -0.3990  0.1351
  746MOL0     H  690   3.301   2.669   1.331  0.1660  0.4267 -1.4640
  746MOL0     H  691   3.191   2.503   1.492 -2.8016 -0.4847  0.8472
  746MOL0     H  692   2.847   2.178   1.481  1.6392 -1.9938 -1.1945
  746MOL0     H  693   2.695   2.009   1.587  1.7402 -1.4149 -0.4834
  746MOL0     H  694   1.187   1.330   2.519 -2.2108 -0.5322  0.8272
  746MOL0     H  695   0.957   1.244   2.505  0.0363  1.3763  0.7656
  746MOL0     H  696   0.571   1.400   2.346 -0.3503  0.6382  0.2309
  746MOL0     H  697   0.325   1.394   2.314  0.0203 -1.0205 -1.5276
  746MOL0     H  698   0.079   1.203   2.511  0.9668  0.8577 -0.1842
  746MOL0     H  699   0.114   1.046   2.428  1.2998  0.6531 -0.2440
  746MOL0     H  700  -0.062   1.101   2.261 -1.1310 -0.9441  0.9775
  746MOL0     H  701  -0.085   1.257   2.351  2.0106  0.9694  1.1752
  746MOL0     H  702  -0.159   1.118   2.550  0.3701 -1.1869 -0.0231
  746MOL0     H  703  -0.157   0.976   2.451  1.4643 -0.2043  0.4652
  746MOL0     H  704  -0.332   1.230   2.422  1.7097  1.2431 -4.5572
  746MOL0     H  705  -0.323   1.092   2.308  1.6022 -1.3148 -0.2873
  746MOL0     H  706  -0.545   0.922   2.624 -0.2532 -0.2499 -0.1545
  746MOL0     H  707   0.297   0.989   2.369 -0.7611  0.5033  0.4370
  746MOL0     H  708   0.491   0.858   2.341 -1.8250  1.6183 -0.0126
  746MOL0     H  709   0.655   0.919   2.337  0.3702 -0.3994 -0.1019
  746MOL0     H  710   0.563   0.908   2.492 -0.7408 -3.6534 -0.9923
  747MOL0     O  711   4.510   5.574   6.683 -0.1228  0.1262 -0.0120
  747MOL0     C  712   4.444   5.623   6.772  0.1974  0.1358 -0.0094
  747MOL0     O  713   4.439   5.755   6.796  0.1934 -0.0336  0.5867
  747MOL0     C  714   4.454   5.855   6.706 -0.8174 -0.1550  0.0124
  747MOL0     C  715   4.483   5.980   6.763 -0.1490  0.4470 -0.3342
  747MOL0     C  716   4.497   6.093   6.683  0.2405  0.0165  0.2020
  747MOL0     C  717   4.475   6.089   6.546  0.2569 -1.0986  0.6389
  747MOL0     O  718   4.473   6.207   6.467  0.3368  0.5858  0.9242
  747MOL0     C  719   4.369   6.292   6.509 -0.5613 -0.5633  0.2945
  747MOL0     C  720   4.286   6.352   6.383 -1.0666 -0.4476  0.4604
  747MOL0     C  721   4.284   6.253   6.276 -0.6948  0.8006 -0.5364
  747MOL0     C  722   4.171   6.289   6.174 -0.4699  0.3208  1.1828
  747MOL0     C  723   4.207   6.224   6.041 -0.0874 -0.9249 -0.5666
  747MOL0     C  724   4.159   6.077   6.040 -0.0707  0.6037  0.0900
  747MOL0     C  725   4.225   5.982   5.931 -0.2769 -0.6597 -0.6403
  747MOL0     C  726   4.195   6.021   5.789 -0.0662  0.1833 -0.5533
  747MOL0     N  727   4.243   5.925   5.685 -0.0329 -0.4166 -0.0736
  747MOL0     C  728   4.258   5.787   5.707 -0.2375 -0.0250  0.0326
  747MOL0     C  729   4.282   5.744   5.586 -0.2102  0.6550 -0.0442
  747MOL0     C  730   4.313   5.597   5.559  0.4101  0.3397  0.4256
  747MOL0     C  731   4.458   5.560   5.551  0.7908  0.1441  0.0851
  747MOL0     C  732   4.540   5.612   5.437  0.2095 -0.3133 -0.3341
  747MOL0     C  733   4.684   5.647   5.478  0.2003 -0.2293  0.1263
  747MOL0     O  734   4.743   5.545   5.564 -0.0270  0.4347  0.0324
  747MOL0     C  735   4.883   5.566   5.588  0.4811  0.1970 -0.2248
  747MOL0     C  736   4.922   5.614   5.714  0.3556  0.2045 -0.1303
  747MOL0     C  737   5.053   5.624   5.745  0.5979  0.1821  0.4455
  747MOL0     C  738   5.150   5.572   5.661 -0.5860 -0.3666 -0.0913
  747MOL0     C  739   5.291   5.592   5.688 -0.2155  0.4699 -0.4987
  747MOL0     O  740   5.379   5.568   5.588  0.1013 -0.1169 -0.0908
  747MOL0     C  741   5.513   5.600   5.599 -0.1636 -0.2427  0.4349
  747MOL0     C  742   5.564   5.691   5.502  0.2520  0.1447  0.1495
  747MOL0     C  743   5.700   5.721   5.495  0.6884 -0.4400 -0.3804
  747MOL0     C  744   5.787   5.664   5.590  0.3969  0.6466  0.4926
  747MOL0     O  745   5.912   5.704   5.605 -0.3037  0.6320 -0.0359
  747MOL0     C  746   5.966   5.790   5.508 -0.3980 -0.4902  0.0421
  747MOL0     C  747   6.103   5.819   5.551  0.4299 -0.7289 -0.0325
  747MOL0     C  748   6.157   5.946   5.482 -0.7731  0.1788 -0.5652
  747MOL0     C  749   6.296   5.976   5.546  0.2987 -0.0376 -0.2597
  747MOL0     C  750   6.363   6.082   5.462 -0.2809 -0.1674  0.7817
  747MOL0     C  751   6.443   6.007   5.354  0.4088  0.3593  0.4658
  747MOL0     C  752   6.513   6.107   5.253 -0.2459  0.6980  0.6513
  747MOL0     C  753   6.643   6.034   5.196 -0.0983  0.1488 -0.5475
  747MOL0    Cl  754   6.597   5.921   5.067 -0.3164 -0.1311  0.0121
  747MOL0     C  755   5.737   5.576   5.687  0.0436  0.8572  0.8905
  747MOL0     C  756   5.607   5.539   5.690  0.6213 -0.0675  1.3746
  747MOL0     O  757   5.317   5.633   5.803  0.5282  0.3686 -0.0647
  747MOL0     C  758   5.109   5.508   5.546  1.3160 -0.5511  0.3542
  747MOL0     C  759   4.976   5.519   5.507 -0.5815  0.4176  0.3128
  747MOL0     N  760   4.269   5.843   5.487 -0.1523  1.0131 -0.1667
  747MOL0     N  761   4.255   5.954   5.554 -0.0374  0.6006 -0.1454
  747MOL0     C  762   4.457   5.963   6.484  0.0406  0.0087 -0.5784
  747MOL0     C  763   4.450   5.841   6.566  0.1905 -0.3954  0.2448
  747MOL0     C  764   4.386   5.542   6.881  0.1670  0.0505  0.2560
  747MOL0     C  765   4.285   5.594   6.969 -0.8102 -0.6502  0.0270
  747MOL0     C  766   4.224   5.523   7.077  0.4881 -0.2362 -0.1741
  747MOL0     C  767   4.280   5.401   7.109  0.3008 -0.9266  0.3818
  747MOL0     O  768   4.271   5.344   7.235 -0.5953 -0.7650  0.3510
  747MOL0     C  769   4.171   5.390   7.324 -0.1631  0.0308 -0.2149
  747MOL0     C  770   4.146   5.288   7.430 -0.9245 -0.4160  0.3764
  747MOL0     C  771   4.050   5.345   7.535 -0.1112  0.5202  0.4961
  747MOL0     C  772   3.954   5.243   7.596 -0.6660 -0.4282  0.1628
  747MOL0     C  773   3.858   5.205   7.493  1.3515  0.0766  0.3836
  747MOL0     C  774   3.781   5.191   7.399  0.1181 -0.7520 -0.6294
  747MOL0     C  775   4.376   5.349   7.031  0.6587  0.2254 -0.0527
  747MOL0     C  776   4.429   5.409   6.921 -0.0539 -0.1132  0.7068
  747MOL0     C  777   4.538   5.323   6.848  0.0456 -0.6465  0.4633
  747MOL0     H  778   4.492   5.999   6.869 -0.4154 -3.0120  0.4114
  747MOL0     H  779   4.520   6.191   6.723  0.7704  0.5943 -1.4465
  747MOL0     H  780   4.296   6.244   6.575 -0.7688 -0.3398  0.2295
  747MOL0     H  781   4.413   6.372   6.568 -1.0699 -1.2803  1.6886
  747MOL0     H  782   4.340   6.443   6.357  0.5199 -0.2656  3.8182
  747MOL0     H  783   4.183   6.382   6.404 -1.3132 -0.3130 -0.8533
  747MOL0     H  784   4.257   6.157   6.322  0.0764  1.1400  0.6590
  747MOL0     H  785   4.377   6.235   6.221 -1.5191  0.1130 -1.7652
  747MOL0     H  786   4.079   6.253   6.221 -0.0140  0.9954  2.6305
  747MOL0     H  787   4.135   6.391   6.158  0.3633  0.5315  0.5701
  747MOL0     H  788   4.153   6.261   5.954 -1.6347 -3.9224 -0.9901
  747MOL0     H  789   4.310   6.243   6.009 -0.0315 -1.8853 -0.9885
  747MOL0     H  790   4.201   6.033   6.131  1.8981  1.7178 -0.2197
  747MOL0     H  791   4.050   6.078   6.036 -0.1729  0.1226  1.7625
  747MOL0     H  792   4.184   5.883   5.956 -2.7502  0.8178  1.6846
  747MOL0     H  793   4.334   5.984   5.946 -0.3204  0.0322 -0.4042
  747MOL0     H  794   4.088   6.029   5.770 -0.2176 -0.7000 -0.1151
  747MOL0     H  795   4.252   6.111   5.765 -1.9398  1.1316 -1.6435
  747MOL0     H  796   4.255   5.720   5.793 -2.0916  0.5665  0.4820
  747MOL0     H  797   4.260   5.528   5.626  2.5820 -0.1609  1.7065
  747MOL0     H  798   4.268   5.576   5.462 -4.0296  3.1910  1.5387
  747MOL0     H  799   4.505   5.582   5.647  0.1241  5.4930 -0.4979
  747MOL0     H  800   4.458   5.451   5.539 -1.2464 -0.0514  1.3795
  747MOL0     H  801   4.493   5.699   5.391  2.2880  0.0573 -1.9008
  747MOL0     H  802   4.548   5.537   5.357 -1.1686 -0.4861 -0.3367
  747MOL0     H  803   4.690   5.747   5.523  0.6114  0.7102 -1.9384
  747MOL0     H  804   4.734   5.650   5.381 -4.0804 -1.7390 -2.4208
  747MOL0     H  805   4.852   5.638   5.793  1.7106  0.0052  1.1735
  747MOL0     H  806   5.074   5.673   5.839  3.7881 -1.7416  0.8929
  747MOL0     H  807   5.496   5.721   5.422  0.5188 -1.0089 -0.5295
  747MOL0     H  808   5.720   5.789   5.413 -2.1094  1.2799  0.2081
  747MOL0     H  809   5.967   5.740   5.411  1.1158  0.1007 -0.2741
  747MOL0     H  810   5.910   5.885   5.512  0.0374 -0.2678  1.4041
  747MOL0     H  811   6.090   5.844   5.656 -0.4151  2.3669 -0.7774
  747MOL0     H  812   6.159   5.726   5.534  1.2393 -0.1707 -0.5293
  747MOL0     H  813   6.172   5.917   5.377  0.9960 -4.5513  0.7185
  747MOL0     H  814   6.083   6.025   5.499 -0.5504 -0.2343  3.1043
  747MOL0     H  815   6.358   5.891   5.575  1.6770  1.1384  0.4393
  747MOL0     H  816   6.273   6.034   5.636  2.2477  2.2564 -1.1168
  747MOL0     H  817   6.431   6.145   5.520  1.7043  0.3639 -1.9356
  747MOL0     H  818   6.291   6.147   5.411  1.7000  4.9254  3.7128
  747MOL0     H  819   6.515   5.936   5.397  1.8379  0.4335 -1.6749
  747MOL0     H  820   6.373   5.957   5.287  0.7595  3.1361 -2.1807
  747MOL0     H  821   6.549   6.200   5.299 -0.0498  1.8879 -1.7008
  747MOL0     H  822   6.443   6.130   5.172 -0.3354  1.2060  0.8681
  747MOL0     H  823   6.709   6.114   5.160  1.0425 -1.1887 -1.4943
  747MOL0     H  824   6.704   5.979   5.268  3.6888 -0.0017 -3.5425
  747MOL0     H  825   5.802   5.549   5.770  1.8245 -1.1513 -1.0243
  747MOL0     H  826   5.573   5.484   5.777  2.7507  0.1168  2.3732
  747MOL0     H  827   5.182   5.468   5.477  0.9586 -0.2709 -0.1931
  747MOL0     H  828   4.960   5.487   5.405 -1.4815  1.2615  0.1781
  747MOL0     H  829   4.449   5.962   6.376  0.3545  1.1618 -0.6204
  747MOL0     H  830   4.423   5.749   6.517 -0.2108 -0.0526 -0.1838
  747MOL0     H  831   4.240   5.689   6.943 -1.7696 -1.2311 -0.5238
  747MOL0     H  832   4.142   5.563   7.137  2.6588 -0.0149  2.9046
  747MOL0     H  833   4.075   5.388   7.271  1.0046 -0.9169 -2.4444
  747MOL0     H  834   4.200   5.484   7.372  1.2801  0.9710 -2.7547
  747MOL0     H  835   4.243   5.279   7.480 -0.9602  0.4286  0.6172
  747MOL0     H  836   4.113   5.195   7.382  1.3466 -0.4309 -1.2962
  747MOL0     H  837   3.987   5.428   7.503 -0.7264 -0.7676 -1.8807
  747MOL0     H  838   4.108   5.380   7.621 -0.0543 -1.3448  1.2732
  747MOL0     H  839   4.008   5.149   7.617  3.0723  1.2564 -0.9784
  747MOL0     H  840   3.912   5.289   7.686  2.2914 -1.2060  2.1059
  747MOL0     H  841   3.714   5.198   7.316 -1.8232  0.8737  0.9633
  747MOL0     H  842   4.408   5.250   7.060  2.8795  1.3468  1.5941
  747MOL0     H  843   4.551   5.354   6.744  1.4024  2.1414  1.3585
  747MOL0     H  844   4.638   5.334   6.891  1.0794 -2.4666 -1.2696
  747MOL0     H  845   4.507   5.218   6.852 -4.9574  0.5667  0.0851
  748MOL0     O  846   2.367   0.926   6.372 -0.6505 -0.8497 -0.0286
  748MOL0     C  847   2.301   0.965   6.470  0.2681 -0.4415 -0.0820
  748MOL0     O  848   2.315   1.071   6.546  0.6103  0.0984  0.0130
  748MOL0     C  849   2.413   1.168   6.504  0.4611  0.4704  0.1570
  748MOL0     C  850   2.535   1.181   6.585  0.9718 -0.2603 -0.0782
  748MOL0     C  851   2.636   1.264   6.546 -0.2363  0.7052 -0.0609
  748MOL0     C  852   2.638   1.329   6.426  0.8850  0.3801 -0.9456
  748MOL0     O  853   2.733   1.403   6.371  0.3418 -0.3224  0.1914
  748MOL0     C  854   2.865   1.349   6.390  0.8230 -0.2581  0.8784
  748MOL0     C  855   2.971   1.438   6.344  0.5821  0.2052  0.0781
  748MOL0     C  856   3.107   1.377   6.371 -0.1470  0.0481  0.2391
  748MOL0     C  857   3.201   1.462   6.274 -0.3343  1.3158 -0.2002
  748MOL0     C  858   3.347   1.405   6.290  0.2651  0.2804 -0.9198
  748MOL0     C  859   3.374   1.263   6.223  0.0983 -0.4997 -0.4310
  748MOL0     C  860   3.505   1.194   6.253 -0.0501 -0.4963 -0.2815
  748MOL0     C  861   3.494   1.044   6.209 -0.4073 -1.4387  0.0082
  748MOL0     N  862   3.634   0.991   6.194  0.0475 -0.3085  0.1983
  748MOL0     C  863   3.714   1.013   6.082 -0.1620  0.0947 -0.1991
  748MOL0     C  864   3.822   0.929   6.116 -0.4979  0.0656  0.5794
  748MOL0     C  865   3.930   0.893   6.008  1.5169 -0.5129 -0.6949
  748MOL0     C  866   3.853   0.843   5.889  0.3305  0.1430 -0.0573
  748MOL0     C  867   3.941   0.760   5.791 -0.7714 -0.3301  0.4443
  748MOL0     C  868   3.982   0.615   5.827  0.3086  0.7607 -0.1129
  748MOL0     O  869   4.101   0.624   5.913  0.0455 -0.5526 -0.4334
  748MOL0     C  870   4.224   0.613   5.851 -1.0247 -0.3838 -0.1433
  748MOL0     C  871   4.247   0.625   5.713  0.6831  0.2363 -0.0810
  748MOL0     C  872   4.378   0.606   5.659  0.1156 -0.4232 -0.0026
  748MOL0     C  873   4.491   0.571   5.744 -0.1946  0.1312  0.0706
  748MOL0     C  874   4.624   0.530   5.677 -0.0970  0.4728 -0.7104
  748MOL0     O  875   4.725   0.536   5.767  0.5567  0.6480  0.0926
  748MOL0     C  876   4.837   0.479   5.733 -0.5570 -0.3916  0.2430
  748MOL0     C  877   4.927   0.558   5.663 -0.3661  0.1404 -0.2288
  748MOL0     C  878   5.058   0.501   5.645  0.1654  1.2208 -0.4514
  748MOL0     C  879   5.089   0.367   5.685  0.1745 -0.2392 -0.4679
  748MOL0     O  880   5.222   0.318   5.683  0.6592  0.2271  0.6074
  748MOL0     C  881   5.267   0.272   5.811  0.0238  0.4408  0.1537
  748MOL0     C  882   5.396   0.193   5.795 -0.3144 -0.4337  0.6932
  748MOL0     C  883   5.504   0.288   5.765 -0.0009 -0.5814  0.5953
  748MOL0     C  884   5.641   0.226   5.734  0.3758  1.1868 -0.2531
  748MOL0     C  885   5.731   0.320   5.659 -0.0457 -0.4641  0.1840
  748MOL0     C  886   5.860   0.243   5.616 -0.5659 -0.9674 -0.2311
  748MOL0     C  887   5.980   0.341   5.582  0.4951  0.9900  0.2385
  748MOL0     C  888   6.090   0.263   5.519  0.3402 -0.0544  0.7884
  748MOL0    Cl  889   6.213   0.376   5.457 -0.2609 -0.7056  0.2195
  748MOL0     C  890   4.985   0.285   5.727  0.0853 -0.1522  0.2884
  748MOL0     C  891   4.858   0.342   5.759  0.6449  0.8195  0.1287
  748MOL0     O  892   4.639   0.500   5.562  0.0837  0.5305  0.1983
  748MOL0     C  893   4.471   0.569   5.884  0.5280 -0.1032  0.5416
  748MOL0     C  894   4.338   0.590   5.932 -0.4995 -0.2610 -0.4829
  748MOL0     N  895   3.806   0.867   6.244 -0.5457  0.0846 -0.1953
  748MOL0     N  896   3.688   0.902   6.287  0.7092 -0.3711 -0.4506
  748MOL0     C  897   2.519   1.319   6.353 -0.6679 -0.2064 -0.3285
  748MOL0     C  898   2.409   1.239   6.386  0.1383 -0.6266 -0.0789
  748MOL0     C  899   2.182   0.867   6.514 -0.0411  0.3610  0.3926
  748MOL0     C  900   2.090   0.913   6.608  0.3280  0.2014  0.0327
  748MOL0     C  901   1.977   0.839   6.643  0.8295 -0.8438 -0.1938
  748MOL0     C  902   1.967   0.708   6.596  0.1110 -0.6332  0.6785
  748MOL0     O  903   1.874   0.613   6.643 -0.0252 -0.3059  0.0167
  748MOL0     C  904   1.781   0.641   6.747 -0.2732 -0.3972 -0.0587
  748MOL0     C  905   1.725   0.515   6.806 -0.1350  0.1251  0.1885
  748MOL0     C  906   1.651   0.446   6.699  0.1595  0.4947  0.2521
  748MOL0     C  907   1.546   0.349   6.757  0.2500 -0.0903 -0.3583
  748MOL0     C  908   1.417   0.404   6.803  0.1633 -0.2057  0.5405
  748MOL0     C  909   1.320   0.463   6.848 -0.5435 -0.4937  0.1606
  748MOL0     C  910   2.058   0.658   6.505 -0.2578  0.1798  0.1591
  748MOL0     C  911   2.167   0.737   6.460 -0.2800  0.3216 -0.5715
  748MOL0     C  912   2.250   0.675   6.357  0.2950 -0.3014 -0.0566
  748MOL0     H  913   2.541   1.110   6.668 -0.3002 -2.1821 -1.5322
  748MOL0     H  914   2.713   1.271   6.622 -0.5155  2.9385  0.0657
  748MOL0     H  915   2.873   1.338   6.498 -1.3386  0.7024  1.1881
  748MOL0     H  916   2.861   1.252   6.338 -2.1987  1.2090 -2.0393
  748MOL0     H  917   2.970   1.538   6.390  1.1574  0.5413 -0.6144
  748MOL0     H  918   2.947   1.440   6.237  0.6707 -1.9201 -0.0232
  748MOL0     H  919   3.107   1.268   6.356 -3.7952 -0.6190  3.4176
  748MOL0     H  920   3.132   1.386   6.477 -1.3638 -2.3071  0.7964
  748MOL0     H  921   3.166   1.461   6.170  0.4123  0.7331 -0.4614
  748MOL0     H  922   3.210   1.567   6.302  0.9586  1.3593 -0.6909
  748MOL0     H  923   3.424   1.469   6.245  1.6124  0.1895  1.1082
  748MOL0     H  924   3.380   1.396   6.394  0.9553  1.1571 -1.0432
  748MOL0     H  925   3.299   1.191   6.255  0.3555 -1.5977 -2.1976
  748MOL0     H  926   3.376   1.272   6.114 -0.7093 -2.4758 -0.6380
  748MOL0     H  927   3.518   1.192   6.362 -4.1385  1.4376  0.4217
  748MOL0     H  928   3.591   1.238   6.202 -0.5569  1.8383  0.7534
  748MOL0     H  929   3.430   0.983   6.275 -1.3196  0.4516  0.9365
  748MOL0     H  930   3.447   1.045   6.111  1.5542  0.4343 -0.9936
  748MOL0     H  931   3.696   1.067   5.990  0.6525 -1.9565 -1.6445
  748MOL0     H  932   3.980   0.990   6.003 -0.5979  0.7515  0.7129
  748MOL0     H  933   3.992   0.811   6.045  0.3806 -1.2818 -0.4327
  748MOL0     H  934   3.779   0.771   5.926  4.0743 -4.0756  0.0650
  748MOL0     H  935   3.793   0.925   5.848  0.1010  1.2683  2.3443
  748MOL0     H  936   4.030   0.814   5.760 -0.1210 -2.3303 -1.4555
  748MOL0     H  937   3.891   0.743   5.695 -0.8974 -0.5398  0.5459
  748MOL0     H  938   3.999   0.552   5.739  1.0762  0.4110  0.2797
  748MOL0     H  939   3.898   0.581   5.888 -0.0147 -2.3665 -2.0702
  748MOL0     H  940   4.169   0.654   5.644 -1.3006  1.5874  2.5350
  748MOL0     H  941   4.391   0.598   5.551  0.1667 -0.4473  0.0053
  748MOL0     H  942   4.901   0.662   5.649 -1.4431 -0.2743 -1.5594
  748MOL0     H  943   5.128   0.570   5.599 -0.5192  2.0366 -0.2981
  748MOL0     H  944   5.274   0.342   5.894 -2.1106 -2.9057  3.5185
  748MOL0     H  945   5.194   0.201   5.851 -0.0333 -0.5248 -1.5477
  748MOL0     H  946   5.413   0.132   5.884  3.7877  0.0083  0.3972
  748MOL0     H  947   5.389   0.125   5.710  0.0968 -0.6491  0.8280
  748MOL0     H  948   5.479   0.341   5.673  0.1834 -0.2585  0.7296
  748MOL0     H  949   5.505   0.360   5.848 -2.2372 -1.1439  1.1782
  748MOL0     H  950   5.629   0.134   5.676  0.4934  0.7396  0.4229
  748MOL0     H  951   5.691   0.188   5.824 -2.2592 -2.1667  0.0003
  748MOL0     H  952   5.761   0.405   5.721  1.1238  0.8603 -2.0510
  748MOL0     H  953   5.688   0.361   5.567  0.2307 -0.9913 -0.1864
  748MOL0     H  954   5.889   0.184   5.703  0.4730 -0.0075  0.1008
  748MOL0     H  955   5.839   0.176   5.532 -1.9073 -3.5669  1.9931
  748MOL0     H  956   6.014   0.387   5.676 -2.4183  1.5570  1.1145
  748MOL0     H  957   5.941   0.424   5.523  1.0187  1.8652  1.0892
  748MOL0     H  958   6.143   0.202   5.593 -0.2454 -2.3746 -0.6189
  748MOL0     H  959   6.059   0.202   5.434  2.7494  2.2586 -1.9398
  748MOL0     H  960   5.014   0.181   5.740  2.7285  0.2214 -1.7750
  748MOL0     H  961   4.786   0.271   5.797 -2.2323  2.3148 -2.0905
  748MOL0     H  962   4.547   0.549   5.958  0.1841 -0.8371  0.7028
  748MOL0     H  963   4.333   0.580   6.040  3.9491 -0.2673 -0.1275
  748MOL0     H  964   2.523   1.371   6.258  3.4873  0.1926 -0.1309
  748MOL0     H  965   2.334   1.241   6.308  1.2649 -1.6014 -1.2389
  748MOL0     H  966   2.104   1.015   6.642 -2.9681  0.4806  0.9474
  748MOL0     H  967   1.899   0.875   6.709 -0.8910 -1.9769 -1.4846
  748MOL0     H  968   1.703   0.712   6.718  0.5516  0.2536 -0.7318
  748MOL0     H  969   1.828   0.698   6.828 -0.5497  2.8063 -1.9952
  748MOL0     H  970   1.649   0.535   6.882 -2.4207 -0.7634 -1.7241
  748MOL0     H  971   1.807   0.459   6.852 -0.9251 -1.4237 -0.2112
  748MOL0     H  972   1.731   0.399   6.642  0.9184 -0.4505  2.0355
  748MOL0     H  973   1.606   0.521   6.633  0.0676  1.4250  1.3428
  748MOL0     H  974   1.525   0.279   6.676 -1.0215 -1.3095  0.9618
  748MOL0     H  975   1.603   0.301   6.837 -1.2051  1.8282  1.9783
  748MOL0     H  976   1.235   0.504   6.897 -0.7746 -2.6148  1.6774
  748MOL0     H  977   2.046   0.558   6.464 -2.4009  0.9471 -1.2233
  748MOL0     H  978   2.219   0.572   6.337 -3.5957  0.4447  1.3260
  748MOL0     H  979   2.248   0.731   6.263  2.1632 -1.9238 -1.1423
  748MOL0     H  980   2.352   0.671   6.395  0.1409  0.5557  0.4920
  749MOL0     O  981   9.654   6.205   5.765 -0.0303 -0.1065 -0.0335
  749MOL0     C  982   9.677   6.088   5.798 -0.0879  0.0086  0.8717
  749MOL0     O  983   9.761   6.055   5.900 -0.5026  0.0277  0.7962
  749MOL0     C  984   9.853   6.151   5.939  0.2533  0.1573 -0.6271
  749MOL0     C  985   9.945   6.206   5.848  0.5344 -0.0478  0.5159
  749MOL0     C  986  10.058   6.276   5.888  0.1601 -0.1846 -0.1513
  749MOL0     C  987  10.073   6.309   6.022 -0.6924  0.4411 -0.4041
  749MOL0     O  988  10.174   6.391   6.059  1.0435 -0.6375  0.6453
  749MOL0     C  989  10.211   6.408   6.194  0.0985  0.7705 -0.1100
  749MOL0     C  990  10.307   6.519   6.212 -0.2553 -0.1767  0.7186
  749MOL0     C  991  10.375   6.514   6.349 -0.9980  0.2064  0.8652
  749MOL0     C  992  10.488   6.406   6.369 -0.5525  0.2867  0.0854
  749MOL0     C  993  10.586   6.428   6.489  1.2800 -0.3613  0.0064
  749MOL0     C  994  10.640   6.572   6.502  0.1621  0.1981  0.1142
  749MOL0     C  995  10.732   6.610   6.624 -0.5552  0.6659 -0.3836
  749MOL0     C  996  10.759   6.766   6.625 -0.4724 -0.0464 -0.0583
  749MOL0     N  997  10.880   6.785   6.711  0.2258  0.7380  0.7758
  749MOL0     C  998  10.879   6.800   6.849 -0.0236 -0.9751 -0.1531
  749MOL0     C  999  11.010   6.830   6.877 -0.4725 -0.2799 -0.4342
  749MOL0     C 1000  11.060   6.848   7.022 -0.6322  0.0610 -0.4060
  749MOL0     C 1001  10.981   6.966   7.085 -0.0793  0.1368  0.5795
  749MOL0     C 1002  10.992   7.099   7.003 -0.8854 -0.1772 -0.2254
  749MOL0     C 1003  11.133   7.162   6.982 -0.2840 -0.0218 -0.4978
  749MOL0     O 1004  11.205   7.125   7.105  0.4845 -0.0910  0.1421
  749MOL0     C 1005  11.336   7.151   7.110 -0.4677  0.0282 -0.0225
  749MOL0     C 1006  11.403   7.121   7.228 -0.7102 -0.0079  0.0043
  749MOL0     C 1007  11.542   7.131   7.230 -0.4645 -0.8767 -0.2705
  749MOL0     C 1008  11.620   7.154   7.115  0.4800  0.0086 -0.2082
  749MOL0     C 1009  11.772   7.135   7.112 -0.2403 -0.6571  0.1575
  749MOL0     O 1010  11.816   7.079   7.232 -0.4975  0.2051 -0.9331
  749MOL0     C 1011  11.946   7.063   7.250 -0.5681  0.0527  0.5496
  749MOL0     C 1012  12.037   6.976   7.190 -0.2357 -0.3581  0.0735
  749MOL0     C 1013  12.169   6.988   7.227 -0.3834  0.2120  0.2169
  749MOL0     C 1014  12.210   7.060   7.339 -0.3090  0.6970 -0.0390
  749MOL0     O 1015  12.340   7.040   7.367  0.0587 -0.1542  0.4775
  749MOL0     C 1016  12.399   7.148   7.439 -0.0786  0.9177  0.2241
  749MOL0     C 1017  12.550   7.109   7.456  0.2112 -0.4943  0.8187
  749MOL0     C 1018  12.616   7.209   7.535  0.1364  0.0933  0.1264
  749MOL0     C 1019  12.760   7.181   7.575 -0.1967  0.2205  0.1432
  749MOL0     C 1020  12.868   7.131   7.477 -0.7647 -0.2684  1.6691
  749MOL0     C 1021  12.868   7.220   7.339 -0.3570 -0.3779  0.6435
  749MOL0     C 1022  12.947   7.162   7.220 -0.8957 -0.1887 -0.3564
  749MOL0     C 1023  13.104   7.176   7.251  0.7124  0.2661 -0.0248
  749MOL0    Cl 1024  13.207   7.057   7.154  0.0690 -0.1730 -0.1929
  749MOL0     C 1025  12.119   7.134   7.409  0.0363 -0.1531 -0.0951
  749MOL0     C 1026  11.989   7.143   7.355  0.0063 -0.0603  0.3058
  749MOL0     O 1027  11.844   7.149   7.016 -0.1531 -0.3746  0.2721
  749MOL0     C 1028  11.546   7.199   7.003 -0.2687 -0.0308 -0.8174
  749MOL0     C 1029  11.408   7.207   7.005  0.8943 -0.6096 -0.6064
  749MOL0     N 1030  11.075   6.836   6.755 -0.1362  0.4651  0.0742
  749MOL0     N 1031  11.005   6.804   6.662  0.0782 -0.4233 -0.7213
  749MOL0     C 1032   9.979   6.258   6.113  0.5695  0.9241  0.2179
  749MOL0     C 1033   9.870   6.181   6.073 -0.3481  0.1279  0.0057
  749MOL0     C 1034   9.599   5.979   5.739 -0.4037  0.4600 -0.0520
  749MOL0     C 1035   9.468   6.001   5.700  0.0855  0.3744 -0.5182
  749MOL0     C 1036   9.387   5.904   5.643  0.6710  0.1671  0.2940
  749MOL0     C 1037   9.434   5.774   5.638 -0.3720 -1.0434 -0.2690
  749MOL0     O 1038   9.354   5.668   5.600 -0.3802 -0.5690  0.0706
  749MOL0     C 1039   9.312   5.669   5.464  0.3245  0.5710 -0.4706
  749MOL0     C 1040   9.412   5.620   5.362  0.0301 -0.0807 -0.7729
  749MOL0     C 1041   9.473   5.490   5.402 -0.0363  0.3387 -0.2339
  749MOL0     C 1042   9.581   5.449   5.302 -0.7350 -0.0121 -0.6741
  749MOL0     C 1043   9.714   5.515   5.334  0.6421  0.2794 -0.4336
  749MOL0     C 1044   9.814   5.582   5.353 -0.2353 -0.1086 -0.0169
  749MOL0     C 1045   9.567   5.748   5.677  0.3065  0.2393  0.3225
  749MOL0     C 1046   9.650   5.854   5.715 -0.2423  0.2463 -0.3294
  749MOL0     C 1047   9.793   5.824   5.733  0.1482 -0.3432  0.8018
  749MOL0     H 1048   9.926   6.197   5.741 -0.2315  2.8100  0.3083
  749MOL0     H 1049  10.123   6.323   5.815  0.2969 -2.4940 -1.5991
  749MOL0     H 1050  10.134   6.428   6.270 -0.7786  3.6493 -1.6282
  749MOL0     H 1051  10.251   6.312   6.227 -0.7157  0.3286 -0.3830
  749MOL0     H 1052  10.252   6.612   6.193 -1.2641 -1.4718 -4.3073
  749MOL0     H 1053  10.383   6.525   6.133 -0.6848  1.2559  0.3892
  749MOL0     H 1054  10.308   6.519   6.435  0.3136  0.2301  1.9228
  749MOL0     H 1055  10.424   6.612   6.362  3.7005 -1.5101 -1.3923
  749MOL0     H 1056  10.451   6.303   6.364  1.9058 -0.6765  0.3806
  749MOL0     H 1057  10.548   6.418   6.278 -1.1994 -1.4866 -0.6137
  749MOL0     H 1058  10.531   6.408   6.581 -0.1637 -1.1076 -0.9730
  749MOL0     H 1059  10.665   6.352   6.478  2.3536  0.7881 -0.4175
  749MOL0     H 1060  10.684   6.599   6.405  1.5560  1.2796  1.0109
  749MOL0     H 1061  10.555   6.641   6.511 -0.3446 -0.4433  0.3413
  749MOL0     H 1062  10.824   6.551   6.614  0.5062  2.1324  0.3230
  749MOL0     H 1063  10.675   6.589   6.714 -1.4071 -1.8867 -1.4318
  749MOL0     H 1064  10.760   6.808   6.523  0.9222 -1.7858 -0.8127
  749MOL0     H 1065  10.671   6.804   6.677 -0.0192  1.2200 -0.1765
  749MOL0     H 1066  10.806   6.817   6.927  2.4951  3.4055  1.6302
  749MOL0     H 1067  11.053   6.754   7.077 -0.5211  0.1466 -0.2440
  749MOL0     H 1068  11.162   6.886   7.008 -0.1397 -1.0698 -0.0570
  749MOL0     H 1069  10.873   6.951   7.094  0.0458 -1.7593 -0.6193
  749MOL0     H 1070  11.018   6.983   7.187 -3.9246 -0.8608  2.3161
  749MOL0     H 1071  10.941   7.176   7.061  1.6679  1.1743  0.3976
  749MOL0     H 1072  10.937   7.087   6.910 -0.8663 -1.2531 -0.1168
  749MOL0     H 1073  11.122   7.270   6.974 -1.8003 -0.1206 -0.2210
  749MOL0     H 1074  11.174   7.107   6.897  1.2153 -0.1966  0.2993
  749MOL0     H 1075  11.355   7.106   7.324  1.0781 -2.8743  0.5647
  749MOL0     H 1076  11.587   7.119   7.328  0.7414  0.7602 -0.5759
  749MOL0     H 1077  12.009   6.911   7.108  0.2220 -0.1935 -0.2198
  749MOL0     H 1078  12.247   6.939   7.170  0.8615  3.2117 -0.8944
  749MOL0     H 1079  12.385   7.238   7.378  0.8593  1.4256  0.7377
  749MOL0     H 1080  12.360   7.163   7.539  1.4714 -0.8863  1.1681
  749MOL0     H 1081  12.548   7.011   7.504 -0.7762 -0.2245  1.3417
  749MOL0     H 1082  12.593   7.101   7.355 -1.2731 -0.6969  0.1696
  749MOL0     H 1083  12.620   7.305   7.484  0.1596  1.2881  2.2569
  749MOL0     H 1084  12.554   7.215   7.625  0.6924  0.5025  0.4906
  749MOL0     H 1085  12.750   7.103   7.651  0.4211  1.0700  1.1222
  749MOL0     H 1086  12.798   7.270   7.625 -3.7421  0.4333  2.8487
  749MOL0     H 1087  12.837   7.033   7.440 -1.5992  1.0944 -1.5572
  749MOL0     H 1088  12.969   7.126   7.520  1.0583  0.8617 -2.0054
  749MOL0     H 1089  12.761   7.217   7.316 -0.0968 -1.8340 -0.5556
  749MOL0     H 1090  12.896   7.325   7.352 -0.0262  0.0411 -2.6154
  749MOL0     H 1091  12.929   7.205   7.121 -1.0543 -0.9248 -0.6519
  749MOL0     H 1092  12.922   7.057   7.208 -0.5776 -0.3897  0.6160
  749MOL0     H 1093  13.133   7.277   7.221 -0.2513  1.3383  2.4033
  749MOL0     H 1094  13.117   7.170   7.360 -2.2300  3.2573  0.6710
  749MOL0     H 1095  12.151   7.176   7.503 -0.4959  2.1591 -0.8999
  749MOL0     H 1096  11.913   7.210   7.394 -2.3982 -1.7863 -1.1229
  749MOL0     H 1097  11.601   7.227   6.914  0.4868  1.1475 -0.0139
  749MOL0     H 1098  11.349   7.237   6.919  0.5022  0.4201  0.0132
  749MOL0     H 1099  10.000   6.256   6.220 -2.0543 -1.2158  0.7852
  749MOL0     H 1100   9.807   6.122   6.139  1.9646 -0.8351  1.4956
  749MOL0     H 1101   9.418   6.097   5.690 -2.5112 -0.9243 -0.8747
  749MOL0     H 1102   9.284   5.927   5.617  0.1642  1.6451  3.2575
  749MOL0     H 1103   9.270   5.765   5.432  0.6534  0.6624 -0.6263
  749MOL0     H 1104   9.223   5.606   5.457  0.4124  0.5100 -1.1679
  749MOL0     H 1105   9.488   5.698   5.358  1.9102 -1.6475  1.6584
  749MOL0     H 1106   9.367   5.607   5.264 -0.1972 -1.6518 -0.4868
  749MOL0     H 1107   9.401   5.409   5.414  0.3374  0.0893  0.4167
  749MOL0     H 1108   9.520   5.512   5.499  1.9580  0.4285 -1.1742
  749MOL0     H 1109   9.593   5.341   5.306 -1.1417 -0.0345  0.8399
  749MOL0     H 1110   9.547   5.472   5.201  1.7911  1.3753 -1.2895
  749MOL0     H 1111   9.886   5.661   5.363  1.5065 -1.5975 -0.3338
  749MOL0     H 1112   9.609   5.648   5.666  0.3319  0.4981 -3.1327
  749MOL0     H 1113   9.805   5.798   5.839 -2.2903  0.0800  1.2485
  749MOL0     H 1114   9.827   5.742   5.669 -1.5404  0.2779 -0.9815
  749MOL0     H 1115   9.851   5.915   5.715 -0.7018  0.4579  1.9610
  750MOL0     O 1116   4.613   3.908   1.297  0.3270  0.1834  0.2343
  750MOL0     C 1117   4.634   3.941   1.180 -0.4290 -0.2706 -1.0195
  750MOL0     O 1118   4.749   3.919   1.106  0.1296  0.3249 -0.3061
  750MOL0     C 1119   4.865   3.904   1.182  0.0947  0.9961 -0.1589
  750MOL0     C 1120   4.890   3.970   1.300  0.3067 -0.2510  0.3835
  750MOL0     C 1121   5.009   3.945   1.374  0.1435 -0.6403  0.2509
  750MOL0     C 1122   5.110   3.865   1.324 -0.1725 -0.7741  0.8767
  750MOL0     O 1123   5.226   3.830   1.405  0.7545 -0.0858 -0.2645
  750MOL0     C 1124   5.340   3.770   1.340 -0.1297  0.5319 -0.4493
  750MOL0     C 1125   5.435   3.872   1.270 -0.4979  0.0885  0.0026
  750MOL0     C 1126   5.538   3.921   1.382 -0.0570 -0.0557 -0.1317
  750MOL0     C 1127   5.661   3.825   1.396 -0.4100 -0.0506  0.9794
  750MOL0     C 1128   5.777   3.858   1.297  0.5929 -0.6127  0.7081
  750MOL0     C 1129   5.893   3.774   1.340 -0.0996  0.6290  0.3103
  750MOL0     C 1130   6.019   3.809   1.272 -0.4577 -0.1602  0.2928
  750MOL0     C 1131   6.021   3.799   1.115  0.1684 -0.5039  0.0379
  750MOL0     N 1132   6.005   3.663   1.070  0.0716 -0.2601  0.6061
  750MOL0     C 1133   5.884   3.609   1.041 -0.5662  0.0560 -0.3321
  750MOL0     C 1134   5.910   3.497   0.966  0.2419  0.9730  0.2203
  750MOL0     C 1135   5.813   3.393   0.894  0.1847 -0.7189 -0.1612
  750MOL0     C 1136   5.770   3.279   0.983 -1.2240 -0.1213  0.1207
  750MOL0     C 1137   5.701   3.161   0.897 -0.4198 -0.0267  0.3057
  750MOL0     C 1138   5.675   3.050   1.005 -0.0997 -0.2316 -0.8299
  750MOL0     O 1139   5.628   2.928   0.948 -0.5501  0.3146 -0.5251
  750MOL0     C 1140   5.718   2.848   0.883  0.3488  0.8407 -1.5491
  750MOL0     C 1141   5.675   2.725   0.834  0.0892  0.9490 -0.4190
  750MOL0     C 1142   5.766   2.635   0.777  0.1119 -0.1295  0.5619
  750MOL0     C 1143   5.907   2.668   0.763 -0.0212  0.0086  0.2216
  750MOL0     C 1144   6.005   2.571   0.693 -0.2789 -0.0373 -0.1079
  750MOL0     O 1145   6.135   2.613   0.700 -0.2170  0.1239 -0.4321
  750MOL0     C 1146   6.230   2.547   0.632  0.1205  0.0950 -0.8444
  750MOL0     C 1147   6.222   2.505   0.496 -0.3151 -0.3499 -0.6130
  750MOL0     C 1148   6.335   2.456   0.427  0.5363 -0.1046 -0.3334
  750MOL0     C 1149   6.461   2.458   0.482  0.7361  0.0904 -0.5610
  750MOL0     O 1150   6.560   2.414   0.395  0.0319  0.2863  0.5615
  750MOL0     C 1151   6.683   2.361   0.453  0.3286 -0.3697  1.2639
  750MOL0     C 1152   6.784   2.338   0.345  0.0773  0.0759 -0.9443
  750MOL0     C 1153   6.917   2.297   0.402 -0.2444  0.3160  0.4172
  750MOL0     C 1154   7.016   2.250   0.291  0.6765  0.1425  0.4396
  750MOL0     C 1155   7.133   2.184   0.361  0.5597  0.7387 -0.0391
  750MOL0     C 1156   7.230   2.143   0.248 -0.1713 -1.0269 -0.6691
  750MOL0     C 1157   7.357   2.086   0.299 -0.7372  0.0707 -0.5783
  750MOL0     C 1158   7.461   2.189   0.341  0.2974  0.0582  0.0912
  750MOL0    Cl 1159   7.600   2.109   0.428  0.2222 -0.2136  0.0248
  750MOL0     C 1160   6.469   2.502   0.613  0.5973 -0.0162 -0.9919
  750MOL0     C 1161   6.358   2.548   0.692  0.1901  0.1906  0.4276
  750MOL0     O 1162   5.964   2.467   0.641  0.1682 -0.1382 -0.3464
  750MOL0     C 1163   5.946   2.791   0.806  0.7322 -0.0638 -0.9290
  750MOL0     C 1164   5.858   2.877   0.866  0.6877  0.4947  0.2745
  750MOL0     N 1165   6.047   3.475   0.974  0.3200 -0.3811 -0.0609
  750MOL0     N 1166   6.100   3.568   1.042 -0.3830 -0.5092 -0.5447
  750MOL0     C 1167   5.081   3.794   1.204 -0.1512 -0.7947  0.2210
  750MOL0     C 1168   4.960   3.816   1.132 -0.7394 -0.5231 -0.5121
  750MOL0     C 1169   4.518   4.005   1.099  0.0533 -0.1887 -0.1511
  750MOL0     C 1170   4.514   3.990   0.958 -0.3586 -0.1868  0.1185
  750MOL0     C 1171   4.404   4.040   0.885 -0.4461  0.7588 -0.3993
  750MOL0     C 1172   4.296   4.107   0.943  0.3609  0.6189  0.2425
  750MOL0     O 1173   4.193   4.138   0.866  0.1413 -0.6932  0.4748
  750MOL0     C 1174   4.097   4.036   0.853 -0.5364  0.5691  0.1116
  750MOL0     C 1175   3.961   4.071   0.929 -0.1156 -1.2260  0.0698
  750MOL0     C 1176   3.852   3.989   0.863 -0.0045 -1.2636  0.2524
  750MOL0     C 1177   3.856   3.853   0.910 -0.8840  0.4718  0.1963
  750MOL0     C 1178   3.732   3.799   0.957 -0.3643  0.5098  0.0854
  750MOL0     C 1179   3.625   3.740   0.987 -0.5215  0.0374 -0.1048
  750MOL0     C 1180   4.291   4.118   1.081  0.1422  0.4697  0.7845
  750MOL0     C 1181   4.401   4.066   1.153 -0.2944  0.4909  0.2911
  750MOL0     C 1182   4.389   4.093   1.307  0.4434  1.1856  0.3697
  750MOL0     H 1183   4.817   4.037   1.346 -1.1214 -1.4107 -0.1017
  750MOL0     H 1184   5.007   3.999   1.468 -0.1021  1.2259 -0.7847
  750MOL0     H 1185   5.400   3.713   1.411 -1.8288 -1.1264 -0.2535
  750MOL0     H 1186   5.309   3.695   1.266  0.2174 -0.2159  0.1503
  750MOL0     H 1187   5.363   3.950   1.243 -2.8907 -2.3084 -1.0661
  750MOL0     H 1188   5.493   3.837   1.184 -0.2318 -0.8570  0.5448
  750MOL0     H 1189   5.477   3.930   1.473 -0.6595  0.2908 -0.5663
  750MOL0     H 1190   5.565   4.023   1.355 -0.7529 -0.2205 -1.5447
  750MOL0     H 1191   5.690   3.825   1.501  0.9510 -0.5049  0.6272
  750MOL0     H 1192   5.641   3.718   1.381  1.1046 -0.0470 -1.8486
  750MOL0     H 1193   5.747   3.840   1.194  0.6083 -1.1582  0.7958
  750MOL0     H 1194   5.816   3.959   1.310  2.2016 -0.9793 -0.8731
  750MOL0     H 1195   5.917   3.797   1.444 -0.8772  0.9761  0.4238
  750MOL0     H 1196   5.886   3.667   1.322  2.0978  0.6167 -0.7693
  750MOL0     H 1197   6.094   3.738   1.306  0.9007  2.0607  2.2687
  750MOL0     H 1198   6.063   3.906   1.296  0.1686 -0.6265  1.0628
  750MOL0     H 1199   5.943   3.865   1.077  0.3917 -0.6873 -0.7566
  750MOL0     H 1200   6.113   3.838   1.072  0.2525 -1.7289 -0.9571
  750MOL0     H 1201   5.786   3.649   1.063 -1.5450 -2.0764 -0.5044
  750MOL0     H 1202   5.723   3.444   0.860 -0.6549  1.1213  4.2014
  750MOL0     H 1203   5.861   3.361   0.801 -0.3201  0.2209 -0.7561
  750MOL0     H 1204   5.854   3.241   1.041  0.5156  0.2807 -1.9899
  750MOL0     H 1205   5.700   3.307   1.062  0.4458 -1.9679  2.3769
  750MOL0     H 1206   5.767   3.133   0.815 -1.2406 -0.3569 -0.2475
  750MOL0     H 1207   5.601   3.195   0.868  0.9585  1.6659 -2.9575
  750MOL0     H 1208   5.604   3.099   1.072  2.7400 -0.3825  2.5596
  750MOL0     H 1209   5.762   3.032   1.068 -0.8539 -2.5770 -0.3776
  750MOL0     H 1210   5.568   2.708   0.839 -0.1475  2.6076  0.8671
  750MOL0     H 1211   5.737   2.536   0.744  0.3773 -0.7548  2.1271
  750MOL0     H 1212   6.131   2.526   0.439 -1.4858 -1.1489  0.8786
  750MOL0     H 1213   6.331   2.419   0.325  1.3141  2.0483 -1.2055
  750MOL0     H 1214   6.726   2.437   0.520  1.8349  1.1120 -1.2080
  750MOL0     H 1215   6.665   2.271   0.513 -0.9426  0.9216  2.9351
  750MOL0     H 1216   6.739   2.257   0.286  0.2657  1.0521 -2.4662
  750MOL0     H 1217   6.791   2.416   0.269  0.2464 -1.3746 -2.4831
  750MOL0     H 1218   6.971   2.372   0.460  3.7702 -1.2365 -0.9884
  750MOL0     H 1219   6.899   2.212   0.470 -0.1629  0.4430  0.5983
  750MOL0     H 1220   7.045   2.336   0.229 -1.6393 -0.2145 -1.2612
  750MOL0     H 1221   6.967   2.179   0.224 -2.7135 -0.8748  3.6978
  750MOL0     H 1222   7.095   2.092   0.407 -1.6007  0.7726 -1.5748
  750MOL0     H 1223   7.176   2.250   0.437 -1.0072  0.8723  0.7841
  750MOL0     H 1224   7.188   2.075   0.174 -0.0122 -0.6080 -1.1598
  750MOL0     H 1225   7.246   2.241   0.200  0.1502 -0.4740  0.5278
  750MOL0     H 1226   7.400   2.016   0.227  1.0819  0.6781 -0.1445
  750MOL0     H 1227   7.337   2.036   0.395  0.5770 -1.1455 -0.9037
  750MOL0     H 1228   7.500   2.242   0.254  1.4775  0.9071  1.1033
  750MOL0     H 1229   7.421   2.273   0.398  1.9860 -0.0861  1.5854
  750MOL0     H 1230   6.565   2.506   0.664 -1.2941 -0.3227  3.0053
  750MOL0     H 1231   6.380   2.574   0.795 -1.6472 -0.4857  1.0248
  750MOL0     H 1232   6.051   2.818   0.800  0.9179 -0.5010  0.0386
  750MOL0     H 1233   5.912   2.965   0.901 -2.6505  1.8817  2.5152
  750MOL0     H 1234   5.144   3.724   1.151  1.5523 -0.7576  2.0638
  750MOL0     H 1235   4.939   3.758   1.042 -0.8072 -1.6765  0.2269
  750MOL0     H 1236   4.587   3.926   0.908 -3.4316 -1.9612 -2.4841
  750MOL0     H 1237   4.400   4.005   0.782  0.8150 -0.6915 -0.0026
  750MOL0     H 1238   4.133   3.947   0.906 -0.6977 -0.1129 -0.8931
  750MOL0     H 1239   4.083   4.003   0.750  1.6731 -0.6282  0.1189
  750MOL0     H 1240   3.933   4.177   0.917 -1.7207 -1.5664  0.5753
  750MOL0     H 1241   3.976   4.068   1.037  1.7006  0.9124 -0.0291
  750MOL0     H 1242   3.852   3.989   0.754  4.8561  0.3703  0.0134
  750MOL0     H 1243   3.755   4.027   0.896  0.4351 -1.2397  1.5987
  750MOL0     H 1244   3.878   3.788   0.824 -5.0075  0.7784 -1.3260
  750MOL0     H 1245   3.924   3.856   0.995  0.2209 -2.1297 -0.4916
  750MOL0     H 1246   3.529   3.709   1.023 -1.9094  4.6577  0.8560
  750MOL0     H 1247   4.202   4.151   1.133 -0.2004  1.1704 -0.2134
  750MOL0     H 1248   4.303   4.157   1.329  1.5210  3.2170 -0.9743
  750MOL0     H 1249   4.391   4.003   1.370  0.3726 -0.9184 -2.4263
  750MOL0     H 1250   4.475   4.156   1.330  0.9366  0.7483 -0.2785
  751MOL0     O 1251   9.051   6.190   3.639  0.1957  0.3992  0.3702
  751MOL0     C 1252   9.133   6.101   3.625 -0.7665 -0.6490  0.6670
  751MOL0     O 1253   9.108   5.966   3.616 -0.0627  0.1403  0.4571
  751MOL0     C 1254   8.977   5.915   3.600 -0.0439 -0.1297  0.0274
  751MOL0     C 1255   8.854   5.969   3.638 -0.0609 -0.7076  0.0585
  751MOL0     C 1256   8.735   5.912   3.597  0.2743  0.6042 -0.4205
  751MOL0     C 1257   8.722   5.793   3.527  0.2287 -0.0993  0.2912
  751MOL0     O 1258   8.614   5.737   3.462 -0.1392  0.0154 -0.3126
  751MOL0     C 1259   8.481   5.800   3.464  0.7468  0.2088 -0.2974
  751MOL0     C 1260   8.389   5.698   3.405 -0.3153  0.5343 -0.5080
  751MOL0     C 1261   8.242   5.740   3.402 -0.8968 -0.4386  0.4582
  751MOL0     C 1262   8.163   5.720   3.526  0.7240  0.2461 -0.0371
  751MOL0     C 1263   8.023   5.759   3.495  0.3175 -0.1059 -0.6259
  751MOL0     C 1264   7.958   5.660   3.403  0.8699  0.1048 -0.5934
  751MOL0     C 1265   7.801   5.668   3.423  0.0453  0.3251 -0.3129
  751MOL0     C 1266   7.728   5.781   3.351  0.4664 -0.4109 -0.6694
  751MOL0     N 1267   7.584   5.768   3.365 -0.0950 -0.2134  0.8193
  751MOL0     C 1268   7.509   5.846   3.441  0.2546  0.4739 -0.0620
  751MOL0     C 1269   7.389   5.823   3.380  0.2086  0.5640  0.6141
  751MOL0     C 1270   7.253   5.900   3.407  0.2563 -0.4773  0.0827
  751MOL0     C 1271   7.208   5.979   3.290  0.2127  0.6784  0.0879
  751MOL0     C 1272   7.247   6.130   3.284 -1.0812  0.4043  0.0135
  751MOL0     C 1273   7.402   6.142   3.314  0.1523 -0.2984  0.5611
  751MOL0     O 1274   7.480   6.088   3.213 -0.0766 -0.4242 -0.4000
  751MOL0     C 1275   7.615   6.092   3.219 -0.3704  0.1114 -0.1204
  751MOL0     C 1276   7.690   6.023   3.119  0.7516  0.6231 -0.4582
  751MOL0     C 1277   7.829   6.017   3.124 -0.2217  0.2080 -0.4953
  751MOL0     C 1278   7.905   6.081   3.222 -0.3247 -0.2667  0.2177
  751MOL0     C 1279   8.051   6.081   3.228 -0.4441 -0.2350 -0.1470
  751MOL0     O 1280   8.117   5.993   3.141  0.3908  0.6668 -0.0944
  751MOL0     C 1281   8.248   6.024   3.097  0.0840  0.6441 -0.0294
  751MOL0     C 1282   8.296   6.157   3.063  1.4876  0.9495 -0.4308
  751MOL0     C 1283   8.423   6.176   3.024  0.3180  0.0044  0.6909
  751MOL0     C 1284   8.506   6.066   3.008 -0.6296  0.6476  0.7453
  751MOL0     O 1285   8.644   6.082   2.980  0.7751 -0.5118  0.1409
  751MOL0     C 1286   8.725   6.158   3.069 -0.4020 -0.3778  0.3814
  751MOL0     C 1287   8.867   6.131   3.034  0.6135  0.2439 -0.2312
  751MOL0     C 1288   8.970   6.175   3.134 -0.7926 -0.3582  0.4017
  751MOL0     C 1289   9.108   6.175   3.073 -0.7854  0.2454  0.1083
  751MOL0     C 1290   9.211   6.185   3.190 -0.3000 -0.4027 -0.1896
  751MOL0     C 1291   9.356   6.209   3.125  0.7874  0.2619  0.5615
  751MOL0     C 1292   9.462   6.242   3.223  0.0358 -0.3364  0.3666
  751MOL0     C 1293   9.564   6.344   3.162 -0.4723 -0.2737 -0.9562
  751MOL0    Cl 1294   9.686   6.391   3.283 -0.1469 -0.0754 -0.4048
  751MOL0     C 1295   8.467   5.936   3.039  0.3756 -0.1992 -0.2668
  751MOL0     C 1296   8.331   5.916   3.079  0.0685 -0.0615  0.0764
  751MOL0     O 1297   8.106   6.176   3.291  0.1463  0.7342 -0.3761
  751MOL0     C 1298   7.835   6.159   3.317 -0.7608  1.5237 -1.0869
  751MOL0     C 1299   7.695   6.159   3.315  0.5248  0.5343  0.7989
  751MOL0     N 1300   7.399   5.721   3.286 -0.1852 -0.0890  0.0435
  751MOL0     N 1301   7.520   5.688   3.275  0.3543 -0.1474 -0.2466
  751MOL0     C 1302   8.843   5.725   3.515  0.2053 -0.4129  0.9781
  751MOL0     C 1303   8.965   5.788   3.538  0.1992  0.7478  0.2617
  751MOL0     C 1304   9.271   6.145   3.643 -0.1693 -0.5463  0.5741
  751MOL0     C 1305   9.359   6.041   3.684 -0.1813 -0.3194  0.6029
  751MOL0     C 1306   9.497   6.066   3.714  0.0592 -0.7008 -0.7052
  751MOL0     C 1307   9.543   6.195   3.711  0.5694 -0.3836 -0.4590
  751MOL0     O 1308   9.667   6.226   3.765 -0.4520 -0.6042 -0.0158
  751MOL0     C 1309   9.705   6.364   3.756 -1.0653  0.0379  0.0077
  751MOL0     C 1310   9.854   6.395   3.801  0.3615  0.5367  0.5174
  751MOL0     C 1311   9.877   6.365   3.952  0.6112 -0.3208  0.4621
  751MOL0     C 1312   9.841   6.480   4.042 -0.0772 -0.0050 -0.3871
  751MOL0     C 1313   9.844   6.423   4.183 -0.5247 -0.3576  0.1568
  751MOL0     C 1314   9.838   6.380   4.297 -0.5121  0.0186  0.8220
  751MOL0     C 1315   9.456   6.294   3.662  0.6723 -0.1726  0.4145
  751MOL0     C 1316   9.326   6.271   3.629  0.6026 -0.0921 -0.3272
  751MOL0     C 1317   9.255   6.395   3.584  0.7962 -0.4085 -0.9007
  751MOL0     H 1318   8.845   6.063   3.692  1.0569  0.3303 -1.4506
  751MOL0     H 1319   8.640   5.963   3.616 -0.4446 -0.2905 -1.4801
  751MOL0     H 1320   8.451   5.812   3.568 -0.6037 -0.5170 -0.5789
  751MOL0     H 1321   8.463   5.894   3.411 -4.0123 -0.1812  0.1705
  751MOL0     H 1322   8.394   5.617   3.478 -0.3559  3.3351  2.8437
  751MOL0     H 1323   8.418   5.680   3.301  1.0792  1.8812 -0.3779
  751MOL0     H 1324   8.193   5.681   3.323  2.5376 -1.0625 -1.4082
  751MOL0     H 1325   8.237   5.846   3.377  0.9694 -0.6056 -0.8510
  751MOL0     H 1326   8.176   5.617   3.559  0.9950  0.0535 -0.7347
  751MOL0     H 1327   8.204   5.790   3.600  3.2842  0.7808 -1.8366
  751MOL0     H 1328   7.968   5.745   3.589  0.6952 -1.3211 -0.5696
  751MOL0     H 1329   8.009   5.863   3.463 -2.8651 -0.9679 -2.4597
  751MOL0     H 1330   7.982   5.682   3.299  1.4628  1.4175 -0.2100
  751MOL0     H 1331   7.991   5.558   3.423 -2.0587 -0.6294  1.0273
  751MOL0     H 1332   7.774   5.682   3.528  1.6944  4.1154 -0.2352
  751MOL0     H 1333   7.774   5.568   3.388  1.9309  0.0300 -1.0429
  751MOL0     H 1334   7.750   5.883   3.384  0.5086 -0.5948 -0.1158
  751MOL0     H 1335   7.756   5.775   3.245  0.3456  1.5197 -0.8427
  751MOL0     H 1336   7.531   5.914   3.522 -0.7420 -0.1605  0.7726
  751MOL0     H 1337   7.177   5.825   3.429  0.7327 -0.6210  1.3466
  751MOL0     H 1338   7.262   5.958   3.500  0.0065 -1.6596  0.8647
  751MOL0     H 1339   7.212   5.923   3.196 -2.6257  1.7333 -0.7650
  751MOL0     H 1340   7.099   5.989   3.291  0.2820  1.7499 -0.8538
  751MOL0     H 1341   7.194   6.191   3.358 -0.3024  0.4739  0.5364
  751MOL0     H 1342   7.217   6.171   3.188  1.8154  3.4988  0.2734
  751MOL0     H 1343   7.430   6.087   3.404  0.8475  0.8594  1.0846
  751MOL0     H 1344   7.418   6.251   3.318 -0.5352 -0.1682  0.0860
  751MOL0     H 1345   7.649   5.973   3.032  2.2247 -0.7366 -0.4261
  751MOL0     H 1346   7.873   5.956   3.045  3.0228  0.2858  1.0751
  751MOL0     H 1347   8.232   6.244   3.064  0.7250  0.4009 -0.7969
  751MOL0     H 1348   8.470   6.269   2.995  1.1384 -1.4404 -3.3280
  751MOL0     H 1349   8.715   6.267   3.059  2.5898 -0.0782 -0.2115
  751MOL0     H 1350   8.712   6.123   3.172 -1.4324  1.5241  0.9553
  751MOL0     H 1351   8.877   6.023   3.018 -2.1323 -0.1356  0.1397
  751MOL0     H 1352   8.897   6.187   2.945  2.7332 -0.8509 -0.2824
  751MOL0     H 1353   8.948   6.274   3.176  4.1611  1.5606 -0.8014
  751MOL0     H 1354   8.969   6.093   3.207 -1.1897 -1.0030 -0.3226
  751MOL0     H 1355   9.124   6.253   2.998  4.2144 -1.2514 -0.7516
  751MOL0     H 1356   9.131   6.079   3.027  0.6890  0.7210 -0.2070
  751MOL0     H 1357   9.213   6.099   3.257 -1.5185 -0.1181  0.2189
  751MOL0     H 1358   9.189   6.271   3.253 -0.5300 -1.9345  1.9236
  751MOL0     H 1359   9.374   6.115   3.071 -2.2292  0.0974 -0.3365
  751MOL0     H 1360   9.345   6.284   3.047  0.2446 -0.1867  0.1881
  751MOL0     H 1361   9.511   6.148   3.249  2.3637  0.8643  0.5425
  751MOL0     H 1362   9.416   6.282   3.314 -1.1076  0.5911 -0.5957
  751MOL0     H 1363   9.611   6.309   3.070  0.5494 -0.5195 -0.3553
  751MOL0     H 1364   9.511   6.436   3.135 -0.7623 -1.5248 -5.4153
  751MOL0     H 1365   8.530   5.852   3.014  0.1394  0.0550 -1.7866
  751MOL0     H 1366   8.298   5.816   3.103 -0.4282 -0.2197 -1.2017
  751MOL0     H 1367   7.889   6.207   3.398  1.6374  0.5001 -2.0030
  751MOL0     H 1368   7.647   6.214   3.395  0.5771 -0.8070  1.7910
  751MOL0     H 1369   8.838   5.628   3.467  2.4424 -0.3403  0.5019
  751MOL0     H 1370   9.047   5.727   3.501 -0.1163  1.2783 -1.3799
  751MOL0     H 1371   9.322   5.939   3.691 -2.4022  0.3632 -0.3340
  751MOL0     H 1372   9.564   5.995   3.763 -0.0412  1.1414  2.3199
  751MOL0     H 1373   9.642   6.425   3.820  1.8849 -0.7347  4.1142
  751MOL0     H 1374   9.707   6.392   3.650 -1.2305 -2.6799 -0.7843
  751MOL0     H 1375   9.888   6.496   3.777  1.4566  0.4632  1.6488
  751MOL0     H 1376   9.905   6.326   3.734 -1.8191  0.5140 -1.2068
  751MOL0     H 1377   9.981   6.331   3.963 -0.1223 -2.8317  0.2206
  751MOL0     H 1378   9.810   6.283   3.978 -2.3273  2.8881  4.0777
  751MOL0     H 1379   9.912   6.563   4.029  0.4676 -0.4451 -0.2481
  751MOL0     H 1380   9.739   6.516   4.025  0.1159  1.7593  1.7370
  751MOL0     H 1381   9.840   6.363   4.403 -1.1722 -0.5759  0.7495
  751MOL0     H 1382   9.480   6.400   3.670  0.3742 -0.0947  0.2895
  751MOL0     H 1383   9.316   6.436   3.504 -0.7222  1.0098 -1.3871
  751MOL0     H 1384   9.152   6.375   3.552  1.9121 -2.7053 -3.3722
  751MOL0     H 1385   9.253   6.468   3.665 -4.6599  0.6542 -1.5691
  752MOL0     O 1386   2.489   8.315   4.415 -0.0358 -0.4074 -0.2397
  752MOL0     C 1387   2.483   8.382   4.516  0.4346  0.3577 -0.1947
  752MOL0     O 1388   2.574   8.462   4.562 -0.0167  0.6237 -0.0134
  752MOL0     C 1389   2.694   8.461   4.496 -0.6707 -0.0869 -0.3538
  752MOL0     C 1390   2.743   8.577   4.426  0.1564 -0.4884  0.7520
  752MOL0     C 1391   2.868   8.579   4.365 -0.2507  0.0052  0.4260
  752MOL0     C 1392   2.955   8.471   4.372  0.1075  0.0216 -0.4612
  752MOL0     O 1393   3.089   8.475   4.358  0.0802  0.1575  0.3454
  752MOL0     C 1394   3.160   8.595   4.383 -0.0889 -0.5248 -0.1427
  752MOL0     C 1395   3.312   8.573   4.353 -0.5424  0.2168  0.4406
  752MOL0     C 1396   3.393   8.683   4.410  0.8802 -0.8308  0.5142
  752MOL0     C 1397   3.538   8.645   4.426 -0.1228 -0.2117 -0.0486
  752MOL0     C 1398   3.632   8.762   4.467  0.6898  0.8987 -0.2001
  752MOL0     C 1399   3.772   8.721   4.466 -1.3155 -0.1353 -0.5770
  752MOL0     C 1400   3.861   8.836   4.500  0.4558 -0.6977 -0.1956
  752MOL0     C 1401   3.840   8.871   4.649  0.0066  0.0507  0.9730
  752MOL0     N 1402   3.944   8.955   4.720 -0.6762  0.2142 -0.5500
  752MOL0     C 1403   4.072   8.996   4.682  0.5440 -0.1721  0.8142
  752MOL0     C 1404   4.123   9.047   4.797  0.5526 -0.5141 -0.5932
  752MOL0     C 1405   4.258   9.102   4.823 -0.5428  0.3529 -0.4204
  752MOL0     C 1406   4.330   9.013   4.929  0.3022 -0.0302  0.8791
  752MOL0     C 1407   4.471   9.066   4.975 -0.1565  0.8031  0.2166
  752MOL0     C 1408   4.489   9.220   4.978 -0.7711 -0.3267  0.4358
  752MOL0     O 1409   4.594   9.267   5.065  0.0588  0.0794  0.1764
  752MOL0     C 1410   4.724   9.240   5.021 -0.2218  1.0256 -0.2108
  752MOL0     C 1411   4.823   9.253   5.125 -0.1465  0.6039  0.4445
  752MOL0     C 1412   4.962   9.245   5.101  0.3941  0.0979  0.7097
  752MOL0     C 1413   4.998   9.211   4.965  0.0560 -0.0476 -0.2367
  752MOL0     C 1414   5.144   9.188   4.932  0.2788 -0.7371  0.1527
  752MOL0     O 1415   5.226   9.222   5.026 -0.7416 -0.9512 -0.0512
  752MOL0     C 1416   5.353   9.238   5.003 -0.2610  0.2266 -0.8037
  752MOL0     C 1417   5.408   9.366   5.007 -0.5949  0.8491 -0.1520
  752MOL0     C 1418   5.541   9.376   4.985 -0.5738 -0.6304  0.3009
  752MOL0     C 1419   5.625   9.271   4.970 -0.4233 -0.2653 -0.3928
  752MOL0     O 1420   5.765   9.277   4.964 -0.2512 -0.7480 -0.0627
  752MOL0     C 1421   5.821   9.398   5.005 -0.8237 -0.0524 -0.3205
  752MOL0     C 1422   5.970   9.386   4.994 -1.2428  0.6128  0.2071
  752MOL0     C 1423   6.012   9.371   4.850  0.0259 -0.5345  0.2346
  752MOL0     C 1424   6.168   9.342   4.841  0.7387  0.2787 -0.2088
  752MOL0     C 1425   6.217   9.347   4.692 -0.0876 -0.3688  0.0196
  752MOL0     C 1426   6.373   9.360   4.672 -0.1255 -0.4758 -0.1239
  752MOL0     C 1427   6.445   9.234   4.725 -0.4330 -0.1185  0.6026
  752MOL0     C 1428   6.599   9.247   4.693  0.5708 -1.4574 -1.0035
  752MOL0    Cl 1429   6.682   9.087   4.664  0.8416  0.1458  0.0411
  752MOL0     C 1430   5.570   9.142   4.975 -0.1020 -0.1975  0.2282
  752MOL0     C 1431   5.436   9.125   4.984  0.1703 -0.4399  0.6275
  752MOL0     O 1432   5.175   9.136   4.823  0.1677  0.1129  0.5706
  752MOL0     C 1433   4.905   9.182   4.865 -0.0570  0.2635  0.1698
  752MOL0     C 1434   4.771   9.205   4.895 -0.2712  0.1969  1.0501
  752MOL0     N 1435   4.022   9.049   4.896 -0.7770  0.3904 -0.1041
  752MOL0     N 1436   3.917   8.991   4.851 -0.7631  0.2582  0.6554
  752MOL0     C 1437   2.907   8.353   4.433 -0.2825  0.2919 -0.1555
  752MOL0     C 1438   2.783   8.349   4.496 -0.5650  0.5716  0.2366
  752MOL0     C 1439   2.353   8.406   4.561  0.5237 -0.6245 -0.5315
  752MOL0     C 1440   2.253   8.472   4.489  0.0229  0.1035 -0.6252
  752MOL0     C 1441   2.120   8.477   4.526  0.4635  0.3383  0.1291
  752MOL0     C 1442   2.080   8.409   4.641  0.5558  0.4961  0.4085
  752MOL0     O 1443   1.956   8.410   4.696 -0.2600 -0.0314 -0.6734
  752MOL0     C 1444   1.846   8.478   4.624  0.1478  0.1234 -0.4998
  752MOL0     C 1445   1.707   8.446   4.691 -0.6977 -0.6526  0.2153
  752MOL0     C 1446   1.682   8.299   4.709  0.3971  0.1833 -1.0227
  752MOL0     C 1447   1.535   8.265   4.714  0.0628  0.0428  0.5206
  752MOL0     C 1448   1.459   8.293   4.840  0.6141 -0.5988  0.0980
  752MOL0     C 1449   1.396   8.329   4.937  0.4934 -0.6829  0.3627
  752MOL0     C 1450   2.176   8.341   4.720  0.8881  0.1230 -0.9704
  752MOL0     C 1451   2.308   8.330   4.675 -0.2926  1.0742  0.2455
  752MOL0     C 1452   2.391   8.230   4.747  0.3967 -0.4586  0.2767
  752MOL0     H 1453   2.674   8.658   4.407 -1.3334 -1.4306  1.9432
  752MOL0     H 1454   2.893   8.669   4.309 -0.1380  0.1651  0.7351
  752MOL0     H 1455   3.127   8.674   4.315 -0.4854 -2.4059 -2.2953
  752MOL0     H 1456   3.155   8.616   4.490  1.5183 -2.7806  0.4589
  752MOL0     H 1457   3.332   8.565   4.246  1.0801 -2.5193  0.8388
  752MOL0     H 1458   3.340   8.472   4.387 -1.3746  0.0952  0.8026
  752MOL0     H 1459   3.348   8.724   4.500 -0.8645  2.7513 -1.7563
  752MOL0     H 1460   3.385   8.767   4.340  0.3960 -1.2069  0.1102
  752MOL0     H 1461   3.551   8.556   4.488  0.3524  0.7523  1.2652
  752MOL0     H 1462   3.581   8.609   4.332 -0.9029 -1.0521 -0.0980
  752MOL0     H 1463   3.617   8.847   4.400  0.1443  1.5656  0.7345
  752MOL0     H 1464   3.601   8.802   4.564  2.3089  2.1592 -0.1574
  752MOL0     H 1465   3.789   8.629   4.524  0.3261 -0.9576 -2.2471
  752MOL0     H 1466   3.808   8.690   4.367 -0.1373 -2.0956  0.3902
  752MOL0     H 1467   3.837   8.921   4.435  0.0088  1.2488  2.3268
  752MOL0     H 1468   3.966   8.809   4.487  0.8142  1.0176 -1.2690
  752MOL0     H 1469   3.754   8.938   4.651  0.9341  1.3462 -0.5179
  752MOL0     H 1470   3.802   8.787   4.708 -0.3482 -0.8678 -0.5177
  752MOL0     H 1471   4.124   8.970   4.590 -2.0157 -0.4841 -0.6296
  752MOL0     H 1472   4.299   9.102   4.722  0.6193  2.9588 -0.0454
  752MOL0     H 1473   4.262   9.204   4.862  1.0751 -0.7051  2.5847
  752MOL0     H 1474   4.269   9.012   5.020  1.7375 -0.7863  1.8619
  752MOL0     H 1475   4.331   8.908   4.899  2.7678  0.6810 -2.0553
  752MOL0     H 1476   4.546   9.020   4.911 -0.6053 -0.3527  0.4841
  752MOL0     H 1477   4.491   9.020   5.073 -1.2933 -3.5558 -1.3798
  752MOL0     H 1478   4.395   9.257   5.020 -0.4018 -0.2369  1.2044
  752MOL0     H 1479   4.505   9.255   4.876  1.0904 -0.7109  0.5573
  752MOL0     H 1480   4.793   9.263   5.229  0.8327 -1.2980  0.9554
  752MOL0     H 1481   5.036   9.270   5.176  1.7419 -2.4790  0.3727
  752MOL0     H 1482   5.347   9.455   5.013 -2.4241 -0.4031  1.3132
  752MOL0     H 1483   5.569   9.480   4.972 -0.3559 -0.4890  1.7934
  752MOL0     H 1484   5.781   9.485   4.953 -2.3193 -1.5510 -1.8027
  752MOL0     H 1485   5.798   9.410   5.111 -3.9063  1.2718 -1.0394
  752MOL0     H 1486   6.021   9.469   5.043 -2.0708  0.8033  0.7724
  752MOL0     H 1487   5.998   9.296   5.048  2.5403  1.7812  0.4266
  752MOL0     H 1488   5.960   9.287   4.804  0.3109  0.2370 -1.6136
  752MOL0     H 1489   5.992   9.467   4.800  1.0834  0.7557  2.1522
  752MOL0     H 1490   6.190   9.245   4.887  1.7838  0.7392  0.2985
  752MOL0     H 1491   6.224   9.413   4.903  1.9138 -1.3766  0.7406
  752MOL0     H 1492   6.166   9.426   4.637  0.2824  0.0790  0.3127
  752MOL0     H 1493   6.181   9.256   4.643  4.2153 -2.6647  0.6054
  752MOL0     H 1494   6.394   9.373   4.565 -1.4969 -2.7353 -0.7466
  752MOL0     H 1495   6.424   9.444   4.719  2.6115 -0.4956 -2.7472
  752MOL0     H 1496   6.404   9.147   4.673 -0.5350 -0.5235  1.3444
  752MOL0     H 1497   6.425   9.223   4.832 -0.2951  1.1615  0.7705
  752MOL0     H 1498   6.608   9.316   4.609 -0.2353  2.3964  1.7734
  752MOL0     H 1499   6.650   9.295   4.778  0.2968 -0.7782 -1.2142
  752MOL0     H 1500   5.614   9.043   4.970 -1.8290 -0.9478 -1.4547
  752MOL0     H 1501   5.400   9.022   4.986  1.1771 -0.8287 -0.2774
  752MOL0     H 1502   4.938   9.135   4.773  2.9827  0.2238  1.1618
  752MOL0     H 1503   4.699   9.192   4.814 -2.3544  1.8357  2.5412
  752MOL0     H 1504   2.968   8.265   4.451 -0.0128  0.4092 -0.4898
  752MOL0     H 1505   2.764   8.252   4.540 -3.4543  1.3050  0.8014
  752MOL0     H 1506   2.263   8.533   4.400 -3.4617  1.6976 -0.0804
  752MOL0     H 1507   2.059   8.540   4.462 -0.6752 -0.3332  0.5275
  752MOL0     H 1508   1.837   8.461   4.516 -0.7674  0.6484 -0.5206
  752MOL0     H 1509   1.848   8.588   4.628 -0.3236  0.1102  0.4079
  752MOL0     H 1510   1.634   8.478   4.615 -2.2598 -0.5275  1.7017
  752MOL0     H 1511   1.690   8.508   4.780 -0.2446 -0.7910  0.3992
  752MOL0     H 1512   1.730   8.255   4.797  3.1870 -1.5820 -3.2215
  752MOL0     H 1513   1.737   8.262   4.622  1.3776 -0.0639 -0.3161
  752MOL0     H 1514   1.487   8.330   4.640 -0.5584 -0.2636  0.6529
  752MOL0     H 1515   1.525   8.159   4.691 -0.4082 -0.4374  2.7296
  752MOL0     H 1516   1.341   8.358   5.024 -0.8149 -1.5082 -0.1584
  752MOL0     H 1517   2.145   8.314   4.820  2.2913 -0.2672 -0.6232
  752MOL0     H 1518   2.493   8.264   4.769 -0.4935  2.7955 -0.0578
  752MOL0     H 1519   2.342   8.196   4.838  0.7026 -1.4755  0.0818
  752MOL0     H 1520   2.409   8.139   4.688 -2.7542 -2.2184  1.7990
  753MOL0     O 1521   2.440   0.787   2.969 -0.4283  0.2832  0.0257
  753MOL0     C 1522   2.387   0.755   3.077  0.1984 -0.0684  0.8395
  753MOL0     O 1523   2.452   0.696   3.181 -0.2249 -0.3267 -0.5983
  753MOL0     C 1524   2.586   0.689   3.173  0.0472 -0.1489  0.1264
  753MOL0     C 1525   2.654   0.572   3.122  0.7082 -0.1118 -0.0116
  753MOL0     C 1526   2.795   0.556   3.124  0.3364  0.2758 -0.2879
  753MOL0     C 1527   2.864   0.664   3.184  0.5147  0.5672 -1.0701
  753MOL0     O 1528   3.003   0.661   3.196  0.3825 -0.3400  0.3275
  753MOL0     C 1529   3.067   0.705   3.320 -0.2193  1.0274  0.4200
  753MOL0     C 1530   3.182   0.611   3.368  1.1097  0.7952  0.0248
  753MOL0     C 1531   3.297   0.573   3.273 -0.0086 -0.1601  0.4576
  753MOL0     C 1532   3.374   0.697   3.222 -0.7068  0.3916 -0.3772
  753MOL0     C 1533   3.490   0.652   3.136  0.2536  0.2121 -0.1281
  753MOL0     C 1534   3.553   0.775   3.062  0.8068 -0.1643 -0.0699
  753MOL0     C 1535   3.651   0.723   2.965 -1.1881  0.1074 -0.4863
  753MOL0     C 1536   3.753   0.832   2.923 -0.7817 -0.1025 -0.1797
  753MOL0     N 1537   3.876   0.777   2.862 -0.0462 -0.0318 -0.0267
  753MOL0     C 1538   3.879   0.708   2.742  0.7577  0.1405 -0.4935
  753MOL0     C 1539   4.010   0.712   2.712  0.1997 -0.0424 -0.1558
  753MOL0     C 1540   4.069   0.651   2.595 -0.2206  0.4372  0.3476
  753MOL0     C 1541   4.160   0.527   2.617  0.2441  0.2007 -0.3459
  753MOL0     C 1542   4.258   0.497   2.506 -0.1998  0.9915  0.9109
  753MOL0     C 1543   4.183   0.460   2.378  0.0143 -0.4591  0.0719
  753MOL0     O 1544   4.281   0.406   2.284 -0.7761  0.3874 -0.2865
  753MOL0     C 1545   4.372   0.474   2.211  0.1042  0.2221  0.1672
  753MOL0     C 1546   4.445   0.395   2.124  0.7733  0.6172  0.2432
  753MOL0     C 1547   4.544   0.442   2.031 -0.2344  0.1338 -0.1305
  753MOL0     C 1548   4.577   0.579   2.036  0.0870  0.1815  0.6221
  753MOL0     C 1549   4.672   0.635   1.935  0.7109 -0.2773 -0.1259
  753MOL0     O 1550   4.760   0.542   1.878 -0.0777 -0.0227  0.0634
  753MOL0     C 1551   4.839   0.583   1.774 -1.1933  0.4382  0.1153
  753MOL0     C 1552   4.807   0.648   1.651 -0.6842  0.6188 -0.3474
  753MOL0     C 1553   4.902   0.660   1.547  0.1913 -0.0571 -0.6424
  753MOL0     C 1554   5.032   0.614   1.560  0.4446 -0.5059 -0.6101
  753MOL0     O 1555   5.115   0.625   1.448 -0.9234 -0.1253  0.2804
  753MOL0     C 1556   5.214   0.524   1.427  0.1905 -0.5008 -0.1362
  753MOL0     C 1557   5.252   0.534   1.279  0.5290 -0.8431 -0.2209
  753MOL0     C 1558   5.372   0.445   1.237  0.0881  0.8678  0.2989
  753MOL0     C 1559   5.499   0.471   1.308  0.3528 -0.4968  0.7585
  753MOL0     C 1560   5.613   0.405   1.235  0.3770  0.2008 -0.9031
  753MOL0     C 1561   5.751   0.401   1.298 -0.3163 -1.1360  0.3712
  753MOL0     C 1562   5.756   0.319   1.425 -0.1562 -0.4716 -0.4942
  753MOL0     C 1563   5.901   0.276   1.451 -0.2418 -0.1625 -0.0000
  753MOL0    Cl 1564   5.899   0.139   1.569  0.3965 -0.7041 -0.1152
  753MOL0     C 1565   5.062   0.550   1.681 -0.3895 -0.5380  0.6398
  753MOL0     C 1566   4.970   0.534   1.780 -0.2868  0.1147 -0.8819
  753MOL0     O 1567   4.676   0.759   1.928  0.5335  0.7342  0.6417
  753MOL0     C 1568   4.502   0.659   2.128  0.3415 -0.3634  0.5315
  753MOL0     C 1569   4.391   0.609   2.208 -0.0230  0.3074  0.0552
  753MOL0     N 1570   4.086   0.785   2.803 -0.0394  0.2617 -0.2696
  753MOL0     N 1571   4.000   0.819   2.891 -0.4851 -0.5095 -0.0504
  753MOL0     C 1572   2.799   0.785   3.222 -0.2256 -0.3648  0.5704
  753MOL0     C 1573   2.662   0.789   3.225 -0.2565 -0.3487  0.0835
  753MOL0     C 1574   2.239   0.769   3.097  0.6616  0.4299 -0.4906
  753MOL0     C 1575   2.190   0.891   3.048  0.6896  0.1495 -1.0711
  753MOL0     C 1576   2.057   0.917   3.048 -0.5288 -0.6473  0.6785
  753MOL0     C 1577   1.968   0.831   3.107 -0.3290  0.3709  0.1116
  753MOL0     O 1578   1.840   0.876   3.131  0.3331 -0.0507 -0.0207
  753MOL0     C 1579   1.810   0.907   3.261 -0.1830  0.5907 -0.8104
  753MOL0     C 1580   1.700   0.803   3.297  0.4941  0.5971  0.0498
  753MOL0     C 1581   1.582   0.788   3.208  0.3007  0.4860  0.2427
  753MOL0     C 1582   1.562   0.651   3.146  0.2247 -0.4872 -0.2260
  753MOL0     C 1583   1.433   0.648   3.069 -0.4111  0.0778  0.2711
  753MOL0     C 1584   1.329   0.633   3.000 -0.2383 -0.2144 -1.4127
  753MOL0     C 1585   2.015   0.702   3.147  1.2328  0.7587  0.1417
  753MOL0     C 1586   2.153   0.674   3.147 -0.6517 -1.2447 -0.7086
  753MOL0     C 1587   2.215   0.543   3.195 -0.3588  0.8399  0.5563
  753MOL0     H 1588   2.589   0.502   3.070  1.4554 -0.1963 -0.8515
  753MOL0     H 1589   2.832   0.461   3.086 -1.4985 -1.9559  2.9657
  753MOL0     H 1590   3.113   0.802   3.303  2.7404  0.1178  2.3497
  753MOL0     H 1591   2.995   0.724   3.400  0.6134  1.1496  1.1567
  753MOL0     H 1592   3.145   0.517   3.408  2.2347  0.2026 -0.2881
  753MOL0     H 1593   3.218   0.667   3.455 -0.6990  1.3339  0.4740
  753MOL0     H 1594   3.271   0.510   3.187  3.0455 -0.8606 -0.0925
  753MOL0     H 1595   3.374   0.516   3.326  0.1923  0.9152  1.3662
  753MOL0     H 1596   3.300   0.743   3.155  0.1522 -2.5498 -3.6226
  753MOL0     H 1597   3.409   0.759   3.305 -2.2400 -0.9639  1.3769
  753MOL0     H 1598   3.566   0.606   3.200  2.6414  3.5169 -0.2913
  753MOL0     H 1599   3.458   0.575   3.065 -0.5297 -0.9652  1.4520
  753MOL0     H 1600   3.475   0.821   3.001 -0.3804 -0.6541  1.0384
  753MOL0     H 1601   3.602   0.844   3.132 -1.1386  2.6027 -1.2498
  753MOL0     H 1602   3.608   0.688   2.872  0.7567 -0.8666 -1.0699
  753MOL0     H 1603   3.700   0.638   3.014 -0.5549  0.1933 -0.9542
  753MOL0     H 1604   3.708   0.910   2.861 -0.0403  1.5030  1.2188
  753MOL0     H 1605   3.789   0.893   3.006 -1.1911  0.4864 -0.4283
  753MOL0     H 1606   3.792   0.668   2.691  0.6932  0.7820 -0.9040
  753MOL0     H 1607   3.989   0.609   2.533 -0.7251  1.0923  0.5364
  753MOL0     H 1608   4.116   0.727   2.531  0.7198 -0.1073  0.3729
  753MOL0     H 1609   4.215   0.551   2.708 -1.0798 -2.1423  1.1442
  753MOL0     H 1610   4.101   0.436   2.629  2.5050 -0.9510  3.8919
  753MOL0     H 1611   4.317   0.406   2.519  0.0759  0.7676 -1.5033
  753MOL0     H 1612   4.334   0.574   2.493  0.0662  0.3904 -1.6651
  753MOL0     H 1613   4.119   0.538   2.338  1.8488  0.2193 -1.7326
  753MOL0     H 1614   4.113   0.378   2.393 -1.0554 -0.0856 -2.3912
  753MOL0     H 1615   4.414   0.291   2.127 -1.1134  1.1483  1.0697
  753MOL0     H 1616   4.591   0.365   1.972  0.4464  0.0421  0.5111
  753MOL0     H 1617   4.707   0.691   1.641 -0.2242  2.6824  2.6046
  753MOL0     H 1618   4.879   0.717   1.457  3.4163  1.0852 -0.8873
  753MOL0     H 1619   5.293   0.546   1.499 -0.0203  0.2942 -0.1421
  753MOL0     H 1620   5.171   0.424   1.440 -2.2622  0.7205  2.4418
  753MOL0     H 1621   5.166   0.508   1.216 -1.9129  1.0038  2.1387
  753MOL0     H 1622   5.279   0.637   1.253  0.0162  0.6165  4.2110
  753MOL0     H 1623   5.353   0.341   1.263 -1.7307  1.2366  0.6193
  753MOL0     H 1624   5.377   0.479   1.133 -0.8369  2.2295  0.6626
  753MOL0     H 1625   5.499   0.430   1.410  1.4624 -3.9010 -0.4857
  753MOL0     H 1626   5.512   0.580   1.302 -0.8279 -0.3633  0.3568
  753MOL0     H 1627   5.627   0.442   1.133  1.6191  0.1113 -0.7797
  753MOL0     H 1628   5.579   0.302   1.227  0.0872  0.3520 -1.7997
  753MOL0     H 1629   5.807   0.354   1.217 -2.3537 -3.8832  0.4128
  753MOL0     H 1630   5.782   0.505   1.316 -0.8056 -0.7198 -1.0991
  753MOL0     H 1631   5.690   0.232   1.419 -0.2920 -0.3603 -0.6431
  753MOL0     H 1632   5.719   0.356   1.520 -0.8350 -4.4776  0.9982
  753MOL0     H 1633   5.947   0.249   1.356  0.9842  1.6264  0.0344
  753MOL0     H 1634   5.960   0.356   1.497  2.5295 -2.5882  0.9505
  753MOL0     H 1635   5.159   0.507   1.702 -0.4368 -1.1215 -0.2729
  753MOL0     H 1636   4.996   0.478   1.869 -0.4042 -0.4845 -1.2177
  753MOL0     H 1637   4.517   0.767   2.124 -1.8338 -0.0664 -2.0304
  753MOL0     H 1638   4.340   0.679   2.273 -2.3571 -1.6009  0.4097
  753MOL0     H 1639   2.863   0.867   3.254  2.1843 -1.4964 -1.0662
  753MOL0     H 1640   2.610   0.870   3.274  0.1472 -1.0517  1.7392
  753MOL0     H 1641   2.254   0.963   2.997  2.0282 -0.7270 -0.6860
  753MOL0     H 1642   2.035   1.017   3.012 -0.4556 -0.4707  1.1195
  753MOL0     H 1643   1.785   1.013   3.274 -0.6909  0.8123 -3.1435
  753MOL0     H 1644   1.891   0.882   3.331 -0.4774 -3.0590 -1.5660
  753MOL0     H 1645   1.657   0.820   3.396 -1.7393 -1.8212 -0.4107
  753MOL0     H 1646   1.753   0.708   3.309  1.2405  1.0287  0.2994
  753MOL0     H 1647   1.583   0.855   3.121 -2.1955  0.1826 -0.1079
  753MOL0     H 1648   1.496   0.818   3.270  1.1153  2.6340  0.4253
  753MOL0     H 1649   1.644   0.621   3.080 -0.3437 -1.2147 -0.6099
  753MOL0     H 1650   1.567   0.573   3.223 -1.0345 -0.5336 -0.1744
  753MOL0     H 1651   1.245   0.602   2.941  1.5298 -0.5318 -3.9182
  753MOL0     H 1652   1.937   0.634   3.180  1.3319  0.4849 -0.1835
  753MOL0     H 1653   2.138   0.469   3.173 -0.7357  1.9499 -2.2460
  753MOL0     H 1654   2.293   0.512   3.125 -0.4616  0.4800  0.5973
  753MOL0     H 1655   2.254   0.535   3.297  1.3012 -0.3286 -0.1382
  754MOL0     O 1656   6.659   1.899   2.904  0.1485 -0.5733  0.9330
  754MOL0     C 1657   6.620   1.793   2.937  0.2592  0.3249 -0.3832
  754MOL0     O 1658   6.687   1.701   3.012  0.3880 -0.9465  0.3597
  754MOL0     C 1659   6.792   1.748   3.090 -0.3450 -0.3740 -0.2240
  754MOL0     C 1660   6.888   1.649   3.131 -0.0701  0.2911  0.2264
  754MOL0     C 1661   7.003   1.684   3.208  0.3705  0.5429 -0.4241
  754MOL0     C 1662   7.028   1.812   3.241 -0.0172 -0.4401 -0.0686
  754MOL0     O 1663   7.146   1.828   3.305 -0.6596 -0.0710  0.1848
  754MOL0     C 1664   7.212   1.957   3.317 -0.0380 -0.4592 -0.0106
  754MOL0     C 1665   7.306   1.954   3.437 -0.9128  0.0006  0.6252
  754MOL0     C 1666   7.411   2.064   3.417  0.0394  0.0527  0.3787
  754MOL0     C 1667   7.538   2.005   3.354 -0.2723  0.6415  0.4966
  754MOL0     C 1668   7.648   2.101   3.367 -0.4996 -0.1329 -0.9338
  754MOL0     C 1669   7.788   2.029   3.348  0.9416  0.6006  0.4528
  754MOL0     C 1670   7.906   2.128   3.373 -0.5732  0.8169 -0.3334
  754MOL0     C 1671   8.034   2.040   3.387  0.0775 -0.8695 -0.7061
  754MOL0     N 1672   8.149   2.127   3.383 -0.6133 -0.1470  0.3875
  754MOL0     C 1673   8.203   2.156   3.264 -0.9010 -0.6865  0.4511
  754MOL0     C 1674   8.311   2.234   3.304 -0.2395  0.3259 -0.2323
  754MOL0     C 1675   8.415   2.303   3.227  0.0018  0.4809 -0.5133
  754MOL0     C 1676   8.376   2.452   3.195 -0.4220  0.4985 -0.0369
  754MOL0     C 1677   8.495   2.538   3.160  0.2787 -0.0699 -0.2118
  754MOL0     C 1678   8.565   2.589   3.283 -0.6266 -0.4325 -0.4006
  754MOL0     O 1679   8.673   2.661   3.238 -0.2657  0.5416 -0.3646
  754MOL0     C 1680   8.793   2.601   3.206 -0.2255  1.3029  0.1072
  754MOL0     C 1681   8.916   2.671   3.186 -0.0750  0.5987 -0.0358
  754MOL0     C 1682   9.033   2.616   3.146  0.5053  0.2970 -0.1339
  754MOL0     C 1683   9.048   2.479   3.128 -0.3937 -0.1326 -0.1808
  754MOL0     C 1684   9.180   2.421   3.097  0.9491 -0.1062 -0.6178
  754MOL0     O 1685   9.192   2.286   3.129  0.5858  0.2501  0.6909
  754MOL0     C 1686   9.308   2.216   3.118  0.5721  0.9410  0.4527
  754MOL0     C 1687   9.351   2.128   3.222 -0.7388  0.7550 -0.5618
  754MOL0     C 1688   9.477   2.053   3.212 -0.3265 -0.6477  0.4900
  754MOL0     C 1689   9.548   2.059   3.095  0.7323 -0.0598  0.1242
  754MOL0     O 1690   9.667   1.995   3.072  0.1232  0.2940  0.0231
  754MOL0     C 1691   9.739   1.959   3.188 -0.4983  0.4245 -0.4110
  754MOL0     C 1692   9.878   1.921   3.146 -0.4954  1.3769  0.0210
  754MOL0     C 1693   9.957   2.039   3.095  0.4829  0.1978 -0.0773
  754MOL0     C 1694  10.107   2.007   3.081  0.5671  0.5277 -0.1995
  754MOL0     C 1695  10.179   2.115   3.029  0.1731  0.3900 -0.0125
  754MOL0     C 1696  10.315   2.068   2.972 -0.3989  0.4189  0.0899
  754MOL0     C 1697  10.370   2.186   2.906  0.4442  0.6560 -0.5783
  754MOL0     C 1698  10.519   2.182   2.873 -0.4527  0.4772  0.7065
  754MOL0    Cl 1699  10.527   2.058   2.751  0.7685 -0.2193 -0.0079
  754MOL0     C 1700   9.505   2.142   2.998 -0.0511  0.1574  0.7386
  754MOL0     C 1701   9.387   2.215   3.007  0.8920 -0.5076  0.1988
  754MOL0     O 1702   9.278   2.498   3.078  0.4392  0.7069 -0.3803
  754MOL0     C 1703   8.931   2.398   3.137 -0.0576 -0.1717  0.3187
  754MOL0     C 1704   8.807   2.453   3.183  0.6987 -0.4518 -0.2458
  754MOL0     N 1705   8.326   2.216   3.440 -0.3090  0.0232  0.3167
  754MOL0     N 1706   8.227   2.160   3.487 -0.0260  0.0091  0.3493
  754MOL0     C 1707   6.940   1.917   3.201  0.2740  0.4409  0.1720
  754MOL0     C 1708   6.816   1.883   3.131 -0.6127 -0.1321 -0.1843
  754MOL0     C 1709   6.483   1.763   2.885  1.3575 -0.4346 -0.1329
  754MOL0     C 1710   6.386   1.867   2.873 -0.2059  0.2161 -0.0215
  754MOL0     C 1711   6.253   1.844   2.844 -0.1482  0.4442 -0.2959
  754MOL0     C 1712   6.209   1.710   2.826 -0.1049 -0.4202 -0.1716
  754MOL0     O 1713   6.078   1.683   2.792 -0.0895  0.4680  0.3157
  754MOL0     C 1714   6.012   1.556   2.825 -0.6048  0.2312  1.2697
  754MOL0     C 1715   6.019   1.511   2.968  1.2903 -0.7311 -0.2705
  754MOL0     C 1716   5.975   1.362   2.974  0.2419 -0.2535  0.4402
  754MOL0     C 1717   5.892   1.323   3.097 -1.0002  0.1619  0.0676
  754MOL0     C 1718   5.831   1.193   3.081  0.7131 -0.0639 -0.0515
  754MOL0     C 1719   5.770   1.095   3.046  0.1068  0.6477 -0.4031
  754MOL0     C 1720   6.304   1.612   2.820  0.2038 -0.1839 -0.0403
  754MOL0     C 1721   6.439   1.635   2.854 -0.8814  0.9421  0.1955
  754MOL0     C 1722   6.540   1.517   2.840  0.9183  0.2712 -0.1378
  754MOL0     H 1723   6.874   1.551   3.088 -2.9151  0.2121  1.1179
  754MOL0     H 1724   7.090   1.624   3.231 -0.3827 -0.2715  0.3654
  754MOL0     H 1725   7.269   1.963   3.224  2.4513  0.4442  1.4580
  754MOL0     H 1726   7.141   2.039   3.326  0.7519  0.1851  0.4751
  754MOL0     H 1727   7.356   1.857   3.445 -0.8605 -0.1905 -1.5539
  754MOL0     H 1728   7.245   1.960   3.528 -0.4832  0.2458  0.9043
  754MOL0     H 1729   7.430   2.091   3.521 -1.3416 -6.0881  2.6606
  754MOL0     H 1730   7.372   2.151   3.363  0.0416  1.0577  1.9068
  754MOL0     H 1731   7.574   1.913   3.400  1.5731  1.4964  0.8407
  754MOL0     H 1732   7.526   1.978   3.249 -0.8035 -0.6470  0.8625
  754MOL0     H 1733   7.644   2.183   3.296 -2.2199 -0.1872 -0.9404
  754MOL0     H 1734   7.646   2.148   3.466  0.7910 -0.1070 -0.8948
  754MOL0     H 1735   7.792   1.950   3.424  0.9138 -1.7231 -1.8202
  754MOL0     H 1736   7.800   1.993   3.246  0.0050 -0.5346  0.7267
  754MOL0     H 1737   7.888   2.175   3.470 -0.1450  2.1358 -0.8636
  754MOL0     H 1738   7.927   2.194   3.288 -2.1712  0.5626 -0.9462
  754MOL0     H 1739   8.031   1.998   3.489  2.0189  0.2345 -0.1396
  754MOL0     H 1740   8.036   1.960   3.312 -1.0867 -1.3700 -0.2355
  754MOL0     H 1741   8.165   2.143   3.164 -1.7385 -0.4403  0.7285
  754MOL0     H 1742   8.510   2.299   3.282  0.1564  0.1645 -0.8092
  754MOL0     H 1743   8.419   2.252   3.131 -1.6695  1.3471 -1.0799
  754MOL0     H 1744   8.323   2.444   3.100  0.2720 -2.4143 -0.2791
  754MOL0     H 1745   8.312   2.500   3.270 -3.2445  0.1886 -2.0793
  754MOL0     H 1746   8.454   2.632   3.122  1.6387  1.3187  1.5699
  754MOL0     H 1747   8.555   2.491   3.082 -1.3187 -1.4634 -0.6630
  754MOL0     H 1748   8.592   2.509   3.352 -0.3707  0.0940  0.1167
  754MOL0     H 1749   8.499   2.659   3.334 -1.4016 -1.4421  0.0161
  754MOL0     H 1750   8.919   2.778   3.205 -2.7389  0.7197  0.1943
  754MOL0     H 1751   9.115   2.686   3.146  1.2155 -0.4538  1.8168
  754MOL0     H 1752   9.294   2.115   3.314  2.3673 -3.5442  1.0963
  754MOL0     H 1753   9.486   1.967   3.277 -1.5199 -2.6439 -1.8121
  754MOL0     H 1754   9.743   2.034   3.267  1.6296 -0.9632  0.8821
  754MOL0     H 1755   9.683   1.873   3.224  2.2126 -1.1369  0.3151
  754MOL0     H 1756   9.922   1.859   3.224 -1.4824 -1.7173 -1.7042
  754MOL0     H 1757   9.873   1.842   3.070  1.3003 -2.4981  3.5383
  754MOL0     H 1758   9.927   2.069   2.994  0.3053 -1.0361 -0.4024
  754MOL0     H 1759   9.947   2.127   3.159 -3.7004 -0.4063  0.3606
  754MOL0     H 1760  10.111   1.918   3.017 -1.2196 -0.1993  0.6243
  754MOL0     H 1761  10.154   1.984   3.177  0.3322 -0.0054 -0.2067
  754MOL0     H 1762  10.183   2.186   3.112 -2.4181 -1.1102  1.5428
  754MOL0     H 1763  10.119   2.170   2.955 -4.0750 -2.4214  0.9844
  754MOL0     H 1764  10.375   2.031   3.056 -0.4883  2.6939  1.2401
  754MOL0     H 1765  10.304   1.983   2.905  2.4417 -0.2355  0.2906
  754MOL0     H 1766  10.353   2.271   2.972 -2.4944 -0.5674  0.4235
  754MOL0     H 1767  10.314   2.201   2.813 -2.8452 -1.2694  0.9219
  754MOL0     H 1768  10.550   2.277   2.828 -1.3853 -0.3929 -1.9503
  754MOL0     H 1769  10.569   2.146   2.963  0.0426 -6.2546 -1.7619
  754MOL0     H 1770   9.566   2.165   2.911  2.0231  2.2643  2.5965
  754MOL0     H 1771   9.345   2.260   2.918  0.7885  0.6345  0.8057
  754MOL0     H 1772   8.938   2.290   3.123 -0.3819 -0.1695  0.1257
  754MOL0     H 1773   8.721   2.394   3.214  2.3864 -1.9632  1.8851
  754MOL0     H 1774   6.958   2.024   3.212 -1.1486  0.7200 -0.0933
  754MOL0     H 1775   6.739   1.959   3.121 -0.4670  0.2977  1.6366
  754MOL0     H 1776   6.419   1.965   2.908  0.9886 -0.6594  1.3911
  754MOL0     H 1777   6.182   1.925   2.837 -0.6696  0.4620  3.1602
  754MOL0     H 1778   6.063   1.486   2.758  0.6158  2.7799 -0.6652
  754MOL0     H 1779   5.909   1.563   2.791 -0.2925 -0.9453 -0.0295
  754MOL0     H 1780   5.952   1.574   3.027 -1.0686 -3.8351  0.6136
  754MOL0     H 1781   6.122   1.521   3.005  0.4989  0.4873  1.7351
  754MOL0     H 1782   6.064   1.299   2.968  0.9832  0.8804 -1.5054
  754MOL0     H 1783   5.906   1.342   2.891 -0.0051 -1.2817  0.8764
  754MOL0     H 1784   5.950   1.323   3.190  0.7520 -0.5525 -0.9766
  754MOL0     H 1785   5.812   1.396   3.109 -2.4289 -1.2905 -0.3283
  754MOL0     H 1786   5.723   1.006   3.009  1.0542  0.0806 -0.2748
  754MOL0     H 1787   6.271   1.512   2.795  0.2803 -0.5573  1.2797
  754MOL0     H 1788   6.630   1.545   2.784  1.6504 -2.4904 -0.4994
  754MOL0     H 1789   6.563   1.469   2.935 -0.0765  1.1735  0.5742
  754MOL0     H 1790   6.487   1.443   2.777  1.4038 -0.8241  0.7058
  755MOL0     O 1791   5.410   5.110   4.675 -0.4400  0.1420  0.1389
  755MOL0     C 1792   5.389   5.170   4.570 -0.1092  0.2628 -0.5483
  755MOL0     O 1793   5.480   5.182   4.467 -0.2117 -0.4598  0.0759
  755MOL0     C 1794   5.566   5.078   4.457  0.6003  0.1710  0.0643
  755MOL0     C 1795   5.682   5.084   4.525 -0.4430 -0.3692  0.2056
  755MOL0     C 1796   5.781   4.992   4.494  0.0975 -0.5595  0.7989
  755MOL0     C 1797   5.752   4.880   4.407  0.5693 -0.3011  0.1716
  755MOL0     O 1798   5.829   4.768   4.385  0.2147 -0.2333  0.5201
  755MOL0     C 1799   5.929   4.722   4.474  0.1343 -0.0817 -1.1493
  755MOL0     C 1800   6.028   4.628   4.404  0.1653  0.0964  0.0603
  755MOL0     C 1801   6.099   4.541   4.516 -0.8856 -0.0541  0.6810
  755MOL0     C 1802   6.199   4.443   4.453  0.3327  0.0576  0.9154
  755MOL0     C 1803   6.244   4.342   4.562 -0.3106  0.6125 -0.3014
  755MOL0     C 1804   6.330   4.232   4.495  0.7731  0.4035  0.4545
  755MOL0     C 1805   6.459   4.274   4.429  0.0414 -0.6885  1.0237
  755MOL0     C 1806   6.549   4.150   4.401  0.3100 -0.4261 -0.1719
  755MOL0     N 1807   6.588   4.069   4.516  0.4033  0.1293  0.0696
  755MOL0     C 1808   6.683   4.114   4.604  0.3827 -0.3668 -0.2913
  755MOL0     C 1809   6.699   3.999   4.678 -0.5878 -0.9500 -0.4066
  755MOL0     C 1810   6.799   3.998   4.790 -0.0530 -0.6128 -0.6899
  755MOL0     C 1811   6.946   4.022   4.761 -0.1727 -0.1640  1.0383
  755MOL0     C 1812   7.015   3.908   4.685 -0.3314 -0.8379 -0.3948
  755MOL0     C 1813   7.122   3.936   4.582 -0.3561 -0.3421  0.5856
  755MOL0     O 1814   7.202   4.049   4.624  0.6344 -0.5202 -0.6584
  755MOL0     C 1815   7.333   4.053   4.588  0.1021  0.1839 -0.0421
  755MOL0     C 1816   7.409   4.142   4.653 -0.3016  0.0333 -0.2451
  755MOL0     C 1817   7.549   4.140   4.638 -0.3884  0.1894 -0.5325
  755MOL0     C 1818   7.616   4.053   4.540  0.4069 -0.7008 -0.1384
  755MOL0     C 1819   7.771   4.065   4.514  0.8311  1.0949  0.5293
  755MOL0     O 1820   7.831   4.154   4.600  0.2240  0.1113  0.1374
  755MOL0     C 1821   7.958   4.194   4.571  0.2067  0.3490  0.1055
  755MOL0     C 1822   7.991   4.277   4.469 -0.8862 -0.1215 -0.5216
  755MOL0     C 1823   8.130   4.315   4.446 -0.3738  0.3419  0.1077
  755MOL0     C 1824   8.231   4.255   4.527  0.2845 -0.2442  0.4247
  755MOL0     O 1825   8.368   4.286   4.525 -0.0385  0.3895  0.0415
  755MOL0     C 1826   8.409   4.404   4.467  0.1770  0.8710 -0.0756
  755MOL0     C 1827   8.562   4.412   4.467 -0.3257  0.5220  0.4744
  755MOL0     C 1828   8.631   4.416   4.607  0.0148 -0.2982  0.2971
  755MOL0     C 1829   8.674   4.549   4.660  0.0021  0.1073  0.2793
  755MOL0     C 1830   8.766   4.536   4.785  0.4880 -0.3307  0.4685
  755MOL0     C 1831   8.776   4.665   4.859  0.7406  0.6591 -0.1706
  755MOL0     C 1832   8.908   4.661   4.940 -0.8396  0.3296  0.1030
  755MOL0     C 1833   8.901   4.794   5.010  0.1807 -0.4057 -0.5892
  755MOL0    Cl 1834   8.938   4.940   4.903  0.2908 -0.1239  0.3940
  755MOL0     C 1835   8.194   4.171   4.625 -0.0058 -0.1413 -0.2108
  755MOL0     C 1836   8.059   4.147   4.655 -0.1113 -0.1696 -0.0077
  755MOL0     O 1837   7.824   3.993   4.424  0.2866 -0.3673 -0.2675
  755MOL0     C 1838   7.532   3.979   4.470 -0.2981  0.5147 -0.2733
  755MOL0     C 1839   7.397   3.964   4.497  0.3446  0.8938 -0.2379
  755MOL0     N 1840   6.609   3.899   4.641  0.5644  0.1224 -0.4944
  755MOL0     N 1841   6.550   3.944   4.532  1.2543  0.8011  0.5224
  755MOL0     C 1842   5.635   4.876   4.329  0.0289 -0.2302 -0.4600
  755MOL0     C 1843   5.544   4.978   4.359  0.3278  0.5232  0.3029
  755MOL0     C 1844   5.268   5.259   4.552 -0.6663 -0.1764 -0.6104
  755MOL0     C 1845   5.256   5.343   4.437  0.5670 -0.5686  0.7437
  755MOL0     C 1846   5.163   5.447   4.425  0.0270 -0.1062  0.1298
  755MOL0     C 1847   5.058   5.453   4.520 -0.4091  0.3617 -0.0427
  755MOL0     O 1848   4.962   5.547   4.509 -0.0899 -0.4662 -0.2683
  755MOL0     C 1849   4.832   5.509   4.568 -0.8899 -0.1867 -0.0176
  755MOL0     C 1850   4.717   5.604   4.547 -0.0915  0.4244 -0.3447
  755MOL0     C 1851   4.630   5.569   4.427  0.6671  0.0222  0.0665
  755MOL0     C 1852   4.492   5.631   4.434  0.2743 -0.3522  0.2632
  755MOL0     C 1853   4.422   5.618   4.307  0.1092  1.1369 -0.4849
  755MOL0     C 1854   4.362   5.614   4.201 -0.7029  0.2605  0.6754
  755MOL0     C 1855   5.059   5.365   4.626 -0.2234 -0.0908 -0.8474
  755MOL0     C 1856   5.163   5.267   4.643  0.4486  0.5833 -0.3266
  755MOL0     C 1857   5.157   5.181   4.776  0.1169  0.1846  0.1482
  755MOL0     H 1858   5.714   5.164   4.591  2.2764 -0.2343 -1.1537
  755MOL0     H 1859   5.877   5.001   4.545  0.8798  0.4210 -0.7600
  755MOL0     H 1860   5.992   4.802   4.513  0.3430 -1.5503  1.7252
  755MOL0     H 1861   5.878   4.675   4.558  1.5388  0.6890  0.1778
  755MOL0     H 1862   6.100   4.681   4.342  0.7487 -0.5781  0.1550
  755MOL0     H 1863   5.961   4.565   4.345 -1.8897 -3.2924  5.2354
  755MOL0     H 1864   6.036   4.485   4.586 -0.0935 -1.5557  0.2364
  755MOL0     H 1865   6.153   4.610   4.581  0.7486  1.2021 -1.8436
  755MOL0     H 1866   6.159   4.397   4.362 -1.4304  1.8047  0.7410
  755MOL0     H 1867   6.281   4.503   4.411 -0.0711  0.7333  1.0816
  755MOL0     H 1868   6.291   4.382   4.652  0.6387 -1.9841  0.4478
  755MOL0     H 1869   6.158   4.296   4.611 -0.3975  1.2030  0.0950
  755MOL0     H 1870   6.359   4.161   4.572  1.9258 -0.7634 -0.9796
  755MOL0     H 1871   6.270   4.183   4.418  0.1035  3.0174 -0.8142
  755MOL0     H 1872   6.513   4.356   4.477 -0.0082 -1.4021  2.3437
  755MOL0     H 1873   6.427   4.311   4.331 -1.8501 -4.0888  0.1733
  755MOL0     H 1874   6.488   4.083   4.339  0.1909  1.0970 -1.7774
  755MOL0     H 1875   6.641   4.173   4.347  0.7780  3.0154  1.7609
  755MOL0     H 1876   6.732   4.211   4.609 -0.8482  0.4242 -2.1218
  755MOL0     H 1877   6.762   4.074   4.859 -1.7228  0.3601 -2.5612
  755MOL0     H 1878   6.782   3.907   4.849  0.1543  0.3233  0.8576
  755MOL0     H 1879   6.969   4.112   4.702  2.3659 -1.0747  0.5242
  755MOL0     H 1880   7.002   4.029   4.854  3.1534 -1.0071 -0.7642
  755MOL0     H 1881   6.934   3.856   4.633 -2.4743  2.8746 -1.1305
  755MOL0     H 1882   7.059   3.837   4.756  0.5163  2.3941  2.6197
  755MOL0     H 1883   7.073   3.966   4.489  1.0472 -0.7613 -0.3156
  755MOL0     H 1884   7.171   3.842   4.556  0.2672  0.5002 -1.5307
  755MOL0     H 1885   7.370   4.195   4.739  0.9642 -0.1936  0.4796
  755MOL0     H 1886   7.611   4.216   4.683  0.2080 -1.5712  1.8487
  755MOL0     H 1887   7.908   4.323   4.415 -3.2097 -0.4780  2.4864
  755MOL0     H 1888   8.161   4.377   4.363 -2.3153 -2.8665 -3.2861
  755MOL0     H 1889   8.366   4.405   4.366  1.6742  0.8882 -0.7422
  755MOL0     H 1890   8.380   4.494   4.521  2.1558  0.4221  1.8929
  755MOL0     H 1891   8.610   4.332   4.410  0.0997 -0.2302  1.8363
  755MOL0     H 1892   8.587   4.509   4.422  1.1692  0.0403  0.2170
  755MOL0     H 1893   8.580   4.353   4.680  2.0983 -3.9536 -1.1268
  755MOL0     H 1894   8.723   4.358   4.594  1.3099  1.4077  1.4225
  755MOL0     H 1895   8.592   4.615   4.692  0.3940  0.0223  1.4941
  755MOL0     H 1896   8.729   4.602   4.581  0.0052 -2.0497 -1.2373
  755MOL0     H 1897   8.861   4.495   4.748 -0.4129 -0.4353 -1.9067
  755MOL0     H 1898   8.725   4.465   4.857 -1.1339  0.8900  0.8071
  755MOL0     H 1899   8.776   4.746   4.785 -2.0799 -0.5692 -1.6657
  755MOL0     H 1900   8.687   4.675   4.921 -0.7676  1.9813 -2.4169
  755MOL0     H 1901   8.998   4.643   4.880  0.5326  0.0158  2.1587
  755MOL0     H 1902   8.900   4.589   5.023 -0.1797 -0.2823 -0.3550
  755MOL0     H 1903   8.808   4.791   5.068  0.5692 -0.8416  0.0127
  755MOL0     H 1904   8.978   4.800   5.088 -1.6712 -1.4126  1.4318
  755MOL0     H 1905   8.275   4.128   4.684  0.0677  1.2737  0.7845
  755MOL0     H 1906   8.036   4.075   4.733  0.4191 -1.3338 -0.8920
  755MOL0     H 1907   7.566   3.925   4.382  0.0008 -0.0104  0.1586
  755MOL0     H 1908   7.338   3.897   4.436 -2.9781  0.0641  3.4684
  755MOL0     H 1909   5.605   4.796   4.263  1.6846 -3.0189  1.9189
  755MOL0     H 1910   5.459   4.990   4.292  1.0922  1.0588 -0.6019
  755MOL0     H 1911   5.336   5.331   4.364 -0.0201  0.1908 -0.0447
  755MOL0     H 1912   5.160   5.505   4.333  0.3427 -2.0015 -1.1488
  755MOL0     H 1913   4.841   5.495   4.676  1.2628  0.7775 -0.0170
  755MOL0     H 1914   4.815   5.408   4.530  3.3839 -1.4278  0.8105
  755MOL0     H 1915   4.765   5.702   4.535  0.7273 -0.0098 -0.6814
  755MOL0     H 1916   4.656   5.606   4.638  1.4229 -1.1418  0.7965
  755MOL0     H 1917   4.625   5.462   4.410  0.1047  0.0876 -0.1871
  755MOL0     H 1918   4.690   5.626   4.355  0.1055  0.4442 -0.0794
  755MOL0     H 1919   4.432   5.579   4.509  0.8948  1.0848  1.8352
  755MOL0     H 1920   4.495   5.737   4.464 -1.1795 -0.2643  0.1673
  755MOL0     H 1921   4.304   5.594   4.113 -1.4386 -3.5573  1.8503
  755MOL0     H 1922   4.989   5.370   4.709  0.3864  0.3303 -0.3544
  755MOL0     H 1923   5.238   5.199   4.847 -0.7847  0.9696  1.0046
  755MOL0     H 1924   5.061   5.200   4.825 -0.2444  0.6537 -0.7180
  755MOL0     H 1925   5.153   5.077   4.743  0.4312  0.7480 -1.8083
  756MOL0     O 1926   8.459   7.322   0.349 -0.3200 -0.1405 -0.1701
  756MOL0     C 1927   8.410   7.385   0.259  0.3148 -0.2022  0.1966
  756MOL0     O 1928   8.465   7.489   0.197 -0.1374  0.4201  0.4812
  756MOL0     C 1929   8.583   7.558   0.224  0.2820  0.2941 -0.0926
  756MOL0     C 1930   8.600   7.675   0.156 -0.6718  0.3573 -0.4862
  756MOL0     C 1931   8.722   7.740   0.175 -0.0828 -0.1816  0.4931
  756MOL0     C 1932   8.818   7.690   0.254  0.0062  0.1146  0.4688
  756MOL0     O 1933   8.940   7.751   0.251 -0.0252 -0.6743  0.1488
  756MOL0     C 1934   8.997   7.771   0.383 -0.3601  0.1088  0.1828
  756MOL0     C 1935   9.106   7.883   0.371  0.7936  0.7701 -0.1930
  756MOL0     C 1936   9.234   7.853   0.296 -0.0246 -0.3703 -0.0641
  756MOL0     C 1937   9.337   7.968   0.299 -0.5124  1.1002  0.5166
  756MOL0     C 1938   9.458   7.927   0.208 -0.2715 -0.4755 -0.4975
  756MOL0     C 1939   9.554   8.046   0.181  0.3372 -0.7319  0.7915
  756MOL0     C 1940   9.668   8.009   0.090 -0.0287  0.4639  0.0641
  756MOL0     C 1941   9.803   7.973   0.162  0.1719  0.0113  0.0875
  756MOL0     N 1942   9.904   7.927   0.070 -0.0867 -0.4246 -0.8627
  756MOL0     C 1943   9.973   8.013  -0.004 -0.6214 -0.1753 -0.5223
  756MOL0     C 1944  10.050   7.939  -0.083  0.1203  0.4772 -0.2861
  756MOL0     C 1945  10.147   8.001  -0.182  0.2187  0.1879 -0.0713
  756MOL0     C 1946  10.242   7.903  -0.253  0.7944 -0.4762  1.4203
  756MOL0     C 1947  10.358   7.860  -0.167  0.2682 -0.0782 -0.8938
  756MOL0     C 1948  10.477   7.952  -0.170 -0.7830  0.0378 -0.1232
  756MOL0     O 1949  10.583   7.903  -0.081 -0.0567  0.2261 -0.3587
  756MOL0     C 1950  10.699   7.977  -0.074 -0.2330 -0.1681 -0.1796
  756MOL0     C 1951  10.774   7.956   0.045 -0.0389 -0.1672  0.4479
  756MOL0     C 1952  10.888   8.036   0.066 -0.8898  0.8466  0.0614
  756MOL0     C 1953  10.930   8.136  -0.019 -0.3295  0.1133 -0.3186
  756MOL0     C 1954  11.058   8.201  -0.007  0.1024  0.5402 -0.4672
  756MOL0     O 1955  11.168   8.125   0.037  0.8343  0.1465  0.5246
  756MOL0     C 1956  11.282   8.190   0.065  0.5805  0.4878  0.3194
  756MOL0     C 1957  11.293   8.291   0.166 -0.0442 -0.6064  0.4467
  756MOL0     C 1958  11.419   8.342   0.192 -0.4047  0.0951 -0.4313
  756MOL0     C 1959  11.534   8.294   0.125  0.2260  0.5516  0.6308
  756MOL0     O 1960  11.649   8.344   0.178 -0.2382  0.0323 -0.5430
  756MOL0     C 1961  11.770   8.341   0.098  0.0115 -0.3350 -0.6081
  756MOL0     C 1962  11.841   8.479   0.109  0.0791  0.1576  0.1160
  756MOL0     C 1963  11.750   8.603   0.088 -0.3944 -0.6142 -0.2331
  756MOL0     C 1964  11.699   8.613  -0.059 -0.0337  1.2390  0.5820
  756MOL0     C 1965  11.597   8.734  -0.081 -1.0912 -0.1076  0.7381
  756MOL0     C 1966  11.467   8.723   0.009 -0.4256  0.9312 -0.0559
  756MOL0     C 1967  11.365   8.630  -0.040 -0.3269  0.0008  0.1544
  756MOL0     C 1968  11.238   8.636   0.044 -0.5125  0.7117 -0.3844
  756MOL0    Cl 1969  11.161   8.795   0.010  0.3050 -0.1346 -0.1067
  756MOL0     C 1970  11.524   8.192   0.019  0.2889  0.2606 -0.0663
  756MOL0     C 1971  11.395   8.146  -0.001 -0.5697  0.5656  1.1390
  756MOL0     O 1972  11.057   8.327  -0.011  0.3540  0.1200  0.0723
  756MOL0     C 1973  10.853   8.154  -0.135 -0.1194  0.8214 -0.0255
  756MOL0     C 1974  10.748   8.069  -0.166  0.2022 -0.3179  0.9566
  756MOL0     N 1975  10.016   7.802  -0.057 -0.3794 -0.5194 -0.1932
  756MOL0     N 1976   9.929   7.799   0.037 -0.5030  0.2983  0.4133
  756MOL0     C 1977   8.806   7.567   0.321 -0.5713 -0.6086 -0.1138
  756MOL0     C 1978   8.686   7.503   0.299 -0.4566 -0.2900  0.3329
  756MOL0     C 1979   8.264   7.361   0.216  1.2508 -0.3920  0.1937
  756MOL0     C 1980   8.178   7.454   0.155 -0.9119 -0.3262  0.2625
  756MOL0     C 1981   8.049   7.433   0.118  1.1136 -0.0022 -0.1503
  756MOL0     C 1982   7.997   7.308   0.128  0.3032 -0.7774 -0.3197
  756MOL0     O 1983   7.875   7.293   0.069  0.1494 -0.6695  0.1179
  756MOL0     C 1984   7.807   7.167   0.078 -0.2496 -0.3422 -0.2481
  756MOL0     C 1985   7.730   7.140   0.213 -0.7126 -0.9042  0.5509
  756MOL0     C 1986   7.673   6.993   0.207 -0.9403  0.3629 -0.1812
  756MOL0     C 1987   7.604   6.972   0.342  0.3700  0.1586 -0.1550
  756MOL0     C 1988   7.702   6.933   0.444 -0.5540  0.1538 -1.0815
  756MOL0     C 1989   7.780   6.897   0.527  0.1766  0.3772  0.0552
  756MOL0     C 1990   8.078   7.208   0.177  0.2918 -0.1847  0.0114
  756MOL0     C 1991   8.197   7.236   0.232 -0.6009 -0.0314 -0.8901
  756MOL0     C 1992   8.255   7.120   0.316 -0.6734  0.2298  0.6166
  756MOL0     H 1993   8.519   7.722   0.101 -1.2427 -0.0541 -0.0168
  756MOL0     H 1994   8.737   7.831   0.117  1.2513  0.6401  2.0309
  756MOL0     H 1995   8.923   7.797   0.460  0.7023 -0.3399  1.3875
  756MOL0     H 1996   9.043   7.675   0.409  3.2843  1.3731 -1.0218
  756MOL0     H 1997   9.140   7.919   0.469  0.2474  0.5846  0.0682
  756MOL0     H 1998   9.063   7.973   0.326 -1.6596 -0.0046  0.4698
  756MOL0     H 1999   9.222   7.846   0.187  0.8153  1.2745 -0.2998
  756MOL0     H 2000   9.277   7.761   0.336  0.4167  0.7382  2.1364
  756MOL0     H 2001   9.305   8.067   0.267  0.4333  1.9599  2.0760
  756MOL0     H 2002   9.376   7.978   0.401  0.8828 -1.8386  0.3798
  756MOL0     H 2003   9.512   7.844   0.254 -2.0984 -0.3433  2.0827
  756MOL0     H 2004   9.418   7.897   0.111  0.0076 -3.9616  0.3425
  756MOL0     H 2005   9.498   8.125   0.131  4.0513  1.9057  0.3080
  756MOL0     H 2006   9.588   8.078   0.280 -1.2868  0.0397  1.1200
  756MOL0     H 2007   9.685   8.099   0.029 -1.5838  1.5154  1.0927
  756MOL0     H 2008   9.641   7.921   0.031 -1.2660 -0.0168  1.2936
  756MOL0     H 2009   9.829   8.068   0.209 -1.9436  0.3466  0.6462
  756MOL0     H 2010   9.788   7.899   0.242 -1.6965  0.6245  0.3320
  756MOL0     H 2011   9.948   8.118  -0.004 -2.4189 -0.4714  2.8996
  756MOL0     H 2012  10.091   8.056  -0.257 -1.7774 -0.5946  0.7736
  756MOL0     H 2013  10.207   8.076  -0.131 -1.2985  0.7575  0.9585
  756MOL0     H 2014  10.194   7.814  -0.292 -1.4860  0.6594  1.4855
  756MOL0     H 2015  10.274   7.946  -0.348 -0.6595  0.3050  1.2634
  756MOL0     H 2016  10.404   7.762  -0.182  1.4276  0.3339 -0.1706
  756MOL0     H 2017  10.322   7.850  -0.064  1.8309 -0.5079 -0.3646
  756MOL0     H 2018  10.443   8.053  -0.144  2.4321  1.0945  0.4315
  756MOL0     H 2019  10.520   7.959  -0.270 -1.4725  0.2746 -0.4143
  756MOL0     H 2020  10.743   7.880   0.116 -3.1925 -1.2805 -1.8648
  756MOL0     H 2021  10.955   8.011   0.147  1.8201 -0.0971 -2.3062
  756MOL0     H 2022  11.209   8.328   0.224  0.7184 -0.5417  1.5273
  756MOL0     H 2023  11.431   8.408   0.278  0.1974  0.3915 -0.7334
  756MOL0     H 2024  11.844   8.273   0.142  0.0027  0.5130  0.7789
  756MOL0     H 2025  11.740   8.326  -0.006 -2.0831 -1.4004  0.0866
  756MOL0     H 2026  11.883   8.476   0.210 -5.4152  2.1810  2.8907
  756MOL0     H 2027  11.924   8.478   0.038 -0.5209 -3.2085 -0.6959
  756MOL0     H 2028  11.667   8.591   0.158  0.8230 -1.2406  1.1425
  756MOL0     H 2029  11.807   8.687   0.129  1.6121 -2.7073  1.5221
  756MOL0     H 2030  11.640   8.523  -0.079  1.9003 -0.5459  2.4516
  756MOL0     H 2031  11.793   8.619  -0.115  0.0612  2.3788  0.8570
  756MOL0     H 2032  11.565   8.739  -0.186 -0.3044  0.3567  0.5163
  756MOL0     H 2033  11.656   8.823  -0.060  0.5650 -0.3704 -2.2626
  756MOL0     H 2034  11.495   8.698   0.112 -0.3995 -2.6016 -0.7896
  756MOL0     H 2035  11.417   8.820   0.002  0.4165  1.3876  0.0748
  756MOL0     H 2036  11.393   8.524  -0.041  0.6716  0.2378  1.2318
  756MOL0     H 2037  11.338   8.657  -0.143  1.1913 -0.3783 -0.3654
  756MOL0     H 2038  11.166   8.561   0.012 -1.0118  0.7850  0.5490
  756MOL0     H 2039  11.256   8.629   0.152  1.5004  4.1275 -0.3365
  756MOL0     H 2040  11.611   8.167  -0.041 -0.8364 -3.9567 -0.2984
  756MOL0     H 2041  11.387   8.065  -0.073  1.9408  1.4714 -0.2831
  756MOL0     H 2042  10.880   8.223  -0.214  0.1532 -0.2762 -0.9136
  756MOL0     H 2043  10.692   8.080  -0.258  0.1649 -1.3241  0.8423
  756MOL0     H 2044   8.891   7.515   0.365 -0.0933 -0.0870 -0.4211
  756MOL0     H 2045   8.677   7.404   0.343  3.0598  0.0600  2.1899
  756MOL0     H 2046   8.200   7.559   0.141 -1.9865 -0.2903 -1.4610
  756MOL0     H 2047   7.983   7.513   0.086 -0.0948 -0.6274  0.6542
  756MOL0     H 2048   7.872   7.080   0.065 -0.5115 -0.6620  0.4756
  756MOL0     H 2049   7.733   7.164  -0.003  0.5631 -0.1277 -1.0162
  756MOL0     H 2050   7.647   7.210   0.224 -1.1372 -1.3148  0.0021
  756MOL0     H 2051   7.801   7.154   0.296  0.7983 -1.5804 -0.5798
  756MOL0     H 2052   7.761   6.929   0.200 -0.1090  1.5348 -1.0935
  756MOL0     H 2053   7.605   6.972   0.123  0.3373 -3.3688 -0.4495
  756MOL0     H 2054   7.549   7.061   0.374  1.9894  0.2151  2.9384
  756MOL0     H 2055   7.522   6.900   0.339 -0.5910  0.8770  3.4942
  756MOL0     H 2056   7.856   6.864   0.595  0.6977 -0.1226 -0.7513
  756MOL0     H 2057   8.038   7.107   0.166 -2.6158  0.8985 -0.3897
  756MOL0     H 2058   8.183   7.040   0.334  1.1149 -2.0646 -1.7041
  756MOL0     H 2059   8.346   7.079   0.271  0.6004  3.7200 -0.2915
  756MOL0     H 2060   8.284   7.163   0.412  0.2244 -1.0455  0.9442
  757MOL0     O 2061   6.359   9.395   1.845  1.0493  0.1777 -0.3324
  757MOL0     C 2062   6.427   9.502   1.842 -0.7182 -0.7340  0.4459
  757MOL0     O 2063   6.417   9.600   1.747 -0.9091  0.7921  0.2119
  757MOL0     C 2064   6.320   9.592   1.652  0.3940 -0.0157  0.0511
  757MOL0     C 2065   6.355   9.574   1.520  0.3125 -0.9348  0.0470
  757MOL0     C 2066   6.256   9.574   1.412 -0.8244  0.5603  0.2192
  757MOL0     C 2067   6.117   9.600   1.444 -0.6204  0.5706 -0.2734
  757MOL0     O 2068   6.028   9.600   1.347  0.6437  0.4320  0.3835
  757MOL0     C 2069   5.887   9.585   1.368  0.4142 -0.9227 -0.0707
  757MOL0     C 2070   5.819   9.718   1.378 -0.4086  0.0782  0.0253
  757MOL0     C 2071   5.839   9.803   1.253 -0.2568  0.1872 -0.4183
  757MOL0     C 2072   5.757   9.936   1.257 -0.9097 -0.2825  0.2919
  757MOL0     C 2073   5.821  10.032   1.154  0.3484 -0.2941  0.4702
  757MOL0     C 2074   5.737  10.169   1.177  0.8167 -0.0070 -0.3422
  757MOL0     C 2075   5.803  10.296   1.112  0.5613 -0.4324  0.4434
  757MOL0     C 2076   5.704  10.415   1.104  0.2915 -0.1069 -0.6872
  757MOL0     N 2077   5.780  10.533   1.042  0.0219 -0.4611  0.1819
  757MOL0     C 2078   5.876  10.620   1.098 -0.6213  0.2622 -0.2303
  757MOL0     C 2079   5.888  10.711   1.013 -0.1931 -0.0490 -0.1523
  757MOL0     C 2080   5.974  10.837   1.043 -0.1938 -0.0355 -0.2968
  757MOL0     C 2081   6.044  10.884   0.911  0.1618 -0.4629 -0.3026
  757MOL0     C 2082   6.132  11.014   0.938 -0.0701 -0.5747 -0.0640
  757MOL0     C 2083   6.164  11.086   0.806  0.7442 -0.0476 -0.1420
  757MOL0     O 2084   6.184  11.223   0.841 -0.3659  0.1939 -0.1156
  757MOL0     C 2085   6.229  11.305   0.742  0.2569 -0.2527  0.2695
  757MOL0     C 2086   6.337  11.279   0.655  0.0032  0.1184 -0.6619
  757MOL0     C 2087   6.387  11.368   0.560  0.2164 -0.3586  0.3995
  757MOL0     C 2088   6.321  11.491   0.536  0.0071 -0.0921 -0.0269
  757MOL0     C 2089   6.372  11.586   0.437  0.3610 -0.1919 -0.2987
  757MOL0     O 2090   6.509  11.571   0.398 -0.1975  0.1035  0.6875
  757MOL0     C 2091   6.570  11.674   0.326 -0.8396  0.1229  0.1931
  757MOL0     C 2092   6.509  11.742   0.223  0.3364  0.4359 -0.0527
  757MOL0     C 2093   6.567  11.833   0.141  0.2130  0.5677  0.4539
  757MOL0     C 2094   6.702  11.869   0.164  0.6185  0.1991 -1.5091
  757MOL0     O 2095   6.758  11.958   0.078  0.2245 -0.2585  0.0394
  757MOL0     C 2096   6.730  12.092   0.105  0.6181 -0.7014 -1.1223
  757MOL0     C 2097   6.844  12.137   0.193 -0.5108 -0.1279  0.2091
  757MOL0     C 2098   6.982  12.149   0.117 -0.2063  0.4537 -0.9445
  757MOL0     C 2099   7.097  12.198   0.220 -0.7668 -1.1886  0.1614
  757MOL0     C 2100   7.171  12.097   0.300 -0.1333  1.2375  0.0114
  757MOL0     C 2101   7.276  12.018   0.208  0.2775  0.0713  0.0313
  757MOL0     C 2102   7.345  11.913   0.289 -0.1359 -0.1752  0.2404
  757MOL0     C 2103   7.459  11.844   0.213 -0.2088 -0.0489 -0.2484
  757MOL0    Cl 2104   7.571  11.764   0.328  0.3800 -0.3316  0.0120
  757MOL0     C 2105   6.766  11.812   0.276 -0.0779 -0.0786 -0.0274
  757MOL0     C 2106   6.700  11.713   0.352  0.4923  0.0257 -0.4800
  757MOL0     O 2107   6.293  11.674   0.411 -0.5730 -0.3069 -0.2464
  757MOL0     C 2108   6.211  11.518   0.617  0.3033  0.0850  0.3349
  757MOL0     C 2109   6.169  11.429   0.720 -0.5170 -0.5913 -0.9884
  757MOL0     N 2110   5.830  10.684   0.900  0.3825  0.2925 -0.4737
  757MOL0     N 2111   5.763  10.578   0.914  0.4926 -0.1535  0.5828
  757MOL0     C 2112   6.085   9.606   1.582  0.0732 -1.0272 -0.1134
  757MOL0     C 2113   6.184   9.609   1.677 -0.0061 -0.2946 -0.0871
  757MOL0     C 2114   6.556   9.489   1.929 -0.7537  0.2358 -0.3269
  757MOL0     C 2115   6.626   9.372   1.926 -0.4316  0.0405  0.0712
  757MOL0     C 2116   6.746   9.354   1.998  0.2656 -0.0606  0.8687
  757MOL0     C 2117   6.790   9.446   2.089 -0.7195 -0.4049 -0.5164
  757MOL0     O 2118   6.906   9.446   2.170 -0.6169 -0.2336  0.9108
  757MOL0     C 2119   6.945   9.319   2.226  0.6333 -0.2851  0.3069
  757MOL0     C 2120   7.086   9.340   2.287 -0.3202  0.3741  0.1634
  757MOL0     C 2121   7.207   9.363   2.184  0.8710  0.6181  0.5219
  757MOL0     C 2122   7.332   9.401   2.266  0.3210  0.5816  0.0945
  757MOL0     C 2123   7.439   9.426   2.169 -0.1469 -0.5186  0.9184
  757MOL0     C 2124   7.508   9.460   2.079 -0.0022  0.7526  0.1663
  757MOL0     C 2125   6.717   9.565   2.092  0.0708 -0.2403 -0.2473
  757MOL0     C 2126   6.599   9.591   2.018 -0.3268  0.1626 -0.7869
  757MOL0     C 2127   6.526   9.726   2.030  0.3540 -0.0379 -0.5832
  757MOL0     H 2128   6.458   9.551   1.496  0.0003 -1.0305 -1.2648
  757MOL0     H 2129   6.289   9.556   1.310 -2.7443 -0.3850 -0.2767
  757MOL0     H 2130   5.843   9.533   1.282 -1.2755 -1.6419  1.1640
  757MOL0     H 2131   5.867   9.523   1.456  0.8326  1.1680  1.5562
  757MOL0     H 2132   5.857   9.767   1.469  1.4810  0.7957 -1.1016
  757MOL0     H 2133   5.710   9.711   1.388 -0.3321 -1.7424 -0.1066
  757MOL0     H 2134   5.817   9.743   1.164  0.1411 -1.2250  0.3944
  757MOL0     H 2135   5.942   9.839   1.252 -0.5586  1.1865 -3.2636
  757MOL0     H 2136   5.652   9.924   1.230 -0.9791  0.7048  0.0867
  757MOL0     H 2137   5.754   9.991   1.352 -0.7426 -0.2499  0.2792
  757MOL0     H 2138   5.927  10.036   1.179  0.4200 -0.2797  0.1708
  757MOL0     H 2139   5.809   9.993   1.053 -1.2056 -0.8736  0.8429
  757MOL0     H 2140   5.639  10.148   1.133 -0.2372 -1.0425  2.2992
  757MOL0     H 2141   5.717  10.190   1.282  1.5289  0.8855 -0.3809
  757MOL0     H 2142   5.836  10.269   1.011  1.1049  0.5845  0.3349
  757MOL0     H 2143   5.887  10.329   1.173  1.7245  0.8595 -1.7141
  757MOL0     H 2144   5.621  10.390   1.038 -0.5437  2.7221 -0.8407
  757MOL0     H 2145   5.663  10.439   1.203 -1.0382  1.9921 -1.6873
  757MOL0     H 2146   5.929  10.631   1.192  1.1102  2.3959 -1.3426
  757MOL0     H 2147   5.900  10.912   1.076 -2.3472 -1.9246 -0.5879
  757MOL0     H 2148   6.045  10.829   1.125 -0.0549  0.9380 -0.3072
  757MOL0     H 2149   6.115  10.812   0.869  2.5305  1.9679 -0.7940
  757MOL0     H 2150   5.972  10.899   0.829  1.5048 -0.0337 -1.4585
  757MOL0     H 2151   6.218  10.988   0.999 -2.4664  0.5203  4.2100
  757MOL0     H 2152   6.069  11.080   0.998  1.4912  0.2602  0.7094
  757MOL0     H 2153   6.077  11.087   0.740  1.1388 -1.7540 -0.7374
  757MOL0     H 2154   6.248  11.044   0.749  0.1410  0.0884 -1.1470
  757MOL0     H 2155   6.390  11.187   0.677 -0.5156 -0.3446 -1.2994
  757MOL0     H 2156   6.482  11.345   0.513 -0.0395 -1.4119  0.3648
  757MOL0     H 2157   6.406  11.726   0.192  0.3008  1.0741 -0.2764
  757MOL0     H 2158   6.517  11.876   0.054 -0.8905  0.7582  1.1691
  757MOL0     H 2159   6.739  12.161   0.020  0.8750  0.9169  0.1659
  757MOL0     H 2160   6.635  12.109   0.155  0.6425  0.6640 -1.4976
  757MOL0     H 2161   6.816  12.236   0.231 -0.4123  0.0040 -0.0630
  757MOL0     H 2162   6.859  12.073   0.280  1.0805  1.8013  1.4587
  757MOL0     H 2163   7.012  12.048   0.088  1.2662 -0.0321  1.8826
  757MOL0     H 2164   6.967  12.209   0.027 -4.2274 -1.7915 -2.0148
  757MOL0     H 2165   7.053  12.285   0.268 -2.7853 -0.3281 -2.9321
  757MOL0     H 2166   7.180  12.246   0.169  1.5131 -1.8209  3.0270
  757MOL0     H 2167   7.102  12.028   0.348  1.5170 -1.4592 -1.2457
  757MOL0     H 2168   7.220  12.147   0.384 -0.5665  1.4921  0.1163
  757MOL0     H 2169   7.217  11.965   0.133  0.7912  0.3621 -0.5797
  757MOL0     H 2170   7.342  12.089   0.158  2.0596  0.3277  2.5612
  757MOL0     H 2171   7.274  11.837   0.322  0.4842 -1.2930 -0.9213
  757MOL0     H 2172   7.381  11.958   0.383 -0.0663  0.7258 -0.2053
  757MOL0     H 2173   7.407  11.774   0.147 -1.9716  0.0254  1.0031
  757MOL0     H 2174   7.507  11.913   0.142 -1.7547  2.1399  0.7143
  757MOL0     H 2175   6.871  11.839   0.285  0.2494 -1.3434  0.0732
  757MOL0     H 2176   6.762  11.650   0.415  0.4135 -0.3777 -0.8002
  757MOL0     H 2177   6.152  11.607   0.599 -1.4965 -1.0924  0.0734
  757MOL0     H 2178   6.082  11.450   0.782  1.0394 -1.0043  1.4880
  757MOL0     H 2179   5.985   9.631   1.617  0.1702  1.6683 -1.5299
  757MOL0     H 2180   6.173   9.618   1.784  0.5353 -2.4582  0.1818
  757MOL0     H 2181   6.582   9.298   1.861 -0.4261  0.3167 -0.2498
  757MOL0     H 2182   6.795   9.261   1.971 -1.6911 -0.6188 -1.0751
  757MOL0     H 2183   6.949   9.246   2.145 -2.0375 -0.2724  0.0919
  757MOL0     H 2184   6.878   9.296   2.309 -1.0150  2.3140 -0.1940
  757MOL0     H 2185   7.110   9.248   2.341 -0.1228 -0.2144 -0.8913
  757MOL0     H 2186   7.082   9.425   2.356 -1.4599  1.6281 -1.3415
  757MOL0     H 2187   7.179   9.444   2.117  1.5405 -0.1427 -0.7049
  757MOL0     H 2188   7.223   9.278   2.118  1.6796  0.5285  0.8222
  757MOL0     H 2189   7.315   9.493   2.323  1.0170  0.2996  0.7725
  757MOL0     H 2190   7.353   9.334   2.350  0.5142 -3.4634 -2.9048
  757MOL0     H 2191   7.572   9.501   2.003 -0.5548  0.4360 -0.4889
  757MOL0     H 2192   6.747   9.633   2.171 -0.1896  1.1992 -1.3642
  757MOL0     H 2193   6.536   9.793   1.944  1.5725  1.3715  0.6020
  757MOL0     H 2194   6.417   9.713   2.035  0.3043 -0.0698 -1.5786
  757MOL0     H 2195   6.558   9.777   2.121  2.2839 -2.1606  0.0028
  758MOL0     O 2196   3.549   8.056   3.826  0.4534  0.4262 -0.8196
  758MOL0     C 2197   3.554   7.971   3.745  0.5187  0.3025  0.0838
  758MOL0     O 2198   3.671   7.909   3.710 -0.3650  0.4019  0.6475
  758MOL0     C 2199   3.797   7.948   3.751 -0.2066  0.2219  0.0234
  758MOL0     C 2200   3.844   8.080   3.745  0.4894  0.3032  0.5626
  758MOL0     C 2201   3.962   8.112   3.801  0.3360  0.4639  0.4261
  758MOL0     C 2202   4.054   8.013   3.834  0.3082 -0.3013  0.0863
  758MOL0     O 2203   4.174   8.062   3.853  0.0968 -0.0560 -0.1984
  758MOL0     C 2204   4.272   7.970   3.918  0.1667 -0.0325 -0.4918
  758MOL0     C 2205   4.413   8.034   3.945  0.3020  0.0733 -0.1653
  758MOL0     C 2206   4.403   8.126   4.062  0.4145  0.2682  0.4344
  758MOL0     C 2207   4.489   8.251   4.047 -0.3040  0.0908 -0.4099
  758MOL0     C 2208   4.640   8.223   4.056 -1.0099 -0.2495  0.5202
  758MOL0     C 2209   4.684   8.139   4.176 -0.3475  0.2396 -0.1654
  758MOL0     C 2210   4.829   8.152   4.198  0.2071 -1.0279 -0.3470
  758MOL0     C 2211   4.872   8.100   4.335 -0.5373  0.6788 -0.0540
  758MOL0     N 2212   5.010   8.120   4.362 -0.6102 -0.0381 -0.0048
  758MOL0     C 2213   5.067   8.249   4.399  0.4634  1.0532  0.6854
  758MOL0     C 2214   5.198   8.229   4.405 -0.1464 -0.1500 -0.1467
  758MOL0     C 2215   5.310   8.324   4.434 -0.7315  0.9822 -0.2914
  758MOL0     C 2216   5.338   8.404   4.306  0.2556  0.2114 -0.5537
  758MOL0     C 2217   5.376   8.325   4.182  0.1497 -0.0554 -0.0497
  758MOL0     C 2218   5.528   8.294   4.174  0.0172  0.1805 -0.1688
  758MOL0     O 2219   5.615   8.402   4.205  0.0010 -0.4132  0.0856
  758MOL0     C 2220   5.752   8.373   4.215  0.3105 -0.3890  0.3206
  758MOL0     C 2221   5.837   8.487   4.217 -0.0301  0.3680 -0.0140
  758MOL0     C 2222   5.976   8.477   4.213  0.1192 -0.1445 -0.9018
  758MOL0     C 2223   6.030   8.350   4.221  0.0097 -0.5910 -0.4848
  758MOL0     C 2224   6.176   8.333   4.211  0.5569 -1.4061  0.1111
  758MOL0     O 2225   6.224   8.208   4.186 -0.2610  0.2744  0.5722
  758MOL0     C 2226   6.353   8.168   4.223  0.5914 -0.6024 -0.3786
  758MOL0     C 2227   6.473   8.246   4.211  0.1146  0.1595 -0.2733
  758MOL0     C 2228   6.600   8.195   4.241 -0.2455 -0.5799  0.5665
  758MOL0     C 2229   6.616   8.072   4.288 -0.3119  0.4115  0.6751
  758MOL0     O 2230   6.746   8.023   4.311 -0.2943 -0.0781 -0.3354
  758MOL0     C 2231   6.768   7.890   4.246 -0.8297 -0.4986 -0.0511
  758MOL0     C 2232   6.915   7.855   4.260  0.2747 -0.3003 -0.5112
  758MOL0     C 2233   6.990   7.920   4.143 -0.8167  0.4457  0.6555
  758MOL0     C 2234   7.135   7.870   4.148  0.0325  0.8458 -0.6529
  758MOL0     C 2235   7.173   7.730   4.104 -0.0704 -0.1448  0.2017
  758MOL0     C 2236   7.327   7.707   4.116  0.3396  0.3791 -0.0702
  758MOL0     C 2237   7.357   7.560   4.097  0.0681 -0.1037  0.0842
  758MOL0     C 2238   7.510   7.545   4.084  0.1098  0.8526  0.1285
  758MOL0    Cl 2239   7.600   7.570   4.234  0.0677 -0.1370  0.4523
  758MOL0     C 2240   6.496   7.988   4.307  0.4677  0.6797  0.3523
  758MOL0     C 2241   6.365   8.044   4.276 -0.6202  0.1667 -0.2554
  758MOL0     O 2242   6.245   8.432   4.240 -0.7557  0.3167 -0.2652
  758MOL0     C 2243   5.945   8.241   4.237  0.0658  0.4138 -0.1649
  758MOL0     C 2244   5.811   8.248   4.231  0.3388 -0.3047  0.2720
  758MOL0     N 2245   5.213   8.096   4.399  0.0633  0.3356  0.1566
  758MOL0     N 2246   5.105   8.032   4.371 -0.0608 -0.4440 -1.1173
  758MOL0     C 2247   4.025   7.876   3.827  0.2269  0.1448 -0.8819
  758MOL0     C 2248   3.889   7.850   3.793  0.0811 -0.0294 -0.8831
  758MOL0     C 2249   3.435   7.908   3.690  0.6860  0.2424  0.0466
  758MOL0     C 2250   3.317   7.923   3.766  0.0933 -0.5445 -0.0336
  758MOL0     C 2251   3.203   7.855   3.723 -0.1311 -0.3204  0.2594
  758MOL0     C 2252   3.200   7.787   3.602 -0.0592 -0.4027  0.9424
  758MOL0     O 2253   3.086   7.721   3.581 -0.6337  0.3823  0.0134
  758MOL0     C 2254   3.070   7.628   3.472  0.1068 -1.0459  0.5448
  758MOL0     C 2255   2.936   7.567   3.507 -0.2495 -0.4829 -0.3101
  758MOL0     C 2256   2.816   7.661   3.515  0.0652 -0.5367 -0.1596
  758MOL0     C 2257   2.681   7.589   3.518 -0.7825 -0.0638  0.8184
  758MOL0     C 2258   2.584   7.690   3.564  0.0451 -0.1708  0.0009
  758MOL0     C 2259   2.513   7.770   3.627 -1.4064 -0.3400  0.1911
  758MOL0     C 2260   3.317   7.784   3.523  0.0228 -0.6739 -0.3378
  758MOL0     C 2261   3.433   7.833   3.571  0.6383 -0.6035 -0.9783
  758MOL0     C 2262   3.562   7.795   3.493 -0.0452 -0.2203  0.6192
  758MOL0     H 2263   3.786   8.162   3.703  2.7608  0.1692 -3.2604
  758MOL0     H 2264   3.978   8.219   3.801 -1.1863  0.7217  0.6769
  758MOL0     H 2265   4.226   7.921   4.004  2.2678 -1.0929  0.0921
  758MOL0     H 2266   4.292   7.892   3.844 -0.8633 -0.6196 -0.1771
  758MOL0     H 2267   4.436   8.095   3.858 -2.3794  1.4566 -0.0217
  758MOL0     H 2268   4.489   7.956   3.955 -1.3213 -1.3982  1.6960
  758MOL0     H 2269   4.423   8.069   4.153 -0.7831 -0.2125  0.4088
  758MOL0     H 2270   4.298   8.157   4.068 -0.4723 -2.3038 -0.3919
  758MOL0     H 2271   4.464   8.299   3.952  2.3459  1.7590 -0.3976
  758MOL0     H 2272   4.463   8.319   4.129  2.1861 -0.0923  0.6331
  758MOL0     H 2273   4.675   8.185   3.960  0.3783  0.1608  0.8377
  758MOL0     H 2274   4.692   8.319   4.056 -1.5593  0.1168 -2.2752
  758MOL0     H 2275   4.626   8.162   4.266  1.1450 -0.4953  1.0412
  758MOL0     H 2276   4.666   8.037   4.140 -1.2106  0.6037 -0.8076
  758MOL0     H 2277   4.855   8.259   4.191 -1.9839 -0.5290 -4.2387
  758MOL0     H 2278   4.890   8.093   4.129  1.1373 -2.9042  1.9480
  758MOL0     H 2279   4.820   8.161   4.410  0.8391  0.4131  1.1747
  758MOL0     H 2280   4.852   7.992   4.336 -0.5690  0.5254 -3.7878
  758MOL0     H 2281   5.002   8.333   4.422 -3.3081 -1.4770  0.2427
  758MOL0     H 2282   5.297   8.382   4.526  1.6107 -1.0083  1.4250
  758MOL0     H 2283   5.401   8.271   4.463 -0.8498 -1.6580 -4.1027
  758MOL0     H 2284   5.248   8.460   4.279  0.8870  0.6064 -1.9118
  758MOL0     H 2285   5.417   8.477   4.327 -0.4021  0.2473  2.1578
  758MOL0     H 2286   5.363   8.388   4.093  1.0450  0.2000 -0.0045
  758MOL0     H 2287   5.312   8.238   4.162 -1.1160  1.4300 -3.1048
  758MOL0     H 2288   5.557   8.240   4.084  0.1535  1.0137 -0.6299
  758MOL0     H 2289   5.546   8.228   4.260 -1.0686  1.6011  1.2167
  758MOL0     H 2290   5.790   8.584   4.206 -1.3415 -0.1639  0.6589
  758MOL0     H 2291   6.031   8.569   4.225 -1.0998  0.6603 -1.3325
  758MOL0     H 2292   6.463   8.340   4.157 -2.1271  0.0799 -0.1014
  758MOL0     H 2293   6.694   8.248   4.227 -0.5177 -0.1998  0.1804
  758MOL0     H 2294   6.709   7.808   4.289  1.9397 -3.1870 -1.0213
  758MOL0     H 2295   6.734   7.891   4.141 -1.5108  2.0357  0.1270
  758MOL0     H 2296   6.946   7.888   4.360 -1.5132 -1.5639  0.5112
  758MOL0     H 2297   6.927   7.747   4.249  0.0641 -0.2255 -1.6346
  758MOL0     H 2298   6.954   7.881   4.048  0.9354 -1.2183  0.6280
  758MOL0     H 2299   6.981   8.029   4.155 -1.4147  0.9519 -3.1814
  758MOL0     H 2300   7.178   7.886   4.247  1.4292 -3.0697 -0.4466
  758MOL0     H 2301   7.194   7.932   4.080  0.4503  0.2905 -0.8074
  758MOL0     H 2302   7.142   7.719   4.000  3.2527  1.6356 -1.1311
  758MOL0     H 2303   7.122   7.661   4.173  2.7130 -1.3141  1.2607
  758MOL0     H 2304   7.386   7.747   4.033  2.0409 -2.0369 -0.1169
  758MOL0     H 2305   7.362   7.721   4.219 -0.5899  0.9773  0.1794
  758MOL0     H 2306   7.305   7.531   4.005 -2.6429 -2.5890  2.2375
  758MOL0     H 2307   7.329   7.487   4.173  1.1892 -1.3952 -0.7036
  758MOL0     H 2308   7.526   7.443   4.050  0.9992  1.8862 -2.9072
  758MOL0     H 2309   7.553   7.609   4.006  0.3462 -1.8214 -2.0991
  758MOL0     H 2310   6.503   7.888   4.349 -0.1863  0.2556 -0.5190
  758MOL0     H 2311   6.278   7.979   4.278 -0.6497  0.2200  0.9069
  758MOL0     H 2312   6.001   8.148   4.244  0.7429  0.8832  0.7879
  758MOL0     H 2313   5.740   8.167   4.246 -1.2314  1.3572  2.5170
  758MOL0     H 2314   4.092   7.802   3.868  2.4680  1.6168 -1.7143
  758MOL0     H 2315   3.852   7.748   3.804 -0.8364  0.3176 -0.6897
  758MOL0     H 2316   3.314   7.982   3.857  0.2086  1.6648 -1.3936
  758MOL0     H 2317   3.112   7.846   3.783 -0.5295  1.1178 -0.1002
  758MOL0     H 2318   3.151   7.555   3.463  2.5015  1.1234  2.8360
  758MOL0     H 2319   3.064   7.693   3.384 -3.2651  2.0575  2.7692
  758MOL0     H 2320   2.933   7.525   3.608 -0.5509  3.8495  1.7000
  758MOL0     H 2321   2.918   7.491   3.431 -2.1605 -1.5481  1.1055
  758MOL0     H 2322   2.805   7.724   3.426 -0.9261 -3.4646 -2.2508
  758MOL0     H 2323   2.824   7.722   3.606 -0.5384  3.2422 -2.4031
  758MOL0     H 2324   2.651   7.545   3.423  1.5594  1.1570 -0.5848
  758MOL0     H 2325   2.679   7.507   3.592  1.1021 -1.2235 -0.3187
  758MOL0     H 2326   2.463   7.847   3.683  1.9762  0.4040  2.5094
  758MOL0     H 2327   3.305   7.732   3.428  2.9739 -2.1143 -0.0286
  758MOL0     H 2328   3.613   7.885   3.459 -0.2150 -0.6532 -0.8437
  758MOL0     H 2329   3.623   7.727   3.554  0.2776  0.4227  1.0318
  758MOL0     H 2330   3.540   7.747   3.397 -0.6030  1.6723 -0.2511
  759MOL0     O 2331   5.623   7.106  11.115  0.3676 -0.0257 -0.6019
  759MOL0     C 2332   5.580   7.084  11.005  0.2887 -0.4825  0.4454
  759MOL0     O 2333   5.656   7.078  10.884 -0.0134  0.1024 -0.9026
  759MOL0     C 2334   5.791   7.114  10.904  0.5355  0.0108 -0.0168
  759MOL0     C 2335   5.893   7.035  10.845  0.4039  0.3559 -0.9103
  759MOL0     C 2336   6.023   7.076  10.853  0.7990 -0.3565  0.2099
  759MOL0     C 2337   6.060   7.199  10.915 -0.8121  0.4523  0.2534
  759MOL0     O 2338   6.197   7.228  10.899 -0.0184  0.2631  0.0294
  759MOL0     C 2339   6.250   7.363  10.918  1.1807 -0.4403 -0.2851
  759MOL0     C 2340   6.279   7.373  11.068  0.2730 -0.2222  0.2342
  759MOL0     C 2341   6.324   7.513  11.108  0.4279  0.7371 -0.4977
  759MOL0     C 2342   6.372   7.529  11.257  1.0899 -0.3361  0.5229
  759MOL0     C 2343   6.366   7.671  11.300 -0.0617 -0.5063  0.2331
  759MOL0     C 2344   6.446   7.695  11.428  0.6402  0.4884  0.1131
  759MOL0     C 2345   6.443   7.843  11.473  0.1610  0.7920  0.2629
  759MOL0     C 2346   6.518   7.857  11.605 -0.1461 -0.5841  0.3156
  759MOL0     N 2347   6.490   7.989  11.657 -0.4820 -0.0992  0.6360
  759MOL0     C 2348   6.399   8.025  11.755 -0.6442  0.0601 -0.6653
  759MOL0     C 2349   6.416   8.157  11.774 -0.7235 -1.1129  0.3330
  759MOL0     C 2350   6.377   8.254  11.888  0.3461  0.1441  0.2423
  759MOL0     C 2351   6.502   8.324  11.945  0.1281 -0.6087  0.1457
  759MOL0     C 2352   6.516   8.466  11.890  0.6444  0.0771  0.1206
  759MOL0     C 2353   6.642   8.530  11.939 -0.3246  0.3084  0.3873
  759MOL0     O 2354   6.761   8.467  11.882 -0.5776  0.1320 -0.3183
  759MOL0     C 2355   6.878   8.484  11.943 -0.8350 -0.3468  0.2060
  759MOL0     C 2356   6.908   8.558  12.053 -0.3095 -0.3377  0.0178
  759MOL0     C 2357   7.044   8.578  12.092  0.1624 -1.0395  0.2391
  759MOL0     C 2358   7.152   8.510  12.033 -0.1917 -0.9611 -0.0591
  759MOL0     C 2359   7.290   8.522  12.093 -0.5496  0.2509  0.1085
  759MOL0     O 2360   7.312   8.605  12.194  0.2447  0.6188  0.0223
  759MOL0     C 2361   7.443   8.636  12.237  0.6647  0.9051 -0.6491
  759MOL0     C 2362   7.539   8.704  12.158 -0.5897 -0.2772  0.3308
  759MOL0     C 2363   7.666   8.731  12.203  0.8302 -0.4656 -0.0790
  759MOL0     C 2364   7.712   8.676  12.328  0.2330 -0.9021  0.4676
  759MOL0     O 2365   7.843   8.702  12.363  0.0011 -0.0172 -0.3839
  759MOL0     C 2366   7.887   8.645  12.487 -0.1304  0.0606 -0.7713
  759MOL0     C 2367   8.046   8.676  12.498  0.1941 -0.6579  1.5096
  759MOL0     C 2368   8.099   8.603  12.613  0.5032  0.9823  0.3231
  759MOL0     C 2369   8.250   8.600  12.636  0.2271 -0.1665  0.1620
  759MOL0     C 2370   8.290   8.540  12.769  0.6936  1.2732 -0.5615
  759MOL0     C 2371   8.442   8.527  12.779  0.1265  0.6846 -0.3725
  759MOL0     C 2372   8.496   8.477  12.922  0.0495 -0.1597  0.5549
  759MOL0     C 2373   8.637   8.416  12.920 -0.2408 -0.0059 -0.6860
  759MOL0    Cl 2374   8.682   8.339  13.077 -0.1284  0.1231 -0.2248
  759MOL0     C 2375   7.619   8.596  12.406 -0.3732  0.6549  0.7684
  759MOL0     C 2376   7.485   8.582  12.363 -0.1257 -0.5636 -0.3411
  759MOL0     O 2377   7.377   8.464  12.037 -0.7864  0.7599 -0.0155
  759MOL0     C 2378   7.123   8.426  11.931 -0.5148 -0.4856  0.6470
  759MOL0     C 2379   6.988   8.417  11.885 -0.4339 -1.0529 -0.2976
  759MOL0     N 2380   6.489   8.209  11.668  0.1451  0.7934 -0.8855
  759MOL0     N 2381   6.528   8.106  11.600  0.1835 -0.6034  0.5419
  759MOL0     C 2382   5.966   7.279  10.974 -0.0919  1.4380  0.2128
  759MOL0     C 2383   5.835   7.232  10.975 -1.2415 -0.8740  0.8370
  759MOL0     C 2384   5.429   7.041  10.994  0.1471 -0.4495 -0.3607
  759MOL0     C 2385   5.389   6.972  10.874  0.0218  0.1096  0.7918
  759MOL0     C 2386   5.261   6.929  10.859 -0.1343 -0.7404 -0.7986
  759MOL0     C 2387   5.158   6.954  10.958 -0.3732 -0.0061  0.0520
  759MOL0     O 2388   5.022   6.920  10.945  0.3497 -0.1844  0.1627
  759MOL0     C 2389   4.982   6.850  10.829  0.3962 -0.3905  0.5289
  759MOL0     C 2390   4.843   6.790  10.846  0.3033  0.1698  0.1713
  759MOL0     C 2391   4.824   6.693  10.960  0.1947  0.4645  0.3908
  759MOL0     C 2392   4.729   6.577  10.924 -0.5824 -0.0173 -0.0170
  759MOL0     C 2393   4.600   6.619  10.881  0.3091 -0.2392 -0.3900
  759MOL0     C 2394   4.495   6.662  10.839 -0.9029  0.6604 -0.7738
  759MOL0     C 2395   5.194   7.024  11.070  0.0194 -0.6087 -0.0086
  759MOL0     C 2396   5.329   7.055  11.095 -0.2653  0.2794 -0.2907
  759MOL0     C 2397   5.359   7.113  11.232 -0.2015 -0.0837 -0.0213
  759MOL0     H 2398   5.860   6.942  10.801 -1.4906  0.2594  0.5876
  759MOL0     H 2399   6.106   7.017  10.814 -0.0232 -0.4954 -1.4242
  759MOL0     H 2400   6.346   7.363  10.865  0.6104  0.5404 -1.3642
  759MOL0     H 2401   6.187   7.447  10.887 -0.5415 -1.5250  0.1199
  759MOL0     H 2402   6.356   7.300  11.093 -0.0914 -1.6028 -2.3933
  759MOL0     H 2403   6.185   7.351  11.120  1.2496 -0.5284  1.9651
  759MOL0     H 2404   6.243   7.585  11.093 -1.5177 -1.2709 -0.1294
  759MOL0     H 2405   6.408   7.543  11.044  3.0524 -0.6793  2.0414
  759MOL0     H 2406   6.295   7.482  11.320 -0.0886  0.0482 -0.5930
  759MOL0     H 2407   6.469   7.485  11.283  1.6466  0.8474  0.4847
  759MOL0     H 2408   6.395   7.747  11.228  2.0946  0.3033  1.8616
  759MOL0     H 2409   6.263   7.701  11.319  0.7606  4.0673 -1.4717
  759MOL0     H 2410   6.393   7.636  11.504  0.7428 -0.0823 -0.2519
  759MOL0     H 2411   6.549   7.663  11.412  0.2127 -0.4583 -0.8682
  759MOL0     H 2412   6.342   7.885  11.476  0.2678  1.2505 -1.4928
  759MOL0     H 2413   6.496   7.906  11.401  1.9041  1.8776  2.4056
  759MOL0     H 2414   6.474   7.786  11.676 -0.0387 -1.7708 -0.7615
  759MOL0     H 2415   6.626   7.849  11.592 -0.2438  1.2776 -2.2610
  759MOL0     H 2416   6.337   7.969  11.825 -2.6716  0.9055 -1.7311
  759MOL0     H 2417   6.303   8.320  11.842  1.0469  1.9706  1.6160
  759MOL0     H 2418   6.328   8.188  11.960 -2.9556 -0.4269 -2.3109
  759MOL0     H 2419   6.495   8.332  12.054 -3.5120 -1.0977  0.0735
  759MOL0     H 2420   6.591   8.271  11.910  0.2691 -0.3046  0.0362
  759MOL0     H 2421   6.428   8.525  11.917  1.0321  1.2234 -1.0378
  759MOL0     H 2422   6.525   8.471  11.781  2.5731 -0.9235  0.1859
  759MOL0     H 2423   6.653   8.525  12.048  0.0687  0.7413  0.3702
  759MOL0     H 2424   6.645   8.633  11.900  1.1460 -0.0593 -0.5674
  759MOL0     H 2425   6.839   8.618  12.110  0.2598 -0.2880  0.6692
  759MOL0     H 2426   7.051   8.652  12.171 -1.4688 -0.4856 -0.0847
  759MOL0     H 2427   7.493   8.740  12.066 -2.7391  0.7572  1.7255
  759MOL0     H 2428   7.735   8.789  12.143 -0.1367 -0.1122 -0.8769
  759MOL0     H 2429   7.826   8.685  12.569  1.4124 -0.8742  0.9249
  759MOL0     H 2430   7.875   8.536  12.494  0.4351 -0.0135 -0.8971
  759MOL0     H 2431   8.091   8.642  12.404 -2.7704  1.2300 -0.7787
  759MOL0     H 2432   8.056   8.783  12.514 -2.3128 -0.2564  0.8043
  759MOL0     H 2433   8.054   8.655  12.699 -3.5078 -0.0131 -0.9341
  759MOL0     H 2434   8.063   8.500  12.615  0.1747  1.0612 -1.0318
  759MOL0     H 2435   8.284   8.704  12.638  1.9953 -0.6087 -2.3654
  759MOL0     H 2436   8.296   8.542  12.555 -0.6283 -2.0231  0.9449
  759MOL0     H 2437   8.244   8.441  12.770  1.1763  1.0192 -1.4786
  759MOL0     H 2438   8.245   8.587  12.857  1.1291  1.9779 -0.7058
  759MOL0     H 2439   8.477   8.459  12.701 -0.5086 -1.1276  0.8728
  759MOL0     H 2440   8.480   8.629  12.763  1.0526  0.5773  0.9400
  759MOL0     H 2441   8.426   8.394  12.936  0.8176 -1.5455 -2.7810
  759MOL0     H 2442   8.479   8.557  12.994 -1.2393  3.0732 -3.0104
  759MOL0     H 2443   8.638   8.337  12.845 -1.0089  0.0063 -0.7269
  759MOL0     H 2444   8.708   8.491  12.884  2.2096  0.4360  4.2413
  759MOL0     H 2445   7.643   8.541  12.497  0.2939 -0.1307  0.1358
  759MOL0     H 2446   7.417   8.522  12.421 -1.9125  0.5056 -1.2310
  759MOL0     H 2447   7.201   8.368  11.882 -1.9530 -2.1757  0.2365
  759MOL0     H 2448   6.965   8.343  11.809  2.4004 -1.4155 -0.9059
  759MOL0     H 2449   5.996   7.374  11.016  3.9248  0.9393 -1.0784
  759MOL0     H 2450   5.759   7.293  11.024 -1.3126  0.1511 -0.4845
  759MOL0     H 2451   5.455   6.951  10.791 -1.8708 -0.3147 -0.6618
  759MOL0     H 2452   5.235   6.872  10.770 -4.2572  0.0794 -0.3037
  759MOL0     H 2453   5.052   6.773  10.796 -1.0550 -0.8454 -1.7440
  759MOL0     H 2454   4.976   6.923  10.747 -1.5241  1.1389  1.9528
  759MOL0     H 2455   4.822   6.745  10.748  0.3740  1.7770 -0.6217
  759MOL0     H 2456   4.773   6.874  10.856  3.3586  3.1264 -1.0692
  759MOL0     H 2457   4.776   6.736  11.048 -2.0901 -1.7075  0.3302
  759MOL0     H 2458   4.919   6.647  10.989 -0.3629 -1.1132 -0.1774
  759MOL0     H 2459   4.803   6.516  10.871 -0.9859 -0.4124 -0.1261
  759MOL0     H 2460   4.719   6.525  11.019  2.0993  0.0994  0.4136
  759MOL0     H 2461   4.401   6.700  10.804 -0.3491  1.3080 -1.5956
  759MOL0     H 2462   5.121   7.061  11.141  2.0543  1.6993  1.0354
  759MOL0     H 2463   5.269   7.120  11.295 -0.1323 -3.0694  0.5326
  759MOL0     H 2464   5.422   7.039  11.282 -0.4283 -0.2275  0.0531
  759MOL0     H 2465   5.418   7.204  11.218  1.9640 -1.2595  0.9573
  760MOL0     O 2466   9.226   6.271   2.751 -0.1755 -0.0546  0.2278
  760MOL0     C 2467   9.214   6.342   2.651  0.5201  0.4311  0.2059
  760MOL0     O 2468   9.305   6.436   2.602  0.7073  0.2181  0.2353
  760MOL0     C 2469   9.412   6.465   2.679  0.1229 -0.0123  0.9947
  760MOL0     C 2470   9.421   6.577   2.762 -0.2217 -0.4673 -0.8648
  760MOL0     C 2471   9.532   6.602   2.839  0.9196  0.2851  0.0726
  760MOL0     C 2472   9.643   6.511   2.847  0.3573  0.8544 -0.3860
  760MOL0     O 2473   9.754   6.524   2.931 -0.1465 -0.2452 -0.0616
  760MOL0     C 2474   9.756   6.650   2.995  0.6137 -0.4093 -0.3626
  760MOL0     C 2475   9.904   6.660   3.037 -0.2189  0.9118 -0.4967
  760MOL0     C 2476   9.949   6.790   3.090  0.3226  0.1879  0.3540
  760MOL0     C 2477  10.099   6.797   3.080  0.7628 -0.0278 -0.3340
  760MOL0     C 2478  10.145   6.919   3.157 -0.3009 -0.4597  0.8348
  760MOL0     C 2479  10.299   6.928   3.141  0.5064 -0.1701  0.2733
  760MOL0     C 2480  10.347   7.062   3.189 -0.3062  0.0607 -0.1904
  760MOL0     C 2481  10.488   7.091   3.149  0.8887 -1.0592 -0.4326
  760MOL0     N 2482  10.535   7.226   3.169 -0.9175 -0.0902  0.1337
  760MOL0     C 2483  10.577   7.292   3.283 -0.2191 -0.0851  0.1032
  760MOL0     C 2484  10.611   7.423   3.243 -0.5250  0.3804 -0.9682
  760MOL0     C 2485  10.653   7.546   3.325 -0.5003  0.5894 -1.0045
  760MOL0     C 2486  10.806   7.533   3.340 -0.7785  0.1728  0.1813
  760MOL0     C 2487  10.864   7.645   3.416 -0.0590  0.7538 -0.0675
  760MOL0     C 2488  11.015   7.628   3.449  0.1581 -0.5919  0.5511
  760MOL0     O 2489  11.091   7.614   3.329 -0.1346  0.0271  0.7991
  760MOL0     C 2490  11.228   7.635   3.341  0.3397 -0.1028 -0.5970
  760MOL0     C 2491  11.299   7.648   3.464 -0.3944  0.0122  0.2431
  760MOL0     C 2492  11.437   7.674   3.472  0.4925  0.8533  0.1961
  760MOL0     C 2493  11.519   7.685   3.361  0.2512 -0.1121  1.1391
  760MOL0     C 2494  11.660   7.729   3.355  0.1172  0.6009  0.7207
  760MOL0     O 2495  11.718   7.741   3.478  0.2728 -0.4368 -0.9577
  760MOL0     C 2496  11.843   7.782   3.507  0.1583 -0.5833  0.0584
  760MOL0     C 2497  11.953   7.798   3.418  1.2370  0.0540 -1.0750
  760MOL0     C 2498  12.069   7.856   3.467  0.1617  0.2800 -0.4698
  760MOL0     C 2499  12.084   7.891   3.602 -0.0367  0.0965 -0.2320
  760MOL0     O 2500  12.207   7.937   3.665  0.4173  0.3368 -0.7847
  760MOL0     C 2501  12.327   7.926   3.591 -1.3561 -0.1051 -0.6637
  760MOL0     C 2502  12.439   7.924   3.696 -0.0773 -1.3951 -0.3543
  760MOL0     C 2503  12.470   8.069   3.749  1.0127 -0.2474  0.2164
  760MOL0     C 2504  12.566   8.078   3.873 -0.2556  0.3169 -0.1765
  760MOL0     C 2505  12.589   8.223   3.912  0.3662  0.0574  0.2678
  760MOL0     C 2506  12.701   8.222   4.016  0.5532 -0.2610  0.0699
  760MOL0     C 2507  12.665   8.145   4.149 -0.0088 -0.5885 -0.9815
  760MOL0     C 2508  12.555   8.219   4.237 -0.5654 -0.3249 -0.3500
  760MOL0    Cl 2509  12.515   8.112   4.376  0.0638  0.3141 -0.0905
  760MOL0     C 2510  11.969   7.883   3.687  0.3279 -0.6086 -0.2611
  760MOL0     C 2511  11.853   7.819   3.638 -0.1957  0.6909 -0.9225
  760MOL0     O 2512  11.716   7.753   3.249  0.5924 -0.3006  0.2597
  760MOL0     C 2513  11.454   7.662   3.242  0.2518  0.1594 -0.3336
  760MOL0     C 2514  11.314   7.640   3.231  0.0651 -0.2266  0.1385
  760MOL0     N 2515  10.601   7.420   3.106  1.2604 -0.0493  0.0712
  760MOL0     N 2516  10.552   7.309   3.061  0.1025 -0.5700 -0.4197
  760MOL0     C 2517   9.635   6.391   2.769 -0.3026  1.3922 -0.1676
  760MOL0     C 2518   9.522   6.376   2.684 -0.2864  0.5726 -0.0962
  760MOL0     C 2519   9.072   6.349   2.591 -0.2581 -0.4592 -0.6178
  760MOL0     C 2520   8.974   6.283   2.660  0.0658 -0.3960  0.4996
  760MOL0     C 2521   8.836   6.289   2.613 -0.0498 -0.1005 -0.5622
  760MOL0     C 2522   8.795   6.344   2.493  0.2271 -0.6282  0.6429
  760MOL0     O 2523   8.664   6.353   2.444 -0.6783 -0.1703  0.4318
  760MOL0     C 2524   8.571   6.255   2.494 -1.0715  0.2621 -0.1471
  760MOL0     C 2525   8.481   6.306   2.607  0.7380 -0.5338  0.3873
  760MOL0     C 2526   8.381   6.211   2.674  0.2041  0.1895 -0.0401
  760MOL0     C 2527   8.263   6.277   2.753  0.4117 -0.0290 -0.5037
  760MOL0     C 2528   8.162   6.355   2.672  0.2938 -0.1509  0.0757
  760MOL0     C 2529   8.078   6.415   2.621 -0.1673 -0.5837 -0.0254
  760MOL0     C 2530   8.897   6.411   2.430  0.4288  0.5255  0.2806
  760MOL0     C 2531   9.029   6.432   2.485  0.6489  0.8350  0.0829
  760MOL0     C 2532   9.112   6.540   2.441  0.6881 -0.3261  0.5839
  760MOL0     H 2533   9.342   6.651   2.766  0.3457  0.1763 -1.4422
  760MOL0     H 2534   9.526   6.679   2.915  1.5204 -1.7513  2.3080
  760MOL0     H 2535   9.735   6.736   2.932 -1.9100  0.8977  2.0431
  760MOL0     H 2536   9.685   6.644   3.077  2.8942 -0.9243  1.6988
  760MOL0     H 2537   9.963   6.626   2.951 -1.6124  1.1686 -1.6059
  760MOL0     H 2538   9.924   6.575   3.103  1.8353  0.7224 -1.2916
  760MOL0     H 2539   9.921   6.784   3.195 -1.4394 -1.9860 -0.1495
  760MOL0     H 2540   9.909   6.882   3.046  0.1545 -0.9387 -2.0292
  760MOL0     H 2541  10.149   6.707   3.117 -1.7358 -2.9859 -3.4557
  760MOL0     H 2542  10.134   6.812   2.977 -1.7827  0.5851 -1.1748
  760MOL0     H 2543  10.088   7.009   3.132 -0.5427  0.7045  4.8536
  760MOL0     H 2544  10.131   6.897   3.263  1.7896  0.1731  1.2922
  760MOL0     H 2545  10.343   6.855   3.209 -1.4600 -0.4858  1.2911
  760MOL0     H 2546  10.323   6.918   3.035 -1.9623 -0.4891 -0.3161
  760MOL0     H 2547  10.348   7.072   3.298  1.3627 -0.2772 -0.1364
  760MOL0     H 2548  10.290   7.143   3.142  2.0360  1.5031 -0.7176
  760MOL0     H 2549  10.544   7.017   3.207  1.8878  2.3653  3.4623
  760MOL0     H 2550  10.498   7.078   3.041  1.9451 -3.2405 -0.1209
  760MOL0     H 2551  10.576   7.252   3.384 -1.5090  2.8349  1.3447
  760MOL0     H 2552  10.618   7.637   3.275  0.0489  1.3791  0.0238
  760MOL0     H 2553  10.612   7.554   3.426  2.1838  3.1756  0.0068
  760MOL0     H 2554  10.821   7.432   3.380 -1.3694 -0.6969 -1.6521
  760MOL0     H 2555  10.854   7.537   3.242  0.1730  0.3140  0.6520
  760MOL0     H 2556  10.802   7.679   3.499 -1.0067 -0.9603 -0.0240
  760MOL0     H 2557  10.861   7.730   3.347 -3.0214  0.3374 -0.5843
  760MOL0     H 2558  11.042   7.550   3.522  0.6127  1.3624  2.5798
  760MOL0     H 2559  11.051   7.723   3.489  1.4846 -1.0963  0.6135
  760MOL0     H 2560  11.243   7.636   3.556 -1.4024 -1.3827 -0.5262
  760MOL0     H 2561  11.470   7.685   3.575 -2.0909 -0.7545  1.2994
  760MOL0     H 2562  11.946   7.780   3.311  1.0676 -0.8080 -0.9293
  760MOL0     H 2563  12.150   7.866   3.396 -0.2585  1.0823 -0.8601
  760MOL0     H 2564  12.327   7.831   3.538 -0.3408 -1.7377  2.0317
  760MOL0     H 2565  12.347   8.010   3.524  3.4476 -1.7868 -1.7434
  760MOL0     H 2566  12.412   7.852   3.774 -1.7752  0.4925  0.9064
  760MOL0     H 2567  12.527   7.880   3.648 -0.5356 -1.1394 -1.4554
  760MOL0     H 2568  12.516   8.128   3.670  1.2641  0.4246  0.8544
  760MOL0     H 2569  12.378   8.122   3.773  1.2030  0.3747 -0.4111
  760MOL0     H 2570  12.662   8.026   3.864 -0.2732  0.2624 -0.0488
  760MOL0     H 2571  12.518   8.012   3.945 -1.0271 -0.3016 -1.2359
  760MOL0     H 2572  12.494   8.250   3.960 -0.9859 -5.2300  1.1590
  760MOL0     H 2573  12.615   8.276   3.820  0.0573 -0.4265 -0.0970
  760MOL0     H 2574  12.795   8.181   3.978  0.2959 -1.3042  0.5314
  760MOL0     H 2575  12.718   8.326   4.046  1.4774 -0.2262 -0.5241
  760MOL0     H 2576  12.758   8.123   4.204  2.0394  3.5643 -2.3625
  760MOL0     H 2577  12.617   8.047   4.142 -2.6144  0.0841  3.8167
  760MOL0     H 2578  12.586   8.316   4.279  0.4729 -0.6855 -0.2574
  760MOL0     H 2579  12.472   8.239   4.170  0.6693 -1.3563 -2.2605
  760MOL0     H 2580  11.978   7.906   3.792 -0.7359 -0.5591 -0.1691
  760MOL0     H 2581  11.770   7.806   3.708 -1.6633 -0.9868 -2.8599
  760MOL0     H 2582  11.502   7.685   3.147  0.2234  3.9027  0.4193
  760MOL0     H 2583  11.281   7.639   3.128  2.8046  0.6388 -0.8181
  760MOL0     H 2584   9.717   6.322   2.788 -1.8210 -0.0246  1.5169
  760MOL0     H 2585   9.499   6.291   2.620  1.3141  0.9384 -1.2127
  760MOL0     H 2586   9.002   6.212   2.737 -0.8801 -1.8704 -0.4695
  760MOL0     H 2587   8.763   6.231   2.669  2.8657 -1.8253  1.7569
  760MOL0     H 2588   8.617   6.165   2.534  1.1268  2.4302  2.6533
  760MOL0     H 2589   8.507   6.232   2.409  2.2944  0.1016 -2.8703
  760MOL0     H 2590   8.419   6.391   2.574 -0.1159 -0.2991  2.4744
  760MOL0     H 2591   8.540   6.357   2.683 -2.1909  3.2379  0.4588
  760MOL0     H 2592   8.435   6.151   2.748 -0.5338  0.2811  0.5933
  760MOL0     H 2593   8.335   6.157   2.591 -1.7158  1.2375  0.2822
  760MOL0     H 2594   8.207   6.193   2.796 -3.2754  2.2589 -0.4085
  760MOL0     H 2595   8.310   6.328   2.838 -1.6682 -1.5245  1.6565
  760MOL0     H 2596   8.002   6.472   2.571 -0.1857 -1.6606 -1.2896
  760MOL0     H 2597   8.884   6.455   2.332  2.2193 -1.3005 -0.8342
  760MOL0     H 2598   9.059   6.608   2.374  0.9664  0.1914  0.8817
  760MOL0     H 2599   9.133   6.604   2.528 -2.8093 -1.3657  2.3868
  760MOL0     H 2600   9.194   6.497   2.382 -0.8262  1.4011 -3.0461
  761MOL0     O 2601   6.441  11.007   9.250 -0.0643 -0.3915  0.0635
  761MOL0     C 2602   6.347  11.062   9.310 -0.3980  0.0431 -0.0905
  761MOL0     O 2603   6.365  11.167   9.400  0.6607 -0.5488  0.5166
  761MOL0     C 2604   6.490  11.210   9.454 -0.0409 -0.2657 -0.1341
  761MOL0     C 2605   6.616  11.156   9.444 -0.1211  0.6447  0.2493
  761MOL0     C 2606   6.719  11.207   9.514 -0.5258  0.0619  0.2599
  761MOL0     C 2607   6.705  11.328   9.581 -0.5771  0.4050  0.2045
  761MOL0     O 2608   6.807  11.384   9.655  0.5249  0.3672  0.6981
  761MOL0     C 2609   6.944  11.365   9.618  0.8244  0.6547 -0.2951
  761MOL0     C 2610   6.954  11.430   9.476 -0.1509 -0.0613 -0.3318
  761MOL0     C 2611   7.101  11.437   9.427  0.0137  0.2232  0.2629
  761MOL0     C 2612   7.169  11.303   9.423  0.9335  0.1775  0.0701
  761MOL0     C 2613   7.111  11.212   9.306 -0.3824  0.4099 -0.3342
  761MOL0     C 2614   7.137  11.053   9.328 -0.2361 -0.0278  0.1520
  761MOL0     C 2615   7.034  10.951   9.264 -0.1482 -0.2375  0.2461
  761MOL0     C 2616   6.981  10.999   9.128 -0.1470  0.1629 -0.3367
  761MOL0     N 2617   6.889  10.895   9.078  1.0449  0.1107 -0.2014
  761MOL0     C 2618   6.755  10.891   9.110  0.3617 -0.6511 -0.3763
  761MOL0     C 2619   6.704  10.777   9.056 -0.1980  0.4807  0.6014
  761MOL0     C 2620   6.569  10.715   9.075  0.6702  0.8945  0.2180
  761MOL0     C 2621   6.565  10.595   9.172 -0.4608  0.2202 -0.1178
  761MOL0     C 2622   6.449  10.495   9.168 -0.0738  0.9295  0.1428
  761MOL0     C 2623   6.317  10.561   9.214  0.3949  1.0397  0.4930
  761MOL0     O 2624   6.229  10.442   9.248  0.6386  0.0517  0.1951
  761MOL0     C 2625   6.102  10.466   9.286 -0.7972 -0.6512  1.1391
  761MOL0     C 2626   6.011  10.363   9.289 -0.2092 -0.2005  0.2791
  761MOL0     C 2627   5.880  10.371   9.318  0.6609  0.1730 -0.1119
  761MOL0     C 2628   5.825  10.494   9.345  1.0405 -0.3663 -0.5471
  761MOL0     C 2629   5.678  10.510   9.381 -0.0732 -0.0055  0.1452
  761MOL0     O 2630   5.605  10.397   9.383  0.1416 -0.0570 -0.0754
  761MOL0     C 2631   5.465  10.407   9.393  0.9090 -0.4750 -0.6627
  761MOL0     C 2632   5.394  10.464   9.504  0.7397  0.1988 -0.6794
  761MOL0     C 2633   5.253  10.476   9.507  0.0594  0.3125  0.0753
  761MOL0     C 2634   5.178  10.426   9.398 -0.7621  0.5173  0.1226
  761MOL0     O 2635   5.044  10.425   9.400 -0.5146  0.0622 -0.2835
  761MOL0     C 2636   4.967  10.329   9.319  0.9808 -0.3375  0.0252
  761MOL0     C 2637   4.828  10.323   9.377  0.2994  0.2620 -0.1738
  761MOL0     C 2638   4.732  10.229   9.294  0.3071  0.3619 -0.1828
  761MOL0     C 2639   4.590  10.245   9.341  0.1295  0.3591  0.8141
  761MOL0     C 2640   4.505  10.135   9.264  0.0829 -0.1079  0.3365
  761MOL0     C 2641   4.352  10.156   9.289 -0.4419 -0.1034 -0.0949
  761MOL0     C 2642   4.253  10.045   9.254 -0.3124 -0.6495 -0.5559
  761MOL0     C 2643   4.281   9.922   9.349  0.6519  0.6029 -0.2850
  761MOL0    Cl 2644   4.125   9.843   9.375  0.0970 -0.4967 -0.2935
  761MOL0     C 2645   5.244  10.367   9.282  0.0501  0.3306  0.2749
  761MOL0     C 2646   5.388  10.363   9.285  0.0466 -1.0047  1.3230
  761MOL0     O 2647   5.638  10.623   9.407 -0.0520  0.2497  1.2919
  761MOL0     C 2648   5.905  10.607   9.340  0.6783  0.1272 -0.5856
  761MOL0     C 2649   6.041  10.595   9.313  0.1499 -0.4035 -0.0542
  761MOL0     N 2650   6.804  10.723   8.977  0.1528  0.4079 -0.0314
  761MOL0     N 2651   6.912  10.802   8.979 -0.2801 -0.3699 -0.2391
  761MOL0     C 2652   6.581  11.383   9.590  0.1166 -0.1810 -0.3689
  761MOL0     C 2653   6.472  11.325   9.529  0.7740  0.2028 -0.4434
  761MOL0     C 2654   6.209  11.023   9.262 -0.3456 -0.4887  0.6066
  761MOL0     C 2655   6.210  10.937   9.147  0.1427 -0.4380 -0.3714
  761MOL0     C 2656   6.084  10.891   9.100 -0.8383  0.6525  0.0422
  761MOL0     C 2657   5.964  10.928   9.152 -0.0213 -0.4359  0.0518
  761MOL0     O 2658   5.852  10.887   9.091  0.2421  0.6083  0.7071
  761MOL0     C 2659   5.732  10.971   9.104 -0.2012 -0.9301 -0.6424
  761MOL0     C 2660   5.631  10.894   9.205 -0.4279  0.3041  0.7188
  761MOL0     C 2661   5.520  10.987   9.255  0.5460 -0.0632  0.6197
  761MOL0     C 2662   5.390  10.900   9.278 -0.5980  0.1759  0.0532
  761MOL0     C 2663   5.271  10.980   9.282 -0.0102  0.3436 -0.4117
  761MOL0     C 2664   5.170  11.049   9.310 -0.8559  0.0610 -0.1255
  761MOL0     C 2665   5.965  11.020   9.266 -0.8481  0.4007  1.2027
  761MOL0     C 2666   6.090  11.058   9.316 -0.3205 -0.8354  0.3959
  761MOL0     C 2667   6.089  11.180   9.416 -0.2192 -0.2496  0.3963
  761MOL0     H 2668   6.639  11.076   9.375  3.3968  1.5021  0.2740
  761MOL0     H 2669   6.816  11.166   9.489 -2.6366 -3.4950 -3.1293
  761MOL0     H 2670   7.013  11.410   9.690  2.5657 -0.7608 -1.0066
  761MOL0     H 2671   6.966  11.259   9.634 -0.3271  0.4575  0.0799
  761MOL0     H 2672   6.913  11.531   9.487 -3.0070 -1.1708  0.1346
  761MOL0     H 2673   6.895  11.383   9.397 -0.8864  0.3753 -0.0533
  761MOL0     H 2674   7.160  11.501   9.493  0.9932  3.2383 -3.2016
  761MOL0     H 2675   7.117  11.487   9.332  0.2358 -1.8616 -0.8534
  761MOL0     H 2676   7.276  11.321   9.414  1.4671 -1.5727  2.2583
  761MOL0     H 2677   7.146  11.250   9.516 -0.0764  0.4531 -0.0033
  761MOL0     H 2678   7.002  11.216   9.299 -0.7535 -0.9483  2.7832
  761MOL0     H 2679   7.160  11.245   9.215  0.3016  1.6561  0.4679
  761MOL0     H 2680   7.230  11.023   9.278  0.4615  3.1544 -0.7546
  761MOL0     H 2681   7.133  11.043   9.436  0.5633 -2.2291  0.0140
  761MOL0     H 2682   6.952  10.943   9.336 -0.2609  1.5969  0.3941
  761MOL0     H 2683   7.090  10.858   9.253  0.0566 -0.3434  2.0142
  761MOL0     H 2684   6.917  11.088   9.134 -1.0557 -0.3897 -1.4282
  761MOL0     H 2685   7.061  11.021   9.057 -0.7432 -1.2124 -1.4785
  761MOL0     H 2686   6.701  10.960   9.173 -1.5318 -1.9701 -0.4943
  761MOL0     H 2687   6.491  10.786   9.105  1.5906  2.1571 -0.2302
  761MOL0     H 2688   6.538  10.701   8.971  0.5344  1.9868  0.0983
  761MOL0     H 2689   6.656  10.535   9.166  1.2295  2.6199 -0.1621
  761MOL0     H 2690   6.563  10.634   9.275 -2.8305 -3.2465  1.3660
  761MOL0     H 2691   6.482  10.404   9.220  1.1560  0.8000 -0.8296
  761MOL0     H 2692   6.434  10.460   9.065  1.6629  2.1579 -0.5683
  761MOL0     H 2693   6.280  10.622   9.132 -2.1693  0.8661  1.4466
  761MOL0     H 2694   6.333  10.623   9.303 -0.0055  2.1309 -0.1777
  761MOL0     H 2695   6.049  10.274   9.239 -1.3126  0.7860 -2.5065
  761MOL0     H 2696   5.809  10.292   9.297 -0.6833  2.0457 -3.1669
  761MOL0     H 2697   5.457  10.502   9.584  2.2631 -1.0276 -1.2366
  761MOL0     H 2698   5.192  10.505   9.592  1.3784 -2.4788  2.1533
  761MOL0     H 2699   4.960  10.364   9.215 -0.2247 -1.2443 -0.2231
  761MOL0     H 2700   5.021  10.235   9.328 -0.0805 -0.8320  1.7777
  761MOL0     H 2701   4.838  10.308   9.484 -0.4697 -1.7366 -0.3516
  761MOL0     H 2702   4.796  10.428   9.367  1.8493  0.7042 -0.8172
  761MOL0     H 2703   4.735  10.247   9.186  1.8225  3.7219  0.2643
  761MOL0     H 2704   4.756  10.123   9.306 -1.2161  0.2016  2.0542
  761MOL0     H 2705   4.551  10.345   9.321  2.4782  1.1767 -0.0126
  761MOL0     H 2706   4.582  10.223   9.448  0.4086 -0.2983  0.7032
  761MOL0     H 2707   4.533  10.039   9.309  2.7123  0.9069  1.0552
  761MOL0     H 2708   4.530  10.135   9.157 -1.3786  1.7178 -0.0628
  761MOL0     H 2709   4.345  10.166   9.397 -0.4022 -2.5690  0.1778
  761MOL0     H 2710   4.326  10.246   9.232  0.4760 -0.5026 -1.1783
  761MOL0     H 2711   4.252  10.005   9.152  1.1146 -0.3854 -0.6939
  761MOL0     H 2712   4.155  10.087   9.279  1.1516  2.4615  0.4558
  761MOL0     H 2713   4.352   9.849   9.309 -3.2164 -2.3729 -2.4668
  761MOL0     H 2714   4.311   9.955   9.449  2.9922 -0.9780 -0.3887
  761MOL0     H 2715   5.196  10.328   9.193  0.7740  0.7726 -0.3287
  761MOL0     H 2716   5.453  10.341   9.201  1.0905 -0.8613  2.0874
  761MOL0     H 2717   5.863  10.704   9.365  0.9155 -0.0829  0.6955
  761MOL0     H 2718   6.097  10.688   9.318 -0.4382 -0.1019  4.3143
  761MOL0     H 2719   6.580  11.473   9.651  2.2307 -1.9605  2.6171
  761MOL0     H 2720   6.373  11.366   9.547  0.0587 -1.0723 -1.2928
  761MOL0     H 2721   6.298  10.905   9.091  0.5431  2.3654 -1.5088
  761MOL0     H 2722   6.077  10.820   9.018 -0.2372  2.3714 -1.5503
  761MOL0     H 2723   5.695  10.992   9.004  0.7339  0.1813 -0.7798
  761MOL0     H 2724   5.761  11.066   9.150 -0.4613 -2.5347  3.1899
  761MOL0     H 2725   5.683  10.844   9.286  2.2093  1.5039 -0.1140
  761MOL0     H 2726   5.582  10.817   9.145  1.9771  1.3861 -2.9844
  761MOL0     H 2727   5.490  11.071   9.191  2.0216 -0.4058 -0.5756
  761MOL0     H 2728   5.565  11.035   9.343  2.2607  0.9719 -0.7585
  761MOL0     H 2729   5.374  10.834   9.192 -0.5590 -0.5589  0.5981
  761MOL0     H 2730   5.400  10.834   9.365  2.2349 -1.1527 -1.1444
  761MOL0     H 2731   5.079  11.096   9.341 -4.3247 -2.0853 -5.4839
  761MOL0     H 2732   5.874  11.060   9.308 -0.2792  2.7844  0.3223
  761MOL0     H 2733   6.144  11.268   9.383 -0.4170  0.6338  2.2735
  761MOL0     H 2734   5.986  11.215   9.431  0.3739  1.4646  0.6105
  761MOL0     H 2735   6.129  11.145   9.512 -0.9014 -0.3724  0.6421
  762MOL0     O 2736   3.760   1.440  11.070 -0.0098 -0.6403  0.5730
  762MOL0     C 2737   3.722   1.344  11.009  0.5166  0.0239  0.7266
  762MOL0     O 2738   3.793   1.269  10.921 -0.6431  1.0860  0.0760
  762MOL0     C 2739   3.919   1.318  10.874  0.1853 -0.0774  0.4802
  762MOL0     C 2740   3.917   1.418  10.782  0.0773 -0.1174  0.4114
  762MOL0     C 2741   4.039   1.471  10.736 -0.2715  0.0871  0.3892
  762MOL0     C 2742   4.166   1.401  10.758  0.3335  0.0603  0.6004
  762MOL0     O 2743   4.288   1.451  10.714  0.6782 -0.2747 -0.9339
  762MOL0     C 2744   4.407   1.431  10.799 -0.0168  0.0863  0.9764
  762MOL0     C 2745   4.500   1.548  10.760 -0.0138 -0.5666 -0.0331
  762MOL0     C 2746   4.446   1.681  10.810 -0.2844  0.0381  0.4732
  762MOL0     C 2747   4.552   1.793  10.804  0.7527  0.0351  0.1980
  762MOL0     C 2748   4.503   1.930  10.871  0.2726  0.8908  0.1589
  762MOL0     C 2749   4.504   1.922  11.024 -0.1952 -0.5968  0.8342
  762MOL0     C 2750   4.649   1.907  11.074 -0.2354 -0.5609 -0.2426
  762MOL0     C 2751   4.634   1.891  11.229 -0.0741 -0.9962  0.4611
  762MOL0     N 2752   4.747   1.948  11.304  0.6966  0.4827  0.2563
  762MOL0     C 2753   4.731   1.993  11.430 -0.9273 -0.4601  0.1692
  762MOL0     C 2754   4.861   2.016  11.476 -0.5427 -0.7031 -0.6483
  762MOL0     C 2755   4.905   2.068  11.612  0.0365  0.1259  0.0404
  762MOL0     C 2756   5.022   2.004  11.679 -0.0151 -0.5193 -0.1056
  762MOL0     C 2757   5.142   2.101  11.698 -0.6769 -0.1061  0.4081
  762MOL0     C 2758   5.291   2.033  11.696  0.0121  0.2196 -0.6514
  762MOL0     O 2759   5.301   1.911  11.610 -0.1364 -0.1992 -0.7921
  762MOL0     C 2760   5.428   1.873  11.582 -0.1562 -0.1525 -0.8309
  762MOL0     C 2761   5.438   1.779  11.477 -0.1302 -0.6440 -0.6104
  762MOL0     C 2762   5.565   1.745  11.427 -0.1047 -0.0257  1.0399
  762MOL0     C 2763   5.686   1.797  11.478  0.4948  0.6980 -0.5317
  762MOL0     C 2764   5.820   1.763  11.430  0.2059  0.8230  0.5126
  762MOL0     O 2765   5.917   1.849  11.461  0.4176  0.5856 -0.0015
  762MOL0     C 2766   6.046   1.804  11.459 -0.1448 -0.1515 -0.0078
  762MOL0     C 2767   6.092   1.672  11.450  0.1448 -0.4539  1.4513
  762MOL0     C 2768   6.224   1.649  11.440 -1.0379  0.9035  1.0530
  762MOL0     C 2769   6.316   1.753  11.429 -0.4365  0.6238 -0.4322
  762MOL0     O 2770   6.449   1.726  11.415 -0.3153 -0.0709 -0.1862
  762MOL0     C 2771   6.507   1.729  11.288 -0.5153 -0.7876 -0.4908
  762MOL0     C 2772   6.494   1.589  11.220  0.5617 -0.0415  0.0561
  762MOL0     C 2773   6.569   1.475  11.296 -0.0026  0.3563  0.4731
  762MOL0     C 2774   6.714   1.453  11.259  0.0346  0.2872  0.4373
  762MOL0     C 2775   6.768   1.323  11.326 -0.7157  0.6492 -0.1094
  762MOL0     C 2776   6.907   1.308  11.271  0.4044  0.8729  0.0355
  762MOL0     C 2777   6.995   1.204  11.332  0.4230 -0.0989 -0.2266
  762MOL0     C 2778   7.124   1.186  11.258 -0.0039  0.0063  0.1579
  762MOL0    Cl 2779   7.244   1.318  11.304  0.0174 -0.2662  0.1413
  762MOL0     C 2780   6.279   1.885  11.461  0.1422  0.4673 -0.2037
  762MOL0     C 2781   6.138   1.917  11.475 -0.1842  1.3094  0.8456
  762MOL0     O 2782   5.832   1.668  11.355 -0.6539 -0.5559  0.6823
  762MOL0     C 2783   5.673   1.895  11.581 -0.0019  0.3185  0.0165
  762MOL0     C 2784   5.547   1.934  11.631  0.1729  0.3358 -0.1700
  762MOL0     N 2785   4.941   1.985  11.373  0.1671  0.4713  0.0806
  762MOL0     N 2786   4.877   1.935  11.274  0.0949 -0.6227  0.6992
  762MOL0     C 2787   4.156   1.297  10.845 -0.7751  0.7393 -0.8479
  762MOL0     C 2788   4.039   1.261  10.909 -0.0290 -0.2256 -0.7619
  762MOL0     C 2789   3.572   1.334  11.009 -0.5668 -0.0781 -0.2025
  762MOL0     C 2790   3.508   1.373  11.137  0.2999 -0.6133  0.6142
  762MOL0     C 2791   3.379   1.330  11.174  0.0075 -0.7530 -0.4651
  762MOL0     C 2792   3.300   1.265  11.075 -0.7600 -0.3596  0.4001
  762MOL0     O 2793   3.167   1.234  11.091  0.3258 -0.1146  0.4813
  762MOL0     C 2794   3.078   1.309  11.178  0.1765 -0.8448 -0.5690
  762MOL0     C 2795   3.066   1.464  11.150  0.6089  0.9687  1.0315
  762MOL0     C 2796   3.050   1.535  11.285  0.2677  0.0462  1.2428
  762MOL0     C 2797   3.091   1.686  11.273  0.2756 -0.4782 -0.3367
  762MOL0     C 2798   3.006   1.753  11.171 -1.1773 -0.0544  0.2621
  762MOL0     C 2799   2.946   1.810  11.083  0.3314  0.0709  0.6961
  762MOL0     C 2800   3.362   1.241  10.950  0.3261 -0.6358 -0.4450
  762MOL0     C 2801   3.492   1.272  10.915  0.0843  0.7740 -0.5890
  762MOL0     C 2802   3.532   1.230  10.778 -0.0427  0.6658  0.4715
  762MOL0     H 2803   3.829   1.475  10.754 -1.0466 -2.6921 -1.6580
  762MOL0     H 2804   4.032   1.562  10.678  0.8467  0.7420  1.2484
  762MOL0     H 2805   4.394   1.433  10.908 -1.0471  3.0051  0.8818
  762MOL0     H 2806   4.446   1.332  10.773 -1.4214 -0.7844  2.0107
  762MOL0     H 2807   4.502   1.553  10.650  0.9081  0.4146  0.0084
  762MOL0     H 2808   4.598   1.536  10.805  0.7203 -1.3917 -1.7664
  762MOL0     H 2809   4.416   1.669  10.915  0.8833  1.7651  1.0530
  762MOL0     H 2810   4.357   1.723  10.763  1.3542  3.7666  0.2879
  762MOL0     H 2811   4.651   1.761  10.836  0.1183 -1.2728  0.9483
  762MOL0     H 2812   4.561   1.822  10.698  0.1578  4.4708  1.1512
  762MOL0     H 2813   4.563   2.009  10.826 -1.3590  0.9665 -2.0464
  762MOL0     H 2814   4.398   1.950  10.845  0.3913  0.8345 -0.3755
  762MOL0     H 2815   4.454   2.009  11.069  3.6929  2.3446 -0.0256
  762MOL0     H 2816   4.442   1.835  11.049  1.4921 -1.9922  0.3275
  762MOL0     H 2817   4.701   2.000  11.050 -3.2481  0.5310 -3.3025
  762MOL0     H 2818   4.711   1.826  11.033  0.1679 -0.4773  0.1981
  762MOL0     H 2819   4.551   1.949  11.271  1.7680 -1.1012  4.7463
  762MOL0     H 2820   4.615   1.786  11.252 -0.3963 -1.4840 -1.7790
  762MOL0     H 2821   4.635   2.018  11.474 -0.3283  1.0470  0.6705
  762MOL0     H 2822   4.928   2.175  11.610  1.9536 -0.1405  2.8659
  762MOL0     H 2823   4.818   2.055  11.677  0.1755  2.2962  0.7295
  762MOL0     H 2824   4.982   1.988  11.779 -1.4532  0.1024 -0.5521
  762MOL0     H 2825   5.054   1.912  11.629  0.0424  0.8291 -2.7350
  762MOL0     H 2826   5.123   2.171  11.780  0.5431 -0.4392  1.0019
  762MOL0     H 2827   5.140   2.142  11.597  0.5283  2.3158  1.2659
  762MOL0     H 2828   5.317   2.005  11.798 -0.8235  0.0998 -0.4640
  762MOL0     H 2829   5.364   2.106  11.660  0.3171 -0.9395 -2.5329
  762MOL0     H 2830   5.351   1.738  11.427  0.5697  2.4386 -4.9342
  762MOL0     H 2831   5.571   1.665  11.354 -1.1630  2.2896 -1.7910
  762MOL0     H 2832   6.028   1.584  11.451  0.2442 -0.6203 -0.9405
  762MOL0     H 2833   6.264   1.549  11.423  1.4821  2.1540 -1.2299
  762MOL0     H 2834   6.468   1.815  11.233 -0.4474  0.8128  1.8136
  762MOL0     H 2835   6.611   1.747  11.318 -0.2260  2.8877 -2.9823
  762MOL0     H 2836   6.390   1.556  11.227  0.6186 -0.5208 -1.1367
  762MOL0     H 2837   6.521   1.600  11.114  1.2366 -2.1202 -0.0398
  762MOL0     H 2838   6.583   1.517  11.396  2.2364  0.8325 -0.0027
  762MOL0     H 2839   6.499   1.391  11.285  1.3832 -0.6216 -1.6287
  762MOL0     H 2840   6.761   1.544  11.297  1.1809 -0.3642  0.6202
  762MOL0     H 2841   6.725   1.449  11.150  1.2468  1.0618  0.5142
  762MOL0     H 2842   6.702   1.238  11.305 -5.3809  2.7574  3.9866
  762MOL0     H 2843   6.780   1.335  11.434 -1.3636 -0.4732  0.0995
  762MOL0     H 2844   6.893   1.287  11.164 -3.5605  0.5651  0.4778
  762MOL0     H 2845   6.955   1.405  11.284 -0.5433  1.3858 -0.1660
  762MOL0     H 2846   6.937   1.111  11.340  2.8574 -1.6606  0.0918
  762MOL0     H 2847   7.028   1.229  11.432 -1.7253 -2.1000  1.1046
  762MOL0     H 2848   7.153   1.085  11.288  1.3929  0.4111  0.2672
  762MOL0     H 2849   7.108   1.189  11.150 -0.4404 -0.8460  0.1885
  762MOL0     H 2850   6.348   1.968  11.476 -2.2710  2.1190  3.0265
  762MOL0     H 2851   6.100   2.018  11.486  0.4541  1.3720  2.9043
  762MOL0     H 2852   5.761   1.938  11.627  0.3918 -0.9467  0.5114
  762MOL0     H 2853   5.550   2.010  11.708 -1.2057  0.3269 -0.0942
  762MOL0     H 2854   4.246   1.237  10.856 -1.6110 -0.3022  0.8452
  762MOL0     H 2855   4.044   1.169  10.968  0.4343 -0.4950 -1.2157
  762MOL0     H 2856   3.580   1.414  11.207  1.3898  0.7695 -1.2190
  762MOL0     H 2857   3.347   1.341  11.277  3.3317 -0.3087  0.6265
  762MOL0     H 2858   3.118   1.295  11.279 -1.7339 -1.6172  0.1267
  762MOL0     H 2859   2.979   1.264  11.168 -0.0913 -0.1842 -0.9289
  762MOL0     H 2860   2.984   1.491  11.083  0.7783  1.0396  0.8522
  762MOL0     H 2861   3.159   1.480  11.095 -0.3786 -3.0365 -2.3578
  762MOL0     H 2862   3.117   1.484  11.354  1.2155 -1.9759 -1.0029
  762MOL0     H 2863   2.942   1.529  11.302 -0.0250  3.6589  1.4359
  762MOL0     H 2864   3.079   1.732  11.371  0.0890 -1.7530  0.2514
  762MOL0     H 2865   3.198   1.692  11.249  0.1037 -2.1150 -1.6839
  762MOL0     H 2866   2.895   1.855  11.000  1.4018 -1.2883 -0.7618
  762MOL0     H 2867   3.293   1.199  10.877 -0.6889 -0.0421  0.1554
  762MOL0     H 2868   3.591   1.138  10.791 -0.5970  0.4513  1.5955
  762MOL0     H 2869   3.449   1.211  10.709  0.6945  1.2804 -0.6047
  762MOL0     H 2870   3.588   1.314  10.735 -0.1026 -0.4959 -2.0947
  763MOL0     O 2871   4.751   9.718   7.734  0.0633  0.0588 -0.1644
  763MOL0     C 2872   4.696   9.730   7.845  0.2234  0.5307  0.2086
  763MOL0     O 2873   4.758   9.711   7.972 -0.5850 -0.2354  0.6296
  763MOL0     C 2874   4.882   9.656   7.974 -0.2584 -0.2061  0.1035
  763MOL0     C 2875   4.989   9.727   7.918 -0.0342  0.4246  0.1839
  763MOL0     C 2876   5.116   9.666   7.915  0.3087  1.3760  1.1675
  763MOL0     C 2877   5.146   9.543   7.975  0.4656  0.2177  0.1219
  763MOL0     O 2878   5.271   9.490   7.951 -0.1725 -0.3416 -0.0489
  763MOL0     C 2879   5.362   9.494   8.062  0.8216 -0.0635  0.3793
  763MOL0     C 2880   5.502   9.481   8.011 -0.0676  0.2959 -0.8824
  763MOL0     C 2881   5.595   9.446   8.126 -0.3475  0.0025 -0.2562
  763MOL0     C 2882   5.736   9.440   8.070 -0.0097  0.5737  0.4949
  763MOL0     C 2883   5.836   9.403   8.176  0.9988  0.6094 -1.1310
  763MOL0     C 2884   5.961   9.341   8.114 -0.2864  0.3255 -0.5078
  763MOL0     C 2885   6.032   9.439   8.013 -0.1605 -0.0229  0.0538
  763MOL0     C 2886   6.148   9.375   7.940 -0.1684  0.4427  0.5558
  763MOL0     N 2887   6.268   9.354   8.024  0.6420 -0.2374  0.8313
  763MOL0     C 2888   6.286   9.241   8.096 -0.2856  0.3902 -0.2839
  763MOL0     C 2889   6.376   9.278   8.186 -1.1145 -0.6798  0.5635
  763MOL0     C 2890   6.457   9.197   8.273  0.2606  0.5796 -0.4632
  763MOL0     C 2891   6.526   9.087   8.177 -0.6193  0.5144  0.3446
  763MOL0     C 2892   6.615   8.996   8.258 -0.1542 -0.7824 -0.8761
  763MOL0     C 2893   6.658   8.868   8.184  0.3410  0.1095  0.2502
  763MOL0     O 2894   6.688   8.892   8.042 -0.8286  0.0745 -0.0995
  763MOL0     C 2895   6.811   8.925   8.006 -0.0953  0.6452  0.4614
  763MOL0     C 2896   6.835   8.944   7.868 -0.2490 -0.3818  0.0850
  763MOL0     C 2897   6.959   8.964   7.819  0.0569  0.1927 -0.2257
  763MOL0     C 2898   7.071   8.983   7.908  1.1370  0.0934  0.4838
  763MOL0     C 2899   7.207   8.998   7.858  0.3872 -0.2488 -0.1519
  763MOL0     O 2900   7.306   9.022   7.955  0.3790 -0.0320 -0.0073
  763MOL0     C 2901   7.436   9.014   7.916  0.5966 -0.9670  1.3619
  763MOL0     C 2902   7.523   8.970   8.013  0.4551 -1.0520 -1.0369
  763MOL0     C 2903   7.658   8.984   8.000 -0.6128  0.1857 -0.5130
  763MOL0     C 2904   7.717   9.021   7.878  0.7002 -0.6453  0.3363
  763MOL0     O 2905   7.851   9.005   7.868 -0.4238  0.8330  0.4467
  763MOL0     C 2906   7.905   9.005   7.738 -0.4179 -0.4429  0.2941
  763MOL0     C 2907   8.045   8.930   7.726 -0.3189 -1.2816 -0.4335
  763MOL0     C 2908   8.149   9.031   7.776  0.0126  0.1751 -0.0124
  763MOL0     C 2909   8.285   8.977   7.772  0.2356  0.6483 -0.2559
  763MOL0     C 2910   8.377   9.095   7.774  0.2183  0.9741  0.3050
  763MOL0     C 2911   8.519   9.042   7.797 -0.0630  0.3238 -0.8190
  763MOL0     C 2912   8.631   9.148   7.811 -0.0183 -0.5504 -0.0390
  763MOL0     C 2913   8.762   9.090   7.859 -0.3735  0.8338  0.2247
  763MOL0    Cl 2914   8.862   9.229   7.877 -0.5979  0.1007 -0.1123
  763MOL0     C 2915   7.637   9.078   7.785 -0.2833 -0.7427 -0.8865
  763MOL0     C 2916   7.493   9.084   7.805  0.5560  0.0850 -0.3377
  763MOL0     O 2917   7.225   8.972   7.737 -0.7381  0.1364  0.1510
  763MOL0     C 2918   7.048   8.972   8.046 -0.5324 -0.9595 -0.4462
  763MOL0     C 2919   6.917   8.949   8.096  0.3714  1.0056  0.3787
  763MOL0     N 2920   6.410   9.410   8.172  0.1372  0.4954 -0.3317
  763MOL0     N 2921   6.353   9.451   8.070 -0.1495  0.4544 -0.3402
  763MOL0     C 2922   5.038   9.477   8.037  0.2322 -0.1402  0.1912
  763MOL0     C 2923   4.906   9.530   8.030  0.3610  0.7780 -0.6365
  763MOL0     C 2924   4.552   9.752   7.848 -0.1743 -0.8135  0.6905
  763MOL0     C 2925   4.476   9.675   7.932  0.1643  0.6219  0.4843
  763MOL0     C 2926   4.344   9.701   7.943  0.3831 -0.0109 -0.9473
  763MOL0     C 2927   4.279   9.797   7.862  0.0170  0.4974  0.3296
  763MOL0     O 2928   4.144   9.829   7.865 -0.1552 -0.5027  0.4926
  763MOL0     C 2929   4.087   9.861   7.995 -0.0479  0.3630  0.6862
  763MOL0     C 2930   3.962   9.947   7.984  0.3219 -0.4078 -0.6848
  763MOL0     C 2931   3.985  10.088   7.931  0.0548 -0.3027  0.2233
  763MOL0     C 2932   4.033  10.192   8.031 -1.2689 -0.0033  0.0227
  763MOL0     C 2933   3.919  10.234   8.102 -0.1821 -0.0111  0.1527
  763MOL0     C 2934   3.823  10.279   8.159 -0.4912 -0.6844  0.3839
  763MOL0     C 2935   4.349   9.866   7.764  0.3374 -0.0084  0.2267
  763MOL0     C 2936   4.488   9.849   7.761  0.5949  0.0736 -0.0756
  763MOL0     C 2937   4.558   9.934   7.665 -0.7661  0.2417  0.1376
  763MOL0     H 2938   4.978   9.825   7.872  0.8298  0.1806 -0.5780
  763MOL0     H 2939   5.200   9.704   7.857  2.2493 -0.8004  2.3960
  763MOL0     H 2940   5.337   9.594   8.097 -0.1068  0.7466 -2.3145
  763MOL0     H 2941   5.337   9.415   8.134  1.5067  1.6813  2.6470
  763MOL0     H 2942   5.529   9.570   7.953  1.7117  0.2205 -0.2250
  763MOL0     H 2943   5.492   9.391   7.949 -2.4049 -1.8658  2.3185
  763MOL0     H 2944   5.561   9.349   8.164 -0.5250 -1.0801 -2.9150
  763MOL0     H 2945   5.583   9.523   8.202 -3.2156 -1.2227  0.6863
  763MOL0     H 2946   5.734   9.374   7.983  0.0293 -0.2157  1.0775
  763MOL0     H 2947   5.756   9.542   8.037  0.6533  0.9823  2.0594
  763MOL0     H 2948   5.860   9.495   8.230  1.7182 -0.2037 -0.0171
  763MOL0     H 2949   5.792   9.329   8.243 -3.8261  3.1189 -1.1168
  763MOL0     H 2950   6.030   9.314   8.194 -1.1171  0.7617  0.3679
  763MOL0     H 2951   5.940   9.238   8.083 -2.6541  0.5586  0.1069
  763MOL0     H 2952   6.061   9.532   8.062  0.9978  1.0340 -2.4721
  763MOL0     H 2953   5.964   9.461   7.930 -0.2331 -4.4706 -1.3188
  763MOL0     H 2954   6.126   9.281   7.890  3.5708  0.0176 -0.6453
  763MOL0     H 2955   6.170   9.446   7.860 -2.3848  0.0520 -0.4683
  763MOL0     H 2956   6.234   9.146   8.095 -0.6679  0.5916  0.0568
  763MOL0     H 2957   6.536   9.249   8.327  0.3318 -0.2378  0.2466
  763MOL0     H 2958   6.384   9.150   8.340  1.1542  0.3874  0.3836
  763MOL0     H 2959   6.458   9.019   8.125  0.6986 -0.0378 -0.6996
  763MOL0     H 2960   6.590   9.140   8.106  0.4755  1.0491  1.6952
  763MOL0     H 2961   6.553   8.959   8.341 -1.9971  0.4369 -1.6569
  763MOL0     H 2962   6.700   9.050   8.298  1.1795 -3.4193  0.0963
  763MOL0     H 2963   6.578   8.793   8.185  0.0075  0.4756  0.7934
  763MOL0     H 2964   6.742   8.832   8.244 -0.5250  1.1782  2.2060
  763MOL0     H 2965   6.754   8.918   7.800 -2.0057  0.0315  1.9135
  763MOL0     H 2966   6.966   8.973   7.711  0.7481  0.2692 -0.1790
  763MOL0     H 2967   7.492   8.934   8.111  4.6699 -3.9326 -0.4754
  763MOL0     H 2968   7.714   8.935   8.079 -0.5453 -0.2305 -0.8162
  763MOL0     H 2969   7.837   8.955   7.668 -3.8330  1.0276  2.3447
  763MOL0     H 2970   7.910   9.108   7.701 -0.7325  0.5896  2.9309
  763MOL0     H 2971   8.061   8.840   7.786  1.0065 -0.2719  0.8037
  763MOL0     H 2972   8.072   8.904   7.624 -1.0091 -1.8040 -0.4884
  763MOL0     H 2973   8.140   9.129   7.730  1.6052  0.8158  0.9589
  763MOL0     H 2974   8.129   9.058   7.880  2.5457  1.3381  0.2236
  763MOL0     H 2975   8.308   8.925   7.679  1.0477  1.2850 -0.4312
  763MOL0     H 2976   8.318   8.902   7.845 -1.2849  0.1859 -0.0227
  763MOL0     H 2977   8.347   9.155   7.861  1.3221  0.2212  1.2257
  763MOL0     H 2978   8.370   9.139   7.675  0.8472 -1.6923 -1.0078
  763MOL0     H 2979   8.516   8.980   7.887 -3.1773 -2.0285 -2.3296
  763MOL0     H 2980   8.553   8.968   7.724 -2.1465 -1.6110  0.0501
  763MOL0     H 2981   8.602   9.213   7.894  0.0414 -0.6742  0.0781
  763MOL0     H 2982   8.636   9.207   7.719 -0.4981  4.4985  2.8026
  763MOL0     H 2983   8.750   9.037   7.954  0.9599 -2.2423 -1.1468
  763MOL0     H 2984   8.803   9.023   7.782  0.1396  1.2667  0.1146
  763MOL0     H 2985   7.677   9.121   7.694  1.9573  1.1134  0.8586
  763MOL0     H 2986   7.424   9.151   7.755 -1.7134 -1.3792  0.6614
  763MOL0     H 2987   7.127   8.996   8.117 -0.9591  3.9609 -1.3157
  763MOL0     H 2988   6.903   8.946   8.204  0.1481  1.5538  0.3686
  763MOL0     H 2989   5.068   9.378   8.072 -1.6040  0.2283  3.1596
  763MOL0     H 2990   4.816   9.480   8.066  1.9552 -0.6921  1.6359
  763MOL0     H 2991   4.531   9.598   7.984  2.6025  2.4274  0.7523
  763MOL0     H 2992   4.277   9.650   8.012 -1.3352  4.5598  1.1932
  763MOL0     H 2993   4.157   9.902   8.068  0.9018 -0.0691  0.0426
  763MOL0     H 2994   4.072   9.759   8.031 -2.5514  0.4628  0.0766
  763MOL0     H 2995   3.923   9.955   8.086 -1.5522 -1.3852 -1.2803
  763MOL0     H 2996   3.885   9.906   7.917  0.9879 -1.6490 -0.7214
  763MOL0     H 2997   3.898  10.140   7.890  1.1062  1.7733  0.5304
  763MOL0     H 2998   4.055  10.083   7.847 -2.4312 -2.3432 -1.9491
  763MOL0     H 2999   4.117  10.152   8.088 -1.5154 -2.8574 -1.4316
  763MOL0     H 3000   4.076  10.266   7.962  1.9721 -1.4203  0.3608
  763MOL0     H 3001   3.737  10.329   8.199 -1.3508 -1.8758  0.0966
  763MOL0     H 3002   4.295   9.944   7.711 -0.0054 -0.7713 -0.5774
  763MOL0     H 3003   4.549  10.040   7.692  1.6096 -0.4576  4.7781
  763MOL0     H 3004   4.661   9.905   7.644 -1.6618 -3.0294 -0.2332
  763MOL0     H 3005   4.509   9.922   7.568 -1.6329  3.2680  0.0754
  764MOL0     O 3006  10.441   6.357  11.137 -0.2184 -0.1396 -0.3472
  764MOL0     C 3007  10.433   6.303  11.025  0.4325 -0.1970  0.7405
  764MOL0     O 3008  10.536   6.241  10.956 -0.1584  0.0666  0.2246
  764MOL0     C 3009  10.663   6.264  10.995 -0.7718  0.2197 -0.5190
  764MOL0     C 3010  10.770   6.312  10.916 -0.3422 -0.0696  0.3169
  764MOL0     C 3011  10.901   6.295  10.954 -0.3360 -0.2205 -0.2805
  764MOL0     C 3012  10.933   6.238  11.083 -0.3769 -1.1426  0.1303
  764MOL0     O 3013  11.059   6.204  11.119  0.1821 -0.6076 -0.4270
  764MOL0     C 3014  11.170   6.216  11.027 -0.0695 -0.0464  0.2351
  764MOL0     C 3015  11.279   6.119  11.072  0.3503  0.7587  0.0173
  764MOL0     C 3016  11.399   6.196  11.126 -0.4367  0.2229  0.3649
  764MOL0     C 3017  11.495   6.095  11.194  0.6332 -0.6892 -0.2814
  764MOL0     C 3018  11.605   6.165  11.271 -0.5136  0.2123 -0.0627
  764MOL0     C 3019  11.727   6.193  11.182 -0.0964  0.2203 -0.0303
  764MOL0     C 3020  11.805   6.061  11.154  0.7806  0.6642  0.0345
  764MOL0     C 3021  11.920   6.090  11.064 -0.0960  0.9141  1.1264
  764MOL0     N 3022  11.978   5.967  11.005  0.0292  0.0118  0.1010
  764MOL0     C 3023  12.038   5.870  11.073  0.0287  0.7692 -0.0742
  764MOL0     C 3024  12.075   5.789  10.976 -0.8056  0.1112  0.1699
  764MOL0     C 3025  12.149   5.663  11.002 -0.0382 -0.1665  0.4277
  764MOL0     C 3026  12.178   5.580  10.865  0.4795 -0.1306 -1.0462
  764MOL0     C 3027  12.287   5.637  10.772  0.6926 -0.1024 -0.4196
  764MOL0     C 3028  12.309   5.536  10.652  0.2157  1.0207 -0.4073
  764MOL0     O 3029  12.358   5.406  10.700 -0.1923  0.1371 -0.2884
  764MOL0     C 3030  12.496   5.398  10.711  0.9326  0.1457 -0.4506
  764MOL0     C 3031  12.565   5.359  10.602 -0.3365 -0.1937 -0.4646
  764MOL0     C 3032  12.706   5.344  10.599  0.6861 -0.3250 -1.1472
  764MOL0     C 3033  12.776   5.376  10.722 -0.7846  1.1122  0.0746
  764MOL0     C 3034  12.925   5.350  10.721  0.3983  0.0770 -0.1401
  764MOL0     O 3035  12.980   5.310  10.608  0.0000 -0.0450  0.0205
  764MOL0     C 3036  13.115   5.309  10.598  0.6191 -0.5598  0.4416
  764MOL0     C 3037  13.185   5.199  10.565 -0.2911 -0.3434  0.1972
  764MOL0     C 3038  13.326   5.197  10.564  0.0891  0.2838  0.3458
  764MOL0     C 3039  13.402   5.304  10.588  0.2685 -0.5050  0.2895
  764MOL0     O 3040  13.541   5.299  10.589 -0.4670 -0.4690  0.1514
  764MOL0     C 3041  13.617   5.417  10.635  0.0213  1.0690  0.0541
  764MOL0     C 3042  13.758   5.368  10.643 -0.8733  0.1244  0.2292
  764MOL0     C 3043  13.790   5.242  10.734  0.2442  0.7624 -0.3594
  764MOL0     C 3044  13.759   5.277  10.885 -0.3347  0.2350 -0.0760
  764MOL0     C 3045  13.825   5.186  10.981 -0.1612  0.0990 -0.0598
  764MOL0     C 3046  13.987   5.186  10.982 -0.0952 -0.5848 -0.0344
  764MOL0     C 3047  14.044   5.329  11.002  0.1854  0.2834 -0.1600
  764MOL0     C 3048  14.198   5.340  11.028 -0.1839  0.0171  0.0395
  764MOL0    Cl 3049  14.279   5.300  10.881  0.7105  0.2879  0.2570
  764MOL0     C 3050  13.335   5.422  10.607  0.4645  0.3085  0.2091
  764MOL0     C 3051  13.194   5.425  10.622 -0.4482  0.8076  0.0106
  764MOL0     O 3052  12.985   5.374  10.827 -0.0001  0.6644 -0.7331
  764MOL0     C 3053  12.702   5.418  10.840  0.1057  0.2324  0.8315
  764MOL0     C 3054  12.558   5.421  10.829  0.0082 -0.9296 -0.8968
  764MOL0     N 3055  12.034   5.832  10.851  0.0033  0.5164 -0.9158
  764MOL0     N 3056  11.980   5.951  10.871  0.0179  0.6446 -0.5379
  764MOL0     C 3057  10.830   6.197  11.171  0.1623  0.1387 -0.3256
  764MOL0     C 3058  10.699   6.216  11.123  0.7319  0.5769  0.0878
  764MOL0     C 3059  10.289   6.257  10.997 -0.7033  0.5590 -0.3549
  764MOL0     C 3060  10.270   6.143  10.910  0.6229 -0.3848 -0.5405
  764MOL0     C 3061  10.135   6.094  10.892 -0.7479  0.7995 -0.2621
  764MOL0     C 3062  10.030   6.164  10.940 -0.1538 -0.3036  0.1743
  764MOL0     O 3063   9.907   6.104  10.914 -0.0444  0.2931 -0.1776
  764MOL0     C 3064   9.786   6.173  10.943  0.2249 -0.4197 -1.0790
  764MOL0     C 3065   9.675   6.099  10.871 -0.6709  0.8094  0.6185
  764MOL0     C 3066   9.545   6.170  10.870 -0.1382  0.1511  1.0591
  764MOL0     C 3067   9.452   6.116  10.761  0.9865 -0.2055 -0.4260
  764MOL0     C 3068   9.406   5.982  10.790 -0.1713  0.3851 -0.6371
  764MOL0     C 3069   9.371   5.865  10.802  0.1791 -0.0413  0.2784
  764MOL0     C 3070  10.050   6.280  11.010  0.1465 -0.0955 -0.1918
  764MOL0     C 3071  10.172   6.330  11.035 -0.7153  0.2981 -0.8833
  764MOL0     C 3072  10.172   6.448  11.119  0.4301 -0.2896 -0.2343
  764MOL0     H 3073  10.736   6.348  10.820  1.8225  1.7454  0.1643
  764MOL0     H 3074  10.983   6.330  10.892 -1.7463 -0.1728 -2.2054
  764MOL0     H 3075  11.144   6.187  10.925 -1.8982  0.0070  0.6516
  764MOL0     H 3076  11.214   6.316  11.034  0.7472 -0.3831  0.1186
  764MOL0     H 3077  11.310   6.062  10.985 -1.1442 -2.1672  1.2743
  764MOL0     H 3078  11.247   6.049  11.150  0.4075 -1.1020 -1.5808
  764MOL0     H 3079  11.378   6.273  11.201  0.2701  1.1607 -0.3806
  764MOL0     H 3080  11.448   6.243  11.041 -1.5408  0.7884  0.0311
  764MOL0     H 3081  11.432   6.030  11.255 -0.8623  0.5273 -0.4582
  764MOL0     H 3082  11.532   6.019  11.126 -2.0203 -4.7518  2.3871
  764MOL0     H 3083  11.577   6.254  11.327  2.2843 -0.6892  3.1078
  764MOL0     H 3084  11.643   6.094  11.344 -1.2851 -2.6488 -2.2389
  764MOL0     H 3085  11.708   6.242  11.086  3.6970  0.7820 -0.6162
  764MOL0     H 3086  11.799   6.253  11.237  0.3771 -2.1234  2.1316
  764MOL0     H 3087  11.739   5.991  11.102 -0.3884  0.9970  1.0041
  764MOL0     H 3088  11.855   6.023  11.244  1.5633  0.3762 -0.5189
  764MOL0     H 3089  11.893   6.158  10.982  3.3889  0.4330 -0.5958
  764MOL0     H 3090  11.991   6.146  11.126 -1.2802  1.3750  2.1132
  764MOL0     H 3091  12.058   5.861  11.180 -2.0553 -2.9977  0.1731
  764MOL0     H 3092  12.250   5.690  11.036  1.2101 -2.7303 -0.9735
  764MOL0     H 3093  12.093   5.605  11.076  1.8844 -2.7690  0.0055
  764MOL0     H 3094  12.220   5.482  10.890  0.3601 -0.5017 -2.2340
  764MOL0     H 3095  12.086   5.562  10.809  0.6851 -0.1987 -1.3663
  764MOL0     H 3096  12.387   5.659  10.811  1.5660  0.9418 -3.0027
  764MOL0     H 3097  12.244   5.731  10.735 -0.3259 -0.2891  0.2731
  764MOL0     H 3098  12.372   5.572  10.570  2.1060 -0.1332  0.4897
  764MOL0     H 3099  12.207   5.513  10.617  0.6734 -2.6723  0.3754
  764MOL0     H 3100  12.510   5.347  10.509 -2.8178  1.3235  0.6776
  764MOL0     H 3101  12.770   5.310  10.518  3.9332  2.2511  0.0987
  764MOL0     H 3102  13.143   5.103  10.537  3.4829 -2.4660  1.0268
  764MOL0     H 3103  13.371   5.100  10.546 -3.4961 -2.3216  3.6970
  764MOL0     H 3104  13.623   5.506  10.572  2.1438  0.1966 -1.0954
  764MOL0     H 3105  13.570   5.435  10.732 -2.8674 -0.4917 -0.9519
  764MOL0     H 3106  13.796   5.344  10.543 -0.9354 -0.2090  0.2866
  764MOL0     H 3107  13.820   5.451  10.678  0.1301  0.1038 -1.4118
  764MOL0     H 3108  13.720   5.162  10.709  1.3241 -0.1795 -0.4612
  764MOL0     H 3109  13.893   5.209  10.720  1.1439  2.7384  1.0213
  764MOL0     H 3110  13.651   5.286  10.899 -0.1670  3.2061 -0.1571
  764MOL0     H 3111  13.808   5.373  10.901  3.1512 -1.0824 -1.7609
  764MOL0     H 3112  13.795   5.084  10.959 -0.8407 -0.1133  1.7085
  764MOL0     H 3113  13.783   5.210  11.079 -0.7794 -1.4948  0.0849
  764MOL0     H 3114  14.014   5.117  11.063  1.7855 -1.4439 -1.3234
  764MOL0     H 3115  14.036   5.134  10.899 -0.2930  1.3215 -1.4039
  764MOL0     H 3116  14.002   5.367  11.096 -0.3178 -0.4975 -0.0624
  764MOL0     H 3117  14.019   5.405  10.926 -1.0697  0.5339  0.4688
  764MOL0     H 3118  14.214   5.447  11.047 -0.1125  0.5638 -2.6703
  764MOL0     H 3119  14.218   5.274  11.113  1.0709 -1.0055 -1.0124
  764MOL0     H 3120  13.384   5.515  10.635 -0.7707  0.9831  0.1635
  764MOL0     H 3121  13.144   5.516  10.656 -0.1944  0.2640  1.9733
  764MOL0     H 3122  12.755   5.433  10.933  1.5416  0.6944 -0.0297
  764MOL0     H 3123  12.491   5.437  10.913  0.3440 -0.7993 -0.6524
  764MOL0     H 3124  10.849   6.150  11.267 -0.9518  0.1361 -0.0959
  764MOL0     H 3125  10.627   6.196  11.202  2.6279 -3.0035  1.1207
  764MOL0     H 3126  10.348   6.096  10.850  0.2063  1.1633 -2.3969
  764MOL0     H 3127  10.112   6.010  10.827  2.1117  0.3497 -0.8136
  764MOL0     H 3128   9.796   6.279  10.914  1.6528  0.0396  0.8597
  764MOL0     H 3129   9.774   6.183  11.052  0.6326 -0.9373 -0.9842
  764MOL0     H 3130   9.663   6.000  10.916  2.3668  0.8267  1.6564
  764MOL0     H 3131   9.711   6.087  10.768  4.0566  0.9804  2.0167
  764MOL0     H 3132   9.558   6.277  10.851 -1.5285  0.3285  0.9491
  764MOL0     H 3133   9.503   6.159  10.970 -2.1892 -1.2479  0.1191
  764MOL0     H 3134   9.374   6.190  10.744  2.5594  1.2099 -1.8314
  764MOL0     H 3135   9.509   6.116  10.668 -0.2704 -0.7192 -1.2170
  764MOL0     H 3136   9.315   5.775  10.817 -3.5900  2.2260  1.3499
  764MOL0     H 3137   9.965   6.323  11.061  1.6285  0.5177  1.8531
  764MOL0     H 3138  10.249   6.511  11.073  1.9316 -0.0489  2.4419
  764MOL0     H 3139  10.073   6.494  11.124  0.2388 -0.5868 -1.0498
  764MOL0     H 3140  10.214   6.435  11.219 -0.9316 -3.5102  0.0409
  765MOL0     O 3141   8.954   1.268   5.195 -0.4710  0.5775 -0.1108
  765MOL0     C 3142   8.867   1.184   5.208 -0.0177 -0.5582  0.4431
  765MOL0     O 3143   8.878   1.068   5.273  0.3227  0.2773 -0.8631
  765MOL0     C 3144   8.987   1.039   5.349  0.2277  0.2482 -0.4336
  765MOL0     C 3145   9.070   0.929   5.322  0.6848 -0.1956  0.6439
  765MOL0     C 3146   9.185   0.919   5.403 -0.7864 -0.1882  0.5340
  765MOL0     C 3147   9.208   0.998   5.523  0.2566 -0.3274 -0.3097
  765MOL0     O 3148   9.313   0.991   5.616  0.9761  0.5116  0.1240
  765MOL0     C 3149   9.423   0.906   5.590  0.8690 -0.6230 -0.2911
  765MOL0     C 3150   9.516   0.924   5.713  0.3385 -0.4289  0.5550
  765MOL0     C 3151   9.558   1.062   5.746 -0.6427  1.1249 -0.2003
  765MOL0     C 3152   9.682   1.063   5.846  0.5798 -0.2077 -0.9376
  765MOL0     C 3153   9.787   1.152   5.789  0.0173 -0.4551 -0.0387
  765MOL0     C 3154   9.919   1.151   5.867  0.4960 -0.0915  0.6105
  765MOL0     C 3155   9.905   1.219   5.995  1.1041  0.1225  0.7165
  765MOL0     C 3156   9.920   1.363   5.977 -0.5085 -0.2474  0.3157
  765MOL0     N 3157   9.928   1.434   6.103  0.1179 -0.0505  0.3437
  765MOL0     C 3158  10.045   1.483   6.157 -0.2801 -0.0652 -0.2929
  765MOL0     C 3159  10.008   1.552   6.263  0.4413 -0.4641 -0.5729
  765MOL0     C 3160  10.110   1.635   6.345 -0.2318  0.5187 -0.5480
  765MOL0     C 3161  10.254   1.641   6.293 -0.4829  0.3022 -0.6124
  765MOL0     C 3162  10.342   1.725   6.397 -0.4844  0.3508 -0.0236
  765MOL0     C 3163  10.498   1.692   6.392  0.4385  0.1887  1.2147
  765MOL0     O 3164  10.567   1.783   6.475 -0.0926  0.3165  0.1601
  765MOL0     C 3165  10.692   1.749   6.525 -0.2435  0.8478  0.6886
  765MOL0     C 3166  10.742   1.834   6.626  0.2902  0.3664 -0.8961
  765MOL0     C 3167  10.865   1.814   6.683 -0.4531  0.4836 -0.7989
  765MOL0     C 3168  10.941   1.702   6.646  0.0163 -0.3676  0.3037
  765MOL0     C 3169  11.076   1.673   6.696 -0.2690 -0.4746 -0.7664
  765MOL0     O 3170  11.154   1.591   6.619  0.7548  0.6850 -0.0613
  765MOL0     C 3171  11.288   1.601   6.650 -0.2848 -0.1158  0.0719
  765MOL0     C 3172  11.356   1.704   6.583 -0.3978 -0.0514 -0.2745
  765MOL0     C 3173  11.495   1.713   6.589  0.2547  0.7096  0.6431
  765MOL0     C 3174  11.563   1.629   6.671 -0.0563 -0.5921  0.0123
  765MOL0     O 3175  11.709   1.643   6.662  0.5264 -0.4035 -0.5125
  765MOL0     C 3176  11.790   1.593   6.767 -0.5967  0.3457 -0.4818
  765MOL0     C 3177  11.882   1.703   6.815 -0.0085 -0.0946 -0.2078
  765MOL0     C 3178  11.954   1.796   6.716 -0.1866 -0.8830  0.1903
  765MOL0     C 3179  12.069   1.731   6.637 -0.3007 -0.7341  0.1223
  765MOL0     C 3180  12.113   1.817   6.521 -0.0092  0.1055  0.3686
  765MOL0     C 3181  12.012   1.805   6.407  0.8103  1.1959 -0.9840
  765MOL0     C 3182  12.046   1.905   6.304  0.0008 -0.0204  0.5839
  765MOL0     C 3183  11.950   1.894   6.188 -0.0682 -0.6384  0.3670
  765MOL0    Cl 3184  11.786   1.960   6.226 -0.5688  0.2798  0.0583
  765MOL0     C 3185  11.494   1.528   6.744 -0.2987 -0.1532 -0.0037
  765MOL0     C 3186  11.358   1.511   6.729  0.0991  0.0574 -0.4186
  765MOL0     O 3187  11.107   1.725   6.806  0.1906 -0.2004  0.0486
  765MOL0     C 3188  10.895   1.625   6.548  0.7069  0.6948 -0.0663
  765MOL0     C 3189  10.772   1.640   6.487 -0.0842 -0.2584 -0.5594
  765MOL0     N 3190   9.872   1.541   6.272 -0.7254 -0.2847  0.0576
  765MOL0     N 3191   9.825   1.462   6.188  0.4817 -0.1766 -0.0648
  765MOL0     C 3192   9.107   1.088   5.554 -0.4597 -0.4388 -0.2030
  765MOL0     C 3193   9.007   1.112   5.461 -0.2799 -0.5586 -0.4804
  765MOL0     C 3194   8.726   1.213   5.168  0.5141  1.9311  0.4419
  765MOL0     C 3195   8.624   1.116   5.171 -0.0773  0.4232  0.4624
  765MOL0     C 3196   8.492   1.145   5.139 -0.3595  0.5317 -0.1954
  765MOL0     C 3197   8.454   1.277   5.095 -0.0937  0.0032 -0.1481
  765MOL0     O 3198   8.331   1.292   5.050  0.1293 -0.4791  0.0785
  765MOL0     C 3199   8.264   1.418   5.066  0.5579 -0.3769 -0.4172
  765MOL0     C 3200   8.113   1.406   5.039 -0.5641 -0.4856 -0.0089
  765MOL0     C 3201   8.035   1.348   5.162 -0.6729 -0.0519  0.0515
  765MOL0     C 3202   8.081   1.202   5.205 -1.1188  0.3623  0.1858
  765MOL0     C 3203   8.012   1.160   5.327 -0.6781  0.6934  0.5832
  765MOL0     C 3204   7.965   1.136   5.432  0.0255  0.1088 -0.2027
  765MOL0     C 3205   8.553   1.365   5.080 -0.0930 -0.2531 -0.2284
  765MOL0     C 3206   8.684   1.336   5.122 -1.3617  0.3283  0.2190
  765MOL0     C 3207   8.772   1.453   5.120  0.2247  0.6983  0.7421
  765MOL0     H 3208   9.044   0.872   5.233  0.3046 -0.0818  0.6822
  765MOL0     H 3209   9.268   0.859   5.369 -0.2960  1.7903 -2.0450
  765MOL0     H 3210   9.391   0.802   5.583  0.8530 -0.7035  0.7853
  765MOL0     H 3211   9.459   0.938   5.491 -1.8285  0.4461 -1.0310
  765MOL0     H 3212   9.606   0.863   5.698 -0.9534 -2.2162 -0.2614
  765MOL0     H 3213   9.455   0.893   5.798 -2.8304 -0.5592 -1.5888
  765MOL0     H 3214   9.474   1.112   5.794 -0.3718  1.8821 -0.4991
  765MOL0     H 3215   9.579   1.100   5.645  2.5827  0.9947  0.2986
  765MOL0     H 3216   9.648   1.090   5.946 -2.2642  0.2633 -1.9326
  765MOL0     H 3217   9.735   0.967   5.847 -1.9444 -1.8198  2.9628
  765MOL0     H 3218   9.813   1.105   5.693 -0.8882  0.0598 -0.5503
  765MOL0     H 3219   9.737   1.247   5.771  1.0181 -0.0008 -0.5030
  765MOL0     H 3220   9.949   1.048   5.890  4.1993  0.4837 -0.9087
  765MOL0     H 3221   9.999   1.181   5.799 -0.8750 -1.3861 -1.6866
  765MOL0     H 3222   9.994   1.194   6.054  0.8522  1.3878  1.6634
  765MOL0     H 3223   9.814   1.187   6.047  2.2591 -3.0855  0.9829
  765MOL0     H 3224  10.022   1.369   5.938  0.2609 -2.8879  1.6764
  765MOL0     H 3225   9.843   1.406   5.912 -0.7235 -3.2745 -1.6479
  765MOL0     H 3226  10.146   1.467   6.122 -0.5638 -1.2600 -0.6172
  765MOL0     H 3227  10.064   1.734   6.347 -0.5448  0.3864 -1.0333
  765MOL0     H 3228  10.115   1.602   6.450  2.2189  2.4867  0.0405
  765MOL0     H 3229  10.289   1.538   6.286 -0.6575 -0.2539  3.8497
  765MOL0     H 3230  10.267   1.689   6.195  0.4944 -0.6809 -0.9821
  765MOL0     H 3231  10.301   1.718   6.498  0.3890  1.5265  0.4358
  765MOL0     H 3232  10.332   1.827   6.360 -0.9989  0.0867 -0.6179
  765MOL0     H 3233  10.539   1.698   6.291 -1.2898 -0.2305  0.4516
  765MOL0     H 3234  10.522   1.589   6.422  0.0712 -0.4884 -0.6927
  765MOL0     H 3235  10.675   1.915   6.654 -0.3173 -1.0307  2.0479
  765MOL0     H 3236  10.913   1.879   6.756 -0.6435 -0.5282  0.2492
  765MOL0     H 3237  11.313   1.773   6.511 -0.2847 -0.5154 -0.7958
  765MOL0     H 3238  11.555   1.778   6.526 -0.3405 -0.6817 -1.4641
  765MOL0     H 3239  11.732   1.560   6.855 -1.6473  0.0324 -1.2687
  765MOL0     H 3240  11.848   1.506   6.735 -2.1556 -0.2036 -1.9666
  765MOL0     H 3241  11.825   1.775   6.875  1.6257  1.1973 -0.1133
  765MOL0     H 3242  11.963   1.658   6.873  0.2506 -0.7349 -1.0494
  765MOL0     H 3243  11.878   1.839   6.651 -0.1648 -2.0044 -0.6029
  765MOL0     H 3244  11.988   1.880   6.778 -0.6175 -1.3339  1.0523
  765MOL0     H 3245  12.022   1.638   6.604 -0.4075  0.4942 -3.6151
  765MOL0     H 3246  12.158   1.715   6.699  0.5468 -3.5877 -1.6432
  765MOL0     H 3247  12.206   1.772   6.485 -0.0015  1.1936 -1.0654
  765MOL0     H 3248  12.124   1.920   6.556 -3.0798  0.7474 -0.2278
  765MOL0     H 3249  12.016   1.702   6.370 -1.8679  0.6591  0.0244
  765MOL0     H 3250  11.908   1.825   6.433  0.8151  2.1443 -1.6415
  765MOL0     H 3251  12.137   1.866   6.258  0.7710 -1.5729  3.2296
  765MOL0     H 3252  12.051   2.007   6.343  0.7588 -0.0392  0.5594
  765MOL0     H 3253  11.997   1.947   6.104  0.2791  0.1331  1.0233
  765MOL0     H 3254  11.942   1.793   6.147 -0.4252 -0.0775 -0.9729
  765MOL0     H 3255  11.552   1.451   6.794 -0.4146  0.3981  0.9917
  765MOL0     H 3256  11.313   1.433   6.790 -1.8293  1.4881  0.1077
  765MOL0     H 3257  10.947   1.535   6.515 -0.4171  0.1791 -0.4963
  765MOL0     H 3258  10.746   1.564   6.414  2.1644  0.0231 -1.7636
  765MOL0     H 3259   9.128   1.150   5.640  1.7416 -1.3094 -0.0507
  765MOL0     H 3260   8.941   1.197   5.478 -0.1847 -0.4251 -0.7680
  765MOL0     H 3261   8.652   1.012   5.187  0.2418  0.8096  2.7818
  765MOL0     H 3262   8.413   1.074   5.159 -0.5628  0.9575  0.5530
  765MOL0     H 3263   8.310   1.487   4.994 -0.6908  0.4245 -0.4681
  765MOL0     H 3264   8.274   1.461   5.166 -2.1228 -2.1502  0.7183
  765MOL0     H 3265   8.099   1.357   4.942  1.4330  0.5822 -0.8955
  765MOL0     H 3266   8.078   1.510   5.037  0.0541 -0.2704  0.2319
  765MOL0     H 3267   7.929   1.338   5.140 -0.8325 -0.2455  0.8610
  765MOL0     H 3268   8.051   1.415   5.248  0.2473  0.1361 -0.2498
  765MOL0     H 3269   8.052   1.134   5.125 -1.4035  2.0235 -1.1766
  765MOL0     H 3270   8.188   1.192   5.226 -1.1455 -2.3067 -0.5534
  765MOL0     H 3271   7.932   1.115   5.532  1.9814 -0.0059  0.4613
  765MOL0     H 3272   8.527   1.462   5.039 -0.8560 -0.5497 -0.4835
  765MOL0     H 3273   8.716   1.544   5.097 -3.9822 -1.5456  1.2372
  765MOL0     H 3274   8.806   1.470   5.223  0.1652 -1.0843  1.0836
  765MOL0     H 3275   8.858   1.451   5.052 -0.2862  0.8279  0.0907
  766MOL0     O 3276   0.967   4.471  10.721  0.1600  0.5333 -0.3626
  766MOL0     C 3277   0.918   4.394  10.643 -0.1400  0.4580 -0.7129
  766MOL0     O 3278   0.986   4.327  10.547  0.0832  0.4944  0.4602
  766MOL0     C 3279   1.118   4.347  10.501 -0.1932 -0.5266  0.2610
  766MOL0     C 3280   1.161   4.268  10.387  0.8309 -0.1457 -1.0550
  766MOL0     C 3281   1.294   4.276  10.346 -0.1793 -0.2618 -0.1815
  766MOL0     C 3282   1.381   4.376  10.390  1.3654 -0.2764  0.0870
  766MOL0     O 3283   1.506   4.395  10.326 -0.4031 -0.0538 -0.0545
  766MOL0     C 3284   1.617   4.436  10.412  0.1592 -0.0955 -0.2328
  766MOL0     C 3285   1.757   4.418  10.348  0.6855  0.0985 -0.1600
  766MOL0     C 3286   1.755   4.480  10.212 -0.4649  0.3136 -0.3507
  766MOL0     C 3287   1.888   4.486  10.150 -0.9372  0.6889  0.0605
  766MOL0     C 3288   1.884   4.562  10.015 -0.4102  0.3658  0.5592
  766MOL0     C 3289   2.015   4.541   9.939 -0.6005 -0.1346  0.6440
  766MOL0     C 3290   2.046   4.647   9.839  0.4900 -0.0442  0.2136
  766MOL0     C 3291   2.160   4.616   9.743 -0.3779 -0.2779 -0.2066
  766MOL0     N 3292   2.297   4.626   9.805 -0.0218 -0.6366  0.4757
  766MOL0     C 3293   2.399   4.700   9.755 -0.2132 -0.5629 -0.3119
  766MOL0     C 3294   2.507   4.664   9.827  0.6214  0.3365 -0.3080
  766MOL0     C 3295   2.644   4.716   9.810  0.6154  0.6326  0.0317
  766MOL0     C 3296   2.736   4.607   9.749  0.5483 -0.2949  0.1427
  766MOL0     C 3297   2.877   4.646   9.733  0.2461 -0.4709  0.3160
  766MOL0     C 3298   2.965   4.529   9.689 -0.7172 -0.4850 -0.2027
  766MOL0     O 3299   3.091   4.564   9.631 -0.0177 -0.5151  0.2297
  766MOL0     C 3300   3.203   4.573   9.714  0.3958  0.8145 -0.1023
  766MOL0     C 3301   3.215   4.557   9.854 -0.2530 -1.1576  0.3338
  766MOL0     C 3302   3.343   4.555   9.908  0.2380 -0.1720  0.3342
  766MOL0     C 3303   3.456   4.601   9.839 -0.1598  0.0400  0.0872
  766MOL0     C 3304   3.581   4.634   9.902  0.0430  0.6121 -0.5230
  766MOL0     O 3305   3.590   4.634  10.036  0.0866 -1.0210 -0.5917
  766MOL0     C 3306   3.705   4.647  10.107 -0.3454  0.4557  0.2297
  766MOL0     C 3307   3.714   4.572  10.221 -0.4111 -0.4107  0.4648
  766MOL0     C 3308   3.829   4.571  10.298  0.1352 -0.2109  0.0303
  766MOL0     C 3309   3.940   4.645  10.271 -0.2737 -0.4985 -0.2014
  766MOL0     O 3310   4.047   4.663  10.353 -0.1924  0.1157 -0.4256
  766MOL0     C 3311   4.033   4.619  10.490  1.1931 -0.1331 -0.0681
  766MOL0     C 3312   4.145   4.679  10.579  0.4784  0.2052  0.6371
  766MOL0     C 3313   4.288   4.624  10.558 -0.1517  0.7803  0.2030
  766MOL0     C 3314   4.385   4.699  10.652 -0.4694  0.3820 -0.1213
  766MOL0     C 3315   4.523   4.652  10.658 -0.0877  0.7411  1.0190
  766MOL0     C 3316   4.595   4.685  10.786  0.3921  0.2253  0.6690
  766MOL0     C 3317   4.708   4.591  10.822 -0.0994  0.5298 -0.3274
  766MOL0     C 3318   4.786   4.634  10.948  0.3312  0.4431  0.6508
  766MOL0    Cl 3319   4.675   4.654  11.091  0.1766 -0.2713 -0.2058
  766MOL0     C 3320   3.935   4.743  10.164 -0.4102 -0.6249  0.6191
  766MOL0     C 3321   3.817   4.734  10.079  0.0049 -0.8443  0.2648
  766MOL0     O 3322   3.672   4.638   9.823 -0.4375 -0.2258 -0.3299
  766MOL0     C 3323   3.435   4.628   9.701 -0.8957 -0.5226  0.5043
  766MOL0     C 3324   3.313   4.610   9.640  0.0429 -0.2181  0.3147
  766MOL0     N 3325   2.464   4.594   9.935  0.0259  0.4057 -0.9578
  766MOL0     N 3326   2.339   4.563   9.921  0.7969  0.1746 -1.2433
  766MOL0     C 3327   1.338   4.459  10.495 -0.3220 -0.1759 -0.8741
  766MOL0     C 3328   1.210   4.441  10.548  0.5618  0.0515 -0.0116
  766MOL0     C 3329   0.774   4.381  10.626 -0.0957 -0.3164  0.2271
  766MOL0     C 3330   0.720   4.324  10.501  0.4700 -0.5714  0.3330
  766MOL0     C 3331   0.580   4.314  10.481  0.3878 -0.7155 -0.4495
  766MOL0     C 3332   0.498   4.357  10.583 -0.1872 -0.4519  0.2626
  766MOL0     O 3333   0.360   4.358  10.553  0.0825  0.3288  1.0704
  766MOL0     C 3334   0.265   4.391  10.651  0.0294 -0.1155  0.0467
  766MOL0     C 3335   0.119   4.363  10.603 -0.8358 -1.2196  0.2361
  766MOL0     C 3336   0.113   4.237  10.525 -0.1030  0.3691  0.0898
  766MOL0     C 3337  -0.037   4.205  10.500 -0.4243 -0.1304 -0.5071
  766MOL0     C 3338  -0.091   4.265  10.380 -0.5471 -0.5318  0.3543
  766MOL0     C 3339  -0.158   4.311  10.288 -0.7226 -0.7611 -0.6793
  766MOL0     C 3340   0.551   4.408  10.701 -0.9308 -0.2354 -0.0518
  766MOL0     C 3341   0.685   4.422  10.728  0.1214 -0.2725  0.7710
  766MOL0     C 3342   0.722   4.489  10.856 -0.0038  0.3604  0.1265
  766MOL0     H 3343   1.095   4.198  10.337 -1.0600  1.0390 -0.3413
  766MOL0     H 3344   1.333   4.225  10.258  1.8361  1.6760 -0.5070
  766MOL0     H 3345   1.597   4.540  10.437 -1.8352 -0.5530  0.2223
  766MOL0     H 3346   1.617   4.366  10.496 -1.4129  0.2115  0.0584
  766MOL0     H 3347   1.776   4.310  10.347 -1.6092 -0.3328 -0.8587
  766MOL0     H 3348   1.841   4.460  10.406  1.2609 -0.9259 -0.2262
  766MOL0     H 3349   1.718   4.582  10.222 -1.5589 -0.2440  2.0372
  766MOL0     H 3350   1.684   4.425  10.150 -1.1545  1.2104 -0.3718
  766MOL0     H 3351   1.959   4.538  10.215 -0.4296  0.1604 -0.0657
  766MOL0     H 3352   1.932   4.388  10.130 -0.4031  0.7875  0.7185
  766MOL0     H 3353   1.793   4.529   9.966  0.6449  0.8193 -1.8649
  766MOL0     H 3354   1.873   4.668  10.040  0.6994  0.1170  2.3354
  766MOL0     H 3355   2.102   4.528  10.004 -1.4095  2.8553  2.4929
  766MOL0     H 3356   2.009   4.449   9.880 -1.5797  0.5051 -0.2883
  766MOL0     H 3357   2.055   4.744   9.889 -0.2911 -0.9989  2.3313
  766MOL0     H 3358   1.957   4.650   9.777 -0.2241 -1.7315  1.0850
  766MOL0     H 3359   2.141   4.512   9.714 -1.4260 -0.1768  0.0816
  766MOL0     H 3360   2.151   4.679   9.655 -2.4396  0.1604  0.2603
  766MOL0     H 3361   2.399   4.750   9.659  2.2162  1.5186  0.6638
  766MOL0     H 3362   2.643   4.801   9.742 -1.7865 -0.7351 -1.8069
  766MOL0     H 3363   2.678   4.742   9.911 -2.9157 -1.2581  1.9190
  766MOL0     H 3364   2.736   4.510   9.799 -1.0858  0.1143  1.0114
  766MOL0     H 3365   2.696   4.589   9.648 -2.2681  1.7730  0.7487
  766MOL0     H 3366   2.917   4.683   9.828 -0.1180 -0.6615  0.5467
  766MOL0     H 3367   2.884   4.726   9.659  0.7268 -0.6142  0.2012
  766MOL0     H 3368   2.913   4.476   9.609  0.2579 -2.5820  0.4695
  766MOL0     H 3369   2.984   4.460   9.772 -4.3328 -0.8423  0.5227
  766MOL0     H 3370   3.129   4.540   9.919 -0.4404  0.4317  0.5363
  766MOL0     H 3371   3.347   4.531  10.013 -2.3687  0.5270  0.6410
  766MOL0     H 3372   3.629   4.510  10.248 -1.3641  0.1942 -1.0076
  766MOL0     H 3373   3.832   4.499  10.379  2.7512  0.0274  0.2281
  766MOL0     H 3374   3.939   4.652  10.534  1.8697  1.5277  0.2202
  766MOL0     H 3375   4.026   4.510  10.496  0.3767 -0.2256 -2.1055
  766MOL0     H 3376   4.143   4.783  10.548 -0.6042  0.5607  1.8377
  766MOL0     H 3377   4.109   4.662  10.681  0.5674  1.4860  0.8966
  766MOL0     H 3378   4.295   4.516  10.575  2.1275  1.1683  2.1169
  766MOL0     H 3379   4.306   4.640  10.451  1.5574  0.2882  0.3988
  766MOL0     H 3380   4.332   4.683  10.747 -1.0578 -1.4493 -0.7104
  766MOL0     H 3381   4.375   4.805  10.629 -0.4720  0.5790  0.7690
  766MOL0     H 3382   4.586   4.686  10.575 -0.9513 -0.9023 -0.3810
  766MOL0     H 3383   4.518   4.543  10.651 -0.5590  0.7541  1.1403
  766MOL0     H 3384   4.635   4.786  10.772 -0.2294  0.3564 -0.2464
  766MOL0     H 3385   4.519   4.686  10.864  1.6846  0.1708  1.9714
  766MOL0     H 3386   4.774   4.594  10.734  1.9401  2.2713  1.1513
  766MOL0     H 3387   4.668   4.494  10.852  0.3782  0.8477  1.4651
  766MOL0     H 3388   4.869   4.564  10.962 -1.5334 -2.1513 -0.5649
  766MOL0     H 3389   4.822   4.733  10.921  0.4280 -0.1534 -1.5688
  766MOL0     H 3390   4.021   4.802  10.133 -1.7660 -0.0160 -2.3575
  766MOL0     H 3391   3.811   4.784   9.983  1.8364 -2.2588 -0.6494
  766MOL0     H 3392   3.517   4.681   9.653 -1.1623 -0.8634 -0.3458
  766MOL0     H 3393   3.312   4.632   9.534 -0.1218 -0.0160  0.3595
  766MOL0     H 3394   1.404   4.535  10.537  2.0387 -0.3934 -3.8238
  766MOL0     H 3395   1.180   4.499  10.635 -2.1139  0.1948 -0.9288
  766MOL0     H 3396   0.786   4.297  10.419  0.7420  3.7965 -1.1039
  766MOL0     H 3397   0.535   4.274  10.391 -1.0758 -2.3972  0.9666
  766MOL0     H 3398   0.276   4.497  10.674 -1.8239  0.4823 -1.5371
  766MOL0     H 3399   0.276   4.329  10.740 -0.5764  0.8362  0.7953
  766MOL0     H 3400   0.090   4.451  10.544  0.8611  0.0744  1.2496
  766MOL0     H 3401   0.040   4.368  10.678 -1.4158 -0.0213 -0.4250
  766MOL0     H 3402   0.161   4.160  10.586  0.9801  0.1252 -1.0356
  766MOL0     H 3403   0.163   4.240  10.428  1.6872  0.0015  0.9569
  766MOL0     H 3404  -0.051   4.097  10.500 -1.6226 -0.0193  1.5208
  766MOL0     H 3405  -0.104   4.233  10.582 -0.3669  2.1695 -1.1684
  766MOL0     H 3406  -0.225   4.363  10.222 -0.6773  0.6326  0.3316
  766MOL0     H 3407   0.481   4.424  10.782 -1.3733  3.1625 -0.9747
  766MOL0     H 3408   0.787   4.423  10.914 -0.7946  0.6541  1.3761
  766MOL0     H 3409   0.771   4.586  10.846  1.5468 -0.3302  0.7341
  766MOL0     H 3410   0.633   4.514  10.914  0.4220  1.4895  0.3307
  767MOL0     O 3411  10.758   3.104   2.278  0.1174  0.2098  0.2410
  767MOL0     C 3412  10.756   3.036   2.177 -0.6267 -0.0377 -0.0134
  767MOL0     O 3413  10.866   2.991   2.100 -0.6355  0.5202 -0.1988
  767MOL0     C 3414  11.001   3.021   2.116  0.3064  0.4977  0.3830
  767MOL0     C 3415  11.048   3.144   2.174 -0.8931 -0.1408 -0.2147
  767MOL0     C 3416  11.180   3.168   2.173  0.2607  0.1967  0.3207
  767MOL0     C 3417  11.277   3.076   2.121  0.2052 -0.2372  0.8076
  767MOL0     O 3418  11.414   3.093   2.122  0.5001  0.4940 -0.1607
  767MOL0     C 3419  11.465   3.229   2.149 -0.2323  0.9832 -0.2133
  767MOL0     C 3420  11.608   3.235   2.099 -0.2103  0.0422  0.0861
  767MOL0     C 3421  11.686   3.110   2.120  0.4469  0.1105 -0.1483
  767MOL0     C 3422  11.830   3.140   2.086  0.2524  0.4182 -0.4601
  767MOL0     C 3423  11.906   3.193   2.204 -0.5926  0.2425 -0.1495
  767MOL0     C 3424  12.043   3.242   2.154  1.1781  0.9869  0.5255
  767MOL0     C 3425  12.138   3.294   2.263  0.2927 -0.0600  0.1670
  767MOL0     C 3426  12.208   3.189   2.349 -0.5611 -0.2947 -0.1005
  767MOL0     N 3427  12.313   3.244   2.445 -0.0422  0.2915  1.0135
  767MOL0     C 3428  12.302   3.347   2.536  0.8264  0.2385  0.1460
  767MOL0     C 3429  12.425   3.389   2.553 -0.4590 -0.4400  0.0908
  767MOL0     C 3430  12.456   3.502   2.647 -0.3568  0.3811 -0.2099
  767MOL0     C 3431  12.610   3.521   2.673  0.7887  0.3246 -0.0368
  767MOL0     C 3432  12.695   3.570   2.550 -0.0940  0.1648 -1.0508
  767MOL0     C 3433  12.831   3.630   2.597  0.5283 -0.4557 -0.0654
  767MOL0     O 3434  12.908   3.529   2.672  0.3315 -0.1758  0.3417
  767MOL0     C 3435  13.046   3.551   2.670 -0.4447  0.6921 -0.8472
  767MOL0     C 3436  13.141   3.451   2.708  0.0158  0.2101  0.8303
  767MOL0     C 3437  13.285   3.477   2.700  0.3986  0.3805  0.2113
  767MOL0     C 3438  13.334   3.605   2.645 -0.0114  1.1350 -0.8622
  767MOL0     C 3439  13.481   3.636   2.628  0.5855 -0.6748  0.0737
  767MOL0     O 3440  13.568   3.527   2.631 -0.1995 -0.4519  0.2792
  767MOL0     C 3441  13.705   3.536   2.635  0.1160 -0.1864  0.1983
  767MOL0     C 3442  13.785   3.630   2.568  0.0370  0.0541  0.0848
  767MOL0     C 3443  13.924   3.629   2.585 -0.3675 -0.3372 -0.5402
  767MOL0     C 3444  13.988   3.542   2.660  0.4235  0.3200 -0.6640
  767MOL0     O 3445  14.114   3.564   2.695 -0.5846  0.0136  0.0963
  767MOL0     C 3446  14.143   3.679   2.779  1.1086 -0.5014  0.7461
  767MOL0     C 3447  14.286   3.684   2.815  0.0132 -0.1805  0.2608
  767MOL0     C 3448  14.374   3.709   2.693  0.9416  0.1200  0.2164
  767MOL0     C 3449  14.519   3.684   2.718 -0.0472 -0.3763  0.3954
  767MOL0     C 3450  14.573   3.543   2.695 -0.8700  0.4770  0.2972
  767MOL0     C 3451  14.726   3.558   2.658 -0.1256 -0.0275  0.4463
  767MOL0     C 3452  14.787   3.419   2.630 -0.1652  0.1122 -0.0301
  767MOL0     C 3453  14.938   3.421   2.638 -0.2784  0.5957  0.7168
  767MOL0    Cl 3454  15.001   3.280   2.550  0.0450  0.2211  0.0152
  767MOL0     C 3455  13.908   3.439   2.726  0.2932 -0.4252 -0.0658
  767MOL0     C 3456  13.761   3.432   2.706 -0.4497 -0.1242 -0.2150
  767MOL0     O 3457  13.516   3.756   2.605 -0.0398  0.2792  0.4227
  767MOL0     C 3458  13.243   3.699   2.628 -0.0701 -0.3269  0.1605
  767MOL0     C 3459  13.110   3.672   2.638  0.2846  0.2774 -0.6560
  767MOL0     N 3460  12.515   3.308   2.480 -0.1078  0.8559  0.4730
  767MOL0     N 3461  12.443   3.229   2.406 -0.0873  0.2982 -0.7083
  767MOL0     C 3462  11.229   2.961   2.068 -0.3145  0.2798 -0.3401
  767MOL0     C 3463  11.089   2.931   2.064 -1.2370  0.3630  0.9687
  767MOL0     C 3464  10.623   2.992   2.147 -0.6663  0.7868 -0.5206
  767MOL0     C 3465  10.526   2.979   2.253 -0.2156  0.1666  0.1139
  767MOL0     C 3466  10.403   2.933   2.229 -0.0012  0.2517 -0.3557
  767MOL0     C 3467  10.370   2.905   2.101  0.2565 -0.3649 -0.4072
  767MOL0     O 3468  10.241   2.867   2.059 -0.3323  0.2282  0.2915
  767MOL0     C 3469  10.156   2.813   2.149 -0.0226 -0.0022  0.2822
  767MOL0     C 3470  10.215   2.674   2.198  0.1855 -1.0344 -0.0587
  767MOL0     C 3471  10.211   2.582   2.087 -0.1540 -0.1928  0.4150
  767MOL0     C 3472  10.273   2.440   2.111  0.0101  0.3352  0.5770
  767MOL0     C 3473  10.272   2.363   1.990 -0.0580 -0.1329 -0.5082
  767MOL0     C 3474  10.263   2.289   1.895 -0.0397  1.0526 -0.0227
  767MOL0     C 3475  10.453   2.915   2.002 -0.2235 -0.0334  0.8696
  767MOL0     C 3476  10.584   2.950   2.025  0.0057  0.4255  0.2835
  767MOL0     C 3477  10.670   2.966   1.893  0.4245 -0.3184 -0.3781
  767MOL0     H 3478  10.986   3.226   2.208 -2.3380 -1.4348  0.3754
  767MOL0     H 3479  11.210   3.260   2.223 -1.8418 -0.1854  2.4071
  767MOL0     H 3480  11.410   3.312   2.102 -2.2381  0.4628  1.1126
  767MOL0     H 3481  11.478   3.255   2.254  1.6361  4.2620 -1.0860
  767MOL0     H 3482  11.663   3.323   2.136  2.3173 -2.0330  1.5959
  767MOL0     H 3483  11.601   3.242   1.990  0.7026 -2.5907 -0.2237
  767MOL0     H 3484  11.649   3.029   2.056  0.6315 -1.0419  1.1531
  767MOL0     H 3485  11.682   3.082   2.225 -0.6013 -0.1648 -0.2516
  767MOL0     H 3486  11.871   3.042   2.060 -1.8489 -1.2350  2.0007
  767MOL0     H 3487  11.847   3.199   1.995 -1.4380  1.8174  0.0934
  767MOL0     H 3488  11.858   3.269   2.267  1.9852  1.0630  0.9648
  767MOL0     H 3489  11.929   3.113   2.274  0.4384  1.4652  0.9876
  767MOL0     H 3490  12.086   3.153   2.106 -0.3294 -0.7826  2.3072
  767MOL0     H 3491  12.023   3.322   2.082 -0.2315  0.2813  0.0903
  767MOL0     H 3492  12.084   3.362   2.330 -1.5013 -0.8509 -0.4068
  767MOL0     H 3493  12.217   3.356   2.219  0.0155  0.5835  0.5554
  767MOL0     H 3494  12.136   3.138   2.414 -1.1150  1.3624  0.6479
  767MOL0     H 3495  12.256   3.116   2.283 -0.4061 -0.5442  0.2846
  767MOL0     H 3496  12.210   3.388   2.576  0.3668  0.1567 -0.8266
  767MOL0     H 3497  12.413   3.596   2.609  0.2168  1.0961  0.8707
  767MOL0     H 3498  12.403   3.480   2.739 -0.7304 -1.9552 -0.9285
  767MOL0     H 3499  12.616   3.607   2.740  2.7360  0.6881 -0.5942
  767MOL0     H 3500  12.644   3.420   2.694 -0.1884 -0.1626 -0.7216
  767MOL0     H 3501  12.649   3.658   2.503  0.9885  1.6810  0.5687
  767MOL0     H 3502  12.716   3.494   2.475  0.2810 -0.3321 -0.4471
  767MOL0     H 3503  12.803   3.714   2.662  1.0411  0.6259 -1.2154
  767MOL0     H 3504  12.884   3.669   2.510  0.8004  1.2493  0.8147
  767MOL0     H 3505  13.100   3.355   2.737  1.5022 -0.9509 -0.6340
  767MOL0     H 3506  13.355   3.396   2.716  0.6539  0.9202  2.1412
  767MOL0     H 3507  13.734   3.698   2.500 -0.8092 -1.1202 -0.5002
  767MOL0     H 3508  13.975   3.702   2.524  2.0169  0.0156  1.7026
  767MOL0     H 3509  14.119   3.770   2.723  0.6931 -0.6601  0.6650
  767MOL0     H 3510  14.082   3.663   2.868  1.3643 -0.6176  0.9003
  767MOL0     H 3511  14.299   3.771   2.881  2.2319  0.7472 -1.2757
  767MOL0     H 3512  14.315   3.591   2.863 -0.8789 -0.1392  0.9156
  767MOL0     H 3513  14.342   3.649   2.607  0.8573  1.3940 -0.6723
  767MOL0     H 3514  14.360   3.814   2.666 -4.0831  0.0801  1.7739
  767MOL0     H 3515  14.550   3.712   2.820  0.5869 -1.1779  0.4247
  767MOL0     H 3516  14.568   3.749   2.645  0.5950 -2.5882 -1.2283
  767MOL0     H 3517  14.528   3.497   2.606 -0.2968 -1.2928  0.8738
  767MOL0     H 3518  14.568   3.472   2.778  3.3354 -0.3656  0.0002
  767MOL0     H 3519  14.744   3.632   2.579 -0.9673 -0.0495  0.2195
  767MOL0     H 3520  14.775   3.583   2.752 -0.3346 -3.0062  1.4408
  767MOL0     H 3521  14.739   3.380   2.539 -3.4495 -0.5363  1.8315
  767MOL0     H 3522  14.769   3.353   2.715  2.9082 -2.5834 -1.2530
  767MOL0     H 3523  14.975   3.507   2.582  0.8337 -2.1307 -3.2394
  767MOL0     H 3524  14.972   3.418   2.742 -1.7228 -0.3047  1.1919
  767MOL0     H 3525  13.962   3.373   2.793 -0.6888 -2.2756 -1.0080
  767MOL0     H 3526  13.695   3.357   2.750 -3.0195  0.6953 -2.3915
  767MOL0     H 3527  13.265   3.802   2.601 -2.0638 -0.6136 -2.9557
  767MOL0     H 3528  13.039   3.753   2.628  0.5139  0.5138 -0.3912
  767MOL0     H 3529  11.298   2.889   2.023 -0.2964 -0.8755  1.4249
  767MOL0     H 3530  11.054   2.837   2.021  1.5380 -1.1833  1.8161
  767MOL0     H 3531  10.545   3.005   2.357  1.7311 -0.0004 -0.1697
  767MOL0     H 3532  10.332   2.906   2.307 -0.5672 -1.5826 -1.4591
  767MOL0     H 3533  10.067   2.784   2.094  0.9143 -4.0590  0.5899
  767MOL0     H 3534  10.127   2.874   2.235  1.3589  0.0816  0.7112
  767MOL0     H 3535  10.143   2.630   2.268  0.3911 -3.8039 -1.4469
  767MOL0     H 3536  10.315   2.692   2.239 -0.0721  1.6505 -0.4357
  767MOL0     H 3537  10.273   2.616   2.003 -0.1778  1.9176  1.1835
  767MOL0     H 3538  10.110   2.561   2.049 -0.1601 -1.4383  1.0734
  767MOL0     H 3539  10.379   2.455   2.132 -0.0017  0.9715  0.2241
  767MOL0     H 3540  10.223   2.378   2.186  0.6697 -3.5098 -1.8755
  767MOL0     H 3541  10.268   2.207   1.827  2.0710  0.8633  0.2825
  767MOL0     H 3542  10.421   2.896   1.900  3.8967  2.5875 -1.2067
  767MOL0     H 3543  10.734   2.885   1.857 -3.7096 -3.4639 -1.4378
  767MOL0     H 3544  10.598   2.967   1.811 -1.6873 -0.9531  1.3799
  767MOL0     H 3545  10.715   3.066   1.896 -1.1339  0.4323 -1.1537
  768MOL0     O 3546   7.466   7.657   6.321  0.0182 -0.1894  0.4425
  768MOL0     C 3547   7.424   7.725   6.230  0.4760  0.1543 -0.2891
  768MOL0     O 3548   7.497   7.783   6.128 -0.2062  0.2287  0.3915
  768MOL0     C 3549   7.637   7.762   6.118  1.3407  0.0033  0.1366
  768MOL0     C 3550   7.679   7.637   6.066  0.0135  1.0856 -0.2325
  768MOL0     C 3551   7.816   7.624   6.032  0.0782 -0.6638  0.4855
  768MOL0     C 3552   7.907   7.732   6.054 -0.3293 -0.9199  0.3596
  768MOL0     O 3553   8.041   7.733   6.007  0.2468  0.6350 -0.8464
  768MOL0     C 3554   8.077   7.637   5.906 -0.1275 -0.3985  0.7860
  768MOL0     C 3555   8.209   7.687   5.838 -0.8448  0.2966 -0.7740
  768MOL0     C 3556   8.327   7.628   5.915  0.6131  0.0889  0.2714
  768MOL0     C 3557   8.360   7.723   6.030  0.2758  0.3571 -0.9257
  768MOL0     C 3558   8.415   7.649   6.149  0.7479 -0.3232 -0.0119
  768MOL0     C 3559   8.562   7.613   6.153  0.3297 -0.2376  0.3962
  768MOL0     C 3560   8.612   7.505   6.059 -0.3569 -0.4118  0.3584
  768MOL0     C 3561   8.753   7.448   6.094 -1.0525 -0.2311  0.3987
  768MOL0     N 3562   8.846   7.559   6.097  0.3094 -0.2149 -0.5950
  768MOL0     C 3563   8.889   7.621   6.213  0.5620 -0.5584 -0.6709
  768MOL0     C 3564   8.986   7.711   6.172 -0.1419 -0.0301  0.0405
  768MOL0     C 3565   9.062   7.810   6.252  1.2611 -0.1990 -0.2979
  768MOL0     C 3566   9.212   7.817   6.225  0.5166  0.2233 -0.2335
  768MOL0     C 3567   9.269   7.687   6.270  0.7194 -0.4476  0.8905
  768MOL0     C 3568   9.425   7.690   6.278  0.2404  0.3884 -0.2848
  768MOL0     O 3569   9.461   7.554   6.309 -0.1758  0.5501 -0.1603
  768MOL0     C 3570   9.599   7.529   6.305  0.3757 -0.5595  0.3237
  768MOL0     C 3571   9.642   7.400   6.294 -0.2327  0.6044  0.4631
  768MOL0     C 3572   9.780   7.369   6.284 -0.5514 -0.4121  0.5117
  768MOL0     C 3573   9.880   7.463   6.310 -0.1350  0.3963 -0.6496
  768MOL0     C 3574  10.024   7.429   6.328 -0.5667  0.0817 -0.3326
  768MOL0     O 3575  10.103   7.538   6.302 -0.1604  0.3932 -0.1962
  768MOL0     C 3576  10.241   7.526   6.332 -0.6049  0.4165  0.1087
  768MOL0     C 3577  10.306   7.604   6.434 -0.0359 -0.0037 -0.1361
  768MOL0     C 3578  10.441   7.604   6.452  0.0360  0.0864  0.7823
  768MOL0     C 3579  10.524   7.511   6.377 -0.8045 -0.0182 -0.4419
  768MOL0     O 3580  10.657   7.491   6.382  0.1559 -0.1308  0.0341
  768MOL0     C 3581  10.728   7.577   6.469 -0.8234 -0.1244  0.4963
  768MOL0     C 3582  10.868   7.526   6.470 -0.3501  0.0858  0.1499
  768MOL0     C 3583  10.978   7.631   6.508  0.4854  0.4178 -0.3021
  768MOL0     C 3584  11.017   7.710   6.382 -0.1054 -0.0227 -0.0492
  768MOL0     C 3585  11.152   7.782   6.394 -0.0087  0.6292 -0.0312
  768MOL0     C 3586  11.203   7.849   6.264 -0.4232  0.2451 -0.1436
  768MOL0     C 3587  11.342   7.894   6.308  0.5095  0.0172  0.3098
  768MOL0     C 3588  11.431   7.966   6.203  0.0143 -0.4718 -0.5944
  768MOL0    Cl 3589  11.601   7.985   6.260 -0.4394  0.0200  0.1131
  768MOL0     C 3590  10.464   7.432   6.277 -0.5703 -0.0145 -0.5022
  768MOL0     C 3591  10.326   7.441   6.262  0.7612 -0.3281 -0.3096
  768MOL0     O 3592  10.062   7.317   6.356 -0.1881  0.0692 -0.1100
  768MOL0     C 3593   9.830   7.602   6.313  0.3787 -0.8454 -0.3701
  768MOL0     C 3594   9.690   7.634   6.308  0.2516 -0.0582 -0.6055
  768MOL0     N 3595   9.004   7.696   6.035 -0.5339 -0.3314 -0.4688
  768MOL0     N 3596   8.916   7.606   5.990 -1.1523 -0.5699  0.5591
  768MOL0     C 3597   7.871   7.841   6.119 -0.2115  0.2460 -0.7143
  768MOL0     C 3598   7.731   7.859   6.147 -0.8654  0.2284  0.2428
  768MOL0     C 3599   7.275   7.741   6.239  0.2558 -0.3094 -0.4537
  768MOL0     C 3600   7.208   7.859   6.193  0.8618  0.1651  0.1242
  768MOL0     C 3601   7.068   7.871   6.202  0.7013 -0.7905  0.1742
  768MOL0     C 3602   6.992   7.774   6.261  0.6679  0.2003 -0.5056
  768MOL0     O 3603   6.851   7.776   6.265  0.1921 -0.3364  0.5630
  768MOL0     C 3604   6.792   7.892   6.205  0.3426  0.0909  0.3217
  768MOL0     C 3605   6.644   7.870   6.192  0.4259 -0.1751 -0.2884
  768MOL0     C 3606   6.615   7.738   6.118 -0.0215 -0.6468 -0.0010
  768MOL0     C 3607   6.471   7.723   6.073 -0.2790  0.4503 -0.4854
  768MOL0     C 3608   6.379   7.707   6.187  0.9479 -0.5541 -0.2995
  768MOL0     C 3609   6.306   7.689   6.277 -0.9044  0.1460 -0.6324
  768MOL0     C 3610   7.050   7.660   6.299 -0.7528  0.0079  0.3031
  768MOL0     C 3611   7.189   7.646   6.305 -0.1870 -0.3924  0.1408
  768MOL0     C 3612   7.239   7.514   6.359  0.6488  0.0251 -0.5501
  768MOL0     H 3613   7.603   7.565   6.037 -0.1809  1.0293  0.3947
  768MOL0     H 3614   7.852   7.544   5.969  1.7568  2.1641 -2.4578
  768MOL0     H 3615   8.095   7.542   5.957  0.3062 -1.0625 -0.5620
  768MOL0     H 3616   8.010   7.618   5.822  0.8051 -0.2706 -0.0071
  768MOL0     H 3617   8.228   7.793   5.816  1.2972 -0.5638 -3.7977
  768MOL0     H 3618   8.224   7.645   5.738  1.0216 -2.3205  0.4954
  768MOL0     H 3619   8.412   7.628   5.847  0.5514 -1.1085  0.1665
  768MOL0     H 3620   8.310   7.523   5.940 -1.3488  0.1395 -0.6307
  768MOL0     H 3621   8.423   7.809   6.009 -0.2363  1.0931  0.4436
  768MOL0     H 3622   8.262   7.762   6.060  0.3042 -1.7477  2.4798
  768MOL0     H 3623   8.403   7.713   6.237  2.8397 -1.4517  1.1885
  768MOL0     H 3624   8.358   7.556   6.161  2.4399 -1.5915 -1.1237
  768MOL0     H 3625   8.621   7.702   6.128  0.5375 -0.5351 -0.1718
  768MOL0     H 3626   8.584   7.598   6.259 -0.6207  1.7696  0.9318
  768MOL0     H 3627   8.609   7.537   5.955 -1.6178  2.9244  1.3131
  768MOL0     H 3628   8.539   7.424   6.072  1.0269 -1.2562  4.9367
  768MOL0     H 3629   8.748   7.397   6.190 -1.7957 -0.0923  0.4359
  768MOL0     H 3630   8.788   7.365   6.032 -0.1291 -0.9221  1.7931
  768MOL0     H 3631   8.857   7.616   6.316  1.3233 -0.9980 -0.4484
  768MOL0     H 3632   9.031   7.912   6.228  0.7902 -0.3393 -0.3037
  768MOL0     H 3633   9.038   7.789   6.356  0.0451 -2.5835 -0.9868
  768MOL0     H 3634   9.243   7.832   6.121  1.0215 -4.7476 -1.0395
  768MOL0     H 3635   9.260   7.891   6.290 -1.6564 -1.7886  4.0788
  768MOL0     H 3636   9.256   7.608   6.196  1.6210 -0.0121  0.2527
  768MOL0     H 3637   9.218   7.666   6.364 -0.2841  2.3909  1.0742
  768MOL0     H 3638   9.448   7.750   6.366 -2.1000  0.7111  0.1745
  768MOL0     H 3639   9.464   7.723   6.182  0.9011 -0.9050 -0.4928
  768MOL0     H 3640   9.567   7.322   6.290 -2.4522  2.5546  1.8178
  768MOL0     H 3641   9.814   7.268   6.260 -0.8051 -0.2350 -0.6694
  768MOL0     H 3642  10.249   7.679   6.487 -0.5663  3.1475 -4.5521
  768MOL0     H 3643  10.496   7.650   6.534  0.6932  0.2413  0.2668
  768MOL0     H 3644  10.729   7.683   6.443 -0.6708 -0.4403 -0.8627
  768MOL0     H 3645  10.679   7.571   6.567 -1.5542  2.7271  0.3842
  768MOL0     H 3646  10.868   7.449   6.547 -2.2617  0.1936  0.3108
  768MOL0     H 3647  10.895   7.469   6.381  0.2572 -2.3287  1.7762
  768MOL0     H 3648  10.947   7.692   6.592 -3.8304 -0.8096 -0.7786
  768MOL0     H 3649  11.066   7.576   6.544  0.5929  0.6966 -0.1364
  768MOL0     H 3650  10.943   7.790   6.371  0.6476  0.6535 -0.3173
  768MOL0     H 3651  11.013   7.646   6.294 -0.2254  3.2081 -2.5947
  768MOL0     H 3652  11.223   7.704   6.421  0.2352  0.4055 -1.2582
  768MOL0     H 3653  11.153   7.849   6.480 -2.5902  0.2385  0.3745
  768MOL0     H 3654  11.204   7.778   6.181  0.0378  0.4664 -0.3330
  768MOL0     H 3655  11.133   7.930   6.239  1.0429  1.5236 -0.2339
  768MOL0     H 3656  11.405   7.815   6.349  1.8486  0.0996 -1.4609
  768MOL0     H 3657  11.326   7.957   6.396  0.4873 -3.4435  3.0295
  768MOL0     H 3658  11.430   7.895   6.119 -2.7646  0.5012 -1.4990
  768MOL0     H 3659  11.388   8.060   6.170  2.7165  1.4148  0.8880
  768MOL0     H 3660  10.529   7.369   6.217 -0.9157  1.9673 -3.1034
  768MOL0     H 3661  10.277   7.373   6.192 -2.1813  0.8908  0.4035
  768MOL0     H 3662   9.899   7.683   6.330  1.5223 -1.9112  0.2149
  768MOL0     H 3663   9.671   7.741   6.310 -0.1117 -0.1030  2.1083
  768MOL0     H 3664   7.952   7.910   6.140 -1.1029  0.5444  2.3949
  768MOL0     H 3665   7.693   7.957   6.173 -2.1441  0.6521 -2.7821
  768MOL0     H 3666   7.269   7.939   6.152 -0.1959  1.7857  1.5666
  768MOL0     H 3667   7.026   7.966   6.172  2.7331  0.7784  2.0372
  768MOL0     H 3668   6.830   7.917   6.106 -1.1775  0.0564 -0.3114
  768MOL0     H 3669   6.829   7.972   6.270  1.1768 -1.5169  1.9385
  768MOL0     H 3670   6.596   7.953   6.140  1.9784 -0.6476 -2.6378
  768MOL0     H 3671   6.609   7.860   6.295  0.8041  0.5632 -0.0888
  768MOL0     H 3672   6.644   7.659   6.188  0.1624 -0.1546  0.4928
  768MOL0     H 3673   6.692   7.730   6.041  2.7455  0.7170  2.3817
  768MOL0     H 3674   6.441   7.813   6.019  0.7027  0.7014 -0.6250
  768MOL0     H 3675   6.463   7.641   6.001 -2.2718  1.0529 -1.0117
  768MOL0     H 3676   6.243   7.643   6.351 -0.6025 -2.5854 -1.9840
  768MOL0     H 3677   6.983   7.581   6.331 -1.1383  1.0992  2.3388
  768MOL0     H 3678   7.317   7.482   6.289  2.5844  3.0216  0.0591
  768MOL0     H 3679   7.280   7.517   6.461  0.9288 -2.5776 -0.5088
  768MOL0     H 3680   7.162   7.436   6.356 -1.6968  2.0528  1.7490
  769MOL0     O 3681   7.913   2.042   1.642  0.4936  0.0015 -0.7780
  769MOL0     C 3682   7.828   1.960   1.618  1.0606  0.0372 -0.3027
  769MOL0     O 3683   7.705   1.986   1.568 -0.7152  0.0728 -0.3630
  769MOL0     C 3684   7.675   2.114   1.520  0.3754  0.5582 -0.5060
  769MOL0     C 3685   7.552   2.181   1.566 -0.0881  0.0163 -0.6064
  769MOL0     C 3686   7.513   2.309   1.535 -0.1811  0.3732 -0.9457
  769MOL0     C 3687   7.603   2.389   1.470  0.5122  0.0309  0.5399
  769MOL0     O 3688   7.572   2.518   1.460  0.3347 -0.1704 -0.3320
  769MOL0     C 3689   7.592   2.598   1.578 -0.3432  0.1323  0.0679
  769MOL0     C 3690   7.652   2.734   1.542  0.0320  0.4352  0.1588
  769MOL0     C 3691   7.786   2.720   1.470 -0.0536 -0.0036  0.7955
  769MOL0     C 3692   7.837   2.849   1.404  0.2748  0.2473  0.5858
  769MOL0     C 3693   7.982   2.847   1.387 -1.0578  0.1411  0.4925
  769MOL0     C 3694   8.054   2.909   1.503  0.6507 -1.0091 -1.0743
  769MOL0     C 3695   8.203   2.895   1.492  0.3860  0.1917  1.0388
  769MOL0     C 3696   8.253   2.758   1.534 -0.8536  0.0604  0.5935
  769MOL0     N 3697   8.400   2.753   1.545 -0.5241  0.1260  0.7592
  769MOL0     C 3698   8.500   2.740   1.445  0.1068 -0.1137  0.2946
  769MOL0     C 3699   8.612   2.768   1.519 -0.2252 -0.6503  0.6848
  769MOL0     C 3700   8.749   2.767   1.456 -1.0525 -0.5368 -0.1471
  769MOL0     C 3701   8.856   2.783   1.565 -0.4135  0.7608  0.3703
  769MOL0     C 3702   8.869   2.923   1.614 -0.7216  0.4063 -0.7283
  769MOL0     C 3703   8.965   2.938   1.730 -0.4418  0.2255  0.4189
  769MOL0     O 3704   9.096   2.877   1.701  1.1023  0.4622  0.0440
  769MOL0     C 3705   9.202   2.954   1.724  0.0412 -0.3266 -0.6897
  769MOL0     C 3706   9.240   2.971   1.860  0.0931 -0.0279 -0.1658
  769MOL0     C 3707   9.351   3.051   1.900 -0.7707 -0.5817 -0.7735
  769MOL0     C 3708   9.411   3.136   1.806 -0.2773 -0.3890 -0.4372
  769MOL0     C 3709   9.501   3.238   1.849 -0.2384 -0.0025 -0.7623
  769MOL0     O 3710   9.525   3.345   1.768  0.3648 -0.2871  0.0444
  769MOL0     C 3711   9.609   3.451   1.812  1.2772 -0.6189  0.9512
  769MOL0     C 3712   9.561   3.575   1.765  0.1322  0.0834 -0.0154
  769MOL0     C 3713   9.620   3.700   1.800  0.1791  0.5975  0.1214
  769MOL0     C 3714   9.730   3.697   1.886  0.6896  0.5645  0.2618
  769MOL0     O 3715   9.777   3.816   1.924  0.3307  0.1522 -0.8537
  769MOL0     C 3716   9.901   3.836   1.995 -0.0860 -0.0193  0.0500
  769MOL0     C 3717   9.957   3.971   1.966  0.2799 -0.2912 -0.1316
  769MOL0     C 3718  10.083   3.988   2.049 -0.2138 -0.2791  0.0795
  769MOL0     C 3719  10.145   4.127   2.031 -0.3160  1.0015 -0.5701
  769MOL0     C 3720  10.276   4.129   2.108 -0.8025  0.0277 -0.2463
  769MOL0     C 3721  10.355   4.253   2.092  0.0008 -0.6152 -0.0512
  769MOL0     C 3722  10.485   4.253   2.171 -0.2188  0.8179  0.2453
  769MOL0     C 3723  10.575   4.382   2.162  0.2578 -0.0550  0.2907
  769MOL0    Cl 3724  10.741   4.332   2.206  0.6598 -0.4417 -0.1956
  769MOL0     C 3725   9.773   3.572   1.941  0.0880 -0.5450  0.3933
  769MOL0     C 3726   9.716   3.450   1.908  0.1266  0.4179  0.2121
  769MOL0     O 3727   9.563   3.213   1.953 -0.5176  1.1553 -0.3761
  769MOL0     C 3728   9.373   3.120   1.670 -0.0906  0.2280 -0.8214
  769MOL0     C 3729   9.268   3.028   1.629  0.3983 -0.0647  0.1776
  769MOL0     N 3730   8.578   2.788   1.652 -0.2510 -0.3597 -0.2597
  769MOL0     N 3731   8.450   2.792   1.665  0.1980  0.5221  0.0034
  769MOL0     C 3732   7.723   2.338   1.424 -0.7669  0.1349 -0.7694
  769MOL0     C 3733   7.758   2.204   1.447  0.4459  0.0601 -1.0164
  769MOL0     C 3734   7.865   1.820   1.643 -0.1831  0.0526  1.3092
  769MOL0     C 3735   7.778   1.715   1.590 -0.5097 -1.1729 -0.1236
  769MOL0     C 3736   7.814   1.580   1.582 -0.1089 -0.7177 -0.5147
  769MOL0     C 3737   7.938   1.543   1.640 -0.0924 -0.0966 -0.1603
  769MOL0     O 3738   7.980   1.408   1.622 -0.0919  0.1732 -0.0914
  769MOL0     C 3739   8.027   1.343   1.740  0.1244 -0.7065 -0.3539
  769MOL0     C 3740   8.179   1.322   1.727  0.5816  0.3544  1.3101
  769MOL0     C 3741   8.239   1.247   1.849 -0.1915 -0.0121  0.5528
  769MOL0     C 3742   8.386   1.217   1.841  0.1196 -0.3199 -0.6167
  769MOL0     C 3743   8.469   1.334   1.822  0.0061  0.2540 -0.0057
  769MOL0     C 3744   8.553   1.423   1.799 -0.6014 -0.7232 -0.2116
  769MOL0     C 3745   8.013   1.642   1.705  0.5938  0.6292 -0.3518
  769MOL0     C 3746   7.984   1.780   1.708 -0.8465 -0.3457 -0.0611
  769MOL0     C 3747   8.096   1.872   1.764 -0.3428  1.1987 -0.4329
  769MOL0     H 3748   7.491   2.120   1.632 -0.4323  0.6036 -0.3724
  769MOL0     H 3749   7.426   2.349   1.587  0.9431 -1.8437  3.0959
  769MOL0     H 3750   7.495   2.610   1.627 -0.9154 -0.1979 -0.9449
  769MOL0     H 3751   7.660   2.550   1.648 -0.1210  1.1402  0.5618
  769MOL0     H 3752   7.661   2.809   1.620  1.5778 -1.1751  1.6288
  769MOL0     H 3753   7.577   2.784   1.481 -2.6161 -0.0882  2.7544
  769MOL0     H 3754   7.780   2.647   1.389  3.5451 -2.0338  2.1415
  769MOL0     H 3755   7.864   2.686   1.539  2.0277  0.4033 -1.2511
  769MOL0     H 3756   7.796   2.874   1.306  0.7508  2.6643  0.9402
  769MOL0     H 3757   7.819   2.940   1.461  3.2886  1.9607 -0.9126
  769MOL0     H 3758   8.017   2.743   1.382 -1.4134  0.0598 -0.6011
  769MOL0     H 3759   8.005   2.894   1.291 -1.1465 -2.4563 -0.8890
  769MOL0     H 3760   8.033   3.015   1.519  2.1547 -0.9209  0.6118
  769MOL0     H 3761   8.020   2.857   1.593  3.3320 -0.9263  0.0860
  769MOL0     H 3762   8.242   2.980   1.548 -0.0191  0.8185  0.3831
  769MOL0     H 3763   8.230   2.903   1.386  0.1050  0.1423  0.9619
  769MOL0     H 3764   8.219   2.744   1.637  0.9532 -0.0457  1.2204
  769MOL0     H 3765   8.213   2.687   1.462 -3.3113  2.8069 -0.9505
  769MOL0     H 3766   8.507   2.721   1.338  0.9689 -2.1677  0.6698
  769MOL0     H 3767   8.772   2.672   1.408  2.6281  0.6117 -0.9378
  769MOL0     H 3768   8.754   2.847   1.382  3.0872 -0.9335 -0.5071
  769MOL0     H 3769   8.835   2.710   1.644 -0.4109  2.0101  1.5712
  769MOL0     H 3770   8.952   2.760   1.518 -0.2850 -0.6337  1.2605
  769MOL0     H 3771   8.778   2.965   1.658 -1.8316  0.8110 -3.2592
  769MOL0     H 3772   8.898   2.989   1.533  1.8782 -1.0824 -1.1322
  769MOL0     H 3773   8.920   2.893   1.819 -0.5542 -0.2465  0.1227
  769MOL0     H 3774   8.977   3.041   1.765 -0.6550  0.6548 -0.7474
  769MOL0     H 3775   9.186   2.918   1.938 -1.6424  3.0034  0.8732
  769MOL0     H 3776   9.378   3.045   2.005  1.0186 -0.0738 -1.1872
  769MOL0     H 3777   9.469   3.572   1.706  0.2000 -0.4422 -0.0985
  769MOL0     H 3778   9.601   3.794   1.750  1.8301  0.7609 -0.2763
  769MOL0     H 3779   9.889   3.831   2.104  1.0249 -1.7490  0.1393
  769MOL0     H 3780   9.969   3.763   1.949  0.6359  1.9482 -2.2012
  769MOL0     H 3781   9.988   3.981   1.862 -2.5002 -0.1182 -1.0394
  769MOL0     H 3782   9.883   4.045   1.998  0.7472 -0.6964  2.0813
  769MOL0     H 3783  10.067   3.977   2.157  0.4338 -1.1162  0.1016
  769MOL0     H 3784  10.148   3.907   2.015  1.7613  2.0697 -2.1341
  769MOL0     H 3785  10.073   4.196   2.076 -1.6826 -1.0585  0.5668
  769MOL0     H 3786  10.172   4.146   1.926  1.7961 -3.3104 -1.0114
  769MOL0     H 3787  10.337   4.045   2.073 -1.1215 -0.2294 -0.1896
  769MOL0     H 3788  10.250   4.109   2.213 -0.3544 -3.2308 -0.6341
  769MOL0     H 3789  10.382   4.269   1.987  0.5144 -2.1139 -0.1712
  769MOL0     H 3790  10.285   4.332   2.121 -1.2775 -2.3954  2.0638
  769MOL0     H 3791  10.545   4.174   2.126 -2.8959 -2.4878  1.9722
  769MOL0     H 3792  10.478   4.208   2.271  1.0485 -1.5158 -0.6268
  769MOL0     H 3793  10.576   4.413   2.057 -1.5936 -0.9429 -0.0215
  769MOL0     H 3794  10.544   4.467   2.224  1.7435  2.0907 -1.7142
  769MOL0     H 3795   9.864   3.573   2.000  1.3636  0.2496 -1.5147
  769MOL0     H 3796   9.749   3.357   1.953 -0.0329  0.8686  1.3014
  769MOL0     H 3797   9.412   3.181   1.589 -2.1526 -0.4425 -2.4133
  769MOL0     H 3798   9.231   3.032   1.527  2.8783 -1.8236 -0.8904
  769MOL0     H 3799   7.790   2.407   1.374  1.4276 -1.7080 -0.5522
  769MOL0     H 3800   7.858   2.167   1.424 -0.5987 -3.1883 -0.8762
  769MOL0     H 3801   7.683   1.744   1.546 -0.1677 -0.4678 -0.4166
  769MOL0     H 3802   7.746   1.518   1.523 -1.5251  0.6888 -0.4121
  769MOL0     H 3803   7.977   1.249   1.764  0.6124  0.2081  6.3236
  769MOL0     H 3804   8.002   1.405   1.826 -2.8543 -0.8937 -0.9787
  769MOL0     H 3805   8.227   1.420   1.722  0.7213  0.2757  1.0691
  769MOL0     H 3806   8.206   1.271   1.634 -0.0768  0.7243  0.9141
  769MOL0     H 3807   8.188   1.151   1.864 -1.7091  0.9257  1.6787
  769MOL0     H 3808   8.217   1.306   1.939 -0.0939  0.3509  0.3414
  769MOL0     H 3809   8.425   1.162   1.927  0.9681  1.9421  0.5183
  769MOL0     H 3810   8.415   1.159   1.753 -0.1651 -0.6181 -0.5171
  769MOL0     H 3811   8.635   1.492   1.789 -0.1861 -1.1134  0.4264
  769MOL0     H 3812   8.111   1.616   1.743 -0.0542  1.2278  1.9055
  769MOL0     H 3813   8.122   1.947   1.689  2.7192 -1.9050 -2.7883
  769MOL0     H 3814   8.070   1.911   1.863 -1.7899  0.4921 -0.4949
  769MOL0     H 3815   8.190   1.817   1.773 -0.8853  0.5148  1.4863
  770MOL0     O 3816   8.360   3.998   8.159  0.4315 -0.5999  0.2265
  770MOL0     C 3817   8.252   3.988   8.219  0.0968  0.5214 -0.1626
  770MOL0     O 3818   8.128   4.018   8.181 -0.3903 -0.3396 -0.3099
  770MOL0     C 3819   8.115   4.097   8.068 -0.0763  0.3693 -0.0439
  770MOL0     C 3820   8.038   4.210   8.090  0.3091  0.7976  0.2379
  770MOL0     C 3821   7.985   4.280   7.986 -0.5482  0.2516  0.2122
  770MOL0     C 3822   8.028   4.250   7.857  0.0836 -0.0608  0.9477
  770MOL0     O 3823   7.983   4.316   7.743  0.4619  0.5948  0.1617
  770MOL0     C 3824   7.874   4.411   7.752  0.8531  0.2981 -0.9783
  770MOL0     C 3825   7.814   4.399   7.615  0.4722  0.1299 -0.6872
  770MOL0     C 3826   7.736   4.264   7.595 -0.4826  0.2905  0.0315
  770MOL0     C 3827   7.658   4.273   7.462 -0.0895  1.1508 -0.0715
  770MOL0     C 3828   7.607   4.130   7.437 -0.7225 -0.7064  0.0577
  770MOL0     C 3829   7.503   4.125   7.331 -0.2288 -0.0831  0.7055
  770MOL0     C 3830   7.461   3.982   7.305  0.0620  0.5911  0.4581
  770MOL0     C 3831   7.361   3.952   7.189 -0.4473  0.3305  0.0640
  770MOL0     N 3832   7.433   3.939   7.068 -0.0559 -0.6418  0.4713
  770MOL0     C 3833   7.515   4.035   7.011 -0.3343 -0.1207 -0.9298
  770MOL0     C 3834   7.549   3.984   6.890 -0.4340 -0.1115  0.6167
  770MOL0     C 3835   7.629   4.041   6.782  0.4260  0.2123 -0.1306
  770MOL0     C 3836   7.777   4.057   6.814 -0.1287  0.2739  0.3072
  770MOL0     C 3837   7.801   4.194   6.859 -0.7569  0.0441 -0.0888
  770MOL0     C 3838   7.946   4.225   6.885  0.2287  0.7053 -0.6317
  770MOL0     O 3839   7.967   4.365   6.891  0.0161 -0.0867 -0.0841
  770MOL0     C 3840   8.096   4.403   6.924  0.9000 -0.0585  0.2754
  770MOL0     C 3841   8.159   4.364   7.039  1.2472 -0.5011  0.8276
  770MOL0     C 3842   8.291   4.385   7.069 -0.1413  0.5770 -0.2834
  770MOL0     C 3843   8.378   4.452   6.979  0.0497 -0.8758 -0.7305
  770MOL0     C 3844   8.520   4.477   6.997  0.4388  0.3943 -0.0229
  770MOL0     O 3845   8.574   4.428   7.111 -0.1997  0.0460 -0.4375
  770MOL0     C 3846   8.707   4.437   7.133 -0.0264  0.2877 -0.4241
  770MOL0     C 3847   8.786   4.323   7.142  0.0683  0.4590  0.7314
  770MOL0     C 3848   8.924   4.332   7.165 -0.2620 -0.9311 -0.0837
  770MOL0     C 3849   8.983   4.461   7.186 -0.1739 -0.4369 -0.8246
  770MOL0     O 3850   9.117   4.468   7.217  0.1663  0.2271  0.8445
  770MOL0     C 3851   9.192   4.587   7.180  0.3504  0.3253 -0.6738
  770MOL0     C 3852   9.337   4.548   7.170 -0.2275  0.1618  0.3571
  770MOL0     C 3853   9.390   4.500   7.303 -0.4124  0.2708  0.4384
  770MOL0     C 3854   9.524   4.429   7.279 -0.4052  0.5219 -0.4710
  770MOL0     C 3855   9.574   4.345   7.399 -0.2401 -0.4382 -0.1411
  770MOL0     C 3856   9.697   4.264   7.362  0.4264  0.4632  0.1322
  770MOL0     C 3857   9.735   4.154   7.474  0.5352  0.2959  0.2891
  770MOL0     C 3858   9.635   4.039   7.477 -0.1568 -0.0342 -1.2325
  770MOL0    Cl 3859   9.592   3.972   7.325  0.2240  0.3187  0.1399
  770MOL0     C 3860   8.904   4.572   7.171  0.7512 -0.3310 -0.1139
  770MOL0     C 3861   8.767   4.562   7.147  0.2593  0.3961 -0.2064
  770MOL0     O 3862   8.581   4.519   6.899  0.3390 -0.1739  0.0490
  770MOL0     C 3863   8.312   4.498   6.860  0.7259  0.1534 -0.6306
  770MOL0     C 3864   8.170   4.481   6.834  0.1230  0.2553  0.6388
  770MOL0     N 3865   7.500   3.855   6.888 -0.2613  0.5664 -0.9461
  770MOL0     N 3866   7.433   3.832   6.990  0.2541 -0.7269 -0.6670
  770MOL0     C 3867   8.108   4.138   7.832 -0.0011 -0.2368 -0.2168
  770MOL0     C 3868   8.147   4.055   7.938  0.3832  0.2508 -0.9254
  770MOL0     C 3869   8.254   3.914   8.343  0.2410 -0.7567 -0.1750
  770MOL0     C 3870   8.379   3.873   8.392 -0.1367 -0.2761  0.1843
  770MOL0     C 3871   8.399   3.814   8.517 -0.4827 -0.2056  0.4659
  770MOL0     C 3872   8.296   3.763   8.584  0.5432  0.5995 -0.0224
  770MOL0     O 3873   8.327   3.698   8.702  0.1069  0.3283 -0.3408
  770MOL0     C 3874   8.220   3.638   8.768 -0.2504  0.7470 -0.7553
  770MOL0     C 3875   8.259   3.555   8.898  0.3915  0.6146  0.5874
  770MOL0     C 3876   8.380   3.462   8.870 -0.5369 -0.2587 -0.0714
  770MOL0     C 3877   8.419   3.358   8.972  0.1640 -0.2812  1.8939
  770MOL0     C 3878   8.308   3.276   9.008 -0.5672 -0.3768  0.7276
  770MOL0     C 3879   8.213   3.197   9.015 -0.3191 -0.5574  0.1829
  770MOL0     C 3880   8.164   3.782   8.526 -0.3188 -0.2670  0.0953
  770MOL0     C 3881   8.141   3.866   8.414  0.8128  0.4336 -0.1488
  770MOL0     C 3882   7.994   3.886   8.375  0.5418 -0.1806 -0.4703
  770MOL0     H 3883   8.006   4.226   8.192 -0.5965 -0.9366  0.2652
  770MOL0     H 3884   7.924   4.367   8.009  1.0347  1.5732 -0.3670
  770MOL0     H 3885   7.798   4.389   7.828  0.0424  2.1287 -1.2102
  770MOL0     H 3886   7.908   4.511   7.782  0.2914 -0.4905  2.8283
  770MOL0     H 3887   7.900   4.403   7.548  2.3658  1.8503  1.6927
  770MOL0     H 3888   7.739   4.475   7.588 -0.4528 -1.6968 -3.8290
  770MOL0     H 3889   7.660   4.249   7.672 -1.7393  4.7146 -0.0954
  770MOL0     H 3890   7.813   4.185   7.596  2.0306  2.5920 -0.5349
  770MOL0     H 3891   7.569   4.336   7.471 -0.9111  0.1522 -0.8628
  770MOL0     H 3892   7.719   4.327   7.389  2.6768  0.2124  1.3778
  770MOL0     H 3893   7.690   4.064   7.409  1.1452  1.3636  0.4361
  770MOL0     H 3894   7.562   4.105   7.533 -2.3230  1.8705  0.0576
  770MOL0     H 3895   7.418   4.185   7.361 -2.0251 -2.1219 -0.0311
  770MOL0     H 3896   7.542   4.172   7.240 -1.7917 -0.6859 -0.3147
  770MOL0     H 3897   7.418   3.946   7.399 -1.9944  2.1875  0.2082
  770MOL0     H 3898   7.548   3.918   7.293  0.4874  1.5248 -2.0175
  770MOL0     H 3899   7.317   3.853   7.206  2.4167 -0.8888  0.9145
  770MOL0     H 3900   7.285   4.031   7.189 -0.7679  0.0412  1.0001
  770MOL0     H 3901   7.527   4.139   7.038 -1.3587 -0.3160  0.3469
  770MOL0     H 3902   7.625   3.978   6.693  1.6171  2.1963 -1.6973
  770MOL0     H 3903   7.582   4.140   6.772 -3.6896 -1.5734 -0.4786
  770MOL0     H 3904   7.808   3.981   6.886 -0.6702 -0.3964 -0.1440
  770MOL0     H 3905   7.836   4.038   6.724  1.0477  0.4958  1.0067
  770MOL0     H 3906   7.747   4.212   6.953 -1.1410  0.8083 -0.4422
  770MOL0     H 3907   7.770   4.269   6.786  2.5583 -1.0663 -2.9211
  770MOL0     H 3908   8.009   4.182   6.807  1.2699  1.9558 -0.5167
  770MOL0     H 3909   7.981   4.169   6.972 -3.5081 -0.0831  0.5047
  770MOL0     H 3910   8.099   4.307   7.109  0.7644  0.5028  1.2427
  770MOL0     H 3911   8.328   4.361   7.169  1.9993  0.0385 -1.1489
  770MOL0     H 3912   8.745   4.222   7.138 -0.4217  0.6666  0.4270
  770MOL0     H 3913   8.990   4.246   7.173  1.0556  0.0574 -0.0573
  770MOL0     H 3914   9.162   4.631   7.085  2.4301  0.1956 -1.4405
  770MOL0     H 3915   9.176   4.669   7.251 -1.3767  1.0971 -1.9041
  770MOL0     H 3916   9.346   4.470   7.094 -1.6766  0.0546  0.2646
  770MOL0     H 3917   9.390   4.640   7.145  2.3416 -1.2140  0.4566
  770MOL0     H 3918   9.404   4.578   7.380 -0.5931 -1.4668  2.3158
  770MOL0     H 3919   9.318   4.432   7.349  0.9042 -2.6718 -1.5698
  770MOL0     H 3920   9.597   4.510   7.272 -0.7508  0.8080 -0.8012
  770MOL0     H 3921   9.519   4.361   7.194  0.4661 -0.1635  0.0111
  770MOL0     H 3922   9.497   4.275   7.432  2.2908 -2.7454  1.2499
  770MOL0     H 3923   9.604   4.402   7.487  1.6993 -2.9985  0.9524
  770MOL0     H 3924   9.676   4.211   7.268 -0.4134 -2.7630  1.9789
  770MOL0     H 3925   9.769   4.345   7.344 -1.1491  2.2887  1.5799
  770MOL0     H 3926   9.740   4.210   7.568 -0.8193  1.6866 -0.4205
  770MOL0     H 3927   9.830   4.103   7.455 -1.7942 -3.6777 -2.2039
  770MOL0     H 3928   9.689   3.961   7.532  1.4198  1.5823 -0.3759
  770MOL0     H 3929   9.550   4.070   7.540  1.3579 -0.3669  1.1028
  770MOL0     H 3930   8.941   4.674   7.173 -0.3714  0.1426 -1.7643
  770MOL0     H 3931   8.710   4.654   7.162  2.1731  1.1579  3.2898
  770MOL0     H 3932   8.369   4.550   6.784 -0.3030 -0.4690 -1.8794
  770MOL0     H 3933   8.126   4.504   6.738  0.9952  1.6514  0.5402
  770MOL0     H 3934   8.145   4.107   7.735  2.1308 -0.3120  0.5613
  770MOL0     H 3935   8.222   3.980   7.917  2.2128  2.3115 -2.1948
  770MOL0     H 3936   8.466   3.908   8.338 -0.0117  1.0840  1.2123
  770MOL0     H 3937   8.505   3.802   8.538 -0.1159  0.2329 -1.0354
  770MOL0     H 3938   8.175   3.569   8.697  1.6275 -1.6328  0.2513
  770MOL0     H 3939   8.140   3.712   8.784  1.2245  3.0152 -3.1005
  770MOL0     H 3940   8.176   3.487   8.922  3.1762 -2.8387  1.4394
  770MOL0     H 3941   8.271   3.618   8.987 -1.4423  1.9738 -0.0908
  770MOL0     H 3942   8.472   3.521   8.868  0.1188 -1.1938 -3.0922
  770MOL0     H 3943   8.360   3.422   8.770  0.3137  1.0995 -0.8125
  770MOL0     H 3944   8.504   3.296   8.941 -1.0446 -1.9314  1.7649
  770MOL0     H 3945   8.454   3.412   9.060 -1.3053 -0.3187  2.5254
  770MOL0     H 3946   8.134   3.124   9.023 -1.8628  0.9221 -0.8988
  770MOL0     H 3947   8.076   3.743   8.575 -1.0016 -0.8456 -1.5338
  770MOL0     H 3948   7.962   3.990   8.383 -0.8916 -0.6653  0.6013
  770MOL0     H 3949   7.978   3.850   8.273  2.1392  2.8583 -1.9191
  770MOL0     H 3950   7.939   3.829   8.451  0.0296 -0.9565 -1.4033
  771MOL0     O 3951   7.159   6.783   1.018 -0.2403 -0.5312  0.1451
  771MOL0     C 3952   7.113   6.878   0.951 -0.1987  0.3903  0.7039
  771MOL0     O 3953   7.190   6.982   0.915  0.5880  0.5245 -0.3868
  771MOL0     C 3954   7.312   7.010   0.975 -0.5953 -0.4648 -0.1541
  771MOL0     C 3955   7.314   7.022   1.117 -0.6446  0.0131  0.0880
  771MOL0     C 3956   7.439   7.046   1.177 -0.2150 -0.5722  0.3632
  771MOL0     C 3957   7.557   7.054   1.101 -0.2045 -0.2227  0.1816
  771MOL0     O 3958   7.691   7.069   1.139 -0.2110 -0.6059  1.3361
  771MOL0     C 3959   7.730   7.088   1.272  0.4560  0.2914  0.4738
  771MOL0     C 3960   7.883   7.077   1.288  1.1928  0.0900  0.2236
  771MOL0     C 3961   7.960   7.187   1.216  0.2597 -0.0898  0.0871
  771MOL0     C 3962   8.103   7.120   1.218 -0.2783 -0.5866  0.6254
  771MOL0     C 3963   8.189   7.205   1.117  0.6896  0.5853 -0.2882
  771MOL0     C 3964   8.351   7.188   1.139 -0.5049 -0.4771 -0.5288
  771MOL0     C 3965   8.385   7.219   1.288  0.3622  0.4641 -0.5020
  771MOL0     C 3966   8.530   7.214   1.330 -0.3451  0.1211  0.3914
  771MOL0     N 3967   8.593   7.080   1.317  1.1498 -0.2206  0.2658
  771MOL0     C 3968   8.532   6.968   1.368  0.2981 -0.1791  1.3998
  771MOL0     C 3969   8.599   6.863   1.319  0.5773 -0.0351  0.9929
  771MOL0     C 3970   8.566   6.717   1.338 -0.0681 -0.4790 -0.1419
  771MOL0     C 3971   8.489   6.656   1.220 -0.1117  0.6214 -0.5868
  771MOL0     C 3972   8.361   6.733   1.197  0.0697 -0.4288  0.0485
  771MOL0     C 3973   8.280   6.671   1.079 -0.0815  0.6430 -0.1406
  771MOL0     O 3974   8.181   6.768   1.039 -0.4872 -0.1847 -0.2213
  771MOL0     C 3975   8.059   6.719   0.987 -1.1471 -0.4029  0.0924
  771MOL0     C 3976   8.053   6.598   0.915 -0.0018 -0.2560 -0.7038
  771MOL0     C 3977   7.935   6.571   0.859 -0.4280  0.0603  0.3511
  771MOL0     C 3978   7.820   6.650   0.864 -0.0998  0.1232  0.0716
  771MOL0     C 3979   7.699   6.612   0.790  0.1052 -0.6847  0.0397
  771MOL0     O 3980   7.572   6.672   0.828 -0.4308 -0.1022  0.5950
  771MOL0     C 3981   7.456   6.646   0.754  0.5649  0.1007 -0.7004
  771MOL0     C 3982   7.352   6.598   0.835 -0.3292  0.3205 -0.5770
  771MOL0     C 3983   7.234   6.564   0.769 -0.6298  0.0181 -0.4177
  771MOL0     C 3984   7.222   6.575   0.634  0.0348 -0.1787 -0.4034
  771MOL0     O 3985   7.111   6.548   0.555 -0.4817  0.2378  0.2838
  771MOL0     C 3986   6.995   6.514   0.628 -0.2662 -0.0282 -0.2182
  771MOL0     C 3987   6.878   6.509   0.528  0.4654  0.3682  0.4395
  771MOL0     C 3988   6.749   6.457   0.605 -0.4434 -0.3610 -0.2226
  771MOL0     C 3989   6.624   6.459   0.515 -0.4494 -0.3510  0.3231
  771MOL0     C 3990   6.518   6.385   0.596  0.6330  0.5629  0.0186
  771MOL0     C 3991   6.375   6.374   0.536 -0.2326  0.2230  0.0805
  771MOL0     C 3992   6.311   6.518   0.534  1.0215 -0.0826  0.5428
  771MOL0     C 3993   6.288   6.572   0.671  0.3367  0.1550  0.3225
  771MOL0    Cl 3994   6.169   6.694   0.662  0.2948 -0.3552  0.1338
  771MOL0     C 3995   7.324   6.625   0.558  0.0610  0.4415  0.3721
  771MOL0     C 3996   7.445   6.659   0.617 -0.2385  0.7321 -0.4568
  771MOL0     O 3997   7.717   6.533   0.698  0.7725 -0.3949  0.2277
  771MOL0     C 3998   7.822   6.760   0.948  0.2573 -0.1361 -1.2980
  771MOL0     C 3999   7.950   6.797   0.996  0.7100 -0.0570  0.6676
  771MOL0     N 4000   8.704   6.920   1.248 -0.3412 -0.4749  0.2659
  771MOL0     N 4001   8.711   7.051   1.259 -0.9589 -0.1696  0.0733
  771MOL0     C 4002   7.545   7.041   0.962 -0.4092 -0.1705 -0.5428
  771MOL0     C 4003   7.423   7.029   0.896  0.1709  1.1675 -0.0637
  771MOL0     C 4004   6.979   6.868   0.883 -0.1518 -0.2277 -0.5755
  771MOL0     C 4005   6.936   6.955   0.778 -0.2109 -0.2885  0.7740
  771MOL0     C 4006   6.802   6.969   0.742 -0.5079 -0.3461 -0.6606
  771MOL0     C 4007   6.702   6.890   0.796 -0.4972  0.1573 -0.6336
  771MOL0     O 4008   6.570   6.900   0.770 -1.0953  0.2293  0.1347
  771MOL0     C 4009   6.520   7.020   0.720 -0.5304 -0.3089 -0.2999
  771MOL0     C 4010   6.367   7.024   0.714 -0.4672 -0.2002  0.2351
  771MOL0     C 4011   6.300   7.006   0.854 -0.4054  0.2505 -0.2779
  771MOL0     C 4012   6.155   7.039   0.853  1.0402 -1.3673 -0.1697
  771MOL0     C 4013   6.109   7.091   0.982 -0.4067 -0.7631 -0.0686
  771MOL0     C 4014   6.082   7.116   1.098 -0.1165  0.2768  0.7205
  771MOL0     C 4015   6.743   6.800   0.899  0.0672  0.0068 -1.2993
  771MOL0     C 4016   6.871   6.795   0.947  0.2094  0.2622  0.7446
  771MOL0     C 4017   6.893   6.686   1.050  0.6747  0.5441 -0.5254
  771MOL0     H 4018   7.216   7.026   1.164 -1.9174 -1.2137 -2.2894
  771MOL0     H 4019   7.440   7.052   1.285 -0.4942 -0.2930  0.3520
  771MOL0     H 4020   7.693   7.181   1.315  0.7521 -1.2064  4.3031
  771MOL0     H 4021   7.678   7.011   1.330 -1.4442  0.7569 -0.5164
  771MOL0     H 4022   7.907   6.976   1.251 -0.5562 -0.0709 -0.5937
  771MOL0     H 4023   7.894   7.088   1.396 -1.6747 -0.5444  0.6597
  771MOL0     H 4024   7.960   7.280   1.273 -0.6294 -0.0766  0.0721
  771MOL0     H 4025   7.926   7.200   1.113  1.6652 -1.0955 -0.5425
  771MOL0     H 4026   8.135   7.133   1.322  1.7008  0.9556 -0.1093
  771MOL0     H 4027   8.111   7.016   1.187 -1.3676 -0.4251 -0.2912
  771MOL0     H 4028   8.161   7.174   1.016 -1.1106 -1.4089  0.7337
  771MOL0     H 4029   8.154   7.308   1.130 -3.0986 -0.4334 -1.1152
  771MOL0     H 4030   8.383   7.088   1.110 -2.7102 -1.2979 -0.3467
  771MOL0     H 4031   8.398   7.265   1.076 -2.5601 -1.3702 -3.3473
  771MOL0     H 4032   8.325   7.153   1.351 -0.8065 -0.1283 -2.1480
  771MOL0     H 4033   8.357   7.321   1.317  0.4188 -0.2657  2.4063
  771MOL0     H 4034   8.581   7.288   1.266 -1.0773  0.1500 -0.1766
  771MOL0     H 4035   8.554   7.257   1.428 -0.8748 -0.5448  0.8213
  771MOL0     H 4036   8.442   6.959   1.428 -0.1125  2.1842  1.2685
  771MOL0     H 4037   8.660   6.663   1.349 -0.1027 -0.4320  0.3899
  771MOL0     H 4038   8.527   6.690   1.436  1.4443 -2.1743  0.0592
  771MOL0     H 4039   8.551   6.658   1.130  1.3143 -1.0921  0.2960
  771MOL0     H 4040   8.457   6.554   1.243  0.1687  0.8594  1.0288
  771MOL0     H 4041   8.374   6.840   1.180 -2.4519  0.0037  0.3211
  771MOL0     H 4042   8.299   6.733   1.288  0.7529  2.9946  0.6751
  771MOL0     H 4043   8.233   6.576   1.108  0.9413 -0.5738 -2.1900
  771MOL0     H 4044   8.348   6.650   0.995 -0.6527 -0.8286 -0.2684
  771MOL0     H 4045   8.140   6.535   0.901  1.5603  1.9543 -1.7287
  771MOL0     H 4046   7.928   6.496   0.781  1.1331  2.6434 -2.4995
  771MOL0     H 4047   7.355   6.585   0.943 -1.2952 -1.1383 -0.7017
  771MOL0     H 4048   7.160   6.517   0.833  0.5386 -0.2287  0.7901
  771MOL0     H 4049   7.004   6.414   0.673  1.9062  0.8858  1.5776
  771MOL0     H 4050   6.967   6.587   0.704 -0.9421  0.5896 -1.0389
  771MOL0     H 4051   6.847   6.607   0.491 -2.6883 -0.8424 -0.4602
  771MOL0     H 4052   6.908   6.447   0.443  2.3561 -3.5302  3.5937
  771MOL0     H 4053   6.760   6.361   0.655  2.9675  0.4978  0.9705
  771MOL0     H 4054   6.728   6.526   0.687 -3.1115 -3.0463  1.5266
  771MOL0     H 4055   6.642   6.418   0.415  1.2475 -0.3350  0.5816
  771MOL0     H 4056   6.586   6.561   0.502 -4.5168 -1.6242  0.7840
  771MOL0     H 4057   6.519   6.428   0.696 -2.6027 -2.0125  1.3575
  771MOL0     H 4058   6.553   6.282   0.608  0.7422  0.8727  3.1100
  771MOL0     H 4059   6.386   6.334   0.435 -0.3308  1.3981 -0.4145
  771MOL0     H 4060   6.311   6.308   0.594  1.1840 -0.7113  0.6469
  771MOL0     H 4061   6.217   6.503   0.480  2.2436 -0.2409 -1.6796
  771MOL0     H 4062   6.361   6.593   0.472 -1.8760  0.6357 -1.1112
  771MOL0     H 4063   6.257   6.491   0.739 -2.5025  1.2635  0.4893
  771MOL0     H 4064   6.382   6.606   0.714  0.7523 -0.2007 -0.2848
  771MOL0     H 4065   7.318   6.629   0.450 -0.7396 -3.1116  0.1644
  771MOL0     H 4066   7.532   6.692   0.561 -0.0302  0.1678 -0.4738
  771MOL0     H 4067   7.735   6.823   0.959 -1.3602 -2.6487  2.1193
  771MOL0     H 4068   7.958   6.890   1.052 -0.2024  0.6535 -0.3324
  771MOL0     H 4069   7.628   7.049   0.893  0.6049 -0.5808  0.6003
  771MOL0     H 4070   7.410   7.000   0.793 -1.6994  0.7448  0.2522
  771MOL0     H 4071   6.996   7.019   0.715  0.3700  0.7577  2.3387
  771MOL0     H 4072   6.772   7.045   0.671  1.1352  1.9910  1.0092
  771MOL0     H 4073   6.565   7.050   0.625  1.9752  2.9035  1.6736
  771MOL0     H 4074   6.550   7.096   0.794  3.5746 -2.4036  0.4719
  771MOL0     H 4075   6.325   6.959   0.636  0.8918  2.3732 -2.8437
  771MOL0     H 4076   6.341   7.125   0.681 -1.6004 -0.1778  1.1259
  771MOL0     H 4077   6.339   7.080   0.924 -0.6126  1.8386 -1.7618
  771MOL0     H 4078   6.313   6.901   0.882 -0.7712  0.7188  1.7665
  771MOL0     H 4079   6.135   7.122   0.785  2.0545 -0.7530  0.2495
  771MOL0     H 4080   6.093   6.953   0.825  1.4962 -2.5298  2.1433
  771MOL0     H 4081   6.052   7.125   1.201 -0.0341 -0.0160  0.7707
  771MOL0     H 4082   6.673   6.728   0.938  0.4536  0.7004  0.8141
  771MOL0     H 4083   6.966   6.710   1.128  1.0861 -0.4407 -0.5831
  771MOL0     H 4084   6.803   6.662   1.106  0.1134 -0.4686 -1.8117
  771MOL0     H 4085   6.919   6.595   0.994 -2.6326  0.3486 -1.9618
  772MOL0     O 4086   9.581   2.537   7.674 -0.4706  0.3124 -1.1928
  772MOL0     C 4087   9.519   2.645   7.673  0.5049 -0.7653 -1.0013
  772MOL0     O 4088   9.546   2.754   7.739 -0.5142 -0.0446  0.3131
  772MOL0     C 4089   9.655   2.778   7.820  0.5527  1.2367  0.1558
  772MOL0     C 4090   9.649   2.747   7.959 -0.5882 -0.5677  0.0759
  772MOL0     C 4091   9.761   2.777   8.027 -0.2845  0.5268  0.0291
  772MOL0     C 4092   9.873   2.831   7.969  0.3397 -1.3689 -0.5465
  772MOL0     O 4093   9.982   2.868   8.035 -0.6670  0.0663  0.3580
  772MOL0     C 4094   9.985   2.868   8.176  1.6156  0.6630 -0.4921
  772MOL0     C 4095  10.121   2.916   8.225  0.5839  0.7865 -0.5066
  772MOL0     C 4096  10.129   3.073   8.234  0.9964 -0.2104 -0.0216
  772MOL0     C 4097  10.232   3.097   8.337 -0.2115 -0.6690 -0.0438
  772MOL0     C 4098  10.294   3.237   8.310  0.6448  0.5012 -0.0192
  772MOL0     C 4099  10.409   3.283   8.391  0.3503  0.0837 -0.4342
  772MOL0     C 4100  10.372   3.353   8.527 -0.2556 -0.3739 -0.2238
  772MOL0     C 4101  10.469   3.328   8.642  0.2221 -0.8105  0.6987
  772MOL0     N 4102  10.613   3.367   8.625  0.3702  0.8954  0.3486
  772MOL0     C 4103  10.670   3.473   8.695 -0.3844  0.5659 -0.8324
  772MOL0     C 4104  10.782   3.505   8.630 -1.3606  0.0814  0.2583
  772MOL0     C 4105  10.882   3.615   8.673  0.0713  0.2968 -0.4775
  772MOL0     C 4106  10.933   3.608   8.815  0.0829  0.8119  0.0579
  772MOL0     C 4107  10.997   3.470   8.853  1.1028 -0.1015  0.1259
  772MOL0     C 4108  11.126   3.447   8.770  0.2461 -0.0160 -0.3991
  772MOL0     O 4109  11.202   3.335   8.821  0.3988  0.2544 -0.5756
  772MOL0     C 4110  11.323   3.305   8.753  1.2251  0.0302 -0.6265
  772MOL0     C 4111  11.384   3.375   8.646 -0.5902  0.6076 -0.1638
  772MOL0     C 4112  11.514   3.343   8.601  0.3217 -0.2162 -0.9155
  772MOL0     C 4113  11.586   3.234   8.655 -0.2986  0.1328 -0.4569
  772MOL0     C 4114  11.711   3.187   8.606 -0.8251  0.2840 -0.6695
  772MOL0     O 4115  11.765   3.081   8.676  0.5016  0.1786 -0.1772
  772MOL0     C 4116  11.893   3.047   8.632 -0.8317  0.0527 -0.1206
  772MOL0     C 4117  11.926   2.932   8.561  0.5788  0.5684 -0.4446
  772MOL0     C 4118  12.053   2.893   8.531 -0.3807  0.5126  0.3090
  772MOL0     C 4119  12.162   2.985   8.547  1.0148  0.0684  0.3195
  772MOL0     O 4120  12.279   2.940   8.490 -0.0607 -0.1770  0.1002
  772MOL0     C 4121  12.378   3.033   8.449 -0.1966  0.4190 -0.4836
  772MOL0     C 4122  12.482   3.073   8.559 -0.2804 -1.1863  0.5076
  772MOL0     C 4123  12.557   3.206   8.536  0.5433  0.2357  0.0693
  772MOL0     C 4124  12.638   3.231   8.654  0.6762  0.0970 -0.3560
  772MOL0     C 4125  12.686   3.372   8.651 -1.0057 -0.6155  0.1717
  772MOL0     C 4126  12.798   3.386   8.748 -0.1999 -0.4745 -0.3858
  772MOL0     C 4127  12.877   3.517   8.746  0.4832 -0.3106  0.5127
  772MOL0     C 4128  12.958   3.529   8.868 -0.1316  0.7336 -0.1290
  772MOL0    Cl 4129  13.076   3.406   8.869 -0.3610  0.2823 -0.4754
  772MOL0     C 4130  12.134   3.109   8.610  0.0407 -0.4293  0.2065
  772MOL0     C 4131  11.999   3.138   8.652  0.1246  0.1455 -0.8824
  772MOL0     O 4132  11.763   3.241   8.513  0.1559 -0.8314 -0.7782
  772MOL0     C 4133  11.519   3.163   8.762  0.5071  0.9438 -0.4498
  772MOL0     C 4134  11.398   3.202   8.813 -0.0555 -0.8281  0.1939
  772MOL0     N 4135  10.795   3.423   8.517  0.1587 -0.1234  0.2578
  772MOL0     N 4136  10.686   3.347   8.508 -0.0782 -0.2402  0.0267
  772MOL0     C 4137   9.882   2.851   7.834  0.6759 -0.7501  0.2692
  772MOL0     C 4138   9.772   2.833   7.752 -0.1275 -0.4913 -0.2094
  772MOL0     C 4139   9.387   2.652   7.614 -0.5195 -0.3579 -0.0391
  772MOL0     C 4140   9.269   2.629   7.690 -0.4399 -0.7120  0.3367
  772MOL0     C 4141   9.140   2.655   7.643 -0.2134 -0.8032 -0.3999
  772MOL0     C 4142   9.126   2.690   7.505  0.7664 -0.7907  0.3035
  772MOL0     O 4143   8.993   2.703   7.470 -0.5036 -0.5003 -0.4694
  772MOL0     C 4144   8.950   2.690   7.333  0.1841  0.6347  0.1835
  772MOL0     C 4145   8.992   2.553   7.279 -0.3637  0.1852 -0.5804
  772MOL0     C 4146   8.914   2.441   7.351 -0.7168 -0.6360 -0.0704
  772MOL0     C 4147   8.976   2.304   7.332  0.2595  0.2849 -1.3752
  772MOL0     C 4148   9.095   2.284   7.408  0.7266  0.0566 -0.3552
  772MOL0     C 4149   9.204   2.262   7.452 -0.7155 -0.0589 -0.2922
  772MOL0     C 4150   9.240   2.708   7.422 -0.1298 -1.0334 -0.2658
  772MOL0     C 4151   9.374   2.698   7.480 -0.4052 -0.8944  0.0232
  772MOL0     C 4152   9.494   2.743   7.394 -0.0244 -0.2121 -0.1662
  772MOL0     H 4153   9.566   2.697   8.007 -3.1006  1.4482 -1.9003
  772MOL0     H 4154   9.762   2.767   8.135 -0.1838  0.8999  0.0629
  772MOL0     H 4155   9.915   2.938   8.223  1.9650 -0.5062  1.9771
  772MOL0     H 4156   9.962   2.776   8.230 -3.3807  3.1129  2.2738
  772MOL0     H 4157  10.203   2.879   8.163 -0.4193  0.8789 -1.9543
  772MOL0     H 4158  10.137   2.879   8.327 -0.9588  0.7616 -0.2480
  772MOL0     H 4159  10.034   3.116   8.267  0.0966 -2.5833  0.7450
  772MOL0     H 4160  10.151   3.113   8.135 -1.8774 -2.1588 -1.6095
  772MOL0     H 4161  10.199   3.090   8.441 -0.3607 -1.8858 -0.1590
  772MOL0     H 4162  10.306   3.018   8.326  0.5934 -0.0775  0.8976
  772MOL0     H 4163  10.329   3.245   8.207 -0.9749  3.9810 -0.4415
  772MOL0     H 4164  10.216   3.314   8.312 -0.8826 -0.9537 -0.8082
  772MOL0     H 4165  10.462   3.192   8.420  0.9998  0.7035  0.3701
  772MOL0     H 4166  10.476   3.349   8.335  1.5401 -1.0191 -0.3642
  772MOL0     H 4167  10.272   3.322   8.560  0.1008  0.2967  1.5915
  772MOL0     H 4168  10.382   3.461   8.517 -0.7340  0.3231  4.6227
  772MOL0     H 4169  10.434   3.394   8.722  0.7169  1.0146 -0.5275
  772MOL0     H 4170  10.450   3.226   8.677 -1.9415 -0.4048  0.8951
  772MOL0     H 4171  10.635   3.518   8.787 -2.3947 -1.0292 -0.7464
  772MOL0     H 4172  10.970   3.617   8.608  0.7966  1.3874  0.4903
  772MOL0     H 4173  10.831   3.710   8.656  0.0205 -0.0263 -2.2382
  772MOL0     H 4174  11.008   3.682   8.845  0.3211  0.0900  1.2718
  772MOL0     H 4175  10.845   3.612   8.879  1.4396 -2.8302  2.4384
  772MOL0     H 4176  10.933   3.383   8.832  0.9966  0.0074 -0.0081
  772MOL0     H 4177  11.022   3.476   8.959 -1.0379 -0.5035  0.7101
  772MOL0     H 4178  11.187   3.531   8.805 -1.0819 -0.0723  2.3163
  772MOL0     H 4179  11.099   3.438   8.665 -1.2236 -0.9713  0.0348
  772MOL0     H 4180  11.339   3.463   8.602 -1.5553  2.4009  4.0040
  772MOL0     H 4181  11.548   3.394   8.512  0.3918  2.0070  0.3117
  772MOL0     H 4182  11.848   2.860   8.540  2.2543 -1.1407 -1.0339
  772MOL0     H 4183  12.068   2.801   8.474  1.1482  0.3773  0.8718
  772MOL0     H 4184  12.435   2.990   8.367  3.0763  1.9115  0.8460
  772MOL0     H 4185  12.327   3.127   8.425  0.3774  0.8505 -0.0335
  772MOL0     H 4186  12.436   3.076   8.659 -1.0632 -0.1376  0.1320
  772MOL0     H 4187  12.560   2.998   8.550 -0.7564 -1.6785  0.4542
  772MOL0     H 4188  12.604   3.206   8.437 -0.7448 -0.0072 -0.5723
  772MOL0     H 4189  12.481   3.284   8.538  1.8917  1.5606  1.7207
  772MOL0     H 4190  12.713   3.152   8.659 -0.8504 -1.4037 -0.2461
  772MOL0     H 4191  12.575   3.224   8.743  1.6708  2.6573  0.6403
  772MOL0     H 4192  12.608   3.440   8.686  2.0214  2.4807  1.4505
  772MOL0     H 4193  12.723   3.386   8.549  0.8593 -0.2890  0.8542
  772MOL0     H 4194  12.763   3.369   8.850  2.8020 -0.4523  0.7670
  772MOL0     H 4195  12.865   3.306   8.714 -0.7569 -0.5580 -1.3351
  772MOL0     H 4196  12.797   3.591   8.752 -0.3092 -1.1948  1.0059
  772MOL0     H 4197  12.939   3.533   8.657  0.9903  0.3034  0.9608
  772MOL0     H 4198  13.004   3.628   8.860  0.0459  0.5231 -2.1594
  772MOL0     H 4199  12.902   3.513   8.961 -0.7682  0.3020 -0.5802
  772MOL0     H 4200  12.221   3.174   8.614 -0.7391  0.7480 -1.2209
  772MOL0     H 4201  11.977   3.232   8.701 -1.4638 -1.5643  1.9263
  772MOL0     H 4202  11.566   3.075   8.805 -0.2873  0.0863 -1.2947
  772MOL0     H 4203  11.355   3.153   8.900  0.1290  0.6104  1.1360
  772MOL0     H 4204   9.965   2.895   7.781 -1.3338  2.4728 -0.4297
  772MOL0     H 4205   9.775   2.867   7.649  0.8559  2.4473  0.6923
  772MOL0     H 4206   9.282   2.605   7.795  1.7445 -0.0758  0.2702
  772MOL0     H 4207   9.047   2.645   7.697 -1.0994 -0.4478 -1.7871
  772MOL0     H 4208   9.002   2.762   7.269 -0.8310  0.2263 -1.1614
  772MOL0     H 4209   8.842   2.705   7.322  0.1751 -0.0244 -0.7416
  772MOL0     H 4210   9.100   2.542   7.294  0.0280  0.5310 -2.7935
  772MOL0     H 4211   8.963   2.545   7.174 -2.5979 -0.7799  0.0651
  772MOL0     H 4212   8.811   2.445   7.316 -1.0818  1.8338  1.0450
  772MOL0     H 4213   8.902   2.461   7.458 -2.2371  1.1105 -0.5140
  772MOL0     H 4214   8.905   2.231   7.373  2.0829 -0.0579  1.5146
  772MOL0     H 4215   9.004   2.280   7.229  1.9371  2.6853 -1.5632
  772MOL0     H 4216   9.304   2.240   7.485 -0.7213 -0.6278 -0.6448
  772MOL0     H 4217   9.235   2.746   7.321 -0.3133 -0.0576  0.1045
  772MOL0     H 4218   9.557   2.808   7.456 -2.4527 -0.2845  2.5542
  772MOL0     H 4219   9.554   2.655   7.369 -1.4696 -1.4709  0.6194
  772MOL0     H 4220   9.455   2.795   7.306 -1.7766 -1.5183 -0.2023
  773MOL0     O 4221   2.769   9.034  10.421 -0.1486 -0.2323  0.2685
  773MOL0     C 4222   2.676   9.117  10.398  0.5795 -0.8886  0.0363
  773MOL0     O 4223   2.683   9.234  10.319  0.1958  0.9071 -0.0028
  773MOL0     C 4224   2.796   9.254  10.254 -1.2322  0.1001 -0.3329
  773MOL0     C 4225   2.920   9.248  10.317 -0.0137  0.1017 -0.2075
  773MOL0     C 4226   3.035   9.266  10.246  1.0339 -0.4793  0.3353
  773MOL0     C 4227   3.038   9.288  10.115  1.0981  0.1093  0.6345
  773MOL0     O 4228   3.153   9.316  10.050  0.0081  0.2362  0.8395
  773MOL0     C 4229   3.286   9.293  10.099 -0.2845 -1.2902  0.3961
  773MOL0     C 4230   3.383   9.312   9.981 -0.1358 -0.5253 -0.2369
  773MOL0     C 4231   3.530   9.324  10.040  0.0263  0.0996  0.1834
  773MOL0     C 4232   3.573   9.462  10.092  1.4072 -0.4552  0.4110
  773MOL0     C 4233   3.683   9.454  10.196 -0.7719 -0.4040  0.1123
  773MOL0     C 4234   3.815   9.390  10.153 -0.0473  0.1241 -0.3405
  773MOL0     C 4235   3.931   9.396  10.260  0.1772 -0.5436  0.3427
  773MOL0     C 4236   4.055   9.331  10.205 -0.6832 -0.5275  0.5557
  773MOL0     N 4237   4.060   9.185  10.234 -0.0706  0.2453  0.5718
  773MOL0     C 4238   3.960   9.092  10.241  0.1968 -0.1175  0.9901
  773MOL0     C 4239   4.020   8.984  10.289  0.3268  0.2691 -1.2106
  773MOL0     C 4240   3.949   8.850  10.319  1.2027  0.7782  0.0543
  773MOL0     C 4241   3.947   8.755  10.200  0.4689  0.2220 -0.1577
  773MOL0     C 4242   4.096   8.710  10.168 -0.1341  0.1190 -0.2534
  773MOL0     C 4243   4.092   8.656  10.028  0.3039 -0.1750 -0.3166
  773MOL0     O 4244   4.228   8.670   9.979  0.3102 -0.3005  0.4800
  773MOL0     C 4245   4.238   8.651   9.842  0.4676  0.5414  0.8322
  773MOL0     C 4246   4.367   8.625   9.797  0.2138  0.8300  0.4670
  773MOL0     C 4247   4.401   8.607   9.657  0.6498  0.4453  0.3106
  773MOL0     C 4248   4.296   8.605   9.558  0.0648 -0.1220  0.4467
  773MOL0     C 4249   4.320   8.603   9.408 -0.9395  1.1091 -0.1574
  773MOL0     O 4250   4.224   8.583   9.311 -0.1507  0.3675  0.0147
  773MOL0     C 4251   4.232   8.606   9.178  0.6083  0.2037 -0.5362
  773MOL0     C 4252   4.123   8.552   9.102 -0.3407  0.1738  0.2536
  773MOL0     C 4253   4.111   8.576   8.968 -0.2860  0.4014  0.4251
  773MOL0     C 4254   4.206   8.644   8.894  0.0902  0.1118 -0.0178
  773MOL0     O 4255   4.182   8.663   8.762 -0.1417  0.7486  0.1960
  773MOL0     C 4256   4.297   8.647   8.673 -0.3758  0.7561  0.3166
  773MOL0     C 4257   4.320   8.757   8.569  0.4064 -0.7705  1.0928
  773MOL0     C 4258   4.460   8.740   8.512 -0.6787  0.6541  0.3513
  773MOL0     C 4259   4.490   8.843   8.409  0.4511 -0.5830  0.2376
  773MOL0     C 4260   4.626   8.822   8.349  0.3039 -0.0713  0.6109
  773MOL0     C 4261   4.737   8.824   8.460 -0.0030  0.0254 -1.1146
  773MOL0     C 4262   4.881   8.838   8.398 -0.3313  0.2073 -0.5600
  773MOL0     C 4263   4.984   8.874   8.510  0.5186 -0.7032 -0.0301
  773MOL0    Cl 4264   5.148   8.893   8.436  0.1071  0.1453 -0.4171
  773MOL0     C 4265   4.311   8.699   8.966 -0.0242 -0.8141  0.2019
  773MOL0     C 4266   4.326   8.691   9.108  0.5464 -0.0715 -0.3639
  773MOL0     O 4267   4.438   8.620   9.386 -0.1054  0.6242  0.7569
  773MOL0     C 4268   4.165   8.633   9.607  0.4621  0.0068  0.1602
  773MOL0     C 4269   4.140   8.654   9.744 -0.0492 -0.0915  0.3254
  773MOL0     N 4270   4.149   9.004  10.304 -0.3486 -0.7760 -0.2491
  773MOL0     N 4271   4.179   9.129  10.267 -0.6968 -0.3925 -0.1301
  773MOL0     C 4272   2.916   9.299  10.048 -0.8538 -0.3305  0.2445
  773MOL0     C 4273   2.792   9.291  10.118 -0.2296  0.2324 -0.3471
  773MOL0     C 4274   2.550   9.101  10.478  0.4466  0.2708  0.6559
  773MOL0     C 4275   2.465   9.213  10.475  0.7834  0.4448  0.5373
  773MOL0     C 4276   2.334   9.205  10.535 -0.4283 -0.2585 -0.1087
  773MOL0     C 4277   2.300   9.089  10.607  1.1357 -0.1532 -0.0449
  773MOL0     O 4278   2.179   9.076  10.668  0.5580 -0.6887 -0.6284
  773MOL0     C 4279   2.062   9.092  10.590  0.6608 -1.1718  0.1033
  773MOL0     C 4280   1.976   9.184  10.669 -0.3735  0.0951  0.5091
  773MOL0     C 4281   1.835   9.207  10.622 -0.3241 -0.1977 -0.4699
  773MOL0     C 4282   1.831   9.273  10.484 -0.3384  0.0729  0.7095
  773MOL0     C 4283   1.691   9.306  10.447 -0.1494  0.0650 -0.3050
  773MOL0     C 4284   1.573   9.335  10.428  0.6520 -0.0270 -0.3573
  773MOL0     C 4285   2.391   8.983  10.617  0.9246 -0.6047  0.1112
  773MOL0     C 4286   2.516   8.983  10.554  0.3665 -0.8444 -0.4172
  773MOL0     C 4287   2.603   8.858  10.574 -0.1807 -0.2577  0.0001
  773MOL0     H 4288   2.932   9.231  10.424  1.0073  1.0417 -0.1609
  773MOL0     H 4289   3.125   9.266  10.307  2.6355 -1.6198 -1.8962
  773MOL0     H 4290   3.303   9.358  10.185  2.3755 -1.2267 -0.1148
  773MOL0     H 4291   3.298   9.186  10.122 -1.4981 -1.7725 -1.0371
  773MOL0     H 4292   3.364   9.406   9.928 -0.4288 -1.1243 -1.2198
  773MOL0     H 4293   3.390   9.223   9.917 -1.7348  0.6034 -2.0923
  773MOL0     H 4294   3.602   9.290   9.965  0.6172  0.0310  0.7618
  773MOL0     H 4295   3.536   9.256  10.126  0.1760 -0.5029 -0.3037
  773MOL0     H 4296   3.625   9.525  10.018 -0.3100 -1.9645 -2.2688
  773MOL0     H 4297   3.492   9.515  10.142  1.7001 -1.2109  1.7216
  773MOL0     H 4298   3.705   9.556  10.228 -3.0242  0.2403 -0.1588
  773MOL0     H 4299   3.647   9.405  10.287  1.3633  1.4917  2.1147
  773MOL0     H 4300   3.804   9.283  10.135  0.8826  0.1724 -1.3024
  773MOL0     H 4301   3.845   9.438  10.059  2.4098 -0.6395 -0.0116
  773MOL0     H 4302   3.898   9.356  10.356  4.8691 -3.0287  1.2009
  773MOL0     H 4303   3.948   9.503  10.274 -0.7765 -0.6361  2.4889
  773MOL0     H 4304   4.066   9.335  10.096 -2.9942  0.9472  0.3059
  773MOL0     H 4305   4.140   9.391  10.237 -1.5766  0.9388  0.2552
  773MOL0     H 4306   3.856   9.102  10.212  0.1903  0.7271  1.2810
  773MOL0     H 4307   3.998   8.797  10.401 -1.1061 -2.0930 -0.2671
  773MOL0     H 4308   3.849   8.873  10.357  1.9287  3.3142  0.6245
  773MOL0     H 4309   3.882   8.670  10.223 -0.4220  1.1130  0.7053
  773MOL0     H 4310   3.912   8.806  10.110  0.0071 -1.4915 -1.0097
  773MOL0     H 4311   4.138   8.640  10.240  1.7455  2.0526  0.6357
  773MOL0     H 4312   4.172   8.789  10.178  0.8436 -1.0792  3.0852
  773MOL0     H 4313   4.032   8.727   9.970 -0.2006 -0.8253 -0.5937
  773MOL0     H 4314   4.058   8.552  10.026 -1.5308  0.3804  0.3093
  773MOL0     H 4315   4.444   8.618   9.873 -0.1206 -0.7308  0.7036
  773MOL0     H 4316   4.507   8.603   9.633  0.9970 -0.4987  1.8454
  773MOL0     H 4317   4.055   8.488   9.158  0.0794 -1.1577 -0.7199
  773MOL0     H 4318   4.016   8.553   8.920 -0.2216  0.2981  0.3470
  773MOL0     H 4319   4.385   8.644   8.737 -1.0978  1.0671  1.3642
  773MOL0     H 4320   4.292   8.550   8.624  0.3361  1.3075 -0.9008
  773MOL0     H 4321   4.246   8.753   8.488  2.0287 -0.2367 -0.4758
  773MOL0     H 4322   4.318   8.856   8.614  1.5258  0.6146 -1.6600
  773MOL0     H 4323   4.530   8.751   8.595  1.6521 -0.8672 -1.3093
  773MOL0     H 4324   4.471   8.641   8.467  2.3407  1.3946 -0.7303
  773MOL0     H 4325   4.496   8.944   8.451 -0.7323 -0.8454  1.0976
  773MOL0     H 4326   4.412   8.842   8.332  0.7806  0.6250 -0.1349
  773MOL0     H 4327   4.647   8.887   8.264  0.3578 -3.4094 -2.1184
  773MOL0     H 4328   4.622   8.726   8.296 -0.3540  0.5073 -0.4259
  773MOL0     H 4329   4.723   8.913   8.522  3.1970  0.9431 -1.5417
  773MOL0     H 4330   4.745   8.733   8.520  0.9810 -0.6697 -2.2574
  773MOL0     H 4331   4.879   8.922   8.328  0.0091  1.4092  0.8248
  773MOL0     H 4332   4.917   8.748   8.349 -0.1462 -0.1660  0.2470
  773MOL0     H 4333   4.949   8.966   8.559  1.1681 -1.0295  1.0755
  773MOL0     H 4334   4.995   8.804   8.593 -0.7358  0.3153  1.0354
  773MOL0     H 4335   4.390   8.758   8.920  1.2089 -2.2891  0.3337
  773MOL0     H 4336   4.405   8.730   9.171 -1.7993 -0.9483  3.4980
  773MOL0     H 4337   4.085   8.647   9.535 -0.4071  2.1513  1.4319
  773MOL0     H 4338   4.039   8.682   9.773  0.1880  1.8116 -0.5548
  773MOL0     H 4339   2.918   9.314   9.941  0.5181 -2.0085 -0.0075
  773MOL0     H 4340   2.695   9.316  10.078  0.7889  1.8987 -1.9350
  773MOL0     H 4341   2.488   9.304  10.422 -2.2922  2.0864  1.7248
  773MOL0     H 4342   2.263   9.287  10.542  2.2087  2.1246  0.1656
  773MOL0     H 4343   2.014   8.995  10.574 -1.6307  0.1912 -2.1713
  773MOL0     H 4344   2.083   9.117  10.485  2.1958 -1.7192  0.2492
  773MOL0     H 4345   2.026   9.282  10.675  1.5445 -0.8488  0.7068
  773MOL0     H 4346   1.979   9.146  10.772 -2.5869  2.2168  1.4583
  773MOL0     H 4347   1.786   9.277  10.690  0.9675  1.1088 -0.8300
  773MOL0     H 4348   1.783   9.111  10.631  0.4422 -0.6702 -0.9670
  773MOL0     H 4349   1.888   9.366  10.473 -1.3604  0.5912 -0.5478
  773MOL0     H 4350   1.859   9.207  10.401  0.4498 -0.3783  1.3320
  773MOL0     H 4351   1.468   9.344  10.409  0.6295 -2.5532 -2.0268
  773MOL0     H 4352   2.369   8.896  10.677  2.3460 -0.3533  1.0410
  773MOL0     H 4353   2.562   8.803  10.658  0.7064 -2.4401 -0.9285
  773MOL0     H 4354   2.593   8.803  10.480  1.5235 -0.8197  0.1144
  773MOL0     H 4355   2.708   8.877  10.598 -0.1195  2.2635 -1.8025
  774MOL0     O 4356   7.828   6.716   3.367  0.4737  0.3063  0.6508
  774MOL0     C 4357   7.845   6.616   3.434 -1.0594 -0.2049  0.3883
  774MOL0     O 4358   7.966   6.584   3.494 -0.2005 -0.3333  0.4288
  774MOL0     C 4359   8.076   6.662   3.467 -0.7453 -0.7466  0.4258
  774MOL0     C 4360   8.193   6.588   3.441  0.6779  0.1595 -0.0864
  774MOL0     C 4361   8.318   6.651   3.425 -0.1685  0.6668  1.1338
  774MOL0     C 4362   8.320   6.792   3.432  0.1516 -0.6625 -0.2188
  774MOL0     O 4363   8.437   6.868   3.423  0.1468  0.2181 -0.1324
  774MOL0     C 4364   8.563   6.812   3.481 -0.0371 -0.5339  0.1550
  774MOL0     C 4365   8.651   6.923   3.535  0.1797  1.0563  0.9605
  774MOL0     C 4366   8.791   6.859   3.562  0.0310 -0.1718  0.4740
  774MOL0     C 4367   8.893   6.962   3.629 -0.3009 -0.0707  0.2787
  774MOL0     C 4368   9.037   6.909   3.602 -0.3025  0.4989 -0.1942
  774MOL0     C 4369   9.069   6.773   3.668  0.0460  0.2973 -1.2610
  774MOL0     C 4370   9.064   6.779   3.823 -0.2116  0.5409  0.9410
  774MOL0     C 4371   9.125   6.652   3.878  0.2017  0.5067  1.1475
  774MOL0     N 4372   9.263   6.682   3.914  0.5929  0.5291  0.0107
  774MOL0     C 4373   9.329   6.707   4.030  0.7745 -0.6737  0.1832
  774MOL0     C 4374   9.457   6.719   4.013  0.6803 -1.0947 -0.0300
  774MOL0     C 4375   9.565   6.771   4.107 -0.6159  0.6348 -0.4678
  774MOL0     C 4376   9.544   6.727   4.251 -0.0418 -0.2007 -0.2488
  774MOL0     C 4377   9.622   6.802   4.354  0.0585 -0.5649 -0.1866
  774MOL0     C 4378   9.778   6.801   4.339 -0.3326 -0.8736  0.3519
  774MOL0     O 4379   9.830   6.897   4.425 -0.4464 -0.1572  0.0686
  774MOL0     C 4380   9.957   6.899   4.451  0.2273 -0.0815  0.1358
  774MOL0     C 4381  10.009   7.019   4.506  0.3301  0.3382 -0.0016
  774MOL0     C 4382  10.147   7.035   4.538 -0.5458 -0.1412  0.3785
  774MOL0     C 4383  10.235   6.931   4.513 -0.3888 -0.1558 -1.3126
  774MOL0     C 4384  10.378   6.937   4.552  0.3564  0.3359 -0.1208
  774MOL0     O 4385  10.459   6.865   4.473  0.5074  0.5081 -0.2628
  774MOL0     C 4386  10.595   6.844   4.501 -0.6948  0.2168  0.0299
  774MOL0     C 4387  10.648   6.841   4.637  0.3039 -1.1717 -0.1510
  774MOL0     C 4388  10.783   6.822   4.654  0.8788 -0.2564  0.5324
  774MOL0     C 4389  10.869   6.814   4.536  0.0016  0.5456  0.1004
  774MOL0     O 4390  11.001   6.778   4.553  0.0741 -0.1360 -0.3578
  774MOL0     C 4391  11.081   6.828   4.660  0.0026  0.8022  0.6845
  774MOL0     C 4392  11.230   6.816   4.617  0.8728  0.3984 -0.3486
  774MOL0     C 4393  11.326   6.812   4.732  0.0860  0.2339  0.6119
  774MOL0     C 4394  11.462   6.794   4.678 -0.4556 -0.5795  0.0231
  774MOL0     C 4395  11.567   6.807   4.794 -0.2344 -0.6564  0.3538
  774MOL0     C 4396  11.709   6.790   4.752  0.3025  0.0287  0.0594
  774MOL0     C 4397  11.807   6.810   4.870  0.6582  0.1434  0.4729
  774MOL0     C 4398  11.957   6.758   4.839  0.3789 -0.3904  1.1974
  774MOL0    Cl 4399  12.048   6.733   4.975  0.0095  0.1347  0.1694
  774MOL0     C 4400  10.810   6.824   4.404 -0.7330  0.1511 -0.0728
  774MOL0     C 4401  10.676   6.837   4.389  0.7960 -0.0308 -0.3282
  774MOL0     O 4402  10.408   7.025   4.632 -0.7707  0.2248  0.1205
  774MOL0     C 4403  10.188   6.813   4.456 -0.0730  0.2195 -0.4854
  774MOL0     C 4404  10.053   6.799   4.428  0.2517 -0.2270 -0.1698
  774MOL0     N 4405   9.467   6.676   3.880  0.7126 -0.5905 -0.1703
  774MOL0     N 4406   9.362   6.646   3.822 -0.2790 -0.3533 -0.3358
  774MOL0     C 4407   8.208   6.865   3.466  0.0429  0.0547  0.9587
  774MOL0     C 4408   8.088   6.802   3.475  0.3584 -0.4063  0.2732
  774MOL0     C 4409   7.727   6.535   3.476 -0.0277  0.6821 -0.0284
  774MOL0     C 4410   7.742   6.445   3.578  0.0712  0.7958 -0.0005
  774MOL0     C 4411   7.636   6.378   3.642  0.2338 -0.1555  0.0829
  774MOL0     C 4412   7.506   6.402   3.593  0.2476 -0.3155 -0.1444
  774MOL0     O 4413   7.390   6.347   3.646 -0.1923  0.1995  0.2886
  774MOL0     C 4414   7.384   6.278   3.773 -0.1618 -0.1233 -0.3399
  774MOL0     C 4415   7.242   6.268   3.826 -0.0872 -0.3730  0.5619
  774MOL0     C 4416   7.143   6.184   3.739 -0.2221  0.2176  0.0043
  774MOL0     C 4417   7.004   6.157   3.814  0.4511 -0.2795  0.3915
  774MOL0     C 4418   6.916   6.089   3.720  0.3735  0.9777  0.3292
  774MOL0     C 4419   6.841   6.028   3.648  0.4721  0.4845  0.0206
  774MOL0     C 4420   7.489   6.485   3.480  0.2682 -0.1625 -0.5623
  774MOL0     C 4421   7.598   6.546   3.423 -0.0750 -0.3713  0.3405
  774MOL0     C 4422   7.571   6.635   3.294 -0.0763  0.4142  0.8448
  774MOL0     H 4423   8.190   6.480   3.432 -0.7408  0.1337  0.4091
  774MOL0     H 4424   8.413   6.607   3.397  0.0086  0.9551  1.2772
  774MOL0     H 4425   8.550   6.748   3.569  0.4630 -3.2394 -1.6118
  774MOL0     H 4426   8.611   6.749   3.405  0.2034 -0.5909  0.3517
  774MOL0     H 4427   8.616   6.965   3.629 -0.2261  1.2088  0.7412
  774MOL0     H 4428   8.659   7.004   3.462  0.4072 -0.0344 -0.2646
  774MOL0     H 4429   8.840   6.822   3.472  0.4905  0.4793  0.4445
  774MOL0     H 4430   8.777   6.783   3.639  1.4292  0.8231  1.7838
  774MOL0     H 4431   8.879   7.059   3.580 -0.4755 -0.2444 -0.0233
  774MOL0     H 4432   8.878   6.981   3.735  4.4212  3.6980  0.6118
  774MOL0     H 4433   9.049   6.898   3.494  0.4861 -2.1619  0.0982
  774MOL0     H 4434   9.109   6.988   3.628  2.1802 -1.0681 -1.9175
  774MOL0     H 4435   9.003   6.690   3.641  0.0430 -0.3041  0.4464
  774MOL0     H 4436   9.173   6.746   3.644  0.0562 -1.7639  0.7937
  774MOL0     H 4437   8.956   6.775   3.842 -0.7301 -0.0010 -1.7064
  774MOL0     H 4438   9.104   6.874   3.859  1.0047  1.0678 -1.6073
  774MOL0     H 4439   9.080   6.624   3.973 -0.6314 -0.1236  0.5773
  774MOL0     H 4440   9.124   6.569   3.806  0.3135  0.8500  0.7408
  774MOL0     H 4441   9.281   6.721   4.126  0.8370 -0.6385  0.2087
  774MOL0     H 4442   9.659   6.725   4.075 -0.3648  1.7936 -1.4892
  774MOL0     H 4443   9.578   6.880   4.103 -0.2895  0.6167  0.0141
  774MOL0     H 4444   9.438   6.742   4.275  0.9003  1.7681  3.1790
  774MOL0     H 4445   9.573   6.624   4.275 -2.7444 -1.2254 -0.9112
  774MOL0     H 4446   9.592   6.756   4.449  1.2293 -1.4496 -0.2190
  774MOL0     H 4447   9.602   6.910   4.360  0.2573 -0.3918 -2.0055
  774MOL0     H 4448   9.810   6.829   4.238  0.9589 -0.5180  0.8396
  774MOL0     H 4449   9.815   6.700   4.359  0.8159 -0.5400 -0.0516
  774MOL0     H 4450   9.938   7.098   4.527  0.2380  0.1387  0.4325
  774MOL0     H 4451  10.170   7.126   4.592 -2.0943  1.1934 -1.0907
  774MOL0     H 4452  10.575   6.850   4.717 -0.7252  2.4806 -1.2995
  774MOL0     H 4453  10.828   6.789   4.747  1.8258 -1.9405 -0.4529
  774MOL0     H 4454  11.046   6.928   4.688 -1.5817  0.4859 -0.0174
  774MOL0     H 4455  11.064   6.759   4.743  2.9800  0.1496  0.8569
  774MOL0     H 4456  11.244   6.726   4.557  1.5843  0.7789 -0.7545
  774MOL0     H 4457  11.248   6.896   4.546 -0.1684  1.5582  0.6403
  774MOL0     H 4458  11.318   6.902   4.793 -0.4705  0.2110  0.5809
  774MOL0     H 4459  11.306   6.725   4.795  1.0094  0.1108  0.7470
  774MOL0     H 4460  11.484   6.879   4.613  1.5221 -1.1868 -0.1795
  774MOL0     H 4461  11.486   6.703   4.622  0.9944 -0.2047  0.0066
  774MOL0     H 4462  11.543   6.739   4.877 -1.7660 -1.4770 -0.7196
  774MOL0     H 4463  11.555   6.902   4.846  2.9084  0.0528 -0.0093
  774MOL0     H 4464  11.714   6.692   4.704 -0.0720 -0.2994  0.6715
  774MOL0     H 4465  11.742   6.858   4.674  0.4023 -1.4687 -1.2464
  774MOL0     H 4466  11.779   6.741   4.951 -1.5144 -4.0095 -3.3707
  774MOL0     H 4467  11.822   6.913   4.904 -0.7551  0.7054 -0.5359
  774MOL0     H 4468  11.944   6.666   4.782  0.6602 -0.8963  1.9266
  774MOL0     H 4469  12.016   6.825   4.776 -1.1161 -0.2099 -0.0440
  774MOL0     H 4470  10.879   6.814   4.321 -1.0805  1.8566 -0.6103
  774MOL0     H 4471  10.628   6.840   4.291 -1.2921 -0.5944  0.6154
  774MOL0     H 4472  10.258   6.743   4.411  0.5803  1.7857 -2.0125
  774MOL0     H 4473  10.030   6.706   4.377  1.2839 -0.3454 -0.4305
  774MOL0     H 4474   8.215   6.973   3.473 -0.7979  0.4902 -2.7923
  774MOL0     H 4475   7.999   6.861   3.493  0.7416  0.0643  0.6652
  774MOL0     H 4476   7.832   6.405   3.623 -1.5565 -2.3063  0.7722
  774MOL0     H 4477   7.662   6.306   3.720  3.2336  1.2675  0.5681
  774MOL0     H 4478   7.421   6.341   3.854 -1.5792  0.8242 -0.3996
  774MOL0     H 4479   7.428   6.178   3.763 -1.4025 -0.9509  1.7854
  774MOL0     H 4480   7.204   6.367   3.851  2.3272  0.2989  1.8440
  774MOL0     H 4481   7.255   6.222   3.924  2.1391  0.7547  0.8583
  774MOL0     H 4482   7.189   6.089   3.713 -4.0889 -1.7405 -0.4447
  774MOL0     H 4483   7.115   6.232   3.644  0.6645 -1.4146 -1.1417
  774MOL0     H 4484   7.018   6.096   3.904 -1.7849 -4.1862 -1.6782
  774MOL0     H 4485   6.961   6.254   3.842  0.9080 -0.4874  1.9216
  774MOL0     H 4486   6.755   5.981   3.604 -1.8416  0.0353  4.4746
  774MOL0     H 4487   7.388   6.500   3.444 -0.9296 -2.2749  1.6853
  774MOL0     H 4488   7.478   6.599   3.249  0.6737  2.3860 -2.6505
  774MOL0     H 4489   7.565   6.735   3.337  4.2218 -0.3313  3.8550
  774MOL0     H 4490   7.653   6.634   3.221 -1.3295  0.3590 -0.6275
  775MOL0     O 4491   5.184   1.009   6.240  0.5483 -0.7739  0.2998
  775MOL0     C 4492   5.184   0.993   6.116  0.9754  0.1920 -0.2290
  775MOL0     O 4493   5.292   1.000   6.028  0.0672 -0.9886 -0.6659
  775MOL0     C 4494   5.412   0.995   6.088 -0.2529 -0.0671 -1.4701
  775MOL0     C 4495   5.474   0.873   6.108 -0.8460  0.0634 -0.0522
  775MOL0     C 4496   5.602   0.867   6.166  0.1312  0.3307 -0.2881
  775MOL0     C 4497   5.671   0.980   6.207 -0.4024  0.1926  0.2588
  775MOL0     O 4498   5.794   0.968   6.261 -0.1207  0.1331  0.3873
  775MOL0     C 4499   5.867   1.093   6.266  0.1375 -0.7350  0.5566
  775MOL0     C 4500   6.015   1.069   6.299  0.2840 -1.0158 -0.0014
  775MOL0     C 4501   6.084   1.024   6.169  0.1130 -0.0742 -0.0624
  775MOL0     C 4502   6.235   1.034   6.165 -1.4054  0.3492 -0.1426
  775MOL0     C 4503   6.281   1.025   6.022 -0.1181 -1.4625 -0.1006
  775MOL0     C 4504   6.428   0.984   6.014 -0.7280  0.4292 -0.2656
  775MOL0     C 4505   6.465   0.974   5.869  0.2710 -0.1372  0.6195
  775MOL0     C 4506   6.605   1.015   5.837 -1.1180  0.0325 -0.2260
  775MOL0     N 4507   6.706   0.913   5.865 -0.1375  0.7932  0.4788
  775MOL0     C 4508   6.730   0.805   5.776  0.8119  0.0529  1.1307
  775MOL0     C 4509   6.837   0.737   5.832  0.6393  0.8697  0.9668
  775MOL0     C 4510   6.899   0.603   5.788 -0.1674 -0.6349 -0.2101
  775MOL0     C 4511   7.046   0.619   5.729 -0.1633  0.6444 -0.0988
  775MOL0     C 4512   7.099   0.485   5.684 -0.4584  0.6517  0.2717
  775MOL0     C 4513   7.230   0.494   5.594 -0.3431  0.3978 -0.2926
  775MOL0     O 4514   7.336   0.542   5.677  0.2508  0.0460  0.4080
  775MOL0     C 4515   7.459   0.484   5.656 -0.9763 -0.3034 -0.1978
  775MOL0     C 4516   7.501   0.431   5.536  0.0870 -0.5588  0.3221
  775MOL0     C 4517   7.626   0.368   5.524 -0.7014  0.1627  0.3234
  775MOL0     C 4518   7.712   0.354   5.635 -0.9831  0.4064 -0.5068
  775MOL0     C 4519   7.843   0.292   5.615  0.1790  0.1017  0.4250
  775MOL0     O 4520   7.890   0.297   5.485 -0.0937  0.0684 -0.6919
  775MOL0     C 4521   8.009   0.238   5.458 -0.3551 -0.0254  0.6189
  775MOL0     C 4522   8.073   0.280   5.340  0.0595  0.4599 -0.5463
  775MOL0     C 4523   8.191   0.219   5.306 -0.1984 -0.3713  0.8237
  775MOL0     C 4524   8.241   0.106   5.366 -0.0060  0.2150 -0.2581
  775MOL0     O 4525   8.358   0.061   5.314 -0.2409  0.2726 -1.0732
  775MOL0     C 4526   8.398  -0.068   5.372  0.1834 -0.3072  0.1245
  775MOL0     C 4527   8.530  -0.106   5.313 -0.0972  0.3902 -0.7051
  775MOL0     C 4528   8.506  -0.158   5.168 -0.0014  0.4832  0.6875
  775MOL0     C 4529   8.629  -0.244   5.130 -0.1328 -0.2482  0.4829
  775MOL0     C 4530   8.631  -0.286   4.979 -0.0444  0.5432  0.5425
  775MOL0     C 4531   8.755  -0.379   4.946  0.8959 -0.0887 -0.5220
  775MOL0     C 4532   8.884  -0.300   4.941  0.5851 -0.3410  0.7843
  775MOL0     C 4533   9.010  -0.389   4.958 -0.1453  0.2795 -1.1692
  775MOL0    Cl 4534   9.137  -0.276   5.021 -0.4906 -0.0992  0.1842
  775MOL0     C 4535   8.163   0.055   5.467  0.7904 -0.7122  0.2886
  775MOL0     C 4536   8.047   0.113   5.513  0.2982  1.1559 -0.4647
  775MOL0     O 4537   7.901   0.247   5.717 -0.1406 -0.3930  0.2944
  775MOL0     C 4538   7.666   0.400   5.759  0.0799  0.0788 -0.3825
  775MOL0     C 4539   7.549   0.472   5.760  0.2143 -0.5383  0.2623
  775MOL0     N 4540   6.857   0.797   5.956  0.3710 -0.2689  0.4788
  775MOL0     N 4541   6.793   0.908   5.969  0.4321  0.0833  0.2395
  775MOL0     C 4542   5.600   1.105   6.199  0.1505 -0.2927  0.3836
  775MOL0     C 4543   5.472   1.110   6.137  0.5244  0.6237  0.7373
  775MOL0     C 4544   5.053   0.994   6.052 -0.8751  0.0115  0.4076
  775MOL0     C 4545   4.963   1.103   6.071 -0.2647  0.0626  0.6899
  775MOL0     C 4546   4.844   1.108   6.001  1.0523 -1.0659  0.1078
  775MOL0     C 4547   4.806   1.004   5.919  0.3335 -0.4802  0.6444
  775MOL0     O 4548   4.685   1.020   5.861 -0.4272  0.1563  0.4257
  775MOL0     C 4549   4.615   0.903   5.826  0.4082  0.0575 -0.3201
  775MOL0     C 4550   4.470   0.924   5.885 -0.2119  0.4767 -0.5104
  775MOL0     C 4551   4.411   1.061   5.855  0.3677 -0.9501  0.7771
  775MOL0     C 4552   4.266   1.075   5.912 -0.1131 -0.0215  0.0527
  775MOL0     C 4553   4.234   1.220   5.906  0.0268 -0.2134 -0.0189
  775MOL0     C 4554   4.204   1.340   5.896  0.2179 -0.5221  0.2249
  775MOL0     C 4555   4.895   0.896   5.899 -0.2876  0.1590  0.0039
  775MOL0     C 4556   5.024   0.894   5.951 -0.2955 -0.0317  0.6633
  775MOL0     C 4557   5.102   0.769   5.928  0.0738  0.1224  0.3234
  775MOL0     H 4558   5.430   0.782   6.067 -2.7057  1.3759 -1.1059
  775MOL0     H 4559   5.635   0.763   6.166 -0.3273  0.1589 -1.5951
  775MOL0     H 4560   5.864   1.161   6.180 -0.1159  1.2586  2.0667
  775MOL0     H 4561   5.820   1.132   6.357  0.4938  0.9111  0.0683
  775MOL0     H 4562   6.027   0.979   6.360  3.4708 -0.3917  0.4950
  775MOL0     H 4563   6.057   1.159   6.344 -1.4504 -0.7499  1.1426
  775MOL0     H 4564   6.047   1.080   6.082  1.4495 -0.2142 -0.7358
  775MOL0     H 4565   6.050   0.921   6.155 -1.4932  0.2857  0.8355
  775MOL0     H 4566   6.267   1.133   6.198 -0.6934 -0.7717  2.7990
  775MOL0     H 4567   6.288   0.958   6.222 -1.3707 -0.3355 -1.0683
  775MOL0     H 4568   6.226   0.950   5.964 -0.3977 -0.8292 -0.6747
  775MOL0     H 4569   6.257   1.124   5.981 -0.9198 -2.0505 -1.1134
  775MOL0     H 4570   6.497   1.052   6.065  2.4136 -1.1030 -2.1638
  775MOL0     H 4571   6.450   0.889   6.064  1.7239  0.7036 -0.6718
  775MOL0     H 4572   6.391   1.035   5.815  0.6042  1.5149  1.9487
  775MOL0     H 4573   6.449   0.870   5.837 -1.1003  0.7924 -1.9930
  775MOL0     H 4574   6.614   1.040   5.730 -2.8881  1.5173 -0.0693
  775MOL0     H 4575   6.629   1.105   5.893  0.5640 -0.7601  0.3977
  775MOL0     H 4576   6.679   0.782   5.684 -1.8085  1.9238  1.9949
  775MOL0     H 4577   6.891   0.538   5.876 -1.2098  1.7209  1.5509
  775MOL0     H 4578   6.841   0.573   5.701 -0.0995  1.0855 -0.8775
  775MOL0     H 4579   7.051   0.693   5.648  2.4920  1.3661  0.6121
  775MOL0     H 4580   7.118   0.653   5.805 -0.3364  0.4091  0.1760
  775MOL0     H 4581   7.020   0.429   5.632  1.7142  0.0862 -2.6945
  775MOL0     H 4582   7.127   0.432   5.775 -0.3659 -0.1857 -0.2316
  775MOL0     H 4583   7.229   0.551   5.500  1.2406  0.5227 -0.2578
  775MOL0     H 4584   7.251   0.395   5.554 -0.0110  1.8054 -3.9967
  775MOL0     H 4585   7.441   0.439   5.446 -3.1712 -1.3014  2.2360
  775MOL0     H 4586   7.655   0.342   5.423 -1.4637  2.5816 -0.5926
  775MOL0     H 4587   8.044   0.364   5.278  1.2694 -0.6872 -2.7817
  775MOL0     H 4588   8.256   0.263   5.231  0.0559  0.7332  1.6651
  775MOL0     H 4589   8.415  -0.055   5.479  1.2751 -0.8734  0.0369
  775MOL0     H 4590   8.322  -0.142   5.344  1.4842 -0.5369 -3.3579
  775MOL0     H 4591   8.596  -0.019   5.323 -0.1577  0.1784  2.8492
  775MOL0     H 4592   8.563  -0.185   5.380 -1.8648 -0.5409 -0.8916
  775MOL0     H 4593   8.410  -0.212   5.163  1.2541 -1.8038 -0.2798
  775MOL0     H 4594   8.483  -0.077   5.099 -1.9153 -0.3458  0.2862
  775MOL0     H 4595   8.630  -0.328   5.200  2.2234  0.3708  1.2896
  775MOL0     H 4596   8.723  -0.192   5.150 -1.1562  0.7776  2.9921
  775MOL0     H 4597   8.631  -0.199   4.913  2.0866 -0.0170 -0.2747
  775MOL0     H 4598   8.535  -0.333   4.956  0.4175 -0.0064 -0.3361
  775MOL0     H 4599   8.763  -0.446   5.032 -1.9364  0.1511  0.0362
  775MOL0     H 4600   8.744  -0.441   4.857  1.5398 -0.8610 -0.0744
  775MOL0     H 4601   8.879  -0.222   5.017  0.2895  0.9562 -0.5004
  775MOL0     H 4602   8.889  -0.246   4.846  0.3498 -1.4735  0.1002
  775MOL0     H 4603   8.994  -0.466   5.034  1.9018  0.2475 -0.7187
  775MOL0     H 4604   9.034  -0.434   4.861 -1.8065 -1.9031 -0.6471
  775MOL0     H 4605   8.196  -0.033   5.521  1.3277 -0.3771  0.5227
  775MOL0     H 4606   7.998   0.073   5.602  0.6478  3.2792  0.7377
  775MOL0     H 4607   7.716   0.388   5.855 -1.4038 -0.2145  0.3799
  775MOL0     H 4608   7.520   0.513   5.856 -4.1432 -1.3922 -0.4714
  775MOL0     H 4609   5.633   1.202   6.235  1.3031 -1.2444  2.0006
  775MOL0     H 4610   5.405   1.194   6.126 -0.8675 -0.6917 -1.8495
  775MOL0     H 4611   4.997   1.175   6.144  0.6373 -1.2639  1.6289
  775MOL0     H 4612   4.789   1.201   6.000  1.8536 -0.5884 -0.4486
  775MOL0     H 4613   4.664   0.818   5.873 -0.0807  1.1490  2.3494
  775MOL0     H 4614   4.605   0.885   5.719 -2.1792 -1.8264  0.1452
  775MOL0     H 4615   4.467   0.915   5.994  0.6341 -2.8176 -0.6324
  775MOL0     H 4616   4.409   0.845   5.841  0.5019 -1.4238  1.7147
  775MOL0     H 4617   4.403   1.076   5.747 -1.0505  0.4816  1.0533
  775MOL0     H 4618   4.478   1.142   5.885 -1.4056  1.1005 -0.4860
  775MOL0     H 4619   4.202   1.010   5.853 -0.1589 -2.5626  2.6587
  775MOL0     H 4620   4.277   1.039   6.015  0.3556 -0.4971 -0.1564
  775MOL0     H 4621   4.202   1.446   5.885  2.4328 -0.4430  0.1279
  775MOL0     H 4622   4.870   0.813   5.834 -0.2913 -1.4520  1.9556
  775MOL0     H 4623   5.065   0.693   5.997  0.7583 -0.3771  0.1400
  775MOL0     H 4624   5.088   0.732   5.826  3.3515  1.5682 -0.8041
  775MOL0     H 4625   5.210   0.769   5.944 -0.1101 -2.0424  1.9022
  776MOL0     O 4626   9.990   6.740   9.664 -0.0381 -0.3545 -0.5046
  776MOL0     C 4627   9.882   6.803   9.658  0.4383 -0.6619 -0.9718
  776MOL0     O 4628   9.867   6.938   9.632  0.0262  0.6111  0.4127
  776MOL0     C 4629   9.975   7.023   9.652  0.3306 -0.7758  0.6720
  776MOL0     C 4630  10.015   7.105   9.547 -0.0619  1.1954  0.1235
  776MOL0     C 4631  10.099   7.205   9.556  0.4160 -0.4016  0.8360
  776MOL0     C 4632  10.164   7.214   9.677  0.1465  0.0214  0.0172
  776MOL0     O 4633  10.263   7.304   9.677 -0.6399 -0.3384 -0.2519
  776MOL0     C 4634  10.288   7.362   9.816  0.3384  0.1264  0.2723
  776MOL0     C 4635  10.377   7.494   9.798 -0.0314 -0.4722  0.9813
  776MOL0     C 4636  10.389   7.576   9.926 -0.4068  0.0908 -0.5141
  776MOL0     C 4637  10.538   7.635   9.934  0.2960 -0.6274 -0.2056
  776MOL0     C 4638  10.593   7.671  10.073  0.5933 -0.7914  0.3192
  776MOL0     C 4639  10.521   7.783  10.138  0.0153  0.1131 -0.2791
  776MOL0     C 4640  10.578   7.808  10.283  0.0425 -1.0920  0.0043
  776MOL0     C 4641  10.512   7.930  10.346 -0.0358 -0.3146  0.9605
  776MOL0     N 4642  10.587   8.057  10.334 -0.0474  0.6372 -0.1929
  776MOL0     C 4643  10.613   8.123  10.220  0.9966  0.3598  0.7278
  776MOL0     C 4644  10.670   8.239  10.253 -0.3744 -0.0728  0.1595
  776MOL0     C 4645  10.697   8.339  10.147  0.3523 -0.0042 -0.3798
  776MOL0     C 4646  10.846   8.338  10.107  0.4774 -0.6094  0.5582
  776MOL0     C 4647  10.938   8.427  10.195 -0.0210  0.1810 -0.4154
  776MOL0     C 4648  11.083   8.426  10.149 -0.6645 -0.1711  0.0690
  776MOL0     O 4649  11.152   8.294  10.155 -0.0295 -1.0593  0.4876
  776MOL0     C 4650  11.292   8.285  10.134  1.0688 -0.5108 -0.4453
  776MOL0     C 4651  11.342   8.157  10.135  0.0869  0.7183 -0.5087
  776MOL0     C 4652  11.476   8.132  10.132 -0.8873  0.1395 -0.3830
  776MOL0     C 4653  11.565   8.242  10.122 -0.0928  0.0797  0.5950
  776MOL0     C 4654  11.717   8.218  10.119 -0.3890 -0.0337 -0.1543
  776MOL0     O 4655  11.795   8.332  10.131  0.2684  0.1375 -0.4895
  776MOL0     C 4656  11.924   8.296  10.155  0.2123  0.5986  0.1473
  776MOL0     C 4657  11.955   8.228  10.272 -0.4358 -0.1280 -0.7269
  776MOL0     C 4658  12.087   8.189  10.303 -0.2224  1.0672 -0.3213
  776MOL0     C 4659  12.193   8.228  10.216 -0.2356  0.3894  0.1709
  776MOL0     O 4660  12.330   8.177  10.226  0.0952  0.2038  0.2471
  776MOL0     C 4661  12.371   8.103  10.344  0.0405 -0.0442  0.9679
  776MOL0     C 4662  12.511   8.054  10.335  0.0386  0.7925 -0.7534
  776MOL0     C 4663  12.575   8.034  10.474 -0.1976  0.0980 -0.4734
  776MOL0     C 4664  12.725   8.011  10.465  0.7859  0.3506 -0.5919
  776MOL0     C 4665  12.786   8.002  10.607  0.6858 -0.3343 -0.0750
  776MOL0     C 4666  12.938   7.952  10.602 -0.0835 -0.3568  0.3059
  776MOL0     C 4667  13.000   7.902  10.739  0.7763  0.1072  1.1111
  776MOL0     C 4668  13.152   7.897  10.738  0.0257  0.5012 -0.3255
  776MOL0    Cl 4669  13.193   7.764  10.632 -0.0796  0.2619  0.1217
  776MOL0     C 4670  12.160   8.303  10.099  0.6090  0.3295 -0.3827
  776MOL0     C 4671  12.031   8.330  10.069 -0.6235  0.9199  0.1439
  776MOL0     O 4672  11.758   8.101  10.107  0.2297  0.4311  0.2518
  776MOL0     C 4673  11.510   8.375  10.122  0.4571  0.7960  0.0770
  776MOL0     C 4674  11.373   8.395  10.128 -0.6364 -0.1214  0.5868
  776MOL0     N 4675  10.690   8.237  10.388 -0.0932 -0.3525  0.2571
  776MOL0     N 4676  10.646   8.123  10.434  0.1415  0.4517  0.3209
  776MOL0     C 4677  10.134   7.134   9.788 -0.0335 -0.1631 -0.3363
  776MOL0     C 4678  10.028   7.041   9.778 -0.5584  0.2805 -0.4789
  776MOL0     C 4679   9.756   6.732   9.680  0.5340  0.0466 -0.4963
  776MOL0     C 4680   9.727   6.615   9.603  0.0648  0.8270 -0.5055
  776MOL0     C 4681   9.615   6.540   9.617  0.1305 -0.1381  0.7227
  776MOL0     C 4682   9.511   6.587   9.701 -0.0984  1.5372 -0.6830
  776MOL0     O 4683   9.391   6.520   9.708  0.5208  0.3758  0.7053
  776MOL0     C 4684   9.366   6.449   9.830 -0.3301 -0.2579 -0.2325
  776MOL0     C 4685   9.478   6.359   9.883 -0.5130  0.2535  0.8272
  776MOL0     C 4686   9.425   6.301  10.013 -0.6735 -0.2105  1.0882
  776MOL0     C 4687   9.521   6.193  10.078  0.4473  0.5109  0.8246
  776MOL0     C 4688   9.630   6.252  10.156  0.1084  0.6756 -0.2309
  776MOL0     C 4689   9.720   6.294  10.219  0.0981 -0.3471 -1.1260
  776MOL0     C 4690   9.530   6.701   9.770  0.2551  0.8300  0.0097
  776MOL0     C 4691   9.650   6.778   9.768  0.2760  0.8398 -0.0718
  776MOL0     C 4692   9.667   6.892   9.861  0.3171  0.1008  0.6005
  776MOL0     H 4693   9.958   7.089   9.456 -0.1010 -0.7046  0.4274
  776MOL0     H 4694  10.118   7.257   9.463 -1.7568 -2.3628 -0.8313
  776MOL0     H 4695  10.194   7.390   9.864 -0.3023 -2.5267  0.7260
  776MOL0     H 4696  10.334   7.284   9.878 -3.4718 -3.2776 -0.7355
  776MOL0     H 4697  10.336   7.553   9.716 -1.4524 -0.3941  1.7082
  776MOL0     H 4698  10.472   7.457   9.760 -2.0209 -1.1237 -4.1350
  776MOL0     H 4699  10.369   7.508  10.009  1.4375  1.3412  1.0657
  776MOL0     H 4700  10.319   7.657   9.949 -0.4886 -0.3652  0.9718
  776MOL0     H 4701  10.602   7.555   9.893 -2.6283 -3.2849  0.0671
  776MOL0     H 4702  10.543   7.719   9.864 -2.0475 -0.2954 -0.0391
  776MOL0     H 4703  10.590   7.579  10.133 -2.5670  0.8049  2.8862
  776MOL0     H 4704  10.695   7.706  10.057  0.6768 -0.2166  1.8865
  776MOL0     H 4705  10.502   7.876  10.085 -0.9965 -0.4169 -0.8774
  776MOL0     H 4706  10.421   7.738  10.142 -0.9506  1.9733 -1.9706
  776MOL0     H 4707  10.686   7.819  10.276 -0.0531 -1.1224 -1.7738
  776MOL0     H 4708  10.570   7.715  10.340  0.9241 -0.3005  1.4741
  776MOL0     H 4709  10.415   7.954  10.301  0.6071  1.2907  0.3505
  776MOL0     H 4710  10.502   7.914  10.454  1.0634 -0.0185  1.1214
  776MOL0     H 4711  10.585   8.093  10.119  0.2084 -0.4984  1.1791
  776MOL0     H 4712  10.639   8.313  10.058  0.1607  1.2189 -0.6305
  776MOL0     H 4713  10.677   8.441  10.182 -1.1729 -0.2310 -0.5171
  776MOL0     H 4714  10.877   8.235  10.088  2.6632  0.3329 -1.4403
  776MOL0     H 4715  10.842   8.383  10.008  1.9194 -1.4241  0.0903
  776MOL0     H 4716  10.936   8.387  10.296 -0.2720 -0.7679 -0.7827
  776MOL0     H 4717  10.907   8.532  10.195 -0.2723  0.1053 -0.1447
  776MOL0     H 4718  11.142   8.500  10.204 -0.4050 -0.3643  0.0540
  776MOL0     H 4719  11.087   8.457  10.044 -2.1818 -1.0515 -0.2770
  776MOL0     H 4720  11.271   8.075  10.133 -1.8357  2.2809 -3.3853
  776MOL0     H 4721  11.519   8.033  10.146 -1.5427  0.1840  2.5867
  776MOL0     H 4722  11.873   8.209  10.340 -0.3394  1.7264 -0.0159
  776MOL0     H 4723  12.103   8.122  10.387 -2.1194 -1.8040 -2.0523
  776MOL0     H 4724  12.374   8.172  10.428  0.4611  1.0323  0.1065
  776MOL0     H 4725  12.302   8.020  10.355 -1.4546  0.8622 -0.9034
  776MOL0     H 4726  12.497   7.960  10.282  2.2054 -1.6143  2.5300
  776MOL0     H 4727  12.584   8.117  10.283  2.2197  0.0451  1.2387
  776MOL0     H 4728  12.562   8.126  10.531 -1.5064  1.5572 -2.8981
  776MOL0     H 4729  12.533   7.945  10.523  1.3139  0.6432  1.9513
  776MOL0     H 4730  12.777   8.091  10.412  0.7363 -0.5890 -2.1385
  776MOL0     H 4731  12.744   7.914  10.417 -0.5017 -1.1535  1.7139
  776MOL0     H 4732  12.729   7.924  10.659 -1.2700  0.1810 -1.3500
  776MOL0     H 4733  12.776   8.093  10.667 -0.3297 -0.7559  0.4204
  776MOL0     H 4734  12.942   7.871  10.529 -0.6754  0.7876 -1.0385
  776MOL0     H 4735  12.988   8.036  10.553 -1.7850  0.5767  0.0895
  776MOL0     H 4736  12.974   7.796  10.749  0.5775  0.0405  0.0416
  776MOL0     H 4737  12.973   7.958  10.828  3.4371  1.0206  1.4287
  776MOL0     H 4738  13.205   7.987  10.709 -0.5807  0.6075 -1.1424
  776MOL0     H 4739  13.183   7.867  10.839 -3.0175 -0.8835  0.3184
  776MOL0     H 4740  12.244   8.338  10.039  2.5997 -1.1686  1.3958
  776MOL0     H 4741  12.012   8.381   9.975 -0.3180  0.8538  0.0443
  776MOL0     H 4742  11.569   8.466  10.119 -0.4424  1.3762 -2.7760
  776MOL0     H 4743  11.344   8.499  10.133 -0.3572  0.2677 -3.1254
  776MOL0     H 4744  10.185   7.152   9.882 -0.5465  2.8762 -0.5201
  776MOL0     H 4745  10.000   6.971   9.857  1.3438  1.2069  1.0755
  776MOL0     H 4746   9.794   6.560   9.537 -1.3861 -0.5060 -0.9660
  776MOL0     H 4747   9.595   6.463   9.543 -0.7021  0.7084  0.0421
  776MOL0     H 4748   9.274   6.389   9.824  0.2591 -1.1961 -0.1298
  776MOL0     H 4749   9.343   6.531   9.899 -0.4543  0.8609 -1.5753
  776MOL0     H 4750   9.574   6.410   9.892  0.8956 -2.3530  1.4143
  776MOL0     H 4751   9.492   6.283   9.805 -1.0847  0.2008  0.7727
  776MOL0     H 4752   9.327   6.252  10.007 -0.4051 -0.8677  1.8388
  776MOL0     H 4753   9.426   6.381  10.087  2.8850 -0.2632  1.2575
  776MOL0     H 4754   9.454   6.135  10.142 -0.5338 -2.1678 -2.3391
  776MOL0     H 4755   9.561   6.123  10.005  0.0163  0.8990  0.2066
  776MOL0     H 4756   9.809   6.310  10.276 -0.2703 -0.6278 -0.4668
  776MOL0     H 4757   9.453   6.724   9.842  0.3272 -3.3283  1.7158
  776MOL0     H 4758   9.594   6.870   9.940 -0.5689 -1.1237 -0.4995
  776MOL0     H 4759   9.769   6.905   9.895  0.6627  1.1679 -0.7473
  776MOL0     H 4760   9.634   6.984   9.811 -0.0790 -0.1688  0.3541
  777MOL0     O 4761   3.847   5.109   1.008  0.1578  0.8081  0.1488
  777MOL0     C 4762   3.795   4.997   0.996  0.5299  0.7344 -0.1444
  777MOL0     O 4763   3.842   4.877   1.054 -0.1438  0.2674  0.3240
  777MOL0     C 4764   3.950   4.878   1.138  0.4817  0.1881 -0.1361
  777MOL0     C 4765   4.067   4.948   1.112  0.2397  0.3173  0.6443
  777MOL0     C 4766   4.182   4.920   1.187  0.6633 -0.4168 -0.2435
  777MOL0     C 4767   4.176   4.831   1.303  0.3704  0.1342  1.0736
  777MOL0     O 4768   4.282   4.812   1.389  0.0159 -0.0843 -0.2696
  777MOL0     C 4769   4.419   4.857   1.365 -0.4518 -0.6967 -0.3030
  777MOL0     C 4770   4.513   4.796   1.460 -0.0915  0.2337 -0.9581
  777MOL0     C 4771   4.668   4.837   1.448  1.3112 -0.1370  0.2803
  777MOL0     C 4772   4.754   4.715   1.473  0.1324  0.0717 -0.0074
  777MOL0     C 4773   4.901   4.719   1.426  0.1822 -0.2523 -0.3283
  777MOL0     C 4774   4.999   4.808   1.506  0.8931  1.0447 -0.2161
  777MOL0     C 4775   5.134   4.809   1.434 -0.1328  0.2076  0.0436
  777MOL0     C 4776   5.210   4.675   1.451 -0.5100  0.7282 -1.2435
  777MOL0     N 4777   5.310   4.685   1.565 -0.2168 -0.4313  0.5370
  777MOL0     C 4778   5.279   4.688   1.699  0.4666 -0.0127 -0.7598
  777MOL0     C 4779   5.397   4.686   1.765  0.5660  0.5386  0.1072
  777MOL0     C 4780   5.419   4.670   1.910 -0.1928  0.0506 -0.6141
  777MOL0     C 4781   5.406   4.813   1.974 -0.7424  0.2250  0.2720
  777MOL0     C 4782   5.536   4.897   1.963  0.3543  0.7295  0.3852
  777MOL0     C 4783   5.662   4.842   2.033  0.4387  0.2923 -0.7822
  777MOL0     O 4784   5.758   4.949   2.045  0.4247  0.7106 -0.0370
  777MOL0     C 4785   5.891   4.911   2.035  1.2586  0.2794 -0.1773
  777MOL0     C 4786   5.973   5.019   1.983  0.2920  0.4924 -0.5884
  777MOL0     C 4787   6.111   5.000   1.968 -0.2092 -0.5416  0.3420
  777MOL0     C 4788   6.168   4.875   1.998 -0.2554 -0.3851 -0.6849
  777MOL0     C 4789   6.310   4.847   1.971 -0.4463 -0.8032 -0.1343
  777MOL0     O 4790   6.350   4.901   1.846  0.1337 -0.1952 -0.1677
  777MOL0     C 4791   6.474   4.874   1.799  0.7469 -0.3011  0.5771
  777MOL0     C 4792   6.531   4.747   1.818 -0.3891 -0.4713 -0.1838
  777MOL0     C 4793   6.657   4.725   1.773 -0.4978 -1.2585  1.3028
  777MOL0     C 4794   6.728   4.825   1.688  0.1823  0.8658 -0.5562
  777MOL0     O 4795   6.853   4.815   1.633 -1.0274 -0.0368 -0.5811
  777MOL0     C 4796   6.941   4.724   1.691 -0.2656  0.2993  0.8231
  777MOL0     C 4797   7.084   4.761   1.654  0.1555  0.1913 -0.0224
  777MOL0     C 4798   7.184   4.698   1.741 -0.3079  0.8573 -0.0373
  777MOL0     C 4799   7.172   4.540   1.750  0.2864 -0.1267  0.0967
  777MOL0     C 4800   7.107   4.474   1.873  0.8254  0.2468 -0.3096
  777MOL0     C 4801   7.121   4.320   1.866 -0.1540  0.2335  0.5825
  777MOL0     C 4802   7.047   4.254   1.977 -0.5237  0.3512 -0.7745
  777MOL0     C 4803   7.112   4.254   2.118  0.3694 -0.0190 -0.3766
  777MOL0    Cl 4804   7.278   4.182   2.118 -0.0039 -0.2345  0.3760
  777MOL0     C 4805   6.669   4.950   1.678  0.3339  0.2731 -1.0623
  777MOL0     C 4806   6.542   4.969   1.731  0.0818 -0.4480  0.0393
  777MOL0     O 4807   6.387   4.792   2.057 -0.0823 -0.0256  0.2168
  777MOL0     C 4808   6.091   4.769   2.048  0.7133  0.0547 -0.1544
  777MOL0     C 4809   5.950   4.788   2.067  0.1600  0.5098  0.3176
  777MOL0     N 4810   5.499   4.683   1.665 -0.4039  0.2265  0.5906
  777MOL0     N 4811   5.444   4.676   1.549 -0.7974  0.4251  0.1078
  777MOL0     C 4812   4.055   4.765   1.327 -0.2887 -0.9237 -0.0272
  777MOL0     C 4813   3.943   4.790   1.247  0.1311  0.4302 -0.0885
  777MOL0     C 4814   3.670   4.974   0.912 -0.1253 -0.4641 -0.3522
  777MOL0     C 4815   3.646   4.845   0.868 -0.1721 -0.1965 -0.2810
  777MOL0     C 4816   3.532   4.811   0.798  0.1735  0.3197 -0.2481
  777MOL0     C 4817   3.427   4.900   0.765 -0.6808 -1.1068 -1.3840
  777MOL0     O 4818   3.308   4.852   0.716  0.5875 -0.0425 -0.3589
  777MOL0     C 4819   3.205   4.937   0.684  0.3186  0.0122  0.1712
  777MOL0     C 4820   3.076   4.849   0.666 -0.5906 -0.6072 -0.7175
  777MOL0     C 4821   2.962   4.948   0.633  0.0369  0.1405 -0.8509
  777MOL0     C 4822   2.848   4.858   0.589 -0.2815 -0.0447  0.4085
  777MOL0     C 4823   2.768   4.803   0.704 -1.4059 -0.3046 -0.1469
  777MOL0     C 4824   2.711   4.760   0.800  0.2416  0.3279  0.5109
  777MOL0     C 4825   3.455   5.033   0.798 -0.3679 -0.0440 -0.6400
  777MOL0     C 4826   3.572   5.067   0.871 -0.9705  0.7765  0.0230
  777MOL0     C 4827   3.595   5.206   0.896 -0.7972  0.5447  0.3741
  777MOL0     H 4828   4.077   5.011   1.024  3.7016  0.0065  0.6668
  777MOL0     H 4829   4.275   4.974   1.168 -1.0465  2.2523 -1.7704
  777MOL0     H 4830   4.446   4.835   1.261 -1.3301  1.8982 -1.1513
  777MOL0     H 4831   4.427   4.966   1.371 -1.1628 -0.6733  0.3798
  777MOL0     H 4832   4.492   4.689   1.449 -0.4675  0.1471  0.5001
  777MOL0     H 4833   4.487   4.829   1.561  0.4982  1.2554 -1.1227
  777MOL0     H 4834   4.688   4.927   1.507 -0.9388  0.6758 -0.0926
  777MOL0     H 4835   4.679   4.864   1.342 -1.2856  1.5128  0.3393
  777MOL0     H 4836   4.748   4.710   1.582 -1.7907  1.0524 -0.0293
  777MOL0     H 4837   4.707   4.619   1.446 -1.8039  0.6942  0.9740
  777MOL0     H 4838   4.940   4.617   1.419 -2.2903 -1.2101 -1.4818
  777MOL0     H 4839   4.895   4.759   1.324  3.0485  0.9126 -0.1273
  777MOL0     H 4840   4.957   4.907   1.522 -1.1524  0.2606 -0.3473
  777MOL0     H 4841   5.017   4.771   1.607 -0.6432 -0.1127 -0.3203
  777MOL0     H 4842   5.195   4.888   1.478  0.3511 -1.8920  3.5149
  777MOL0     H 4843   5.123   4.830   1.327 -0.7598 -2.2958 -0.4509
  777MOL0     H 4844   5.145   4.593   1.483  0.4936  0.8945  1.4553
  777MOL0     H 4845   5.263   4.643   1.361  1.0110 -0.0738 -0.1109
  777MOL0     H 4846   5.182   4.707   1.743  0.9309  0.0212  0.2722
  777MOL0     H 4847   5.351   4.596   1.952  1.2379 -0.3952  1.0779
  777MOL0     H 4848   5.521   4.635   1.930  0.0408  1.1027  0.1365
  777MOL0     H 4849   5.322   4.863   1.927  0.2652 -1.5258 -3.7771
  777MOL0     H 4850   5.378   4.812   2.080 -2.3180  2.3588 -0.0475
  777MOL0     H 4851   5.507   4.993   2.006 -0.4877 -0.8086  3.5141
  777MOL0     H 4852   5.566   4.919   1.860  1.1089  0.2075  0.4868
  777MOL0     H 4853   5.708   4.758   1.980  1.2567  0.8315 -0.9519
  777MOL0     H 4854   5.629   4.810   2.132 -2.1611 -0.3659 -1.7710
  777MOL0     H 4855   5.938   5.115   1.947  0.8779  0.4963 -1.1532
  777MOL0     H 4856   6.173   5.078   1.926  0.6569 -1.3303  0.1245
  777MOL0     H 4857   6.489   4.673   1.885  1.9762  1.6802  4.0490
  777MOL0     H 4858   6.701   4.628   1.794  0.5698 -0.9241  0.7049
  777MOL0     H 4859   6.932   4.734   1.799  0.9487  0.0605  0.9637
  777MOL0     H 4860   6.914   4.622   1.664 -0.0449  0.5374 -0.3791
  777MOL0     H 4861   7.096   4.746   1.546 -2.0572  0.8783 -0.4114
  777MOL0     H 4862   7.089   4.869   1.672 -2.7780  0.5644 -0.8600
  777MOL0     H 4863   7.285   4.716   1.704 -0.4194 -2.9658 -2.7487
  777MOL0     H 4864   7.177   4.743   1.840 -3.1112  2.7573 -0.9628
  777MOL0     H 4865   7.269   4.493   1.733  0.5809  0.6200 -0.3651
  777MOL0     H 4866   7.108   4.502   1.671 -0.3407 -1.3695  1.1603
  777MOL0     H 4867   7.005   4.512   1.885  1.2891  1.7728 -0.9161
  777MOL0     H 4868   7.163   4.521   1.955  2.8292 -1.5358 -0.5498
  777MOL0     H 4869   7.070   4.284   1.776 -3.9855  1.2894  2.1238
  777MOL0     H 4870   7.227   4.296   1.857 -0.1763  0.9330 -2.5443
  777MOL0     H 4871   7.051   4.148   1.954  2.1616 -0.0219  0.9744
  777MOL0     H 4872   6.948   4.299   1.982  0.0191  1.4479  3.0654
  777MOL0     H 4873   7.116   4.359   2.149 -0.1188 -0.3387  0.8473
  777MOL0     H 4874   7.046   4.193   2.181  1.0880  1.6824  2.2018
  777MOL0     H 4875   6.715   5.034   1.627  3.4100 -0.1481  0.7780
  777MOL0     H 4876   6.493   5.064   1.713 -1.3834 -1.5608 -2.3946
  777MOL0     H 4877   6.125   4.666   2.052  0.2087 -0.1025  0.3037
  777MOL0     H 4878   5.891   4.709   2.113 -1.9473  1.1576 -1.1185
  777MOL0     H 4879   4.045   4.701   1.414  0.0625 -1.2626 -0.2345
  777MOL0     H 4880   3.855   4.727   1.256 -1.2246  2.0624 -1.3113
  777MOL0     H 4881   3.732   4.781   0.885  1.7392  2.2664  0.0106
  777MOL0     H 4882   3.517   4.705   0.778 -0.2583  0.2899  0.2070
  777MOL0     H 4883   3.227   4.991   0.592 -0.0795  0.4069  0.3042
  777MOL0     H 4884   3.190   5.012   0.762  0.5730  0.9471 -0.6611
  777MOL0     H 4885   3.051   4.792   0.756  1.1376 -0.4899 -0.1384
  777MOL0     H 4886   3.094   4.780   0.583 -0.4951  0.3678 -1.5279
  777MOL0     H 4887   2.994   5.024   0.562 -2.6129  3.9410  1.6086
  777MOL0     H 4888   2.931   4.997   0.726 -1.7333 -3.4781  0.6982
  777MOL0     H 4889   2.782   4.924   0.531 -1.1308  0.1923  1.6178
  777MOL0     H 4890   2.881   4.776   0.525  1.5168 -0.3329  1.6567
  777MOL0     H 4891   2.674   4.729   0.895  1.6339 -0.0594  0.9486
  777MOL0     H 4892   3.387   5.107   0.757 -0.3936  0.5315  0.3796
  777MOL0     H 4893   3.588   5.227   1.003 -1.0635  0.0283  0.4644
  777MOL0     H 4894   3.694   5.240   0.863 -0.7367  0.2996  0.3000
  777MOL0     H 4895   3.526   5.269   0.840  0.8900  2.5974  0.4668
  778MOL0     O 4896   7.145   3.761   4.306  0.2129 -0.4997 -0.5029
  778MOL0     C 4897   7.124   3.798   4.194  0.6154  0.4503 -0.4861
  778MOL0     O 4898   7.212   3.798   4.091  0.0485 -0.0695 -0.1315
  778MOL0     C 4899   7.319   3.727   4.112  0.4080 -0.1222  0.0592
  778MOL0     C 4900   7.432   3.798   4.144 -0.2745 -0.2767 -0.9847
  778MOL0     C 4901   7.558   3.732   4.143  0.6648  0.9158 -0.7896
  778MOL0     C 4902   7.566   3.596   4.139  0.0052  0.8156  0.0111
  778MOL0     O 4903   7.680   3.518   4.162 -0.7873 -0.4520  0.6322
  778MOL0     C 4904   7.805   3.584   4.159 -0.2382 -0.1269  0.0641
  778MOL0     C 4905   7.929   3.492   4.212  0.3937 -0.4597 -0.0049
  778MOL0     C 4906   8.069   3.554   4.200  1.0189 -0.4073 -1.1295
  778MOL0     C 4907   8.189   3.500   4.282  0.8776  0.2182 -0.4155
  778MOL0     C 4908   8.323   3.580   4.294 -0.0514  0.3095  0.2831
  778MOL0     C 4909   8.302   3.708   4.371 -0.5404 -0.0919  0.0178
  778MOL0     C 4910   8.443   3.770   4.383 -0.9265 -0.0902  0.5454
  778MOL0     C 4911   8.475   3.846   4.515  0.5701  0.5807 -0.4518
  778MOL0     N 4912   8.619   3.885   4.530  0.0694  0.0819 -0.2741
  778MOL0     C 4913   8.695   3.966   4.448  0.5067 -0.5519 -1.0736
  778MOL0     C 4914   8.824   3.957   4.486 -0.4212 -0.7231 -0.1116
  778MOL0     C 4915   8.944   4.033   4.437 -0.0485 -0.4822  0.1868
  778MOL0     C 4916   8.939   4.183   4.483 -0.5534  0.2839 -0.1255
  778MOL0     C 4917   9.068   4.259   4.443 -0.0252 -0.0147 -0.0681
  778MOL0     C 4918   9.079   4.393   4.511  0.2390  1.4345 -0.9734
  778MOL0     O 4919   8.998   4.488   4.440  0.1558  0.5832 -1.0369
  778MOL0     C 4920   9.035   4.615   4.479  0.2381  0.5927  0.0073
  778MOL0     C 4921   8.994   4.718   4.390 -0.5702 -0.5460 -0.1402
  778MOL0     C 4922   9.024   4.856   4.424 -0.4268 -0.3985  0.6908
  778MOL0     C 4923   9.087   4.892   4.547  0.8406  0.0464 -0.5494
  778MOL0     C 4924   9.120   5.033   4.588  0.0400 -0.0298  0.9439
  778MOL0     O 4925   9.105   5.133   4.490 -0.5084 -0.1359  0.0694
  778MOL0     C 4926   9.146   5.263   4.511  0.2932 -0.2391  0.5559
  778MOL0     C 4927   9.117   5.344   4.403  0.4755 -0.2182 -0.0431
  778MOL0     C 4928   9.143   5.476   4.402 -0.1241 -0.0873 -0.4754
  778MOL0     C 4929   9.201   5.537   4.516  0.5400  1.1132  0.1111
  778MOL0     O 4930   9.214   5.671   4.502 -0.3585  0.1535  0.2510
  778MOL0     C 4931   9.201   5.761   4.614  0.6929 -0.2977 -0.3027
  778MOL0     C 4932   9.077   5.738   4.701 -0.1715  0.0583  0.2866
  778MOL0     C 4933   9.021   5.868   4.756  0.0196  0.1025  0.7280
  778MOL0     C 4934   8.880   5.864   4.818 -0.0741 -0.0745 -0.5761
  778MOL0     C 4935   8.838   5.995   4.877  0.5828 -0.3284 -0.4864
  778MOL0     C 4936   8.801   6.107   4.775  0.3061  0.5485 -0.2757
  778MOL0     C 4937   8.754   6.226   4.860 -0.2678 -0.8703  0.1529
  778MOL0     C 4938   8.864   6.304   4.921  0.4377 -1.0386 -0.1552
  778MOL0    Cl 4939   9.004   6.336   4.813 -0.3815  0.4184  0.4343
  778MOL0     C 4940   9.231   5.459   4.627  0.0217 -0.3952 -0.4664
  778MOL0     C 4941   9.213   5.321   4.623  0.6834  0.2624 -1.0536
  778MOL0     O 4942   9.153   5.054   4.703 -0.6690 -0.6463 -0.4403
  778MOL0     C 4943   9.130   4.791   4.636 -0.4180  0.1624  0.3156
  778MOL0     C 4944   9.096   4.654   4.609  0.1357 -0.2476  0.0391
  778MOL0     N 4945   8.827   3.877   4.599 -0.5387  0.2567 -0.0461
  778MOL0     N 4946   8.706   3.827   4.618  0.1897  0.4364 -0.9274
  778MOL0     C 4947   7.443   3.520   4.100  1.1212 -0.4979  0.7234
  778MOL0     C 4948   7.324   3.586   4.091  0.9612 -0.1083  0.6726
  778MOL0     C 4949   6.997   3.855   4.166  0.1129 -0.8948 -0.1726
  778MOL0     C 4950   6.995   3.962   4.077 -0.0157  0.1855 -0.2791
  778MOL0     C 4951   6.879   4.038   4.041  1.2340  0.6629 -0.1294
  778MOL0     C 4952   6.758   3.997   4.108 -0.4291 -0.4229  0.3879
  778MOL0     O 4953   6.641   4.066   4.086  0.6287  0.6182  0.5928
  778MOL0     C 4954   6.574   4.047   3.952 -0.1744  0.0751 -0.2736
  778MOL0     C 4955   6.425   4.082   3.950 -0.5760 -0.4228 -0.8468
  778MOL0     C 4956   6.393   4.223   4.016 -0.2727  0.0822 -0.4111
  778MOL0     C 4957   6.451   4.342   3.943  0.2733 -0.5472 -0.9169
  778MOL0     C 4958   6.399   4.447   4.025 -0.0128 -0.6708 -0.0451
  778MOL0     C 4959   6.355   4.533   4.094  0.5257 -0.8806  0.2592
  778MOL0     C 4960   6.761   3.888   4.197  0.0741 -0.3184  0.0120
  778MOL0     C 4961   6.876   3.819   4.228  0.8462 -0.1758  0.2968
  778MOL0     C 4962   6.860   3.706   4.331  0.5127 -0.3321 -0.3096
  778MOL0     H 4963   7.432   3.903   4.173 -0.7384 -0.3423 -0.7422
  778MOL0     H 4964   7.655   3.780   4.156  2.3719 -2.8176  2.1582
  778MOL0     H 4965   7.824   3.617   4.056 -0.4872 -0.4149 -0.0774
  778MOL0     H 4966   7.796   3.673   4.222  0.9960  1.8032 -2.2945
  778MOL0     H 4967   7.935   3.399   4.155  1.6722 -0.4009 -0.0030
  778MOL0     H 4968   7.918   3.468   4.318 -0.7868 -0.7838 -0.1858
  778MOL0     H 4969   8.052   3.657   4.233  1.7206  0.1769 -2.4969
  778MOL0     H 4970   8.099   3.557   4.095  2.9170  0.2863 -0.5964
  778MOL0     H 4971   8.148   3.474   4.380 -0.2168 -2.7356 -1.5416
  778MOL0     H 4972   8.217   3.408   4.230 -3.0294  0.7274 -3.9782
  778MOL0     H 4973   8.394   3.516   4.348  0.6792  1.6975  0.9996
  778MOL0     H 4974   8.372   3.597   4.198 -0.7880 -1.5850 -0.4935
  778MOL0     H 4975   8.241   3.779   4.314 -1.1956 -1.2771 -0.8084
  778MOL0     H 4976   8.259   3.687   4.469  0.4862 -1.4583  0.2067
  778MOL0     H 4977   8.444   3.853   4.312 -0.9604  2.2492  3.1309
  778MOL0     H 4978   8.527   3.702   4.363 -0.3277  1.1964 -1.5633
  778MOL0     H 4979   8.400   3.924   4.530  1.4329  1.0261  2.1983
  778MOL0     H 4980   8.455   3.780   4.601 -1.9392  0.1798 -1.2798
  778MOL0     H 4981   8.662   4.027   4.365  0.3989 -0.3801 -0.9046
  778MOL0     H 4982   9.029   3.976   4.475  0.3924  0.0557  0.0136
  778MOL0     H 4983   8.943   4.031   4.327  1.2978  0.6466  0.1357
  778MOL0     H 4984   8.857   4.231   4.428  1.3119  0.3623 -3.0140
  778MOL0     H 4985   8.913   4.186   4.589  0.1989 -1.2942  0.1218
  778MOL0     H 4986   9.083   4.271   4.335 -0.2169 -0.3941 -0.1375
  778MOL0     H 4987   9.154   4.201   4.477 -1.5023 -2.6442 -0.5600
  778MOL0     H 4988   9.187   4.411   4.508  0.4887 -0.0216 -1.5038
  778MOL0     H 4989   9.052   4.380   4.616  1.6268 -3.1634 -0.9341
  778MOL0     H 4990   8.954   4.694   4.292 -1.0284  0.3690 -0.1930
  778MOL0     H 4991   9.000   4.942   4.361 -1.5074  1.1998  3.1326
  778MOL0     H 4992   9.067   5.294   4.321 -2.8110  4.0642 -1.0168
  778MOL0     H 4993   9.112   5.537   4.318 -0.3881  1.0071  0.3784
  778MOL0     H 4994   9.284   5.738   4.681  1.3540 -1.7706 -1.5507
  778MOL0     H 4995   9.203   5.863   4.574 -1.4806  0.3977  1.1736
  778MOL0     H 4996   9.003   5.700   4.630  2.7826  0.8726 -3.6603
  778MOL0     H 4997   9.107   5.656   4.767  2.9076 -2.1611 -3.4138
  778MOL0     H 4998   9.094   5.920   4.819  1.2423 -0.4754 -0.1685
  778MOL0     H 4999   9.016   5.939   4.673  2.8196 -0.1895  0.1939
  778MOL0     H 5000   8.882   5.785   4.894 -0.8257  0.7977  0.3842
  778MOL0     H 5001   8.798   5.823   4.758 -3.2902  3.1338  1.1908
  778MOL0     H 5002   8.915   6.028   4.947  1.0562 -0.6445 -0.8502
  778MOL0     H 5003   8.753   5.965   4.939  0.5548 -1.2638 -0.9576
  778MOL0     H 5004   8.880   6.141   4.707  1.1532  0.0628  0.4346
  778MOL0     H 5005   8.715   6.066   4.721  0.9623 -4.2539  1.7827
  778MOL0     H 5006   8.704   6.193   4.951 -0.3045 -0.5265  0.2555
  778MOL0     H 5007   8.698   6.292   4.793  0.8805 -1.1321 -1.1287
  778MOL0     H 5008   8.821   6.400   4.953 -0.6187 -0.7393 -2.2339
  778MOL0     H 5009   8.908   6.255   5.008  1.1918  0.8672  0.5995
  778MOL0     H 5010   9.291   5.498   4.709  0.6492  1.1773 -1.6044
  778MOL0     H 5011   9.258   5.261   4.701  0.7890 -1.4302 -2.3526
  778MOL0     H 5012   9.178   4.813   4.731 -1.0665 -0.5429  0.8181
  778MOL0     H 5013   9.126   4.579   4.682 -2.1497 -1.5440 -0.2851
  778MOL0     H 5014   7.448   3.412   4.086  2.1073 -0.4203  0.4389
  778MOL0     H 5015   7.238   3.530   4.054 -0.1242  0.4794  2.1720
  778MOL0     H 5016   7.086   3.984   4.021 -1.1811 -1.5533 -3.0910
  778MOL0     H 5017   6.881   4.125   3.976  1.6294 -0.0489 -1.0884
  778MOL0     H 5018   6.586   3.942   3.924 -2.2103 -0.0093 -0.9909
  778MOL0     H 5019   6.637   4.103   3.882  1.5822 -2.5829 -0.9381
  778MOL0     H 5020   6.361   4.017   4.011 -0.4269 -0.0571 -0.2945
  778MOL0     H 5021   6.374   4.074   3.853  0.7057  1.2780 -1.7088
  778MOL0     H 5022   6.442   4.221   4.113  1.8840  0.3167 -1.4207
  778MOL0     H 5023   6.284   4.227   4.019 -0.3062 -1.0918  1.7958
  778MOL0     H 5024   6.560   4.336   3.939  0.8373  1.7310  3.9635
  778MOL0     H 5025   6.417   4.349   3.839 -1.4728  1.7533 -0.2734
  778MOL0     H 5026   6.312   4.623   4.134 -0.1213 -0.4951 -1.2186
  778MOL0     H 5027   6.667   3.868   4.247  0.3464  0.0207  0.6684
  778MOL0     H 5028   6.767   3.726   4.386  1.0276  1.3886 -0.0044
  778MOL0     H 5029   6.855   3.605   4.289 -2.5752 -0.1983 -0.4647
  778MOL0     H 5030   6.939   3.708   4.407 -3.1081 -1.8797  3.9365
  779MOL0     O 5031   0.868   7.392   6.641 -0.0441 -0.2148  0.0633
  779MOL0     C 5032   0.850   7.319   6.551 -0.6525 -0.3920  0.2508
  779MOL0     O 5033   0.949   7.287   6.464 -0.5481 -0.8904 -0.6494
  779MOL0     C 5034   1.064   7.363   6.452 -0.2330 -0.1136  0.3229
  779MOL0     C 5035   1.191   7.302   6.463 -0.5481 -1.5155 -0.1724
  779MOL0     C 5036   1.313   7.374   6.449 -0.0856  0.3515  0.7056
  779MOL0     C 5037   1.306   7.507   6.415 -1.2820  0.0422 -0.9198
  779MOL0     O 5038   1.425   7.571   6.389 -0.2792 -0.6265  0.4572
  779MOL0     C 5039   1.449   7.686   6.463 -0.3073 -0.2597  0.9258
  779MOL0     C 5040   1.598   7.712   6.456  0.1430 -0.7521 -0.5818
  779MOL0     C 5041   1.695   7.599   6.502  0.3752 -0.1612 -0.2194
  779MOL0     C 5042   1.826   7.657   6.552 -0.2021  0.3690 -0.1718
  779MOL0     C 5043   1.884   7.746   6.438  0.0059  0.7141 -0.1293
  779MOL0     C 5044   2.019   7.793   6.474 -0.2450 -0.4488 -0.7307
  779MOL0     C 5045   2.120   7.683   6.476  0.0974  0.4342  0.7795
  779MOL0     C 5046   2.222   7.696   6.361  0.0910  0.6872 -0.0425
  779MOL0     N 5047   2.303   7.821   6.355  0.0051 -0.2112  0.1635
  779MOL0     C 5048   2.326   7.901   6.239 -0.0881 -0.9309 -0.7763
  779MOL0     C 5049   2.404   7.999   6.284  0.1870 -0.0144 -0.3624
  779MOL0     C 5050   2.476   8.096   6.191 -0.3667 -0.4556 -0.4981
  779MOL0     C 5051   2.631   8.097   6.231  0.0111  0.7757 -0.3514
  779MOL0     C 5052   2.719   8.183   6.137 -0.5135  0.1800 -0.2781
  779MOL0     C 5053   2.863   8.141   6.147 -0.2982  0.1123 -0.5979
  779MOL0     O 5054   2.938   8.233   6.073  0.5339 -0.3547 -0.0612
  779MOL0     C 5055   3.074   8.218   6.048  0.3570 -0.0262  0.0511
  779MOL0     C 5056   3.143   8.315   5.969 -0.3044  0.6565 -0.3198
  779MOL0     C 5057   3.280   8.301   5.947 -0.7204 -0.6259 -0.3305
  779MOL0     C 5058   3.358   8.208   6.020  0.1134 -0.0897  0.4474
  779MOL0     C 5059   3.508   8.211   6.004  0.2720 -0.3931 -0.0780
  779MOL0     O 5060   3.564   8.334   5.975  0.5251 -0.6402 -0.2635
  779MOL0     C 5061   3.693   8.336   5.929  0.1019  0.0848  0.1129
  779MOL0     C 5062   3.793   8.246   5.972  0.0718 -0.4330  0.7500
  779MOL0     C 5063   3.926   8.262   5.939 -0.8708  1.3541  0.6549
  779MOL0     C 5064   3.966   8.372   5.865 -0.1443  0.0803  0.5755
  779MOL0     O 5065   4.094   8.389   5.819 -0.1169  0.1579 -0.6580
  779MOL0     C 5066   4.205   8.392   5.905  0.7839 -0.2253  0.4982
  779MOL0     C 5067   4.338   8.401   5.826  0.4531 -0.7138 -0.1110
  779MOL0     C 5068   4.463   8.450   5.906 -0.4721 -0.1056 -0.1149
  779MOL0     C 5069   4.572   8.462   5.806 -0.7965 -0.1897 -0.3276
  779MOL0     C 5070   4.702   8.482   5.882 -0.0895 -0.1460  0.0347
  779MOL0     C 5071   4.810   8.569   5.812 -0.4274  0.0199 -0.2714
  779MOL0     C 5072   4.944   8.552   5.891 -0.2721  0.0477 -0.3618
  779MOL0     C 5073   5.066   8.614   5.815  0.2703 -0.2216  0.0543
  779MOL0    Cl 5074   5.029   8.790   5.810 -0.1512  0.4672  0.8203
  779MOL0     C 5075   3.868   8.464   5.823  0.4145 -0.5503  0.4952
  779MOL0     C 5076   3.735   8.448   5.851 -0.2230  0.3947 -0.0212
  779MOL0     O 5077   3.561   8.102   5.991 -0.1684  0.7222  1.0393
  779MOL0     C 5078   3.281   8.124   6.114  0.1149 -0.5292 -0.4681
  779MOL0     C 5079   3.143   8.127   6.123  0.5310  0.3969 -0.4231
  779MOL0     N 5080   2.437   7.982   6.417  0.5630  0.4205 -0.6408
  779MOL0     N 5081   2.368   7.875   6.464  0.6711  0.4509 -0.0097
  779MOL0     C 5082   1.181   7.571   6.410 -0.0432  0.4172  0.7460
  779MOL0     C 5083   1.066   7.500   6.426  0.2935 -0.0489 -0.2675
  779MOL0     C 5084   0.715   7.258   6.529  0.0974 -0.6066 -0.0415
  779MOL0     C 5085   0.694   7.173   6.422  0.6150 -0.9166 -0.9713
  779MOL0     C 5086   0.574   7.118   6.395 -0.3326 -0.0634  0.5806
  779MOL0     C 5087   0.460   7.137   6.475 -0.3650 -0.1126  0.3080
  779MOL0     O 5088   0.339   7.075   6.456  0.4537 -0.0010  0.6595
  779MOL0     C 5089   0.305   6.958   6.529 -0.1414  0.6174 -0.6689
  779MOL0     C 5090   0.170   6.923   6.461  0.6004 -0.0432  0.7778
  779MOL0     C 5091   0.101   6.815   6.535  0.9858 -0.4680 -0.4567
  779MOL0     C 5092  -0.018   6.753   6.462 -0.0211  0.1299  0.2005
  779MOL0     C 5093  -0.058   6.626   6.524 -0.0246  0.6098  0.2766
  779MOL0     C 5094  -0.108   6.538   6.582  0.1427 -0.1560 -0.0197
  779MOL0     C 5095   0.487   7.201   6.593 -0.3019  0.9007 -0.3489
  779MOL0     C 5096   0.605   7.271   6.622  0.2536 -0.9206  0.1932
  779MOL0     C 5097   0.601   7.367   6.741  0.4713 -0.7242  0.0443
  779MOL0     H 5098   1.196   7.195   6.484 -1.7739 -1.9459 -1.9175
  779MOL0     H 5099   1.407   7.321   6.462 -1.3200 -1.4854  2.7252
  779MOL0     H 5100   1.382   7.765   6.428 -0.4433 -1.6444 -2.3228
  779MOL0     H 5101   1.428   7.660   6.567  2.8733  0.2802  1.8107
  779MOL0     H 5102   1.626   7.794   6.523 -0.1989 -3.0064  2.5391
  779MOL0     H 5103   1.622   7.759   6.360 -1.7461  2.6801  0.4592
  779MOL0     H 5104   1.698   7.532   6.416  0.4807 -0.7186  0.2138
  779MOL0     H 5105   1.650   7.545   6.585  0.7552 -0.4972 -0.2266
  779MOL0     H 5106   1.807   7.715   6.643  1.2952  2.8868 -1.3648
  779MOL0     H 5107   1.889   7.574   6.585 -0.2607  0.4589  0.1750
  779MOL0     H 5108   1.892   7.672   6.358 -1.0013  0.9331 -0.4392
  779MOL0     H 5109   1.822   7.831   6.410  0.3229  0.9498 -0.1174
  779MOL0     H 5110   2.044   7.872   6.402  0.5235 -3.2124 -3.6901
  779MOL0     H 5111   2.012   7.841   6.572  0.5381  0.5509 -1.1388
  779MOL0     H 5112   2.072   7.585   6.487 -2.4407  1.4556 -0.4600
  779MOL0     H 5113   2.179   7.688   6.568  0.7980 -0.7503  0.4235
  779MOL0     H 5114   2.284   7.605   6.362 -1.9332 -0.7804 -0.2799
  779MOL0     H 5115   2.179   7.683   6.262  1.2952  0.8211 -0.5944
  779MOL0     H 5116   2.291   7.893   6.137 -0.6447  0.2802 -0.6965
  779MOL0     H 5117   2.476   8.058   6.088  1.5910 -0.3382 -0.5749
  779MOL0     H 5118   2.417   8.188   6.204 -1.2998 -1.4646  3.6896
  779MOL0     H 5119   2.640   8.134   6.334 -0.8853  0.2702 -0.0859
  779MOL0     H 5120   2.664   7.993   6.227 -0.3658  0.6901 -1.5908
  779MOL0     H 5121   2.722   8.284   6.179 -1.4731  0.5740 -1.1076
  779MOL0     H 5122   2.684   8.166   6.035  0.2595 -2.8322 -0.1414
  779MOL0     H 5123   2.879   8.038   6.113 -2.5150 -1.5959  2.9817
  779MOL0     H 5124   2.900   8.138   6.250  4.3685  0.1135 -2.0339
  779MOL0     H 5125   3.072   8.383   5.924 -2.1121 -1.6746 -1.2309
  779MOL0     H 5126   3.336   8.374   5.889  0.3029 -1.7872 -0.8698
  779MOL0     H 5127   3.766   8.166   6.040 -2.8496 -0.5977 -0.4444
  779MOL0     H 5128   3.996   8.184   5.965 -3.4245 -1.0452  0.8376
  779MOL0     H 5129   4.185   8.484   5.960  1.8987  0.0957  0.4000
  779MOL0     H 5130   4.193   8.307   5.973 -3.6531 -1.1165 -1.0611
  779MOL0     H 5131   4.357   8.296   5.798 -1.6525 -1.1610 -0.0011
  779MOL0     H 5132   4.320   8.463   5.738 -1.0989  1.7092  1.8040
  779MOL0     H 5133   4.454   8.550   5.950 -1.6184  0.1903 -0.9843
  779MOL0     H 5134   4.480   8.380   5.989 -1.7542  2.2526  2.2898
  779MOL0     H 5135   4.568   8.552   5.744  1.1360  0.0988 -0.0882
  779MOL0     H 5136   4.569   8.374   5.741  1.2338 -0.1486 -0.5551
  779MOL0     H 5137   4.748   8.385   5.899  2.7251  1.3037  1.3138
  779MOL0     H 5138   4.687   8.527   5.980  2.8873  0.1380  0.4411
  779MOL0     H 5139   4.821   8.535   5.708 -1.2348  1.8841 -1.0217
  779MOL0     H 5140   4.781   8.674   5.801 -1.2713  0.1264  2.3669
  779MOL0     H 5141   4.954   8.447   5.919  0.0114  0.0646 -0.4010
  779MOL0     H 5142   4.946   8.603   5.988 -2.3130 -0.5680  0.0465
  779MOL0     H 5143   5.167   8.607   5.857  0.3738  3.2720  0.6694
  779MOL0     H 5144   5.064   8.573   5.713  1.3905  0.3141 -0.2022
  779MOL0     H 5145   3.910   8.553   5.776  3.2803 -2.0316  0.0317
  779MOL0     H 5146   3.650   8.509   5.821  1.2417  2.4972 -0.1899
  779MOL0     H 5147   3.328   8.043   6.170 -1.2296 -1.4745 -0.6585
  779MOL0     H 5148   3.096   8.055   6.189  0.1882  0.1357 -0.9456
  779MOL0     H 5149   1.172   7.675   6.379  0.1098  0.7196  1.6585
  779MOL0     H 5150   0.971   7.552   6.425 -0.4304 -1.3170  0.8690
  779MOL0     H 5151   0.776   7.165   6.351  2.1133 -1.9918  0.8087
  779MOL0     H 5152   0.570   7.069   6.298  0.2517  1.1336 -0.0627
  779MOL0     H 5153   0.307   6.977   6.637  4.0985 -0.9361 -0.2705
  779MOL0     H 5154   0.370   6.872   6.508  0.6070  0.3876  2.2085
  779MOL0     H 5155   0.183   6.896   6.355 -0.2579  2.3668 -0.0067
  779MOL0     H 5156   0.097   7.003   6.457 -0.4829 -0.9327  2.0313
  779MOL0     H 5157   0.057   6.862   6.623 -0.9315 -1.5577 -0.7792
  779MOL0     H 5158   0.164   6.732   6.570 -1.9365 -1.8451  1.9877
  779MOL0     H 5159  -0.091   6.835   6.465  1.3949  1.4863 -0.6947
  779MOL0     H 5160   0.004   6.729   6.358  1.3661  2.6637 -0.1766
  779MOL0     H 5161  -0.151   6.461   6.643 -0.5279 -0.3159 -0.6810
  779MOL0     H 5162   0.404   7.198   6.663  0.0769 -0.8178  0.0944
  779MOL0     H 5163   0.615   7.472   6.712 -0.8349 -1.0017 -1.7496
  779MOL0     H 5164   0.507   7.365   6.798  0.4822  1.7648  0.2627
  779MOL0     H 5165   0.684   7.348   6.809  0.7983  1.2199  0.2590
  780MOL0     O 5166   3.595   5.486  10.164  0.3884  0.2737 -0.6714
  780MOL0     C 5167   3.523   5.583  10.143  1.3172  1.0407 -0.5609
  780MOL0     O 5168   3.531   5.701  10.197  0.2976  0.2735  0.6513
  780MOL0     C 5169   3.646   5.774  10.202  0.6927 -0.4634  0.1584
  780MOL0     C 5170   3.634   5.912  10.200 -0.0242 -0.5126 -0.3405
  780MOL0     C 5171   3.741   5.995  10.245 -0.1493  0.1242  0.3970
  780MOL0     C 5172   3.868   5.937  10.279  0.6850  0.0032 -0.3374
  780MOL0     O 5173   3.985   6.003  10.314  0.4298  0.0660 -0.2000
  780MOL0     C 5174   3.989   6.150  10.302  0.0145 -0.8310 -0.3559
  780MOL0     C 5175   4.084   6.188  10.188  0.0669  0.5835  0.7837
  780MOL0     C 5176   4.228   6.133  10.195  0.6477  0.0056 -0.7401
  780MOL0     C 5177   4.308   6.164  10.071 -0.8943  0.1711  0.3481
  780MOL0     C 5178   4.461   6.131  10.089  0.1984 -0.7384 -0.3234
  780MOL0     C 5179   4.504   5.986  10.132  0.5534 -0.5053 -0.1138
  780MOL0     C 5180   4.649   5.985  10.183  0.5904 -0.7062  0.3701
  780MOL0     C 5181   4.740   5.995  10.051 -0.3530 -1.1953 -0.4986
  780MOL0     N 5182   4.873   6.021  10.124  0.8276  0.1576  0.4183
  780MOL0     C 5183   4.942   6.140  10.140 -0.4105 -0.1584  0.6305
  780MOL0     C 5184   5.056   6.105  10.207 -0.4680 -0.0968  0.4993
  780MOL0     C 5185   5.172   6.197  10.247  0.9056  0.6714 -0.0311
  780MOL0     C 5186   5.156   6.268  10.382 -0.4671 -1.1623  0.3888
  780MOL0     C 5187   5.271   6.369  10.412  0.4219  0.8257  0.1406
  780MOL0     C 5188   5.406   6.320  10.374  0.4029 -0.5979  0.1176
  780MOL0     O 5189   5.501   6.424  10.412  0.0323  0.4930 -0.0208
  780MOL0     C 5190   5.634   6.395  10.391  0.2553 -0.2097 -0.2837
  780MOL0     C 5191   5.678   6.273  10.325  0.6088 -0.4867  0.1304
  780MOL0     C 5192   5.819   6.250  10.309  0.3746 -0.5900 -0.0693
  780MOL0     C 5193   5.916   6.344  10.359 -0.5926  0.1197  0.1929
  780MOL0     C 5194   6.065   6.327  10.355  0.2263  0.4388  0.6243
  780MOL0     O 5195   6.139   6.417  10.421 -0.5291 -0.6296 -0.4721
  780MOL0     C 5196   6.275   6.393  10.423  0.4639 -0.4716  0.1452
  780MOL0     C 5197   6.348   6.374  10.307 -0.8867  0.4026 -1.0991
  780MOL0     C 5198   6.487   6.363  10.314 -0.5544  0.2126  0.3936
  780MOL0     C 5199   6.552   6.394  10.438 -0.1562  0.1194  0.8914
  780MOL0     O 5200   6.693   6.406  10.430 -0.1309 -0.0878 -0.8986
  780MOL0     C 5201   6.763   6.389  10.554 -1.3376 -0.6487  0.1797
  780MOL0     C 5202   6.920   6.409  10.539  0.1780 -0.1778 -0.0898
  780MOL0     C 5203   6.988   6.400  10.673 -0.2484 -0.1786  0.1499
  780MOL0     C 5204   7.133   6.451  10.672 -0.0478  0.1303 -0.3185
  780MOL0     C 5205   7.189   6.433  10.817 -0.6368  0.8117 -1.1948
  780MOL0     C 5206   7.312   6.512  10.841 -0.1086 -0.4273 -0.4683
  780MOL0     C 5207   7.441   6.448  10.777  0.4240  0.0537 -1.2931
  780MOL0     C 5208   7.554   6.550  10.765  0.1253  0.1820 -1.0459
  780MOL0    Cl 5209   7.496   6.694  10.669 -0.1876 -0.2906 -0.0315
  780MOL0     C 5210   6.479   6.409  10.553 -0.0992 -0.0026  0.9838
  780MOL0     C 5211   6.337   6.404  10.548 -0.2052  0.4502 -0.0994
  780MOL0     O 5212   6.102   6.228  10.293 -0.5531  0.3767 -0.5413
  780MOL0     C 5213   5.869   6.460  10.426  0.4014 -0.7810  0.4970
  780MOL0     C 5214   5.730   6.481  10.427  0.7783  0.7003 -0.4156
  780MOL0     N 5215   5.049   5.967  10.229 -0.1253 -0.4156  0.4360
  780MOL0     N 5216   4.944   5.923  10.183 -0.7457  0.1846 -0.1432
  780MOL0     C 5217   3.878   5.802  10.251 -1.0425 -0.0272 -0.1612
  780MOL0     C 5218   3.767   5.722  10.221  0.3282 -0.1462 -0.2958
  780MOL0     C 5219   3.400   5.567  10.054 -0.6740  0.4322  0.4849
  780MOL0     C 5220   3.355   5.687   9.991  0.3543  0.0083 -0.1888
  780MOL0     C 5221   3.235   5.681   9.915 -0.3344  0.2721 -0.3160
  780MOL0     C 5222   3.158   5.570   9.903  0.2031  0.0359  0.1150
  780MOL0     O 5223   3.039   5.555   9.842  0.5716 -0.4672  0.6257
  780MOL0     C 5224   2.974   5.672   9.790  0.0792  0.1909 -0.0519
  780MOL0     C 5225   2.828   5.645   9.792  0.3004 -0.3357  0.4609
  780MOL0     C 5226   2.797   5.531   9.694 -0.5081 -0.3050  0.0806
  780MOL0     C 5227   2.649   5.540   9.663  0.1864  0.3384  0.2875
  780MOL0     C 5228   2.564   5.526   9.782 -0.6476 -1.4374  0.5198
  780MOL0     C 5229   2.492   5.514   9.879 -0.2759  0.0618 -0.6895
  780MOL0     C 5230   3.210   5.450   9.954 -0.1502 -0.1125  0.3976
  780MOL0     C 5231   3.324   5.442  10.031 -0.2881  0.2920 -0.1197
  780MOL0     C 5232   3.361   5.315  10.091  0.6030  0.7767 -0.4015
  780MOL0     H 5233   3.536   5.955  10.182  0.6286  0.7211 -1.0943
  780MOL0     H 5234   3.737   6.103  10.250  1.5391  0.2113  0.5246
  780MOL0     H 5235   3.897   6.201  10.271  1.4995  0.6159 -2.7836
  780MOL0     H 5236   4.024   6.192  10.397  2.1781  0.0085 -1.4460
  780MOL0     H 5237   4.089   6.297  10.174  2.1672  0.2334 -2.3514
  780MOL0     H 5238   4.049   6.148  10.092 -0.2621  0.3964  0.9775
  780MOL0     H 5239   4.228   6.030  10.230  2.9428  0.3385  0.4117
  780MOL0     H 5240   4.273   6.192  10.276  1.5274  0.5495 -1.6131
  780MOL0     H 5241   4.257   6.101   9.998 -1.4270 -0.9472  1.6255
  780MOL0     H 5242   4.313   6.270  10.045 -0.7616  0.0456 -0.1449
  780MOL0     H 5243   4.524   6.154  10.003 -0.0098  0.0249 -0.2808
  780MOL0     H 5244   4.489   6.200  10.170  0.1340 -0.2398 -0.7181
  780MOL0     H 5245   4.430   5.956  10.207  0.5326  0.9076  0.4560
  780MOL0     H 5246   4.502   5.915  10.049  1.0309 -0.5039 -0.1289
  780MOL0     H 5247   4.667   5.895  10.243 -0.4700  1.1352  3.6412
  780MOL0     H 5248   4.663   6.071  10.249 -0.2395  1.5674 -2.2175
  780MOL0     H 5249   4.754   5.898  10.004  0.7239 -0.5796 -1.5149
  780MOL0     H 5250   4.709   6.067   9.975  2.7847  0.9295  0.0199
  780MOL0     H 5251   4.909   6.232  10.094  0.1731 -0.6709 -0.8784
  780MOL0     H 5252   5.262   6.135  10.245  0.1984 -0.4921  1.7887
  780MOL0     H 5253   5.179   6.272  10.167 -1.6720  0.2844 -0.6842
  780MOL0     H 5254   5.065   6.329  10.383 -0.2753 -0.8770  0.8835
  780MOL0     H 5255   5.145   6.200  10.467 -1.3184 -1.6145 -0.0685
  780MOL0     H 5256   5.270   6.379  10.521  0.3794  3.6605 -0.0414
  780MOL0     H 5257   5.244   6.463  10.363  0.0489  0.4240 -0.4459
  780MOL0     H 5258   5.409   6.306  10.265 -2.8724 -0.8187 -0.0672
  780MOL0     H 5259   5.420   6.230  10.435  4.7818  0.9222  1.7084
  780MOL0     H 5260   5.620   6.191  10.283 -1.2822  0.8887 -0.0713
  780MOL0     H 5261   5.848   6.172  10.240  0.5803  0.2666 -0.9671
  780MOL0     H 5262   6.295   6.376  10.213 -1.8775 -0.0809 -0.5614
  780MOL0     H 5263   6.544   6.354  10.222 -0.2282  1.6902  0.4244
  780MOL0     H 5264   6.735   6.466  10.627  0.6942 -0.2846  0.6334
  780MOL0     H 5265   6.737   6.295  10.603 -1.1358 -1.1004 -0.5799
  780MOL0     H 5266   6.967   6.342  10.466 -0.2676 -1.5977  0.8958
  780MOL0     H 5267   6.929   6.512  10.501  1.6819 -0.9190 -1.9054
  780MOL0     H 5268   6.933   6.458  10.749 -2.2565 -1.6261 -0.1243
  780MOL0     H 5269   6.994   6.293  10.692 -1.2896 -0.6432 -1.8802
  780MOL0     H 5270   7.146   6.557  10.646  0.9431 -0.1267 -0.9221
  780MOL0     H 5271   7.190   6.400  10.594  2.1738  0.0814  1.2421
  780MOL0     H 5272   7.203   6.325  10.834 -1.5508  0.6712 -1.3089
  780MOL0     H 5273   7.120   6.477  10.889 -0.8026 -0.1894 -0.7247
  780MOL0     H 5274   7.291   6.610  10.797  0.9397 -0.1211 -0.3363
  780MOL0     H 5275   7.333   6.514  10.948  3.6408 -1.6321 -1.0215
  780MOL0     H 5276   7.409   6.409  10.680 -1.5432  2.2239 -1.6186
  780MOL0     H 5277   7.470   6.361  10.837  0.8830 -0.8625 -2.7909
  780MOL0     H 5278   7.570   6.594  10.864 -1.5613 -0.7414 -0.3093
  780MOL0     H 5279   7.643   6.501  10.723 -0.0493  0.5539 -1.8562
  780MOL0     H 5280   6.530   6.429  10.646  0.8136  0.9326  0.3006
  780MOL0     H 5281   6.280   6.430  10.636 -0.3529  2.2736 -0.6964
  780MOL0     H 5282   5.926   6.545  10.460 -0.0662  0.3716 -1.4557
  780MOL0     H 5283   5.693   6.570  10.476  1.2892  0.8292 -0.2548
  780MOL0     H 5284   3.977   5.757  10.256 -1.3908 -0.6444  2.6023
  780MOL0     H 5285   3.781   5.614  10.220 -2.8228 -0.6557  0.4043
  780MOL0     H 5286   3.416   5.776  10.006  1.7529 -0.7828 -1.0494
  780MOL0     H 5287   3.212   5.780   9.876 -0.8849  1.1112  1.9933
  780MOL0     H 5288   3.012   5.692   9.689 -0.6029  2.6602  0.1355
  780MOL0     H 5289   2.991   5.759   9.853  1.5495 -2.4012  3.4651
  780MOL0     H 5290   2.772   5.734   9.761 -2.5178 -1.3053  2.3818
  780MOL0     H 5291   2.796   5.614   9.892 -2.3351  0.7336  0.0092
  780MOL0     H 5292   2.835   5.438   9.736  2.8836  0.6111 -0.6317
  780MOL0     H 5293   2.863   5.540   9.607 -0.9850  0.0234 -0.2571
  780MOL0     H 5294   2.621   5.629   9.606 -1.2713  0.3130  0.9100
  780MOL0     H 5295   2.632   5.452   9.601  0.1274  0.0575  0.6969
  780MOL0     H 5296   2.441   5.509   9.974  1.0756 -0.4872  0.0402
  780MOL0     H 5297   3.151   5.362   9.931 -0.9458  0.5986 -0.3462
  780MOL0     H 5298   3.469   5.299  10.097  0.4140 -1.7966 -2.2246
  780MOL0     H 5299   3.309   5.296  10.185  1.9713  1.1947  0.4718
  780MOL0     H 5300   3.327   5.225  10.038 -0.6437  1.2901 -0.4893
  781MOL0     O 5301  10.707   2.856   0.448 -0.5308 -0.0447 -0.5559
  781MOL0     C 5302  10.632   2.926   0.518  0.2667 -0.0399 -1.0504
  781MOL0     O 5303  10.671   3.000   0.623 -0.2011 -0.1333  0.2818
  781MOL0     C 5304  10.781   2.960   0.694 -0.5068  0.3502  0.1723
  781MOL0     C 5305  10.910   2.984   0.637  0.5090  0.3218 -0.1280
  781MOL0     C 5306  11.024   2.964   0.719  1.2105 -0.5041  0.3310
  781MOL0     C 5307  11.017   2.905   0.844 -0.2949 -0.0828 -0.8242
  781MOL0     O 5308  11.123   2.858   0.916 -0.0350 -0.0518 -0.2027
  781MOL0     C 5309  11.251   2.852   0.855  0.0410 -0.3404  0.2798
  781MOL0     C 5310  11.263   2.720   0.776  0.1976 -0.2851 -0.3104
  781MOL0     C 5311  11.381   2.715   0.675  0.6819  0.0875  0.3510
  781MOL0     C 5312  11.521   2.727   0.750  0.5845 -0.5357  1.1154
  781MOL0     C 5313  11.626   2.744   0.645 -0.5963 -0.8202 -0.1700
  781MOL0     C 5314  11.771   2.749   0.703 -0.7301 -0.1461 -0.6429
  781MOL0     C 5315  11.869   2.765   0.587 -0.5354 -0.2923 -0.1390
  781MOL0     C 5316  12.007   2.777   0.645  0.2953 -0.2930  0.8907
  781MOL0     N 5317  12.024   2.898   0.724  0.0500 -0.7683 -0.0998
  781MOL0     C 5318  12.095   3.013   0.685 -0.8499  0.5310 -0.0635
  781MOL0     C 5319  12.119   3.082   0.792 -0.2708  1.2235 -0.5191
  781MOL0     C 5320  12.186   3.218   0.799 -0.5173 -0.0571 -0.4247
  781MOL0     C 5321  12.290   3.226   0.912  0.1902  0.3446  0.1045
  781MOL0     C 5322  12.331   3.369   0.940  0.2746  0.3797 -0.3851
  781MOL0     C 5323  12.376   3.452   0.819  0.1526 -0.0880  0.7794
  781MOL0     O 5324  12.459   3.364   0.742 -0.2390  1.1722  0.0232
  781MOL0     C 5325  12.579   3.413   0.718  0.2247  0.0133 -0.9846
  781MOL0     C 5326  12.693   3.341   0.751 -0.0116 -0.1289 -0.3747
  781MOL0     C 5327  12.825   3.383   0.703  0.4883 -0.1721 -0.0413
  781MOL0     C 5328  12.841   3.504   0.638  1.1104  0.2866 -0.3957
  781MOL0     C 5329  12.969   3.552   0.594 -0.8219  0.2269 -0.7553
  781MOL0     O 5330  13.079   3.484   0.634 -0.7554  0.0512  0.0427
  781MOL0     C 5331  13.202   3.537   0.604 -0.4079  0.1191  0.1925
  781MOL0     C 5332  13.285   3.480   0.510  0.6260  0.3500 -0.1053
  781MOL0     C 5333  13.420   3.523   0.499  0.3265  0.5451  0.3852
  781MOL0     C 5334  13.474   3.620   0.583 -0.0374 -1.3630 -0.6858
  781MOL0     O 5335  13.609   3.645   0.577 -0.6469 -0.1488 -0.5538
  781MOL0     C 5336  13.664   3.762   0.655 -1.1731 -0.5337  1.2525
  781MOL0     C 5337  13.784   3.813   0.579 -0.3086  0.2895  0.4836
  781MOL0     C 5338  13.872   3.698   0.508 -0.1275  0.6339  1.0894
  781MOL0     C 5339  14.014   3.747   0.469 -0.9208  0.0357  0.6784
  781MOL0     C 5340  14.066   3.664   0.336 -0.5346 -0.2094  0.3386
  781MOL0     C 5341  14.101   3.516   0.365  0.0487 -0.4914  0.5206
  781MOL0     C 5342  14.249   3.515   0.412  0.0648  0.1680 -0.3010
  781MOL0     C 5343  14.305   3.374   0.453  0.3491 -0.3903  0.3643
  781MOL0    Cl 5344  14.241   3.346   0.613 -0.0333  0.1356  0.0223
  781MOL0     C 5345  13.386   3.686   0.667 -0.1658  0.2234 -0.7229
  781MOL0     C 5346  13.251   3.647   0.676  1.0327  0.1062  0.6680
  781MOL0     O 5347  12.972   3.657   0.526  0.5134  0.0572 -0.0575
  781MOL0     C 5348  12.723   3.585   0.621 -0.2126  0.1623  0.3640
  781MOL0     C 5349  12.595   3.534   0.651 -0.4119 -0.3986 -0.6090
  781MOL0     N 5350  12.064   3.020   0.904 -0.8017 -0.2491  0.2248
  781MOL0     N 5351  12.013   2.912   0.861  0.2216  0.4408 -0.3546
  781MOL0     C 5352  10.895   2.873   0.891  0.5165  0.5602 -0.3007
  781MOL0     C 5353  10.778   2.899   0.815  0.0974  0.6202  0.0859
  781MOL0     C 5354  10.495   2.935   0.472 -0.3501 -0.5285  0.2759
  781MOL0     C 5355  10.437   3.065   0.481 -0.8901  0.7505  0.6930
  781MOL0     C 5356  10.312   3.082   0.433  0.7876 -0.0986  0.1027
  781MOL0     C 5357  10.242   2.982   0.364  0.2425 -0.1678  0.1591
  781MOL0     O 5358  10.126   3.014   0.296  0.0621 -0.3255  0.0217
  781MOL0     C 5359  10.056   2.912   0.222  0.4966 -0.3984 -0.6787
  781MOL0     C 5360   9.937   2.987   0.161 -0.2427  0.9410 -0.8300
  781MOL0     C 5361   9.868   2.910   0.041 -0.9299 -0.1215  0.0105
  781MOL0     C 5362   9.844   2.766   0.073 -0.0276 -0.0456 -0.3393
  781MOL0     C 5363   9.759   2.708  -0.031  0.2576  0.8688 -0.2164
  781MOL0     C 5364   9.685   2.671  -0.116  1.1575  0.8625  0.2124
  781MOL0     C 5365  10.297   2.851   0.358 -0.0505 -0.7957  0.4889
  781MOL0     C 5366  10.429   2.836   0.401  0.3753 -0.1766  0.1066
  781MOL0     C 5367  10.485   2.700   0.375 -0.3524  0.4471 -0.3052
  781MOL0     H 5368  10.917   3.024   0.536  1.8526 -0.7137 -0.4746
  781MOL0     H 5369  11.112   3.001   0.668 -1.6004  0.3920 -4.4700
  781MOL0     H 5370  11.277   2.938   0.792  1.8551 -2.0609 -1.4868
  781MOL0     H 5371  11.326   2.847   0.935  1.8889 -2.8724 -1.4437
  781MOL0     H 5372  11.176   2.709   0.712 -0.3803  1.4521  0.1114
  781MOL0     H 5373  11.274   2.637   0.846  0.6186  1.7355  2.2170
  781MOL0     H 5374  11.367   2.788   0.594 -0.2891 -1.4272 -0.9179
  781MOL0     H 5375  11.384   2.621   0.619  0.1827  1.2188 -1.6695
  781MOL0     H 5376  11.511   2.802   0.828  1.6125 -0.5676  1.2900
  781MOL0     H 5377  11.536   2.625   0.786  2.6376 -1.4769 -1.9666
  781MOL0     H 5378  11.628   2.665   0.570 -2.0097 -3.8397  2.7223
  781MOL0     H 5379  11.606   2.838   0.593 -0.6474  0.8161  2.5685
  781MOL0     H 5380  11.773   2.839   0.766 -1.3407 -1.4532  1.3287
  781MOL0     H 5381  11.797   2.661   0.763  0.1075  1.6839  1.8529
  781MOL0     H 5382  11.861   2.858   0.530  3.0130  0.1647 -0.1022
  781MOL0     H 5383  11.880   2.683   0.515  1.5293 -2.1655  2.1545
  781MOL0     H 5384  12.025   2.690   0.709  0.2438 -0.3845  0.7813
  781MOL0     H 5385  12.074   2.775   0.559 -0.6339 -1.5184  0.1617
  781MOL0     H 5386  12.137   3.039   0.588  0.8914  0.1843  0.5644
  781MOL0     H 5387  12.244   3.228   0.707  1.2866  1.6703  0.8217
  781MOL0     H 5388  12.117   3.302   0.814 -1.0764 -0.9339  2.5658
  781MOL0     H 5389  12.242   3.200   1.006 -0.6425 -1.3862 -0.7484
  781MOL0     H 5390  12.380   3.167   0.897  0.8335  0.8342  1.8173
  781MOL0     H 5391  12.421   3.364   1.002  1.8203  0.0977 -2.5533
  781MOL0     H 5392  12.254   3.430   0.988 -0.9055  0.8985 -2.8043
  781MOL0     H 5393  12.437   3.536   0.854  1.0111  0.6464 -2.1906
  781MOL0     H 5394  12.294   3.503   0.768  0.9209  0.0773 -0.3105
  781MOL0     H 5395  12.690   3.245   0.800  1.0086  0.9070  1.8522
  781MOL0     H 5396  12.919   3.329   0.710 -0.4423 -1.7395  0.7955
  781MOL0     H 5397  13.234   3.410   0.445 -1.5820  1.7946 -0.0152
  781MOL0     H 5398  13.490   3.484   0.424  0.2896  0.2062  0.5243
  781MOL0     H 5399  13.594   3.844   0.672 -0.0413  0.5621  0.7693
  781MOL0     H 5400  13.697   3.730   0.755 -0.6202  1.4536  1.7699
  781MOL0     H 5401  13.767   3.879   0.494  0.1190  1.7080  1.4756
  781MOL0     H 5402  13.844   3.860   0.656  0.7531 -2.5625  1.5335
  781MOL0     H 5403  13.886   3.609   0.570  1.2480  0.6472  0.8374
  781MOL0     H 5404  13.813   3.678   0.419  0.1746 -3.1112  1.5653
  781MOL0     H 5405  14.085   3.734   0.551 -0.8655 -0.2683  0.5862
  781MOL0     H 5406  14.009   3.852   0.438  2.3995  0.4406  1.1330
  781MOL0     H 5407  14.153   3.714   0.293 -1.0134 -1.0599 -1.7703
  781MOL0     H 5408  13.988   3.673   0.259 -0.5141  0.8258  0.4262
  781MOL0     H 5409  14.030   3.490   0.445 -3.7690  2.5010 -1.5641
  781MOL0     H 5410  14.092   3.454   0.276 -2.4572  0.6887 -0.1558
  781MOL0     H 5411  14.268   3.575   0.501  0.5207 -1.4714  0.7485
  781MOL0     H 5412  14.307   3.550   0.326  0.7875 -0.2223  0.0197
  781MOL0     H 5413  14.282   3.291   0.386  0.3113  1.0455 -1.4788
  781MOL0     H 5414  14.414   3.383   0.453  0.3157  2.3458  3.7444
  781MOL0     H 5415  13.410   3.761   0.742 -0.7640 -0.4150  0.1365
  781MOL0     H 5416  13.180   3.698   0.741  0.2594  1.9699 -1.4670
  781MOL0     H 5417  12.728   3.687   0.585  0.8941  0.3461  0.9919
  781MOL0     H 5418  12.507   3.593   0.627  0.4810  1.0117 -0.4944
  781MOL0     H 5419  10.878   2.824   0.987 -1.1278  2.7135  0.6141
  781MOL0     H 5420  10.680   2.874   0.855  0.0965  0.6606  0.1097
  781MOL0     H 5421  10.487   3.157   0.511 -0.2821  1.7549 -2.8739
  781MOL0     H 5422  10.264   3.180   0.432 -0.5468 -0.6559  2.1043
  781MOL0     H 5423  10.014   2.829   0.280 -0.0869 -0.1838 -0.7877
  781MOL0     H 5424  10.117   2.866   0.143 -0.4470 -0.9293 -1.1210
  781MOL0     H 5425   9.980   3.076   0.113  2.7526  0.2814  0.4364
  781MOL0     H 5426   9.860   3.010   0.236 -0.0533 -1.8392  0.3328
  781MOL0     H 5427   9.943   2.908  -0.038  0.0610  0.9081  0.8916
  781MOL0     H 5428   9.786   2.969  -0.002  0.5209  2.1412  0.1662
  781MOL0     H 5429   9.936   2.712   0.094 -1.7083 -2.9560 -0.0039
  781MOL0     H 5430   9.781   2.768   0.163  1.8791  0.9922  1.0503
  781MOL0     H 5431   9.636   2.644  -0.207 -0.5754 -1.8327  1.7969
  781MOL0     H 5432  10.251   2.776   0.295 -5.1770  1.7517  0.6877
  781MOL0     H 5433  10.410   2.622   0.359  1.5169 -1.3846 -0.4941
  781MOL0     H 5434  10.545   2.719   0.286  0.3513  2.6605  0.5867
  781MOL0     H 5435  10.540   2.660   0.460 -3.5959  1.4583  2.5021
  782MOL0     O 5436   8.275   2.468   4.002 -0.3630  0.6812 -0.0840
  782MOL0     C 5437   8.179   2.530   4.037 -0.3405 -0.3482 -0.4338
  782MOL0     O 5438   8.180   2.622   4.134  0.3605  0.1491 -0.1567
  782MOL0     C 5439   8.300   2.666   4.193  0.0309 -0.0131 -0.1103
  782MOL0     C 5440   8.427   2.674   4.129  0.6879  0.4666  0.1641
  782MOL0     C 5441   8.538   2.717   4.196 -0.2360 -0.0639 -0.6818
  782MOL0     C 5442   8.527   2.766   4.326  0.3199  0.2346  0.0591
  782MOL0     O 5443   8.637   2.814   4.400  0.4476  0.1041  0.0043
  782MOL0     C 5444   8.768   2.805   4.350 -0.0602 -0.0949  0.0986
  782MOL0     C 5445   8.878   2.888   4.425  0.2578 -0.2891 -0.9254
  782MOL0     C 5446   8.843   3.031   4.461 -0.1429 -0.1838 -0.2968
  782MOL0     C 5447   8.939   3.101   4.559  0.4131  0.4515 -0.4073
  782MOL0     C 5448   8.950   3.252   4.547 -0.0544  0.6548 -0.2582
  782MOL0     C 5449   9.083   3.312   4.607 -0.0685 -0.7967  0.5993
  782MOL0     C 5450   9.089   3.462   4.561 -0.4074  0.1527 -0.5168
  782MOL0     C 5451   9.145   3.537   4.684 -0.2577  0.8336 -0.1256
  782MOL0     N 5452   9.270   3.494   4.741  0.0559  0.8905 -0.2578
  782MOL0     C 5453   9.391   3.488   4.669  0.4629  0.0413 -0.2987
  782MOL0     C 5454   9.496   3.488   4.757 -0.6260 -0.2403  0.0910
  782MOL0     C 5455   9.643   3.479   4.723  0.1412 -0.2608 -0.3897
  782MOL0     C 5456   9.705   3.617   4.706  0.1856  0.6434  0.6645
  782MOL0     C 5457   9.674   3.720   4.809  0.4976  0.2831 -0.3900
  782MOL0     C 5458   9.787   3.819   4.837  0.8849 -0.1793  0.6790
  782MOL0     O 5459   9.863   3.767   4.947  0.0962 -0.2194  0.8541
  782MOL0     C 5460   9.967   3.851   4.990  0.0823  1.2338 -0.2291
  782MOL0     C 5461  10.048   3.787   5.081  0.2040  0.3547 -1.0453
  782MOL0     C 5462  10.154   3.861   5.136  0.2792 -0.2777 -0.2796
  782MOL0     C 5463  10.186   3.989   5.097  0.2230  0.1156  0.1667
  782MOL0     C 5464  10.301   4.062   5.156  0.5868  0.1184  0.2217
  782MOL0     O 5465  10.365   4.148   5.073 -0.5004  0.1398  0.7592
  782MOL0     C 5466  10.494   4.197   5.101 -0.9241 -0.0401  0.1170
  782MOL0     C 5467  10.560   4.253   4.992 -0.3149  0.2131 -0.6325
  782MOL0     C 5468  10.671   4.328   5.004 -0.4940  0.8014 -0.1615
  782MOL0     C 5469  10.721   4.357   5.138 -0.4246  1.0139  0.2937
  782MOL0     O 5470  10.825   4.445   5.169  0.4893 -0.0810 -0.2193
  782MOL0     C 5471  10.873   4.518   5.057  0.2298  0.4830  0.1962
  782MOL0     C 5472  10.992   4.598   5.113 -0.2736  0.2325  0.2987
  782MOL0     C 5473  11.045   4.690   5.006  0.9515  0.0885  0.8825
  782MOL0     C 5474  11.158   4.771   5.057 -0.5930  0.1199 -0.2038
  782MOL0     C 5475  11.203   4.875   4.950 -0.3587  0.5893  0.0836
  782MOL0     C 5476  11.105   4.991   4.941  0.0657 -0.6577  0.3992
  782MOL0     C 5477  11.176   5.103   4.886 -0.0065 -1.2754  0.0196
  782MOL0     C 5478  11.089   5.229   4.878 -0.3860  0.2761 -0.6476
  782MOL0    Cl 5479  11.201   5.364   4.826  0.2044 -0.2639  0.3971
  782MOL0     C 5480  10.657   4.307   5.252 -0.1586  0.2688 -0.7589
  782MOL0     C 5481  10.546   4.221   5.236  0.5905  0.1731 -0.3071
  782MOL0     O 5482  10.327   4.035   5.275 -0.1788 -0.6393 -0.5857
  782MOL0     C 5483  10.101   4.047   5.011  0.2834  0.6441  0.1247
  782MOL0     C 5484   9.988   3.981   4.954  0.5640 -0.4355  0.6150
  782MOL0     N 5485   9.445   3.506   4.879 -0.0239 -1.2370 -0.3592
  782MOL0     N 5486   9.320   3.506   4.873  0.7057  0.7275  0.8393
  782MOL0     C 5487   8.406   2.764   4.391  0.0764  0.5618  0.2764
  782MOL0     C 5488   8.292   2.712   4.326 -0.6294  0.5751  0.2782
  782MOL0     C 5489   8.046   2.482   3.985 -0.0309 -1.0299 -0.6708
  782MOL0     C 5490   8.005   2.352   4.018 -0.0941  0.5915  0.1729
  782MOL0     C 5491   7.880   2.307   3.965 -0.2575  0.5245 -1.1048
  782MOL0     C 5492   7.811   2.391   3.883  0.5911 -0.7107 -0.3041
  782MOL0     O 5493   7.698   2.326   3.839  0.0174 -0.2594  0.1547
  782MOL0     C 5494   7.586   2.405   3.787 -0.0383  0.5324  0.4382
  782MOL0     C 5495   7.459   2.317   3.788 -0.0995 -0.4455  0.8837
  782MOL0     C 5496   7.422   2.263   3.930  0.2556 -0.2713 -0.1237
  782MOL0     C 5497   7.337   2.353   4.010 -0.1560  0.6080 -1.2221
  782MOL0     C 5498   7.206   2.388   3.944  0.2164  0.4026  0.1216
  782MOL0     C 5499   7.084   2.391   3.912  0.0746 -0.0258 -0.3008
  782MOL0     C 5500   7.850   2.525   3.853 -0.1216 -0.7180  0.3172
  782MOL0     C 5501   7.971   2.574   3.910 -0.0509 -0.6852  0.1989
  782MOL0     C 5502   8.012   2.724   3.901  0.4033 -0.2680 -0.2480
  782MOL0     H 5503   8.446   2.639   4.028  3.9501  0.7979  0.5691
  782MOL0     H 5504   8.635   2.713   4.147  0.9358 -0.2995  1.5320
  782MOL0     H 5505   8.796   2.700   4.347  1.6813  0.3191  0.5374
  782MOL0     H 5506   8.768   2.844   4.248  3.3687 -0.9756 -0.3590
  782MOL0     H 5507   8.976   2.874   4.378  1.6784  0.0384  1.7107
  782MOL0     H 5508   8.886   2.836   4.521 -1.9413 -4.2085 -2.6575
  782MOL0     H 5509   8.742   3.028   4.502 -0.3365  1.1060 -0.6497
  782MOL0     H 5510   8.835   3.075   4.361 -1.6971 -3.4434 -1.7942
  782MOL0     H 5511   8.909   3.073   4.661 -0.4087  0.8271 -0.5342
  782MOL0     H 5512   9.040   3.059   4.551 -0.2907 -1.1965 -0.9794
  782MOL0     H 5513   8.950   3.273   4.440 -1.2944 -1.3230 -0.6843
  782MOL0     H 5514   8.874   3.313   4.596  1.4757  0.9523  1.9358
  782MOL0     H 5515   9.075   3.301   4.715  2.4267 -1.9750  0.7390
  782MOL0     H 5516   9.166   3.252   4.568 -0.9029 -0.1692 -2.3877
  782MOL0     H 5517   8.987   3.501   4.552 -0.4265  0.6235  1.2372
  782MOL0     H 5518   9.156   3.469   4.474  0.8746  1.3710  0.5147
  782MOL0     H 5519   9.143   3.643   4.657 -1.3947  0.4311 -1.7333
  782MOL0     H 5520   9.063   3.526   4.755 -0.1600  1.0642  0.0242
  782MOL0     H 5521   9.405   3.488   4.561 -0.6125 -1.2731 -0.4676
  782MOL0     H 5522   9.698   3.423   4.799 -0.0797  0.3418  0.2201
  782MOL0     H 5523   9.659   3.427   4.628  2.5658 -1.8202  0.7947
  782MOL0     H 5524   9.814   3.610   4.713  0.0673 -1.6597  0.7213
  782MOL0     H 5525   9.678   3.650   4.605 -0.4330 -2.6871 -0.3786
  782MOL0     H 5526   9.647   3.672   4.903  0.3611  1.2142  0.0590
  782MOL0     H 5527   9.594   3.790   4.783 -0.6324  0.1108  2.3578
  782MOL0     H 5528   9.741   3.908   4.880 -1.7037 -0.0308 -2.0631
  782MOL0     H 5529   9.849   3.836   4.749 -3.3250  0.3930 -2.5158
  782MOL0     H 5530  10.046   3.681   5.105  1.9722  0.4400 -0.3806
  782MOL0     H 5531  10.215   3.810   5.211 -0.7172  0.6944  1.2515
  782MOL0     H 5532  10.526   4.247   4.889 -0.9311  2.6235 -0.6387
  782MOL0     H 5533  10.715   4.365   4.912 -0.2069 -0.3884 -0.5091
  782MOL0     H 5534  10.910   4.463   4.970 -2.5276  0.5715 -1.1241
  782MOL0     H 5535  10.801   4.591   5.020  1.0245 -0.1151 -2.8076
  782MOL0     H 5536  10.973   4.654   5.205 -0.3942  0.1528  0.3239
  782MOL0     H 5537  11.073   4.527   5.132 -0.1104  0.0449 -1.0593
  782MOL0     H 5538  11.083   4.622   4.929 -1.2445 -1.0578  0.7272
  782MOL0     H 5539  10.963   4.745   4.959  1.5782 -1.4992 -2.3856
  782MOL0     H 5540  11.243   4.706   5.077 -2.7529 -2.6683  0.5238
  782MOL0     H 5541  11.129   4.809   5.155  2.5792 -1.3887  1.4414
  782MOL0     H 5542  11.229   4.838   4.850  3.0047 -1.0200  1.4347
  782MOL0     H 5543  11.296   4.908   4.996  1.0347 -2.9071  0.0293
  782MOL0     H 5544  11.016   4.965   4.883  1.4121 -2.6488 -0.9132
  782MOL0     H 5545  11.074   5.014   5.043  0.1336 -2.4477  0.8599
  782MOL0     H 5546  11.212   5.073   4.787  0.9821  1.7355 -0.6455
  782MOL0     H 5547  11.261   5.129   4.949  2.3099 -3.2076 -2.0690
  782MOL0     H 5548  11.010   5.218   4.802 -0.2975 -0.5015 -0.6331
  782MOL0     H 5549  11.051   5.257   4.977  1.2637  0.7775 -0.1376
  782MOL0     H 5550  10.694   4.329   5.352 -1.8184 -0.4716  0.0519
  782MOL0     H 5551  10.510   4.180   5.330  0.1615 -0.7756 -0.8601
  782MOL0     H 5552  10.119   4.151   4.987 -0.6082  0.7061 -0.2839
  782MOL0     H 5553   9.932   4.042   4.884  1.9103  0.0196 -0.1082
  782MOL0     H 5554   8.398   2.798   4.494  1.1732 -0.3678  0.6956
  782MOL0     H 5555   8.191   2.711   4.366 -1.1510  1.8943 -0.9280
  782MOL0     H 5556   8.062   2.285   4.081  0.1999  1.7422  1.1612
  782MOL0     H 5557   7.841   2.208   3.986  0.0552  1.1227  3.0682
  782MOL0     H 5558   7.626   2.425   3.687 -0.1311 -2.4377 -0.2831
  782MOL0     H 5559   7.580   2.498   3.845  1.2847  0.8716  0.0695
  782MOL0     H 5560   7.471   2.230   3.723 -1.4569 -0.8522  1.1454
  782MOL0     H 5561   7.390   2.385   3.738  0.7873 -1.5395 -2.0402
  782MOL0     H 5562   7.516   2.240   3.981  3.0255  0.8273 -4.2199
  782MOL0     H 5563   7.360   2.174   3.918 -1.3748  0.3757  2.6432
  782MOL0     H 5564   7.321   2.294   4.100  1.8871  1.6157 -0.1149
  782MOL0     H 5565   7.386   2.442   4.052  0.5258 -0.4880  0.3969
  782MOL0     H 5566   6.988   2.389   3.864  0.5811 -0.2662 -1.3147
  782MOL0     H 5567   7.795   2.597   3.794 -1.7181 -1.7745  0.4757
  782MOL0     H 5568   7.930   2.767   3.843 -0.9976  0.1916  1.9226
  782MOL0     H 5569   8.004   2.760   4.004  0.0878 -0.4212 -0.2165
  782MOL0     H 5570   8.110   2.742   3.857  1.0664 -0.0311  1.2626
  783MOL0     O 5571   1.574   1.650   2.891 -0.0586 -0.1193  0.2157
  783MOL0     C 5572   1.511   1.752   2.885 -0.5911 -0.5126 -0.0239
  783MOL0     O 5573   1.569   1.878   2.911 -0.0873  0.1043 -0.0423
  783MOL0     C 5574   1.702   1.898   2.945 -0.1301  0.7183  0.5757
  783MOL0     C 5575   1.777   1.808   3.023 -0.3318 -0.5486  0.1376
  783MOL0     C 5576   1.910   1.834   3.049  0.6854 -0.5368  0.5403
  783MOL0     C 5577   1.966   1.954   3.016  0.1824  0.5871 -0.0133
  783MOL0     O 5578   2.092   1.977   3.051  0.9705 -0.8533 -0.3312
  783MOL0     C 5579   2.173   2.053   2.968  0.5519 -0.6749 -0.3101
  783MOL0     C 5580   2.308   1.978   2.949 -0.3155  0.7021  0.3129
  783MOL0     C 5581   2.288   1.860   2.857 -0.9532 -0.9815 -0.0106
  783MOL0     C 5582   2.416   1.771   2.832  0.0437 -0.1664  0.0708
  783MOL0     C 5583   2.545   1.852   2.795  0.0911 -0.6593  0.4385
  783MOL0     C 5584   2.647   1.760   2.736  0.4756  0.2870 -0.9089
  783MOL0     C 5585   2.619   1.692   2.605  0.1818 -0.0925 -0.1460
  783MOL0     C 5586   2.599   1.791   2.491 -0.3285  0.1797  0.2668
  783MOL0     N 5587   2.732   1.840   2.448  0.1319  0.2628 -0.2690
  783MOL0     C 5588   2.816   1.765   2.370  0.2510  0.3117  0.1703
  783MOL0     C 5589   2.912   1.849   2.329 -0.6709 -0.1076 -0.2347
  783MOL0     C 5590   3.023   1.832   2.235  0.6961  0.7152  0.8465
  783MOL0     C 5591   3.032   1.689   2.182 -0.0479 -0.2763  0.1756
  783MOL0     C 5592   3.133   1.687   2.063  0.4878  0.1791  0.3236
  783MOL0     C 5593   3.275   1.696   2.119  0.4531 -0.9774  0.0755
  783MOL0     O 5594   3.317   1.832   2.094 -0.1769  0.2417 -0.3065
  783MOL0     C 5595   3.348   1.885   1.971 -0.0458 -0.2145  0.3705
  783MOL0     C 5596   3.383   2.013   1.952  0.3096 -0.2593 -0.1428
  783MOL0     C 5597   3.412   2.070   1.826  0.2272 -0.0486  0.2348
  783MOL0     C 5598   3.407   1.994   1.708 -0.7706  0.4259 -0.1719
  783MOL0     C 5599   3.448   2.051   1.579 -1.1288 -0.4459  0.6927
  783MOL0     O 5600   3.516   2.172   1.575  0.8627 -0.2163  0.0360
  783MOL0     C 5601   3.567   2.202   1.455  0.0905  0.9178  1.2818
  783MOL0     C 5602   3.487   2.254   1.344  0.3045 -0.9087  0.4994
  783MOL0     C 5603   3.543   2.294   1.225  0.1548  0.3076  0.5129
  783MOL0     C 5604   3.676   2.303   1.212  0.1169 -0.9569  0.0700
  783MOL0     O 5605   3.727   2.334   1.094  0.3170  0.4697 -0.5309
  783MOL0     C 5606   3.864   2.311   1.078  0.3583 -0.2095  0.4978
  783MOL0     C 5607   3.890   2.336   0.926  0.4348 -0.9360 -0.3665
  783MOL0     C 5608   4.033   2.288   0.900  1.0358  0.0792  0.0082
  783MOL0     C 5609   4.092   2.377   0.781  0.1674  0.0236  0.3758
  783MOL0     C 5610   4.234   2.329   0.748  0.4639  0.5224  0.3341
  783MOL0     C 5611   4.273   2.390   0.617  0.5940  0.1299  0.5402
  783MOL0     C 5612   4.333   2.524   0.636  0.9037 -0.4126  0.7565
  783MOL0     C 5613   4.402   2.578   0.505  0.1192  0.3934  0.5578
  783MOL0    Cl 5614   4.278   2.592   0.367  0.2605  0.5893  0.1749
  783MOL0     C 5615   3.759   2.277   1.327 -0.3311  0.0248  0.0216
  783MOL0     C 5616   3.702   2.220   1.440 -0.0973  0.5775 -1.4110
  783MOL0     O 5617   3.419   1.985   1.479 -0.4499 -0.5090 -0.2635
  783MOL0     C 5618   3.364   1.862   1.723 -0.1194  0.0590 -0.0244
  783MOL0     C 5619   3.340   1.805   1.850  0.0196  0.2495  0.3405
  783MOL0     N 5620   2.893   1.958   2.407 -0.1992 -0.4707 -0.0272
  783MOL0     N 5621   2.781   1.959   2.474  0.5275  0.1849  0.6113
  783MOL0     C 5622   1.886   2.055   2.948 -0.3145 -0.2228 -0.4527
  783MOL0     C 5623   1.761   2.013   2.906  1.3062  0.3533  0.3977
  783MOL0     C 5624   1.362   1.736   2.837 -0.2465 -0.2628  0.0746
  783MOL0     C 5625   1.290   1.613   2.855  0.2892 -0.4446  0.0567
  783MOL0     C 5626   1.158   1.600   2.822  0.8006 -0.1367  0.4213
  783MOL0     C 5627   1.083   1.705   2.780  0.0321  0.5250 -0.1938
  783MOL0     O 5628   0.948   1.685   2.748 -1.0256  0.3462 -0.3188
  783MOL0     C 5629   0.915   1.557   2.682  0.6739  0.7209 -0.7826
  783MOL0     C 5630   0.802   1.577   2.585  0.2832  0.5795 -0.4372
  783MOL0     C 5631   0.665   1.611   2.650 -0.3631 -0.1532 -0.3024
  783MOL0     C 5632   0.565   1.680   2.553 -0.0611  0.2294 -0.2861
  783MOL0     C 5633   0.473   1.754   2.629  0.3097 -0.4274  0.3160
  783MOL0     C 5634   0.384   1.814   2.693 -0.0072  0.7966 -0.1516
  783MOL0     C 5635   1.150   1.829   2.770  0.6942 -0.2023  0.3401
  783MOL0     C 5636   1.291   1.853   2.789  0.3657  0.4744 -0.5766
  783MOL0     C 5637   1.354   1.974   2.735 -0.1435 -0.0716 -0.0465
  783MOL0     H 5638   1.731   1.718   3.063 -0.0363  0.0055  1.8297
  783MOL0     H 5639   1.979   1.759   3.087  1.1748  0.4500  1.6576
  783MOL0     H 5640   2.132   2.080   2.870  1.6743 -0.4159 -0.7203
  783MOL0     H 5641   2.198   2.143   3.024  2.4026 -2.5196  2.0599
  783MOL0     H 5642   2.351   1.937   3.041  2.6240 -0.3964 -1.4369
  783MOL0     H 5643   2.373   2.050   2.900 -0.3601  1.0148  0.7085
  783MOL0     H 5644   2.256   1.903   2.761  0.7082  0.3829 -0.0089
  783MOL0     H 5645   2.213   1.802   2.911 -0.4335  0.2891  2.2193
  783MOL0     H 5646   2.432   1.712   2.923 -2.5872  0.9694  1.3952
  783MOL0     H 5647   2.392   1.698   2.755  1.1835  0.4236 -0.8717
  783MOL0     H 5648   2.533   1.918   2.709 -0.3934  0.3339  1.2550
  783MOL0     H 5649   2.572   1.912   2.883 -0.2467 -1.3776  1.0407
  783MOL0     H 5650   2.741   1.816   2.726  1.7441 -1.5528  0.1472
  783MOL0     H 5651   2.672   1.686   2.813  0.4057  0.9360 -0.2464
  783MOL0     H 5652   2.529   1.631   2.616  0.8642 -0.9812  0.7516
  783MOL0     H 5653   2.700   1.623   2.578  2.3371  1.8169  1.0062
  783MOL0     H 5654   2.548   1.737   2.410 -2.1287 -1.1384  2.1774
  783MOL0     H 5655   2.531   1.872   2.516  0.9336  1.4044 -0.1354
  783MOL0     H 5656   2.799   1.665   2.332  3.8659 -0.4659  0.3130
  783MOL0     H 5657   3.010   1.914   2.165 -1.0820  0.5728  0.9632
  783MOL0     H 5658   3.114   1.852   2.293  0.9468  1.3098  0.2634
  783MOL0     H 5659   3.056   1.620   2.264 -3.8381 -2.9123 -0.6274
  783MOL0     H 5660   2.934   1.655   2.146 -0.4070  1.9464 -1.1086
  783MOL0     H 5661   3.106   1.773   2.002  0.3005 -0.3113 -0.3048
  783MOL0     H 5662   3.129   1.599   1.997  2.9830  0.2976 -0.0654
  783MOL0     H 5663   3.337   1.627   2.062  0.0890 -1.0809 -0.1991
  783MOL0     H 5664   3.277   1.679   2.227 -3.6746 -4.0093 -0.1109
  783MOL0     H 5665   3.383   2.082   2.037 -1.1293  1.9364 -1.7941
  783MOL0     H 5666   3.440   2.174   1.819 -0.6628  0.2356  0.7411
  783MOL0     H 5667   3.379   2.240   1.344 -0.0407  1.3908  0.7348
  783MOL0     H 5668   3.481   2.309   1.137  0.6369  1.6542  0.3779
  783MOL0     H 5669   3.919   2.385   1.136  1.6223 -2.3743  2.2169
  783MOL0     H 5670   3.896   2.208   1.096  4.4699  0.3279 -2.2781
  783MOL0     H 5671   3.819   2.284   0.861 -0.1500  1.6653 -1.9647
  783MOL0     H 5672   3.877   2.441   0.898 -3.8446 -1.7536 -2.2284
  783MOL0     H 5673   4.090   2.297   0.992 -0.2562  0.5007  0.7973
  783MOL0     H 5674   4.030   2.188   0.855  0.0024  0.0559  0.1021
  783MOL0     H 5675   4.103   2.482   0.812 -0.7391  0.0086  0.7882
  783MOL0     H 5676   4.021   2.368   0.698  0.3004  0.7571  0.1694
  783MOL0     H 5677   4.235   2.220   0.738 -0.0305  0.6077 -0.6702
  783MOL0     H 5678   4.299   2.361   0.830 -2.8602  0.7493  3.0940
  783MOL0     H 5679   4.356   2.326   0.584  1.1367  0.1730  1.7751
  783MOL0     H 5680   4.184   2.397   0.554 -0.1389  2.0718  1.7305
  783MOL0     H 5681   4.398   2.529   0.724 -0.3037 -0.7848  1.7057
  783MOL0     H 5682   4.245   2.587   0.654  0.6643 -0.0437 -1.4463
  783MOL0     H 5683   4.444   2.679   0.514  1.5334 -0.0533 -0.6520
  783MOL0     H 5684   4.478   2.505   0.478 -0.3183  0.9087 -2.3754
  783MOL0     H 5685   3.864   2.302   1.332  0.3913 -2.5397 -0.8188
  783MOL0     H 5686   3.752   2.189   1.531 -1.4949  4.3177  0.8379
  783MOL0     H 5687   3.354   1.798   1.637  1.2884 -1.5371  0.9266
  783MOL0     H 5688   3.317   1.699   1.857  1.9026 -0.3409 -1.6123
  783MOL0     H 5689   1.928   2.151   2.917 -1.1604  0.4168  0.3208
  783MOL0     H 5690   1.691   2.071   2.846 -0.7344 -0.8264  1.5367
  783MOL0     H 5691   1.341   1.520   2.879 -0.1180 -0.5476  0.5467
  783MOL0     H 5692   1.121   1.499   2.835  0.2986  0.2788  2.7644
  783MOL0     H 5693   0.881   1.481   2.754  0.7238  2.1841  0.8377
  783MOL0     H 5694   1.000   1.519   2.624  0.5059 -0.8171 -0.0704
  783MOL0     H 5695   0.785   1.490   2.521  0.4161 -0.8160  1.3317
  783MOL0     H 5696   0.828   1.657   2.514 -2.5789 -0.3243 -2.7217
  783MOL0     H 5697   0.689   1.676   2.735 -1.3211 -1.3220  0.9051
  783MOL0     H 5698   0.635   1.517   2.697  0.3133  1.5253  3.8954
  783MOL0     H 5699   0.610   1.742   2.475  1.9526 -2.0529 -1.0614
  783MOL0     H 5700   0.510   1.600   2.502  2.1944 -0.3275 -1.9925
  783MOL0     H 5701   0.318   1.874   2.752  2.0201  0.6158  2.5393
  783MOL0     H 5702   1.096   1.908   2.719 -0.0473  0.2170  1.7319
  783MOL0     H 5703   1.283   2.041   2.684  0.6183  0.4686 -0.4231
  783MOL0     H 5704   1.408   2.039   2.804  0.7416 -1.9414  1.0955
  783MOL0     H 5705   1.424   1.942   2.658  0.4933  0.9539  0.0775
  784MOL0     O 5706   2.340   1.886   1.473  0.3340  0.8511 -0.0593
  784MOL0     C 5707   2.340   1.765   1.476 -0.4245  0.5751 -0.1148
  784MOL0     O 5708   2.454   1.692   1.479 -0.4769  0.7952 -0.8279
  784MOL0     C 5709   2.573   1.734   1.425 -0.3629 -0.5466 -0.4048
  784MOL0     C 5710   2.582   1.840   1.331 -0.3579 -0.8834  0.5796
  784MOL0     C 5711   2.705   1.893   1.294  0.3865  0.1365 -0.0248
  784MOL0     C 5712   2.825   1.837   1.341  0.0971 -0.6475 -1.0596
  784MOL0     O 5713   2.939   1.896   1.288  0.9092  0.3282  0.1703
  784MOL0     C 5714   3.070   1.869   1.340 -0.3472  0.5894 -0.4689
  784MOL0     C 5715   3.172   1.967   1.271  0.3810  0.4288 -0.8375
  784MOL0     C 5716   3.177   1.954   1.114  0.7826  0.0740  0.3605
  784MOL0     C 5717   3.275   2.054   1.044 -0.1825  0.2384  0.8835
  784MOL0     C 5718   3.285   2.029   0.887 -0.1656 -0.3822  0.3096
  784MOL0     C 5719   3.355   2.155   0.834 -0.3172  0.3109 -0.0197
  784MOL0     C 5720   3.449   2.130   0.717 -0.8996  0.1250  0.1526
  784MOL0     C 5721   3.507   2.250   0.651 -0.5525 -0.1698  0.1317
  784MOL0     N 5722   3.619   2.217   0.554  0.2826 -0.3659 -0.0108
  784MOL0     C 5723   3.738   2.157   0.587 -0.1838 -0.2482 -0.2272
  784MOL0     C 5724   3.808   2.160   0.466 -0.0379  0.5612  0.2485
  784MOL0     C 5725   3.953   2.115   0.436  0.9014  0.0346 -0.1714
  784MOL0     C 5726   4.015   2.208   0.334 -0.0961 -0.3008  1.2620
  784MOL0     C 5727   4.168   2.218   0.328 -0.5281 -0.1338  0.1615
  784MOL0     C 5728   4.226   2.083   0.285  0.1089 -0.0931  0.4691
  784MOL0     O 5729   4.361   2.088   0.232  0.0299 -0.4266  0.0301
  784MOL0     C 5730   4.455   2.119   0.321 -0.2901 -0.1620  0.4630
  784MOL0     C 5731   4.490   2.048   0.438 -0.2366  0.2864 -0.1034
  784MOL0     C 5732   4.562   2.095   0.541 -0.6956 -0.1590  0.1737
  784MOL0     C 5733   4.628   2.217   0.518  0.1508 -0.5324  0.0968
  784MOL0     C 5734   4.721   2.272   0.612 -0.5783  0.0050  0.5818
  784MOL0     O 5735   4.796   2.370   0.551 -0.3329 -0.5457  0.5495
  784MOL0     C 5736   4.929   2.401   0.600  0.4058  0.2850 -0.9485
  784MOL0     C 5737   4.985   2.527   0.567  0.0015 -0.9123  0.3513
  784MOL0     C 5738   5.103   2.585   0.622 -0.2405  0.2154  0.0404
  784MOL0     C 5739   5.178   2.494   0.709  0.2848  0.3765  0.7283
  784MOL0     O 5740   5.301   2.530   0.758 -0.4879 -0.5433 -0.6018
  784MOL0     C 5741   5.412   2.447   0.737  0.2022 -0.7936  0.4860
  784MOL0     C 5742   5.456   2.457   0.591 -0.2886 -0.0955 -0.2909
  784MOL0     C 5743   5.572   2.360   0.566  0.1502  0.2540 -0.2002
  784MOL0     C 5744   5.632   2.398   0.432 -0.6344  0.5913  0.5785
  784MOL0     C 5745   5.761   2.319   0.387 -0.9530  1.2416  0.2476
  784MOL0     C 5746   5.812   2.347   0.245 -0.7908 -0.3133 -0.0325
  784MOL0     C 5747   5.834   2.498   0.224 -0.1974  0.3517  0.8367
  784MOL0     C 5748   5.899   2.530   0.091  0.4543 -0.0965 -0.4704
  784MOL0    Cl 5749   6.066   2.476   0.105 -0.0617  0.0344 -0.0466
  784MOL0     C 5750   5.126   2.365   0.730  0.7961  0.7251 -0.1267
  784MOL0     C 5751   5.002   2.319   0.681 -0.7195 -0.8779  0.0789
  784MOL0     O 5752   4.735   2.223   0.726  1.2702 -0.3708  0.4787
  784MOL0     C 5753   4.606   2.290   0.395 -0.1142 -0.1056  0.9524
  784MOL0     C 5754   4.524   2.240   0.295 -0.5669 -0.0601 -0.0018
  784MOL0     N 5755   3.726   2.203   0.369  0.2748  0.6497  0.2251
  784MOL0     N 5756   3.611   2.245   0.421 -0.3747  0.0973 -0.0438
  784MOL0     C 5757   2.816   1.724   1.422 -1.2388  0.1165 -0.0815
  784MOL0     C 5758   2.690   1.674   1.474 -0.6485  0.2116 -0.0668
  784MOL0     C 5759   2.214   1.686   1.505 -0.0627  0.0478  0.9257
  784MOL0     C 5760   2.222   1.560   1.578 -0.8062 -0.6213  0.9553
  784MOL0     C 5761   2.104   1.484   1.606  0.3819 -0.9648 -0.1049
  784MOL0     C 5762   1.979   1.533   1.581 -0.4860 -0.4932 -0.8153
  784MOL0     O 5763   1.883   1.451   1.618 -0.2279  0.1273  0.1057
  784MOL0     C 5764   1.758   1.507   1.685 -0.5185 -0.7032 -0.2129
  784MOL0     C 5765   1.653   1.497   1.581  0.7846  0.1007 -0.1783
  784MOL0     C 5766   1.504   1.517   1.618 -0.3968  0.0022  0.6545
  784MOL0     C 5767   1.417   1.479   1.498 -0.5675 -0.2710  0.4902
  784MOL0     C 5768   1.295   1.558   1.492  0.5886 -0.4823  0.5157
  784MOL0     C 5769   1.183   1.608   1.487  0.1910 -0.6612  0.5407
  784MOL0     C 5770   1.973   1.657   1.511 -0.1778 -0.1698 -0.3035
  784MOL0     C 5771   2.079   1.734   1.473 -0.5299 -0.1473 -0.2247
  784MOL0     C 5772   2.059   1.861   1.393  0.0985  0.2482 -0.7964
  784MOL0     H 5773   2.494   1.902   1.313  1.6610  2.3513  1.1022
  784MOL0     H 5774   2.710   1.981   1.231 -0.2969 -0.6922 -1.2738
  784MOL0     H 5775   3.070   1.889   1.447  1.9499 -2.0926  0.1436
  784MOL0     H 5776   3.106   1.768   1.318  1.2137  1.2936 -1.2586
  784MOL0     H 5777   3.267   1.931   1.311  0.0129 -0.8781 -1.0841
  784MOL0     H 5778   3.158   2.073   1.291  2.3852  0.4973  0.4560
  784MOL0     H 5779   3.075   1.967   1.077  0.4142 -2.2237  0.4144
  784MOL0     H 5780   3.212   1.853   1.092 -0.8867  0.0678 -2.7342
  784MOL0     H 5781   3.235   2.155   1.055 -1.6624  0.0245 -1.5974
  784MOL0     H 5782   3.369   2.059   1.099  1.0156  6.1636 -0.9784
  784MOL0     H 5783   3.337   1.933   0.883  2.1834  0.7337  1.9572
  784MOL0     H 5784   3.181   2.019   0.856 -1.0683 -0.1628  2.9997
  784MOL0     H 5785   3.278   2.229   0.809  1.6573  2.8790  1.0986
  784MOL0     H 5786   3.421   2.193   0.913  0.7586  0.8613 -1.1597
  784MOL0     H 5787   3.391   2.081   0.638 -0.4556  2.5310 -1.7935
  784MOL0     H 5788   3.521   2.053   0.744 -1.7275 -1.3068 -1.4820
  784MOL0     H 5789   3.428   2.304   0.598 -2.7744 -1.9317  1.4120
  784MOL0     H 5790   3.539   2.313   0.735 -0.5196 -0.2452  0.1766
  784MOL0     H 5791   3.764   2.121   0.686 -1.8287  1.4698  0.9040
  784MOL0     H 5792   4.014   2.110   0.527 -2.7164  0.8187  2.5271
  784MOL0     H 5793   3.944   2.013   0.397 -1.1228 -0.0711  0.5015
  784MOL0     H 5794   3.981   2.171   0.237 -0.6290  2.7005  0.1929
  784MOL0     H 5795   3.981   2.310   0.353 -1.2757 -0.6024  0.8980
  784MOL0     H 5796   4.209   2.229   0.429  2.3805  1.6546 -1.0928
  784MOL0     H 5797   4.204   2.304   0.270  1.6052 -0.9025  0.2612
  784MOL0     H 5798   4.165   2.043   0.204  2.8492  3.1901 -3.6868
  784MOL0     H 5799   4.226   2.020   0.374  0.8936  2.2815  2.2599
  784MOL0     H 5800   4.431   1.957   0.449  1.0724 -0.4373  1.1891
  784MOL0     H 5801   4.588   2.037   0.629  1.4162  1.1923  0.5201
  784MOL0     H 5802   4.922   2.581   0.497 -0.5928  0.2927  1.7615
  784MOL0     H 5803   5.128   2.688   0.601  1.3781 -0.0674  0.4579
  784MOL0     H 5804   5.490   2.483   0.804  0.8179 -2.2918  0.6198
  784MOL0     H 5805   5.402   2.340   0.761 -0.3704 -1.0165 -0.6793
  784MOL0     H 5806   5.384   2.434   0.513 -1.2491 -3.2038  1.3268
  784MOL0     H 5807   5.486   2.561   0.574 -0.1497  0.0983  1.0320
  784MOL0     H 5808   5.647   2.374   0.644  0.2016 -0.6405 -0.0774
  784MOL0     H 5809   5.545   2.254   0.571  1.5929 -0.1238  0.0936
  784MOL0     H 5810   5.654   2.505   0.426 -2.8872  1.0534 -0.9283
  784MOL0     H 5811   5.556   2.403   0.353 -3.1606  2.0476  2.8937
  784MOL0     H 5812   5.728   2.214   0.386  2.6590 -0.0339 -1.1505
  784MOL0     H 5813   5.846   2.315   0.455  2.2377  0.5798 -3.3985
  784MOL0     H 5814   5.900   2.283   0.238  2.2509  3.2165  1.8402
  784MOL0     H 5815   5.731   2.321   0.177 -1.6639  1.6666  0.1567
  784MOL0     H 5816   5.891   2.543   0.305  2.2855 -0.9441 -0.0834
  784MOL0     H 5817   5.734   2.540   0.234 -2.7929 -4.9708  0.7955
  784MOL0     H 5818   5.849   2.477   0.010  0.7682 -1.0355 -0.0587
  784MOL0     H 5819   5.907   2.636   0.063  0.3380 -0.4565 -1.9184
  784MOL0     H 5820   5.180   2.296   0.794  0.3747  1.2378  0.8104
  784MOL0     H 5821   4.966   2.223   0.716  0.7716 -0.5828  2.6104
  784MOL0     H 5822   4.651   2.388   0.386  0.6817 -0.6088 -1.0188
  784MOL0     H 5823   4.496   2.293   0.204  0.0736  2.8917  1.3911
  784MOL0     H 5824   2.900   1.667   1.460 -1.2426  0.2160  0.0751
  784MOL0     H 5825   2.690   1.597   1.549 -0.0643  0.5320  0.2673
  784MOL0     H 5826   2.319   1.518   1.601  0.8506  2.5817  0.3598
  784MOL0     H 5827   2.110   1.382   1.641 -2.0542 -1.4760 -1.0041
  784MOL0     H 5828   1.770   1.611   1.714 -1.4638 -0.9097  1.0316
  784MOL0     H 5829   1.733   1.454   1.778 -2.0280 -1.2965 -0.9125
  784MOL0     H 5830   1.660   1.396   1.539 -0.8780  0.3641 -1.1641
  784MOL0     H 5831   1.678   1.562   1.497  0.2732 -1.0205 -1.2407
  784MOL0     H 5832   1.479   1.622   1.637 -2.2284  0.0516 -1.6027
  784MOL0     H 5833   1.486   1.453   1.705  3.7533  0.3424  1.9816
  784MOL0     H 5834   1.479   1.493   1.409 -1.3076  1.7945  0.2412
  784MOL0     H 5835   1.399   1.371   1.497  0.9591 -0.5595  1.3037
  784MOL0     H 5836   1.091   1.663   1.481  1.3825  1.4610  0.5608
  784MOL0     H 5837   1.878   1.701   1.480 -0.8353 -1.5078 -0.2375
  784MOL0     H 5838   1.956   1.893   1.377  0.0680  1.6249  1.6757
  784MOL0     H 5839   2.100   1.936   1.461  4.0801 -2.5162  0.2226
  784MOL0     H 5840   2.123   1.849   1.305  0.1882 -2.7719 -0.4339
  785MOL0     O 5841   8.885   0.612   1.320 -0.6462 -0.4215 -0.1073
  785MOL0     C 5842   8.852   0.732   1.346  0.2274  0.2959 -0.8165
  785MOL0     O 5843   8.938   0.825   1.399 -0.0307 -0.2652 -0.5971
  785MOL0     C 5844   9.052   0.780   1.444 -0.7254  0.5148 -0.0659
  785MOL0     C 5845   9.149   0.706   1.372 -0.0002  0.9516  0.2435
  785MOL0     C 5846   9.271   0.670   1.431  0.9489 -0.0397 -0.0653
  785MOL0     C 5847   9.302   0.720   1.553 -0.4962 -0.7292 -0.4141
  785MOL0     O 5848   9.422   0.697   1.611  0.1860 -0.1798 -0.2000
  785MOL0     C 5849   9.436   0.570   1.683  0.0859 -0.8454 -0.5901
  785MOL0     C 5850   9.577   0.557   1.751  0.2650 -0.6248 -0.4937
  785MOL0     C 5851   9.683   0.505   1.659  0.0820  0.1726 -0.1295
  785MOL0     C 5852   9.822   0.495   1.726  0.1579 -0.0509  0.4900
  785MOL0     C 5853   9.924   0.453   1.619 -0.9972 -0.0240 -0.6022
  785MOL0     C 5854  10.065   0.436   1.687  0.4487  0.3625  0.0338
  785MOL0     C 5855  10.123   0.574   1.710  0.0684  0.0554  1.2394
  785MOL0     C 5856  10.271   0.561   1.736 -0.4910 -0.6811  0.1811
  785MOL0     N 5857  10.363   0.546   1.614  0.2090 -0.0552 -0.0363
  785MOL0     C 5858  10.456   0.639   1.578 -0.9664 -0.1814  0.4712
  785MOL0     C 5859  10.523   0.577   1.476  0.4063 -0.2181 -0.7588
  785MOL0     C 5860  10.645   0.641   1.407  0.1951 -0.1813  0.3262
  785MOL0     C 5861  10.768   0.549   1.403  0.4180 -0.1212 -0.7346
  785MOL0     C 5862  10.904   0.615   1.369  0.0177 -0.7492  0.3830
  785MOL0     C 5863  10.908   0.719   1.253 -1.0422  0.1514 -0.3621
  785MOL0     O 5864  10.995   0.839   1.273  0.6179  0.2750 -0.1060
  785MOL0     C 5865  11.130   0.825   1.247  0.0154  0.7050  0.0294
  785MOL0     C 5866  11.193   0.711   1.208 -0.1088 -1.3116  0.1875
  785MOL0     C 5867  11.338   0.711   1.183  0.7265  0.4574  0.2174
  785MOL0     C 5868  11.414   0.825   1.196 -0.1421 -0.3971  0.2193
  785MOL0     C 5869  11.561   0.819   1.167 -0.6586 -0.0574 -0.6769
  785MOL0     O 5870  11.621   0.697   1.131 -0.1443 -0.3325  0.1498
  785MOL0     C 5871  11.752   0.690   1.102 -0.4316 -0.2756  0.3583
  785MOL0     C 5872  11.811   0.787   1.016  0.4637  0.4071 -0.0085
  785MOL0     C 5873  11.945   0.768   0.984  0.7912 -0.6902 -0.2190
  785MOL0     C 5874  12.015   0.658   1.035 -0.6210  0.2704 -0.0758
  785MOL0     O 5875  12.148   0.658   0.999 -0.9398 -0.1852 -0.6037
  785MOL0     C 5876  12.241   0.600   1.089 -0.1569 -1.0694  0.0657
  785MOL0     C 5877  12.377   0.596   1.016  1.3020  0.3577  0.4782
  785MOL0     C 5878  12.382   0.480   0.921 -0.2842 -0.5117  0.9161
  785MOL0     C 5879  12.496   0.482   0.815  0.3547  0.6115 -0.6606
  785MOL0     C 5880  12.492   0.610   0.733  0.7366 -0.4742 -0.0937
  785MOL0     C 5881  12.604   0.596   0.624  0.1214 -0.1987  0.2455
  785MOL0     C 5882  12.632   0.731   0.548 -0.6151  0.4952  0.0376
  785MOL0     C 5883  12.746   0.707   0.451 -0.7053 -0.4645  0.4791
  785MOL0    Cl 5884  12.907   0.694   0.542 -0.2485 -0.3238 -0.1320
  785MOL0     C 5885  11.957   0.563   1.112  0.0155  0.0262  0.2895
  785MOL0     C 5886  11.825   0.581   1.144  0.1353  0.6768 -0.5318
  785MOL0     O 5887  11.615   0.925   1.190 -0.2966 -0.2021  0.2676
  785MOL0     C 5888  11.342   0.950   1.220 -0.2368  0.1609  0.9357
  785MOL0     C 5889  11.205   0.943   1.254  0.7225 -0.5329 -0.1509
  785MOL0     N 5890  10.467   0.448   1.460  0.2813 -0.1985 -0.3157
  785MOL0     N 5891  10.375   0.431   1.545 -0.4714 -0.0117  0.0471
  785MOL0     C 5892   9.210   0.795   1.625  0.0620  1.0846 -0.3195
  785MOL0     C 5893   9.088   0.829   1.569  0.9107 -0.0031  0.4000
  785MOL0     C 5894   8.708   0.766   1.326  0.8600  0.0792 -0.2668
  785MOL0     C 5895   8.671   0.903   1.339  0.2726 -0.3424 -0.4672
  785MOL0     C 5896   8.537   0.943   1.341 -0.3623 -0.2756  0.3843
  785MOL0     C 5897   8.436   0.856   1.313 -0.4906  0.0255 -0.0126
  785MOL0     O 5898   8.299   0.873   1.317  0.0640 -1.2187 -0.2598
  785MOL0     C 5899   8.265   0.938   1.200  0.6089 -0.8510 -0.5408
  785MOL0     C 5900   8.108   0.938   1.205  0.5490  0.1824  1.0433
  785MOL0     C 5901   8.054   0.804   1.143 -1.0270 -0.6390 -0.2650
  785MOL0     C 5902   7.906   0.785   1.181  0.2154 -0.0786 -0.0650
  785MOL0     C 5903   7.876   0.793   1.321 -0.2080 -0.4893 -0.4500
  785MOL0     C 5904   7.838   0.814   1.437 -0.1414  0.1005  0.2099
  785MOL0     C 5905   8.477   0.718   1.293  0.0081 -0.5906  0.0419
  785MOL0     C 5906   8.607   0.665   1.304 -0.8097  0.1852 -0.0732
  785MOL0     C 5907   8.630   0.516   1.302 -0.5060 -0.4623  0.0421
  785MOL0     H 5908   9.142   0.672   1.269 -2.6032 -2.8938  1.4727
  785MOL0     H 5909   9.340   0.630   1.358 -2.8372 -1.4584 -3.1847
  785MOL0     H 5910   9.363   0.581   1.764 -1.3759  0.4350 -2.0039
  785MOL0     H 5911   9.406   0.479   1.630  0.3081 -1.7433  0.7901
  785MOL0     H 5912   9.575   0.479   1.828  1.3114 -1.4533 -1.2616
  785MOL0     H 5913   9.617   0.646   1.800 -0.7232 -0.1674 -0.4823
  785MOL0     H 5914   9.693   0.580   1.580 -2.3542  1.0557  0.3228
  785MOL0     H 5915   9.662   0.406   1.617  0.9850 -0.1399  0.1084
  785MOL0     H 5916   9.845   0.590   1.774 -1.2159  0.3950  0.2856
  785MOL0     H 5917   9.820   0.419   1.805 -2.5928  0.6547  1.1929
  785MOL0     H 5918   9.902   0.357   1.571 -2.4644 -1.0964  1.9984
  785MOL0     H 5919   9.926   0.527   1.538 -0.4847 -1.6168 -2.1124
  785MOL0     H 5920  10.054   0.372   1.775  0.7337  1.0050  0.5482
  785MOL0     H 5921  10.127   0.385   1.613 -3.0106 -0.5423 -2.5443
  785MOL0     H 5922  10.068   0.625   1.790  0.4473 -2.7946  3.4654
  785MOL0     H 5923  10.105   0.625   1.615  0.1984 -1.2657  0.4922
  785MOL0     H 5924  10.316   0.643   1.794 -2.0384  0.4899 -0.2213
  785MOL0     H 5925  10.291   0.471   1.796 -1.0791 -2.1355 -1.7291
  785MOL0     H 5926  10.472   0.734   1.628 -0.1188  0.2818 -0.6267
  785MOL0     H 5927  10.609   0.655   1.304  0.9635  1.0138  0.2034
  785MOL0     H 5928  10.667   0.741   1.445  0.0799  0.4051 -1.1017
  785MOL0     H 5929  10.776   0.505   1.503 -0.2598 -1.7636 -1.3794
  785MOL0     H 5930  10.746   0.464   1.338 -0.4345 -1.4095  1.1469
  785MOL0     H 5931  10.972   0.533   1.343 -0.0378 -1.4387  2.2302
  785MOL0     H 5932  10.947   0.668   1.455  1.5613  1.4710 -1.6503
  785MOL0     H 5933  10.806   0.755   1.240 -1.2026 -0.8868 -2.4207
  785MOL0     H 5934  10.928   0.672   1.156 -0.2882  1.5530 -0.9263
  785MOL0     H 5935  11.145   0.614   1.194 -2.9253 -0.0033  0.2270
  785MOL0     H 5936  11.380   0.617   1.149  0.4081  0.3522  0.1184
  785MOL0     H 5937  11.746   0.867   0.984 -0.3878 -0.2610 -0.0147
  785MOL0     H 5938  12.003   0.835   0.922  1.4439  0.6339  1.7123
  785MOL0     H 5939  12.241   0.665   1.178 -2.7549 -0.1161 -0.5376
  785MOL0     H 5940  12.208   0.500   1.117 -1.1098 -0.5128  1.0197
  785MOL0     H 5941  12.376   0.691   0.961 -0.6462 -0.8256 -1.6529
  785MOL0     H 5942  12.463   0.586   1.084  2.1695 -0.4502 -0.7029
  785MOL0     H 5943  12.397   0.393   0.986  2.1594 -1.6748 -1.0545
  785MOL0     H 5944  12.289   0.468   0.865  0.6044  0.3545 -0.8444
  785MOL0     H 5945  12.481   0.396   0.750 -0.2235  0.7395 -0.6975
  785MOL0     H 5946  12.597   0.474   0.857  0.2026 -1.8996 -0.6355
  785MOL0     H 5947  12.510   0.707   0.781 -1.9556 -0.4195  0.9933
  785MOL0     H 5948  12.398   0.612   0.677  1.8255  4.0764 -2.2310
  785MOL0     H 5949  12.695   0.567   0.678  1.1965 -1.2580 -1.9916
  785MOL0     H 5950  12.566   0.522   0.554 -1.2536  0.6134  0.0982
  785MOL0     H 5951  12.677   0.803   0.616  1.2170 -2.3369  2.0518
  785MOL0     H 5952  12.539   0.765   0.501 -0.3853 -0.3711 -1.1030
  785MOL0     H 5953  12.718   0.620   0.390 -1.8210  0.1645  0.0550
  785MOL0     H 5954  12.755   0.794   0.385  0.5862 -1.1937 -0.3546
  785MOL0     H 5955  12.013   0.472   1.135 -0.9122 -1.0032 -1.3106
  785MOL0     H 5956  11.788   0.499   1.205  1.5576  0.6844  0.3850
  785MOL0     H 5957  11.387   1.049   1.224 -0.8776  0.4833  0.3565
  785MOL0     H 5958  11.149   1.036   1.261 -2.2053 -2.1528 -0.4680
  785MOL0     H 5959   9.235   0.842   1.719  1.7035 -1.5865  0.7067
  785MOL0     H 5960   9.027   0.906   1.616  1.1920  0.6523 -0.2819
  785MOL0     H 5961   8.749   0.972   1.366 -0.2818 -0.0006  0.3156
  785MOL0     H 5962   8.502   1.045   1.352 -0.0464  0.0831 -1.4768
  785MOL0     H 5963   8.305   0.901   1.105  0.5111 -1.4191 -0.3612
  785MOL0     H 5964   8.296   1.042   1.214  2.3012 -1.7267  3.1845
  785MOL0     H 5965   8.071   1.022   1.146 -1.0297 -1.0233  0.2123
  785MOL0     H 5966   8.074   0.958   1.307  0.9890 -1.2347  1.4919
  785MOL0     H 5967   8.114   0.718   1.172  2.5121  0.4025 -3.5583
  785MOL0     H 5968   8.055   0.804   1.033 -2.1573  1.5860 -0.3502
  785MOL0     H 5969   7.851   0.862   1.126  1.2535  1.1439  0.5515
  785MOL0     H 5970   7.884   0.684   1.144  1.1937 -0.6956  0.9849
  785MOL0     H 5971   7.810   0.836   1.538  2.7678  1.2470  0.8655
  785MOL0     H 5972   8.391   0.656   1.270 -0.7394  0.4523 -0.0517
  785MOL0     H 5973   8.540   0.454   1.297 -0.6734 -0.1904 -0.3126
  785MOL0     H 5974   8.687   0.488   1.213  2.4173  1.8858  0.9941
  785MOL0     H 5975   8.688   0.488   1.390  1.3274  1.6202 -0.4043
  786MOL0     O 5976   7.324   6.014   6.056  0.1191 -0.4841 -0.0870
  786MOL0     C 5977   7.431   5.984   6.007 -0.4415  0.2696 -0.8069
  786MOL0     O 5978   7.552   5.984   6.077 -0.0348  0.0910  0.5230
  786MOL0     C 5979   7.557   5.977   6.214  0.1024  0.2599  0.0352
  786MOL0     C 5980   7.618   5.869   6.275  0.4311 -0.2145  0.3181
  786MOL0     C 5981   7.626   5.858   6.410 -0.0360  0.2917 -0.1283
  786MOL0     C 5982   7.558   5.946   6.496  0.1178 -0.1086  0.7970
  786MOL0     O 5983   7.565   5.940   6.632  0.0234  0.2337 -0.0019
  786MOL0     C 5984   7.624   5.827   6.694 -0.6704  0.7876 -1.0221
  786MOL0     C 5985   7.629   5.854   6.842 -0.7200 -0.1692  0.1475
  786MOL0     C 5986   7.712   5.747   6.924  0.3664 -0.5837 -0.4384
  786MOL0     C 5987   7.861   5.767   6.906 -0.1610 -0.9939 -0.2537
  786MOL0     C 5988   7.947   5.647   6.965  0.2282 -0.7609 -0.6711
  786MOL0     C 5989   8.095   5.670   6.988 -0.1870  0.3760 -0.0564
  786MOL0     C 5990   8.188   5.562   7.052  0.1263  0.0446  0.6132
  786MOL0     C 5991   8.260   5.485   6.932 -0.3770 -0.3866 -0.0193
  786MOL0     N 5992   8.376   5.419   6.990 -0.0484  0.5870 -1.0063
  786MOL0     C 5993   8.378   5.292   7.040 -0.4729 -0.1480  0.2392
  786MOL0     C 5994   8.500   5.283   7.101 -0.3267  0.4278 -0.0614
  786MOL0     C 5995   8.547   5.160   7.165  0.7115 -0.7722  0.3730
  786MOL0     C 5996   8.685   5.106   7.119 -0.8062 -0.4835  0.0862
  786MOL0     C 5997   8.742   5.007   7.218 -0.6905  0.9670  0.2607
  786MOL0     C 5998   8.878   4.959   7.171 -0.2719 -0.8107 -0.0846
  786MOL0     O 5999   8.954   5.083   7.160 -0.3463  0.1098 -0.8295
  786MOL0     C 6000   9.088   5.077   7.149  0.3588  0.5291 -0.6548
  786MOL0     C 6001   9.157   4.971   7.094 -0.0865  0.3543 -0.4466
  786MOL0     C 6002   9.296   4.976   7.073 -0.5408 -0.5278  0.2428
  786MOL0     C 6003   9.368   5.093   7.119  0.1032 -0.0171 -0.9928
  786MOL0     C 6004   9.513   5.092   7.094 -0.5478  0.4158 -0.1168
  786MOL0     O 6005   9.582   5.204   7.140  0.0761  0.4616 -0.4433
  786MOL0     C 6006   9.719   5.193   7.127  0.2433 -0.1400  0.3250
  786MOL0     C 6007   9.781   5.306   7.075  0.1247  0.2095 -0.1353
  786MOL0     C 6008   9.921   5.312   7.066 -0.5727 -0.1651  0.2431
  786MOL0     C 6009  10.003   5.203   7.115  0.3013 -0.5504 -0.1998
  786MOL0     O 6010  10.141   5.188   7.104 -0.4901 -0.5962  0.5762
  786MOL0     C 6011  10.203   5.287   7.006 -0.0378  0.9054 -0.3756
  786MOL0     C 6012  10.245   5.416   7.075  0.0291  0.9332  0.9910
  786MOL0     C 6013  10.347   5.384   7.187 -0.0395  0.2489 -0.0879
  786MOL0     C 6014  10.474   5.321   7.141 -0.0073  1.0665  0.3359
  786MOL0     C 6015  10.581   5.309   7.247  0.9467  0.0153 -0.0746
  786MOL0     C 6016  10.644   5.439   7.285 -0.1334 -0.3395 -0.5339
  786MOL0     C 6017  10.770   5.411   7.371  0.7239  0.3367  0.4891
  786MOL0     C 6018  10.842   5.534   7.419  0.3466  0.1480  0.3469
  786MOL0    Cl 6019  10.754   5.644   7.518  0.2308 -0.0120 -0.9376
  786MOL0     C 6020   9.936   5.104   7.177 -0.4494  1.2017 -0.6779
  786MOL0     C 6021   9.798   5.095   7.188  0.1255 -0.3817  0.4896
  786MOL0     O 6022   9.566   4.993   7.045 -0.1462 -0.0597 -0.0899
  786MOL0     C 6023   9.303   5.194   7.185 -0.0694  0.3825  0.4944
  786MOL0     C 6024   9.166   5.187   7.191  0.4430 -0.0490 -0.2169
  786MOL0     N 6025   8.564   5.400   7.103  0.0776  0.4652  0.3056
  786MOL0     N 6026   8.478   5.479   7.047 -1.3906  0.3472 -0.2226
  786MOL0     C 6027   7.497   6.057   6.439 -0.1073  0.0810 -0.4928
  786MOL0     C 6028   7.499   6.076   6.299 -0.1662 -1.1347  0.2867
  786MOL0     C 6029   7.445   5.990   5.854 -0.7435  0.4584 -0.4423
  786MOL0     C 6030   7.575   5.967   5.794  0.3589 -0.3345  0.1453
  786MOL0     C 6031   7.598   5.996   5.660 -0.0952 -0.3597 -0.5869
  786MOL0     C 6032   7.493   6.022   5.574  1.0894  0.1721  0.5831
  786MOL0     O 6033   7.536   6.046   5.437  0.3482  0.0244  0.3937
  786MOL0     C 6034   7.455   6.068   5.315 -0.5284 -0.2222  0.4735
  786MOL0     C 6035   7.549   6.070   5.192  0.6756 -0.3357  0.1770
  786MOL0     C 6036   7.630   6.200   5.183  0.2031 -0.7982  0.3196
  786MOL0     C 6037   7.709   6.208   5.048  0.0182 -0.1556  0.0542
  786MOL0     C 6038   7.820   6.116   5.036  0.5667 -0.6584  0.6506
  786MOL0     C 6039   7.910   6.037   5.013  0.2833 -0.1619  0.7725
  786MOL0     C 6040   7.357   6.022   5.614 -0.4003  0.0744  0.9166
  786MOL0     C 6041   7.335   6.013   5.757 -0.1574  0.6892 -0.4427
  786MOL0     C 6042   7.195   6.016   5.809  0.3522 -0.1706  0.9170
  786MOL0     H 6043   7.665   5.785   6.224  0.7884  0.1849 -0.0157
  786MOL0     H 6044   7.686   5.775   6.447 -1.9034 -1.6749 -1.2708
  786MOL0     H 6045   7.570   5.733   6.679 -2.4138  1.6599 -0.5345
  786MOL0     H 6046   7.729   5.813   6.667  0.7071  1.5829  3.1642
  786MOL0     H 6047   7.526   5.832   6.871 -1.0747 -3.0831 -2.7330
  786MOL0     H 6048   7.654   5.959   6.862  1.6143 -0.4559 -0.9863
  786MOL0     H 6049   7.680   5.647   6.893  3.7421 -1.0358 -3.0237
  786MOL0     H 6050   7.692   5.772   7.029 -0.1405  1.9359 -1.0550
  786MOL0     H 6051   7.894   5.784   6.802  3.0527  1.2543  0.9575
  786MOL0     H 6052   7.885   5.860   6.957 -2.0693 -0.0702 -0.9404
  786MOL0     H 6053   7.898   5.615   7.058 -1.1631 -1.2073 -1.5297
  786MOL0     H 6054   7.938   5.559   6.900  1.2230 -0.3944 -1.3196
  786MOL0     H 6055   8.130   5.699   6.888  0.9103 -4.0171 -1.1336
  786MOL0     H 6056   8.099   5.763   7.046 -0.1730 -0.0679  0.6683
  786MOL0     H 6057   8.132   5.500   7.123 -0.6757 -0.7477 -0.6594
  786MOL0     H 6058   8.257   5.618   7.116 -2.0984  1.1166  2.2227
  786MOL0     H 6059   8.190   5.412   6.889 -2.2404  0.5507  1.2371
  786MOL0     H 6060   8.293   5.553   6.853  0.0353 -1.1684 -0.5347
  786MOL0     H 6061   8.307   5.210   7.035 -0.1131 -0.4603  0.1127
  786MOL0     H 6062   8.551   5.193   7.269  1.0499  1.0321 -0.1729
  786MOL0     H 6063   8.473   5.080   7.156  0.0405 -0.0954 -0.3855
  786MOL0     H 6064   8.668   5.056   7.023 -2.0523 -2.2626  1.1661
  786MOL0     H 6065   8.760   5.180   7.092 -1.3555 -0.2041 -0.7190
  786MOL0     H 6066   8.684   4.915   7.217  1.5644 -0.5377  0.0403
  786MOL0     H 6067   8.740   5.062   7.313 -1.3055 -0.0401  0.8386
  786MOL0     H 6068   8.879   4.914   7.071 -2.0142  2.4924 -1.7652
  786MOL0     H 6069   8.929   4.886   7.233  2.0283  0.5269 -0.2694
  786MOL0     H 6070   9.112   4.879   7.060 -3.7906  1.1141  1.8765
  786MOL0     H 6071   9.345   4.903   7.010 -0.5802 -0.8874  0.6210
  786MOL0     H 6072   9.731   5.398   7.045  1.1740  0.0549 -2.6445
  786MOL0     H 6073   9.962   5.403   7.025 -1.3638 -0.0248 -0.2704
  786MOL0     H 6074  10.295   5.248   6.961 -0.3625  0.8117 -0.9634
  786MOL0     H 6075  10.131   5.299   6.924 -0.8110  1.7605  0.4022
  786MOL0     H 6076  10.297   5.479   7.002  0.9107  1.4520  2.0489
  786MOL0     H 6077  10.155   5.468   7.109 -1.3348 -1.2079  0.8557
  786MOL0     H 6078  10.361   5.476   7.245 -4.5618  0.9888  0.1445
  786MOL0     H 6079  10.309   5.319   7.268 -0.6190 -1.2631 -1.5135
  786MOL0     H 6080  10.520   5.363   7.051  2.3849 -4.5530 -1.5261
  786MOL0     H 6081  10.452   5.216   7.122 -0.3661  0.7493  2.3029
  786MOL0     H 6082  10.659   5.244   7.206 -0.9236 -2.3425 -0.1893
  786MOL0     H 6083  10.523   5.261   7.326 -1.7696  2.3117 -0.4645
  786MOL0     H 6084  10.669   5.483   7.188 -0.5963 -0.9882 -0.9548
  786MOL0     H 6085  10.570   5.503   7.333  0.2939  0.1663 -0.5428
  786MOL0     H 6086  10.842   5.353   7.314  0.1481  0.8433 -0.7755
  786MOL0     H 6087  10.740   5.343   7.452 -0.8157 -0.6179 -0.8102
  786MOL0     H 6088  10.923   5.497   7.481 -0.2037  1.8376  2.1637
  786MOL0     H 6089  10.888   5.589   7.336  1.5540  0.9842  1.5387
  786MOL0     H 6090  10.002   5.027   7.217 -1.7840  0.4557  0.1829
  786MOL0     H 6091   9.747   5.005   7.223 -0.4684  0.6950  2.5064
  786MOL0     H 6092   9.350   5.279   7.234  1.6100  0.0523 -0.4789
  786MOL0     H 6093   9.121   5.270   7.245  1.2114 -0.0245  0.3978
  786MOL0     H 6094   7.441   6.124   6.503 -0.9363 -1.5799  0.6208
  786MOL0     H 6095   7.459   6.160   6.242  1.7761 -0.7546 -0.6320
  786MOL0     H 6096   7.653   5.960   5.869 -2.0095  0.6020  2.8982
  786MOL0     H 6097   7.700   5.998   5.624 -0.7332  2.4625 -2.5861
  786MOL0     H 6098   7.397   6.160   5.328 -0.4137 -0.1316  0.3511
  786MOL0     H 6099   7.372   5.998   5.301 -2.2682  1.7872  0.1891
  786MOL0     H 6100   7.484   6.061   5.104 -1.0287  0.0552  1.3496
  786MOL0     H 6101   7.625   5.992   5.203  1.6383  0.7591  1.5972
  786MOL0     H 6102   7.704   6.193   5.264  2.2872  4.2816 -0.7241
  786MOL0     H 6103   7.570   6.289   5.201  0.4330 -1.2208  3.6922
  786MOL0     H 6104   7.646   6.196   4.960  2.3830 -1.3628 -1.5792
  786MOL0     H 6105   7.757   6.306   5.038 -0.6083  0.0709 -0.8534
  786MOL0     H 6106   7.989   5.966   4.998  2.2385  2.2652 -1.4123
  786MOL0     H 6107   7.279   6.047   5.544 -0.5638  0.3097  1.1812
  786MOL0     H 6108   7.124   6.025   5.726 -1.2065  2.6504  2.3867
  786MOL0     H 6109   7.183   5.925   5.869 -2.9062  0.0372  0.7703
  786MOL0     H 6110   7.182   6.099   5.879 -0.6526 -0.1063  0.6763
  787MOL0     O 6111   9.164   1.202   2.811 -0.6791 -0.4829  0.0879
  787MOL0     C 6112   9.144   1.220   2.693  0.5558 -0.2440 -1.2699
  787MOL0     O 6113   9.233   1.269   2.606 -0.2112  0.0829  0.3547
  787MOL0     C 6114   9.351   1.317   2.662  0.1490 -0.2803  0.3987
  787MOL0     C 6115   9.474   1.251   2.658 -0.0136  0.8354 -0.4676
  787MOL0     C 6116   9.592   1.299   2.713  0.2131  0.5516  0.1816
  787MOL0     C 6117   9.585   1.413   2.783 -1.2961 -0.9631  0.3378
  787MOL0     O 6118   9.699   1.472   2.837  0.0051  0.7419  0.1467
  787MOL0     C 6119   9.680   1.479   2.979  0.5091  0.1539 -0.0722
  787MOL0     C 6120   9.819   1.471   3.034 -0.3545 -0.1004  0.9874
  787MOL0     C 6121   9.938   1.533   2.957 -0.9385  0.7923  0.4466
  787MOL0     C 6122  10.062   1.546   3.045  0.0622 -1.0988 -0.4268
  787MOL0     C 6123  10.186   1.604   2.975 -0.2229  0.4411  0.2922
  787MOL0     C 6124  10.301   1.624   3.072  0.0745 -0.1705 -0.5840
  787MOL0     C 6125  10.425   1.665   2.990  0.9481 -0.1333 -0.4287
  787MOL0     C 6126  10.539   1.674   3.097  0.5475 -0.7312 -0.5428
  787MOL0     N 6127  10.654   1.752   3.046  0.0186 -0.5319  0.0588
  787MOL0     C 6128  10.710   1.752   2.914 -0.2930 -0.4966 -0.7298
  787MOL0     C 6129  10.782   1.863   2.911  0.0702 -0.0706 -0.2244
  787MOL0     C 6130  10.866   1.905   2.797  0.6401 -0.1853 -0.6169
  787MOL0     C 6131  11.001   1.935   2.840 -0.6577  0.4660  0.3546
  787MOL0     C 6132  11.074   1.943   2.703 -0.2711 -0.4368 -0.2165
  787MOL0     C 6133  11.216   1.990   2.732  0.0260 -0.8669  0.6879
  787MOL0     O 6134  11.283   1.899   2.818  0.0186 -0.0386  0.0882
  787MOL0     C 6135  11.399   1.924   2.881 -0.2159  0.3727 -0.5311
  787MOL0     C 6136  11.445   1.813   2.960  0.1737 -0.1390 -0.4374
  787MOL0     C 6137  11.570   1.825   3.034  0.0974 -0.2482  0.6234
  787MOL0     C 6138  11.635   1.952   3.037 -0.3490  0.0753  0.2133
  787MOL0     C 6139  11.753   1.964   3.129  0.1146  0.0311  0.4016
  787MOL0     O 6140  11.826   2.072   3.089 -0.1232  0.5940 -0.3695
  787MOL0     C 6141  11.960   2.071   3.110  0.7623  0.3940 -0.2520
  787MOL0     C 6142  12.045   1.972   3.058  0.7216  0.1226 -0.4783
  787MOL0     C 6143  12.185   1.962   3.072  0.1973 -0.3827 -0.4586
  787MOL0     C 6144  12.243   2.056   3.153 -0.2621  0.4476  0.5252
  787MOL0     O 6145  12.375   2.044   3.191  0.9048 -0.5424 -0.0898
  787MOL0     C 6146  12.479   1.969   3.122 -0.2192 -0.7119  0.0253
  787MOL0     C 6147  12.593   1.952   3.215  0.7949  0.7321  0.2272
  787MOL0     C 6148  12.661   2.083   3.245 -0.5059  0.1496  0.2341
  787MOL0     C 6149  12.772   2.050   3.343 -0.7479 -0.5105  0.1917
  787MOL0     C 6150  12.854   2.171   3.391  0.0232  0.4070  0.3219
  787MOL0     C 6151  12.943   2.223   3.281  0.7979 -1.1173 -0.8339
  787MOL0     C 6152  13.063   2.294   3.344 -0.2317 -0.3014 -0.1979
  787MOL0     C 6153  13.158   2.347   3.232 -0.3901 -0.6390 -0.3640
  787MOL0    Cl 6154  13.284   2.456   3.293  0.3841 -0.1357  0.0534
  787MOL0     C 6155  12.163   2.159   3.193  0.5267 -0.2602 -0.9551
  787MOL0     C 6156  12.027   2.177   3.173  0.9864  1.2069  0.0910
  787MOL0     O 6157  11.788   1.873   3.200  0.5753 -0.2228 -0.1929
  787MOL0     C 6158  11.593   2.054   2.955 -0.4415 -0.4348  0.3220
  787MOL0     C 6159  11.478   2.039   2.880  0.1967 -0.3413  0.5113
  787MOL0     N 6160  10.772   1.931   3.031 -0.2991 -0.4356  0.0686
  787MOL0     N 6161  10.700   1.860   3.109  0.2013 -0.6060  0.0896
  787MOL0     C 6162   9.461   1.483   2.801 -0.6056  1.5335 -0.4261
  787MOL0     C 6163   9.349   1.435   2.727 -0.1098  0.1157  0.2040
  787MOL0     C 6164   9.009   1.175   2.649 -0.4156  0.1615 -0.9254
  787MOL0     C 6165   8.905   1.166   2.741  0.1366  0.7497  0.8481
  787MOL0     C 6166   8.782   1.109   2.700 -0.1991 -0.2024  0.3854
  787MOL0     C 6167   8.755   1.079   2.570  0.1105 -0.1363  1.0565
  787MOL0     O 6168   8.621   1.069   2.533 -1.2938 -0.9778 -0.1142
  787MOL0     C 6169   8.581   0.994   2.420 -0.9795 -0.2328  0.4346
  787MOL0     C 6170   8.581   1.077   2.296 -0.2758 -0.2783  0.3320
  787MOL0     C 6171   8.446   1.129   2.262 -0.7279  0.0021 -0.0317
  787MOL0     C 6172   8.399   1.238   2.354  1.0182  0.2705 -0.8735
  787MOL0     C 6173   8.257   1.273   2.323 -0.8013  0.6939  0.1528
  787MOL0     C 6174   8.140   1.296   2.306 -0.4291 -0.7128  0.3341
  787MOL0     C 6175   8.859   1.091   2.474  0.6768 -0.3539  0.8651
  787MOL0     C 6176   8.987   1.141   2.510  0.5163 -0.8719 -1.0704
  787MOL0     C 6177   9.092   1.142   2.401 -0.3872 -0.6842  0.0367
  787MOL0     H 6178   9.470   1.156   2.606  1.8737  0.3136  0.2528
  787MOL0     H 6179   9.685   1.243   2.712  0.6670  0.9369  4.1766
  787MOL0     H 6180   9.635   1.567   3.025 -2.8508 -2.5715  2.3706
  787MOL0     H 6181   9.618   1.401   3.024 -0.9709  0.9925 -0.5810
  787MOL0     H 6182   9.841   1.366   3.054  0.9315  0.5277  3.1658
  787MOL0     H 6183   9.812   1.516   3.133 -2.0120  1.3977  0.2389
  787MOL0     H 6184   9.912   1.636   2.928 -0.2478  1.0459  0.7150
  787MOL0     H 6185   9.972   1.470   2.875  3.7773 -1.3731  3.6254
  787MOL0     H 6186  10.038   1.605   3.133  0.1559 -1.6916 -0.0012
  787MOL0     H 6187  10.092   1.447   3.079 -0.2509 -0.6036  1.3902
  787MOL0     H 6188  10.216   1.538   2.894 -1.3303 -0.3257  0.4985
  787MOL0     H 6189  10.159   1.705   2.941 -2.0690  1.4584  4.1655
  787MOL0     H 6190  10.280   1.702   3.146  0.5431 -1.5174  1.0164
  787MOL0     H 6191  10.317   1.530   3.125 -0.2881  0.2245  0.2402
  787MOL0     H 6192  10.405   1.766   2.952 -1.4169 -0.4818 -0.2322
  787MOL0     H 6193  10.449   1.600   2.906  0.3488 -0.1766 -0.5636
  787MOL0     H 6194  10.499   1.718   3.189 -1.6895 -1.2856 -1.1905
  787MOL0     H 6195  10.575   1.575   3.127  2.0161 -0.0405  0.0765
  787MOL0     H 6196  10.700   1.681   2.833  1.5996  0.4949 -1.8883
  787MOL0     H 6197  10.870   1.814   2.736  1.6882 -0.7411  0.2416
  787MOL0     H 6198  10.818   1.986   2.741  0.5676  0.8638  0.8785
  787MOL0     H 6199  11.003   2.025   2.901 -1.7386  1.7517 -1.4077
  787MOL0     H 6200  11.041   1.846   2.889 -0.8311 -2.0020 -3.4999
  787MOL0     H 6201  11.024   2.005   2.627  0.4385 -1.2872 -1.4104
  787MOL0     H 6202  11.082   1.853   2.641  1.7645  1.6910 -3.3346
  787MOL0     H 6203  11.218   2.091   2.775  1.1284 -1.6834  2.7281
  787MOL0     H 6204  11.263   2.003   2.635  1.0768 -3.4116  0.7877
  787MOL0     H 6205  11.394   1.717   2.962 -0.3920  0.1541 -0.7230
  787MOL0     H 6206  11.608   1.738   3.085  1.5741 -0.0100 -0.0388
  787MOL0     H 6207  11.996   1.886   3.014  1.9156 -0.9811  0.2829
  787MOL0     H 6208  12.237   1.872   3.038  0.9915  0.4910 -1.6550
  787MOL0     H 6209  12.455   1.866   3.094  1.0773 -0.7577 -1.0262
  787MOL0     H 6210  12.510   2.014   3.028 -0.5003  0.1964  0.3612
  787MOL0     H 6211  12.546   1.923   3.309 -0.7059 -0.9417 -0.9695
  787MOL0     H 6212  12.666   1.883   3.173 -0.9543 -1.0460 -0.0370
  787MOL0     H 6213  12.698   2.150   3.167  1.5447 -1.5890 -0.3926
  787MOL0     H 6214  12.589   2.152   3.289 -0.6304  0.5164 -0.5204
  787MOL0     H 6215  12.845   1.976   3.309  0.1638 -0.3875  1.7323
  787MOL0     H 6216  12.722   2.001   3.427  0.2178  0.2890  1.2703
  787MOL0     H 6217  12.923   2.146   3.472  1.3385  0.2169 -0.8222
  787MOL0     H 6218  12.786   2.255   3.413  2.7665  2.7377  0.4268
  787MOL0     H 6219  12.984   2.141   3.222 -2.7919 -0.2868 -5.0492
  787MOL0     H 6220  12.894   2.291   3.211 -0.3940 -0.5898  0.4520
  787MOL0     H 6221  13.124   2.225   3.402 -0.4014  0.4088  0.8510
  787MOL0     H 6222  13.023   2.366   3.415  1.7942 -0.5089  1.2435
  787MOL0     H 6223  13.213   2.271   3.176  1.4756 -0.0849  0.6105
  787MOL0     H 6224  13.090   2.402   3.166 -0.3552 -1.5737 -1.2012
  787MOL0     H 6225  12.207   2.238   3.254  0.3063 -1.3752  0.7285
  787MOL0     H 6226  11.972   2.264   3.209 -0.2562  1.3877 -2.0615
  787MOL0     H 6227  11.644   2.149   2.943 -2.8149  0.9063  0.1350
  787MOL0     H 6228  11.449   2.105   2.798  3.2031 -0.3694 -0.7180
  787MOL0     H 6229   9.450   1.573   2.860  3.5444  2.4392 -0.7168
  787MOL0     H 6230   9.259   1.496   2.737  0.4756  0.8822  1.0263
  787MOL0     H 6231   8.925   1.191   2.845 -0.7469  1.6398  0.8155
  787MOL0     H 6232   8.704   1.105   2.776  0.9217 -2.2163  1.5041
  787MOL0     H 6233   8.479   0.965   2.448 -0.1944 -3.3869  0.3784
  787MOL0     H 6234   8.640   0.905   2.401  1.0086  0.7932  1.5323
  787MOL0     H 6235   8.615   1.009   2.218  1.5253  0.3837  0.4915
  787MOL0     H 6236   8.656   1.157   2.296 -3.2802  2.7546  0.2750
  787MOL0     H 6237   8.378   1.043   2.267  1.6553 -2.4553 -4.2117
  787MOL0     H 6238   8.443   1.164   2.158 -0.1365 -2.9428 -1.1561
  787MOL0     H 6239   8.404   1.205   2.458 -1.1536  0.9705 -0.4827
  787MOL0     H 6240   8.469   1.321   2.344  0.9728  0.4787  0.3090
  787MOL0     H 6241   8.034   1.305   2.290 -0.2982  3.8730  0.7521
  787MOL0     H 6242   8.846   1.072   2.367 -1.0163  0.6850  0.8460
  787MOL0     H 6243   9.172   1.073   2.427 -2.3592 -2.0449  3.0826
  787MOL0     H 6244   9.045   1.119   2.305 -0.6818 -0.8517  0.2177
  787MOL0     H 6245   9.122   1.246   2.386 -1.3699 -0.7756 -3.6341
  788MOL0     O 6246   7.701   5.193   5.872  0.7973 -0.0074  0.0351
  788MOL0     C 6247   7.640   5.256   5.784  0.5015 -0.3987  0.2687
  788MOL0     O 6248   7.698   5.315   5.678 -0.2470  0.1874  0.7533
  788MOL0     C 6249   7.838   5.322   5.675  0.0917  0.2456  0.1933
  788MOL0     C 6250   7.897   5.438   5.719 -0.7611 -0.4206 -0.6728
  788MOL0     C 6251   8.036   5.441   5.708 -0.2814  0.3067 -0.1527
  788MOL0     C 6252   8.112   5.326   5.668  0.3763 -0.1230  0.3549
  788MOL0     O 6253   8.250   5.343   5.679 -0.0126 -0.3766 -0.2466
  788MOL0     C 6254   8.339   5.262   5.586 -0.2609  0.4039  0.1109
  788MOL0     C 6255   8.357   5.333   5.448  0.2029  0.3731  1.2788
  788MOL0     C 6256   8.425   5.472   5.446  0.1775 -0.7782 -0.2981
  788MOL0     C 6257   8.436   5.520   5.302  0.1407 -0.2584  0.8147
  788MOL0     C 6258   8.491   5.661   5.285 -0.4253 -0.0974  0.2222
  788MOL0     C 6259   8.518   5.688   5.139 -0.3196 -0.1345  0.6117
  788MOL0     C 6260   8.599   5.816   5.126 -0.3911  1.1468 -0.1784
  788MOL0     C 6261   8.524   5.949   5.138 -0.4088  0.1488  0.4650
  788MOL0     N 6262   8.423   5.962   5.030  0.2188  0.1355  0.1747
  788MOL0     C 6263   8.438   5.986   4.891 -0.9414  0.1603 -0.2148
  788MOL0     C 6264   8.310   5.977   4.844  0.6832  0.4532 -0.3014
  788MOL0     C 6265   8.286   6.008   4.703  0.4332  0.1936 -0.3380
  788MOL0     C 6266   8.300   6.155   4.676 -1.0044 -0.3646 -0.5893
  788MOL0     C 6267   8.220   6.199   4.562 -0.1807  0.1834 -0.1206
  788MOL0     C 6268   8.073   6.202   4.607  0.7466  0.7921 -0.1894
  788MOL0     O 6269   8.053   6.300   4.712 -0.1153 -0.3800  0.2709
  788MOL0     C 6270   7.921   6.359   4.723 -0.8521  0.1137 -0.2674
  788MOL0     C 6271   7.813   6.318   4.649 -0.9546  1.1749 -0.3116
  788MOL0     C 6272   7.687   6.372   4.675 -0.2479 -0.5209  0.0835
  788MOL0     C 6273   7.665   6.474   4.771  0.2667  0.3841 -0.8232
  788MOL0     C 6274   7.531   6.509   4.817  0.3155 -0.6586 -0.7390
  788MOL0     O 6275   7.530   6.567   4.940 -1.0773  0.0534 -0.2940
  788MOL0     C 6276   7.431   6.646   4.990  0.6675 -0.1805  0.5638
  788MOL0     C 6277   7.389   6.614   5.116  0.2426 -0.3697 -0.6559
  788MOL0     C 6278   7.277   6.678   5.166 -0.1872  0.1544  0.4353
  788MOL0     C 6279   7.217   6.782   5.097 -0.5275  0.8993  0.2987
  788MOL0     O 6280   7.113   6.847   5.163 -0.0832  0.3028  0.5926
  788MOL0     C 6281   7.021   6.768   5.243  0.0421  0.7162  0.0684
  788MOL0     C 6282   6.899   6.843   5.282  0.3834  0.6000 -0.0956
  788MOL0     C 6283   6.939   6.973   5.343  1.0936 -0.1701  0.3710
  788MOL0     C 6284   6.833   7.027   5.430  0.3038 -0.4788 -0.4085
  788MOL0     C 6285   6.864   7.160   5.489 -0.0912 -0.6337  0.8325
  788MOL0     C 6286   6.750   7.219   5.575 -0.5534 -1.0437  0.1952
  788MOL0     C 6287   6.773   7.362   5.607 -0.3504 -0.9994 -0.9029
  788MOL0     C 6288   6.721   7.405   5.742  0.1270  0.4952 -0.2857
  788MOL0    Cl 6289   6.797   7.559   5.788  0.1000  0.7234 -0.0896
  788MOL0     C 6290   7.271   6.821   4.971  0.3989  0.4335 -0.2584
  788MOL0     C 6291   7.375   6.749   4.908  0.7244  0.9948 -0.6344
  788MOL0     O 6292   7.430   6.479   4.755  0.0956  0.4376  0.0111
  788MOL0     C 6293   7.778   6.525   4.838  0.3245  0.6947  0.4140
  788MOL0     C 6294   7.901   6.469   4.819 -0.2141 -0.5292  0.9316
  788MOL0     N 6295   8.223   5.933   4.941  0.6511  0.0775 -0.3078
  788MOL0     N 6296   8.291   5.927   5.047 -0.5171 -1.6080 -0.0368
  788MOL0     C 6297   8.045   5.213   5.620  0.9128 -1.1108  0.1263
  788MOL0     C 6298   7.905   5.215   5.623 -1.1208  0.2863  0.6704
  788MOL0     C 6299   7.492   5.242   5.785 -0.4337 -0.5926 -0.4171
  788MOL0     C 6300   7.432   5.139   5.862 -0.8397 -0.1976  0.4168
  788MOL0     C 6301   7.300   5.108   5.861  0.2001 -0.2393  0.2051
  788MOL0     C 6302   7.209   5.187   5.799  0.2888  0.0569  0.2977
  788MOL0     O 6303   7.080   5.149   5.804  0.2470  0.0455 -0.1291
  788MOL0     C 6304   6.985   5.254   5.817  0.1813 -0.7401 -0.0652
  788MOL0     C 6305   6.876   5.209   5.911  1.1503 -0.2401  1.1971
  788MOL0     C 6306   6.916   5.223   6.047  0.4201 -1.0308  0.4709
  788MOL0     C 6307   6.799   5.204   6.138 -0.6571 -0.1157  0.6286
  788MOL0     C 6308   6.839   5.210   6.280  0.3114  0.5906 -0.0479
  788MOL0     C 6309   6.866   5.202   6.403 -0.0420 -0.1873  0.5524
  788MOL0     C 6310   7.261   5.303   5.735  0.3114  0.7054 -0.2454
  788MOL0     C 6311   7.396   5.331   5.726 -0.5890 -1.0977  0.4034
  788MOL0     C 6312   7.434   5.458   5.654  0.3711 -0.7098 -0.6077
  788MOL0     H 6313   7.841   5.522   5.759 -1.5716 -0.2121 -2.1606
  788MOL0     H 6314   8.091   5.531   5.734  1.1219 -0.7852  0.8142
  788MOL0     H 6315   8.441   5.260   5.627 -0.2634  3.3232  0.5086
  788MOL0     H 6316   8.300   5.162   5.568  1.3375 -0.4246  1.0048
  788MOL0     H 6317   8.258   5.346   5.402  0.5848  0.8527  0.5875
  788MOL0     H 6318   8.424   5.270   5.390 -2.1265 -2.7377  1.6749
  788MOL0     H 6319   8.522   5.463   5.497 -0.5989 -0.4864  1.2953
  788MOL0     H 6320   8.362   5.548   5.493  0.5947 -1.3833  1.3136
  788MOL0     H 6321   8.497   5.455   5.238  2.6378  1.8973  0.8279
  788MOL0     H 6322   8.340   5.517   5.249 -0.1869  0.5460  1.3469
  788MOL0     H 6323   8.420   5.739   5.314  2.2126  1.9976  1.5009
  788MOL0     H 6324   8.587   5.666   5.338 -0.6106 -0.6311  0.6087
  788MOL0     H 6325   8.570   5.605   5.091  0.4223  0.2010  0.8333
  788MOL0     H 6326   8.427   5.703   5.079  0.0929  0.9442  0.2430
  788MOL0     H 6327   8.646   5.813   5.027 -2.4150  0.8579 -1.1756
  788MOL0     H 6328   8.673   5.818   5.207 -2.1381  4.3924  1.5277
  788MOL0     H 6329   8.463   5.947   5.230 -2.2203 -3.7965 -0.5788
  788MOL0     H 6330   8.599   6.028   5.142 -1.3079  1.1142 -0.9822
  788MOL0     H 6331   8.524   6.002   4.828  0.2071  2.2972  1.7309
  788MOL0     H 6332   8.365   5.963   4.643  0.0166  1.4313 -1.8658
  788MOL0     H 6333   8.188   5.968   4.673 -0.4455 -1.1960  3.7510
  788MOL0     H 6334   8.278   6.214   4.765  1.1980  1.4430 -1.1621
  788MOL0     H 6335   8.405   6.183   4.666 -0.1537 -2.5007  1.3549
  788MOL0     H 6336   8.235   6.126   4.482  2.9553  0.8382 -0.2587
  788MOL0     H 6337   8.256   6.295   4.522  0.5949  0.4138  1.0698
  788MOL0     H 6338   8.047   6.104   4.646 -1.3190  1.8132  1.1833
  788MOL0     H 6339   8.011   6.218   4.518  0.7827 -2.1421 -0.8387
  788MOL0     H 6340   7.816   6.239   4.576  0.3838  1.5844 -0.7289
  788MOL0     H 6341   7.601   6.348   4.614 -0.0096 -0.7162 -0.1810
  788MOL0     H 6342   7.442   6.536   5.171  1.8011  0.2472 -1.2254
  788MOL0     H 6343   7.254   6.656   5.270  3.5525  0.5832  1.5227
  788MOL0     H 6344   6.988   6.674   5.198 -1.7733  0.3727  1.9428
  788MOL0     H 6345   7.072   6.729   5.332  1.0601 -0.4862 -1.0089
  788MOL0     H 6346   6.839   6.855   5.191 -1.1910  2.9362  1.1357
  788MOL0     H 6347   6.844   6.789   5.359  0.1310 -1.1521 -1.4541
  788MOL0     H 6348   7.031   6.963   5.401  1.2921  1.3369  0.3587
  788MOL0     H 6349   6.961   7.041   5.260  0.7148 -2.7376 -1.9730
  788MOL0     H 6350   6.812   6.957   5.512 -0.1652  0.9424  0.7133
  788MOL0     H 6351   6.742   7.037   5.370 -0.4860 -1.7022  0.5324
  788MOL0     H 6352   6.899   7.229   5.411 -1.9625 -1.0275 -0.3992
  788MOL0     H 6353   6.950   7.145   5.555  2.1216 -0.0469 -1.7433
  788MOL0     H 6354   6.655   7.208   5.521 -0.0351 -0.5978 -0.8245
  788MOL0     H 6355   6.741   7.154   5.663 -1.8694  1.9346  2.4052
  788MOL0     H 6356   6.720   7.437   5.548  0.8723 -0.9854 -2.0411
  788MOL0     H 6357   6.881   7.379   5.604 -0.6274  0.8311 -1.6379
  788MOL0     H 6358   6.612   7.409   5.750  0.2545  0.0597  2.8692
  788MOL0     H 6359   6.760   7.325   5.806 -0.1951 -0.9071 -1.7712
  788MOL0     H 6360   7.213   6.894   4.916  1.4887  2.7070  1.4224
  788MOL0     H 6361   7.406   6.758   4.804 -0.7715 -1.3232 -1.3625
  788MOL0     H 6362   7.780   6.606   4.911 -0.5502  0.7016  0.4452
  788MOL0     H 6363   7.993   6.503   4.866  0.3376  0.4980 -0.7727
  788MOL0     H 6364   8.100   5.136   5.566  1.5650 -1.2564  0.9772
  788MOL0     H 6365   7.857   5.127   5.582  1.3338 -2.0206  2.4199
  788MOL0     H 6366   7.498   5.072   5.916 -1.8749 -1.1385  0.5471
  788MOL0     H 6367   7.256   5.036   5.928 -2.4647 -1.0602 -2.2209
  788MOL0     H 6368   6.950   5.287   5.719 -4.8858 -2.3826  0.8809
  788MOL0     H 6369   7.027   5.345   5.859  1.6876 -2.7770  3.2381
  788MOL0     H 6370   6.852   5.108   5.877 -1.0515  0.6551 -0.1401
  788MOL0     H 6371   6.794   5.277   5.886 -0.3624 -2.1349  0.8345
  788MOL0     H 6372   6.959   5.322   6.068 -1.3232 -0.4392  1.5095
  788MOL0     H 6373   6.991   5.146   6.063  2.8647  0.7965 -1.3679
  788MOL0     H 6374   6.746   5.299   6.127  2.4048  1.6225 -0.0592
  788MOL0     H 6375   6.740   5.115   6.114  0.5074 -1.4116  2.3392
  788MOL0     H 6376   6.880   5.209   6.509  3.4193  1.0349  0.1470
  788MOL0     H 6377   7.194   5.378   5.694 -0.0074  0.9879  0.7709
  788MOL0     H 6378   7.450   5.430   5.549  4.2708 -0.9918 -0.1024
  788MOL0     H 6379   7.350   5.527   5.658  0.6041 -0.3109 -2.0158
  788MOL0     H 6380   7.526   5.507   5.688 -1.1174 -0.1324  2.9874
  789MOL0     O 6381   4.504   4.268   9.356  0.8166 -0.0812 -0.1114
  789MOL0     C 6382   4.452   4.223   9.461 -1.4679 -0.4703 -0.0590
  789MOL0     O 6383   4.520   4.177   9.561 -0.2989 -0.4209 -0.7964
  789MOL0     C 6384   4.649   4.218   9.580 -0.6769  0.1007 -0.1158
  789MOL0     C 6385   4.685   4.267   9.706 -0.4460  0.3415  0.8989
  789MOL0     C 6386   4.810   4.333   9.733  0.4492  0.2298  0.7904
  789MOL0     C 6387   4.910   4.316   9.647 -1.1646  0.5188  0.7361
  789MOL0     O 6388   5.031   4.355   9.687 -0.3680 -0.1293  0.6700
  789MOL0     C 6389   5.111   4.409   9.583 -0.3352 -0.4898 -0.2783
  789MOL0     C 6390   5.232   4.483   9.637  0.1827 -0.3722 -0.4381
  789MOL0     C 6391   5.352   4.389   9.693  1.3778  0.1680  0.1629
  789MOL0     C 6392   5.439   4.319   9.582  0.9908  0.5044 -0.9263
  789MOL0     C 6393   5.550   4.226   9.633 -0.4318 -0.1276  0.3683
  789MOL0     C 6394   5.492   4.120   9.737 -0.3402  0.5246 -0.0807
  789MOL0     C 6395   5.368   4.044   9.684  0.0810  0.0576  0.1536
  789MOL0     C 6396   5.274   3.998   9.799  0.5833  0.1441 -0.6960
  789MOL0     N 6397   5.159   3.926   9.740 -0.6512 -0.3402 -0.3218
  789MOL0     C 6398   5.068   3.984   9.652 -0.3076 -0.0176 -1.0703
  789MOL0     C 6399   5.016   3.878   9.588  0.0247  0.4913 -0.2195
  789MOL0     C 6400   4.910   3.879   9.483 -0.2158 -0.2129  0.0972
  789MOL0     C 6401   4.773   3.861   9.544 -0.9564 -0.5980 -0.0443
  789MOL0     C 6402   4.737   3.733   9.626  0.1812  0.3495 -0.3674
  789MOL0     C 6403   4.604   3.764   9.706 -0.4207  1.0607  0.0224
  789MOL0     O 6404   4.496   3.778   9.614  0.3746  0.1842 -0.7815
  789MOL0     C 6405   4.378   3.814   9.674  0.0240  0.3101  0.1043
  789MOL0     C 6406   4.343   3.793   9.804  0.5627  0.2273  0.4259
  789MOL0     C 6407   4.212   3.811   9.850  0.1678 -0.8499  0.0066
  789MOL0     C 6408   4.106   3.846   9.762  0.3194 -0.7219  0.5779
  789MOL0     C 6409   3.966   3.876   9.812 -0.4398  0.2568  0.5743
  789MOL0     O 6410   3.916   3.800   9.919 -0.1937 -0.0479 -0.3694
  789MOL0     C 6411   3.782   3.798   9.957  0.6318  0.0661 -0.3595
  789MOL0     C 6412   3.756   3.734  10.084  0.2762  0.3894  0.1762
  789MOL0     C 6413   3.630   3.718  10.140  0.0959 -0.2754 -0.2914
  789MOL0     C 6414   3.510   3.757  10.062  0.5646  0.0738  0.1707
  789MOL0     O 6415   3.379   3.736  10.111 -0.3855 -0.8428 -0.3038
  789MOL0     C 6416   3.357   3.689  10.242 -0.1486 -0.3599 -0.5051
  789MOL0     C 6417   3.204   3.681  10.281 -0.1511  1.1004 -0.2020
  789MOL0     C 6418   3.140   3.593  10.173  0.1816 -0.5471 -0.4832
  789MOL0     C 6419   3.017   3.512  10.224 -0.7502 -0.4335 -0.2772
  789MOL0     C 6420   2.978   3.385  10.153 -0.4584 -1.1813 -0.1468
  789MOL0     C 6421   3.051   3.264  10.220  0.3725 -0.2159  0.0139
  789MOL0     C 6422   3.027   3.141  10.148 -0.5892  0.7200 -0.1155
  789MOL0     C 6423   3.082   3.023  10.236  0.1816 -0.3435  0.9439
  789MOL0    Cl 6424   2.946   2.944  10.320 -0.1595 -0.0951  0.2090
  789MOL0     C 6425   3.537   3.827   9.946  0.3565 -0.3015 -0.3929
  789MOL0     C 6426   3.668   3.845   9.891  0.2948  0.4051  0.0167
  789MOL0     O 6427   3.898   3.953   9.744 -0.0254  0.3529  0.1326
  789MOL0     C 6428   4.145   3.860   9.628 -0.2823  1.2281  0.5699
  789MOL0     C 6429   4.276   3.848   9.586  0.2873  1.0329  0.3686
  789MOL0     N 6430   5.063   3.754   9.642  0.1366 -0.1718 -0.2847
  789MOL0     N 6431   5.154   3.785   9.738  0.1336 -0.1873 -0.4060
  789MOL0     C 6432   4.876   4.250   9.520 -0.2693  1.0799  0.2763
  789MOL0     C 6433   4.754   4.207   9.481  0.7283  0.2792  0.2887
  789MOL0     C 6434   4.304   4.214   9.461 -0.5402 -0.6222 -0.6404
  789MOL0     C 6435   4.234   4.205   9.337  0.2176 -0.4793  0.0591
  789MOL0     C 6436   4.088   4.187   9.331 -0.5199 -0.4539 -0.0158
  789MOL0     C 6437   4.019   4.187   9.448  0.6771 -0.4464  1.1421
  789MOL0     O 6438   3.884   4.195   9.447  1.1480  0.0897 -0.2063
  789MOL0     C 6439   3.814   4.123   9.342  0.2144  0.4766 -0.0166
  789MOL0     C 6440   3.659   4.106   9.379 -0.1178 -0.4452 -0.0523
  789MOL0     C 6441   3.647   4.010   9.498  0.0087 -0.5216  0.6842
  789MOL0     C 6442   3.517   3.925   9.486 -0.6024 -0.8447  0.0292
  789MOL0     C 6443   3.399   4.012   9.506 -0.4687 -0.5489  0.9842
  789MOL0     C 6444   3.313   4.089   9.524 -0.0588  0.2062  0.1042
  789MOL0     C 6445   4.085   4.199   9.571 -0.1012  0.3859 -0.5645
  789MOL0     C 6446   4.228   4.198   9.584 -0.8971  0.3840  0.1662
  789MOL0     C 6447   4.288   4.192   9.722  0.0435  0.2632 -0.4344
  789MOL0     H 6448   4.611   4.277   9.785 -1.2188 -4.3362  1.0678
  789MOL0     H 6449   4.813   4.404   9.815 -1.7373  1.5535 -0.2156
  789MOL0     H 6450   5.143   4.327   9.519  1.7374 -0.1557  0.2513
  789MOL0     H 6451   5.058   4.484   9.524  1.4177 -1.0328 -2.6780
  789MOL0     H 6452   5.197   4.543   9.722  0.8301 -0.8725  0.1876
  789MOL0     H 6453   5.266   4.550   9.557 -0.0969  0.7578  0.3628
  789MOL0     H 6454   5.302   4.318   9.759 -0.1121  1.5494  0.5758
  789MOL0     H 6455   5.417   4.447   9.759 -1.4025  2.2079  1.3329
  789MOL0     H 6456   5.374   4.257   9.519  0.6741 -0.1282  0.0013
  789MOL0     H 6457   5.478   4.400   9.520  0.7146  2.1795  0.9633
  789MOL0     H 6458   5.594   4.177   9.545 -3.1482 -1.6103 -0.2874
  789MOL0     H 6459   5.622   4.294   9.678 -2.0354  1.6552  0.3737
  789MOL0     H 6460   5.569   4.047   9.765 -1.2856 -0.1848  0.7417
  789MOL0     H 6461   5.470   4.181   9.825  0.7359  0.5650  0.1760
  789MOL0     H 6462   5.393   3.959   9.620 -2.0817  1.8092 -3.2948
  789MOL0     H 6463   5.313   4.099   9.607  1.0388  1.1515  0.2284
  789MOL0     H 6464   5.323   3.927   9.865  0.3049 -0.9319 -1.6096
  789MOL0     H 6465   5.241   4.087   9.853  2.4372  1.3436 -1.4366
  789MOL0     H 6466   5.066   4.089   9.624  1.2169 -0.3323 -2.4877
  789MOL0     H 6467   4.917   3.971   9.424  0.1731 -1.3373 -1.6936
  789MOL0     H 6468   4.935   3.788   9.427  1.2385  0.0362  0.3251
  789MOL0     H 6469   4.752   3.949   9.606 -0.6590 -1.1879  0.9177
  789MOL0     H 6470   4.707   3.862   9.457  0.7882  2.7793 -1.5664
  789MOL0     H 6471   4.819   3.712   9.696 -0.0698  0.0271 -0.1652
  789MOL0     H 6472   4.719   3.645   9.563  1.4924 -0.3856  0.2344
  789MOL0     H 6473   4.612   3.851   9.772 -0.6657  0.6023  0.6673
  789MOL0     H 6474   4.584   3.686   9.780  0.7158  0.7482  0.0166
  789MOL0     H 6475   4.405   3.761   9.887 -3.4135 -3.9038  2.2434
  789MOL0     H 6476   4.191   3.809   9.957  0.8021 -1.0100  0.1319
  789MOL0     H 6477   3.843   3.687  10.126 -1.2150 -2.5682  0.1926
  789MOL0     H 6478   3.629   3.672  10.238  0.8524 -3.2379 -1.5608
  789MOL0     H 6479   3.403   3.591  10.255 -1.7960 -1.0017  0.7094
  789MOL0     H 6480   3.404   3.762  10.309 -0.7797 -0.7956  0.4280
  789MOL0     H 6481   3.196   3.643  10.383 -0.3921  0.2032 -0.5429
  789MOL0     H 6482   3.160   3.781  10.275  1.2634  1.7417 -0.4754
  789MOL0     H 6483   3.101   3.643  10.083 -4.0374 -4.3084 -1.0918
  789MOL0     H 6484   3.218   3.523  10.140  1.5311  0.2213  0.9287
  789MOL0     H 6485   2.929   3.573  10.203  0.1632  0.6391 -1.0878
  789MOL0     H 6486   3.021   3.498  10.332  1.1911  2.0255  0.0599
  789MOL0     H 6487   2.998   3.381  10.046 -0.7178 -3.6984 -0.1737
  789MOL0     H 6488   2.869   3.372  10.159 -0.4631 -1.4087 -0.7382
  789MOL0     H 6489   3.158   3.286  10.211 -0.0127  1.5176 -0.8169
  789MOL0     H 6490   3.018   3.260  10.325 -3.1971  3.2025 -0.7308
  789MOL0     H 6491   3.086   3.144  10.056 -0.2924  0.0486  0.0424
  789MOL0     H 6492   2.923   3.118  10.122 -1.0969  2.2833  0.4483
  789MOL0     H 6493   3.120   2.943  10.171 -4.0126 -0.0615 -2.2143
  789MOL0     H 6494   3.155   3.058  10.310  0.2306 -1.8071  1.6184
  789MOL0     H 6495   3.455   3.859   9.882 -0.2502  0.5455  0.7749
  789MOL0     H 6496   3.684   3.898   9.798  1.6530  1.0081  0.5531
  789MOL0     H 6497   4.066   3.874   9.555 -0.0454 -1.5374 -0.3579
  789MOL0     H 6498   4.285   3.853   9.477 -0.9809 -1.5350  0.0706
  789MOL0     H 6499   4.949   4.226   9.443 -2.1118  3.0155 -2.2365
  789MOL0     H 6500   4.745   4.160   9.384 -1.4444  0.0197  0.5645
  789MOL0     H 6501   4.286   4.211   9.242 -1.1612 -1.6328 -0.8329
  789MOL0     H 6502   4.034   4.185   9.237  0.3734 -3.2898 -0.5741
  789MOL0     H 6503   3.858   4.030   9.305  1.7899  0.7471  1.0661
  789MOL0     H 6504   3.806   4.186   9.253 -0.4316 -1.9189 -1.7671
  789MOL0     H 6505   3.609   4.066   9.290 -1.2291  2.7252 -1.0039
  789MOL0     H 6506   3.626   4.208   9.401  3.3520  1.4585 -2.6475
  789MOL0     H 6507   3.643   4.057   9.597  0.0161  0.7423  0.0991
  789MOL0     H 6508   3.735   3.946   9.497 -0.0462 -0.5923 -0.6274
  789MOL0     H 6509   3.519   3.871   9.391  2.0677 -1.2576  0.2534
  789MOL0     H 6510   3.516   3.849   9.564  1.7692 -3.7207 -2.5116
  789MOL0     H 6511   3.233   4.161   9.528 -0.7669 -0.4535 -1.4139
  789MOL0     H 6512   4.034   4.222   9.664  2.6395 -0.0389  1.1430
  789MOL0     H 6513   4.328   4.094   9.748  0.7928  0.5070 -0.6356
  789MOL0     H 6514   4.363   4.269   9.742 -0.6918  0.5188  1.6174
  789MOL0     H 6515   4.211   4.212   9.796 -0.7218 -1.3278 -0.7624
  790MOL0     O 6516   2.771   8.851   1.849  0.4171 -0.5168  0.0711
  790MOL0     C 6517   2.673   8.868   1.924 -0.2820  0.1310  0.7054
  790MOL0     O 6518   2.622   8.775   2.017  0.5306  0.5183 -0.2994
  790MOL0     C 6519   2.687   8.659   2.057 -0.3208 -0.2240  0.1805
  790MOL0     C 6520   2.609   8.550   2.095  0.4941  0.2012  0.4122
  790MOL0     C 6521   2.659   8.430   2.143 -0.0737  0.2272  0.0765
  790MOL0     C 6522   2.793   8.406   2.141  0.1576 -1.2145  0.5723
  790MOL0     O 6523   2.847   8.288   2.188 -0.6292 -0.8244  0.1088
  790MOL0     C 6524   2.899   8.213   2.082 -0.0924  0.3086  0.0220
  790MOL0     C 6525   2.983   8.093   2.135  0.4801  0.7174  0.3138
  790MOL0     C 6526   3.122   8.136   2.186 -0.4731 -0.0146  0.2481
  790MOL0     C 6527   3.164   8.044   2.311  0.3937 -0.1678  0.1505
  790MOL0     C 6528   3.305   8.091   2.357  0.4181 -0.5112 -0.8035
  790MOL0     C 6529   3.350   8.008   2.476 -0.4199 -1.1112 -0.4172
  790MOL0     C 6530   3.375   7.856   2.437  0.3159 -1.1532  0.3134
  790MOL0     C 6531   3.349   7.760   2.549 -0.3053  0.0355 -0.0006
  790MOL0     N 6532   3.457   7.760   2.654 -0.0073 -0.7090  0.6228
  790MOL0     C 6533   3.453   7.845   2.752  0.4155 -0.4622  0.3927
  790MOL0     C 6534   3.557   7.809   2.833  0.3381  0.3170 -0.5191
  790MOL0     C 6535   3.615   7.868   2.969 -0.5567  0.4290 -0.7308
  790MOL0     C 6536   3.549   7.790   3.090  0.2393  0.2525 -0.5925
  790MOL0     C 6537   3.608   7.647   3.110 -0.9505  0.3578 -0.5938
  790MOL0     C 6538   3.750   7.655   3.168 -0.2893  0.2973 -0.1855
  790MOL0     O 6539   3.773   7.774   3.254  0.2671 -1.0040  0.1896
  790MOL0     C 6540   3.900   7.820   3.265 -0.3445  0.5859  0.2986
  790MOL0     C 6541   3.954   7.836   3.387 -0.2094  0.5357 -0.3530
  790MOL0     C 6542   4.081   7.887   3.411 -0.3901  0.9968 -0.4090
  790MOL0     C 6543   4.166   7.912   3.306  0.4964  0.3896 -0.1707
  790MOL0     C 6544   4.312   7.959   3.323  0.5538 -0.2702  0.2106
  790MOL0     O 6545   4.373   7.965   3.206 -0.6642 -0.0410 -0.2050
  790MOL0     C 6546   4.504   7.998   3.204  0.2197  0.8502  0.2375
  790MOL0     C 6547   4.538   8.122   3.158 -0.1710 -0.5272 -0.7350
  790MOL0     C 6548   4.665   8.182   3.161  0.5787  0.1045  0.5589
  790MOL0     C 6549   4.769   8.107   3.203 -0.9307 -0.8125 -0.0935
  790MOL0     O 6550   4.894   8.169   3.210  0.9250  0.0513 -0.2747
  790MOL0     C 6551   5.016   8.089   3.232  0.4882  0.2174 -0.1512
  790MOL0     C 6552   5.138   8.169   3.196  1.5147  0.2358  0.5656
  790MOL0     C 6553   5.272   8.091   3.192  0.4938  0.1990  0.4169
  790MOL0     C 6554   5.387   8.164   3.128  0.0010  0.0822  0.3223
  790MOL0     C 6555   5.526   8.094   3.121 -0.4777 -0.0046  0.5612
  790MOL0     C 6556   5.598   8.123   2.991 -0.2380  1.3085  0.6316
  790MOL0     C 6557   5.613   8.273   2.974  0.1795  0.4806  0.6972
  790MOL0     C 6558   5.659   8.308   2.826  0.6676  1.2029 -0.0940
  790MOL0    Cl 6559   5.506   8.280   2.731  0.1021 -0.1509 -0.1244
  790MOL0     C 6560   4.746   7.977   3.245 -0.7685 -0.2128 -1.0801
  790MOL0     C 6561   4.613   7.928   3.249 -0.0251  0.5074 -0.7226
  790MOL0     O 6562   4.365   7.974   3.430  0.3987  0.2859  0.4838
  790MOL0     C 6563   4.110   7.905   3.181 -0.1814 -0.3459  0.7592
  790MOL0     C 6564   3.979   7.857   3.163 -0.9197  0.2458  0.6099
  790MOL0     N 6565   3.617   7.695   2.774 -0.0994 -0.3636  0.1462
  790MOL0     N 6566   3.557   7.677   2.662  0.1155 -0.9381  0.9816
  790MOL0     C 6567   2.878   8.515   2.100  0.3849 -0.0972 -0.7244
  790MOL0     C 6568   2.831   8.638   2.057  0.6448  0.3674  1.0147
  790MOL0     C 6569   2.588   8.994   1.898 -0.4462  0.3997  0.0482
  790MOL0     C 6570   2.449   8.988   1.917  0.5459 -0.2712 -0.2009
  790MOL0     C 6571   2.354   9.086   1.888 -0.5839 -1.3699  0.1538
  790MOL0     C 6572   2.401   9.207   1.836 -0.0348 -0.1079 -0.1665
  790MOL0     O 6573   2.322   9.318   1.819 -0.1410 -0.6880 -0.4410
  790MOL0     C 6574   2.181   9.309   1.850  0.0598 -0.2684 -0.0693
  790MOL0     C 6575   2.123   9.452   1.824 -0.3473 -0.4516  0.1187
  790MOL0     C 6576   1.968   9.460   1.801  0.0684 -0.6464 -0.4602
  790MOL0     C 6577   1.892   9.410   1.919 -0.2298  0.6223  0.0172
  790MOL0     C 6578   1.867   9.514   2.015 -1.2177  0.2938 -1.1036
  790MOL0     C 6579   1.851   9.591   2.107  0.4692  0.2443  0.4132
  790MOL0     C 6580   2.537   9.212   1.807  0.0032  0.3338 -0.1217
  790MOL0     C 6581   2.631   9.116   1.840  0.4743  0.1458  0.1528
  790MOL0     C 6582   2.775   9.128   1.789  0.0867  0.3232  1.0009
  790MOL0     H 6583   2.502   8.566   2.085  0.3999 -0.2797  0.5813
  790MOL0     H 6584   2.596   8.349   2.180  0.2874  0.4156  1.1155
  790MOL0     H 6585   2.820   8.174   2.017  1.2965  0.0277 -1.5857
  790MOL0     H 6586   2.963   8.270   2.014  0.5855  0.2618  0.6095
  790MOL0     H 6587   2.995   8.026   2.050 -0.6052  0.0463  0.6543
  790MOL0     H 6588   2.933   8.045   2.220 -0.4514  2.7312  0.9779
  790MOL0     H 6589   3.126   8.241   2.216  1.3227 -0.0640  0.3207
  790MOL0     H 6590   3.190   8.128   2.100  1.4869  0.9853  1.6179
  790MOL0     H 6591   3.103   8.061   2.400  2.7326 -1.2573  2.0596
  790MOL0     H 6592   3.156   7.940   2.280  1.1941 -0.2062  0.0415
  790MOL0     H 6593   3.382   8.084   2.280  1.5987 -0.7560  0.3734
  790MOL0     H 6594   3.306   8.198   2.380  2.4222 -1.1116  2.3761
  790MOL0     H 6595   3.442   8.054   2.511 -0.9583  0.4408 -0.9429
  790MOL0     H 6596   3.273   8.016   2.554  0.4210 -1.0422  0.4163
  790MOL0     H 6597   3.478   7.837   2.407  0.3010 -0.1782 -0.3921
  790MOL0     H 6598   3.314   7.831   2.350 -3.0460 -0.7447  2.3565
  790MOL0     H 6599   3.256   7.774   2.605 -0.4759  2.6553 -0.8172
  790MOL0     H 6600   3.357   7.656   2.518 -1.8907 -0.3339  0.7256
  790MOL0     H 6601   3.385   7.926   2.774  1.9365 -0.1628  5.1904
  790MOL0     H 6602   3.722   7.848   2.973 -0.8566 -1.0997  2.0402
  790MOL0     H 6603   3.608   7.977   2.964  3.4155  0.9024  0.3299
  790MOL0     H 6604   3.554   7.847   3.183  1.4921  1.5133 -1.3923
  790MOL0     H 6605   3.440   7.786   3.081 -0.3037  3.7107  2.2327
  790MOL0     H 6606   3.608   7.588   3.017 -2.1096 -2.2945  0.9778
  790MOL0     H 6607   3.538   7.604   3.181 -0.9150  2.9068  1.0923
  790MOL0     H 6608   3.819   7.656   3.083 -0.3507  3.1004 -0.3024
  790MOL0     H 6609   3.765   7.564   3.226  2.6298 -1.1819 -2.9325
  790MOL0     H 6610   3.894   7.812   3.475 -0.2105 -1.2955 -0.8172
  790MOL0     H 6611   4.118   7.892   3.513 -0.1503 -1.0644 -0.3440
  790MOL0     H 6612   4.448   8.176   3.127 -0.8243 -0.4558  1.1552
  790MOL0     H 6613   4.681   8.279   3.115 -0.6967 -0.0775 -0.3282
  790MOL0     H 6614   5.028   8.068   3.339  1.7542  1.8336  0.0676
  790MOL0     H 6615   4.996   8.005   3.165 -5.1362  0.9862  0.0823
  790MOL0     H 6616   5.121   8.211   3.096 -0.2643  1.7491  1.4320
  790MOL0     H 6617   5.146   8.250   3.269 -2.7273 -1.3912  3.2133
  790MOL0     H 6618   5.310   8.066   3.292 -1.2439  2.2352  1.6808
  790MOL0     H 6619   5.253   8.000   3.135  1.9091  0.8126 -1.1345
  790MOL0     H 6620   5.386   8.256   3.188  1.4276 -1.0562  2.1799
  790MOL0     H 6621   5.356   8.189   3.025  0.9092 -2.9656 -0.7837
  790MOL0     H 6622   5.507   7.988   3.137 -3.3676  0.2808 -0.3509
  790MOL0     H 6623   5.584   8.128   3.207  0.9103 -0.7471 -0.0558
  790MOL0     H 6624   5.696   8.074   2.989 -0.5851  0.6065 -0.5830
  790MOL0     H 6625   5.543   8.072   2.911 -1.5399  1.6887  1.2618
  790MOL0     H 6626   5.695   8.298   3.042 -0.2765  0.4996  1.2434
  790MOL0     H 6627   5.521   8.328   2.994 -1.6755 -1.5249 -1.5216
  790MOL0     H 6628   5.696   8.411   2.831  0.4636  1.2044  2.5801
  790MOL0     H 6629   5.738   8.242   2.791 -2.7322 -2.3707 -1.8067
  790MOL0     H 6630   4.815   7.902   3.283 -1.2079 -0.3870 -0.6230
  790MOL0     H 6631   4.590   7.833   3.296 -1.4461  0.5699 -1.2394
  790MOL0     H 6632   4.166   7.935   3.093 -3.6893  0.5246 -1.3888
  790MOL0     H 6633   3.949   7.858   3.058  3.9180  0.9370 -1.0134
  790MOL0     H 6634   2.982   8.486   2.099  0.0683 -1.2932 -0.1074
  790MOL0     H 6635   2.902   8.718   2.039  2.0554 -1.4427 -2.2592
  790MOL0     H 6636   2.413   8.891   1.951  2.2387 -1.5650 -1.8722
  790MOL0     H 6637   2.250   9.075   1.918 -0.9592 -0.5679 -0.7800
  790MOL0     H 6638   2.179   9.292   1.958 -1.0210 -2.6092 -0.3885
  790MOL0     H 6639   2.132   9.228   1.796  3.9549 -2.3215 -0.9283
  790MOL0     H 6640   2.166   9.493   1.732  1.0698 -2.0548  0.0273
  790MOL0     H 6641   2.147   9.519   1.907 -0.4530  0.3211 -0.4541
  790MOL0     H 6642   1.946   9.405   1.709  1.2136 -1.2577 -0.3909
  790MOL0     H 6643   1.943   9.566   1.793  0.8504 -0.1828  2.2147
  790MOL0     H 6644   1.797   9.380   1.874 -0.6022  1.5260  0.1799
  790MOL0     H 6645   1.948   9.326   1.962  1.6367  0.1928 -2.9542
  790MOL0     H 6646   1.826   9.659   2.186  0.0093  2.0376 -1.1892
  790MOL0     H 6647   2.572   9.305   1.764  2.2369  1.0629  2.9401
  790MOL0     H 6648   2.781   9.080   1.690  1.8109 -1.5314  1.9387
  790MOL0     H 6649   2.810   9.231   1.773 -0.9550  0.6258  0.5560
  790MOL0     H 6650   2.847   9.080   1.856  0.4842 -1.0699 -0.3563
  791MOL0     O 6651   9.896   0.167   4.942 -0.2352 -0.1263 -0.6686
  791MOL0     C 6652   9.897   0.226   5.052  0.1515 -0.0501  0.1831
  791MOL0     O 6653   9.788   0.227   5.137 -0.2493  0.2438 -0.1262
  791MOL0     C 6654   9.653   0.210   5.104 -0.6842  0.2071  0.2651
  791MOL0     C 6655   9.601   0.265   4.981  0.6523 -0.0607 -0.6204
  791MOL0     C 6656   9.473   0.238   4.942  0.2272  0.1075 -0.0886
  791MOL0     C 6657   9.389   0.153   5.014  0.1599 -0.2662  0.2824
  791MOL0     O 6658   9.282   0.111   4.943 -0.6091  0.1639  0.3608
  791MOL0     C 6659   9.168   0.102   5.021 -0.6561  0.0031 -0.5568
  791MOL0     C 6660   9.036   0.104   4.940  0.0852 -0.1108 -0.0921
  791MOL0     C 6661   8.913   0.155   5.020 -0.2117 -0.6067 -0.5927
  791MOL0     C 6662   8.784   0.099   4.957  0.8396 -0.0071  0.2497
  791MOL0     C 6663   8.663   0.187   4.982 -0.0966 -0.5608  0.6511
  791MOL0     C 6664   8.638   0.304   4.873 -0.7276  0.0751 -0.0515
  791MOL0     C 6665   8.560   0.418   4.939  1.2236 -0.3972  0.3899
  791MOL0     C 6666   8.410   0.376   4.954 -0.7005  0.5602  0.5803
  791MOL0     N 6667   8.347   0.323   4.827 -0.7908 -0.0107 -0.5455
  791MOL0     C 6668   8.335   0.185   4.813 -0.2229  0.1046  0.1381
  791MOL0     C 6669   8.323   0.179   4.676 -0.1763  0.0829 -0.7749
  791MOL0     C 6670   8.307   0.054   4.597 -0.0931 -0.5357 -0.3037
  791MOL0     C 6671   8.440   0.012   4.535 -0.0985  0.0793  0.0998
  791MOL0     C 6672   8.532  -0.060   4.637 -0.2691 -0.2326 -0.4550
  791MOL0     C 6673   8.665  -0.092   4.570  0.2504 -0.1944 -0.1137
  791MOL0     O 6674   8.740   0.025   4.543  0.6233  0.1825  0.0143
  791MOL0     C 6675   8.874   0.019   4.552  0.1789 -0.5062  0.8740
  791MOL0     C 6676   8.942  -0.097   4.508 -0.1247 -0.1423 -1.2621
  791MOL0     C 6677   9.080  -0.113   4.518 -1.1061  0.0480 -0.0292
  791MOL0     C 6678   9.154  -0.007   4.582 -0.3385  0.1429 -0.6052
  791MOL0     C 6679   9.303  -0.016   4.589 -0.6066 -0.9118 -0.5640
  791MOL0     O 6680   9.365   0.099   4.624 -0.3873 -0.2501  0.3440
  791MOL0     C 6681   9.499   0.103   4.594 -0.3810 -1.3647  0.0765
  791MOL0     C 6682   9.587   0.062   4.699 -0.3758 -0.6914 -0.2058
  791MOL0     C 6683   9.728   0.051   4.677 -0.0557  0.2668  0.2886
  791MOL0     C 6684   9.775   0.082   4.547 -0.2896 -0.1656 -0.5320
  791MOL0     O 6685   9.908   0.089   4.541 -0.3210  0.0536  0.1423
  791MOL0     C 6686   9.952   0.220   4.510 -0.8190 -0.1222  1.3067
  791MOL0     C 6687  10.102   0.233   4.490 -0.4859  0.0981 -0.4503
  791MOL0     C 6688  10.156   0.123   4.407 -0.3873  0.1440 -0.0336
  791MOL0     C 6689  10.297   0.155   4.355  0.1720 -0.7077 -0.0727
  791MOL0     C 6690  10.405   0.167   4.467  0.9517 -0.2736 -0.3597
  791MOL0     C 6691  10.539   0.210   4.417 -0.6148  0.0346  0.3121
  791MOL0     C 6692  10.656   0.199   4.514  0.2080 -0.7317 -0.8124
  791MOL0     C 6693  10.679   0.334   4.582 -0.2418 -0.3959  0.2403
  791MOL0    Cl 6694  10.780   0.437   4.471 -0.0010 -0.1781 -0.2498
  791MOL0     C 6695   9.688   0.132   4.446 -0.0731  0.1987 -0.4747
  791MOL0     C 6696   9.550   0.140   4.477 -0.5696  0.0172 -0.1639
  791MOL0     O 6697   9.359  -0.120   4.573 -0.4967  0.5044  0.4256
  791MOL0     C 6698   9.084   0.112   4.614 -0.0194  0.3749 -0.4809
  791MOL0     C 6699   8.950   0.120   4.606  0.6267 -0.7378 -0.6949
  791MOL0     N 6700   8.318   0.308   4.624 -0.0916  0.0083 -0.5557
  791MOL0     N 6701   8.319   0.395   4.720 -0.6064 -0.1219  0.1019
  791MOL0     C 6702   9.445   0.097   5.131 -0.8182  0.8097 -0.2613
  791MOL0     C 6703   9.576   0.128   5.181  0.6501  0.3456 -0.6388
  791MOL0     C 6704  10.026   0.262   5.102 -0.8899 -0.3552 -0.1380
  791MOL0     C 6705  10.128   0.162   5.101 -1.1693 -0.4896  0.2404
  791MOL0     C 6706  10.251   0.181   5.171  0.2422 -0.7576  0.7576
  791MOL0     C 6707  10.269   0.297   5.247 -0.0212 -0.1513 -0.8786
  791MOL0     O 6708  10.388   0.320   5.307  0.3029  0.4770 -0.3700
  791MOL0     C 6709  10.464   0.418   5.245  0.5045  0.3403 -0.3100
  791MOL0     C 6710  10.569   0.480   5.341  0.1877  0.0625  0.1461
  791MOL0     C 6711  10.490   0.575   5.424 -0.4980  0.0816  0.2065
  791MOL0     C 6712  10.580   0.644   5.527  0.2571  0.1476 -0.3593
  791MOL0     C 6713  10.626   0.779   5.485  0.9232 -0.3747  0.3456
  791MOL0     C 6714  10.668   0.881   5.462  0.0985 -0.2117 -0.6765
  791MOL0     C 6715  10.170   0.398   5.249  0.3897 -0.2562 -1.1478
  791MOL0     C 6716  10.047   0.376   5.183  0.0146  0.0518  0.0185
  791MOL0     C 6717   9.942   0.481   5.198 -0.6993  0.3466  0.1705
  791MOL0     H 6718   9.667   0.326   4.921 -0.5886 -0.9780 -3.0779
  791MOL0     H 6719   9.441   0.276   4.845  1.4398 -0.9415 -0.9434
  791MOL0     H 6720   9.174   0.006   5.073 -0.3266 -0.4092 -1.3522
  791MOL0     H 6721   9.163   0.184   5.094 -0.8262  0.9989 -1.6577
  791MOL0     H 6722   9.019   0.004   4.902 -1.5958 -0.8753  2.4170
  791MOL0     H 6723   9.044   0.164   4.849 -2.7974  0.1135 -0.2794
  791MOL0     H 6724   8.914   0.264   5.021  2.7604 -0.4831 -3.2223
  791MOL0     H 6725   8.916   0.119   5.124  2.1950  2.5166  0.6024
  791MOL0     H 6726   8.790   0.092   4.848  0.9267  1.3303  0.1457
  791MOL0     H 6727   8.763  -0.004   4.984  2.4018  0.0680  1.9577
  791MOL0     H 6728   8.572   0.126   4.992  0.6958 -1.7902  0.5618
  791MOL0     H 6729   8.680   0.224   5.083  1.4872  0.8776 -0.0862
  791MOL0     H 6730   8.736   0.347   4.853  1.9327 -4.5188  1.5737
  791MOL0     H 6731   8.598   0.275   4.775  0.5564  2.3691 -1.3305
  791MOL0     H 6732   8.557   0.516   4.891 -0.7364 -0.1712  0.8688
  791MOL0     H 6733   8.616   0.434   5.031 -1.9985  0.2055  2.4060
  791MOL0     H 6734   8.398   0.300   5.031 -5.0081  3.2127  2.9012
  791MOL0     H 6735   8.364   0.470   4.987 -0.4269  0.6586  0.6853
  791MOL0     H 6736   8.330   0.107   4.889 -3.4352  0.0227 -0.0193
  791MOL0     H 6737   8.269  -0.026   4.661 -0.3542 -0.0279  0.1852
  791MOL0     H 6738   8.230   0.082   4.525 -0.3871  2.5507  1.0333
  791MOL0     H 6739   8.413  -0.060   4.457  1.2111  0.9302 -1.1949
  791MOL0     H 6740   8.485   0.100   4.488  2.8775 -0.1500  2.2717
  791MOL0     H 6741   8.480  -0.147   4.678 -1.4201  0.0009 -1.3701
  791MOL0     H 6742   8.559   0.006   4.720  0.9401 -0.7054 -0.4616
  791MOL0     H 6743   8.654  -0.139   4.473  1.8580 -1.2550  0.1733
  791MOL0     H 6744   8.711  -0.166   4.637  0.2457 -1.5011 -1.5143
  791MOL0     H 6745   8.892  -0.183   4.466 -2.2904  2.0531 -3.5528
  791MOL0     H 6746   9.124  -0.204   4.478 -1.1225  0.3789 -0.8086
  791MOL0     H 6747   9.547   0.041   4.798 -2.4884  1.1985 -0.5774
  791MOL0     H 6748   9.805   0.031   4.751 -1.2214 -1.4653  1.1096
  791MOL0     H 6749   9.899   0.248   4.418  0.2719 -2.7802 -0.2677
  791MOL0     H 6750   9.930   0.295   4.586  1.6137  1.5031  0.5381
  791MOL0     H 6751  10.120   0.324   4.433  2.0507 -1.3385 -2.1188
  791MOL0     H 6752  10.153   0.237   4.587 -2.0836  2.0086  0.3851
  791MOL0     H 6753  10.157   0.037   4.475 -0.4768 -0.5512 -0.8795
  791MOL0     H 6754  10.085   0.103   4.325 -1.6304 -0.9551  1.2589
  791MOL0     H 6755  10.299   0.249   4.298  1.0098 -0.5896  0.1319
  791MOL0     H 6756  10.332   0.072   4.293  1.3065 -2.1154  2.2934
  791MOL0     H 6757  10.424   0.070   4.515  0.1129 -0.1110  0.3249
  791MOL0     H 6758  10.365   0.241   4.537  1.3922  2.1610 -2.5721
  791MOL0     H 6759  10.573   0.134   4.346  0.3074  0.6028  0.1392
  791MOL0     H 6760  10.533   0.308   4.368 -1.7719  0.3947  1.1154
  791MOL0     H 6761  10.753   0.180   4.466 -0.2798 -4.6146 -0.5623
  791MOL0     H 6762  10.637   0.126   4.593  1.3317 -1.2541 -1.0061
  791MOL0     H 6763  10.583   0.375   4.614  0.0517  1.5866 -1.1725
  791MOL0     H 6764  10.735   0.312   4.673 -1.6254 -1.3802  0.8762
  791MOL0     H 6765   9.725   0.154   4.347 -0.4753 -1.2853 -0.9750
  791MOL0     H 6766   9.475   0.165   4.403 -2.1114 -1.1990  0.9289
  791MOL0     H 6767   9.138   0.195   4.658 -0.5347  0.8558 -0.7542
  791MOL0     H 6768   8.904   0.209   4.649  2.7196  0.0642  0.0152
  791MOL0     H 6769   9.379   0.027   5.182 -1.2353  0.8723 -0.7077
  791MOL0     H 6770   9.611   0.073   5.268 -2.9615 -3.1249 -1.0993
  791MOL0     H 6771  10.128   0.065   5.052 -5.6436 -1.5167  1.7826
  791MOL0     H 6772  10.326   0.102   5.167  1.0268  0.0275 -0.3255
  791MOL0     H 6773  10.402   0.502   5.212  0.7977  0.4182 -0.6643
  791MOL0     H 6774  10.514   0.372   5.159 -0.8273 -2.6059  0.3631
  791MOL0     H 6775  10.654   0.518   5.284 -1.5927 -0.1330 -2.8845
  791MOL0     H 6776  10.612   0.400   5.401 -1.7767 -0.4353  0.9551
  791MOL0     H 6777  10.418   0.517   5.482  0.0634  0.6315  1.4923
  791MOL0     H 6778  10.443   0.655   5.366  0.6375  0.6463  0.0362
  791MOL0     H 6779  10.529   0.640   5.623 -1.2813 -2.4033 -1.1733
  791MOL0     H 6780  10.663   0.574   5.544 -0.8633 -0.6710  2.2256
  791MOL0     H 6781  10.706   0.981   5.456 -0.2203 -0.1379 -1.6219
  791MOL0     H 6782  10.182   0.482   5.317  1.2931 -1.8151  0.7476
  791MOL0     H 6783   9.887   0.492   5.104 -1.3922  0.5895  0.6017
  791MOL0     H 6784   9.870   0.453   5.275 -0.5894 -0.0232  0.1408
  791MOL0     H 6785   9.986   0.580   5.208 -0.2570  0.2903 -1.0218
  792MOL0     O 6786   6.535   4.887   4.132 -0.4186  0.2705  0.8073
  792MOL0     C 6787   6.508   5.004   4.126  0.1604 -0.4949 -0.6299
  792MOL0     O 6788   6.596   5.096   4.095  0.2299  0.0762  0.1380
  792MOL0     C 6789   6.709   5.062   4.029 -0.7392  0.3325 -0.6285
  792MOL0     C 6790   6.699   5.028   3.891  0.6647 -0.1866 -0.5585
  792MOL0     C 6791   6.814   4.993   3.809 -0.1253  0.4849 -0.8495
  792MOL0     C 6792   6.938   4.975   3.874 -0.1448 -0.6222  0.1769
  792MOL0     O 6793   7.049   4.952   3.801 -0.7276 -0.0378 -0.5311
  792MOL0     C 6794   7.027   4.855   3.700  0.5085 -0.3466  0.2973
  792MOL0     C 6795   7.164   4.804   3.656  0.6054  0.6147  0.2062
  792MOL0     C 6796   7.151   4.709   3.533 -0.7745 -0.8161 -0.3591
  792MOL0     C 6797   7.281   4.642   3.489 -0.2265 -0.0929 -0.1390
  792MOL0     C 6798   7.312   4.526   3.592 -0.1642  0.5746 -0.3908
  792MOL0     C 6799   7.453   4.459   3.560  0.0097 -0.6596 -0.7901
  792MOL0     C 6800   7.482   4.345   3.662 -0.0660  0.2495 -0.6172
  792MOL0     C 6801   7.607   4.260   3.620  0.8759  0.0171 -0.5974
  792MOL0     N 6802   7.560   4.154   3.531  0.7880  0.1901 -0.2018
  792MOL0     C 6803   7.448   4.156   3.450 -0.0890  0.2301  0.0753
  792MOL0     C 6804   7.463   4.049   3.364 -0.6333 -0.5208  0.4992
  792MOL0     C 6805   7.365   4.017   3.252  0.6832 -0.5536 -0.9229
  792MOL0     C 6806   7.236   3.943   3.295  0.1127 -0.6594 -0.0757
  792MOL0     C 6807   7.266   3.795   3.292  0.2293  0.5318  0.6226
  792MOL0     C 6808   7.268   3.725   3.144  0.6872 -0.3577  0.2905
  792MOL0     O 6809   7.288   3.582   3.158 -0.1675  0.0658 -0.0431
  792MOL0     C 6810   7.414   3.548   3.188 -0.8069 -0.3424  0.3313
  792MOL0     C 6811   7.516   3.634   3.215  0.4200 -0.1675  0.7310
  792MOL0     C 6812   7.638   3.576   3.258  0.9780 -0.6747  0.5029
  792MOL0     C 6813   7.653   3.438   3.288 -0.4124  0.4983  0.2594
  792MOL0     C 6814   7.775   3.374   3.338  0.2716 -0.5832 -0.3476
  792MOL0     O 6815   7.880   3.447   3.349  0.2036  0.7734 -0.4587
  792MOL0     C 6816   8.004   3.401   3.380 -0.0798 -0.6535 -0.3446
  792MOL0     C 6817   8.072   3.512   3.414  0.7569 -0.0140 -0.4347
  792MOL0     C 6818   8.209   3.504   3.458  0.1728  1.1994 -0.3839
  792MOL0     C 6819   8.277   3.384   3.462  0.1522  0.1281  0.3104
  792MOL0     O 6820   8.401   3.380   3.508  0.5375 -0.0482 -0.1509
  792MOL0     C 6821   8.444   3.252   3.559 -0.1009 -0.1569  1.2180
  792MOL0     C 6822   8.572   3.256   3.641  0.0388 -0.0091 -0.5182
  792MOL0     C 6823   8.664   3.355   3.572 -0.0791 -0.0332  1.1345
  792MOL0     C 6824   8.806   3.345   3.619  0.5709 -0.8871  0.0972
  792MOL0     C 6825   8.884   3.441   3.526  0.0083  0.4646 -0.5004
  792MOL0     C 6826   9.035   3.460   3.579 -0.4659  0.0923 -0.0475
  792MOL0     C 6827   9.101   3.326   3.616  0.0323  0.3357  0.7053
  792MOL0     C 6828   9.250   3.340   3.624 -0.6841 -0.2103 -0.1869
  792MOL0    Cl 6829   9.288   3.476   3.738 -0.5585 -0.1445 -0.1992
  792MOL0     C 6830   8.201   3.266   3.424 -0.3765 -0.5134  0.7208
  792MOL0     C 6831   8.059   3.269   3.390 -0.0057  0.0567  0.6138
  792MOL0     O 6832   7.763   3.257   3.377  0.3224  0.3371 -0.3518
  792MOL0     C 6833   7.539   3.354   3.255 -0.3258  1.1638  0.5288
  792MOL0     C 6834   7.416   3.407   3.216  0.2201 -0.8267 -0.2768
  792MOL0     N 6835   7.587   3.992   3.386 -0.0155  0.4180  0.3519
  792MOL0     N 6836   7.643   4.055   3.486 -0.0655  0.2128 -0.2836
  792MOL0     C 6837   6.946   5.001   4.012 -0.6301  0.6093  0.7354
  792MOL0     C 6838   6.837   5.048   4.091  0.4587  0.1876  0.2238
  792MOL0     C 6839   6.379   5.063   4.155  0.0507 -0.7513  0.6755
  792MOL0     C 6840   6.342   5.173   4.080  0.2157  0.0497 -0.2522
  792MOL0     C 6841   6.211   5.217   4.090  0.7774  0.2142  0.2656
  792MOL0     C 6842   6.124   5.175   4.189  0.5754  1.1854  0.0644
  792MOL0     O 6843   6.010   5.247   4.196  0.3620 -0.5055  0.5949
  792MOL0     C 6844   5.894   5.181   4.252  0.6148  1.1507 -0.1267
  792MOL0     C 6845   5.769   5.227   4.193 -0.0438  0.4712 -0.0177
  792MOL0     C 6846   5.765   5.377   4.214  0.7056 -0.4281 -0.1013
  792MOL0     C 6847   5.628   5.419   4.170 -0.0180 -0.3890 -0.0086
  792MOL0     C 6848   5.596   5.549   4.224 -0.4126  0.0909  0.0985
  792MOL0     C 6849   5.571   5.663   4.260  0.5604  0.0569 -0.2372
  792MOL0     C 6850   6.162   5.067   4.267 -0.6914  0.0333 -0.4611
  792MOL0     C 6851   6.286   5.013   4.246  0.8590  0.5081 -1.1087
  792MOL0     C 6852   6.315   4.885   4.332  0.1964 -0.0305 -0.2461
  792MOL0     H 6853   6.602   5.047   3.846 -0.7591 -0.5857  2.1211
  792MOL0     H 6854   6.793   4.976   3.704 -0.1765  0.9107 -0.9098
  792MOL0     H 6855   6.973   4.767   3.738 -2.1063  1.1556  0.3221
  792MOL0     H 6856   6.972   4.893   3.613  1.0168  2.5736  1.1385
  792MOL0     H 6857   7.207   4.758   3.745  1.5125 -1.0258 -1.0188
  792MOL0     H 6858   7.232   4.882   3.618  1.4178 -0.7992 -1.3636
  792MOL0     H 6859   7.101   4.763   3.452 -1.1633  0.4385  0.6801
  792MOL0     H 6860   7.072   4.635   3.550 -1.4481 -0.1295 -0.4347
  792MOL0     H 6861   7.275   4.609   3.385 -1.7368  2.3106 -0.9056
  792MOL0     H 6862   7.358   4.720   3.483 -1.1447  0.8050 -0.7693
  792MOL0     H 6863   7.316   4.553   3.698  1.7287  2.6386 -0.9029
  792MOL0     H 6864   7.247   4.441   3.571 -0.1180  0.9972 -2.4730
  792MOL0     H 6865   7.451   4.429   3.455  1.7345  0.8750 -1.3049
  792MOL0     H 6866   7.532   4.533   3.575  0.2222 -1.1340  0.6029
  792MOL0     H 6867   7.396   4.280   3.682  1.6544 -1.1361  3.3358
  792MOL0     H 6868   7.513   4.398   3.752 -1.0804  1.3575 -0.9069
  792MOL0     H 6869   7.683   4.320   3.569  2.0746 -0.8698  0.0967
  792MOL0     H 6870   7.662   4.228   3.709 -2.8134  0.0191  1.9209
  792MOL0     H 6871   7.365   4.225   3.458 -0.2839  0.2507 -1.6964
  792MOL0     H 6872   7.336   4.110   3.202  0.3546  0.3246  0.8189
  792MOL0     H 6873   7.424   3.960   3.180  0.7456 -0.3913 -1.0015
  792MOL0     H 6874   7.219   3.967   3.400  0.7276 -1.7819  0.3098
  792MOL0     H 6875   7.151   3.974   3.234  0.9912  2.8288  0.2495
  792MOL0     H 6876   7.186   3.741   3.342  2.7294 -3.5243  0.7136
  792MOL0     H 6877   7.360   3.766   3.341  0.9217 -0.2241 -1.0639
  792MOL0     H 6878   7.341   3.776   3.080  0.1102  0.9020  0.5917
  792MOL0     H 6879   7.168   3.726   3.099 -0.3930  2.3571  2.4282
  792MOL0     H 6880   7.513   3.741   3.200 -4.6053 -0.0391  0.9669
  792MOL0     H 6881   7.719   3.646   3.273  3.4566 -3.6450  2.0034
  792MOL0     H 6882   8.026   3.610   3.411 -1.1697 -0.8380  0.7025
  792MOL0     H 6883   8.254   3.588   3.511 -0.2669  1.0825  0.1844
  792MOL0     H 6884   8.366   3.206   3.621 -1.4874 -0.0594 -0.3877
  792MOL0     H 6885   8.462   3.183   3.476  1.9868  3.2904 -1.4527
  792MOL0     H 6886   8.543   3.295   3.739 -0.8908 -0.2364 -0.6862
  792MOL0     H 6887   8.615   3.157   3.661  2.5488  1.5543  3.0129
  792MOL0     H 6888   8.658   3.335   3.465 -0.7306 -0.7291  1.2940
  792MOL0     H 6889   8.615   3.450   3.597 -0.5277 -0.4261  1.7918
  792MOL0     H 6890   8.837   3.241   3.607  0.0178 -0.8161 -2.5638
  792MOL0     H 6891   8.818   3.381   3.722 -1.1899  0.8343 -0.2191
  792MOL0     H 6892   8.843   3.542   3.524  0.4909  0.7102 -3.8227
  792MOL0     H 6893   8.892   3.398   3.426 -1.6185  0.3760 -0.6301
  792MOL0     H 6894   9.090   3.519   3.506 -1.0501 -0.5926 -1.0678
  792MOL0     H 6895   9.032   3.508   3.678 -0.9217 -3.5217  1.8460
  792MOL0     H 6896   9.071   3.253   3.540  4.1356  0.0322 -0.8958
  792MOL0     H 6897   9.064   3.291   3.712 -3.1215  2.7229  0.5048
  792MOL0     H 6898   9.285   3.248   3.673  1.2218  0.2203 -0.6819
  792MOL0     H 6899   9.287   3.364   3.524  0.8450  1.1352  0.6446
  792MOL0     H 6900   8.264   3.178   3.415  0.7635  0.3667 -0.2467
  792MOL0     H 6901   7.996   3.184   3.369  1.7211 -0.9740 -0.6767
  792MOL0     H 6902   7.562   3.249   3.264 -2.6470  0.7389  2.5672
  792MOL0     H 6903   7.324   3.354   3.195  0.6451 -0.9740 -1.9224
  792MOL0     H 6904   7.043   4.999   4.061 -0.7819 -1.7055  1.0913
  792MOL0     H 6905   6.846   5.070   4.197  0.5635  0.5296  0.1440
  792MOL0     H 6906   6.411   5.224   4.014 -0.5227  0.4772 -0.7015
  792MOL0     H 6907   6.178   5.299   4.028 -1.2744 -1.4612 -0.9403
  792MOL0     H 6908   5.892   5.202   4.360  0.5439  0.7384 -0.0449
  792MOL0     H 6909   5.889   5.072   4.241 -1.7891  1.2906 -1.0917
  792MOL0     H 6910   5.684   5.174   4.236  0.5078 -0.9633 -0.6586
  792MOL0     H 6911   5.776   5.206   4.086 -1.1872  1.1090 -0.2322
  792MOL0     H 6912   5.836   5.435   4.155  2.3037 -1.2227  0.9772
  792MOL0     H 6913   5.788   5.409   4.316  2.3657  1.0023 -0.8731
  792MOL0     H 6914   5.631   5.440   4.062  1.9061 -0.9396 -0.0954
  792MOL0     H 6915   5.552   5.346   4.201 -0.3943  0.2044  0.4834
  792MOL0     H 6916   5.548   5.760   4.300  1.3074  1.1699 -2.3115
  792MOL0     H 6917   6.109   5.035   4.356 -0.4263 -0.6676 -0.5461
  792MOL0     H 6918   6.303   4.799   4.266 -0.8421 -0.1422  0.0788
  792MOL0     H 6919   6.421   4.878   4.360  0.2993  1.4214 -0.1754
  792MOL0     H 6920   6.266   4.879   4.430 -0.3921  1.2217 -0.4403
  793MOL0     O 6921   7.487   2.110  11.271  0.6231 -0.0110  0.1778
  793MOL0     C 6922   7.459   2.076  11.158  0.1324  0.2492 -0.4497
  793MOL0     O 6923   7.547   2.038  11.056  0.1383  0.4082  0.0825
  793MOL0     C 6924   7.683   2.033  11.063 -0.6265  0.0876 -0.0137
  793MOL0     C 6925   7.762   2.107  11.158 -0.4654 -0.0658  0.3042
  793MOL0     C 6926   7.892   2.085  11.165  0.6117 -0.5770  0.0872
  793MOL0     C 6927   7.961   1.992  11.084 -0.9696  0.4304 -0.6215
  793MOL0     O 6928   8.094   1.976  11.116 -0.3149 -0.0110  0.2104
  793MOL0     C 6929   8.179   1.912  11.017 -0.3772  0.2900  0.3210
  793MOL0     C 6930   8.331   1.935  11.051 -0.8051  0.6730  0.1760
  793MOL0     C 6931   8.351   2.083  11.050  0.4031 -0.3043  0.1476
  793MOL0     C 6932   8.499   2.103  11.028 -0.1786  0.3511  0.0091
  793MOL0     C 6933   8.536   2.240  11.093 -0.2448 -0.9241  0.3291
  793MOL0     C 6934   8.694   2.249  11.097  0.1889  0.3000  0.4191
  793MOL0     C 6935   8.753   2.380  11.141 -0.8956  0.1334 -0.1943
  793MOL0     C 6936   8.913   2.374  11.143 -0.0325  0.4745  1.0055
  793MOL0     N 6937   8.975   2.488  11.209  0.3987  1.0955 -0.2791
  793MOL0     C 6938   8.999   2.482  11.344  0.3512  0.4435  0.0159
  793MOL0     C 6939   9.073   2.589  11.378 -0.1514 -0.2400  0.3834
  793MOL0     C 6940   9.126   2.635  11.512 -0.0995  0.0394  0.1318
  793MOL0     C 6941   9.280   2.639  11.521 -0.4333 -0.3381 -0.1106
  793MOL0     C 6942   9.349   2.507  11.474  0.2302 -1.0778  0.2605
  793MOL0     C 6943   9.498   2.531  11.476  0.3002  0.0656 -0.3870
  793MOL0     O 6944   9.543   2.530  11.614 -0.2614 -0.4622 -0.3762
  793MOL0     C 6945   9.675   2.547  11.651 -0.8544  0.5457  0.8142
  793MOL0     C 6946   9.778   2.505  11.568  0.1680 -0.8021  0.2123
  793MOL0     C 6947   9.904   2.517  11.608 -0.2781 -0.7221 -0.3099
  793MOL0     C 6948   9.936   2.566  11.733 -0.8695  0.3031  0.3432
  793MOL0     C 6949  10.070   2.571  11.783 -0.4006 -0.1014 -0.2070
  793MOL0     O 6950  10.087   2.583  11.922  0.5727  0.1961  0.2867
  793MOL0     C 6951  10.221   2.586  11.964  1.2244 -0.6490 -0.2990
  793MOL0     C 6952  10.309   2.479  11.950 -0.0194 -0.0853 -0.3677
  793MOL0     C 6953  10.442   2.497  11.999 -0.5048 -0.6136  0.0294
  793MOL0     C 6954  10.487   2.624  12.050  0.1245  0.9287 -0.2192
  793MOL0     O 6955  10.612   2.642  12.103  0.8388 -0.2103  0.1781
  793MOL0     C 6956  10.719   2.555  12.119 -0.3542  0.8325  0.5409
  793MOL0     C 6957  10.704   2.462  12.235  0.0778 -0.1241  0.0447
  793MOL0     C 6958  10.761   2.520  12.363  0.3362 -0.2342 -0.2270
  793MOL0     C 6959  10.908   2.471  12.374  0.4603 -0.6273  0.0801
  793MOL0     C 6960  10.991   2.539  12.480 -0.6056 -0.5576  0.1647
  793MOL0     C 6961  11.152   2.534  12.480 -0.5268  0.2851  0.3585
  793MOL0     C 6962  11.200   2.388  12.503  0.5218  0.1791 -0.4213
  793MOL0     C 6963  11.347   2.388  12.485 -0.3393  0.4159 -0.0394
  793MOL0    Cl 6964  11.410   2.232  12.464 -0.4639 -0.0436  0.3824
  793MOL0     C 6965  10.399   2.735  12.041 -0.5828  0.7921  0.6568
  793MOL0     C 6966  10.269   2.713  12.008 -1.0542 -0.6777  0.0152
  793MOL0     O 6967  10.158   2.589  11.700 -0.2993  0.7751 -0.1215
  793MOL0     C 6968   9.828   2.599  11.817  0.1741  0.8372 -0.5826
  793MOL0     C 6969   9.693   2.587  11.779 -0.1656  1.1366  0.2489
  793MOL0     N 6970   9.079   2.664  11.261 -0.0642 -0.3853  0.1243
  793MOL0     N 6971   9.030   2.600  11.156  0.7414  0.4690 -0.4029
  793MOL0     C 6972   7.889   1.945  10.976 -0.5268  0.9087  0.2732
  793MOL0     C 6973   7.747   1.960  10.969  0.1081  0.9312 -0.3575
  793MOL0     C 6974   7.317   2.116  11.126  0.4120 -0.2672  0.0651
  793MOL0     C 6975   7.242   2.215  11.197  0.4414  0.6144  0.6415
  793MOL0     C 6976   7.102   2.237  11.175  0.6770  0.0488 -0.0897
  793MOL0     C 6977   7.042   2.174  11.064 -0.0215 -0.4457 -1.0093
  793MOL0     O 6978   6.914   2.197  11.014  0.3195  0.3896 -0.1164
  793MOL0     C 6979   6.835   2.306  11.057 -0.0700  0.8622  0.5959
  793MOL0     C 6980   6.871   2.434  10.999  0.0530  0.4435 -0.1278
  793MOL0     C 6981   6.821   2.425  10.855 -1.0098  0.8042  0.0093
  793MOL0     C 6982   6.831   2.548  10.780  1.3891 -0.0061  0.4624
  793MOL0     C 6983   6.758   2.537  10.651 -0.0350 -0.0942  1.7704
  793MOL0     C 6984   6.696   2.525  10.544 -0.3529  0.8936 -0.1971
  793MOL0     C 6985   7.113   2.080  10.987  0.3919 -0.9434  0.0913
  793MOL0     C 6986   7.248   2.051  11.011  0.4483 -0.0525 -0.6252
  793MOL0     C 6987   7.299   1.940  10.920  0.2538  0.6483 -0.7907
  793MOL0     H 6988   7.731   2.179  11.233 -0.6834  0.6419 -0.4450
  793MOL0     H 6989   7.949   2.124  11.249 -1.3355  1.0933  0.6977
  793MOL0     H 6990   8.157   1.806  11.001  1.6439  0.2568 -3.2663
  793MOL0     H 6991   8.159   1.952  10.917 -0.9043 -0.3289  0.1772
  793MOL0     H 6992   8.384   1.873  10.979 -2.3224 -1.7005  0.9839
  793MOL0     H 6993   8.352   1.895  11.151  3.1769 -1.3735 -1.2700
  793MOL0     H 6994   8.320   2.121  11.148 -1.2585 -2.1816  0.4251
  793MOL0     H 6995   8.284   2.132  10.979 -0.9432  1.2461  2.3516
  793MOL0     H 6996   8.566   2.031  11.076  0.5600  1.3260  0.4732
  793MOL0     H 6997   8.517   2.103  10.920 -3.7377  0.6738 -0.7140
  793MOL0     H 6998   8.494   2.319  11.031  0.8655 -1.3022 -0.9341
  793MOL0     H 6999   8.496   2.260  11.193  1.4531  0.1099  0.8476
  793MOL0     H 7000   8.728   2.170  11.165  0.8676  0.0176 -0.2421
  793MOL0     H 7001   8.734   2.221  11.000 -0.5329  2.1460 -0.4703
  793MOL0     H 7002   8.715   2.402  11.241  1.3019 -0.1936  0.7668
  793MOL0     H 7003   8.711   2.448  11.066  0.2968  2.0469  0.8167
  793MOL0     H 7004   8.954   2.285  11.193 -0.2267 -1.0639 -1.4259
  793MOL0     H 7005   8.938   2.381  11.037 -1.9725 -0.8776  0.4130
  793MOL0     H 7006   8.973   2.394  11.402 -1.7329  1.8103  1.2549
  793MOL0     H 7007   9.082   2.730  11.541 -1.3620 -0.4917  0.0241
  793MOL0     H 7008   9.102   2.559  11.588  4.2759  0.0786  1.8867
  793MOL0     H 7009   9.315   2.720  11.456 -1.9237  0.7837  0.4295
  793MOL0     H 7010   9.318   2.662  11.621  0.8091 -1.5449 -0.2735
  793MOL0     H 7011   9.320   2.479  11.372 -0.7977 -1.2744  0.6050
  793MOL0     H 7012   9.327   2.424  11.542  2.7612 -2.7675 -0.8403
  793MOL0     H 7013   9.532   2.622  11.425 -0.9572  0.3040 -0.8280
  793MOL0     H 7014   9.546   2.453  11.416 -1.1528 -0.1202 -1.3507
  793MOL0     H 7015   9.757   2.461  11.471  0.0061 -0.1217 -0.0623
  793MOL0     H 7016   9.977   2.497  11.530  1.1104  1.7704  0.2345
  793MOL0     H 7017  10.284   2.384  11.904 -1.2562 -0.9254  1.9100
  793MOL0     H 7018  10.506   2.410  12.007 -1.4404 -1.2841  0.3888
  793MOL0     H 7019  10.738   2.491  12.032 -2.1682 -0.7871  1.2787
  793MOL0     H 7020  10.820   2.598  12.120  0.9677 -1.9969 -0.2566
  793MOL0     H 7021  10.595   2.455  12.244  0.1724  0.1082  1.5940
  793MOL0     H 7022  10.741   2.360  12.220  0.5226  0.3619 -2.8317
  793MOL0     H 7023  10.755   2.628  12.380  0.0941 -0.0402 -1.4950
  793MOL0     H 7024  10.704   2.471  12.442 -0.6125 -1.8263 -1.8424
  793MOL0     H 7025  10.956   2.496  12.279 -1.0818  1.2645 -0.2786
  793MOL0     H 7026  10.913   2.363  12.389  1.1990 -1.1681 -3.3248
  793MOL0     H 7027  10.950   2.500  12.574 -3.1275 -1.5609 -1.2708
  793MOL0     H 7028  10.965   2.645  12.473 -1.9409 -0.7963  1.0668
  793MOL0     H 7029  11.191   2.570  12.384  0.7064 -2.5086 -0.2909
  793MOL0     H 7030  11.194   2.602  12.555 -0.1906  2.9622 -2.0617
  793MOL0     H 7031  11.157   2.315  12.433 -2.1997  2.0773 -0.9076
  793MOL0     H 7032  11.186   2.363  12.608 -0.7670 -1.4114 -0.9245
  793MOL0     H 7033  11.372   2.449  12.397 -2.6832  0.5706 -0.6610
  793MOL0     H 7034  11.398   2.436  12.569 -0.4964 -0.3225  0.4920
  793MOL0     H 7035  10.439   2.830  12.072  0.1653  0.8030 -0.2945
  793MOL0     H 7036  10.214   2.806  12.019  1.1751  1.2893 -3.4411
  793MOL0     H 7037   9.832   2.653  11.911 -0.3676  1.0354 -0.6658
  793MOL0     H 7038   9.610   2.604  11.848 -0.2658 -1.0307  0.7563
  793MOL0     H 7039   7.937   1.878  10.904 -3.3292  0.2799 -1.1556
  793MOL0     H 7040   7.679   1.907  10.903  1.2049 -0.4097 -0.4483
  793MOL0     H 7041   7.284   2.260  11.286 -1.5954 -2.6155  3.4907
  793MOL0     H 7042   7.045   2.309  11.232 -1.6480 -2.2977  0.7241
  793MOL0     H 7043   6.853   2.319  11.164  0.8167 -0.4645  0.6271
  793MOL0     H 7044   6.734   2.269  11.041  0.4765  0.0477 -1.2354
  793MOL0     H 7045   6.977   2.459  11.008 -0.1839  1.8473 -0.9132
  793MOL0     H 7046   6.818   2.509  11.059  0.2641 -2.0499  3.5111
  793MOL0     H 7047   6.715   2.398  10.858 -1.2638  1.3154 -2.2792
  793MOL0     H 7048   6.884   2.355  10.800  0.3864  3.4595 -1.9967
  793MOL0     H 7049   6.793   2.630  10.841 -1.1540  0.8359 -2.0706
  793MOL0     H 7050   6.933   2.559  10.744  1.2664  1.7811  0.6194
  793MOL0     H 7051   6.637   2.495  10.460  0.1455  0.2993 -0.3436
  793MOL0     H 7052   7.060   2.026  10.909  0.5131  1.5540 -1.8344
  793MOL0     H 7053   7.377   1.890  10.978 -0.0537  4.4841  3.4118
  793MOL0     H 7054   7.221   1.867  10.895  1.5644 -1.4501  0.8625
  793MOL0     H 7055   7.334   1.988  10.828 -0.8673  1.0837 -0.9999
  794MOL0     O 7056   6.764   6.410  11.169 -0.4383  0.1011  0.2218
  794MOL0     C 7057   6.672   6.332  11.200  0.1542  0.2584 -0.1004
  794MOL0     O 7058   6.649   6.277  11.324  1.0785  0.6256 -0.4190
  794MOL0     C 7059   6.755   6.252  11.408  0.1045 -0.0545 -0.2975
  794MOL0     C 7060   6.895   6.261  11.379  0.2747 -0.5592 -0.4119
  794MOL0     C 7061   6.997   6.233  11.483 -0.0269  1.3795 -0.2411
  794MOL0     C 7062   6.950   6.195  11.614 -0.3021  0.0932  0.3760
  794MOL0     O 7063   7.024   6.178  11.725  0.3707 -0.1507 -0.4276
  794MOL0     C 7064   7.140   6.261  11.735  0.8594 -0.6122 -0.1736
  794MOL0     C 7065   7.252   6.178  11.699 -0.7998 -0.0767 -0.5005
  794MOL0     C 7066   7.391   6.248  11.692 -0.6824  0.1117 -0.2500
  794MOL0     C 7067   7.395   6.358  11.591  0.2627  1.0709 -0.0711
  794MOL0     C 7068   7.538   6.410  11.569  0.9014 -0.0501  0.7215
  794MOL0     C 7069   7.593   6.496  11.683 -0.2885  0.0348 -0.8682
  794MOL0     C 7070   7.751   6.498  11.678 -0.1826 -0.5849  0.2723
  794MOL0     C 7071   7.784   6.589  11.554 -0.1348  0.5856 -0.5363
  794MOL0     N 7072   7.920   6.640  11.552 -0.0289  0.3092  0.8934
  794MOL0     C 7073   8.028   6.606  11.642  0.0261  0.5593 -0.2439
  794MOL0     C 7074   8.109   6.711  11.642  0.5912 -0.6682 -0.2590
  794MOL0     C 7075   8.212   6.747  11.749  1.0551 -0.2827  0.1941
  794MOL0     C 7076   8.143   6.826  11.864 -0.0087 -0.0743  0.9853
  794MOL0     C 7077   8.251   6.898  11.947  0.3480  0.7134  0.3935
  794MOL0     C 7078   8.370   6.812  11.983 -1.2122  0.2346  0.8221
  794MOL0     O 7079   8.452   6.860  12.087  0.1999 -0.2697 -0.2844
  794MOL0     C 7080   8.513   6.985  12.071  0.0927  0.0397  0.7225
  794MOL0     C 7081   8.585   7.040  12.181 -0.0868  0.4095 -0.2460
  794MOL0     C 7082   8.669   7.153  12.168  1.0045  0.5268  0.2930
  794MOL0     C 7083   8.667   7.228  12.048 -0.4125 -0.4810 -0.4536
  794MOL0     C 7084   8.747   7.354  12.040 -0.6242  0.3504  0.6746
  794MOL0     O 7085   8.777   7.415  12.157 -0.2759 -0.3769  0.7653
  794MOL0     C 7086   8.859   7.526  12.164 -0.1380 -0.0588 -0.5214
  794MOL0     C 7087   8.932   7.542  12.281  0.1100 -0.3743 -0.4159
  794MOL0     C 7088   9.019   7.646  12.298  0.3982  0.3721 -0.5865
  794MOL0     C 7089   9.046   7.741  12.204  0.2223  0.7705  0.0411
  794MOL0     O 7090   9.131   7.841  12.237 -0.3889 -0.2091 -0.5852
  794MOL0     C 7091   9.143   7.951  12.149 -0.3694 -0.2895  0.3258
  794MOL0     C 7092   9.273   8.027  12.212 -0.7623 -0.7674  0.2817
  794MOL0     C 7093   9.311   8.152  12.128 -0.1292  0.8514  0.1856
  794MOL0     C 7094   9.427   8.228  12.189 -0.6159 -0.2332 -0.0982
  794MOL0     C 7095   9.439   8.356  12.113  0.1566  0.1465  0.2112
  794MOL0     C 7096   9.552   8.446  12.169  0.0296 -0.0298 -0.5882
  794MOL0     C 7097   9.604   8.556  12.067 -0.5635  0.4515  0.3410
  794MOL0     C 7098   9.706   8.648  12.133 -0.9113  0.2097  0.8363
  794MOL0    Cl 7099   9.872   8.587  12.106 -0.1673  0.1109 -0.4567
  794MOL0     C 7100   8.976   7.722  12.084 -0.2568  1.0431 -0.8384
  794MOL0     C 7101   8.880   7.620  12.067 -0.0223 -0.7389  0.1789
  794MOL0     O 7102   8.786   7.385  11.927  0.4290 -0.4457  0.7834
  794MOL0     C 7103   8.593   7.182  11.940  0.8991  0.3692  0.5956
  794MOL0     C 7104   8.521   7.064  11.952 -0.8445 -0.0997  0.3134
  794MOL0     N 7105   8.062   6.803  11.546  0.1314 -0.3174  0.6786
  794MOL0     N 7106   7.956   6.761  11.494  0.0523 -0.0129 -0.6281
  794MOL0     C 7107   6.812   6.179  11.636 -0.1509  0.7985 -0.5089
  794MOL0     C 7108   6.719   6.207  11.540  0.2821 -0.0682  0.2176
  794MOL0     C 7109   6.552   6.297  11.114 -0.2687 -0.0560 -0.0072
  794MOL0     C 7110   6.511   6.160  11.114  0.3599  0.1605 -0.9679
  794MOL0     C 7111   6.399   6.127  11.037  0.1932 -0.0265 -0.7711
  794MOL0     C 7112   6.314   6.221  10.976  0.7845 -0.0152 -0.0326
  794MOL0     O 7113   6.207   6.172  10.904  0.0785  0.4462 -0.3144
  794MOL0     C 7114   6.128   6.252  10.815 -0.5268 -0.0412  0.2763
  794MOL0     C 7115   5.987   6.194  10.781 -0.5942 -1.0160 -0.0960
  794MOL0     C 7116   5.989   6.054  10.730 -0.0548  0.1802 -0.0278
  794MOL0     C 7117   5.936   6.033  10.584 -0.4169 -0.4369 -0.0254
  794MOL0     C 7118   5.788   6.033  10.597 -0.4236 -0.4516  1.0157
  794MOL0     C 7119   5.670   6.023  10.605  0.3275  0.9659 -0.4185
  794MOL0     C 7120   6.360   6.351  10.979  0.8473  0.0401 -0.1148
  794MOL0     C 7121   6.479   6.393  11.035  0.5487  0.2311  0.3917
  794MOL0     C 7122   6.517   6.543  11.028  0.5700 -0.7643  0.3576
  794MOL0     H 7123   6.927   6.283  11.278 -2.0361  2.1611 -0.6913
  794MOL0     H 7124   7.104   6.233  11.461 -0.3360 -1.1936 -2.1586
  794MOL0     H 7125   7.136   6.351  11.673  0.9869 -0.5516 -0.0961
  794MOL0     H 7126   7.149   6.285  11.842 -1.3282 -3.0556  0.6740
  794MOL0     H 7127   7.233   6.131  11.602  0.5828 -1.0283 -0.3294
  794MOL0     H 7128   7.259   6.100  11.774  3.0846  0.8201  0.2564
  794MOL0     H 7129   7.467   6.173  11.670 -0.1923  1.1643 -2.3365
  794MOL0     H 7130   7.423   6.277  11.792 -0.2300 -0.8316 -0.1050
  794MOL0     H 7131   7.370   6.325  11.489  0.0274 -0.5430  0.4710
  794MOL0     H 7132   7.331   6.444  11.614 -0.0098  0.5059  1.3849
  794MOL0     H 7133   7.605   6.323  11.567  0.1246 -0.7359 -2.5189
  794MOL0     H 7134   7.545   6.458  11.471  0.1419  0.0910  0.7245
  794MOL0     H 7135   7.555   6.598  11.678 -1.0908  0.0141  2.4559
  794MOL0     H 7136   7.575   6.452  11.782  1.7392  0.8569 -0.0715
  794MOL0     H 7137   7.789   6.396  11.671  2.1382  0.3140 -4.2218
  794MOL0     H 7138   7.791   6.540  11.770 -1.2764  0.4575  0.2946
  794MOL0     H 7139   7.783   6.521  11.469  2.3680  0.8747 -0.8697
  794MOL0     H 7140   7.706   6.665  11.545  2.1670  2.8861 -2.4736
  794MOL0     H 7141   8.049   6.520  11.704  1.2240  1.7211  1.0262
  794MOL0     H 7142   8.265   6.663  11.795  0.3581 -0.7488  0.1562
  794MOL0     H 7143   8.282   6.817  11.703 -0.4524  2.6405  2.0258
  794MOL0     H 7144   8.080   6.901  11.815  0.0530 -0.7394 -0.1362
  794MOL0     H 7145   8.076   6.766  11.927 -2.3749  0.5851 -0.7455
  794MOL0     H 7146   8.200   6.924  12.041 -0.5039  0.3804  0.0357
  794MOL0     H 7147   8.272   6.999  11.910 -2.7221  2.0814  1.9813
  794MOL0     H 7148   8.426   6.787  11.893  0.9479  2.5450  1.4268
  794MOL0     H 7149   8.345   6.714  12.027 -0.7120 -0.1369  0.2853
  794MOL0     H 7150   8.584   6.987  12.276 -1.6670  0.1614 -0.3692
  794MOL0     H 7151   8.734   7.167  12.255  0.5620  1.0876  0.5391
  794MOL0     H 7152   8.915   7.464  12.354 -0.9528 -0.1666 -0.4267
  794MOL0     H 7153   9.066   7.667  12.394  2.2780 -1.6257 -0.9955
  794MOL0     H 7154   9.174   7.908  12.053  1.1495 -0.0204  0.6813
  794MOL0     H 7155   9.060   8.020  12.132  0.3942  0.3791 -0.7618
  794MOL0     H 7156   9.247   8.051  12.316 -1.2637 -0.2199  0.0380
  794MOL0     H 7157   9.362   7.963  12.210 -1.1048 -1.2869  1.1050
  794MOL0     H 7158   9.322   8.137  12.021  2.5875  1.2652  0.3359
  794MOL0     H 7159   9.219   8.212  12.133 -2.1131 -1.9949  0.0164
  794MOL0     H 7160   9.519   8.169  12.189  0.1567  0.5986 -4.7923
  794MOL0     H 7161   9.395   8.253  12.291 -2.9721 -2.8969 -0.0665
  794MOL0     H 7162   9.345   8.412  12.125  0.6408  0.8655  0.7497
  794MOL0     H 7163   9.465   8.334  12.009  2.8713 -1.1800  1.0959
  794MOL0     H 7164   9.522   8.492  12.264  1.0890 -1.1350  0.3077
  794MOL0     H 7165   9.633   8.378  12.197  0.6664  0.7070 -0.5714
  794MOL0     H 7166   9.515   8.615  12.043 -0.2331  0.0047 -2.3400
  794MOL0     H 7167   9.637   8.507  11.974  0.5309  0.5699  0.6563
  794MOL0     H 7168   9.693   8.749  12.093  1.2529 -0.4215 -1.6921
  794MOL0     H 7169   9.681   8.659  12.239 -4.1408  1.9008  0.0387
  794MOL0     H 7170   8.966   7.797  12.006 -0.0862  1.7992 -0.1444
  794MOL0     H 7171   8.824   7.622  11.974  4.1772 -1.7871 -2.6356
  794MOL0     H 7172   8.593   7.227  11.841 -1.5284 -0.7871 -0.0108
  794MOL0     H 7173   8.477   7.020  11.863 -1.0064  0.1664  0.2593
  794MOL0     H 7174   6.790   6.142  11.736  2.3956 -0.7267 -0.4044
  794MOL0     H 7175   6.612   6.190  11.545  0.1953 -0.5777 -1.9849
  794MOL0     H 7176   6.559   6.079  11.169 -2.8000  0.1142  2.1088
  794MOL0     H 7177   6.363   6.026  11.016  0.8831 -0.6294  0.8149
  794MOL0     H 7178   6.176   6.271  10.719 -0.4660 -3.5737 -0.5329
  794MOL0     H 7179   6.114   6.346  10.868  0.7644 -0.8141  2.0830
  794MOL0     H 7180   5.928   6.258  10.714  0.1538 -1.2126 -0.9564
  794MOL0     H 7181   5.939   6.206  10.878  0.1544  0.7799  0.1029
  794MOL0     H 7182   5.929   5.996  10.801  1.4819 -0.0382  1.1580
  794MOL0     H 7183   6.093   6.019  10.737  0.6824  2.5070  2.2399
  794MOL0     H 7184   5.966   6.106  10.509  0.7382  2.0788  2.7080
  794MOL0     H 7185   5.965   5.933  10.550 -2.0666 -1.1381  0.4772
  794MOL0     H 7186   5.565   6.008  10.618  0.7170 -2.7128 -0.4073
  794MOL0     H 7187   6.304   6.420  10.917  0.4639 -1.1101 -1.0991
  794MOL0     H 7188   6.498   6.583  10.928 -1.1602  1.6027  1.5218
  794MOL0     H 7189   6.467   6.606  11.103  1.6977 -0.1658  0.6268
  794MOL0     H 7190   6.625   6.551  11.035  0.7429 -1.6239 -1.1209
  795MOL0     O 7191   0.275   7.625  10.628  0.4047  0.2423 -0.5191
  795MOL0     C 7192   0.237   7.534  10.704 -0.5498  0.8669  0.4174
  795MOL0     O 7193   0.325   7.440  10.768  0.4484  0.2132 -0.2520
  795MOL0     C 7194   0.452   7.425  10.726 -0.2654 -0.7893 -0.7114
  795MOL0     C 7195   0.554   7.446  10.816 -0.9572 -0.2610 -0.1790
  795MOL0     C 7196   0.693   7.425  10.785  0.5739  0.0902 -0.2003
  795MOL0     C 7197   0.731   7.388  10.658  0.1823 -0.4654 -0.8781
  795MOL0     O 7198   0.869   7.363  10.638  0.3085  0.4259  0.2831
  795MOL0     C 7199   0.901   7.313  10.507  0.1609 -0.4215 -0.1030
  795MOL0     C 7200   1.054   7.302  10.492 -0.6933  0.5376  0.8270
  795MOL0     C 7201   1.092   7.272  10.346 -0.1098  0.2080  0.4245
  795MOL0     C 7202   1.243   7.255  10.321 -0.7073 -0.5276 -0.7820
  795MOL0     C 7203   1.278   7.207  10.180 -0.8233 -0.1601 -0.5071
  795MOL0     C 7204   1.427   7.197  10.146 -1.0630  0.0409 -0.6996
  795MOL0     C 7205   1.492   7.073  10.232 -1.0165 -0.0569 -0.5384
  795MOL0     C 7206   1.450   6.930  10.201  0.2492  0.0966 -0.3402
  795MOL0     N 7207   1.516   6.844  10.299 -0.3979 -0.1360  0.1169
  795MOL0     C 7208   1.655   6.831  10.317 -0.1589 -0.4767 -0.4552
  795MOL0     C 7209   1.659   6.755  10.431  0.0200 -0.2811 -0.0525
  795MOL0     C 7210   1.793   6.701  10.477 -0.7523 -0.6929 -0.2899
  795MOL0     C 7211   1.830   6.755  10.612  0.0598  0.4879 -0.9913
  795MOL0     C 7212   1.964   6.720  10.666  0.2636 -0.2017  0.9791
  795MOL0     C 7213   2.074   6.737  10.558  0.1343  0.7723 -0.3066
  795MOL0     O 7214   2.208   6.747  10.613  0.1227 -0.2243  0.3747
  795MOL0     C 7215   2.313   6.687  10.547  0.3678 -0.1092 -1.0047
  795MOL0     C 7216   2.451   6.712  10.592  0.7247 -0.4587  0.2798
  795MOL0     C 7217   2.558   6.646  10.537  0.3112 -0.9361 -0.1308
  795MOL0     C 7218   2.533   6.542  10.442 -0.6193  0.3125  0.6568
  795MOL0     C 7219   2.643   6.485  10.372 -0.5602  0.1986 -0.3806
  795MOL0     O 7220   2.633   6.440  10.242  0.1205  0.9309 -0.2919
  795MOL0     C 7221   2.742   6.411  10.155 -0.2300 -0.7238  0.3752
  795MOL0     C 7222   2.720   6.339  10.036 -0.5340 -0.5041  0.4233
  795MOL0     C 7223   2.824   6.311   9.946  0.8235  0.3494 -0.6359
  795MOL0     C 7224   2.947   6.356   9.979 -0.4157 -0.1343  0.0567
  795MOL0     O 7225   3.055   6.325   9.893  0.1870 -0.0077  0.6498
  795MOL0     C 7226   3.125   6.216   9.966  0.2814 -0.8960  0.0284
  795MOL0     C 7227   3.268   6.200   9.910  0.0851  0.2290 -0.3423
  795MOL0     C 7228   3.339   6.333   9.917 -0.8110  0.7453 -0.6522
  795MOL0     C 7229   3.494   6.339   9.887 -0.6855 -0.0878 -0.0410
  795MOL0     C 7230   3.570   6.243   9.977 -0.1883 -0.2955  0.2074
  795MOL0     C 7231   3.713   6.239   9.943  0.0710 -0.3802 -0.6433
  795MOL0     C 7232   3.747   6.132   9.834 -0.6068 -0.2414 -0.6405
  795MOL0     C 7233   3.895   6.145   9.799 -0.8872 -0.0563 -0.4077
  795MOL0    Cl 7234   3.921   6.053   9.652 -0.5271 -0.1036 -0.0794
  795MOL0     C 7235   2.968   6.441  10.091  0.5644  0.3406  0.6599
  795MOL0     C 7236   2.867   6.463  10.179  0.0511  0.5834  0.4504
  795MOL0     O 7237   2.743   6.472  10.441 -0.2276 -0.0697  0.1111
  795MOL0     C 7238   2.406   6.509  10.404 -0.1367 -0.6087 -0.0731
  795MOL0     C 7239   2.299   6.579  10.455 -0.6337 -0.7452  0.0167
  795MOL0     N 7240   1.532   6.713  10.468 -0.5473 -0.1729  0.2732
  795MOL0     N 7241   1.447   6.769  10.383 -0.1393  0.1234  0.1586
  795MOL0     C 7242   0.625   7.369  10.565 -0.3332 -0.1304 -0.3805
  795MOL0     C 7243   0.492   7.379  10.595  0.2482  0.6401 -0.0396
  795MOL0     C 7244   0.093   7.502  10.696 -0.9263 -0.1828  0.3758
  795MOL0     C 7245   0.048   7.370  10.674 -0.6351 -0.4811 -0.6520
  795MOL0     C 7246  -0.077   7.325  10.687  0.7926 -0.4152  0.8436
  795MOL0     C 7247  -0.181   7.416  10.717 -0.1938 -0.1853  0.0811
  795MOL0     O 7248  -0.308   7.366  10.730  0.3113 -0.2733 -0.3224
  795MOL0     C 7249  -0.401   7.427  10.817 -0.1755  0.0700 -0.0094
  795MOL0     C 7250  -0.520   7.342  10.874 -0.3535  0.5382 -0.5778
  795MOL0     C 7251  -0.519   7.203  10.815 -0.5760 -0.6310 -0.4211
  795MOL0     C 7252  -0.558   7.187  10.669  0.1323  0.2809 -0.6071
  795MOL0     C 7253  -0.695   7.229  10.648 -1.0547 -0.5335 -0.3765
  795MOL0     C 7254  -0.799   7.284  10.640  0.0622  0.2966 -0.3938
  795MOL0     C 7255  -0.144   7.556  10.740  0.3328  0.6575 -0.1861
  795MOL0     C 7256  -0.011   7.595  10.716 -1.1078 -1.2288 -0.1840
  795MOL0     C 7257   0.021   7.746  10.743  0.6139 -0.2243 -0.1367
  795MOL0     H 7258   0.526   7.487  10.913  0.6118  1.9062 -0.5616
  795MOL0     H 7259   0.764   7.448  10.864 -0.5859  0.5548  0.7264
  795MOL0     H 7260   0.846   7.223  10.479 -0.3311  0.1945 -1.1926
  795MOL0     H 7261   0.874   7.390  10.434 -0.5604  2.5177  3.0000
  795MOL0     H 7262   1.090   7.214  10.547  0.2115  0.2979 -0.1101
  795MOL0     H 7263   1.107   7.390  10.528 -0.5484  0.5712  0.5260
  795MOL0     H 7264   1.060   7.358  10.286 -1.2981 -0.4634  0.0719
  795MOL0     H 7265   1.042   7.180  10.314  0.4174  0.6085 -1.7344
  795MOL0     H 7266   1.274   7.360  10.328 -0.2306 -0.7535  0.7487
  795MOL0     H 7267   1.300   7.213  10.404 -0.5901  2.1490  0.5779
  795MOL0     H 7268   1.226   7.117  10.145 -2.4247  0.1730  0.8754
  795MOL0     H 7269   1.242   7.280  10.106 -0.0629 -1.5607 -2.3203
  795MOL0     H 7270   1.431   7.190  10.037  1.4475  1.7889 -0.8069
  795MOL0     H 7271   1.481   7.285  10.181  1.4598 -1.7258  0.2030
  795MOL0     H 7272   1.465   7.078  10.338  0.1009 -1.2713 -0.1731
  795MOL0     H 7273   1.600   7.082  10.219 -1.0969  1.9187 -0.1610
  795MOL0     H 7274   1.341   6.926  10.205  0.2551 -0.3629 -0.6896
  795MOL0     H 7275   1.477   6.891  10.103  2.2166 -0.1608  0.2551
  795MOL0     H 7276   1.744   6.871  10.269  0.8134  1.2352  2.4813
  795MOL0     H 7277   1.789   6.592  10.487  0.7910 -0.5913  2.3070
  795MOL0     H 7278   1.863   6.736  10.400 -1.2855  1.3754  0.1047
  795MOL0     H 7279   1.821   6.863  10.619 -1.7328  0.4122 -1.4397
  795MOL0     H 7280   1.752   6.727  10.683 -1.6325  2.5919 -1.8970
  795MOL0     H 7281   1.966   6.618  10.706  1.8861  0.7731  3.6538
  795MOL0     H 7282   1.994   6.785  10.749  0.9773  1.0489 -0.2161
  795MOL0     H 7283   2.057   6.836  10.514 -5.2398  0.9023  1.3192
  795MOL0     H 7284   2.069   6.667  10.475  0.0769 -1.2762  1.3483
  795MOL0     H 7285   2.464   6.790  10.666 -0.4376  1.4656 -1.4204
  795MOL0     H 7286   2.658   6.682  10.557 -0.6443  3.6836 -2.4387
  795MOL0     H 7287   2.616   6.317  10.013 -0.5271 -1.2348  1.0346
  795MOL0     H 7288   2.803   6.254   9.856  1.8914  0.1019 -0.7399
  795MOL0     H 7289   3.137   6.234  10.073  1.9452  3.0461 -0.6572
  795MOL0     H 7290   3.067   6.124   9.951 -0.5884 -0.0970 -1.7414
  795MOL0     H 7291   3.317   6.125   9.972  0.4079 -0.7533 -1.7393
  795MOL0     H 7292   3.265   6.174   9.804 -0.2662  2.2660 -0.8760
  795MOL0     H 7293   3.293   6.395   9.840  3.0339  1.2234 -2.7687
  795MOL0     H 7294   3.339   6.375  10.018 -0.0258 -0.5621 -0.0818
  795MOL0     H 7295   3.528   6.436   9.924 -2.0746  0.6102 -0.5457
  795MOL0     H 7296   3.519   6.331   9.781  0.3687  0.7176  0.1266
  795MOL0     H 7297   3.529   6.142   9.966  0.9394 -0.6194 -1.3284
  795MOL0     H 7298   3.569   6.285  10.078 -1.0571  0.1106  0.0416
  795MOL0     H 7299   3.752   6.339   9.924  0.3816 -0.0754  1.3816
  795MOL0     H 7300   3.765   6.202  10.033  1.7492  1.8805 -0.5965
  795MOL0     H 7301   3.693   6.142   9.739 -1.6409  1.4381  0.0661
  795MOL0     H 7302   3.722   6.038   9.883 -2.2169  0.8751  0.7990
  795MOL0     H 7303   3.930   6.247   9.778  0.1786  0.4088  2.9799
  795MOL0     H 7304   3.954   6.108   9.883  1.1763  1.0176 -1.3209
  795MOL0     H 7305   3.069   6.480  10.104  0.3627  0.2141  3.1846
  795MOL0     H 7306   2.899   6.537  10.250  4.3780 -0.4891 -0.1223
  795MOL0     H 7307   2.386   6.437  10.325 -1.6111 -2.3827  1.8163
  795MOL0     H 7308   2.204   6.550  10.413 -1.1764 -1.9922  1.9363
  795MOL0     H 7309   0.642   7.340  10.462 -0.2236  0.1337 -0.4368
  795MOL0     H 7310   0.426   7.350  10.514 -0.0848  2.7891 -0.6068
  795MOL0     H 7311   0.118   7.294  10.641  0.5262 -0.0622  0.7154
  795MOL0     H 7312  -0.102   7.223  10.660  0.1344  0.3096 -1.5534
  795MOL0     H 7313  -0.448   7.506  10.757  1.6766 -0.6064 -2.5179
  795MOL0     H 7314  -0.353   7.467  10.906  0.7947 -2.3889  0.6524
  795MOL0     H 7315  -0.610   7.398  10.847  0.4750  0.9675 -2.6298
  795MOL0     H 7316  -0.515   7.338  10.983  0.8404 -0.3757 -0.6462
  795MOL0     H 7317  -0.582   7.133  10.871 -1.9338  0.8712 -0.0148
  795MOL0     H 7318  -0.415   7.168  10.821  0.3627  2.0739  0.7339
  795MOL0     H 7319  -0.489   7.242  10.604 -2.2294 -0.2562 -3.8563
  795MOL0     H 7320  -0.548   7.081  10.644  1.3782 -0.1426  1.4415
  795MOL0     H 7321  -0.900   7.320  10.644 -0.4963 -1.1651 -0.8173
  795MOL0     H 7322  -0.219   7.626  10.775 -0.5274 -0.5181  0.3678
  795MOL0     H 7323   0.114   7.751  10.800  0.4626 -1.4046  0.2447
  795MOL0     H 7324   0.031   7.807  10.653  0.8990 -0.3072 -0.1612
  795MOL0     H 7325  -0.061   7.797  10.795  0.7369 -0.5522  0.3891
  796MOL0     O 7326   3.557   0.426   1.114 -0.3663 -0.3279  0.2753
  796MOL0     C 7327   3.513   0.312   1.107 -0.0647 -0.6373  0.1056
  796MOL0     O 7328   3.585   0.197   1.064 -0.6523  0.4245  1.1430
  796MOL0     C 7329   3.724   0.212   1.049 -0.2477  0.3223 -0.7658
  796MOL0     C 7330   3.787   0.212   0.924 -0.1704 -0.4053 -0.2361
  796MOL0     C 7331   3.924   0.233   0.919 -0.0343  0.5014  0.8743
  796MOL0     C 7332   3.998   0.240   1.034  0.0769 -0.3718  0.0710
  796MOL0     O 7333   4.133   0.245   1.031 -0.2535  0.6768 -0.1334
  796MOL0     C 7334   4.191   0.360   0.966 -0.0728 -0.6006 -0.5282
  796MOL0     C 7335   4.322   0.335   0.892 -0.8199 -0.2910 -0.2720
  796MOL0     C 7336   4.303   0.221   0.783 -0.2974 -0.2556 -0.0629
  796MOL0     C 7337   4.424   0.205   0.697 -0.2826  0.1613  0.1718
  796MOL0     C 7338   4.554   0.185   0.766 -0.6745  0.1539  0.0365
  796MOL0     C 7339   4.659   0.152   0.664  0.6680 -0.6211  0.1780
  796MOL0     C 7340   4.791   0.155   0.742  0.1873  0.2935 -0.7351
  796MOL0     C 7341   4.831   0.066   0.865 -0.0519  0.1475 -0.3099
  796MOL0     N 7342   4.962   0.103   0.923  0.2476  0.5025  0.2800
  796MOL0     C 7343   5.058   0.017   0.950 -1.1025 -0.2845 -0.3121
  796MOL0     C 7344   5.161   0.090   0.997 -0.1672  0.1199 -0.0186
  796MOL0     C 7345   5.295   0.048   1.041  0.0039  0.1543  0.3407
  796MOL0     C 7346   5.416   0.111   0.968 -0.9275  0.0816  0.1731
  796MOL0     C 7347   5.422   0.085   0.824 -0.4257  0.1167 -0.1654
  796MOL0     C 7348   5.550   0.138   0.753 -0.0105  0.6155 -0.0001
  796MOL0     O 7349   5.519   0.125   0.622 -0.2525  1.1988  0.5224
  796MOL0     C 7350   5.625   0.109   0.532  0.1971 -0.1822  0.0613
  796MOL0     C 7351   5.752   0.155   0.551 -0.0986  0.0418  0.1591
  796MOL0     C 7352   5.849   0.120   0.460 -0.0118 -0.2134  0.2290
  796MOL0     C 7353   5.822   0.065   0.337 -0.3959  0.4977  0.1680
  796MOL0     C 7354   5.928   0.052   0.241  0.3457  0.6274 -0.2337
  796MOL0     O 7355   6.058   0.075   0.270 -0.5322 -0.5673 -0.2638
  796MOL0     C 7356   6.166   0.044   0.180  0.0610 -0.1426  0.2538
  796MOL0     C 7357   6.278   0.133   0.147  0.7808  0.0559 -0.7091
  796MOL0     C 7358   6.369   0.087   0.047 -0.3265  0.3973 -0.1270
  796MOL0     C 7359   6.362  -0.036  -0.010 -0.3788  0.5182  0.5279
  796MOL0     O 7360   6.473  -0.076  -0.086 -0.1162 -0.0425  0.2525
  796MOL0     C 7361   6.479  -0.200  -0.157 -0.3315 -0.4242 -1.4548
  796MOL0     C 7362   6.623  -0.217  -0.202  0.7312 -1.0267 -0.4511
  796MOL0     C 7363   6.641  -0.354  -0.274  0.4668 -0.4932 -0.5057
  796MOL0     C 7364   6.781  -0.357  -0.334  0.5249 -0.2517  0.3060
  796MOL0     C 7365   6.826  -0.493  -0.383  0.4409  0.8278 -0.0855
  796MOL0     C 7366   6.968  -0.495  -0.437 -0.6560  0.0184  0.2270
  796MOL0     C 7367   7.077  -0.480  -0.316 -0.5843 -0.4288  0.5368
  796MOL0     C 7368   7.210  -0.541  -0.352 -0.3735  0.1703  0.7672
  796MOL0    Cl 7369   7.267  -0.457  -0.498 -0.4028  0.3091 -0.1784
  796MOL0     C 7370   6.250  -0.120   0.025 -0.6351 -0.7196  0.9275
  796MOL0     C 7371   6.152  -0.078   0.112 -0.3119 -0.1571 -0.4952
  796MOL0     O 7372   5.881   0.026   0.126 -0.3762 -0.5527 -0.3200
  796MOL0     C 7373   5.693   0.011   0.320 -0.3154 -0.1925 -0.9601
  796MOL0     C 7374   5.593   0.049   0.413 -0.8201 -0.3044 -0.0890
  796MOL0     N 7375   5.127   0.222   0.993 -0.1340  0.6703 -0.6401
  796MOL0     N 7376   5.009   0.227   0.948  0.5919 -0.4206  0.6042
  796MOL0     C 7377   3.938   0.237   1.157 -0.3946  0.4068 -0.2255
  796MOL0     C 7378   3.796   0.224   1.166 -0.1147 -0.4667 -0.3304
  796MOL0     C 7379   3.368   0.292   1.147  0.1804 -0.3541 -0.2423
  796MOL0     C 7380   3.326   0.158   1.164 -0.5089  0.0907  0.4230
  796MOL0     C 7381   3.199   0.127   1.200 -0.2595 -0.1824 -0.2248
  796MOL0     C 7382   3.106   0.225   1.226 -0.1957 -0.1028 -0.3465
  796MOL0     O 7383   2.983   0.177   1.271 -0.5088 -0.7080 -0.0441
  796MOL0     C 7384   2.872   0.252   1.242  0.7575 -0.8858 -0.1559
  796MOL0     C 7385   2.752   0.186   1.292  0.6104 -0.3319 -0.3500
  796MOL0     C 7386   2.622   0.238   1.216 -0.2571  0.7958 -0.4701
  796MOL0     C 7387   2.496   0.196   1.287  0.0731  0.6068  0.3487
  796MOL0     C 7388   2.369   0.240   1.229  0.2517 -0.2417  0.0331
  796MOL0     C 7389   2.273   0.275   1.166 -0.0496 -0.4825 -0.2914
  796MOL0     C 7390   3.133   0.359   1.192 -1.2356 -0.3646  0.4054
  796MOL0     C 7391   3.271   0.400   1.156  0.3903  0.9845  0.2997
  796MOL0     C 7392   3.302   0.539   1.141  0.1395 -0.4151  0.5094
  796MOL0     H 7393   3.735   0.200   0.829  1.8224 -0.8432 -1.3325
  796MOL0     H 7394   3.969   0.222   0.820 -1.3076 -2.8272  0.5595
  796MOL0     H 7395   4.124   0.402   0.890  1.2976 -1.6269 -2.3866
  796MOL0     H 7396   4.210   0.416   1.058 -0.5321 -0.6339 -0.4124
  796MOL0     H 7397   4.394   0.305   0.968 -2.5082 -0.5995  1.2870
  796MOL0     H 7398   4.350   0.431   0.847 -2.6190  1.2442  1.6312
  796MOL0     H 7399   4.218   0.237   0.716  1.7376 -0.9401 -2.9832
  796MOL0     H 7400   4.284   0.128   0.836 -0.6757 -0.8565 -1.2332
  796MOL0     H 7401   4.403   0.111   0.645  1.3187 -1.5343  2.4265
  796MOL0     H 7402   4.432   0.287   0.624  2.2464 -0.0647  0.0941
  796MOL0     H 7403   4.579   0.275   0.823 -0.7246 -0.8894  1.7640
  796MOL0     H 7404   4.554   0.100   0.834  1.6604 -0.8705 -1.1101
  796MOL0     H 7405   4.647   0.055   0.616  1.8327  0.6844 -2.9948
  796MOL0     H 7406   4.664   0.226   0.584 -1.0415 -1.3297 -0.6396
  796MOL0     H 7407   4.820   0.254   0.778  2.7124 -1.0112  1.1075
  796MOL0     H 7408   4.871   0.134   0.671  0.8547  1.4794 -0.3779
  796MOL0     H 7409   4.753   0.089   0.938  0.9295 -2.5520  1.7625
  796MOL0     H 7410   4.823  -0.042   0.853 -0.9093 -0.0522  1.7053
  796MOL0     H 7411   5.054  -0.091   0.943 -0.5378 -0.2833 -0.7492
  796MOL0     H 7412   5.301   0.080   1.146  1.1314 -0.4458  0.4761
  796MOL0     H 7413   5.313  -0.060   1.035  1.5252  0.4676 -1.9843
  796MOL0     H 7414   5.414   0.219   0.985  3.3478  0.3183  0.0559
  796MOL0     H 7415   5.506   0.069   1.013  0.2283  3.9846  1.9473
  796MOL0     H 7416   5.333   0.125   0.776 -0.1473  0.3862 -0.4645
  796MOL0     H 7417   5.419  -0.022   0.806  0.9687 -0.2475  1.4055
  796MOL0     H 7418   5.643   0.089   0.784  0.3789  1.2527 -0.1412
  796MOL0     H 7419   5.542   0.247   0.766 -3.1537  0.5991 -1.0733
  796MOL0     H 7420   5.778   0.206   0.642 -0.3547 -1.5227  1.1431
  796MOL0     H 7421   5.948   0.162   0.476  0.3683 -0.3130 -1.6718
  796MOL0     H 7422   6.279   0.230   0.195  1.8583 -0.4157  0.2702
  796MOL0     H 7423   6.461   0.144   0.034 -0.0699 -0.6521 -4.2219
  796MOL0     H 7424   6.459  -0.284  -0.090  1.7245  0.5700  0.5294
  796MOL0     H 7425   6.401  -0.209  -0.234  0.0296 -1.5822 -1.7075
  796MOL0     H 7426   6.653  -0.130  -0.261 -0.2951 -0.0579  0.4189
  796MOL0     H 7427   6.694  -0.203  -0.120  1.9097  1.5467 -1.8009
  796MOL0     H 7428   6.621  -0.437  -0.205  1.8276  0.2857  0.9051
  796MOL0     H 7429   6.576  -0.360  -0.361 -0.2050 -1.8117  0.0589
  796MOL0     H 7430   6.852  -0.320  -0.259 -1.3408  2.3067  0.9837
  796MOL0     H 7431   6.798  -0.278  -0.408 -1.8899  3.1319  3.0150
  796MOL0     H 7432   6.756  -0.512  -0.465 -2.9111 -0.7564  2.8988
  796MOL0     H 7433   6.814  -0.572  -0.308 -1.0070  2.5252  1.5591
  796MOL0     H 7434   6.984  -0.591  -0.487 -0.0306  1.0041 -1.5355
  796MOL0     H 7435   6.968  -0.416  -0.513 -0.8054  0.2575  0.4717
  796MOL0     H 7436   7.033  -0.528  -0.229 -2.1434  0.7781  0.4663
  796MOL0     H 7437   7.097  -0.375  -0.294 -0.9927 -0.3192  0.4066
  796MOL0     H 7438   7.280  -0.533  -0.269  1.1139 -1.5224 -0.2391
  796MOL0     H 7439   7.202  -0.648  -0.374  2.4493  0.0471 -0.1053
  796MOL0     H 7440   6.249  -0.218  -0.021 -2.8032  0.3038 -1.4945
  796MOL0     H 7441   6.071  -0.145   0.142 -1.1153  1.4654  1.1050
  796MOL0     H 7442   5.667  -0.041   0.228  1.2243  2.0605 -2.7524
  796MOL0     H 7443   5.488   0.023   0.404 -0.0533 -3.5921 -1.1153
  796MOL0     H 7444   3.993   0.233   1.251 -2.8010  2.6583  1.4317
  796MOL0     H 7445   3.764   0.216   1.269  2.8082  0.2160  0.7390
  796MOL0     H 7446   3.396   0.076   1.146 -2.1304 -1.1150 -0.7381
  796MOL0     H 7447   3.166   0.027   1.227  0.3441 -0.1619  0.6281
  796MOL0     H 7448   2.857   0.257   1.134  2.5729 -2.1053 -0.5204
  796MOL0     H 7449   2.883   0.353   1.283 -0.1090  0.1192 -2.2327
  796MOL0     H 7450   2.754   0.200   1.401 -0.6919  0.5481 -0.4130
  796MOL0     H 7451   2.761   0.081   1.263  0.5987 -0.6867  0.8828
  796MOL0     H 7452   2.625   0.201   1.112 -0.3808  2.7141 -1.1941
  796MOL0     H 7453   2.622   0.347   1.212 -1.4050  0.8141 -0.3996
  796MOL0     H 7454   2.495   0.087   1.277  2.3363  0.7433 -3.9080
  796MOL0     H 7455   2.505   0.228   1.391  0.3800  2.8596 -0.3132
  796MOL0     H 7456   2.181   0.311   1.124 -1.0896 -0.8091  1.6185
  796MOL0     H 7457   3.057   0.436   1.204  1.1407  2.6255 -2.0630
  796MOL0     H 7458   3.212   0.599   1.154  0.2850  0.2303 -1.1774
  796MOL0     H 7459   3.377   0.566   1.217  1.5566  1.8970 -1.5357
  796MOL0     H 7460   3.356   0.554   1.046 -3.1444 -2.6988 -1.9328
  797MOL0     O 7461   7.335   1.899   2.377 -0.6155 -0.4378  0.1956
  797MOL0     C 7462   7.274   1.814   2.311 -1.0410  1.5097 -0.7166
  797MOL0     O 7463   7.333   1.688   2.287  0.0342  1.1195  0.8569
  797MOL0     C 7464   7.429   1.640   2.376 -1.0234 -0.5331  0.0249
  797MOL0     C 7465   7.405   1.635   2.515  0.2371 -0.3210 -0.1334
  797MOL0     C 7466   7.499   1.569   2.590 -1.0873  0.6369  0.0292
  797MOL0     C 7467   7.621   1.519   2.537 -0.8076  0.7068 -0.3063
  797MOL0     O 7468   7.716   1.440   2.614 -0.0930  0.0241 -0.3193
  797MOL0     C 7469   7.741   1.478   2.753  0.0263  0.1274 -0.4882
  797MOL0     C 7470   7.869   1.409   2.788 -0.3114  0.0566  0.2969
  797MOL0     C 7471   7.982   1.458   2.700 -0.9418 -0.0574  0.4804
  797MOL0     C 7472   8.128   1.418   2.766  0.4183 -0.6427  0.2748
  797MOL0     C 7473   8.240   1.444   2.664 -0.4227  0.3642 -0.3250
  797MOL0     C 7474   8.370   1.430   2.740  0.4788 -0.9969  0.9921
  797MOL0     C 7475   8.492   1.429   2.647 -0.1892  0.0811 -0.5224
  797MOL0     C 7476   8.610   1.496   2.721  0.6878 -0.1704 -0.0875
  797MOL0     N 7477   8.715   1.561   2.638  0.0291  1.0122 -0.3845
  797MOL0     C 7478   8.787   1.490   2.544 -0.0984 -0.2727 -0.1841
  797MOL0     C 7479   8.862   1.588   2.477 -0.1978 -0.9320  0.6704
  797MOL0     C 7480   8.963   1.579   2.370  0.4491 -0.0244  0.1488
  797MOL0     C 7481   9.108   1.610   2.411  0.0107  0.2433  0.3660
  797MOL0     C 7482   9.215   1.598   2.300  0.5896  0.4837 -1.1716
  797MOL0     C 7483   9.354   1.629   2.373  1.3046  0.3358 -0.4902
  797MOL0     O 7484   9.453   1.626   2.271 -0.2297 -0.1393 -0.4475
  797MOL0     C 7485   9.579   1.640   2.320  0.3499  0.0430 -0.2917
  797MOL0     C 7486   9.634   1.619   2.451  0.6989  0.7916  0.3978
  797MOL0     C 7487   9.771   1.633   2.476 -0.3137 -0.5162 -0.0764
  797MOL0     C 7488   9.851   1.662   2.367 -0.0328 -0.0931  0.5594
  797MOL0     C 7489   9.994   1.663   2.383 -1.4222 -1.1449 -0.0942
  797MOL0     O 7490  10.037   1.712   2.506  0.2095 -0.0496  0.0296
  797MOL0     C 7491  10.167   1.666   2.534  0.9474 -0.1762  0.2283
  797MOL0     C 7492  10.209   1.530   2.531  0.4031 -0.1465 -0.1670
  797MOL0     C 7493  10.342   1.499   2.564 -0.7497 -0.4809  0.5667
  797MOL0     C 7494  10.426   1.605   2.610 -0.3672  0.6341  0.0952
  797MOL0     O 7495  10.559   1.594   2.646  0.2501  0.1365 -0.5182
  797MOL0     C 7496  10.613   1.462   2.646 -0.1524 -0.1257 -0.2020
  797MOL0     C 7497  10.773   1.487   2.649  0.0926  0.2739 -0.2388
  797MOL0     C 7498  10.817   1.606   2.562 -0.4721 -0.8838 -0.1614
  797MOL0     C 7499  10.773   1.595   2.416 -0.4007  0.8051 -0.0333
  797MOL0     C 7500  10.871   1.651   2.309 -0.3453 -0.4352 -0.0696
  797MOL0     C 7501  10.817   1.645   2.172 -0.2350  0.0676 -0.3194
  797MOL0     C 7502  10.913   1.693   2.051 -0.4692  0.2349  0.4221
  797MOL0     C 7503  10.869   1.612   1.935 -0.2511 -0.7910  0.3335
  797MOL0    Cl 7504  10.703   1.624   1.892  0.0765  0.2322 -0.1394
  797MOL0     C 7505  10.381   1.734   2.618  0.4648 -0.6596 -0.9096
  797MOL0     C 7506  10.254   1.769   2.576 -0.2194  0.0057  0.0086
  797MOL0     O 7507  10.071   1.630   2.294  0.3337 -0.0269 -0.1949
  797MOL0     C 7508   9.805   1.684   2.232 -0.9261  0.6321 -0.4464
  797MOL0     C 7509   9.666   1.673   2.220  0.3681  0.5307  0.1377
  797MOL0     N 7510   8.840   1.710   2.542 -0.8742  0.9957  0.2990
  797MOL0     N 7511   8.761   1.689   2.637  0.4363  0.0300  0.1442
  797MOL0     C 7512   7.644   1.545   2.397 -0.4439  0.1686  0.0974
  797MOL0     C 7513   7.542   1.599   2.318  0.1824  0.0204 -0.2246
  797MOL0     C 7514   7.148   1.845   2.248  0.9621  0.9668 -0.3820
  797MOL0     C 7515   7.113   1.982   2.240  0.3039 -0.1362 -0.1998
  797MOL0     C 7516   6.993   2.019   2.185  0.9657  0.4680 -0.5329
  797MOL0     C 7517   6.901   1.927   2.132 -0.0117  0.1763  0.0681
  797MOL0     O 7518   6.786   1.980   2.084 -0.2424 -0.8621 -0.5401
  797MOL0     C 7519   6.680   1.905   2.019 -0.0176  0.1633  0.0897
  797MOL0     C 7520   6.592   1.833   2.129  1.0889  0.5398 -0.3807
  797MOL0     C 7521   6.541   1.688   2.094 -0.5068 -1.2299  0.3778
  797MOL0     C 7522   6.451   1.622   2.191  0.8890 -0.6995 -0.2450
  797MOL0     C 7523   6.306   1.665   2.196 -0.1466  0.3487 -0.6303
  797MOL0     C 7524   6.190   1.706   2.205 -0.5236 -0.1209 -0.2351
  797MOL0     C 7525   6.938   1.792   2.136  0.3672  0.7835  0.1308
  797MOL0     C 7526   7.051   1.742   2.203 -0.0676 -0.1474 -0.2000
  797MOL0     C 7527   7.076   1.594   2.216 -0.2659 -0.0624  0.1053
  797MOL0     H 7528   7.316   1.674   2.563  1.7429  1.2786  1.5112
  797MOL0     H 7529   7.483   1.547   2.695  1.0801  2.6560  0.8831
  797MOL0     H 7530   7.743   1.585   2.773 -2.2153 -0.1327  1.6982
  797MOL0     H 7531   7.663   1.430   2.814 -0.0671  0.8979  0.0140
  797MOL0     H 7532   7.862   1.300   2.783  3.3265 -0.2546 -1.0160
  797MOL0     H 7533   7.889   1.419   2.895  1.2860 -3.8769  0.5120
  797MOL0     H 7534   7.980   1.567   2.699  0.4506 -0.0101  0.0318
  797MOL0     H 7535   7.982   1.423   2.596  1.9577  0.0936  0.3575
  797MOL0     H 7536   8.126   1.477   2.858 -3.6585 -0.3442  0.1718
  797MOL0     H 7537   8.125   1.315   2.802 -0.5913  0.3702  3.3793
  797MOL0     H 7538   8.237   1.378   2.577 -0.2392  1.1330 -0.9250
  797MOL0     H 7539   8.236   1.544   2.621  0.2865  1.3477  1.7569
  797MOL0     H 7540   8.372   1.518   2.806  0.4013  1.6579 -2.2908
  797MOL0     H 7541   8.373   1.342   2.805  0.7601 -1.5738  0.2038
  797MOL0     H 7542   8.465   1.493   2.562 -0.4515 -1.2946 -1.5093
  797MOL0     H 7543   8.512   1.328   2.610 -1.6312 -1.9325  3.5628
  797MOL0     H 7544   8.573   1.587   2.770  0.5525 -0.0632 -0.3780
  797MOL0     H 7545   8.639   1.425   2.798 -2.3860 -1.5063  0.0142
  797MOL0     H 7546   8.783   1.383   2.523  1.0201 -0.8009  1.9920
  797MOL0     H 7547   8.965   1.479   2.324 -0.5115 -0.2125  0.4866
  797MOL0     H 7548   8.933   1.650   2.292  2.4587  1.2623  0.4624
  797MOL0     H 7549   9.104   1.710   2.456 -2.1850  1.0812 -1.4782
  797MOL0     H 7550   9.144   1.545   2.491 -1.8456  2.2933  3.0514
  797MOL0     H 7551   9.203   1.656   2.209  0.1333 -2.3933 -3.0862
  797MOL0     H 7552   9.226   1.494   2.268  1.6313  0.1882  0.0533
  797MOL0     H 7553   9.359   1.550   2.449 -2.7167 -0.8833 -1.2417
  797MOL0     H 7554   9.352   1.722   2.430  0.0484 -1.5020  2.7175
  797MOL0     H 7555   9.569   1.595   2.533 -0.0260  0.6755 -0.1977
  797MOL0     H 7556   9.808   1.606   2.575 -0.1002  2.1627  0.6563
  797MOL0     H 7557  10.136   1.453   2.507  2.0933 -1.1856 -2.2988
  797MOL0     H 7558  10.375   1.396   2.552  0.9858  0.1970 -0.9648
  797MOL0     H 7559  10.584   1.415   2.740 -0.4071 -3.5034 -1.8120
  797MOL0     H 7560  10.583   1.396   2.563 -3.3566  2.1079 -0.9950
  797MOL0     H 7561  10.812   1.502   2.750  0.5250 -3.5044  0.3232
  797MOL0     H 7562  10.823   1.397   2.612 -0.2037 -0.0219  0.0693
  797MOL0     H 7563  10.781   1.700   2.604  2.4425  0.9517 -1.4819
  797MOL0     H 7564  10.925   1.619   2.569 -0.5872 -0.4621  1.0330
  797MOL0     H 7565  10.679   1.651   2.403  0.4326  1.7204 -2.7164
  797MOL0     H 7566  10.740   1.495   2.389  0.4850  0.3425  0.5697
  797MOL0     H 7567  10.962   1.590   2.317  0.7900  1.2217  0.0431
  797MOL0     H 7568  10.889   1.754   2.340  0.4947  0.2211 -2.5512
  797MOL0     H 7569  10.784   1.545   2.143  1.7685  0.4191 -4.6494
  797MOL0     H 7570  10.723   1.702   2.168 -2.4627 -2.5883  4.8064
  797MOL0     H 7571  11.020   1.677   2.068 -0.2822 -1.4133 -1.7070
  797MOL0     H 7572  10.906   1.799   2.028 -1.4896  0.1348  0.2223
  797MOL0     H 7573  10.925   1.636   1.844  0.4192 -2.4774  0.2658
  797MOL0     H 7574  10.895   1.509   1.959 -0.2858 -1.2588 -1.5069
  797MOL0     H 7575  10.446   1.809   2.662 -1.8717 -0.2787  2.2279
  797MOL0     H 7576  10.213   1.869   2.573  1.6265  0.8268  0.7270
  797MOL0     H 7577   9.881   1.710   2.159  1.1055 -1.7815  0.6480
  797MOL0     H 7578   9.624   1.689   2.121 -1.7006 -1.1376  0.6687
  797MOL0     H 7579   7.727   1.506   2.339 -0.6564  0.0555 -0.1328
  797MOL0     H 7580   7.557   1.607   2.210 -1.7005  0.6408 -0.4723
  797MOL0     H 7581   7.179   2.060   2.275 -0.5594  1.1986 -1.4278
  797MOL0     H 7582   6.977   2.126   2.178 -0.5449  0.1955 -1.8808
  797MOL0     H 7583   6.716   1.839   1.939  3.7621  0.8877  0.9806
  797MOL0     H 7584   6.626   1.984   1.966  2.4823  0.9375 -1.4846
  797MOL0     H 7585   6.512   1.904   2.150 -0.8540 -0.9044 -2.4582
  797MOL0     H 7586   6.656   1.822   2.218  0.7026  2.2051  0.1286
  797MOL0     H 7587   6.622   1.616   2.077 -0.8781 -2.6187  3.7714
  797MOL0     H 7588   6.474   1.689   2.007 -1.6136  0.6824  1.1931
  797MOL0     H 7589   6.448   1.515   2.169  1.3174 -0.5306 -1.1444
  797MOL0     H 7590   6.470   1.646   2.296 -1.0325  0.7385 -0.1646
  797MOL0     H 7591   6.091   1.743   2.223  0.6302  2.4690  1.3726
  797MOL0     H 7592   6.863   1.732   2.084  0.3010  1.6937 -0.8502
  797MOL0     H 7593   7.150   1.558   2.144  1.8791 -0.9845  2.5850
  797MOL0     H 7594   7.126   1.573   2.312  0.6507  0.0846 -0.3261
  797MOL0     H 7595   6.983   1.537   2.209 -0.6089  0.6305 -1.3676
  798MOL0     O 7596   0.337   3.440   4.663  0.5639 -0.0573  0.1574
  798MOL0     C 7597   0.279   3.334   4.698 -1.1348  0.2154 -0.3769
  798MOL0     O 7598   0.284   3.292   4.828  0.4665 -0.6085 -0.1232
  798MOL0     C 7599   0.375   3.371   4.907 -0.4456  0.7514  0.9498
  798MOL0     C 7600   0.335   3.485   4.979 -0.6285  0.6645 -0.4326
  798MOL0     C 7601   0.414   3.560   5.058 -0.3680  0.0704 -0.2186
  798MOL0     C 7602   0.557   3.524   5.069 -0.1219 -0.3887 -0.8065
  798MOL0     O 7603   0.649   3.591   5.155  0.9485 -0.3350 -0.0298
  798MOL0     C 7604   0.612   3.729   5.193  0.0376  0.1786 -0.4586
  798MOL0     C 7605   0.725   3.805   5.248  0.8506  0.4939 -0.6771
  798MOL0     C 7606   0.706   3.958   5.278  0.5823 -0.4670 -0.3076
  798MOL0     C 7607   0.630   3.983   5.401  0.7373  0.3830  0.8954
  798MOL0     C 7608   0.641   4.132   5.418 -0.6112  0.1574 -0.4506
  798MOL0     C 7609   0.562   4.179   5.540  0.0010  0.3258  0.0418
  798MOL0     C 7610   0.597   4.332   5.562 -0.3628  0.4757 -0.9934
  798MOL0     C 7611   0.511   4.393   5.671  0.2076 -0.1757 -0.1675
  798MOL0     N 7612   0.525   4.536   5.646  0.1456  0.6927 -0.3201
  798MOL0     C 7613   0.638   4.614   5.658 -0.3994  0.0746  1.5241
  798MOL0     C 7614   0.603   4.734   5.608  0.0760 -0.3928  0.3820
  798MOL0     C 7615   0.696   4.850   5.585  0.3791 -0.7141  0.1281
  798MOL0     C 7616   0.707   4.877   5.432  0.4022  0.3521  0.1084
  798MOL0     C 7617   0.752   5.019   5.389 -0.5881 -0.0673 -0.7086
  798MOL0     C 7618   0.894   5.043   5.442  0.1124  0.5547  0.1794
  798MOL0     O 7619   0.940   5.176   5.397 -0.6676 -0.2056  0.5995
  798MOL0     C 7620   1.074   5.202   5.431  0.1383 -1.2007  0.3500
  798MOL0     C 7621   1.182   5.114   5.413  0.5235  0.3309 -0.0451
  798MOL0     C 7622   1.311   5.167   5.427 -0.0901 -0.5864 -0.9003
  798MOL0     C 7623   1.336   5.301   5.469  0.1348  0.0481  0.0209
  798MOL0     C 7624   1.473   5.357   5.488  0.9887  0.0888 -0.4825
  798MOL0     O 7625   1.572   5.256   5.488 -0.7646  0.4273 -0.9304
  798MOL0     C 7626   1.694   5.298   5.524 -0.1913  0.1861  0.4297
  798MOL0     C 7627   1.742   5.364   5.642 -0.4570  0.3622  0.1135
  798MOL0     C 7628   1.875   5.408   5.641 -0.2788 -0.4065  0.3603
  798MOL0     C 7629   1.970   5.386   5.540 -0.2512  0.1493  0.1436
  798MOL0     O 7630   2.099   5.436   5.559 -0.4546 -0.2049 -0.0117
  798MOL0     C 7631   2.209   5.357   5.502  0.1347  0.0565  0.1728
  798MOL0     C 7632   2.337   5.381   5.590 -1.1236  1.1869  0.0744
  798MOL0     C 7633   2.470   5.339   5.518  0.4157 -0.1546 -0.2626
  798MOL0     C 7634   2.586   5.325   5.620 -0.3138  0.4283  0.1586
  798MOL0     C 7635   2.715   5.352   5.542 -0.0624 -0.1970  0.5519
  798MOL0     C 7636   2.841   5.309   5.624  1.2606 -0.0013  0.2985
  798MOL0     C 7637   2.971   5.351   5.551 -0.1932 -0.1807  0.4191
  798MOL0     C 7638   3.013   5.497   5.539 -0.3543  0.1181 -0.3526
  798MOL0    Cl 7639   3.043   5.556   5.697  0.1569 -0.3888 -0.5135
  798MOL0     C 7640   1.922   5.306   5.431  0.6718  0.2728  0.7180
  798MOL0     C 7641   1.786   5.261   5.429 -1.4775 -0.2245  0.2921
  798MOL0     O 7642   1.494   5.481   5.496 -0.4156  0.4556 -0.1134
  798MOL0     C 7643   1.223   5.388   5.484 -0.9295  0.6256  0.3526
  798MOL0     C 7644   1.099   5.333   5.467 -0.3723 -0.4387  0.3120
  798MOL0     N 7645   0.470   4.732   5.569  0.0492  0.4291  0.4420
  798MOL0     N 7646   0.427   4.608   5.587  0.4573  0.3434 -0.7273
  798MOL0     C 7647   0.596   3.410   5.003  0.4978  0.7096  0.6928
  798MOL0     C 7648   0.512   3.335   4.921  0.3201 -0.2709  0.3120
  798MOL0     C 7649   0.177   3.271   4.605 -0.0598  0.1021  0.0772
  798MOL0     C 7650   0.072   3.195   4.663  0.3362 -1.0648 -0.7587
  798MOL0     C 7651  -0.026   3.136   4.586 -0.7761 -0.5741  0.2268
  798MOL0     C 7652  -0.032   3.144   4.448 -0.6906 -0.2358  0.5271
  798MOL0     O 7653  -0.135   3.075   4.381 -0.2094  0.2480 -0.0280
  798MOL0     C 7654  -0.134   3.059   4.240  0.0618 -0.4847 -0.3785
  798MOL0     C 7655  -0.239   2.965   4.198  0.1197 -0.3604 -0.3116
  798MOL0     C 7656  -0.249   2.969   4.048  0.1931 -0.8702  1.2232
  798MOL0     C 7657  -0.375   2.888   4.000 -0.4892  0.2109 -0.1812
  798MOL0     C 7658  -0.499   2.959   4.041  0.1933 -0.2292 -0.0477
  798MOL0     C 7659  -0.609   3.009   4.041 -0.4708  0.5334  0.8593
  798MOL0     C 7660   0.068   3.217   4.385 -0.6480 -0.7270 -0.0183
  798MOL0     C 7661   0.173   3.286   4.460 -0.4099  0.3853  0.4332
  798MOL0     C 7662   0.269   3.363   4.387  0.4081 -0.0815  0.3989
  798MOL0     H 7663   0.237   3.531   4.973 -0.8946  0.5953  2.3173
  798MOL0     H 7664   0.367   3.646   5.106  1.3936  0.6848  0.5123
  798MOL0     H 7665   0.565   3.778   5.107  0.4321  3.0549  0.8710
  798MOL0     H 7666   0.544   3.728   5.279  1.6127  0.8238  0.8492
  798MOL0     H 7667   0.802   3.800   5.171  1.6589  0.0343  0.1439
  798MOL0     H 7668   0.765   3.750   5.334 -1.4974 -0.1465  0.1022
  798MOL0     H 7669   0.663   4.002   5.187  0.8068 -0.4146 -0.3908
  798MOL0     H 7670   0.804   4.000   5.301  0.4521 -0.9272  1.2015
  798MOL0     H 7671   0.529   3.951   5.373  0.9467  2.6826 -3.3436
  798MOL0     H 7672   0.676   3.928   5.484 -0.0455 -0.3466  0.8602
  798MOL0     H 7673   0.745   4.166   5.421 -0.7722  1.0337 -2.9148
  798MOL0     H 7674   0.596   4.181   5.332 -3.6163  0.1144  0.9640
  798MOL0     H 7675   0.453   4.168   5.537  0.0064 -0.2608  1.3358
  798MOL0     H 7676   0.592   4.118   5.626  2.0573 -1.1986 -1.6611
  798MOL0     H 7677   0.573   4.383   5.468  0.5019  1.7476 -0.5668
  798MOL0     H 7678   0.702   4.343   5.592 -0.7388 -0.7495  0.8970
  798MOL0     H 7679   0.410   4.370   5.637  0.5472 -0.9150 -0.7151
  798MOL0     H 7680   0.525   4.367   5.776  1.1558 -0.8525 -0.4492
  798MOL0     H 7681   0.736   4.591   5.698 -0.2312 -0.4216  0.8647
  798MOL0     H 7682   0.647   4.931   5.640  2.1517  1.4198 -1.2699
  798MOL0     H 7683   0.796   4.844   5.628  0.1789  0.8992  0.9071
  798MOL0     H 7684   0.753   4.795   5.376 -4.2350 -0.4436 -3.1837
  798MOL0     H 7685   0.602   4.868   5.402  0.7955 -0.2177 -1.2002
  798MOL0     H 7686   0.686   5.098   5.426  1.9028  1.9701 -0.3531
  798MOL0     H 7687   0.733   5.030   5.282 -5.5545  0.2341 -0.0426
  798MOL0     H 7688   0.951   4.962   5.396  2.1434  2.0029 -0.0099
  798MOL0     H 7689   0.900   5.028   5.550  0.6643  2.5302  0.4643
  798MOL0     H 7690   1.163   5.010   5.388  0.3445  0.2624  0.3845
  798MOL0     H 7691   1.392   5.095   5.416 -0.1022 -0.7109 -0.1899
  798MOL0     H 7692   1.681   5.376   5.732  0.3824  1.9776  0.4877
  798MOL0     H 7693   1.918   5.444   5.734 -2.2029  1.1613  0.7182
  798MOL0     H 7694   2.182   5.251   5.508 -0.2863  0.2184  1.4950
  798MOL0     H 7695   2.222   5.395   5.401 -0.6814 -2.3949 -0.9313
  798MOL0     H 7696   2.337   5.483   5.629 -0.9230  0.3045  2.6011
  798MOL0     H 7697   2.336   5.317   5.679 -0.8948 -1.5421 -1.7539
  798MOL0     H 7698   2.457   5.243   5.467 -4.5162  0.7802 -1.2403
  798MOL0     H 7699   2.496   5.413   5.442  0.6908  0.6181  0.5791
  798MOL0     H 7700   2.573   5.230   5.673 -3.7029  0.2515 -0.7178
  798MOL0     H 7701   2.580   5.399   5.700 -1.2108  0.2769  0.2410
  798MOL0     H 7702   2.723   5.449   5.492 -0.0599 -0.8307 -0.6987
  798MOL0     H 7703   2.714   5.284   5.457  1.7142  0.9253 -0.4455
  798MOL0     H 7704   2.830   5.351   5.724 -1.1035  1.4545 -0.4767
  798MOL0     H 7705   2.835   5.202   5.646  0.9423 -0.1637 -0.5288
  798MOL0     H 7706   2.969   5.317   5.448 -1.6980  0.1871  0.2997
  798MOL0     H 7707   3.048   5.298   5.608  0.8757 -0.2165 -1.0190
  798MOL0     H 7708   3.104   5.491   5.478  1.1353 -1.1564  1.8598
  798MOL0     H 7709   2.928   5.554   5.500 -1.7050 -0.9941  0.8552
  798MOL0     H 7710   1.971   5.267   5.343 -2.2812  1.2608 -1.5153
  798MOL0     H 7711   1.763   5.190   5.351  1.9001 -1.5092  0.3006
  798MOL0     H 7712   1.241   5.490   5.516  2.9383  0.3812 -0.5821
  798MOL0     H 7713   1.015   5.397   5.492  1.2091  3.1806 -2.6502
  798MOL0     H 7714   0.697   3.371   5.013  1.5708  3.0864 -0.0992
  798MOL0     H 7715   0.553   3.248   4.871  1.7608 -0.4452  1.7304
  798MOL0     H 7716   0.067   3.160   4.765 -1.9186  1.8206  0.2616
  798MOL0     H 7717  -0.098   3.070   4.635 -1.8210  2.4132  3.1064
  798MOL0     H 7718  -0.036   3.024   4.207  1.3094  1.6080  0.8537
  798MOL0     H 7719  -0.152   3.161   4.203 -0.2241 -0.3795  0.0468
  798MOL0     H 7720  -0.332   2.983   4.253  0.1271  0.8017 -0.6397
  798MOL0     H 7721  -0.220   2.864   4.235  2.8447 -0.9507 -2.9215
  798MOL0     H 7722  -0.158   2.928   4.004  0.1335 -0.9368  1.1605
  798MOL0     H 7723  -0.242   3.069   4.003  1.2601 -2.5466 -2.6975
  798MOL0     H 7724  -0.376   2.882   3.890 -1.7774  0.7353 -0.2159
  798MOL0     H 7725  -0.389   2.784   4.030 -4.3772  0.5154 -0.4741
  798MOL0     H 7726  -0.715   3.028   4.039 -0.6421 -0.2906 -1.6038
  798MOL0     H 7727   0.067   3.232   4.278 -0.4686  0.5351  0.1431
  798MOL0     H 7728   0.287   3.461   4.433  3.6080  0.7042 -2.1546
  798MOL0     H 7729   0.364   3.308   4.381 -0.1403 -1.0258  0.1737
  798MOL0     H 7730   0.232   3.363   4.284 -0.0761 -1.1076  0.5568
  799MOL0     O 7731   4.787   2.608   9.512  0.4491  0.4358  0.3986
  799MOL0     C 7732   4.824   2.492   9.547 -0.5233  0.2340 -0.2866
  799MOL0     O 7733   4.937   2.442   9.510 -0.1647 -0.2329  0.1097
  799MOL0     C 7734   5.043   2.512   9.476 -0.2173  1.0135  0.4101
  799MOL0     C 7735   5.145   2.432   9.429  0.2611  0.7068  0.3479
  799MOL0     C 7736   5.264   2.482   9.384 -0.5222  0.6901  0.3546
  799MOL0     C 7737   5.290   2.620   9.406 -0.8735  0.3623  0.2510
  799MOL0     O 7738   5.410   2.675   9.370 -0.4352 -0.2620 -0.8929
  799MOL0     C 7739   5.469   2.785   9.449  0.0554  1.0087 -0.7435
  799MOL0     C 7740   5.616   2.782   9.425  0.2053  0.9451 -0.7474
  799MOL0     C 7741   5.664   2.839   9.289 -0.1649  0.4139  0.0676
  799MOL0     C 7742   5.816   2.836   9.270  0.0326  0.3136  0.4615
  799MOL0     C 7743   5.860   2.881   9.127 -0.0250 -0.0796 -0.1175
  799MOL0     C 7744   5.847   3.039   9.118  1.1510  0.1190 -0.1391
  799MOL0     C 7745   5.925   3.104   9.008 -0.0841  0.5247 -1.1202
  799MOL0     C 7746   5.849   3.212   8.932 -1.1056  0.1334  0.2181
  799MOL0     N 7747   5.938   3.325   8.894  0.2110  0.3093  0.5045
  799MOL0     C 7748   6.038   3.386   8.960  0.1880 -0.2004 -0.2108
  799MOL0     C 7749   6.094   3.466   8.867  0.4699 -0.3298  0.1891
  799MOL0     C 7750   6.196   3.572   8.888 -0.3380 -0.3542 -0.7580
  799MOL0     C 7751   6.338   3.521   8.861 -0.2631 -0.9856  0.0853
  799MOL0     C 7752   6.451   3.627   8.827  0.5274  0.0757 -0.1250
  799MOL0     C 7753   6.592   3.550   8.793  0.0064 -0.4909  0.1908
  799MOL0     O 7754   6.681   3.652   8.742 -0.3087  0.5109  0.6067
  799MOL0     C 7755   6.784   3.604   8.665  0.5058  0.0590 -0.3861
  799MOL0     C 7756   6.839   3.468   8.684  0.3422 -0.1192 -1.1740
  799MOL0     C 7757   6.940   3.423   8.597  0.1921 -0.8351  0.9346
  799MOL0     C 7758   6.982   3.500   8.491 -0.3318 -0.5710  0.1701
  799MOL0     C 7759   7.086   3.445   8.405 -0.2392 -0.0450  0.4727
  799MOL0     O 7760   7.167   3.346   8.458 -0.4134 -0.9424 -0.1623
  799MOL0     C 7761   7.271   3.310   8.384 -0.7411 -0.3436  0.2373
  799MOL0     C 7762   7.408   3.334   8.430 -0.0926 -0.7248 -0.7947
  799MOL0     C 7763   7.510   3.270   8.364  0.4802 -0.7415  0.0744
  799MOL0     C 7764   7.492   3.202   8.247 -0.0588 -0.2277  0.1262
  799MOL0     O 7765   7.595   3.145   8.175 -0.2054  0.8594 -0.0138
  799MOL0     C 7766   7.713   3.094   8.241 -0.3071  0.2961 -0.7803
  799MOL0     C 7767   7.738   2.944   8.223  0.1490 -0.4876  0.2239
  799MOL0     C 7768   7.786   2.917   8.080  0.9077 -0.0158 -0.3753
  799MOL0     C 7769   7.768   2.767   8.043 -0.1544  0.1669 -1.2205
  799MOL0     C 7770   7.841   2.736   7.914 -0.5467  0.1760 -0.4069
  799MOL0     C 7771   7.752   2.706   7.795 -0.6728  0.2600  0.0712
  799MOL0     C 7772   7.678   2.578   7.805 -0.3247 -0.0727  0.0575
  799MOL0     C 7773   7.555   2.574   7.711 -0.7391  0.4210  0.3451
  799MOL0    Cl 7774   7.450   2.705   7.767  0.1554  0.1641 -0.2947
  799MOL0     C 7775   7.363   3.182   8.201  0.2823  0.2885 -0.5342
  799MOL0     C 7776   7.251   3.231   8.271  0.4502 -0.8885  0.7386
  799MOL0     O 7777   7.090   3.494   8.294 -0.6399  0.1588 -0.5150
  799MOL0     C 7778   6.926   3.629   8.475 -0.4988  0.4417  1.3921
  799MOL0     C 7779   6.832   3.678   8.561  0.4746  0.3018  0.4193
  799MOL0     N 7780   6.023   3.446   8.746 -0.2736  0.8838  0.0689
  799MOL0     N 7781   5.928   3.366   8.768  0.2347  0.0375  0.6532
  799MOL0     C 7782   5.196   2.692   9.472 -0.1671 -0.0931 -0.0110
  799MOL0     C 7783   5.064   2.644   9.505 -0.0210 -0.4874  0.0560
  799MOL0     C 7784   4.713   2.398   9.585  0.0335  0.8163 -0.0025
  799MOL0     C 7785   4.749   2.260   9.589  0.3807  0.3932  0.1774
  799MOL0     C 7786   4.656   2.154   9.627 -0.8455 -0.2928 -0.4487
  799MOL0     C 7787   4.535   2.191   9.672 -0.0152  0.2499  0.3871
  799MOL0     O 7788   4.460   2.082   9.708 -0.2360 -0.3066 -0.1049
  799MOL0     C 7789   4.355   2.108   9.804 -0.5218  1.0029  0.0153
  799MOL0     C 7790   4.322   1.968   9.866  0.3408  0.8019 -0.3382
  799MOL0     C 7791   4.251   1.884   9.763  0.6630  0.2866 -0.1006
  799MOL0     C 7792   4.169   1.771   9.834 -0.0593  0.4916 -0.5307
  799MOL0     C 7793   4.257   1.682   9.916  0.9839  0.6541  0.3747
  799MOL0     C 7794   4.320   1.611   9.990 -0.0561 -0.2719 -0.8323
  799MOL0     C 7795   4.495   2.330   9.661 -0.3673  0.7368  0.5268
  799MOL0     C 7796   4.581   2.436   9.627  0.6629 -0.4090 -0.4020
  799MOL0     C 7797   4.530   2.574   9.655 -0.0787 -0.2255 -0.5085
  799MOL0     H 7798   5.115   2.329   9.414  0.9246  0.5894 -0.2251
  799MOL0     H 7799   5.339   2.423   9.330  0.2244  4.0898 -2.7545
  799MOL0     H 7800   5.427   2.885   9.436 -0.0371  1.4157  2.1714
  799MOL0     H 7801   5.449   2.761   9.553  0.8014  0.9929 -0.5960
  799MOL0     H 7802   5.644   2.677   9.435 -1.3991  0.5788  0.2387
  799MOL0     H 7803   5.665   2.831   9.509  0.9570 -0.2607 -0.4638
  799MOL0     H 7804   5.622   2.940   9.279 -2.5578 -0.5401 -0.3742
  799MOL0     H 7805   5.618   2.779   9.210 -2.9763 -2.6194  3.6513
  799MOL0     H 7806   5.861   2.899   9.347  0.0740  1.4860 -0.4929
  799MOL0     H 7807   5.825   2.729   9.288 -1.9258  0.1769  0.8760
  799MOL0     H 7808   5.967   2.857   9.125 -0.4106 -2.0183 -0.0841
  799MOL0     H 7809   5.816   2.828   9.042 -0.8600  1.3409 -0.5969
  799MOL0     H 7810   5.740   3.057   9.104  1.3535  2.1503  0.6100
  799MOL0     H 7811   5.869   3.092   9.211 -0.1786 -2.5767  1.8562
  799MOL0     H 7812   5.962   3.027   8.939 -0.6685  1.3659 -2.4014
  799MOL0     H 7813   6.007   3.158   9.055 -1.6714  1.9689  0.1236
  799MOL0     H 7814   5.806   3.172   8.840  0.7699 -0.3186 -0.5094
  799MOL0     H 7815   5.770   3.262   8.988  0.1755  4.4608 -1.4107
  799MOL0     H 7816   6.061   3.377   9.066  1.5242  1.6588 -0.2768
  799MOL0     H 7817   6.172   3.655   8.821 -1.3997  0.2732  0.3560
  799MOL0     H 7818   6.196   3.612   8.990  0.3812  2.4315 -1.7768
  799MOL0     H 7819   6.370   3.473   8.953  1.4878  1.3835  0.8101
  799MOL0     H 7820   6.330   3.457   8.773  0.0173 -2.1219  0.8683
  799MOL0     H 7821   6.480   3.690   8.912  1.4336 -1.4435  0.7533
  799MOL0     H 7822   6.426   3.692   8.743  0.6257 -0.3487 -0.4874
  799MOL0     H 7823   6.571   3.480   8.712  0.1619 -1.4435  0.9538
  799MOL0     H 7824   6.620   3.510   8.891 -0.0329 -1.2745 -0.1146
  799MOL0     H 7825   6.805   3.409   8.768  0.1491  1.3208 -0.1945
  799MOL0     H 7826   6.985   3.326   8.614  2.8764 -0.0104 -0.7325
  799MOL0     H 7827   7.415   3.394   8.521 -0.1728  0.5797 -1.6208
  799MOL0     H 7828   7.607   3.296   8.407  0.4598  2.0230 -1.3272
  799MOL0     H 7829   7.799   3.155   8.212 -1.4473  2.8354  0.8394
  799MOL0     H 7830   7.702   3.102   8.350 -2.7174 -1.2753 -0.8313
  799MOL0     H 7831   7.822   2.912   8.286  1.2934 -2.0605 -1.9660
  799MOL0     H 7832   7.649   2.889   8.253 -1.7801  1.8803 -0.7969
  799MOL0     H 7833   7.733   2.985   8.013 -1.2328  0.0231  1.2433
  799MOL0     H 7834   7.894   2.930   8.070  0.7869  0.6761 -0.8552
  799MOL0     H 7835   7.662   2.741   8.048 -0.0154 -0.2425  0.1065
  799MOL0     H 7836   7.816   2.705   8.120 -0.5874 -0.2746 -1.3066
  799MOL0     H 7837   7.894   2.641   7.922 -0.9720 -0.4291 -3.3788
  799MOL0     H 7838   7.915   2.812   7.885 -3.2316  2.5122 -1.7284
  799MOL0     H 7839   7.683   2.789   7.777  0.2725  0.9178 -0.6243
  799MOL0     H 7840   7.816   2.701   7.706 -0.8908  1.2776 -0.1516
  799MOL0     H 7841   7.649   2.564   7.909 -0.6352 -1.6683 -0.2104
  799MOL0     H 7842   7.733   2.486   7.778 -0.8872 -0.0576 -1.1818
  799MOL0     H 7843   7.589   2.604   7.612  1.1383 -1.2248  0.4222
  799MOL0     H 7844   7.506   2.476   7.708 -1.9665  1.0301 -2.3494
  799MOL0     H 7845   7.343   3.125   8.110  0.7748 -0.9100  0.0816
  799MOL0     H 7846   7.149   3.195   8.263  0.3872 -0.3562 -1.3201
  799MOL0     H 7847   6.959   3.694   8.394  0.9533 -0.5435  1.1514
  799MOL0     H 7848   6.788   3.776   8.542  3.7672  2.0593  1.1568
  799MOL0     H 7849   5.225   2.794   9.496  2.3911 -0.9413  0.7261
  799MOL0     H 7850   4.994   2.713   9.550  2.8973  2.1405  0.8829
  799MOL0     H 7851   4.846   2.216   9.568 -1.3526 -3.1621 -1.4486
  799MOL0     H 7852   4.693   2.052   9.629  2.7634  0.8857  1.0349
  799MOL0     H 7853   4.266   2.151   9.757 -0.6499  0.1592 -0.5440
  799MOL0     H 7854   4.394   2.170   9.885 -0.9691  0.5449  0.5901
  799MOL0     H 7855   4.262   1.978   9.957  2.3890 -2.1622  1.5190
  799MOL0     H 7856   4.424   1.937   9.890  0.0770  0.5862  0.5257
  799MOL0     H 7857   4.326   1.845   9.694 -0.6996 -0.7587 -1.0581
  799MOL0     H 7858   4.182   1.948   9.706 -1.0114 -0.7948  0.6597
  799MOL0     H 7859   4.089   1.813   9.897  0.8000  2.0606 -0.4431
  799MOL0     H 7860   4.114   1.714   9.759 -1.5467 -1.1950  1.7098
  799MOL0     H 7861   4.389   1.552  10.047 -1.3602 -0.6542  0.4282
  799MOL0     H 7862   4.394   2.360   9.685 -0.0419  2.9770 -0.6091
  799MOL0     H 7863   4.573   2.620   9.745 -2.8143 -0.3915  0.9690
  799MOL0     H 7864   4.549   2.641   9.571  0.3500  2.0425  1.3066
  799MOL0     H 7865   4.422   2.569   9.671 -0.2137  1.0469 -0.9281
  800MOL0     O 7866   7.167   3.683   6.230  0.3865 -0.1926  0.6905
  800MOL0     C 7867   7.048   3.699   6.262 -0.7992  0.1775 -0.9322
  800MOL0     O 7868   6.994   3.654   6.378  0.3649  0.1953 -0.3572
  800MOL0     C 7869   7.071   3.586   6.474  0.3121  0.4930 -0.0094
  800MOL0     C 7870   7.106   3.656   6.593  0.8265  0.1890 -0.1366
  800MOL0     C 7871   7.183   3.594   6.689 -0.6769  0.5909 -0.0272
  800MOL0     C 7872   7.233   3.459   6.674  0.7858 -0.4107  0.4355
  800MOL0     O 7873   7.311   3.399   6.769  0.3697  0.3454 -0.0329
  800MOL0     C 7874   7.411   3.487   6.820 -0.7529 -0.1623 -0.4257
  800MOL0     C 7875   7.514   3.406   6.899  0.2917 -0.7212 -0.0323
  800MOL0     C 7876   7.464   3.295   6.989  0.4742 -0.1401 -0.6516
  800MOL0     C 7877   7.582   3.249   7.076 -0.0814  0.0870 -0.1242
  800MOL0     C 7878   7.667   3.139   7.006  0.8111  0.3004  0.3245
  800MOL0     C 7879   7.775   3.083   7.081 -0.4654  0.2540 -0.1912
  800MOL0     C 7880   7.841   2.964   7.005 -0.6115  0.0687 -0.5603
  800MOL0     C 7881   7.972   2.918   7.074  0.2683  0.7424 -0.4674
  800MOL0     N 7882   8.091   3.005   7.049 -0.0961  0.0423  0.1079
  800MOL0     C 7883   8.144   3.051   6.926 -0.5016  0.7298 -0.2687
  800MOL0     C 7884   8.249   3.132   6.965 -0.1652 -0.5289  0.9972
  800MOL0     C 7885   8.349   3.187   6.865 -0.3894  0.6427  0.8385
  800MOL0     C 7886   8.338   3.341   6.834  0.6456  0.1675 -0.2765
  800MOL0     C 7887   8.298   3.447   6.939 -0.2963  0.0427  0.3824
  800MOL0     C 7888   8.417   3.477   7.031  0.9969 -0.9546  0.3542
  800MOL0     O 7889   8.515   3.550   6.961  0.2631  0.4670 -0.3453
  800MOL0     C 7890   8.645   3.520   6.992  0.0661 -0.9475 -0.2509
  800MOL0     C 7891   8.689   3.497   7.119  0.6958 -0.1783 -0.1820
  800MOL0     C 7892   8.829   3.476   7.154  0.9390  0.3742  0.8776
  800MOL0     C 7893   8.924   3.487   7.052  0.0686  0.5591  0.5412
  800MOL0     C 7894   9.073   3.499   7.091  0.6596 -0.0307 -0.4476
  800MOL0     O 7895   9.101   3.507   7.228 -0.0407 -0.5257 -0.4106
  800MOL0     C 7896   9.232   3.514   7.260 -0.5668 -0.4883 -0.0061
  800MOL0     C 7897   9.292   3.634   7.234  0.4618  0.5512  0.1868
  800MOL0     C 7898   9.421   3.664   7.267  0.0305  0.4164  0.9161
  800MOL0     C 7899   9.495   3.560   7.327  0.2041  0.4146  0.0416
  800MOL0     O 7900   9.623   3.595   7.355 -0.0376  0.7182 -1.0167
  800MOL0     C 7901   9.709   3.578   7.240 -0.3023  0.9441 -0.2864
  800MOL0     C 7902   9.826   3.680   7.253 -1.0401 -0.2974 -0.0931
  800MOL0     C 7903   9.929   3.672   7.144  0.0171 -0.6024  0.1687
  800MOL0     C 7904  10.071   3.705   7.190 -0.7355  0.4925 -1.1000
  800MOL0     C 7905  10.184   3.694   7.087 -0.3818 -0.2549 -0.2128
  800MOL0     C 7906  10.310   3.717   7.168  0.1537 -0.1847  0.2262
  800MOL0     C 7907  10.434   3.702   7.090 -0.1933  0.0925 -0.5188
  800MOL0     C 7908  10.550   3.728   7.176 -0.5159 -0.0437 -1.2346
  800MOL0    Cl 7909  10.707   3.713   7.089  0.3415  0.0095  0.1116
  800MOL0     C 7910   9.431   3.444   7.375 -0.5663 -0.4350 -0.6169
  800MOL0     C 7911   9.298   3.424   7.341 -0.0110 -0.0387 -0.8794
  800MOL0     O 7912   9.154   3.501   7.003 -0.3325  0.3775 -0.5666
  800MOL0     C 7913   8.875   3.515   6.921  0.0672 -0.0752 -0.9417
  800MOL0     C 7914   8.740   3.527   6.894  0.2437 -0.1946 -0.0284
  800MOL0     N 7915   8.253   3.134   7.101 -1.3390  0.0569  0.3886
  800MOL0     N 7916   8.157   3.069   7.146 -0.2096 -0.1131  0.1752
  800MOL0     C 7917   7.193   3.383   6.562  0.5772 -0.0320  0.3128
  800MOL0     C 7918   7.122   3.452   6.457  0.9450 -0.0729 -1.1858
  800MOL0     C 7919   6.948   3.746   6.158  0.1357 -0.3495 -0.5508
  800MOL0     C 7920   6.808   3.764   6.195  0.2481  0.2526  0.4215
  800MOL0     C 7921   6.712   3.805   6.105 -0.1201 -0.7367 -0.5663
  800MOL0     C 7922   6.752   3.838   5.975  0.0756  0.6984 -0.3935
  800MOL0     O 7923   6.662   3.877   5.879 -0.2682 -0.1411  0.2887
  800MOL0     C 7924   6.567   3.975   5.905 -0.6480 -0.3778 -0.1073
  800MOL0     C 7925   6.552   4.067   5.783 -0.8857  0.7438 -0.3001
  800MOL0     C 7926   6.511   3.993   5.657  0.3938  0.1272  0.9899
  800MOL0     C 7927   6.456   4.089   5.547  0.2438  0.4709 -0.0020
  800MOL0     C 7928   6.346   4.174   5.586 -0.3782  0.0437  0.0573
  800MOL0     C 7929   6.273   4.275   5.603  0.5732 -0.2411 -0.1279
  800MOL0     C 7930   6.880   3.815   5.932 -0.4381 -1.2751 -0.3262
  800MOL0     C 7931   6.981   3.769   6.019 -0.5268  0.4769 -0.2072
  800MOL0     C 7932   7.115   3.760   5.969 -0.0350  0.0393  0.1442
  800MOL0     H 7933   7.068   3.756   6.607 -1.0530 -0.1973 -1.8648
  800MOL0     H 7934   7.199   3.656   6.777  1.8984  1.3918 -0.9649
  800MOL0     H 7935   7.468   3.541   6.744 -0.7543 -0.6692 -0.7890
  800MOL0     H 7936   7.365   3.555   6.892  1.3108  0.4195  0.4254
  800MOL0     H 7937   7.573   3.481   6.953 -1.2059 -0.6907  1.6432
  800MOL0     H 7938   7.584   3.361   6.829 -1.0389  0.7596 -2.4342
  800MOL0     H 7939   7.429   3.208   6.932  0.9478 -0.3070 -0.6929
  800MOL0     H 7940   7.386   3.339   7.051 -0.5552 -0.2137 -1.8602
  800MOL0     H 7941   7.645   3.335   7.102 -0.8673  0.6293  0.0288
  800MOL0     H 7942   7.545   3.210   7.171 -1.3132  0.7872 -0.2900
  800MOL0     H 7943   7.604   3.056   6.971  0.2673  0.5362  0.7407
  800MOL0     H 7944   7.700   3.183   6.911 -0.6186 -1.4744 -1.0857
  800MOL0     H 7945   7.831   3.175   7.098 -3.3461  1.9229  0.7265
  800MOL0     H 7946   7.740   3.053   7.180  0.9400 -0.9266 -0.0111
  800MOL0     H 7947   7.860   2.993   6.901 -2.4174 -0.1810 -1.0025
  800MOL0     H 7948   7.760   2.891   7.013 -0.9439  0.6235  1.7821
  800MOL0     H 7949   7.953   2.909   7.182 -2.2199 -1.4885 -0.9964
  800MOL0     H 7950   7.994   2.814   7.049  0.8549 -0.3973  3.8994
  800MOL0     H 7951   8.109   3.020   6.828 -1.9803 -2.3565  1.1072
  800MOL0     H 7952   8.444   3.160   6.911 -0.2998 -4.2597 -1.5713
  800MOL0     H 7953   8.359   3.134   6.770 -0.2560  0.3379  1.0225
  800MOL0     H 7954   8.433   3.372   6.788 -0.1410 -0.6714 -2.6476
  800MOL0     H 7955   8.273   3.356   6.747 -0.8499 -2.1650  0.3581
  800MOL0     H 7956   8.201   3.426   6.986 -0.8537 -0.3523 -0.8848
  800MOL0     H 7957   8.276   3.543   6.890  1.9404  0.7777  0.7075
  800MOL0     H 7958   8.465   3.385   7.066  0.7320 -0.9053  0.8471
  800MOL0     H 7959   8.392   3.534   7.121  0.0796  0.9202 -1.0147
  800MOL0     H 7960   8.626   3.495   7.208 -0.5491 -1.9783 -1.0395
  800MOL0     H 7961   8.857   3.476   7.259 -2.9654  0.6305  2.0945
  800MOL0     H 7962   9.233   3.703   7.174 -2.1358  0.5774  2.5456
  800MOL0     H 7963   9.465   3.758   7.235  0.7110 -0.7726 -1.9788
  800MOL0     H 7964   9.757   3.481   7.253  1.4940  1.7438 -0.6390
  800MOL0     H 7965   9.667   3.581   7.139 -0.7666 -0.4469 -0.1547
  800MOL0     H 7966   9.799   3.786   7.247  1.2656  0.4293  1.3090
  800MOL0     H 7967   9.876   3.671   7.349  1.1556  1.7627 -0.9515
  800MOL0     H 7968   9.938   3.570   7.105  1.0982 -1.0624  1.5291
  800MOL0     H 7969   9.897   3.730   7.057  2.4249 -0.3098 -0.5922
  800MOL0     H 7970  10.085   3.638   7.275 -0.6136  0.6777 -0.9708
  800MOL0     H 7971  10.081   3.804   7.237  3.5931 -0.1516 -0.2116
  800MOL0     H 7972  10.163   3.770   7.011 -1.5544  0.9076  1.1969
  800MOL0     H 7973  10.192   3.599   7.034  1.2234  1.0023 -2.4430
  800MOL0     H 7974  10.297   3.822   7.195 -1.6495 -0.3185  0.0575
  800MOL0     H 7975  10.323   3.665   7.263  0.6096  2.3995  1.6916
  800MOL0     H 7976  10.436   3.757   6.996 -2.3553  0.1045 -0.6154
  800MOL0     H 7977  10.428   3.599   7.054  2.2877  0.1421 -1.2117
  800MOL0     H 7978  10.558   3.827   7.221  1.9692 -0.0266 -1.5600
  800MOL0     H 7979  10.547   3.664   7.265 -0.8691  2.3457  0.5645
  800MOL0     H 7980   9.493   3.382   7.439 -1.4922  1.2721  2.1250
  800MOL0     H 7981   9.251   3.333   7.377 -2.1121  1.1070 -0.5871
  800MOL0     H 7982   8.947   3.541   6.844  2.1499 -2.4898  0.0198
  800MOL0     H 7983   8.698   3.553   6.797  1.0362 -1.7910 -0.8387
  800MOL0     H 7984   7.219   3.277   6.559  0.4028 -0.3020  4.0955
  800MOL0     H 7985   7.094   3.391   6.372  0.8391 -1.0473 -0.4774
  800MOL0     H 7986   6.785   3.742   6.298  2.7795  1.5460  1.3710
  800MOL0     H 7987   6.612   3.801   6.146  0.7297 -3.3801  1.5741
  800MOL0     H 7988   6.597   4.043   5.986  1.6780 -0.0078 -1.1858
  800MOL0     H 7989   6.468   3.938   5.935 -0.3290 -1.6061 -0.5183
  800MOL0     H 7990   6.649   4.113   5.760  0.2591 -1.3102  0.1705
  800MOL0     H 7991   6.479   4.147   5.798 -0.0790  1.5271 -0.4982
  800MOL0     H 7992   6.434   3.918   5.679  1.4478 -2.3932 -2.9432
  800MOL0     H 7993   6.593   3.927   5.627  0.5758  0.0468  1.6412
  800MOL0     H 7994   6.540   4.142   5.503 -0.6620  2.5297  0.6573
  800MOL0     H 7995   6.413   4.032   5.464  2.2100  0.3023 -0.9665
  800MOL0     H 7996   6.221   4.367   5.619 -0.3927 -0.1785 -2.9637
  800MOL0     H 7997   6.906   3.841   5.830  0.4435  1.4560  0.5022
  800MOL0     H 7998   7.195   3.801   6.031 -0.5160  1.3417 -0.0543
  800MOL0     H 7999   7.129   3.652   5.961 -1.6219 -0.2218  0.4754
  800MOL0     H 8000   7.131   3.811   5.873  0.9408 -1.6861 -0.6521
  801MOL0     O 8001   2.210   8.037   1.966  0.9190  0.3544 -0.1344
  801MOL0     C 8002   2.225   8.149   2.014 -0.2436 -0.2790 -0.1091
  801MOL0     O 8003   2.349   8.202   2.050 -0.0818  0.0924  0.2697
  801MOL0     C 8004   2.447   8.112   2.035  0.1882 -0.5944 -0.0895
  801MOL0     C 8005   2.479   8.064   1.913 -0.0060  0.6627  0.7971
  801MOL0     C 8006   2.584   7.971   1.900 -0.2247  0.0448  0.3958
  801MOL0     C 8007   2.674   7.941   2.007 -0.6082 -0.5353  0.2109
  801MOL0     O 8008   2.784   7.858   1.994  0.7763 -0.0884  0.1082
  801MOL0     C 8009   2.793   7.784   1.879  0.3325  0.2316  0.3151
  801MOL0     C 8010   2.899   7.682   1.906 -0.3877  0.8366  0.3666
  801MOL0     C 8011   3.038   7.740   1.907 -0.0366  0.4724 -0.7417
  801MOL0     C 8012   3.150   7.639   1.907 -0.1562 -0.2236  0.1969
  801MOL0     C 8013   3.303   7.685   1.907  0.5207  0.5022 -0.6037
  801MOL0     C 8014   3.323   7.798   2.012 -0.2195 -0.1556  0.1783
  801MOL0     C 8015   3.475   7.826   2.029 -0.1370 -0.8172  0.0660
  801MOL0     C 8016   3.523   7.959   1.956  0.1255  0.1132 -0.2768
  801MOL0     N 8017   3.577   8.060   2.048 -0.2828  0.4753  0.2697
  801MOL0     C 8018   3.517   8.175   2.084 -0.4025 -0.7308 -0.1785
  801MOL0     C 8019   3.614   8.240   2.147 -0.0173  0.7520  0.3224
  801MOL0     C 8020   3.613   8.378   2.200  0.3164 -0.3478  0.0890
  801MOL0     C 8021   3.561   8.406   2.339 -0.3724  0.6127 -0.6258
  801MOL0     C 8022   3.649   8.346   2.450 -0.0572  0.8288 -0.0612
  801MOL0     C 8023   3.796   8.383   2.442 -0.0796 -0.8292  0.1528
  801MOL0     O 8024   3.826   8.519   2.402 -0.0357 -0.4207  0.6945
  801MOL0     C 8025   3.952   8.561   2.393  0.2463  0.3688  0.1583
  801MOL0     C 8026   3.967   8.689   2.341  0.5607  0.1013 -0.4575
  801MOL0     C 8027   4.096   8.741   2.316 -0.7430 -0.5300 -0.5461
  801MOL0     C 8028   4.208   8.666   2.361 -0.7054  0.4804  0.4883
  801MOL0     C 8029   4.341   8.720   2.337 -0.4429 -0.2326 -1.0837
  801MOL0     O 8030   4.443   8.640   2.377  0.4467  0.8572 -0.2028
  801MOL0     C 8031   4.579   8.660   2.344 -1.0966  0.1215  0.4011
  801MOL0     C 8032   4.687   8.661   2.429  0.0677  0.5434  0.0836
  801MOL0     C 8033   4.822   8.690   2.395 -0.0077  0.6068  0.6005
  801MOL0     C 8034   4.857   8.713   2.265  0.9727  0.3533  0.7651
  801MOL0     O 8035   4.987   8.725   2.226 -1.1274  0.4892 -0.2338
  801MOL0     C 8036   5.017   8.803   2.108 -0.3496  0.7029 -0.0751
  801MOL0     C 8037   5.142   8.739   2.034  0.1411 -0.3233 -0.9986
  801MOL0     C 8038   5.101   8.618   1.958 -0.0799  1.1933 -0.2199
  801MOL0     C 8039   5.199   8.495   1.962  0.8713 -0.4273  0.0430
  801MOL0     C 8040   5.320   8.520   1.873  0.0929 -0.3246 -1.0618
  801MOL0     C 8041   5.417   8.395   1.869  0.2488 -0.5234  0.2551
  801MOL0     C 8042   5.534   8.438   1.783 -0.5340 -0.1140  0.1598
  801MOL0     C 8043   5.655   8.334   1.775 -0.7238 -0.3575 -0.6156
  801MOL0    Cl 8044   5.662   8.275   1.605 -0.1330 -0.3141 -0.1586
  801MOL0     C 8045   4.747   8.714   2.171  0.0935  0.3874 -0.3302
  801MOL0     C 8046   4.615   8.688   2.213  0.9199 -0.1667  0.1583
  801MOL0     O 8047   4.361   8.836   2.295  0.3108  0.4001  0.0661
  801MOL0     C 8048   4.189   8.539   2.410  0.7738  0.2920  0.8998
  801MOL0     C 8049   4.065   8.489   2.428  0.6052  0.0912 -0.2308
  801MOL0     N 8050   3.725   8.161   2.161  0.2716 -0.2564  0.1437
  801MOL0     N 8051   3.709   8.053   2.091  0.5315  0.6044  0.2957
  801MOL0     C 8052   2.640   8.005   2.131  0.3361  0.7905 -0.0490
  801MOL0     C 8053   2.523   8.080   2.147  0.4201 -0.1947  0.5860
  801MOL0     C 8054   2.117   8.244   2.010  1.7049  0.6934  0.7560
  801MOL0     C 8055   2.091   8.321   2.129  0.1050  0.1111  0.9445
  801MOL0     C 8056   1.974   8.396   2.133  0.0463  0.6664  0.0264
  801MOL0     C 8057   1.879   8.389   2.031  0.0850 -0.1046  0.6132
  801MOL0     O 8058   1.759   8.463   2.032  0.0590 -0.1335 -0.3691
  801MOL0     C 8059   1.700   8.473   2.167 -0.5910 -0.5354  0.3230
  801MOL0     C 8060   1.624   8.338   2.204  0.3620 -0.1189 -0.9709
  801MOL0     C 8061   1.560   8.360   2.343 -0.3282  0.3350 -0.1862
  801MOL0     C 8062   1.483   8.236   2.394 -0.2486 -0.6116  0.4874
  801MOL0     C 8063   1.561   8.118   2.386 -0.4179  0.9034 -0.0041
  801MOL0     C 8064   1.611   8.007   2.381  0.7641  0.4421  0.4529
  801MOL0     C 8065   1.903   8.312   1.921 -0.4286 -0.5074  0.6316
  801MOL0     C 8066   2.020   8.243   1.903  0.1591  0.6896 -0.1992
  801MOL0     C 8067   2.046   8.170   1.777 -0.3521 -0.8476  1.0510
  801MOL0     H 8068   2.422   8.093   1.825  0.9786  1.1681  0.3158
  801MOL0     H 8069   2.614   7.933   1.803  0.5846  1.5053  0.0353
  801MOL0     H 8070   2.696   7.743   1.849  1.1145 -1.2782 -0.2497
  801MOL0     H 8071   2.814   7.858   1.801 -0.2406  1.0260  0.8950
  801MOL0     H 8072   2.906   7.611   1.823 -3.5370 -1.5799  1.9423
  801MOL0     H 8073   2.880   7.622   1.995 -2.4675  3.7690  2.0947
  801MOL0     H 8074   3.039   7.804   1.996 -1.6457 -1.5366  0.8215
  801MOL0     H 8075   3.040   7.796   1.813 -0.3459  2.9345  0.6243
  801MOL0     H 8076   3.125   7.588   2.001 -1.6396 -0.8094 -0.4911
  801MOL0     H 8077   3.141   7.569   1.825 -2.1474  0.2520 -0.0305
  801MOL0     H 8078   3.360   7.595   1.931 -2.3805 -0.1940  5.5185
  801MOL0     H 8079   3.333   7.725   1.809 -3.5440  2.5001 -1.2734
  801MOL0     H 8080   3.270   7.888   1.981  0.7753  0.7277  0.9407
  801MOL0     H 8081   3.282   7.760   2.106  0.0109 -0.9254 -0.0196
  801MOL0     H 8082   3.539   7.747   1.990 -0.1756 -0.3261 -1.0200
  801MOL0     H 8083   3.503   7.837   2.135 -2.4162 -0.3817  0.6709
  801MOL0     H 8084   3.605   7.925   1.892  0.7833 -2.2872  1.6466
  801MOL0     H 8085   3.444   8.005   1.897 -1.7640 -0.6366  1.5439
  801MOL0     H 8086   3.412   8.199   2.072 -0.1598  0.9245  0.7305
  801MOL0     H 8087   3.721   8.397   2.199  0.3530 -0.5653 -0.2435
  801MOL0     H 8088   3.571   8.454   2.133  1.7205  1.8924  1.5956
  801MOL0     H 8089   3.564   8.514   2.360  1.7258  0.1298  2.1335
  801MOL0     H 8090   3.461   8.367   2.357 -0.2247 -0.5109 -2.0655
  801MOL0     H 8091   3.643   8.238   2.463  1.5961  0.4266 -1.9916
  801MOL0     H 8092   3.598   8.397   2.532  0.4944  0.9421  0.2125
  801MOL0     H 8093   3.840   8.315   2.369  2.4281  1.7902 -0.9752
  801MOL0     H 8094   3.826   8.349   2.542 -2.1666 -1.3489  0.6537
  801MOL0     H 8095   3.878   8.746   2.320  0.0169 -0.4041  0.4338
  801MOL0     H 8096   4.097   8.838   2.267  0.6970 -0.5512 -0.5934
  801MOL0     H 8097   4.663   8.632   2.530 -0.3424  1.1750  0.1744
  801MOL0     H 8098   4.898   8.694   2.473  0.2446 -1.5707  0.5426
  801MOL0     H 8099   4.931   8.807   2.040 -1.3593 -1.9467  0.9006
  801MOL0     H 8100   5.044   8.904   2.141 -0.6576  0.9090 -0.4433
  801MOL0     H 8101   5.194   8.813   1.972  0.0837  0.9739  0.4600
  801MOL0     H 8102   5.207   8.701   2.114 -1.2440 -0.6165  0.0111
  801MOL0     H 8103   5.005   8.584   1.997  0.5383  0.0183  0.2877
  801MOL0     H 8104   5.083   8.643   1.853  4.3049  0.5154 -1.3295
  801MOL0     H 8105   5.143   8.422   1.901 -2.1556  3.7698 -2.8093
  801MOL0     H 8106   5.237   8.475   2.062  0.2270 -1.8802  0.0200
  801MOL0     H 8107   5.365   8.615   1.905 -4.1106  2.2883 -2.0909
  801MOL0     H 8108   5.291   8.538   1.769  0.0066  0.6391 -0.8795
  801MOL0     H 8109   5.443   8.360   1.969 -2.2939  0.4209  1.3479
  801MOL0     H 8110   5.365   8.309   1.825 -0.0166 -1.7643  2.8378
  801MOL0     H 8111   5.572   8.532   1.824 -1.6703  0.7091 -0.6143
  801MOL0     H 8112   5.506   8.470   1.682  2.4508 -1.7979 -1.3405
  801MOL0     H 8113   5.748   8.388   1.796 -2.0441  2.0542 -0.6373
  801MOL0     H 8114   5.625   8.249   1.837 -3.4736 -1.6871 -3.4908
  801MOL0     H 8115   4.760   8.726   2.064  0.2922  0.3840 -0.3061
  801MOL0     H 8116   4.538   8.690   2.136  1.5033  0.5374 -0.4225
  801MOL0     H 8117   4.277   8.484   2.440  1.5332  0.9556 -0.0519
  801MOL0     H 8118   4.050   8.391   2.472 -0.5786  1.2487  2.0891
  801MOL0     H 8119   2.705   7.986   2.216  1.6563  1.3649 -0.8870
  801MOL0     H 8120   2.509   8.117   2.248 -1.3017 -0.1121  0.3374
  801MOL0     H 8121   2.165   8.336   2.206 -2.0787  0.1560  3.1596
  801MOL0     H 8122   1.959   8.469   2.213 -1.6194 -0.6993  1.0162
  801MOL0     H 8123   1.623   8.550   2.165 -0.6705 -0.6018  0.6845
  801MOL0     H 8124   1.768   8.497   2.249 -0.7939 -4.8833  2.0548
  801MOL0     H 8125   1.699   8.259   2.210 -0.1658 -0.6069 -0.7100
  801MOL0     H 8126   1.558   8.305   2.124  0.3751 -0.1188 -0.9816
  801MOL0     H 8127   1.495   8.448   2.345 -1.0846 -0.2167  0.1356
  801MOL0     H 8128   1.640   8.378   2.415 -0.4119  0.0919 -0.0278
  801MOL0     H 8129   1.450   8.250   2.497 -1.9631  0.6161 -0.1858
  801MOL0     H 8130   1.395   8.229   2.328  0.5814 -0.5597 -0.6516
  801MOL0     H 8131   1.659   7.911   2.382  1.4094  0.7657  1.1886
  801MOL0     H 8132   1.822   8.311   1.848  0.4737 -2.2025 -0.4228
  801MOL0     H 8133   2.145   8.196   1.739 -0.7339 -1.9454 -0.8113
  801MOL0     H 8134   2.049   8.064   1.801  1.2390 -1.0491  0.1076
  801MOL0     H 8135   1.977   8.164   1.693 -0.7981 -2.0576  1.4776
  802MOL0     O 8136   5.275   9.490  10.169 -0.1033 -0.1541  0.7250
  802MOL0     C 8137   5.262   9.371  10.182 -0.2495  0.6017 -0.0292
  802MOL0     O 8138   5.368   9.277  10.199 -0.3421  0.2878  0.2397
  802MOL0     C 8139   5.500   9.320  10.188  0.9130 -0.4755  0.5651
  802MOL0     C 8140   5.596   9.268  10.275  0.3122  0.0056 -0.4262
  802MOL0     C 8141   5.730   9.311  10.284  0.6587  0.0413 -0.0578
  802MOL0     C 8142   5.770   9.416  10.197  0.2019  0.1274  0.2014
  802MOL0     O 8143   5.905   9.459  10.199  0.8190 -0.2329 -0.2852
  802MOL0     C 8144   5.943   9.583  10.154  0.1970  0.1188  0.4240
  802MOL0     C 8145   5.975   9.576  10.001  0.1953  0.0066 -0.9014
  802MOL0     C 8146   6.086   9.476   9.969 -0.1795  0.1167 -1.1786
  802MOL0     C 8147   6.225   9.518  10.018 -0.4255 -0.3062  0.3146
  802MOL0     C 8148   6.349   9.445   9.959 -0.0335  0.2293  0.7377
  802MOL0     C 8149   6.380   9.482   9.813  0.2115  0.3824  0.3241
  802MOL0     C 8150   6.526   9.424   9.781  0.3471 -0.9708 -0.2827
  802MOL0     C 8151   6.635   9.515   9.832 -0.1239 -0.4366  0.6494
  802MOL0     N 8152   6.766   9.484   9.772  0.2931 -0.2005 -0.1333
  802MOL0     C 8153   6.794   9.478   9.646  0.0620  0.7217  0.1643
  802MOL0     C 8154   6.931   9.487   9.639  0.2178 -0.3097  0.4970
  802MOL0     C 8155   7.017   9.523   9.523  0.1444 -0.0497  0.5016
  802MOL0     C 8156   7.052   9.397   9.440  0.5833 -0.2889 -0.1407
  802MOL0     C 8157   7.116   9.447   9.311 -0.0381  0.3504  0.3713
  802MOL0     C 8158   7.260   9.480   9.321 -0.8747  0.1771  0.0381
  802MOL0     O 8159   7.286   9.521   9.192 -0.5602 -0.1652 -0.4293
  802MOL0     C 8160   7.416   9.565   9.183  0.5513 -0.2376  0.1906
  802MOL0     C 8161   7.521   9.475   9.184 -0.1494 -0.4255  0.0143
  802MOL0     C 8162   7.645   9.524   9.189  0.3892  0.2240  0.1911
  802MOL0     C 8163   7.671   9.667   9.172 -0.2551  0.5666 -0.2411
  802MOL0     C 8164   7.810   9.713   9.168 -0.2989  0.2550  0.3962
  802MOL0     O 8165   7.916   9.622   9.187  0.3787 -0.3942 -0.6932
  802MOL0     C 8166   8.043   9.653   9.173  0.0790 -0.3134 -0.9859
  802MOL0     C 8167   8.131   9.551   9.118  0.5274 -0.1293  0.1583
  802MOL0     C 8168   8.260   9.585   9.088 -0.4977  0.2802 -0.2379
  802MOL0     C 8169   8.316   9.715   9.110  0.9191  0.5831  0.0497
  802MOL0     O 8170   8.442   9.760   9.082 -0.4250 -0.2518  0.7717
  802MOL0     C 8171   8.539   9.664   9.048  0.0092  0.1938  0.2315
  802MOL0     C 8172   8.677   9.726   9.006  0.0548 -0.0061  0.1387
  802MOL0     C 8173   8.765   9.794   9.118  0.2369  0.2470  0.6066
  802MOL0     C 8174   8.900   9.828   9.068  0.3036  0.7200  0.4524
  802MOL0     C 8175   8.994   9.884   9.169  0.1205  1.0170  0.2787
  802MOL0     C 8176   9.118   9.949   9.099  0.4122  0.4019  0.4918
  802MOL0     C 8177   9.162  10.081   9.159  0.7502 -0.2554 -0.1036
  802MOL0     C 8178   9.223  10.053   9.297 -0.7435  0.0995  0.7444
  802MOL0    Cl 8179   9.308  10.191   9.350 -0.4380  0.0665  0.2464
  802MOL0     C 8180   8.230   9.814   9.161  0.4800  0.0168 -0.2564
  802MOL0     C 8181   8.093   9.787   9.194  0.6933 -0.1317 -0.2929
  802MOL0     O 8182   7.825   9.834   9.138 -0.5249 -0.0259  0.3680
  802MOL0     C 8183   7.560   9.757   9.170  0.4260 -0.4810 -0.5614
  802MOL0     C 8184   7.432   9.703   9.177 -0.6257  0.1517  0.6756
  802MOL0     N 8185   6.987   9.495   9.762 -0.3692  0.0334 -0.0571
  802MOL0     N 8186   6.888   9.478   9.841  0.1302  0.5859 -0.4319
  802MOL0     C 8187   5.674   9.471  10.113  0.3673 -0.3766  0.2903
  802MOL0     C 8188   5.546   9.426  10.109  0.0263  0.6614  0.6563
  802MOL0     C 8189   5.118   9.316  10.172  1.0270 -0.8528 -0.1715
  802MOL0     C 8190   5.018   9.407  10.215  0.0739  0.1542 -0.0116
  802MOL0     C 8191   4.880   9.377  10.206 -0.7323  0.9023  1.3767
  802MOL0     C 8192   4.843   9.251  10.157  0.3206  0.0011  1.3521
  802MOL0     O 8193   4.719   9.212  10.121  0.0583  0.3518  0.6914
  802MOL0     C 8194   4.622   9.264  10.202  0.9704  0.8416 -0.6027
  802MOL0     C 8195   4.492   9.181  10.184 -0.2807  0.4922 -0.6011
  802MOL0     C 8196   4.514   9.025  10.183  0.7386  0.0514  0.2750
  802MOL0     C 8197   4.521   8.969  10.330  0.3191 -0.1120  0.7782
  802MOL0     C 8198   4.643   9.002  10.401  0.0390  0.9159 -0.0100
  802MOL0     C 8199   4.739   9.045  10.466  0.1917  0.0256 -0.0016
  802MOL0     C 8200   4.940   9.159  10.115 -0.5485  0.1975 -0.6856
  802MOL0     C 8201   5.073   9.190  10.116  0.2809 -0.1475  0.8906
  802MOL0     C 8202   5.172   9.085  10.067 -0.4155  1.0693  0.2240
  802MOL0     H 8203   5.553   9.183  10.326 -0.0824  0.1183 -0.5677
  802MOL0     H 8204   5.806   9.270  10.350  2.8348  2.1265 -1.1434
  802MOL0     H 8205   5.863   9.657  10.170 -0.1551 -0.0464 -0.5339
  802MOL0     H 8206   6.035   9.615  10.203  1.0089 -0.3007 -0.7969
  802MOL0     H 8207   6.009   9.673   9.963  1.9448  1.3599  3.4231
  802MOL0     H 8208   5.893   9.536   9.943  0.1425 -2.4842  0.7406
  802MOL0     H 8209   6.088   9.481   9.860  1.4884  0.3514 -1.1570
  802MOL0     H 8210   6.062   9.374  10.002 -0.8883  0.4225 -0.7369
  802MOL0     H 8211   6.255   9.621   9.997 -1.0898  0.0554  1.1108
  802MOL0     H 8212   6.231   9.503  10.126 -2.3279  0.1571  0.5102
  802MOL0     H 8213   6.434   9.478  10.018 -0.0625  2.1355 -0.2231
  802MOL0     H 8214   6.329   9.337   9.967 -2.9926  0.7380  1.6654
  802MOL0     H 8215   6.303   9.446   9.745 -0.3295  0.2884  0.9764
  802MOL0     H 8216   6.388   9.592   9.809  1.7169  0.3262  0.9369
  802MOL0     H 8217   6.537   9.415   9.673  1.3183  0.9075 -0.3704
  802MOL0     H 8218   6.543   9.326   9.826  1.3949 -1.1972 -1.1468
  802MOL0     H 8219   6.623   9.620   9.804  0.9470 -0.7567 -1.2004
  802MOL0     H 8220   6.631   9.517   9.941  2.4922  2.4241  0.8469
  802MOL0     H 8221   6.718   9.476   9.568  0.7991 -1.6233 -0.5643
  802MOL0     H 8222   6.974   9.601   9.459  0.0042  1.2367  2.1019
  802MOL0     H 8223   7.108   9.564   9.567  1.0676 -0.3722 -1.0081
  802MOL0     H 8224   7.125   9.340   9.498  1.2263 -1.0114 -1.6100
  802MOL0     H 8225   6.962   9.337   9.420  0.1248  1.1133 -2.7411
  802MOL0     H 8226   7.059   9.529   9.268  1.2803  1.2058  0.1772
  802MOL0     H 8227   7.105   9.364   9.241 -0.2241  0.8494 -0.1993
  802MOL0     H 8228   7.319   9.395   9.357 -2.6655 -0.8013  0.7644
  802MOL0     H 8229   7.274   9.559   9.395  0.3693 -1.3212  1.4906
  802MOL0     H 8230   7.496   9.370   9.196 -1.2912 -0.1145  0.4488
  802MOL0     H 8231   7.723   9.449   9.188 -0.3773 -0.5878  0.6648
  802MOL0     H 8232   8.112   9.444   9.108  0.0224 -0.4178  3.2629
  802MOL0     H 8233   8.320   9.499   9.063  0.9163  0.0043  3.4918
  802MOL0     H 8234   8.553   9.591   9.129 -1.7266 -0.6172 -0.1491
  802MOL0     H 8235   8.497   9.609   8.964 -1.9579  0.3944  1.0144
  802MOL0     H 8236   8.742   9.652   8.957  1.6755  2.3728 -1.5525
  802MOL0     H 8237   8.656   9.804   8.932 -0.1943 -1.2162 -1.1348
  802MOL0     H 8238   8.716   9.881   9.163  0.2738  1.4062 -1.4585
  802MOL0     H 8239   8.769   9.723   9.201 -1.2351  2.1433  2.4217
  802MOL0     H 8240   8.894   9.897   8.983 -2.2160 -0.2907 -0.2961
  802MOL0     H 8241   8.946   9.748   9.009 -1.4945 -0.0872  0.0893
  802MOL0     H 8242   9.024   9.802   9.236  2.5488  1.4081 -0.2310
  802MOL0     H 8243   8.946   9.959   9.232 -1.0576 -0.6320  1.4694
  802MOL0     H 8244   9.194   9.870   9.095 -0.5471 -0.5525  0.5595
  802MOL0     H 8245   9.095   9.964   8.993  1.2734 -1.2842  0.0240
  802MOL0     H 8246   9.085  10.158   9.172  1.1102 -0.0268  0.7524
  802MOL0     H 8247   9.232  10.129   9.091 -2.4008  0.0874 -3.4352
  802MOL0     H 8248   9.142  10.026   9.365 -0.6543  1.6030  1.4806
  802MOL0     H 8249   9.292   9.968   9.287 -0.7810  0.0957  0.4934
  802MOL0     H 8250   8.273   9.909   9.189 -1.2996  0.8871 -0.3731
  802MOL0     H 8251   8.036   9.875   9.220  0.2033 -0.4877 -0.1511
  802MOL0     H 8252   7.569   9.864   9.157 -3.2490  0.0256  0.0226
  802MOL0     H 8253   7.345   9.768   9.178 -2.2217 -1.8649  0.0486
  802MOL0     H 8254   5.689   9.550  10.040 -1.8023 -0.8139 -0.6698
  802MOL0     H 8255   5.486   9.469  10.030 -0.0202 -2.3987 -1.1281
  802MOL0     H 8256   5.041   9.506  10.255  0.3854  1.3868 -2.9605
  802MOL0     H 8257   4.809   9.454  10.235  0.3988  2.3051  0.5583
  802MOL0     H 8258   4.601   9.365  10.165 -0.0434  0.3953 -1.2771
  802MOL0     H 8259   4.636   9.266  10.311 -2.2520 -0.0009 -0.0636
  802MOL0     H 8260   4.440   9.205  10.091 -0.7867  2.2943  0.1008
  802MOL0     H 8261   4.425   9.213  10.265 -1.7205 -2.5778 -0.4701
  802MOL0     H 8262   4.595   8.993  10.117 -0.7388  0.3077 -1.7263
  802MOL0     H 8263   4.430   8.980  10.130 -1.3058 -0.8125  3.9108
  802MOL0     H 8264   4.428   8.998  10.378  0.0587  1.3193 -0.4982
  802MOL0     H 8265   4.519   8.860  10.320 -1.3686  0.0176 -0.8520
  802MOL0     H 8266   4.818   9.075  10.533  0.3530 -0.5375  0.0630
  802MOL0     H 8267   4.908   9.070  10.063 -3.0012 -0.6038  1.9139
  802MOL0     H 8268   5.230   9.044  10.150 -0.0139  1.5594  0.1910
  802MOL0     H 8269   5.124   9.006  10.009  1.3552  1.1201 -1.4147
  802MOL0     H 8270   5.242   9.135  10.000  0.5543 -1.3181 -0.6594
  803MOL0     O 8271   9.417   4.089   1.279 -0.8106  0.2047  0.0709
  803MOL0     C 8272   9.359   3.986   1.319  0.2293 -0.1255  0.3664
  803MOL0     O 8273   9.415   3.876   1.363 -0.8173  0.2053  0.5987
  803MOL0     C 8274   9.551   3.883   1.351 -0.8601 -0.1819  0.3014
  803MOL0     C 8275   9.635   3.919   1.458 -0.2253  0.3799  0.2427
  803MOL0     C 8276   9.779   3.902   1.438 -1.0029 -0.2987 -0.1655
  803MOL0     C 8277   9.833   3.853   1.311 -0.5699  0.4255  0.8042
  803MOL0     O 8278   9.965   3.867   1.291  0.7826  0.8375  0.3078
  803MOL0     C 8279  10.032   3.813   1.172  0.1011 -1.2488 -0.7805
  803MOL0     C 8280  10.191   3.818   1.185  0.0799 -0.1927 -0.1419
  803MOL0     C 8281  10.237   3.944   1.226 -0.2608 -0.0959 -0.0668
  803MOL0     C 8282  10.384   3.954   1.210  0.6988  0.0726  0.4820
  803MOL0     C 8283  10.449   3.869   1.312 -0.4980 -0.6578 -0.6681
  803MOL0     C 8284  10.552   3.775   1.243 -0.1714  0.9363  1.1191
  803MOL0     C 8285  10.620   3.683   1.349  0.4645 -0.4146 -0.3850
  803MOL0     C 8286  10.528   3.574   1.399  0.2461 -0.5439 -0.0387
  803MOL0     N 8287  10.606   3.467   1.465  0.1592 -0.3867 -0.0795
  803MOL0     C 8288  10.684   3.488   1.577  0.2546 -0.4459 -0.3163
  803MOL0     C 8289  10.710   3.364   1.627  0.5545  0.6558  0.1697
  803MOL0     C 8290  10.790   3.337   1.745 -0.4496 -0.4056  0.7120
  803MOL0     C 8291  10.935   3.332   1.706 -0.2756 -0.6712 -0.4696
  803MOL0     C 8292  11.018   3.293   1.838  0.2955 -0.9055  0.4172
  803MOL0     C 8293  11.159   3.270   1.802 -0.1085 -0.5106  0.7019
  803MOL0     O 8294  11.208   3.389   1.733  0.2064 -0.8621  0.2725
  803MOL0     C 8295  11.338   3.421   1.729 -0.7458 -1.1790  0.3671
  803MOL0     C 8296  11.365   3.549   1.690  0.1414 -0.3606  1.3937
  803MOL0     C 8297  11.496   3.592   1.675 -0.8016 -0.5214 -1.1905
  803MOL0     C 8298  11.600   3.504   1.703  0.3803 -0.5582 -0.6451
  803MOL0     C 8299  11.739   3.534   1.669  0.7964  0.1428 -0.7948
  803MOL0     O 8300  11.832   3.453   1.736  0.2973 -1.0069  0.3161
  803MOL0     C 8301  11.957   3.497   1.729  0.1604  0.2382  0.2547
  803MOL0     C 8302  12.036   3.526   1.615  0.5323  0.0508  1.3406
  803MOL0     C 8303  12.174   3.532   1.621 -0.5787 -0.1658  0.4649
  803MOL0     C 8304  12.243   3.501   1.742 -0.1723  0.4372  0.5422
  803MOL0     O 8305  12.380   3.500   1.759  0.0730 -0.4179  0.1542
  803MOL0     C 8306  12.468   3.480   1.646  0.4558  0.1849 -0.0407
  803MOL0     C 8307  12.613   3.450   1.692 -0.4153  0.3735  0.5148
  803MOL0     C 8308  12.697   3.410   1.566  0.3289 -0.4301  0.3829
  803MOL0     C 8309  12.819   3.321   1.606 -0.5309  0.6439 -0.0475
  803MOL0     C 8310  12.892   3.269   1.479  0.3601  0.1417 -0.9215
  803MOL0     C 8311  13.034   3.236   1.522  0.8209 -0.2923 -1.0755
  803MOL0     C 8312  13.091   3.178   1.395  0.7117 -0.5563  0.0776
  803MOL0     C 8313  13.235   3.208   1.380 -1.1074 -0.1424 -0.0267
  803MOL0    Cl 8314  13.270   3.390   1.394  0.3048  0.3830 -0.1560
  803MOL0     C 8315  12.163   3.488   1.856 -0.4669 -0.1016 -0.0830
  803MOL0     C 8316  12.020   3.483   1.845  0.2761 -0.5253  0.2068
  803MOL0     O 8317  11.759   3.634   1.602 -0.8981 -0.3244 -0.2115
  803MOL0     C 8318  11.575   3.379   1.749  0.0298 -0.0556 -0.1344
  803MOL0     C 8319  11.446   3.337   1.775  0.1273 -0.4296 -0.3905
  803MOL0     N 8320  10.652   3.265   1.545  0.0097 -0.0500 -0.8404
  803MOL0     N 8321  10.601   3.328   1.447 -0.3879 -0.1883 -0.4631
  803MOL0     C 8322   9.744   3.805   1.214  0.2770 -0.6071  0.0435
  803MOL0     C 8323   9.605   3.825   1.235 -0.3061  0.0856 -0.1643
  803MOL0     C 8324   9.205   3.975   1.322  0.1910  0.1679 -0.2151
  803MOL0     C 8325   9.143   3.858   1.372 -0.2467 -0.4629  0.3705
  803MOL0     C 8326   9.002   3.862   1.371 -0.4550  0.2312  0.1376
  803MOL0     C 8327   8.923   3.961   1.303 -1.0645  1.4835  0.7017
  803MOL0     O 8328   8.787   3.947   1.282 -0.4877  0.1979  0.0774
  803MOL0     C 8329   8.718   3.824   1.307 -0.3964  0.0938 -0.2632
  803MOL0     C 8330   8.573   3.854   1.263 -0.3817 -0.5867  0.1416
  803MOL0     C 8331   8.478   3.741   1.266  0.0916  0.2418  0.7583
  803MOL0     C 8332   8.341   3.788   1.269  0.5791  0.8863  0.4400
  803MOL0     C 8333   8.239   3.675   1.251 -0.6811 -0.1351 -0.5026
  803MOL0     C 8334   8.149   3.596   1.251 -0.5238  0.0445 -0.4602
  803MOL0     C 8335   8.989   4.073   1.259  0.2151  0.1094 -0.1513
  803MOL0     C 8336   9.122   4.088   1.274  0.2927  0.5329  0.0989
  803MOL0     C 8337   9.175   4.228   1.244 -0.3726  0.4998  0.5657
  803MOL0     H 8338   9.598   3.971   1.546 -0.5778 -2.0187  1.5902
  803MOL0     H 8339   9.840   3.941   1.519 -0.0564 -0.1861 -0.9263
  803MOL0     H 8340  10.011   3.707   1.153 -0.4132 -1.4806  0.9913
  803MOL0     H 8341  10.004   3.878   1.088 -3.3532 -1.2201  0.2515
  803MOL0     H 8342  10.229   3.785   1.088 -0.3730 -1.7346  0.1652
  803MOL0     H 8343  10.216   3.744   1.262  0.4180 -2.9041 -2.6695
  803MOL0     H 8344  10.216   3.958   1.333  2.0496  1.8404  0.2348
  803MOL0     H 8345  10.192   4.028   1.172 -0.8090 -1.3587 -1.6112
  803MOL0     H 8346  10.417   3.920   1.111 -1.8852  1.1744 -0.8541
  803MOL0     H 8347  10.418   4.058   1.204 -0.1275  0.3121 -4.5672
  803MOL0     H 8348  10.509   3.938   1.373 -0.8805 -1.2052  0.3404
  803MOL0     H 8349  10.382   3.811   1.376  0.4917  1.0101  2.0840
  803MOL0     H 8350  10.501   3.718   1.165 -1.6095 -0.2184  2.8098
  803MOL0     H 8351  10.627   3.838   1.195  1.4202 -1.7719 -0.1704
  803MOL0     H 8352  10.666   3.739   1.431  0.1397 -0.4989 -0.1468
  803MOL0     H 8353  10.702   3.628   1.300  0.4169 -1.1691  0.3484
  803MOL0     H 8354  10.462   3.623   1.471  0.4182  1.3851 -1.1338
  803MOL0     H 8355  10.465   3.525   1.324 -1.7175  1.0115  0.5227
  803MOL0     H 8356  10.718   3.577   1.628  0.2175 -1.1418  0.9616
  803MOL0     H 8357  10.778   3.419   1.816  0.6974  0.2533  0.1835
  803MOL0     H 8358  10.767   3.239   1.787  3.1224 -0.7824  2.1302
  803MOL0     H 8359  10.958   3.258   1.629 -0.3131 -2.4473  1.1488
  803MOL0     H 8360  10.965   3.431   1.671  2.3569 -0.5156  1.8558
  803MOL0     H 8361  10.981   3.198   1.878 -1.4204  0.0363  1.1700
  803MOL0     H 8362  11.007   3.375   1.910 -0.8508  2.6125 -3.3557
  803MOL0     H 8363  11.163   3.194   1.723  1.0657  0.4582 -0.2264
  803MOL0     H 8364  11.224   3.236   1.883 -0.2625  0.7256  1.3623
  803MOL0     H 8365  11.283   3.616   1.668  0.5250 -0.5608 -0.9093
  803MOL0     H 8366  11.521   3.685   1.625  1.9678 -1.8902 -2.5894
  803MOL0     H 8367  11.987   3.538   1.519  2.2146 -0.2309  0.4137
  803MOL0     H 8368  12.229   3.550   1.529 -2.6812  1.9875 -0.4831
  803MOL0     H 8369  12.428   3.401   1.582  1.6137 -0.4711  0.0262
  803MOL0     H 8370  12.465   3.575   1.591 -2.3672 -0.3720 -1.0479
  803MOL0     H 8371  12.667   3.538   1.728  2.7600 -1.6895  1.2576
  803MOL0     H 8372  12.618   3.385   1.779  0.6793 -0.5306 -0.1898
  803MOL0     H 8373  12.629   3.348   1.507  1.0134  0.1054 -1.0209
  803MOL0     H 8374  12.733   3.489   1.500  1.4001 -1.5012 -0.3611
  803MOL0     H 8375  12.793   3.237   1.672 -0.0201  0.5827  0.0820
  803MOL0     H 8376  12.885   3.400   1.644  1.3951  1.1012 -3.8655
  803MOL0     H 8377  12.897   3.345   1.401 -1.0913  2.0753  0.7605
  803MOL0     H 8378  12.834   3.184   1.442 -0.7815 -0.3219  1.6863
  803MOL0     H 8379  13.089   3.315   1.574 -2.3523  0.7212  1.0136
  803MOL0     H 8380  13.014   3.160   1.598  0.6718  0.6999 -0.1043
  803MOL0     H 8381  13.036   3.209   1.306 -2.0930  0.7549  2.1295
  803MOL0     H 8382  13.083   3.069   1.399  1.2598 -0.6117 -0.2938
  803MOL0     H 8383  13.279   3.162   1.469 -3.8778  1.0240  2.1171
  803MOL0     H 8384  13.279   3.156   1.295  3.2706  2.8752  0.0723
  803MOL0     H 8385  12.214   3.470   1.950  0.0348  1.3369 -0.0647
  803MOL0     H 8386  11.961   3.463   1.934  3.3543 -0.1983  2.4964
  803MOL0     H 8387  11.656   3.307   1.760  0.2394  0.1978 -0.0010
  803MOL0     H 8388  11.427   3.231   1.788  1.4903 -0.8448 -1.5975
  803MOL0     H 8389   9.779   3.772   1.116 -0.6928 -1.6606  0.0366
  803MOL0     H 8390   9.538   3.799   1.154  2.0185 -0.4705 -2.0231
  803MOL0     H 8391   9.195   3.778   1.423 -0.8697 -0.2263  1.4157
  803MOL0     H 8392   8.956   3.773   1.413 -0.9973  0.5762  0.2765
  803MOL0     H 8393   8.724   3.793   1.411 -2.1146  1.5950  0.3442
  803MOL0     H 8394   8.763   3.740   1.253 -0.8889  0.8553 -1.9351
  803MOL0     H 8395   8.583   3.904   1.166  1.5939  0.8827  1.0482
  803MOL0     H 8396   8.536   3.929   1.334 -2.8705  1.2949 -2.8535
  803MOL0     H 8397   8.501   3.678   1.353  1.0831  1.2300  1.2413
  803MOL0     H 8398   8.481   3.681   1.175 -0.0392 -0.6040  1.2969
  803MOL0     H 8399   8.325   3.838   1.365  3.1132  0.9642  0.8899
  803MOL0     H 8400   8.314   3.864   1.194 -1.8416  1.0525  1.3832
  803MOL0     H 8401   8.076   3.518   1.262  1.3638 -1.5984  1.2587
  803MOL0     H 8402   8.930   4.160   1.233  0.9713  0.4696 -0.6802
  803MOL0     H 8403   9.090   4.293   1.221 -1.0232 -0.1527  1.1188
  803MOL0     H 8404   9.246   4.261   1.320  1.4196 -0.9131 -0.4282
  803MOL0     H 8405   9.229   4.237   1.149 -0.4530  2.4860  0.6600
  804MOL0     O 8406  10.971   4.582   7.391 -0.9345 -1.1834  0.5447
  804MOL0     C 8407  10.910   4.560   7.288  0.2374  0.7270 -0.5313
  804MOL0     O 8408  10.942   4.622   7.163  0.4977 -0.5618 -0.3979
  804MOL0     C 8409  11.061   4.685   7.149  0.3428 -0.0351 -0.1391
  804MOL0     C 8410  11.062   4.791   7.064  0.1820  0.2411 -0.1576
  804MOL0     C 8411  11.177   4.861   7.044 -0.4767 -0.8669  0.1024
  804MOL0     C 8412  11.304   4.832   7.106 -0.4580  0.3228  0.2650
  804MOL0     O 8413  11.422   4.902   7.085  0.7110 -0.2190  0.1394
  804MOL0     C 8414  11.413   5.035   7.028 -0.2007 -0.2892  0.1577
  804MOL0     C 8415  11.339   5.145   7.101  0.1050 -0.0564 -0.9997
  804MOL0     C 8416  11.425   5.240   7.175 -0.4495  0.1050 -0.0253
  804MOL0     C 8417  11.444   5.194   7.323  0.0202 -0.4297 -0.6321
  804MOL0     C 8418  11.555   5.280   7.392 -0.7444 -0.2877  0.6747
  804MOL0     C 8419  11.562   5.242   7.543  0.2599 -0.4366  0.3748
  804MOL0     C 8420  11.673   5.312   7.625 -0.1655  0.5318  1.2121
  804MOL0     C 8421  11.724   5.230   7.735 -0.5531 -0.6362 -0.5300
  804MOL0     N 8422  11.845   5.288   7.801  0.7538  0.3901  0.2820
  804MOL0     C 8423  11.972   5.239   7.819 -0.6903  0.2464  1.3232
  804MOL0     C 8424  12.029   5.304   7.920  0.1400  0.2508  0.0865
  804MOL0     C 8425  12.164   5.263   7.986  0.4178 -0.0692  0.6902
  804MOL0     C 8426  12.128   5.136   8.061 -0.1480  0.3481 -0.2810
  804MOL0     C 8427  12.243   5.083   8.144 -0.0896  0.1855 -0.5777
  804MOL0     C 8428  12.379   5.061   8.079  0.3664  0.7515  0.0494
  804MOL0     O 8429  12.471   5.044   8.186 -0.1287 -0.0710 -0.0591
  804MOL0     C 8430  12.607   5.062   8.162  0.3270  0.3504 -0.2008
  804MOL0     C 8431  12.663   5.127   8.051 -0.2265 -0.7123 -0.0346
  804MOL0     C 8432  12.800   5.126   8.029  0.2591  0.5901  0.2357
  804MOL0     C 8433  12.891   5.072   8.119 -0.2088 -0.3053  0.0424
  804MOL0     C 8434  13.037   5.072   8.080  0.0732  0.1590 -0.3304
  804MOL0     O 8435  13.115   5.039   8.183  0.3946 -0.5266 -0.0722
  804MOL0     C 8436  13.248   5.028   8.166 -0.2830  1.0441 -0.3464
  804MOL0     C 8437  13.325   5.067   8.281  0.2261 -1.1042  0.7778
  804MOL0     C 8438  13.463   5.073   8.269  0.8342  0.3896  0.3366
  804MOL0     C 8439  13.533   5.023   8.160  0.2213  0.2665  0.2408
  804MOL0     O 8440  13.673   5.025   8.148  0.7508 -0.1370 -0.6465
  804MOL0     C 8441  13.736   4.970   8.039 -0.2789  0.2833  0.3585
  804MOL0     C 8442  13.885   5.018   8.032  0.0620  0.3619 -0.6153
  804MOL0     C 8443  13.955   4.941   7.921  0.7589 -0.0692  0.0881
  804MOL0     C 8444  14.101   4.993   7.916  0.0434  0.7011 -0.0529
  804MOL0     C 8445  14.153   4.970   7.772 -0.4403 -0.7546 -0.3403
  804MOL0     C 8446  14.300   5.014   7.784 -0.1969  0.3407 -0.4516
  804MOL0     C 8447  14.372   4.964   7.657  0.0882 -0.0603  0.0007
  804MOL0     C 8448  14.503   5.038   7.633  0.1282 -0.1642 -1.2969
  804MOL0    Cl 8449  14.614   5.039   7.776 -0.1023 -0.4704 -0.0046
  804MOL0     C 8450  13.453   4.971   8.059  0.6341  0.5564 -0.0199
  804MOL0     C 8451  13.314   4.973   8.056 -0.3074 -0.1522 -0.1250
  804MOL0     O 8452  13.072   5.100   7.963  0.6228  0.5957  0.1596
  804MOL0     C 8453  12.834   5.014   8.233  0.5557  0.2714  0.9292
  804MOL0     C 8454  12.699   4.994   8.249  0.3608 -0.0389  0.1084
  804MOL0     N 8455  11.940   5.406   7.948 -0.1202  0.0719  0.1103
  804MOL0     N 8456  11.834   5.395   7.881  0.9202 -0.3465  0.2969
  804MOL0     C 8457  11.303   4.718   7.181 -0.2247 -0.0708  0.0598
  804MOL0     C 8458  11.186   4.639   7.192  0.6478 -0.4047 -0.2230
  804MOL0     C 8459  10.785   4.479   7.295 -0.0276  0.7531 -0.9856
  804MOL0     C 8460  10.717   4.449   7.179  0.1843 -0.2053  0.1158
  804MOL0     C 8461  10.592   4.384   7.197 -0.2174 -0.3354  0.5139
  804MOL0     C 8462  10.538   4.362   7.314 -0.6100 -0.0044 -0.9113
  804MOL0     O 8463  10.420   4.301   7.315 -0.2922 -0.1647 -0.2551
  804MOL0     C 8464  10.320   4.375   7.391 -0.6230  0.7514  0.3566
  804MOL0     C 8465  10.280   4.299   7.506 -0.1030 -0.6942  0.5593
  804MOL0     C 8466  10.222   4.162   7.463  0.0044  0.0899 -0.7839
  804MOL0     C 8467  10.137   4.102   7.573 -0.2866  0.0929  0.4422
  804MOL0     C 8468  10.215   4.059   7.691  0.2678 -0.4470 -0.5957
  804MOL0     C 8469  10.283   4.030   7.785  0.4238 -0.0609 -0.5582
  804MOL0     C 8470  10.612   4.384   7.430  0.8373  0.3098  0.1672
  804MOL0     C 8471  10.734   4.437   7.426 -0.2059 -0.6667 -1.0576
  804MOL0     C 8472  10.798   4.459   7.563  0.3221 -0.2824  0.4134
  804MOL0     H 8473  10.970   4.822   7.015  0.0398  1.0039  0.5822
  804MOL0     H 8474  11.170   4.939   6.969 -0.0740  0.3162  1.2493
  804MOL0     H 8475  11.517   5.062   7.005 -0.6541 -1.3490 -3.8522
  804MOL0     H 8476  11.366   5.015   6.932  1.6914 -4.2372 -0.1538
  804MOL0     H 8477  11.263   5.097   7.164  3.5471 -2.2498  1.9226
  804MOL0     H 8478  11.278   5.192   7.023 -1.4815 -1.2472 -0.5342
  804MOL0     H 8479  11.375   5.338   7.176  0.5007  0.6190 -0.6351
  804MOL0     H 8480  11.522   5.243   7.123 -0.6821 -2.0139 -0.6394
  804MOL0     H 8481  11.358   5.207   7.388 -0.2686  0.8905 -1.2310
  804MOL0     H 8482  11.489   5.094   7.328 -1.9489 -1.3554 -0.7703
  804MOL0     H 8483  11.645   5.274   7.330 -2.6939  0.8838 -2.5607
  804MOL0     H 8484  11.519   5.383   7.402  2.3370  1.0077 -0.3550
  804MOL0     H 8485  11.469   5.271   7.593  0.9460 -0.2103  1.5606
  804MOL0     H 8486  11.576   5.134   7.552 -0.7552 -0.4221  3.0901
  804MOL0     H 8487  11.637   5.405   7.670 -1.9008  0.4358  0.0806
  804MOL0     H 8488  11.758   5.319   7.557 -0.1826  0.5165  1.1894
  804MOL0     H 8489  11.641   5.225   7.806 -0.5472 -0.6040 -0.5210
  804MOL0     H 8490  11.756   5.131   7.701 -0.1235  0.3610 -3.2124
  804MOL0     H 8491  12.024   5.150   7.784  2.6856  1.7885  2.0265
  804MOL0     H 8492  12.242   5.243   7.912 -0.5342  0.3850 -0.4572
  804MOL0     H 8493  12.190   5.337   8.062 -1.1934 -0.3956  1.6130
  804MOL0     H 8494  12.037   5.154   8.120 -0.1208  2.2119 -0.7295
  804MOL0     H 8495  12.091   5.063   7.989 -0.4305  0.5976 -0.3942
  804MOL0     H 8496  12.193   4.994   8.183 -0.9318  0.7480 -0.3409
  804MOL0     H 8497  12.266   5.154   8.224  0.8538  0.6897 -1.2819
  804MOL0     H 8498  12.414   5.143   8.015  1.7306  0.7077  0.7135
  804MOL0     H 8499  12.378   4.963   8.030  1.6517  0.7256  0.0395
  804MOL0     H 8500  12.601   5.170   7.972 -0.1647 -2.9168 -1.3599
  804MOL0     H 8501  12.848   5.157   7.936 -1.3241  1.0654 -0.4520
  804MOL0     H 8502  13.267   5.120   8.356 -0.0145  0.4759 -0.4866
  804MOL0     H 8503  13.504   5.116   8.359 -2.5522  3.4156  0.6730
  804MOL0     H 8504  13.724   4.862   8.054 -0.5429  0.3678  0.7685
  804MOL0     H 8505  13.697   5.013   7.946 -0.1770  0.1852  0.2703
  804MOL0     H 8506  13.878   5.127   8.022 -2.5719  0.2304 -0.9537
  804MOL0     H 8507  13.948   4.995   8.119  0.4447 -1.9994 -1.4504
  804MOL0     H 8508  13.942   4.834   7.938  1.2052  0.1785  2.4390
  804MOL0     H 8509  13.912   4.970   7.825 -1.3640  0.4330  1.1185
  804MOL0     H 8510  14.161   4.934   7.987  0.0911 -0.5013 -1.0653
  804MOL0     H 8511  14.110   5.097   7.947  1.3384  0.1322  1.6532
  804MOL0     H 8512  14.098   5.039   7.707 -0.4193  0.8697  1.3116
  804MOL0     H 8513  14.153   4.869   7.729  2.9196  0.2624 -3.2378
  804MOL0     H 8514  14.308   5.122   7.801 -1.7024  0.3260  0.4773
  804MOL0     H 8515  14.351   4.974   7.872  0.0875  1.6828  0.0213
  804MOL0     H 8516  14.308   4.990   7.572 -0.4273  1.5033  0.8219
  804MOL0     H 8517  14.395   4.857   7.659  0.7523  0.0840  0.8517
  804MOL0     H 8518  14.554   4.995   7.547  3.6197 -0.6218  0.8418
  804MOL0     H 8519  14.483   5.139   7.594 -0.3829 -0.8227 -2.8165
  804MOL0     H 8520  13.511   4.932   7.976  0.4639  2.0672 -0.8910
  804MOL0     H 8521  13.270   4.941   7.962  0.3897  2.1788 -1.3286
  804MOL0     H 8522  12.895   4.969   8.310  1.1107 -0.8175 -0.1167
  804MOL0     H 8523  12.672   4.954   8.347  1.5473  2.1358  1.3858
  804MOL0     H 8524  11.398   4.690   7.227  0.4411  0.9262 -0.6673
  804MOL0     H 8525  11.188   4.547   7.250  0.5756 -0.2568  0.0137
  804MOL0     H 8526  10.763   4.468   7.083  2.4606  0.0707  1.1975
  804MOL0     H 8527  10.541   4.374   7.102  0.9717 -0.3610 -0.1383
  804MOL0     H 8528  10.236   4.400   7.325 -2.2412 -1.2509  1.5451
  804MOL0     H 8529  10.361   4.470   7.428 -0.5363  1.0923 -0.5784
  804MOL0     H 8530  10.200   4.350   7.561  0.2748  0.8173 -0.2658
  804MOL0     H 8531  10.357   4.291   7.583 -0.6200  1.4812  1.3553
  804MOL0     H 8532  10.305   4.092   7.457  0.1179 -0.4004  3.5217
  804MOL0     H 8533  10.161   4.167   7.373 -1.3549  1.6319  0.1695
  804MOL0     H 8534  10.057   4.174   7.589 -1.8086 -0.5133 -3.3981
  804MOL0     H 8535  10.084   4.016   7.531 -1.0481  1.0028 -0.4863
  804MOL0     H 8536  10.340   3.997   7.869  1.0909  0.3897 -0.8337
  804MOL0     H 8537  10.557   4.356   7.519 -1.5611  2.4577 -0.5139
  804MOL0     H 8538  10.885   4.392   7.571 -0.2696 -0.9408  1.8175
  804MOL0     H 8539  10.823   4.564   7.583  2.2166 -0.5521 -0.3241
  804MOL0     H 8540  10.726   4.440   7.643 -2.6369 -1.1374 -2.2920
  805MOL0     O 8541   7.160   0.701   4.088 -0.1410 -0.8925  0.0191
  805MOL0     C 8542   7.064   0.765   4.054  0.3363 -0.0636 -0.5912
  805MOL0     O 8543   7.063   0.882   3.976  0.0986  0.6739 -0.3683
  805MOL0     C 8544   7.181   0.923   3.926 -0.3713 -0.0740  0.8194
  805MOL0     C 8545   7.255   0.842   3.837  0.5224 -0.2019 -0.0752
  805MOL0     C 8546   7.371   0.882   3.789  0.0659 -0.3513 -0.2788
  805MOL0     C 8547   7.428   0.998   3.825  0.5670 -0.5362 -1.4070
  805MOL0     O 8548   7.554   1.034   3.784  0.6875 -0.0145 -0.1491
  805MOL0     C 8549   7.635   0.938   3.710  0.1122 -1.2710 -1.0511
  805MOL0     C 8550   7.765   0.999   3.673  0.1818  0.8957 -0.2650
  805MOL0     C 8551   7.862   0.980   3.792 -0.2161  0.5343 -0.0944
  805MOL0     C 8552   8.010   0.995   3.751 -0.3025 -0.0654  0.3191
  805MOL0     C 8553   8.120   0.963   3.851 -0.3413 -0.4455 -0.2105
  805MOL0     C 8554   8.112   0.813   3.879  0.0216  0.2538 -0.1075
  805MOL0     C 8555   8.228   0.750   3.950  0.0319  0.0467 -0.0288
  805MOL0     C 8556   8.217   0.598   3.977 -0.1154 -0.3547  0.7170
  805MOL0     N 8557   8.337   0.554   4.056  0.3318 -0.8524 -0.1347
  805MOL0     C 8558   8.342   0.533   4.193  0.0192  0.8630  0.1599
  805MOL0     C 8559   8.474   0.498   4.231  1.1063 -0.2180  0.4345
  805MOL0     C 8560   8.516   0.455   4.373  1.0325  0.0028  0.3775
  805MOL0     C 8561   8.660   0.483   4.394 -0.5332 -0.0899 -0.6172
  805MOL0     C 8562   8.714   0.445   4.531 -0.0510  0.5536  0.1589
  805MOL0     C 8563   8.856   0.489   4.538 -0.3864 -0.3653  0.0188
  805MOL0     O 8564   8.912   0.447   4.665 -0.3658  0.4678  0.1130
  805MOL0     C 8565   9.052   0.471   4.694 -0.1007 -0.7471  0.4123
  805MOL0     C 8566   9.104   0.444   4.825 -0.5228  1.2221  0.2000
  805MOL0     C 8567   9.240   0.467   4.851 -0.7044 -0.0974  0.2512
  805MOL0     C 8568   9.335   0.507   4.758 -0.8513 -0.3019  0.9627
  805MOL0     C 8569   9.470   0.538   4.797 -0.6538 -0.4713  0.1024
  805MOL0     O 8570   9.563   0.562   4.692 -0.0692  0.3026 -0.8293
  805MOL0     C 8571   9.692   0.596   4.733  0.6315 -0.4108 -0.4431
  805MOL0     C 8572   9.728   0.728   4.764 -0.1225  0.5764 -0.0265
  805MOL0     C 8573   9.856   0.762   4.800 -0.1132 -0.8821 -0.9104
  805MOL0     C 8574   9.957   0.672   4.824 -0.2010  0.5676  0.6479
  805MOL0     O 8575  10.079   0.720   4.860 -0.5227 -0.1417 -0.1896
  805MOL0     C 8576  10.186   0.627   4.882  0.7621 -0.2038  0.4289
  805MOL0     C 8577  10.318   0.690   4.916  0.2905  0.3289  0.1469
  805MOL0     C 8578  10.440   0.601   4.879 -0.2730  0.4034 -0.4022
  805MOL0     C 8579  10.567   0.672   4.920 -0.0451  0.1242 -0.2210
  805MOL0     C 8580  10.669   0.559   4.945 -0.0390  0.6081  0.2419
  805MOL0     C 8581  10.810   0.617   4.960  0.0084  0.2861 -0.3758
  805MOL0     C 8582  10.864   0.695   4.832 -0.4422 -0.6406 -0.5533
  805MOL0     C 8583  11.017   0.721   4.850  0.1163  1.0238  0.3829
  805MOL0    Cl 8584  11.111   0.568   4.823  0.1030  0.1087  0.0042
  805MOL0     C 8585   9.917   0.538   4.804 -0.5878 -0.2791  0.0862
  805MOL0     C 8586   9.789   0.505   4.760  0.7943  0.4501  0.6194
  805MOL0     O 8587   9.491   0.552   4.915  0.8842  0.2474  0.0577
  805MOL0     C 8588   9.280   0.526   4.627 -0.1450  0.1839 -0.1742
  805MOL0     C 8589   9.143   0.516   4.596 -0.7186  0.1068 -0.4756
  805MOL0     N 8590   8.542   0.499   4.111 -0.2531 -0.0884 -0.0045
  805MOL0     N 8591   8.464   0.535   4.015  1.2548  0.4691  0.1955
  805MOL0     C 8592   7.362   1.084   3.913  0.4380 -0.0156  0.2741
  805MOL0     C 8593   7.229   1.049   3.960 -0.9508  0.0403 -1.0521
  805MOL0     C 8594   6.929   0.713   4.086 -0.5616  0.0124 -0.3149
  805MOL0     C 8595   6.824   0.761   4.005  0.3786  0.5709 -0.0075
  805MOL0     C 8596   6.693   0.710   4.026  0.0914  0.6047  0.3198
  805MOL0     C 8597   6.662   0.620   4.135  0.3128 -1.1780 -0.4233
  805MOL0     O 8598   6.525   0.582   4.148  0.4130 -0.1366  0.2982
  805MOL0     C 8599   6.489   0.480   4.244  0.2119 -0.6026 -0.3663
  805MOL0     C 8600   6.342   0.497   4.256  0.1713  0.4157 -0.0498
  805MOL0     C 8601   6.256   0.471   4.126  0.4331  0.1653 -1.2142
  805MOL0     C 8602   6.112   0.493   4.144  0.2566 -0.0909  0.4107
  805MOL0     C 8603   6.044   0.590   4.060 -0.0838  0.2778  0.4835
  805MOL0     C 8604   5.989   0.679   4.002 -0.1737  0.3250 -0.0944
  805MOL0     C 8605   6.767   0.581   4.218  0.7304 -0.5726  0.0846
  805MOL0     C 8606   6.899   0.622   4.193 -0.0711  0.0833  0.2831
  805MOL0     C 8607   6.999   0.582   4.304  0.4260 -0.3765 -0.2272
  805MOL0     H 8608   7.211   0.751   3.797  2.1382 -0.4805 -1.2853
  805MOL0     H 8609   7.426   0.803   3.739  1.9617 -1.2238  2.8968
  805MOL0     H 8610   7.644   0.856   3.782 -3.7712 -3.4775 -2.7750
  805MOL0     H 8611   7.588   0.910   3.615 -0.1990  1.1929 -1.7077
  805MOL0     H 8612   7.760   1.106   3.653  0.0743  0.6229 -1.7967
  805MOL0     H 8613   7.794   0.932   3.591  0.3644 -0.7626  1.0852
  805MOL0     H 8614   7.843   0.877   3.822 -0.1737  0.6456  0.3175
  805MOL0     H 8615   7.838   1.050   3.873 -0.7815  1.7131 -1.2344
  805MOL0     H 8616   8.020   0.937   3.659 -1.3838  0.8799 -0.4127
  805MOL0     H 8617   8.019   1.098   3.718  1.6570 -1.0522 -2.6665
  805MOL0     H 8618   8.214   1.002   3.810 -0.1125 -0.0230  0.6939
  805MOL0     H 8619   8.110   1.024   3.941  3.9979  2.3492 -1.3271
  805MOL0     H 8620   8.021   0.781   3.931  1.6179  0.4200  3.0373
  805MOL0     H 8621   8.110   0.771   3.778 -1.8032  0.0535 -0.0235
  805MOL0     H 8622   8.234   0.815   4.038 -3.1498  1.1492 -0.4737
  805MOL0     H 8623   8.324   0.764   3.901  1.2224  0.3280  2.2255
  805MOL0     H 8624   8.129   0.560   4.030  1.0085  1.7248  4.4671
  805MOL0     H 8625   8.217   0.553   3.878 -1.1680  1.6417 -0.2404
  805MOL0     H 8626   8.261   0.528   4.265  0.1191 -2.3704  0.1960
  805MOL0     H 8627   8.462   0.518   4.444  1.3979  1.2712 -0.4213
  805MOL0     H 8628   8.507   0.347   4.386 -0.0981  0.1643  1.0218
  805MOL0     H 8629   8.723   0.426   4.325 -0.6577 -0.4249 -0.4613
  805MOL0     H 8630   8.676   0.588   4.369  0.6725 -0.0584  0.1976
  805MOL0     H 8631   8.720   0.336   4.533  2.7352  0.5980 -0.7830
  805MOL0     H 8632   8.658   0.486   4.615  2.0436  0.7521  1.5218
  805MOL0     H 8633   8.861   0.598   4.528 -1.5587 -0.4068 -1.3734
  805MOL0     H 8634   8.914   0.442   4.458  1.3302  2.1553 -0.3395
  805MOL0     H 8635   9.037   0.410   4.903  2.8058 -0.3296  2.6045
  805MOL0     H 8636   9.270   0.457   4.954  0.7043 -2.1727 -0.2884
  805MOL0     H 8637   9.661   0.810   4.740  0.9785  1.5582  0.1772
  805MOL0     H 8638   9.883   0.866   4.812  0.3910 -1.1433  0.4054
  805MOL0     H 8639  10.164   0.551   4.958  0.3597 -0.1030  0.4180
  805MOL0     H 8640  10.203   0.574   4.788 -0.6481 -1.5009  0.8408
  805MOL0     H 8641  10.322   0.780   4.855 -1.7562  0.7723  0.5869
  805MOL0     H 8642  10.316   0.725   5.020 -1.7700  2.6401 -0.5778
  805MOL0     H 8643  10.424   0.508   4.933 -0.2257  0.1186 -0.8718
  805MOL0     H 8644  10.456   0.586   4.772  5.8645  3.6467 -0.4152
  805MOL0     H 8645  10.564   0.728   5.014  1.1669 -1.4622  0.8156
  805MOL0     H 8646  10.589   0.735   4.834 -1.6694  0.4347 -0.4488
  805MOL0     H 8647  10.669   0.481   4.869  1.7202 -1.2612  2.0219
  805MOL0     H 8648  10.652   0.506   5.039 -2.4779 -0.0509 -0.5105
  805MOL0     H 8649  10.808   0.688   5.043 -2.5839  1.2080 -1.1144
  805MOL0     H 8650  10.869   0.527   4.981 -0.1877  0.0343 -0.8881
  805MOL0     H 8651  10.796   0.780   4.819 -1.5273 -1.4063  0.0055
  805MOL0     H 8652  10.848   0.625   4.750 -0.0691 -1.5945  0.1808
  805MOL0     H 8653  11.051   0.788   4.770 -1.0394  0.1010 -0.9261
  805MOL0     H 8654  11.035   0.757   4.952 -0.1155 -0.4822  0.9815
  805MOL0     H 8655   9.994   0.464   4.826 -0.0126 -1.4241 -4.7112
  805MOL0     H 8656   9.778   0.401   4.731  2.0793  0.7624 -1.1352
  805MOL0     H 8657   9.348   0.564   4.552  2.0541  2.1197  2.6142
  805MOL0     H 8658   9.123   0.542   4.492  0.1722  2.4877 -0.1116
  805MOL0     H 8659   7.413   1.176   3.941 -1.2504 -0.2956  5.2019
  805MOL0     H 8660   7.173   1.115   4.025 -0.4502 -0.8817  0.3610
  805MOL0     H 8661   6.838   0.828   3.921  1.5164  1.9134  1.1935
  805MOL0     H 8662   6.617   0.751   3.960  1.6388  1.0823 -1.2491
  805MOL0     H 8663   6.532   0.495   4.343 -2.4157 -2.5492  1.1961
  805MOL0     H 8664   6.519   0.383   4.203  0.3692 -0.2079 -1.2263
  805MOL0     H 8665   6.326   0.598   4.293  0.6606  0.1541  0.9151
  805MOL0     H 8666   6.300   0.429   4.332 -1.0575 -0.1665 -1.1954
  805MOL0     H 8667   6.273   0.367   4.096 -1.3187 -0.8150  0.8969
  805MOL0     H 8668   6.291   0.530   4.040 -1.5340  1.6225 -1.0909
  805MOL0     H 8669   6.066   0.395   4.130 -0.5536  0.5107 -1.5591
  805MOL0     H 8670   6.092   0.535   4.243 -1.6404  2.8977 -1.0841
  805MOL0     H 8671   5.941   0.759   3.951  1.3949  1.8120  0.6547
  805MOL0     H 8672   6.750   0.508   4.296 -0.4814 -1.0344 -0.5881
  805MOL0     H 8673   7.053   0.493   4.269  0.6844 -0.1112 -0.5164
  805MOL0     H 8674   7.082   0.653   4.310  0.3988 -0.3612 -0.0489
  805MOL0     H 8675   6.945   0.568   4.398 -0.2882  2.0948 -0.2020
  806MOL0     O 8676   1.792  11.051   7.897 -0.7584 -0.4765  0.1687
  806MOL0     C 8677   1.766  10.927   7.906 -1.1807  0.1010  0.7566
  806MOL0     O 8678   1.861  10.824   7.907  0.2162  0.1313 -0.0587
  806MOL0     C 8679   1.991  10.872   7.889 -0.2224 -0.1984  0.1736
  806MOL0     C 8680   2.043  10.876   7.755 -0.3881 -0.5045 -0.8652
  806MOL0     C 8681   2.171  10.917   7.729  0.0326 -0.0809  0.4878
  806MOL0     C 8682   2.254  10.951   7.832  0.3972  0.7743  0.7885
  806MOL0     O 8683   2.383  10.989   7.811 -0.7091 -0.0522 -0.7421
  806MOL0     C 8684   2.415  11.132   7.832  0.4320  0.1964  0.2409
  806MOL0     C 8685   2.559  11.145   7.875  0.1503 -0.0215  0.8708
  806MOL0     C 8686   2.584  11.096   8.019  0.5305  0.3115 -0.6254
  806MOL0     C 8687   2.721  11.134   8.075  0.0017 -0.4593 -1.0244
  806MOL0     C 8688   2.717  11.097   8.225 -0.3018  0.0582 -0.1459
  806MOL0     C 8689   2.861  11.098   8.285 -0.1521 -0.5962  0.4317
  806MOL0     C 8690   2.943  10.962   8.272 -0.6304  0.0428  0.2047
  806MOL0     C 8691   3.084  10.984   8.210 -0.0671 -0.0117 -0.2924
  806MOL0     N 8692   3.177  10.890   8.274 -0.2851  0.5935  0.8817
  806MOL0     C 8693   3.260  10.911   8.380  0.2142  0.6114 -1.2012
  806MOL0     C 8694   3.357  10.812   8.362 -0.4526 -0.2931  0.6331
  806MOL0     C 8695   3.474  10.786   8.452  0.4939  0.5676 -0.0227
  806MOL0     C 8696   3.572  10.900   8.462 -0.6288  0.6581 -0.4000
  806MOL0     C 8697   3.673  10.884   8.577  0.2053 -0.2528  0.4691
  806MOL0     C 8698   3.818  10.919   8.553  0.1722  0.6002  0.6018
  806MOL0     O 8699   3.894  10.878   8.663 -0.3071  0.6126 -0.4838
  806MOL0     C 8700   4.031  10.866   8.652  0.5257 -0.4857 -0.3120
  806MOL0     C 8701   4.102  10.908   8.537  1.0658 -0.2263  0.3297
  806MOL0     C 8702   4.245  10.903   8.542 -0.3963 -0.0147  0.4234
  806MOL0     C 8703   4.314  10.853   8.657 -0.5042 -0.3106  0.4011
  806MOL0     C 8704   4.458  10.846   8.661 -0.1554  0.9846 -0.3065
  806MOL0     O 8705   4.538  10.919   8.577 -0.4198  0.1623  0.0282
  806MOL0     C 8706   4.671  10.925   8.589 -0.0954 -0.6230  0.3054
  806MOL0     C 8707   4.741  10.961   8.706 -0.5438  0.4578 -1.0480
  806MOL0     C 8708   4.876  10.963   8.714  0.6606 -0.6343  0.1714
  806MOL0     C 8709   4.953  10.947   8.596 -0.0048  0.7462  0.3083
  806MOL0     O 8710   5.086  10.935   8.628 -0.5695 -0.1445  0.6403
  806MOL0     C 8711   5.175  10.898   8.524  0.4846  0.4570 -0.2822
  806MOL0     C 8712   5.320  10.894   8.582  0.0242  0.7213  0.9379
  806MOL0     C 8713   5.410  10.882   8.451  0.1198  0.1409 -0.6071
  806MOL0     C 8714   5.552  10.840   8.498 -0.2547  0.1108  0.6649
  806MOL0     C 8715   5.663  10.945   8.476  0.3550  0.1945  0.2152
  806MOL0     C 8716   5.787  10.933   8.573 -0.0101  1.3090  0.7325
  806MOL0     C 8717   5.887  11.049   8.553 -0.1905 -0.8673  0.0348
  806MOL0     C 8718   5.981  11.055   8.665  1.1487 -0.0330 -0.4531
  806MOL0    Cl 8719   6.101  10.929   8.644 -0.2054  0.0829  0.0684
  806MOL0     C 8720   4.886  10.909   8.481 -0.3196  0.2927 -0.4737
  806MOL0     C 8721   4.748  10.896   8.474  0.3034  0.4912 -1.0615
  806MOL0     O 8722   4.495  10.771   8.750 -0.1019  0.1150  0.3867
  806MOL0     C 8723   4.235  10.808   8.764 -0.8062  1.5939 -0.3936
  806MOL0     C 8724   4.098  10.822   8.769  0.6788 -0.6447 -0.6294
  806MOL0     N 8725   3.314  10.732   8.258  0.6793  0.5444 -0.0598
  806MOL0     N 8726   3.206  10.776   8.213  0.0304  0.6205  0.7840
  806MOL0     C 8727   2.206  10.930   7.968 -0.2299  0.8601 -0.6586
  806MOL0     C 8728   2.076  10.892   7.993  0.3189  0.9169 -1.2277
  806MOL0     C 8729   1.623  10.907   7.934 -0.3213  0.4036 -0.4549
  806MOL0     C 8730   1.542  11.012   7.982  0.3422  0.3476 -0.0446
  806MOL0     C 8731   1.414  11.002   8.026 -0.6786 -0.7901 -0.0959
  806MOL0     C 8732   1.358  10.877   8.025  0.7094 -0.4897 -0.5463
  806MOL0     O 8733   1.240  10.845   8.079  0.5899  0.0650 -0.1506
  806MOL0     C 8734   1.160  10.945   8.146 -0.0168  0.5904 -0.2226
  806MOL0     C 8735   1.025  10.882   8.192  0.6703  0.3067 -1.2353
  806MOL0     C 8736   0.945  10.979   8.290 -0.2329 -0.0018  0.0612
  806MOL0     C 8737   0.806  10.920   8.327 -0.3333  1.0782 -0.4145
  806MOL0     C 8738   0.737  11.004   8.429 -0.5037 -0.2018 -0.4742
  806MOL0     C 8739   0.681  11.083   8.507  0.5397 -0.0837  0.9596
  806MOL0     C 8740   1.429  10.775   7.973 -0.6560  0.7060 -0.2167
  806MOL0     C 8741   1.561  10.777   7.932  0.4835 -0.7041 -0.4484
  806MOL0     C 8742   1.622  10.652   7.883  0.2715 -0.0499 -0.2494
  806MOL0     H 8743   1.977  10.853   7.672 -1.9940  2.9883 -0.7364
  806MOL0     H 8744   2.213  10.922   7.629  0.4946  0.2394  0.6924
  806MOL0     H 8745   2.393  11.202   7.751  0.2004 -1.0053 -0.7734
  806MOL0     H 8746   2.357  11.167   7.918 -2.6589 -0.2474 -1.5009
  806MOL0     H 8747   2.579  11.252   7.880  1.7653 -0.1961 -0.8212
  806MOL0     H 8748   2.625  11.102   7.799  1.3707  2.1375  0.6389
  806MOL0     H 8749   2.557  10.990   8.019 -2.0109  0.8878 -0.5572
  806MOL0     H 8750   2.520  11.143   8.095 -0.2080 -4.4004  2.0755
  806MOL0     H 8751   2.798  11.079   8.020  0.4888  0.1970 -1.0192
  806MOL0     H 8752   2.748  11.240   8.082 -0.8338 -0.3436  1.7723
  806MOL0     H 8753   2.651  11.168   8.275  0.1143  1.5190 -1.6168
  806MOL0     H 8754   2.667  10.999   8.227  1.4250 -0.8994 -1.2594
  806MOL0     H 8755   2.918  11.173   8.231 -1.7021 -1.0263 -1.9355
  806MOL0     H 8756   2.840  11.121   8.390 -3.1574 -1.1291  0.0327
  806MOL0     H 8757   2.891  10.890   8.209  0.0108 -1.5289  1.4012
  806MOL0     H 8758   2.948  10.920   8.373  2.1318 -1.6782 -0.5464
  806MOL0     H 8759   3.075  10.981   8.101 -0.9989  1.6204 -0.2911
  806MOL0     H 8760   3.115  11.085   8.239 -2.8595  0.1065  2.8527
  806MOL0     H 8761   3.262  10.988   8.457  0.3779 -1.1808  0.6806
  806MOL0     H 8762   3.435  10.762   8.552  0.0230  1.0809 -0.0782
  806MOL0     H 8763   3.527  10.700   8.409  0.7872  0.2063  1.0225
  806MOL0     H 8764   3.622  10.896   8.365  1.0369  0.3452  0.4351
  806MOL0     H 8765   3.507  10.984   8.484 -3.2301 -1.7851  2.1225
  806MOL0     H 8766   3.684  10.780   8.610  0.1831 -0.4924 -0.2655
  806MOL0     H 8767   3.640  10.948   8.659 -2.9631 -1.6900  0.4587
  806MOL0     H 8768   3.823  11.028   8.541 -0.0119  0.5066 -0.4064
  806MOL0     H 8769   3.854  10.868   8.464 -0.6809  0.1446  0.5054
  806MOL0     H 8770   4.049  10.940   8.448  3.7130  0.1449 -1.2289
  806MOL0     H 8771   4.309  10.930   8.458 -2.5808  0.0804 -1.3071
  806MOL0     H 8772   4.686  10.965   8.800  0.9226 -0.2817 -0.1164
  806MOL0     H 8773   4.913  10.982   8.814  0.0608 -0.0410  0.2895
  806MOL0     H 8774   5.152  10.799   8.484  0.9260 -0.2861  1.2208
  806MOL0     H 8775   5.175  10.975   8.446  0.9744  0.8168  0.0663
  806MOL0     H 8776   5.337  10.986   8.639 -0.2604  2.7261 -1.9906
  806MOL0     H 8777   5.334  10.818   8.659  0.2858  0.7828  0.9531
  806MOL0     H 8778   5.364  10.805   8.388 -2.9994  1.0274  0.4480
  806MOL0     H 8779   5.425  10.980   8.404  0.4948  0.2040 -0.3610
  806MOL0     H 8780   5.584  10.745   8.456 -0.6616  1.5657 -3.3036
  806MOL0     H 8781   5.541  10.823   8.606  1.3818 -0.8899  0.7173
  806MOL0     H 8782   5.617  11.044   8.488  0.5245  0.1452  1.4009
  806MOL0     H 8783   5.700  10.952   8.374 -0.8795 -0.8990 -0.3399
  806MOL0     H 8784   5.750  10.943   8.675 -1.1560  2.5996  0.2226
  806MOL0     H 8785   5.837  10.836   8.568 -3.1162 -0.3585 -2.6808
  806MOL0     H 8786   5.839  11.148   8.557 -1.9186 -1.6685 -0.0317
  806MOL0     H 8787   5.938  11.046   8.456  1.0351  0.3274  0.6001
  806MOL0     H 8788   6.037  11.149   8.662  2.6559 -0.9364 -3.1024
  806MOL0     H 8789   5.927  11.057   8.760 -0.3445 -2.5890 -1.1553
  806MOL0     H 8790   4.937  10.871   8.393 -1.7533 -0.4235 -1.0270
  806MOL0     H 8791   4.682  10.877   8.390  0.0229 -0.7707 -0.5765
  806MOL0     H 8792   4.278  10.769   8.856 -0.6516  1.7864 -0.3833
  806MOL0     H 8793   4.036  10.811   8.858  1.7348 -1.7734 -0.0012
  806MOL0     H 8794   2.280  10.942   8.046 -0.3853  0.8097 -0.5021
  806MOL0     H 8795   2.033  10.875   8.091 -2.4347 -1.1651 -2.6580
  806MOL0     H 8796   1.582  11.112   7.987 -0.1121  0.5593 -0.5669
  806MOL0     H 8797   1.365  11.096   8.048 -0.5187 -0.3732 -1.4817
  806MOL0     H 8798   1.128  11.015   8.069 -2.3910  0.7147  0.8063
  806MOL0     H 8799   1.228  10.984   8.223  1.6176 -3.0248  0.3756
  806MOL0     H 8800   1.034  10.789   8.248 -1.4907 -0.2622 -1.7727
  806MOL0     H 8801   0.974  10.853   8.100  0.0543 -0.6318 -0.6042
  806MOL0     H 8802   0.925  11.076   8.242 -0.6046  0.0226  0.2565
  806MOL0     H 8803   1.010  10.991   8.377  2.2433 -2.4018 -1.3114
  806MOL0     H 8804   0.745  10.912   8.236 -0.0032 -1.8664 -0.4720
  806MOL0     H 8805   0.818  10.821   8.370  2.9237  0.2049 -2.9405
  806MOL0     H 8806   0.651  11.138   8.594 -1.2645  1.1677 -0.3878
  806MOL0     H 8807   1.373  10.682   7.975  2.0124 -1.0543 -1.3480
  806MOL0     H 8808   1.546  10.574   7.874 -2.9487  2.8791 -0.6497
  806MOL0     H 8809   1.657  10.671   7.781  0.3715  0.2863 -0.1554
  806MOL0     H 8810   1.713  10.625   7.938 -0.6268 -0.3900  1.1158
  807MOL0     O 8811   7.112  10.212   5.831 -0.1000 -0.7242 -0.7963
  807MOL0     C 8812   7.153  10.286   5.921 -0.0677 -0.3820 -0.7229
  807MOL0     O 8813   7.284  10.309   5.947  0.9748 -0.7181 -0.2128
  807MOL0     C 8814   7.388  10.274   5.865  0.0349 -0.0438  0.2970
  807MOL0     C 8815   7.380  10.304   5.724  0.2711  0.6146 -0.0168
  807MOL0     C 8816   7.490  10.282   5.638 -0.5187  0.9614 -0.1680
  807MOL0     C 8817   7.602  10.216   5.687  0.2517 -0.1042  0.8480
  807MOL0     O 8818   7.695  10.181   5.595  0.1719  0.8756 -0.0288
  807MOL0     C 8819   7.806  10.092   5.625 -0.4016  0.1964 -0.3294
  807MOL0     C 8820   7.928  10.171   5.654  0.5533  0.6191  0.0040
  807MOL0     C 8821   8.030  10.076   5.711 -0.5824  0.3140  0.9619
  807MOL0     C 8822   8.102   9.993   5.595  0.4782 -0.5303 -0.0831
  807MOL0     C 8823   8.204   9.894   5.645  0.0982 -0.1605 -0.6743
  807MOL0     C 8824   8.337   9.941   5.695 -0.1555  0.0781 -0.3099
  807MOL0     C 8825   8.424   9.830   5.755 -0.3099  0.4739 -1.3316
  807MOL0     C 8826   8.572   9.873   5.766  0.0556 -0.1478 -0.7537
  807MOL0     N 8827   8.583   9.976   5.875  0.6684  0.1586  0.0052
  807MOL0     C 8828   8.621   9.950   6.005 -0.1799 -0.5002  0.5017
  807MOL0     C 8829   8.603  10.072   6.061  1.1557  0.2498  0.2365
  807MOL0     C 8830   8.642  10.115   6.196 -1.1615  0.4720  0.6062
  807MOL0     C 8831   8.789  10.163   6.181  0.3586 -0.3663 -0.0378
  807MOL0     C 8832   8.876  10.044   6.203 -0.5439  0.7441  0.5680
  807MOL0     C 8833   9.020  10.096   6.218 -0.4786 -0.3380 -0.5993
  807MOL0     O 8834   9.112   9.991   6.257  0.3364 -0.4120 -0.0414
  807MOL0     C 8835   9.242  10.035   6.260 -0.1042  0.5852  0.4611
  807MOL0     C 8836   9.331   9.943   6.315  0.7469 -0.3244  0.1814
  807MOL0     C 8837   9.461   9.980   6.350  0.0836  0.6914  0.8735
  807MOL0     C 8838   9.520  10.100   6.307  0.4628 -0.0672 -0.1880
  807MOL0     C 8839   9.655  10.130   6.305  0.2827 -1.0714 -0.5731
  807MOL0     O 8840   9.739  10.020   6.330 -0.7137  0.3182  0.3000
  807MOL0     C 8841   9.870  10.051   6.300  0.5029 -0.2795 -0.3618
  807MOL0     C 8842   9.963  10.107   6.394  0.1678  0.1021 -0.0476
  807MOL0     C 8843  10.091  10.153   6.356 -0.6002  0.5747  0.5581
  807MOL0     C 8844  10.142  10.123   6.228 -0.3772  0.6880 -0.7720
  807MOL0     O 8845  10.279  10.151   6.205 -0.3027  0.0095 -0.1428
  807MOL0     C 8846  10.334  10.142   6.072  0.1207  0.1845 -0.0289
  807MOL0     C 8847  10.395  10.002   6.041 -0.2775 -0.4228  0.2551
  807MOL0     C 8848  10.495   9.958   6.148 -0.2678 -0.2449 -0.2951
  807MOL0     C 8849  10.596  10.074   6.159 -0.4282 -0.5031 -0.5326
  807MOL0     C 8850  10.728  10.042   6.234  0.0775  0.5094  0.0468
  807MOL0     C 8851  10.720   9.968   6.364  0.0707 -0.7577  0.2531
  807MOL0     C 8852  10.858   9.965   6.426  0.5734 -1.0002 -0.0379
  807MOL0     C 8853  10.866   9.908   6.570  0.2147 -1.0451  0.9912
  807MOL0    Cl 8854  10.816   9.738   6.578 -0.3831  0.0996  0.0558
  807MOL0     C 8855  10.054  10.052   6.144 -0.0279  0.9961  0.6201
  807MOL0     C 8856   9.919  10.027   6.177 -0.4247  0.6169 -0.3016
  807MOL0     O 8857   9.692  10.247   6.278  0.4656 -0.3324  0.1662
  807MOL0     C 8858   9.426  10.188   6.245 -0.1360  0.4896 -1.0316
  807MOL0     C 8859   9.296  10.155   6.217  0.3911 -0.0903 -0.4072
  807MOL0     N 8860   8.555  10.167   5.967  0.1906  0.2913 -0.2656
  807MOL0     N 8861   8.551  10.105   5.850 -0.3241 -0.4162  0.0034
  807MOL0     C 8862   7.612  10.188   5.831  0.0734 -0.7664 -0.1522
  807MOL0     C 8863   7.503  10.217   5.915  0.6180 -0.7657  0.4712
  807MOL0     C 8864   7.048  10.357   6.006 -0.8275  0.2516 -0.3501
  807MOL0     C 8865   7.094  10.471   6.080 -0.7648  0.1946 -0.7887
  807MOL0     C 8866   7.009  10.541   6.168  0.7137  0.0799  0.3015
  807MOL0     C 8867   6.871  10.515   6.170  0.4469  0.6821  0.3762
  807MOL0     O 8868   6.792  10.595   6.249 -0.0243  0.5242 -0.0334
  807MOL0     C 8869   6.647  10.566   6.236  0.3199 -0.2760  0.8694
  807MOL0     C 8870   6.581  10.682   6.296  0.2895 -0.5151 -1.0299
  807MOL0     C 8871   6.581  10.686   6.457  0.4476 -0.2045  0.3292
  807MOL0     C 8872   6.708  10.747   6.517  0.2016 -0.2154 -0.3272
  807MOL0     C 8873   6.682  10.772   6.665 -0.0225  0.3408  1.1083
  807MOL0     C 8874   6.657  10.814   6.773  1.7794  0.1359  0.0688
  807MOL0     C 8875   6.821  10.409   6.092 -0.3482  0.7742  0.6272
  807MOL0     C 8876   6.905  10.333   6.000 -0.3530 -0.3122 -0.3802
  807MOL0     C 8877   6.837  10.210   5.939 -0.6694 -0.3398  0.3052
  807MOL0     H 8878   7.294  10.355   5.681 -0.5680 -0.0268  0.8561
  807MOL0     H 8879   7.479  10.292   5.530  0.5068  0.6280 -0.3123
  807MOL0     H 8880   7.772  10.030   5.708 -2.2349  1.7965  0.1879
  807MOL0     H 8881   7.822  10.028   5.537  0.4300 -1.3054  0.8676
  807MOL0     H 8882   7.893  10.239   5.732  1.4568 -0.0217  1.0121
  807MOL0     H 8883   7.954  10.223   5.562  2.4040 -0.0681  0.0956
  807MOL0     H 8884   7.986   9.997   5.772 -0.7785 -2.1454 -2.1307
  807MOL0     H 8885   8.099  10.135   5.773 -0.4212 -1.7645  2.8832
  807MOL0     H 8886   8.028   9.931   5.543 -0.3208  0.7573 -0.5214
  807MOL0     H 8887   8.152  10.066   5.530 -0.3632  0.4948  0.3919
  807MOL0     H 8888   8.160   9.847   5.734 -2.3878  2.5095 -0.3175
  807MOL0     H 8889   8.229   9.820   5.569 -1.8279 -0.7684 -0.7870
  807MOL0     H 8890   8.393   9.994   5.618  2.3198 -2.0987 -0.1541
  807MOL0     H 8891   8.306  10.014   5.770 -0.8508  1.1903 -1.6371
  807MOL0     H 8892   8.406   9.740   5.696 -1.2856  0.8330 -1.6025
  807MOL0     H 8893   8.388   9.800   5.854  1.1678  2.3426 -0.1429
  807MOL0     H 8894   8.633   9.786   5.791 -0.2285 -0.4421 -1.0801
  807MOL0     H 8895   8.614   9.918   5.675  0.4771 -1.4094 -1.2027
  807MOL0     H 8896   8.676   9.869   6.052 -0.1787 -0.4290  0.6243
  807MOL0     H 8897   8.584  10.197   6.240 -1.3611  0.7657 -0.1835
  807MOL0     H 8898   8.625  10.036   6.270  0.6422 -0.6793 -0.1484
  807MOL0     H 8899   8.802  10.207   6.082 -2.2875  0.8697  0.1013
  807MOL0     H 8900   8.797  10.243   6.256 -0.9026  0.9133 -1.2196
  807MOL0     H 8901   8.877   9.976   6.118  0.1085  0.7422  0.5678
  807MOL0     H 8902   8.857   9.989   6.296  1.5717 -1.0324  0.0431
  807MOL0     H 8903   9.014  10.162   6.304 -2.1993 -2.9424  1.4598
  807MOL0     H 8904   9.048  10.144   6.124 -4.1820  2.2463 -0.5500
  807MOL0     H 8905   9.290   9.844   6.337 -3.6256  0.8651 -1.5304
  807MOL0     H 8906   9.504   9.892   6.395  0.5475  0.3404 -0.2341
  807MOL0     H 8907   9.933  10.125   6.497 -0.2088  0.0298 -0.1436
  807MOL0     H 8908  10.153  10.201   6.431  2.6003  0.0890 -1.5868
  807MOL0     H 8909  10.260  10.159   5.993  1.8012  0.1715 -1.6618
  807MOL0     H 8910  10.406  10.224   6.060  1.0344 -0.0919  2.7700
  807MOL0     H 8911  10.326   9.920   6.020 -2.0193  1.5524 -2.3144
  807MOL0     H 8912  10.446  10.017   5.946 -3.1257 -0.2905 -1.3565
  807MOL0     H 8913  10.449   9.943   6.247 -0.3627 -0.0951 -0.3160
  807MOL0     H 8914  10.556   9.873   6.117  2.0326  1.0048  0.5338
  807MOL0     H 8915  10.552  10.153   6.221 -1.8088 -0.1226 -1.9268
  807MOL0     H 8916  10.625  10.123   6.066  1.6914 -0.5522  0.0426
  807MOL0     H 8917  10.783  10.136   6.243  2.1401 -0.4398 -1.7304
  807MOL0     H 8918  10.792   9.983   6.168 -0.0248 -0.5398  0.8577
  807MOL0     H 8919  10.645  10.006   6.433  0.2794 -0.1443  0.1457
  807MOL0     H 8920  10.692   9.864   6.343 -1.0434 -0.2157 -1.1121
  807MOL0     H 8921  10.885  10.070   6.438 -2.1611  0.0256 -1.7792
  807MOL0     H 8922  10.935   9.921   6.363  1.1607 -2.6095  1.7030
  807MOL0     H 8923  10.959   9.931   6.623 -1.3423  0.0878  3.3747
  807MOL0     H 8924  10.789   9.965   6.621  0.7859 -0.7807  1.5651
  807MOL0     H 8925  10.089  10.004   6.053 -1.8689  1.1893 -0.2250
  807MOL0     H 8926   9.857   9.981   6.101  0.7902  0.8783 -1.5038
  807MOL0     H 8927   9.468  10.284   6.214  1.9284 -0.7617 -2.3799
  807MOL0     H 8928   9.236  10.229   6.164  0.5172  0.2404 -0.0898
  807MOL0     H 8929   7.702  10.142   5.871 -0.6837  0.1431  2.8630
  807MOL0     H 8930   7.509  10.198   6.022 -2.3550  0.6395  0.9974
  807MOL0     H 8931   7.198  10.492   6.102 -1.5844  0.0842  4.6004
  807MOL0     H 8932   7.049  10.618   6.233 -0.5685  0.9589  0.0934
  807MOL0     H 8933   6.622  10.468   6.277 -2.3480  0.1880  0.5533
  807MOL0     H 8934   6.619  10.551   6.132 -5.1405 -1.6424  2.2005
  807MOL0     H 8935   6.473  10.678   6.280  0.2718 -0.5316 -0.9008
  807MOL0     H 8936   6.620  10.777   6.258 -1.8094  1.6237  1.7274
  807MOL0     H 8937   6.575  10.584   6.495 -2.9702 -1.5496 -3.1957
  807MOL0     H 8938   6.486  10.729   6.490  0.2215  0.5992 -1.2961
  807MOL0     H 8939   6.790  10.676   6.509  0.5013  0.2257 -1.2947
  807MOL0     H 8940   6.733  10.836   6.459  0.9814 -0.7103 -0.7705
  807MOL0     H 8941   6.636  10.866   6.864  2.6943  2.5636 -1.0093
  807MOL0     H 8942   6.718  10.374   6.092  0.3641 -1.5622 -0.4261
  807MOL0     H 8943   6.866  10.211   5.834  4.7873 -3.5484  1.3415
  807MOL0     H 8944   6.875  10.121   5.992  2.8733 -0.8854 -2.7127
  807MOL0     H 8945   6.729  10.219   5.949 -0.9098 -1.8699 -0.5251
  808MOL0     O 8946   6.211  10.671   6.356  0.0632 -0.3405  0.5241
  808MOL0     C 8947   6.249  10.579   6.433  0.2948 -0.4761  1.2272
  808MOL0     O 8948   6.240  10.590   6.569  0.4195 -0.5427  0.2057
  808MOL0     C 8949   6.218  10.719   6.623  0.2294  0.4366 -0.0389
  808MOL0     C 8950   6.101  10.793   6.601  0.2338 -0.5139  0.0675
  808MOL0     C 8951   6.086  10.921   6.669 -0.3145  0.3449 -0.3938
  808MOL0     C 8952   6.194  10.966   6.758  0.7813  0.3124  0.6586
  808MOL0     O 8953   6.198  11.084   6.822 -0.0061  1.1631  0.3768
  808MOL0     C 8954   6.116  11.181   6.762 -0.5238  0.2985  0.6465
  808MOL0     C 8955   6.135  11.314   6.828 -0.0984 -0.3775 -0.5751
  808MOL0     C 8956   6.281  11.357   6.829  0.0929  0.5371  0.3731
  808MOL0     C 8957   6.299  11.506   6.869 -1.5987  0.0061 -0.0985
  808MOL0     C 8958   6.438  11.517   6.928  0.0980  0.2804 -0.0363
  808MOL0     C 8959   6.459  11.648   6.990  0.0493 -0.2997 -0.0201
  808MOL0     C 8960   6.594  11.650   7.065 -0.2117 -0.6246  0.2591
  808MOL0     C 8961   6.723  11.610   6.981  0.5323  0.4838 -0.1424
  808MOL0     N 8962   6.851  11.635   7.050 -0.8118  0.3005  0.5532
  808MOL0     C 8963   6.960  11.694   6.991  0.8984 -0.2201  0.7286
  808MOL0     C 8964   7.059  11.685   7.083  0.1511  0.4740  0.4069
  808MOL0     C 8965   7.202  11.731   7.072 -0.3283  0.4594  0.0298
  808MOL0     C 8966   7.282  11.664   6.955  0.4069 -0.3498  0.1231
  808MOL0     C 8967   7.279  11.508   6.983 -0.4955  0.4994  0.7596
  808MOL0     C 8968   7.387  11.443   6.893 -0.6198  0.0352 -0.2590
  808MOL0     O 8969   7.356  11.484   6.755  0.6494  0.8835  0.2609
  808MOL0     C 8970   7.433  11.441   6.653  0.3294 -0.4828 -0.9889
  808MOL0     C 8971   7.526  11.335   6.669 -0.3543  0.5970  0.1290
  808MOL0     C 8972   7.625  11.301   6.569 -0.3956  0.0875 -0.5438
  808MOL0     C 8973   7.622  11.369   6.443 -0.1468 -0.2068 -0.8086
  808MOL0     C 8974   7.725  11.349   6.338  0.2021 -0.0224 -0.5691
  808MOL0     O 8975   7.750  11.448   6.245 -0.2260  0.5654 -0.3566
  808MOL0     C 8976   7.856  11.409   6.161 -0.7089 -1.3401 -0.2487
  808MOL0     C 8977   7.830  11.378   6.028 -0.1858  0.7218 -0.6627
  808MOL0     C 8978   7.931  11.346   5.940  0.7068 -0.3053 -0.6252
  808MOL0     C 8979   8.070  11.341   5.985  0.2041 -0.1638  0.1154
  808MOL0     O 8980   8.174  11.314   5.899  0.3135 -0.0927  0.0842
  808MOL0     C 8981   8.297  11.236   5.934  1.0166 -0.6819 -0.8921
  808MOL0     C 8982   8.410  11.281   5.849  0.6022 -0.9032 -0.7320
  808MOL0     C 8983   8.538  11.210   5.902 -0.0324  0.8463 -0.1043
  808MOL0     C 8984   8.641  11.187   5.798  0.7210 -0.1718 -0.8757
  808MOL0     C 8985   8.757  11.106   5.857  0.7944 -0.1318 -0.6433
  808MOL0     C 8986   8.860  11.090   5.738  0.3294  0.4061  0.0321
  808MOL0     C 8987   8.976  10.987   5.772  0.2891 -0.3257 -0.0297
  808MOL0     C 8988   9.064  10.973   5.655 -0.4282  0.0849  0.0194
  808MOL0    Cl 8989   9.204  10.864   5.669  0.1261 -0.1046 -0.0499
  808MOL0     C 8990   8.095  11.373   6.123 -0.0786  1.5318  0.6082
  808MOL0     C 8991   7.992  11.416   6.205 -0.3539  0.0885 -0.2593
  808MOL0     O 8992   7.787  11.242   6.353  0.1373  0.4163 -0.6818
  808MOL0     C 8993   7.525  11.466   6.431  0.3371 -1.0613 -0.0478
  808MOL0     C 8994   7.441  11.509   6.534 -0.0113  1.0983  0.0587
  808MOL0     N 8995   7.007  11.626   7.197  0.1795  1.1540 -0.4873
  808MOL0     N 8996   6.883  11.600   7.170 -0.5841  0.4957 -0.5227
  808MOL0     C 8997   6.301  10.883   6.789 -1.7184 -0.4027  0.0742
  808MOL0     C 8998   6.308  10.764   6.715 -0.1095  0.4576  0.2429
  808MOL0     C 8999   6.314  10.468   6.362 -0.2141  0.3355 -0.1305
  808MOL0     C 9000   6.388  10.373   6.440 -0.4431  0.7793  0.4058
  808MOL0     C 9001   6.460  10.271   6.381  0.1774 -0.2738  0.5093
  808MOL0     C 9002   6.461  10.254   6.238  0.0405 -0.1459 -0.9080
  808MOL0     O 9003   6.523  10.151   6.164 -0.0367 -0.0351 -0.8299
  808MOL0     C 9004   6.593  10.060   6.242  0.0621 -0.0297 -0.1943
  808MOL0     C 9005   6.606   9.943   6.139 -0.0442 -0.1490 -0.0788
  808MOL0     C 9006   6.706   9.847   6.200 -0.4210  0.0172 -0.4071
  808MOL0     C 9007   6.711   9.703   6.142 -0.5159  0.3026 -0.2379
  808MOL0     C 9008   6.827   9.617   6.188  1.0163 -0.1015  0.8327
  808MOL0     C 9009   6.926   9.547   6.212  0.1702 -0.1504 -0.6059
  808MOL0     C 9010   6.386  10.347   6.162 -0.2779  0.3644  0.2491
  808MOL0     C 9011   6.309  10.448   6.221  0.3730  0.4429 -0.3365
  808MOL0     C 9012   6.240  10.539   6.126 -0.1265 -0.0610 -0.1181
  808MOL0     H 9013   6.027  10.770   6.525 -0.3418 -0.1773  0.5192
  808MOL0     H 9014   5.998  10.983   6.654  0.0636  1.1508  0.6394
  808MOL0     H 9015   6.139  11.183   6.655 -1.8624 -1.5609  0.2480
  808MOL0     H 9016   6.009  11.155   6.759 -0.4962  0.2639 -0.8192
  808MOL0     H 9017   6.100  11.311   6.931  1.0583 -4.4377 -0.1193
  808MOL0     H 9018   6.078  11.393   6.778 -0.5861 -0.6344 -0.4258
  808MOL0     H 9019   6.322  11.341   6.729  0.3433 -1.2176  0.7310
  808MOL0     H 9020   6.325  11.282   6.896 -0.6322  0.2816  0.5745
  808MOL0     H 9021   6.282  11.573   6.784  1.2001 -0.2553 -0.9523
  808MOL0     H 9022   6.234  11.514   6.957 -2.0949 -3.7431  0.0208
  808MOL0     H 9023   6.449  11.439   7.003 -0.7034  0.9538  0.8238
  808MOL0     H 9024   6.512  11.500   6.850  1.6592  0.0746  1.4401
  808MOL0     H 9025   6.441  11.731   6.921  0.9653  0.2924  0.4142
  808MOL0     H 9026   6.384  11.667   7.068  0.0437  0.6122 -0.2318
  808MOL0     H 9027   6.586  11.582   7.150  2.3389  0.2622  1.2845
  808MOL0     H 9028   6.607  11.749   7.110 -2.4090 -0.6907  1.2077
  808MOL0     H 9029   6.720  11.503   6.956  2.2970 -0.1318  1.9441
  808MOL0     H 9030   6.711  11.664   6.887 -0.7883 -0.6144 -0.6430
  808MOL0     H 9031   6.966  11.722   6.886 -0.9770 -0.6851  0.4662
  808MOL0     H 9032   7.199  11.840   7.063  1.8848  0.5576  0.1062
  808MOL0     H 9033   7.260  11.711   7.163 -2.0794  2.5046  1.7284
  808MOL0     H 9034   7.228  11.688   6.863  1.0679  1.0244  0.0794
  808MOL0     H 9035   7.388  11.689   6.950 -0.2082  2.5709  0.0130
  808MOL0     H 9036   7.186  11.457   6.957  0.1803 -1.2263  1.5070
  808MOL0     H 9037   7.316  11.479   7.082  0.7034  1.0368  0.4967
  808MOL0     H 9038   7.373  11.335   6.898 -1.5634  0.1851  0.9042
  808MOL0     H 9039   7.487  11.472   6.926 -0.9525 -1.0672  1.8485
  808MOL0     H 9040   7.525  11.268   6.754 -1.0129 -2.5117 -2.1498
  808MOL0     H 9041   7.697  11.220   6.581  0.2647  0.7347 -0.0890
  808MOL0     H 9042   7.727  11.384   5.994 -0.3980 -0.1052 -0.1828
  808MOL0     H 9043   7.897  11.313   5.842 -1.0606 -0.7235  0.1079
  808MOL0     H 9044   8.310  11.257   6.041 -4.0582 -0.1074 -0.1254
  808MOL0     H 9045   8.282  11.129   5.918  0.8418 -0.7862 -0.0611
  808MOL0     H 9046   8.380  11.247   5.749 -0.2097 -2.0227 -0.1249
  808MOL0     H 9047   8.424  11.389   5.856 -0.8231 -0.8213  1.7360
  808MOL0     H 9048   8.575  11.279   5.978  0.2204  2.6361 -1.7756
  808MOL0     H 9049   8.507  11.114   5.945  0.4033  0.1380 -1.3315
  808MOL0     H 9050   8.682  11.282   5.763 -0.5246  0.3193 -1.0500
  808MOL0     H 9051   8.589  11.134   5.717 -0.2693 -0.5838  0.0047
  808MOL0     H 9052   8.724  11.011   5.901  2.7444 -0.8252 -0.6103
  808MOL0     H 9053   8.805  11.158   5.940  0.9140 -1.8912  0.4398
  808MOL0     H 9054   8.813  11.061   5.644 -0.1093  1.9785 -0.2643
  808MOL0     H 9055   8.906  11.188   5.726  0.3589  0.4656  0.6074
  808MOL0     H 9056   8.930  10.894   5.805  1.6524 -0.6560  1.0643
  808MOL0     H 9057   9.033  11.028   5.857 -0.7095 -2.1819  1.6072
  808MOL0     H 9058   9.008  10.953   5.563 -0.7466 -1.4873  0.5324
  808MOL0     H 9059   9.112  11.071   5.644 -1.8527  0.5122 -4.0626
  808MOL0     H 9060   8.192  11.374   6.172 -0.0672 -1.2186  0.8130
  808MOL0     H 9061   8.021  11.458   6.301 -1.2107  2.9082 -1.1374
  808MOL0     H 9062   7.521  11.528   6.341  1.8200  1.7707  1.6750
  808MOL0     H 9063   7.373  11.593   6.520 -0.9682  0.5838  1.4189
  808MOL0     H 9064   6.365  10.923   6.866 -2.6557  1.8674 -0.2540
  808MOL0     H 9065   6.391  10.696   6.732 -0.5427 -0.6679 -1.7841
  808MOL0     H 9066   6.391  10.381   6.548  0.7292 -1.0561  0.5492
  808MOL0     H 9067   6.510  10.195   6.441  0.1950  0.3360  1.2881
  808MOL0     H 9068   6.532  10.034   6.330 -4.3780 -0.9488 -3.2347
  808MOL0     H 9069   6.691  10.097   6.275 -0.7609 -0.1688  2.7216
  808MOL0     H 9070   6.634   9.976   6.039 -1.6747 -0.0578 -0.5255
  808MOL0     H 9071   6.509   9.893   6.130 -1.6738  2.0786  3.0777
  808MOL0     H 9072   6.702   9.834   6.309  1.7037 -0.8952 -0.3943
  808MOL0     H 9073   6.806   9.890   6.200 -0.4112 -0.0057 -0.6487
  808MOL0     H 9074   6.615   9.654   6.164  0.6706 -1.6214  0.9822
  808MOL0     H 9075   6.709   9.721   6.034  1.1110  0.9648 -0.1758
  808MOL0     H 9076   7.005   9.481   6.245 -1.2080 -1.2465  0.6655
  808MOL0     H 9077   6.390  10.331   6.055 -0.3195 -1.9464  0.5386
  808MOL0     H 9078   6.283  10.640   6.128 -1.7611  0.6748  0.3701
  808MOL0     H 9079   6.242  10.503   6.023 -0.1784 -0.6464  0.0826
  808MOL0     H 9080   6.135  10.556   6.153 -0.2701 -0.2463 -0.5603
  809MOL0     O 9081   7.507   1.222   6.128 -0.0637 -0.9464  0.1695
  809MOL0     C 9082   7.584   1.305   6.184  0.6156 -0.4946  0.2681
  809MOL0     O 9083   7.714   1.329   6.154  0.5885 -0.3670  0.0765
  809MOL0     C 9084   7.784   1.225   6.101 -0.1346 -0.9437 -0.2346
  809MOL0     C 9085   7.883   1.276   6.019 -0.9746  0.2697  0.3317
  809MOL0     C 9086   7.986   1.184   5.969 -0.3087 -0.1683 -0.9761
  809MOL0     C 9087   7.974   1.049   5.988  0.0305  0.2380 -0.1945
  809MOL0     O 9088   8.080   0.977   5.955 -0.6787 -0.3606  0.3174
  809MOL0     C 9089   8.053   0.859   5.869 -0.2685  0.8851 -0.4098
  809MOL0     C 9090   8.037   0.897   5.726  0.4567  0.3194  0.6872
  809MOL0     C 9091   8.169   0.882   5.645 -0.8401 -0.6593  0.1152
  809MOL0     C 9092   8.258   1.006   5.659  0.7493  0.5125  0.2411
  809MOL0     C 9093   8.374   1.015   5.553  0.2763 -0.0039  0.7772
  809MOL0     C 9094   8.488   0.915   5.578  0.0689 -0.7717 -0.1946
  809MOL0     C 9095   8.579   0.902   5.457  0.4834  0.4867 -0.0127
  809MOL0     C 9096   8.701   0.817   5.503 -0.9472  0.2445 -0.1155
  809MOL0     N 9097   8.778   0.747   5.400 -0.6110 -0.1031 -0.8740
  809MOL0     C 9098   8.898   0.675   5.421 -0.1962 -0.8231  0.6384
  809MOL0     C 9099   8.906   0.606   5.304 -0.6561 -0.4700  0.3177
  809MOL0     C 9100   9.025   0.511   5.283 -0.0204 -0.1952  0.8442
  809MOL0     C 9101   9.153   0.586   5.261 -0.1256  0.1419  0.6602
  809MOL0     C 9102   9.257   0.478   5.235 -0.4111 -0.6999  0.3416
  809MOL0     C 9103   9.394   0.534   5.203  0.0245 -0.4971  0.0798
  809MOL0     O 9104   9.469   0.576   5.320  0.5796 -0.3575  0.5201
  809MOL0     C 9105   9.576   0.654   5.308 -1.2030 -0.0173 -0.0428
  809MOL0     C 9106   9.631   0.687   5.183 -0.4438 -0.0521 -0.5404
  809MOL0     C 9107   9.737   0.774   5.173 -0.7386  0.2770 -0.0111
  809MOL0     C 9108   9.807   0.822   5.287  0.1838 -0.3140 -0.4133
  809MOL0     C 9109   9.937   0.895   5.271  0.4579 -0.6327 -0.3221
  809MOL0     O 9110   9.998   0.865   5.154  0.0045 -0.2625 -0.3594
  809MOL0     C 9111  10.125   0.905   5.140 -0.3367  0.7474 -0.0671
  809MOL0     C 9112  10.150   0.981   5.027 -1.2429 -0.7795 -0.3937
  809MOL0     C 9113  10.288   1.023   5.007 -0.0385  0.6840  0.0596
  809MOL0     C 9114  10.395   0.997   5.099 -0.2980 -0.4343 -0.4544
  809MOL0     O 9115  10.527   1.038   5.094  0.2147 -0.1248  0.1511
  809MOL0     C 9116  10.576   1.081   4.975  0.3312  0.1983 -0.1396
  809MOL0     C 9117  10.723   1.098   4.976 -0.7158 -0.1728  0.1590
  809MOL0     C 9118  10.784   1.101   4.838  0.5190  0.4824 -0.6181
  809MOL0     C 9119  10.931   1.136   4.837  0.8863  0.3742 -0.1606
  809MOL0     C 9120  10.994   1.152   4.695  0.1157  0.7453 -0.5905
  809MOL0     C 9121  11.130   1.224   4.688 -0.8264 -0.0463 -1.0479
  809MOL0     C 9122  11.196   1.233   4.548  0.7065  0.5109  0.1296
  809MOL0     C 9123  11.124   1.303   4.426 -0.6607  0.3611 -0.7188
  809MOL0    Cl 9124  11.017   1.181   4.349 -0.0499 -0.2562 -0.3360
  809MOL0     C 9125  10.359   0.920   5.204  0.1571  0.0243 -0.9155
  809MOL0     C 9126  10.233   0.874   5.231 -0.4308 -0.6967  0.1070
  809MOL0     O 9127   9.982   0.958   5.367 -0.5975 -1.3369 -0.4929
  809MOL0     C 9128   9.762   0.772   5.413  0.4957  0.6509  0.6911
  809MOL0     C 9129   9.644   0.692   5.422 -0.0538  0.1607  0.7593
  809MOL0     N 9130   8.809   0.647   5.209 -0.1005 -0.7327  0.0659
  809MOL0     N 9131   8.732   0.731   5.273 -0.3329 -0.3749 -0.1691
  809MOL0     C 9132   7.866   1.007   6.062 -0.6523 -0.7704 -0.4092
  809MOL0     C 9133   7.773   1.087   6.125  0.1868  0.6591 -0.5445
  809MOL0     C 9134   7.517   1.393   6.291 -0.6060 -0.4819 -0.3921
  809MOL0     C 9135   7.603   1.488   6.348 -0.1815 -1.4179 -0.7421
  809MOL0     C 9136   7.549   1.580   6.442 -0.3527  0.7365 -0.0234
  809MOL0     C 9137   7.409   1.601   6.443  0.5900  0.9317 -0.2103
  809MOL0     O 9138   7.368   1.699   6.522  0.8123 -0.3005 -0.2159
  809MOL0     C 9139   7.395   1.675   6.660 -0.1548  1.0517 -0.0758
  809MOL0     C 9140   7.391   1.810   6.727  0.5904  0.1274  0.1893
  809MOL0     C 9141   7.533   1.880   6.721  0.0281  0.0842 -0.7114
  809MOL0     C 9142   7.529   2.015   6.796 -0.2367  0.5066  0.9344
  809MOL0     C 9143   7.651   2.093   6.768 -0.1899 -0.1989 -0.6706
  809MOL0     C 9144   7.745   2.172   6.743  0.3889  0.9522 -0.8557
  809MOL0     C 9145   7.319   1.518   6.373  0.6795  0.9478  0.3957
  809MOL0     C 9146   7.375   1.405   6.313  0.0025 -0.9015  0.6107
  809MOL0     C 9147   7.275   1.305   6.263  0.3905 -0.4550 -0.1906
  809MOL0     H 9148   7.887   1.381   5.991  1.7471  0.3602  0.8177
  809MOL0     H 9149   8.073   1.225   5.918 -0.7923  0.9259 -0.9404
  809MOL0     H 9150   8.121   0.773   5.873 -1.9439 -0.5710 -1.4757
  809MOL0     H 9151   7.959   0.816   5.905  1.0665 -0.9648  1.1054
  809MOL0     H 9152   7.990   0.995   5.716 -1.7444 -0.7502 -0.1759
  809MOL0     H 9153   7.965   0.824   5.686 -0.1797  1.0077  0.5460
  809MOL0     H 9154   8.137   0.874   5.540 -0.1511 -2.1353 -0.0147
  809MOL0     H 9155   8.219   0.789   5.673 -0.4857 -1.7155 -3.4647
  809MOL0     H 9156   8.192   1.092   5.645 -0.2279 -0.2000  0.3692
  809MOL0     H 9157   8.294   1.016   5.762 -1.1722 -1.1731  1.1652
  809MOL0     H 9158   8.335   1.010   5.451  3.2101  0.9331 -0.4904
  809MOL0     H 9159   8.414   1.117   5.558 -1.0912  0.5585  0.8881
  809MOL0     H 9160   8.553   0.956   5.657 -1.0275  0.7783 -0.0667
  809MOL0     H 9161   8.452   0.820   5.620  1.5174 -0.9385  0.7472
  809MOL0     H 9162   8.616   1.001   5.429 -0.1164  1.0757  1.2288
  809MOL0     H 9163   8.524   0.860   5.372  3.7257  1.1956 -2.7291
  809MOL0     H 9164   8.772   0.875   5.562  0.0040 -2.8727  2.0607
  809MOL0     H 9165   8.665   0.750   5.582 -0.0767  1.3246  1.2430
  809MOL0     H 9166   8.951   0.667   5.516 -3.3198 -1.5949  2.4940
  809MOL0     H 9167   9.044   0.442   5.365  0.5193 -0.9363  0.1102
  809MOL0     H 9168   9.008   0.452   5.193 -0.9058  3.1326 -1.3881
  809MOL0     H 9169   9.153   0.656   5.177  2.0762  1.8323  1.9619
  809MOL0     H 9170   9.180   0.645   5.348  1.2045 -3.2916  2.7743
  809MOL0     H 9171   9.212   0.418   5.155 -1.1926 -0.2501  0.4362
  809MOL0     H 9172   9.270   0.410   5.320  0.2581 -0.9114  0.0817
  809MOL0     H 9173   9.374   0.619   5.137  1.9714 -1.5042 -1.9881
  809MOL0     H 9174   9.455   0.461   5.147 -0.5347 -0.5875 -0.4185
  809MOL0     H 9175   9.586   0.658   5.088 -0.5439 -0.8074 -0.2660
  809MOL0     H 9176   9.768   0.803   5.073 -0.5919  1.3494  0.3306
  809MOL0     H 9177  10.079   1.006   4.949  1.7218  0.1264 -3.0269
  809MOL0     H 9178  10.307   1.085   4.920 -2.0054  1.1680 -0.0723
  809MOL0     H 9179  10.539   1.005   4.906  1.1525 -0.7371  0.4338
  809MOL0     H 9180  10.523   1.173   4.945  0.0986 -0.8652 -3.4650
  809MOL0     H 9181  10.765   1.177   5.039  2.3213 -2.7084  1.5980
  809MOL0     H 9182  10.767   1.018   5.037 -2.8766 -0.1322  1.9100
  809MOL0     H 9183  10.778   0.999   4.798  0.5021 -0.1432  0.8802
  809MOL0     H 9184  10.722   1.168   4.778 -0.9801  0.0063  0.3380
  809MOL0     H 9185  10.985   1.056   4.888  2.2381  1.8436  0.8284
  809MOL0     H 9186  10.952   1.227   4.894  1.4009 -0.7994  1.6307
  809MOL0     H 9187  10.919   1.206   4.636 -1.7181 -2.6955 -1.6835
  809MOL0     H 9188  11.003   1.051   4.652  1.8031  0.7093 -0.2425
  809MOL0     H 9189  11.111   1.324   4.727 -0.5681  0.6720 -2.6727
  809MOL0     H 9190  11.195   1.174   4.760 -1.5149  0.8532  0.2406
  809MOL0     H 9191  11.213   1.130   4.516 -2.7229 -0.4578  1.0039
  809MOL0     H 9192  11.292   1.285   4.552  1.3785 -0.1221 -3.7139
  809MOL0     H 9193  11.067   1.393   4.450 -2.1038 -1.0691  1.5737
  809MOL0     H 9194  11.197   1.344   4.355  1.0987  0.5386  1.1024
  809MOL0     H 9195  10.434   0.889   5.276 -0.3094 -0.5630 -0.6719
  809MOL0     H 9196  10.218   0.825   5.327 -1.2599 -1.7726 -0.5429
  809MOL0     H 9197   9.819   0.786   5.504 -0.1856 -0.8086  1.3812
  809MOL0     H 9198   9.598   0.659   5.514 -0.1363 -1.0382  0.3104
  809MOL0     H 9199   7.839   0.902   6.071 -1.9144 -0.5229 -0.9877
  809MOL0     H 9200   7.704   1.030   6.186  1.2096 -0.8574 -0.7677
  809MOL0     H 9201   7.711   1.477   6.340  0.0169  0.3161 -0.7929
  809MOL0     H 9202   7.617   1.647   6.494 -0.1911  2.0048 -1.7508
  809MOL0     H 9203   7.492   1.637   6.694 -0.7846  1.6266  2.6199
  809MOL0     H 9204   7.327   1.596   6.692  1.2555 -0.5520 -0.8683
  809MOL0     H 9205   7.339   1.799   6.823  0.7359 -1.3925  0.1079
  809MOL0     H 9206   7.322   1.871   6.667 -1.5702  0.4917  2.7961
  809MOL0     H 9207   7.551   1.905   6.616 -0.4015 -1.9745 -1.3249
  809MOL0     H 9208   7.614   1.818   6.761 -2.1697 -2.3016  0.2883
  809MOL0     H 9209   7.436   2.064   6.766 -0.5737 -1.1273 -0.9382
  809MOL0     H 9210   7.524   2.001   6.904 -0.2210  0.1529  0.8916
  809MOL0     H 9211   7.821   2.247   6.733 -0.5457  2.1669  0.6641
  809MOL0     H 9212   7.214   1.543   6.377  0.3902 -0.2242  0.3591
  809MOL0     H 9213   7.277   1.291   6.154 -3.4020 -1.5838 -0.2618
  809MOL0     H 9214   7.287   1.204   6.304 -2.0551  0.0272  1.9077
  809MOL0     H 9215   7.176   1.340   6.292  1.3137  1.7917  0.4540
  810MOL0     O 9216   6.109  11.267   7.230 -1.0823  0.0495  0.2109
  810MOL0     C 9217   6.154  11.239   7.337  0.5482 -0.8731 -0.0700
  810MOL0     O 9218   6.282  11.240   7.370  0.2621 -0.6448 -0.0590
  810MOL0     C 9219   6.371  11.244   7.275  0.3644  0.4570  0.2190
  810MOL0     C 9220   6.374  11.149   7.172  0.6667  0.2907 -0.1165
  810MOL0     C 9221   6.486  11.139   7.089 -0.0124 -0.5246 -0.3259
  810MOL0     C 9222   6.596  11.227   7.102 -0.5642 -0.2265 -0.8405
  810MOL0     O 9223   6.693  11.228   7.003 -0.4484  0.0067  0.1529
  810MOL0     C 9224   6.827  11.248   7.055 -0.4053 -0.1350 -0.6793
  810MOL0     C 9225   6.921  11.165   6.979  0.0326  0.2935  0.0919
  810MOL0     C 9226   6.938  11.216   6.839 -0.1953 -0.2135 -0.5038
  810MOL0     C 9227   7.075  11.175   6.771 -0.5132 -0.1992 -1.4150
  810MOL0     C 9228   7.086  11.251   6.641  0.2661 -0.7442  0.1098
  810MOL0     C 9229   7.014  11.180   6.531 -0.2113  0.6198 -0.3607
  810MOL0     C 9230   7.021  11.243   6.400  0.0906 -0.7878  0.6731
  810MOL0     C 9231   6.928  11.162   6.309 -0.1318  0.2552 -0.6319
  810MOL0     N 9232   6.936  11.197   6.168  0.4097 -0.2641  0.3134
  810MOL0     C 9233   7.051  11.214   6.091 -0.4531  0.4140 -0.1473
  810MOL0     C 9234   7.001  11.243   5.975  0.6916  0.7283  0.2564
  810MOL0     C 9235   7.073  11.248   5.849  0.3772  0.0981 -0.4722
  810MOL0     C 9236   7.153  11.377   5.832 -0.5505  0.4462  0.6835
  810MOL0     C 9237   7.246  11.337   5.714  0.3768 -0.9643  1.5429
  810MOL0     C 9238   7.323  11.460   5.675  0.2614 -0.0570  0.0881
  810MOL0     O 9239   7.393  11.444   5.549  0.0490  0.4979 -0.1271
  810MOL0     C 9240   7.508  11.377   5.530  0.4265 -0.1400 -0.3972
  810MOL0     C 9241   7.603  11.339   5.631  0.1270  0.0606 -0.4899
  810MOL0     C 9242   7.710  11.266   5.594 -0.0962 -1.2493 -0.1561
  810MOL0     C 9243   7.741  11.233   5.468 -0.7631 -0.3639 -0.0943
  810MOL0     C 9244   7.863  11.152   5.433 -0.5160  0.2970 -0.3277
  810MOL0     O 9245   7.935  11.106   5.537 -0.0038  0.2698 -0.3410
  810MOL0     C 9246   8.049  11.027   5.534 -0.1888  0.3976 -0.8958
  810MOL0     C 9247   8.070  10.926   5.440  0.2447  0.0465  0.7533
  810MOL0     C 9248   8.201  10.863   5.438 -0.8032  0.1552  0.6160
  810MOL0     C 9249   8.299  10.898   5.534  0.9427 -0.4047 -0.0699
  810MOL0     O 9250   8.426  10.839   5.538  0.2226 -0.4545 -0.5100
  810MOL0     C 9251   8.451  10.719   5.465 -0.4383  0.1117 -0.5211
  810MOL0     C 9252   8.579  10.655   5.516 -0.4496 -0.5068 -0.4434
  810MOL0     C 9253   8.695  10.760   5.519 -0.4987  0.2102 -0.5087
  810MOL0     C 9254   8.803  10.742   5.407 -0.3488 -0.0713 -0.4738
  810MOL0     C 9255   8.881  10.606   5.401 -0.5861 -0.2965  0.6915
  810MOL0     C 9256   8.960  10.567   5.530  0.1558  0.6216 -0.0332
  810MOL0     C 9257   9.052  10.451   5.494 -0.9537  0.9795  0.4376
  810MOL0     C 9258   9.133  10.398   5.618 -0.1606 -0.5360  0.1728
  810MOL0    Cl 9259   9.293  10.337   5.577 -0.5439 -0.4692 -0.1174
  810MOL0     C 9260   8.262  10.985   5.636 -0.2297 -0.5133 -0.7375
  810MOL0     C 9261   8.139  11.055   5.634  0.7848 -0.6840 -0.0222
  810MOL0     O 9262   7.883  11.128   5.315  0.0357  0.8779 -0.4467
  810MOL0     C 9263   7.655  11.265   5.367 -0.5444 -0.3689  0.0262
  810MOL0     C 9264   7.532  11.340   5.398 -0.9496 -0.4914  0.0532
  810MOL0     N 9265   6.861  11.247   5.981 -0.3713 -0.3346 -0.1958
  810MOL0     N 9266   6.825  11.238   6.107  0.1721  0.6116  0.1977
  810MOL0     C 9267   6.589  11.323   7.207  0.4682  0.4123  0.2113
  810MOL0     C 9268   6.471  11.339   7.291 -0.6003 -0.5200 -0.2515
  810MOL0     C 9269   6.050  11.236   7.451  0.7219 -0.7134  0.7785
  810MOL0     C 9270   6.095  11.224   7.581  0.6010 -0.5890  0.0778
  810MOL0     C 9271   6.012  11.230   7.695  0.3115 -0.4198  0.8806
  810MOL0     C 9272   5.873  11.243   7.677  0.3154  0.3740 -0.0044
  810MOL0     O 9273   5.785  11.246   7.784  0.1160 -0.0899  0.5337
  810MOL0     C 9274   5.820  11.173   7.904 -0.1060 -0.7734 -0.3053
  810MOL0     C 9275   5.834  11.019   7.864 -0.1032  0.3492 -0.9066
  810MOL0     C 9276   5.766  10.935   7.967  0.6206 -0.3195 -0.7885
  810MOL0     C 9277   5.798  10.965   8.117  0.2415 -0.2683  0.0822
  810MOL0     C 9278   5.941  10.995   8.122  1.0584  0.5336 -0.3577
  810MOL0     C 9279   6.055  11.014   8.152  0.4308 -0.3743 -0.0873
  810MOL0     C 9280   5.823  11.232   7.541 -0.6547 -1.1276 -0.0532
  810MOL0     C 9281   5.909  11.235   7.434 -0.6305 -0.8110 -0.5038
  810MOL0     C 9282   5.838  11.227   7.298 -0.4575 -0.3935 -0.9154
  810MOL0     H 9283   6.289  11.084   7.154  1.4043 -1.1168  1.2564
  810MOL0     H 9284   6.492  11.074   7.002 -1.0078 -1.1070  0.0347
  810MOL0     H 9285   6.862  11.352   7.061  0.4355 -0.4984  2.5416
  810MOL0     H 9286   6.832  11.221   7.161 -1.3159  1.7554 -0.1099
  810MOL0     H 9287   6.900  11.058   6.967 -0.0173  0.2712  0.3850
  810MOL0     H 9288   7.018  11.167   7.030  0.3637  0.9588 -0.5282
  810MOL0     H 9289   6.929  11.325   6.840  2.0265  0.0224 -0.2105
  810MOL0     H 9290   6.857  11.180   6.775 -0.7457 -1.4316  0.8374
  810MOL0     H 9291   7.156  11.209   6.836 -1.5632  1.9082 -1.1366
  810MOL0     H 9292   7.092  11.067   6.759 -0.0420 -0.2392 -0.4933
  810MOL0     H 9293   7.050  11.354   6.654  1.2454 -0.3852  0.0438
  810MOL0     H 9294   7.188  11.264   6.604 -1.0402  0.9414 -3.3482
  810MOL0     H 9295   7.058  11.080   6.524  0.7084  0.3688  4.7364
  810MOL0     H 9296   6.908  11.174   6.557 -0.1521 -2.1746 -0.4443
  810MOL0     H 9297   7.123  11.222   6.366  0.5446 -1.6985  2.4278
  810MOL0     H 9298   6.985  11.345   6.412 -2.4330 -1.7595  2.1609
  810MOL0     H 9299   6.955  11.056   6.320  0.5046  0.7414  4.5670
  810MOL0     H 9300   6.823  11.167   6.340 -0.0435 -3.1521  0.6252
  810MOL0     H 9301   7.152  11.191   6.124 -0.1656 -0.2142 -1.3669
  810MOL0     H 9302   7.140  11.162   5.841  0.1029 -0.1091 -0.5647
  810MOL0     H 9303   7.000  11.233   5.769  1.0693 -1.6655 -0.8271
  810MOL0     H 9304   7.086  11.460   5.810 -0.9107  0.7990  2.8801
  810MOL0     H 9305   7.219  11.403   5.915  0.9048 -0.4063 -0.1635
  810MOL0     H 9306   7.184  11.299   5.633 -1.0316  1.2750  1.4887
  810MOL0     H 9307   7.320  11.262   5.747  1.2918 -0.3079  1.0300
  810MOL0     H 9308   7.392  11.493   5.753  1.1689 -2.5278  0.4249
  810MOL0     H 9309   7.247  11.535   5.652  0.2827  0.0902  0.4745
  810MOL0     H 9310   7.585  11.373   5.733 -0.8536 -1.8191  0.0110
  810MOL0     H 9311   7.788  11.254   5.669  0.2720 -1.3317 -0.5454
  810MOL0     H 9312   7.986  10.897   5.377  0.6544 -1.9253  1.0322
  810MOL0     H 9313   8.221  10.782   5.367  0.6714  1.6716 -0.7944
  810MOL0     H 9314   8.381  10.636   5.475  0.2169 -0.2536  1.5653
  810MOL0     H 9315   8.461  10.732   5.357  0.6533 -0.1338 -0.4620
  810MOL0     H 9316   8.571  10.609   5.615 -1.0711  0.1807 -0.1674
  810MOL0     H 9317   8.599  10.569   5.452  1.4201 -1.3973  1.2136
  810MOL0     H 9318   8.654  10.861   5.534 -0.0639  0.5584 -1.5972
  810MOL0     H 9319   8.746  10.748   5.615  0.3097  0.4214 -0.9063
  810MOL0     H 9320   8.878  10.822   5.408  0.5398 -0.8933  0.2218
  810MOL0     H 9321   8.753  10.745   5.309  1.9925  0.3370 -1.7267
  810MOL0     H 9322   8.961  10.624   5.328  0.0089  2.1628  1.8490
  810MOL0     H 9323   8.817  10.518   5.386  0.6195 -0.7804 -2.2600
  810MOL0     H 9324   9.013  10.653   5.572 -1.0149  1.3937 -0.1012
  810MOL0     H 9325   8.890  10.534   5.608  0.1332 -2.6393 -1.2593
  810MOL0     H 9326   9.127  10.477   5.419 -0.5113 -1.3510 -0.0148
  810MOL0     H 9327   8.989  10.386   5.432  0.6480  0.6012 -0.8473
  810MOL0     H 9328   9.144  10.465   5.703 -1.3250 -0.2003  0.0846
  810MOL0     H 9329   9.072  10.315   5.656 -3.0051  2.3491  2.4354
  810MOL0     H 9330   8.327  11.009   5.720 -0.4471 -2.1400 -0.0525
  810MOL0     H 9331   8.137  11.130   5.713  2.2108  0.7343 -1.2631
  810MOL0     H 9332   7.680  11.243   5.264 -0.0443 -0.3718  0.1442
  810MOL0     H 9333   7.467  11.354   5.312  0.4218 -2.7601 -1.4879
  810MOL0     H 9334   6.679  11.383   7.219 -1.4918  3.6643  0.0223
  810MOL0     H 9335   6.463  11.419   7.364  3.8492 -0.6631  0.6670
  810MOL0     H 9336   6.201  11.217   7.602  1.3226  1.5352 -2.3705
  810MOL0     H 9337   6.056  11.236   7.794  2.0599 -1.1096  0.1860
  810MOL0     H 9338   5.742  11.190   7.979  0.4284 -0.9450  0.2911
  810MOL0     H 9339   5.913  11.201   7.954 -0.4045 -1.5678  0.7184
  810MOL0     H 9340   5.940  10.995   7.851  0.2124  2.6483 -3.7908
  810MOL0     H 9341   5.782  11.003   7.769 -1.4945 -0.2928 -0.0758
  810MOL0     H 9342   5.797  10.833   7.945 -1.9071 -1.2040 -0.5300
  810MOL0     H 9343   5.658  10.926   7.958  0.6009 -3.0620  1.1041
  810MOL0     H 9344   5.737  11.046   8.157  2.4443  1.5844 -0.0865
  810MOL0     H 9345   5.781  10.873   8.173  0.9010 -1.3595 -1.4205
  810MOL0     H 9346   6.156  11.036   8.182 -0.5171  2.4049  1.4615
  810MOL0     H 9347   5.716  11.212   7.540 -0.4822 -2.7858  3.1064
  810MOL0     H 9348   5.843  11.324   7.246 -0.0269 -0.1204 -0.3705
  810MOL0     H 9349   5.878  11.146   7.236  0.0236  0.3542 -1.6210
  810MOL0     H 9350   5.730  11.213   7.304 -0.5735 -0.0498 -1.9811
  811MOL0     O 9351   2.493   8.399  11.196 -0.1547 -0.1668 -0.0627
  811MOL0     C 9352   2.412   8.486  11.230 -0.7060 -0.1409 -0.7014
  811MOL0     O 9353   2.443   8.591  11.312  0.2367  0.2521 -0.0874
  811MOL0     C 9354   2.571   8.628  11.337  0.7869 -0.0129  1.2809
  811MOL0     C 9355   2.607   8.672  11.464 -0.0491  0.2848  0.1400
  811MOL0     C 9356   2.734   8.713  11.482  0.8050  0.2727  0.5541
  811MOL0     C 9357   2.828   8.719  11.381 -0.9509 -0.0495 -1.0541
  811MOL0     O 9358   2.955   8.771  11.413 -0.1619 -0.0507  0.2700
  811MOL0     C 9359   3.075   8.691  11.381 -0.4681 -0.0120 -0.5018
  811MOL0     C 9360   3.175   8.709  11.496  0.2655 -0.4071 -0.3741
  811MOL0     C 9361   3.324   8.682  11.465 -0.1898  0.0778 -0.3685
  811MOL0     C 9362   3.408   8.655  11.587  0.1866  0.1645 -0.6170
  811MOL0     C 9363   3.550   8.631  11.535 -0.4868  0.0212  0.1656
  811MOL0     C 9364   3.655   8.717  11.614 -0.2274  0.5027  0.1674
  811MOL0     C 9365   3.793   8.711  11.549  0.5008 -0.5164  0.3295
  811MOL0     C 9366   3.865   8.570  11.571 -0.8427  0.5852 -0.1408
  811MOL0     N 9367   4.012   8.579  11.549  0.4241  0.7214  0.3962
  811MOL0     C 9368   4.113   8.610  11.643  0.1772  1.6013  0.1520
  811MOL0     C 9369   4.222   8.641  11.572 -0.1229  0.7783  0.0734
  811MOL0     C 9370   4.348   8.701  11.616 -0.6958 -0.6272  0.2787
  811MOL0     C 9371   4.324   8.823  11.726 -0.0934  0.2102  0.0973
  811MOL0     C 9372   4.306   8.951  11.646 -0.6496 -0.6365  0.4926
  811MOL0     C 9373   4.160   8.982  11.617  0.6666  0.3173 -0.0477
  811MOL0     O 9374   4.087   8.999  11.739 -0.4030 -0.0054 -0.0679
  811MOL0     C 9375   3.958   9.042  11.717  0.1512 -0.3751  0.5961
  811MOL0     C 9376   3.885   9.071  11.831  0.1005  0.2420  0.6669
  811MOL0     C 9377   3.750   9.113  11.818 -0.0644  0.5343 -0.0608
  811MOL0     C 9378   3.687   9.140  11.696 -0.1668  0.0292 -0.7285
  811MOL0     C 9379   3.552   9.199  11.683  0.3678 -0.3554 -0.1219
  811MOL0     O 9380   3.505   9.230  11.562 -0.4678 -0.3049 -0.4219
  811MOL0     C 9381   3.369   9.211  11.548 -0.0633  0.4823 -0.3067
  811MOL0     C 9382   3.277   9.316  11.571  0.3747  0.3644 -0.3124
  811MOL0     C 9383   3.137   9.303  11.546 -0.7947  0.0892 -0.3136
  811MOL0     C 9384   3.094   9.192  11.476  0.0976  0.0250 -0.1121
  811MOL0     O 9385   2.964   9.190  11.436  0.0396  0.1742  0.4202
  811MOL0     C 9386   2.892   9.065  11.466 -0.0768 -0.4681 -0.6931
  811MOL0     C 9387   2.773   9.110  11.549  0.2454 -0.0738 -0.7761
  811MOL0     C 9388   2.796   9.198  11.674  0.7859  0.4947 -0.0271
  811MOL0     C 9389   2.672   9.269  11.728 -0.0118  0.0586 -0.6652
  811MOL0     C 9390   2.570   9.174  11.805 -0.1752  0.5710  0.3896
  811MOL0     C 9391   2.600   9.167  11.957  0.1527 -0.5001  0.2255
  811MOL0     C 9392   2.536   9.058  12.040  0.5916 -0.4439  0.2262
  811MOL0     C 9393   2.390   9.084  12.070  0.4527  0.5391 -0.3222
  811MOL0    Cl 9394   2.373   9.223  12.178  0.0840 -0.2290  0.4697
  811MOL0     C 9395   3.190   9.095  11.443 -0.0418  0.9435 -0.5518
  811MOL0     C 9396   3.321   9.095  11.488 -0.1817  0.2194 -0.4045
  811MOL0     O 9397   3.487   9.214  11.786  0.3012  0.1491 -0.3314
  811MOL0     C 9398   3.766   9.114  11.586 -0.4259  1.0882  0.3569
  811MOL0     C 9399   3.896   9.059  11.592  0.1726  0.3451 -0.2812
  811MOL0     N 9400   4.190   8.618  11.435 -0.4725  0.8468 -0.9636
  811MOL0     N 9401   4.068   8.581  11.430 -0.7907 -0.8290 -0.0177
  811MOL0     C 9402   2.788   8.669  11.258  1.0499 -0.4191  0.0016
  811MOL0     C 9403   2.664   8.627  11.231 -0.1630  0.5868 -0.2414
  811MOL0     C 9404   2.264   8.471  11.198  0.1679  0.2895  0.1665
  811MOL0     C 9405   2.162   8.501  11.290 -1.4429  0.3733  0.1223
  811MOL0     C 9406   2.025   8.482  11.257 -0.4374 -1.2047 -0.4227
  811MOL0     C 9407   1.988   8.428  11.130  0.8278  0.6710  0.3002
  811MOL0     O 9408   1.850   8.426  11.095  0.0990  0.3785  0.4977
  811MOL0     C 9409   1.742   8.464  11.185 -0.7946  0.1152 -0.7885
  811MOL0     C 9410   1.614   8.425  11.111 -0.0583 -0.0274  0.0303
  811MOL0     C 9411   1.574   8.520  11.000  0.0885 -0.3034  0.3529
  811MOL0     C 9412   1.445   8.489  10.927 -0.3094 -0.3442  0.0302
  811MOL0     C 9413   1.386   8.611  10.871  0.2905 -0.7174 -0.9805
  811MOL0     C 9414   1.341   8.715  10.844  0.7445 -0.1784 -0.3526
  811MOL0     C 9415   2.085   8.386  11.041 -0.8266 -1.5103 -0.6720
  811MOL0     C 9416   2.228   8.416  11.074 -0.4674  0.1322 -0.4886
  811MOL0     C 9417   2.328   8.392  10.961  0.5159 -0.0774 -0.1264
  811MOL0     H 9418   2.546   8.660  11.553 -0.1613  0.8266  0.1352
  811MOL0     H 9419   2.761   8.749  11.581 -0.2607  0.4371  0.7892
  811MOL0     H 9420   3.056   8.583  11.383  0.0780 -0.1030  0.0644
  811MOL0     H 9421   3.118   8.727  11.287  1.0337  1.2869  0.6424
  811MOL0     H 9422   3.138   8.654  11.583  1.6315 -0.0006  0.4988
  811MOL0     H 9423   3.155   8.812  11.525 -1.6377 -0.3522 -1.6823
  811MOL0     H 9424   3.362   8.775  11.422 -0.5170  0.6898  0.6226
  811MOL0     H 9425   3.336   8.607  11.387  0.3048  0.3820 -0.5943
  811MOL0     H 9426   3.408   8.744  11.650  1.5842  0.6972 -1.3366
  811MOL0     H 9427   3.371   8.568  11.644  0.4091 -1.3205 -2.6268
  811MOL0     H 9428   3.570   8.523  11.525  1.5130  0.3309  0.4155
  811MOL0     H 9429   3.558   8.670  11.433 -3.6941  1.5958  0.3829
  811MOL0     H 9430   3.631   8.824  11.617  1.0563  0.7964  0.7595
  811MOL0     H 9431   3.668   8.677  11.715  2.1681 -2.7524 -1.2538
  811MOL0     H 9432   3.856   8.787  11.596  0.5748 -0.6149  0.3906
  811MOL0     H 9433   3.787   8.737  11.443  3.1828 -2.5824 -0.4407
  811MOL0     H 9434   3.841   8.527  11.669 -0.2659 -0.7716 -0.5681
  811MOL0     H 9435   3.826   8.502  11.495  0.8062  0.3364 -0.8022
  811MOL0     H 9436   4.103   8.618  11.750 -1.5170 -3.3863  0.6456
  811MOL0     H 9437   4.408   8.620  11.659  0.3350  0.1090  0.2479
  811MOL0     H 9438   4.401   8.750  11.534  0.8354  1.4636  2.3968
  811MOL0     H 9439   4.244   8.800  11.797  0.8737 -3.0056  0.3200
  811MOL0     H 9440   4.419   8.841  11.777  1.0442  0.9972 -2.1497
  811MOL0     H 9441   4.355   8.949  11.549 -1.9807  0.1451 -0.2329
  811MOL0     H 9442   4.344   9.036  11.705 -0.2732  0.5964 -1.4365
  811MOL0     H 9443   4.115   8.900  11.560  0.8298  0.6070 -0.6032
  811MOL0     H 9444   4.158   9.077  11.562 -0.0296  1.0186  1.1542
  811MOL0     H 9445   3.935   9.052  11.926 -3.5067 -1.8629  2.3646
  811MOL0     H 9446   3.691   9.153  11.899 -0.9783 -0.4763 -0.1985
  811MOL0     H 9447   3.310   9.408  11.619  2.0088 -0.5796  0.4597
  811MOL0     H 9448   3.067   9.384  11.566 -1.5641 -0.3203 -1.2903
  811MOL0     H 9449   2.862   9.014  11.374 -1.0020  0.7150 -1.0792
  811MOL0     H 9450   2.945   8.991  11.527 -0.6485 -0.9896 -0.8218
  811MOL0     H 9451   2.706   9.155  11.475 -0.4114  0.0763 -0.1068
  811MOL0     H 9452   2.713   9.030  11.593 -0.7955 -1.0449 -3.7196
  811MOL0     H 9453   2.841   9.138  11.753  1.6428  0.5520 -0.4581
  811MOL0     H 9454   2.869   9.277  11.652  1.7512  1.0514  4.3469
  811MOL0     H 9455   2.627   9.310  11.638  2.2957 -0.5887 -2.2117
  811MOL0     H 9456   2.706   9.347  11.796  0.4985 -0.5594 -0.1910
  811MOL0     H 9457   2.569   9.075  11.757  1.3413  1.2614 -1.1804
  811MOL0     H 9458   2.469   9.204  11.778 -0.4136 -1.9512 -2.0735
  811MOL0     H 9459   2.705   9.136  11.960 -0.3327 -2.5148 -1.5118
  811MOL0     H 9460   2.601   9.266  12.003 -2.8472 -0.6008  0.6700
  811MOL0     H 9461   2.600   9.047  12.128 -0.2190 -1.4227  0.7026
  811MOL0     H 9462   2.548   8.963  11.986 -1.4926  0.2924 -1.6810
  811MOL0     H 9463   2.338   9.115  11.978  1.1959  1.7187 -0.3688
  811MOL0     H 9464   2.342   9.001  12.124  1.9033 -1.9187 -2.5421
  811MOL0     H 9465   3.150   9.002  11.404 -1.0207  2.6333 -3.9050
  811MOL0     H 9466   3.378   9.004  11.473 -1.4175 -1.0992  2.1437
  811MOL0     H 9467   3.716   9.122  11.490  0.3922  0.3491 -0.1483
  811MOL0     H 9468   3.932   9.035  11.492  1.2380  2.7355 -0.5414
  811MOL0     H 9469   2.865   8.661  11.182  1.5991  1.4878  0.3151
  811MOL0     H 9470   2.641   8.585  11.134  0.1205  1.4384 -0.6830
  811MOL0     H 9471   2.182   8.551  11.384 -1.9473  1.3400 -0.2622
  811MOL0     H 9472   1.957   8.507  11.337  1.0195  1.3134  0.1122
  811MOL0     H 9473   1.738   8.572  11.197 -1.8153 -0.0026  0.0390
  811MOL0     H 9474   1.761   8.415  11.281  0.5135  0.8350 -0.6519
  811MOL0     H 9475   1.531   8.427  11.182 -0.9741 -1.5207 -0.9352
  811MOL0     H 9476   1.619   8.324  11.069  0.0607  1.2588 -3.3613
  811MOL0     H 9477   1.657   8.528  10.929 -0.2542  1.3335  0.0935
  811MOL0     H 9478   1.570   8.614  11.055 -0.4974 -0.1266  0.0078
  811MOL0     H 9479   1.466   8.413  10.851 -1.4618  1.7626 -2.5517
  811MOL0     H 9480   1.376   8.438  10.995 -0.3682  0.6584  0.7351
  811MOL0     H 9481   1.300   8.807  10.808  1.1460  0.8613  1.7416
  811MOL0     H 9482   2.059   8.335  10.949 -1.3076  0.3228 -1.6066
  811MOL0     H 9483   2.273   8.398  10.867  0.8924 -1.1604 -0.4298
  811MOL0     H 9484   2.411   8.463  10.962  0.6453 -0.1302 -2.6700
  811MOL0     H 9485   2.360   8.288  10.975 -3.3832 -1.0234  4.9405
  812MOL0     O 9486   9.602   5.459   6.857 -0.6090 -0.4185 -0.0527
  812MOL0     C 9487   9.603   5.477   6.732  0.0705  0.0653 -0.7356
  812MOL0     O 9488   9.717   5.491   6.656 -0.1817  0.2884  1.0282
  812MOL0     C 9489   9.833   5.550   6.707  0.6667  0.2912 -0.5915
  812MOL0     C 9490   9.953   5.507   6.665 -0.5674 -0.6538  0.3879
  812MOL0     C 9491  10.072   5.558   6.725 -0.0175  0.7387 -0.2255
  812MOL0     C 9492  10.072   5.658   6.821  0.7812 -0.0825  0.3611
  812MOL0     O 9493  10.196   5.696   6.867 -0.3279  0.8663 -0.5440
  812MOL0     C 9494  10.204   5.778   6.982 -0.0540  0.5465  0.3509
  812MOL0     C 9495  10.332   5.753   7.045 -0.6812  0.2141 -0.4474
  812MOL0     C 9496  10.376   5.877   7.107 -0.8703  0.4263 -0.0967
  812MOL0     C 9497  10.517   5.865   7.163 -0.3480 -0.5548 -0.6638
  812MOL0     C 9498  10.565   5.985   7.249  0.3008  0.7035 -0.3491
  812MOL0     C 9499  10.688   5.951   7.325 -0.5220 -0.2022  0.0788
  812MOL0     C 9500  10.818   5.944   7.226 -0.1606 -0.4277  0.1261
  812MOL0     C 9501  10.941   5.953   7.313  0.3676  0.7585 -0.0040
  812MOL0     N 9502  10.964   6.095   7.352  0.2003 -0.4692  0.3589
  812MOL0     C 9503  11.003   6.192   7.264 -0.4041  0.7530 -0.2611
  812MOL0     C 9504  11.010   6.307   7.335 -0.3880  0.1743  0.7550
  812MOL0     C 9505  11.030   6.438   7.268 -0.1261 -0.1511  0.2888
  812MOL0     C 9506  10.972   6.549   7.346 -0.6611 -0.2911 -0.0366
  812MOL0     C 9507  10.821   6.553   7.348  0.0221  0.2719  0.5565
  812MOL0     C 9508  10.760   6.657   7.249 -0.3257  0.1322  0.0610
  812MOL0     O 9509  10.799   6.618   7.112 -0.6571  0.4822 -0.4943
  812MOL0     C 9510  10.730   6.518   7.039  0.6698  0.0073  0.5694
  812MOL0     C 9511  10.795   6.460   6.926  0.0913  0.1681  0.3017
  812MOL0     C 9512  10.742   6.351   6.846  0.0093 -0.9700 -0.4349
  812MOL0     C 9513  10.610   6.321   6.866  0.9458  0.0838 -0.5294
  812MOL0     C 9514  10.529   6.230   6.779  0.2733  0.2233  0.3686
  812MOL0     O 9515  10.397   6.227   6.812  0.5107  0.2444 -0.2232
  812MOL0     C 9516  10.313   6.157   6.728 -0.4439  0.4785 -0.1696
  812MOL0     C 9517  10.234   6.228   6.639 -0.0925 -0.2525 -0.1436
  812MOL0     C 9518  10.155   6.156   6.549  0.1838 -0.2851 -0.4798
  812MOL0     C 9519  10.138   6.016   6.558 -1.1041 -0.0564 -0.3293
  812MOL0     O 9520  10.046   5.967   6.467 -0.8104  0.2942  0.1634
  812MOL0     C 9521  10.035   5.828   6.451  0.5892 -0.6718 -0.3200
  812MOL0     C 9522   9.950   5.809   6.321 -0.1541 -0.5370 -0.8860
  812MOL0     C 9523   9.804   5.850   6.329  0.0772  0.8407 -0.7146
  812MOL0     C 9524   9.730   5.799   6.207 -0.2088 -1.3337 -0.0703
  812MOL0     C 9525   9.666   5.660   6.206 -0.0162  0.5039 -0.7463
  812MOL0     C 9526   9.597   5.638   6.070 -0.3799  0.7994 -0.2597
  812MOL0     C 9527   9.528   5.499   6.074  0.3676 -0.2526 -0.3410
  812MOL0     C 9528   9.474   5.475   5.933 -0.3332 -0.7455 -1.1505
  812MOL0    Cl 9529   9.342   5.355   5.932  0.1499 -0.6843 -0.1937
  812MOL0     C 9530  10.209   5.948   6.652 -0.3493 -0.8264 -0.3281
  812MOL0     C 9531  10.300   6.021   6.738 -0.5050 -0.4791 -0.3731
  812MOL0     O 9532  10.583   6.174   6.680  0.3125 -0.5124 -0.3782
  812MOL0     C 9533  10.539   6.384   6.968 -0.5127  0.1732  0.0068
  812MOL0     C 9534  10.601   6.476   7.052 -0.1398 -0.4478 -1.1354
  812MOL0     N 9535  10.979   6.273   7.464 -0.5872  0.4444 -0.3470
  812MOL0     N 9536  10.941   6.148   7.472 -0.0148 -0.4508 -0.2622
  812MOL0     C 9537   9.945   5.711   6.860  0.2276  0.2424 -0.6173
  812MOL0     C 9538   9.831   5.655   6.802  0.1182  0.0844 -0.0046
  812MOL0     C 9539   9.472   5.502   6.660  0.0112 -0.0962 -0.1168
  812MOL0     C 9540   9.468   5.475   6.516  0.2569  0.0774 -0.6937
  812MOL0     C 9541   9.353   5.488   6.449 -0.4047 -0.6327 -0.3318
  812MOL0     C 9542   9.238   5.527   6.507 -0.1237 -0.4633  0.1078
  812MOL0     O 9543   9.130   5.528   6.424 -0.4557  0.5266  0.2433
  812MOL0     C 9544   9.004   5.577   6.464 -0.0644 -0.0586 -0.4575
  812MOL0     C 9545   8.898   5.577   6.358 -0.0242  0.4678 -0.4358
  812MOL0     C 9546   8.890   5.457   6.247  0.1208 -0.4117 -0.3432
  812MOL0     C 9547   8.785   5.485   6.141 -0.1536  0.1222 -0.0135
  812MOL0     C 9548   8.657   5.521   6.196  0.7974  0.4770  0.5367
  812MOL0     C 9549   8.551   5.544   6.247 -0.1424 -0.8838 -0.3227
  812MOL0     C 9550   9.232   5.556   6.643  0.3311  0.2840  0.8615
  812MOL0     C 9551   9.349   5.552   6.718  0.2728 -0.4300 -0.7208
  812MOL0     C 9552   9.342   5.607   6.860  0.8674  0.2706  0.3852
  812MOL0     H 9553   9.952   5.428   6.590 -1.5340 -0.0193 -0.2959
  812MOL0     H 9554  10.162   5.507   6.693 -1.9103 -1.6048 -2.1910
  812MOL0     H 9555  10.182   5.880   6.951 -1.6083 -0.3233 -1.7077
  812MOL0     H 9556  10.128   5.750   7.056 -0.6079  1.9093  0.3210
  812MOL0     H 9557  10.409   5.721   6.974 -0.8585 -1.1445 -0.0639
  812MOL0     H 9558  10.323   5.675   7.121  0.3227  0.1058 -0.4356
  812MOL0     H 9559  10.308   5.913   7.185 -2.8554 -0.1179 -1.4972
  812MOL0     H 9560  10.377   5.956   7.032  1.0418  0.2982 -0.2518
  812MOL0     H 9561  10.529   5.777   7.228  1.0648  0.2674  0.2658
  812MOL0     H 9562  10.582   5.849   7.077 -1.1570  0.7453 -1.5449
  812MOL0     H 9563  10.586   6.079   7.198  0.2750  2.1243  2.0948
  812MOL0     H 9564  10.485   6.007   7.321  0.3909  0.9170 -0.3119
  812MOL0     H 9565  10.701   6.040   7.389  0.9333  0.7298 -1.4325
  812MOL0     H 9566  10.678   5.859   7.384  2.0670 -1.2156 -0.9197
  812MOL0     H 9567  10.823   6.026   7.153 -0.1408 -0.0584  0.5412
  812MOL0     H 9568  10.812   5.847   7.175 -1.7787  0.7039 -1.9913
  812MOL0     H 9569  10.929   5.878   7.392  1.9755 -3.1093 -3.0759
  812MOL0     H 9570  11.022   5.922   7.246  1.2866  4.1223 -0.6442
  812MOL0     H 9571  11.025   6.178   7.159  1.6990  1.5508  0.0199
  812MOL0     H 9572  11.135   6.460   7.247 -0.0987 -0.4995  0.0477
  812MOL0     H 9573  10.989   6.435   7.166  0.9255  4.8185 -0.5329
  812MOL0     H 9574  11.007   6.553   7.450  0.6840 -0.7847 -0.4605
  812MOL0     H 9575  11.000   6.645   7.302  0.2342 -1.4714 -2.1446
  812MOL0     H 9576  10.790   6.585   7.448 -2.4002 -1.3366  0.3948
  812MOL0     H 9577  10.777   6.456   7.326  1.1097 -0.4901  1.6159
  812MOL0     H 9578  10.801   6.754   7.281 -0.3523  0.2627 -0.2958
  812MOL0     H 9579  10.652   6.675   7.250 -0.2441  1.5537 -3.6246
  812MOL0     H 9580  10.897   6.494   6.912 -0.3153  1.0879 -0.5182
  812MOL0     H 9581  10.803   6.301   6.771  2.1718 -2.0280  1.8891
  812MOL0     H 9582  10.240   6.336   6.634  0.2675 -0.2439  0.3613
  812MOL0     H 9583  10.097   6.207   6.474  2.3343  0.7298 -1.5519
  812MOL0     H 9584  10.135   5.783   6.448  1.0397  0.0336  2.0249
  812MOL0     H 9585   9.975   5.785   6.531  0.1035 -2.5027 -1.5976
  812MOL0     H 9586  10.002   5.860   6.239  2.6144  2.8359  2.5842
  812MOL0     H 9587   9.947   5.700   6.313 -2.8245 -0.7390  1.4682
  812MOL0     H 9588   9.773   5.802   6.423  2.0510 -0.1451 -0.5352
  812MOL0     H 9589   9.802   5.957   6.349  1.6129  0.4025  2.3876
  812MOL0     H 9590   9.785   5.820   6.115 -2.5447 -1.0758 -1.4773
  812MOL0     H 9591   9.638   5.858   6.206  1.1821  1.0120  1.5405
  812MOL0     H 9592   9.598   5.644   6.290 -0.3924  1.7027 -0.7961
  812MOL0     H 9593   9.744   5.585   6.218 -0.8723 -0.1867  0.8379
  812MOL0     H 9594   9.529   5.722   6.051 -0.3562  0.4344 -2.2012
  812MOL0     H 9595   9.670   5.638   5.988  1.4104 -1.5196  1.1966
  812MOL0     H 9596   9.449   5.503   6.150  0.8205  3.5462  0.0792
  812MOL0     H 9597   9.593   5.415   6.099 -0.1906 -0.8802 -0.9354
  812MOL0     H 9598   9.438   5.572   5.897 -0.2563 -0.0245  0.6396
  812MOL0     H 9599   9.552   5.433   5.868 -0.9449 -1.4958 -1.4146
  812MOL0     H 9600  10.213   5.842   6.672 -1.2229 -0.5019  1.8427
  812MOL0     H 9601  10.354   5.979   6.822 -2.0904  2.5910  2.4252
  812MOL0     H 9602  10.434   6.359   6.980 -0.5677  0.9949  1.4381
  812MOL0     H 9603  10.554   6.542   7.125 -1.0124 -1.0860 -1.1013
  812MOL0     H 9604   9.931   5.791   6.933 -0.2497 -2.1639  2.1059
  812MOL0     H 9605   9.736   5.696   6.836 -1.0457 -1.2048 -1.5304
  812MOL0     H 9606   9.555   5.438   6.462  1.4149  0.1171  1.0328
  812MOL0     H 9607   9.352   5.467   6.342  0.0801  0.5700 -0.5868
  812MOL0     H 9608   9.011   5.670   6.522 -0.9242  0.3309 -0.9678
  812MOL0     H 9609   8.978   5.510   6.547  0.0571 -0.1581 -0.4997
  812MOL0     H 9610   8.916   5.668   6.298  4.1556 -0.4912 -0.9659
  812MOL0     H 9611   8.799   5.584   6.403  0.9087 -2.9433  2.5984
  812MOL0     H 9612   8.869   5.372   6.312  1.1763 -0.4981 -0.1002
  812MOL0     H 9613   8.984   5.423   6.203 -0.0175 -0.5781 -0.5145
  812MOL0     H 9614   8.821   5.570   6.082  0.8711  0.1924  0.6873
  812MOL0     H 9615   8.778   5.409   6.062 -0.8462  2.4887 -2.3375
  812MOL0     H 9616   8.451   5.558   6.282 -0.4123 -0.2961 -1.2880
  812MOL0     H 9617   9.135   5.580   6.685 -1.7957 -0.3832 -3.1738
  812MOL0     H 9618   9.259   5.678   6.863 -1.5002 -2.3530  1.1511
  812MOL0     H 9619   9.343   5.536   6.943 -2.2796 -0.2923  0.0759
  812MOL0     H 9620   9.428   5.671   6.880 -0.3440  1.2781  2.7613
  813MOL0     O 9621   8.732  10.107   8.650  0.4318 -0.0370 -0.6434
  813MOL0     C 9622   8.659  10.162   8.737 -0.4052 -0.9942  0.4034
  813MOL0     O 9623   8.692  10.231   8.845  0.0524 -0.4587  0.2187
  813MOL0     C 9624   8.818  10.286   8.861 -0.2300 -0.7690 -0.1286
  813MOL0     C 9625   8.930  10.207   8.884  0.6562 -0.5356  0.2283
  813MOL0     C 9626   9.054  10.268   8.893  0.4856  0.5550 -0.0692
  813MOL0     C 9627   9.067  10.410   8.893 -0.2455  0.3545 -0.2653
  813MOL0     O 9628   9.190  10.475   8.893 -0.1604  0.3681 -0.5182
  813MOL0     C 9629   9.299  10.398   8.943 -0.1366  0.0469 -0.1560
  813MOL0     C 9630   9.415  10.498   8.959  0.0270 -0.8450 -0.7458
  813MOL0     C 9631   9.534  10.427   9.028  0.1605 -0.3795 -0.3381
  813MOL0     C 9632   9.610  10.529   9.096  0.3147  0.0698 -0.6267
  813MOL0     C 9633   9.672  10.652   9.010  0.2878  0.8357  0.2120
  813MOL0     C 9634   9.771  10.750   9.076 -0.0994 -0.1919 -0.7607
  813MOL0     C 9635   9.695  10.830   9.182 -0.7243  0.4345 -0.2203
  813MOL0     C 9636   9.804  10.919   9.256 -0.2637  0.1147  0.0414
  813MOL0     N 9637   9.830  11.025   9.157 -0.7805  0.8276 -0.1301
  813MOL0     C 9638   9.737  11.112   9.119 -0.3192  0.2688  1.5623
  813MOL0     C 9639   9.803  11.202   9.044  0.2948  0.1309  0.2491
  813MOL0     C 9640   9.726  11.308   8.958 -0.2198  0.4551 -0.9456
  813MOL0     C 9641   9.699  11.434   9.055 -0.3240  0.1820  0.7432
  813MOL0     C 9642   9.830  11.505   9.095  0.1474  1.0299  0.2422
  813MOL0     C 9643   9.899  11.585   8.979 -0.0729 -0.4003 -0.5595
  813MOL0     O 9644  10.015  11.653   9.037 -0.3737  0.6492 -0.0229
  813MOL0     C 9645  10.136  11.595   9.008 -0.7438 -0.0852  0.0634
  813MOL0     C 9646  10.238  11.683   8.966 -0.8415 -0.1379  0.1193
  813MOL0     C 9647  10.368  11.632   8.939 -1.3424  0.3067  0.2579
  813MOL0     C 9648  10.398  11.495   8.972  0.3701  0.7582  0.1713
  813MOL0     C 9649  10.528  11.437   8.949 -0.0473  0.2069 -0.1293
  813MOL0     O 9650  10.558  11.320   9.013 -0.4321  0.1549  0.1911
  813MOL0     C 9651  10.685  11.267   9.007 -0.8979  0.6393  0.5357
  813MOL0     C 9652  10.701  11.141   8.957  0.7759 -0.2991 -0.2297
  813MOL0     C 9653  10.833  11.084   8.954  0.3738  0.0789  0.6459
  813MOL0     C 9654  10.948  11.154   8.999  0.6608  0.4116 -0.0738
  813MOL0     O 9655  11.069  11.085   8.994  0.1821 -0.1744 -0.1297
  813MOL0     C 9656  11.179  11.157   9.058  0.5407 -0.1139  0.1110
  813MOL0     C 9657  11.307  11.119   8.992 -0.0306 -0.2209 -0.6021
  813MOL0     C 9658  11.426  11.158   9.085 -0.2603  0.9075  0.8591
  813MOL0     C 9659  11.553  11.084   9.046 -0.0703 -0.6476 -0.4206
  813MOL0     C 9660  11.679  11.148   9.108  1.0459  0.5746  0.6301
  813MOL0     C 9661  11.688  11.117   9.253  0.1889 -0.1675  0.4661
  813MOL0     C 9662  11.838  11.118   9.304 -0.2583  0.4968 -0.2476
  813MOL0     C 9663  11.894  11.260   9.296 -0.4989  0.7184  0.1192
  813MOL0    Cl 9664  12.054  11.246   9.358  0.4541  0.0746 -0.6996
  813MOL0     C 9665  10.925  11.283   9.029  0.6092  0.5856 -0.1442
  813MOL0     C 9666  10.800  11.338   9.043 -0.0096  0.1439  0.4828
  813MOL0     O 9667  10.605  11.513   8.892 -0.5674 -0.4857  0.1222
  813MOL0     C 9668  10.295  11.416   9.032 -0.6524  0.6662 -0.0702
  813MOL0     C 9669  10.163  11.463   9.045 -0.2125 -0.0286 -0.5362
  813MOL0     N 9670   9.937  11.172   9.054 -0.0877  0.0199 -0.0628
  813MOL0     N 9671   9.954  11.070   9.120 -0.1625  0.6648 -0.0344
  813MOL0     C 9672   8.961  10.492   8.870  0.3664 -0.2320 -0.2067
  813MOL0     C 9673   8.835  10.426   8.867  0.6901 -0.8522 -0.2631
  813MOL0     C 9674   8.518  10.122   8.732  0.5923  0.4385  0.4952
  813MOL0     C 9675   8.458  10.086   8.847  0.5089 -0.0887  0.0116
  813MOL0     C 9676   8.320  10.051   8.852 -0.2799 -0.4633 -0.2397
  813MOL0     C 9677   8.250  10.037   8.731 -0.6939  0.0236 -0.6324
  813MOL0     O 9678   8.120  10.015   8.728 -0.1013  0.5265  0.1603
  813MOL0     C 9679   8.058   9.946   8.837 -0.3260  0.1988  0.3474
  813MOL0     C 9680   7.927   9.888   8.777 -1.3298  0.9779 -0.3395
  813MOL0     C 9681   7.824   9.996   8.749  0.5388  0.2683 -0.0467
  813MOL0     C 9682   7.729   9.993   8.862 -0.1220 -0.7125 -0.0446
  813MOL0     C 9683   7.628  10.091   8.821 -0.5458  0.2212 -0.3812
  813MOL0     C 9684   7.546  10.178   8.817  0.2400  1.4010 -0.2664
  813MOL0     C 9685   8.322  10.057   8.615  0.6460  0.2579  0.3628
  813MOL0     C 9686   8.450  10.092   8.607 -0.7330  0.3362 -0.3419
  813MOL0     C 9687   8.512  10.110   8.467 -0.2721  0.1029  0.0307
  813MOL0     H 9688   8.920  10.099   8.872  2.6097 -0.8938  1.3763
  813MOL0     H 9689   9.134  10.195   8.903  1.6950  1.9426  0.8586
  813MOL0     H 9690   9.264  10.357   9.038  0.4185  1.2725  0.6085
  813MOL0     H 9691   9.332  10.321   8.872  1.1286  0.8609 -0.4784
  813MOL0     H 9692   9.383  10.584   9.019  4.6245  1.6223 -1.3452
  813MOL0     H 9693   9.457  10.529   8.863  0.0094  0.3802 -0.3747
  813MOL0     H 9694   9.592  10.376   8.950 -2.6789 -0.3857 -2.5901
  813MOL0     H 9695   9.494  10.359   9.103 -1.6506  0.2743 -0.6675
  813MOL0     H 9696   9.548  10.576   9.174  1.5435 -0.7815  0.9205
  813MOL0     H 9697   9.681  10.465   9.148  0.6562 -0.2564 -1.4835
  813MOL0     H 9698   9.723  10.605   8.925 -1.2369  0.7866 -0.7161
  813MOL0     H 9699   9.593  10.709   8.960 -0.3994  1.0477  1.5179
  813MOL0     H 9700   9.856  10.694   9.117  0.5015 -0.0476 -1.7820
  813MOL0     H 9701   9.810  10.819   9.001  0.0465 -0.3031 -0.7878
  813MOL0     H 9702   9.641  10.762   9.249 -1.4074  0.7124 -0.4684
  813MOL0     H 9703   9.615  10.884   9.130 -1.5537 -1.5686 -1.1160
  813MOL0     H 9704   9.769  10.956   9.353 -1.6082 -1.3628  0.1586
  813MOL0     H 9705   9.890  10.857   9.283  0.5128  1.4611  0.7627
  813MOL0     H 9706   9.629  11.115   9.134 -0.7355  0.7091 -1.0276
  813MOL0     H 9707   9.778  11.351   8.871 -0.1067  0.8246 -0.6992
  813MOL0     H 9708   9.638  11.258   8.917  0.3044 -0.4058 -1.0489
  813MOL0     H 9709   9.642  11.512   9.005 -1.9792 -1.9273 -0.8634
  813MOL0     H 9710   9.657  11.396   9.148  0.2944 -0.4789  0.7660
  813MOL0     H 9711   9.893  11.436   9.152  2.0514  2.0436 -0.5637
  813MOL0     H 9712   9.807  11.578   9.174  1.4788  1.2802  0.4206
  813MOL0     H 9713   9.832  11.657   8.932  0.5684  0.1602 -0.6355
  813MOL0     H 9714   9.916  11.513   8.899 -1.4990 -1.2245 -0.1666
  813MOL0     H 9715  10.219  11.787   8.943  0.6464 -0.2535 -1.8664
  813MOL0     H 9716  10.448  11.703   8.919 -1.7613  0.5611 -0.5208
  813MOL0     H 9717  10.610  11.083   8.948  0.8397 -0.4027 -0.2118
  813MOL0     H 9718  10.844  10.978   8.935  0.4580  0.1792  0.1215
  813MOL0     H 9719  11.173  11.266   9.061 -0.2495 -0.1010 -1.2006
  813MOL0     H 9720  11.188  11.125   9.162 -1.3291 -0.9032  0.0736
  813MOL0     H 9721  11.301  11.010   8.985  0.3436 -0.3947  1.2748
  813MOL0     H 9722  11.311  11.168   8.894 -1.6623  1.4503  0.0876
  813MOL0     H 9723  11.428  11.267   9.088  3.6014  0.9579  1.8398
  813MOL0     H 9724  11.402  11.123   9.186 -0.8466  0.6939  0.6495
  813MOL0     H 9725  11.552  11.098   8.938 -3.5136  0.3070 -0.3853
  813MOL0     H 9726  11.557  10.977   9.067  1.4538 -0.7301 -0.9909
  813MOL0     H 9727  11.660  11.255   9.098 -1.5179 -0.0061 -2.6852
  813MOL0     H 9728  11.768  11.109   9.058  2.6912  3.3369  1.2513
  813MOL0     H 9729  11.627  11.192   9.303 -2.8994 -1.8697 -0.4989
  813MOL0     H 9730  11.643  11.022   9.280 -0.7446  0.1255 -0.0160
  813MOL0     H 9731  11.900  11.046   9.249 -2.2365 -1.9308  0.4924
  813MOL0     H 9732  11.838  11.093   9.410 -0.0171  0.9654 -0.1353
  813MOL0     H 9733  11.892  11.285   9.190 -2.0230  1.2207  0.2381
  813MOL0     H 9734  11.840  11.340   9.348 -4.0252  0.2211 -2.4273
  813MOL0     H 9735  11.005  11.348   9.063  1.1448 -0.5529  0.8483
  813MOL0     H 9736  10.780  11.440   9.073  2.2562  0.9088 -0.3868
  813MOL0     H 9737  10.324  11.315   9.058 -3.5127 -0.1762  0.1901
  813MOL0     H 9738  10.091  11.401   9.098 -0.3203  0.4036 -0.1625
  813MOL0     H 9739   8.968  10.599   8.856 -2.8768  0.0817 -0.1690
  813MOL0     H 9740   8.745  10.485   8.855  3.0022  4.0255  3.1799
  813MOL0     H 9741   8.503  10.090   8.946  1.0035  0.7489 -0.2364
  813MOL0     H 9742   8.285  10.053   8.955  4.4540  0.2314  1.6248
  813MOL0     H 9743   8.043   9.999   8.931  0.5699 -1.1209  1.2642
  813MOL0     H 9744   8.126   9.869   8.872 -0.8295  0.5709  2.2563
  813MOL0     H 9745   7.886   9.810   8.842  0.4846  0.0112 -0.2801
  813MOL0     H 9746   7.953   9.832   8.686  1.2803  0.1258  0.8383
  813MOL0     H 9747   7.772   9.985   8.654 -0.9188  0.0655  0.7414
  813MOL0     H 9748   7.887  10.085   8.748  1.4474 -0.3614 -1.8621
  813MOL0     H 9749   7.681   9.895   8.873  0.0239 -0.8023 -0.2074
  813MOL0     H 9750   7.773  10.029   8.956 -0.3111 -1.8166  0.4836
  813MOL0     H 9751   7.465  10.247   8.811 -1.3896 -0.5383 -5.2113
  813MOL0     H 9752   8.267  10.039   8.524  0.7257  0.6790  0.2316
  813MOL0     H 9753   8.443  10.096   8.384 -0.4292 -1.8129  0.4351
  813MOL0     H 9754   8.554  10.211   8.464  1.6096 -0.6457 -1.8142
  813MOL0     H 9755   8.588  10.033   8.450  3.2774  3.6471 -1.6588
  814MOL0     O 9756   9.202   5.529   3.235  0.6712 -0.3052  0.6009
  814MOL0     C 9757   9.248   5.482   3.340 -0.0676  0.4815 -0.2120
  814MOL0     O 9758   9.221   5.354   3.381 -0.1323  0.4309  0.2131
  814MOL0     C 9759   9.125   5.286   3.310  0.9337  0.1763 -0.4276
  814MOL0     C 9760   8.990   5.292   3.360  0.5636  0.4976 -0.5257
  814MOL0     C 9761   8.879   5.233   3.295  0.6362 -0.2633  0.1975
  814MOL0     C 9762   8.903   5.172   3.176  0.1792  0.8624  0.3393
  814MOL0     O 9763   8.803   5.104   3.111 -0.0498  0.1458  0.3377
  814MOL0     C 9764   8.707   5.187   3.041 -0.4907 -0.3849  0.9742
  814MOL0     C 9765   8.580   5.097   3.031 -0.2563 -0.3026  0.1838
  814MOL0     C 9766   8.449   5.161   2.975 -0.2419 -0.0364  0.1844
  814MOL0     C 9767   8.340   5.053   2.980 -0.7510 -0.2558 -0.3998
  814MOL0     C 9768   8.212   5.107   2.917 -0.1525 -1.0773 -0.3745
  814MOL0     C 9769   8.107   4.994   2.919 -0.9884  0.0073  0.6212
  814MOL0     C 9770   7.975   5.045   2.866 -0.0830  0.7873 -1.0146
  814MOL0     C 9771   7.860   4.940   2.875  0.6199 -1.0247  0.9139
  814MOL0     N 9772   7.887   4.808   2.825 -0.0608  0.6783  0.1794
  814MOL0     C 9773   7.935   4.788   2.700  0.9140  0.6143  0.4823
  814MOL0     C 9774   7.985   4.667   2.693 -0.2933  1.2087 -0.5602
  814MOL0     C 9775   8.054   4.593   2.580  0.0298  0.0504  0.9758
  814MOL0     C 9776   8.206   4.607   2.586  0.0191 -0.2935  0.4823
  814MOL0     C 9777   8.260   4.751   2.604  0.2794  0.1045  0.3732
  814MOL0     C 9778   8.408   4.771   2.566  0.0635 -0.5152  0.0957
  814MOL0     O 9779   8.425   4.916   2.567 -0.2098 -0.2402 -0.5928
  814MOL0     C 9780   8.554   4.971   2.599  0.3445  0.2014  0.8577
  814MOL0     C 9781   8.569   5.111   2.616 -0.1850  0.2121 -0.0839
  814MOL0     C 9782   8.691   5.169   2.653  0.2321  0.2200 -0.8227
  814MOL0     C 9783   8.807   5.086   2.655 -0.3345  0.0739  0.3656
  814MOL0     C 9784   8.950   5.129   2.682 -0.2223 -1.1117 -0.1184
  814MOL0     O 9785   8.964   5.260   2.686  0.4052  0.2845 -0.5056
  814MOL0     C 9786   9.091   5.304   2.709  0.5395  0.7952 -0.5738
  814MOL0     C 9787   9.122   5.352   2.834  0.1344 -0.8320 -0.8194
  814MOL0     C 9788   9.261   5.394   2.863  0.8277 -0.6624  0.0826
  814MOL0     C 9789   9.357   5.391   2.762 -0.8895  0.2079 -0.6805
  814MOL0     O 9790   9.484   5.432   2.782 -0.1272 -1.0986  0.6042
  814MOL0     C 9791   9.514   5.559   2.830 -0.5168 -0.1010  0.4593
  814MOL0     C 9792   9.664   5.572   2.847  0.2823 -0.2121  0.4753
  814MOL0     C 9793   9.703   5.689   2.943  0.2415 -0.1687 -0.2990
  814MOL0     C 9794   9.687   5.648   3.088  0.2517  0.1760  0.6241
  814MOL0     C 9795   9.752   5.778   3.158  0.3291  0.4789  0.0424
  814MOL0     C 9796   9.740   5.773   3.308 -0.2277 -0.2158  0.7234
  814MOL0     C 9797   9.843   5.873   3.369 -0.1401 -1.0704  0.6595
  814MOL0     C 9798   9.781   6.019   3.372  0.3529 -0.5691 -0.0504
  814MOL0    Cl 9799   9.885   6.107   3.482 -0.0512 -0.0666  0.2484
  814MOL0     C 9800   9.325   5.336   2.645  0.1831  0.0950  0.7476
  814MOL0     C 9801   9.191   5.294   2.616  0.0333 -0.0521  0.5413
  814MOL0     O 9802   9.035   5.043   2.692 -0.5468  0.6987 -0.4330
  814MOL0     C 9803   8.791   4.948   2.625 -0.1924 -0.1930 -1.2523
  814MOL0     C 9804   8.667   4.893   2.591  0.1138 -0.5287  0.4748
  814MOL0     N 9805   7.972   4.607   2.816  0.3944  0.2028 -0.5551
  814MOL0     N 9806   7.913   4.689   2.896 -0.3199 -0.3048  1.2047
  814MOL0     C 9807   9.033   5.180   3.114 -0.3370  0.4844  0.4505
  814MOL0     C 9808   9.143   5.228   3.183 -0.7430 -0.3475 -0.4605
  814MOL0     C 9809   9.342   5.562   3.428 -0.2019  0.4091 -0.1433
  814MOL0     C 9810   9.425   5.488   3.513  0.8452 -0.7894  0.0144
  814MOL0     C 9811   9.523   5.546   3.590 -0.3233 -0.6233 -0.5644
  814MOL0     C 9812   9.536   5.687   3.592  0.6240  0.6938 -0.6763
  814MOL0     O 9813   9.630   5.762   3.667  0.4196  0.0673  0.0363
  814MOL0     C 9814   9.718   5.694   3.755  0.0572 -0.7401  0.4466
  814MOL0     C 9815   9.811   5.807   3.806 -0.2775 -0.2844  0.4107
  814MOL0     C 9816   9.887   5.763   3.936 -0.5848  0.5586 -1.4976
  814MOL0     C 9817   9.922   5.886   4.022  1.0422 -0.1227  0.8055
  814MOL0     C 9818  10.011   5.973   3.944  0.2543  0.7802  0.3305
  814MOL0     C 9819  10.078   6.055   3.880  0.3067 -0.1113  0.9537
  814MOL0     C 9820   9.447   5.752   3.506  0.9609  0.2036  0.2688
  814MOL0     C 9821   9.352   5.693   3.426 -0.2723  0.6045  0.0771
  814MOL0     C 9822   9.273   5.784   3.328 -0.7482 -0.2050  0.2239
  814MOL0     H 9823   8.963   5.349   3.449  0.0260  1.2541 -1.1565
  814MOL0     H 9824   8.780   5.246   3.339 -0.1144 -1.5094 -1.0461
  814MOL0     H 9825   8.694   5.276   3.103  0.5451 -1.1613  2.3779
  814MOL0     H 9826   8.736   5.209   2.938 -1.8846 -3.6150 -0.2445
  814MOL0     H 9827   8.563   5.062   3.133  0.4405  0.1191  0.4503
  814MOL0     H 9828   8.598   5.009   2.969  2.4948 -0.9860  1.7799
  814MOL0     H 9829   8.458   5.195   2.872 -0.5488  3.3344  1.1577
  814MOL0     H 9830   8.412   5.241   3.039 -1.5533 -2.0390  2.0711
  814MOL0     H 9831   8.372   4.959   2.933 -0.4031  0.1787 -1.0387
  814MOL0     H 9832   8.321   5.037   3.087 -0.2587  2.1962  0.1167
  814MOL0     H 9833   8.177   5.189   2.981 -1.4831 -2.8280  1.2488
  814MOL0     H 9834   8.230   5.142   2.815  1.6782  0.2224  0.3411
  814MOL0     H 9835   8.153   4.916   2.858  2.3194  3.2215 -1.4107
  814MOL0     H 9836   8.081   4.959   3.019 -1.6633  1.6730  1.0739
  814MOL0     H 9837   7.976   5.072   2.760  2.2743 -0.6287 -1.4258
  814MOL0     H 9838   7.950   5.138   2.919  0.5078  0.9962 -1.1065
  814MOL0     H 9839   7.826   4.939   2.979  0.1082  1.1343  0.8259
  814MOL0     H 9840   7.774   4.968   2.814  1.2923 -0.8539  0.0234
  814MOL0     H 9841   7.922   4.848   2.610  0.0091  1.5420  1.2112
  814MOL0     H 9842   8.038   4.485   2.577  0.9776 -0.0784 -0.7206
  814MOL0     H 9843   8.023   4.640   2.486 -1.2312 -0.0570  1.3144
  814MOL0     H 9844   8.247   4.532   2.653  1.5804 -0.6788 -0.8218
  814MOL0     H 9845   8.242   4.576   2.487  0.3915 -0.3726  0.6406
  814MOL0     H 9846   8.243   4.775   2.709  1.1266  4.4530 -0.2967
  814MOL0     H 9847   8.199   4.822   2.549  1.0364 -1.1628 -2.3171
  814MOL0     H 9848   8.418   4.741   2.461 -1.0185 -2.3756  0.4702
  814MOL0     H 9849   8.466   4.705   2.631  2.2573  1.2608  0.0125
  814MOL0     H 9850   8.479   5.170   2.601 -0.1428  1.0945  2.6787
  814MOL0     H 9851   8.687   5.276   2.674  0.9635  0.0003  0.5541
  814MOL0     H 9852   9.038   5.365   2.901  2.8398  1.6786  2.4729
  814MOL0     H 9853   9.282   5.433   2.962 -1.2050 -2.2452  1.2281
  814MOL0     H 9854   9.477   5.632   2.757  2.3019  1.5542  0.5423
  814MOL0     H 9855   9.470   5.570   2.929  2.0560 -0.3689  1.7234
  814MOL0     H 9856   9.706   5.476   2.876  1.7220  0.8608  2.1045
  814MOL0     H 9857   9.691   5.596   2.743  0.6485  0.1153  0.6466
  814MOL0     H 9858   9.805   5.722   2.921 -0.7930  2.5010 -1.5122
  814MOL0     H 9859   9.638   5.777   2.929 -2.2466 -1.7978  0.3139
  814MOL0     H 9860   9.740   5.553   3.100 -0.2339 -0.6226 -2.6303
  814MOL0     H 9861   9.586   5.631   3.126  0.8910 -0.9177  1.9070
  814MOL0     H 9862   9.704   5.874   3.135 -1.7988  0.7694  4.6709
  814MOL0     H 9863   9.858   5.769   3.132 -0.5680  0.0655 -4.1261
  814MOL0     H 9864   9.638   5.806   3.330  0.2964  4.3673 -2.3372
  814MOL0     H 9865   9.756   5.674   3.354 -0.6510 -1.3891 -1.5246
  814MOL0     H 9866   9.933   5.868   3.307  0.7996 -0.5677  1.9508
  814MOL0     H 9867   9.860   5.831   3.468 -2.8943 -3.5430  0.2321
  814MOL0     H 9868   9.782   6.063   3.272 -3.2934  1.2426  0.5410
  814MOL0     H 9869   9.680   6.014   3.413 -0.2202  0.4201 -1.3018
  814MOL0     H 9870   9.406   5.334   2.573 -0.6263  2.2800 -0.3045
  814MOL0     H 9871   9.165   5.243   2.524  0.0365 -0.3223  0.6880
  814MOL0     H 9872   8.877   4.883   2.622  1.1853  1.3000  1.7422
  814MOL0     H 9873   8.668   4.786   2.571  1.4097 -0.5736  0.6707
  814MOL0     H 9874   9.038   5.122   3.023  2.0609 -0.3168  1.0277
  814MOL0     H 9875   9.232   5.238   3.121 -0.1422  0.5790  0.5224
  814MOL0     H 9876   9.407   5.381   3.525 -0.2753 -0.6855 -0.6015
  814MOL0     H 9877   9.596   5.491   3.648  1.1647  0.4576 -1.3436
  814MOL0     H 9878   9.781   5.628   3.695  1.2741 -0.5847  1.5164
  814MOL0     H 9879   9.669   5.633   3.831 -0.0374 -1.6601 -0.3350
  814MOL0     H 9880   9.753   5.895   3.834  2.1681  1.5091  0.0794
  814MOL0     H 9881   9.880   5.822   3.723  1.2517 -0.7738  1.5552
  814MOL0     H 9882   9.985   5.718   3.917 -1.3623 -0.5861 -3.0805
  814MOL0     H 9883   9.833   5.697   4.003  1.3598 -0.3148 -0.7226
  814MOL0     H 9884   9.841   5.952   4.054  0.7772  0.1629 -0.4019
  814MOL0     H 9885   9.972   5.858   4.115  2.1244 -0.7342  0.0567
  814MOL0     H 9886  10.140   6.119   3.821 -0.4698  1.2478  1.5542
  814MOL0     H 9887   9.460   5.858   3.489 -1.8480  0.2785 -2.3274
  814MOL0     H 9888   9.296   5.754   3.225  0.2281 -0.0216  0.3803
  814MOL0     H 9889   9.167   5.762   3.339 -0.5948 -3.0364 -2.5824
  814MOL0     H 9890   9.294   5.888   3.354  1.2716 -0.9898  2.0737
  815MOL0     O 9891  10.223  10.553   8.677  0.0147  0.0224 -0.6851
  815MOL0     C 9892  10.175  10.453   8.621 -0.3774 -0.0346 -0.4553
  815MOL0     O 9893  10.230  10.325   8.619  0.0607 -0.0778  0.0000
  815MOL0     C 9894  10.350  10.316   8.680  0.3951  0.2492 -0.2149
  815MOL0     C 9895  10.353  10.302   8.822  0.8226  0.3296  0.8540
  815MOL0     C 9896  10.481  10.288   8.881  0.3501  0.2034 -0.8567
  815MOL0     C 9897  10.598  10.306   8.810 -0.3346 -0.0666 -0.7801
  815MOL0     O 9898  10.715  10.290   8.888 -0.0181  0.6172 -0.5759
  815MOL0     C 9899  10.839  10.338   8.835 -0.4212 -0.5200 -0.1258
  815MOL0     C 9900  10.950  10.317   8.941 -0.3994 -0.0230  0.7978
  815MOL0     C 9901  11.084  10.331   8.878  0.8494 -0.2916  0.2016
  815MOL0     C 9902  11.197  10.309   8.979  0.0614  0.2732 -0.0041
  815MOL0     C 9903  11.330  10.315   8.914 -0.3555 -0.2807 -0.5376
  815MOL0     C 9904  11.445  10.298   9.015 -0.6999 -0.0014 -1.2018
  815MOL0     C 9905  11.585  10.317   8.957 -0.4959  0.9040  0.7423
  815MOL0     C 9906  11.626  10.220   8.844 -0.5157 -0.0853  0.4382
  815MOL0     N 9907  11.598  10.082   8.882 -0.1370 -0.5048  0.4911
  815MOL0     C 9908  11.490  10.008   8.833 -0.5865 -0.4874 -0.9779
  815MOL0     C 9909  11.511   9.884   8.874 -0.1534  0.5300  0.1355
  815MOL0     C 9910  11.426   9.769   8.839 -0.5251  0.5561 -0.1856
  815MOL0     C 9911  11.445   9.705   8.700 -1.0338 -1.1626  0.1576
  815MOL0     C 9912  11.577   9.625   8.674  0.2271 -0.3505 -0.1935
  815MOL0     C 9913  11.610   9.528   8.788 -0.0352 -0.9547  0.1986
  815MOL0     O 9914  11.717   9.440   8.742  0.2076 -0.1464  0.4148
  815MOL0     C 9915  11.843   9.501   8.729  0.5638  0.0247  0.2614
  815MOL0     C 9916  11.933   9.420   8.661 -0.1216  0.6449  0.5558
  815MOL0     C 9917  12.067   9.456   8.639 -0.0278  0.1602  0.5827
  815MOL0     C 9918  12.117   9.581   8.686 -1.1050  1.6688 -0.4312
  815MOL0     C 9919  12.255   9.610   8.666 -0.0303 -0.4390  0.1861
  815MOL0     O 9920  12.347   9.510   8.659 -0.3732  0.2970  0.0347
  815MOL0     C 9921  12.486   9.540   8.673  0.1336  0.0808 -0.5345
  815MOL0     C 9922  12.533   9.525   8.804  0.2439  0.5151 -0.2770
  815MOL0     C 9923  12.665   9.544   8.829  0.3461 -0.5645  0.2894
  815MOL0     C 9924  12.756   9.576   8.723 -0.0633  0.3155 -0.2865
  815MOL0     O 9925  12.889   9.584   8.734 -0.9986 -0.3657 -0.2156
  815MOL0     C 9926  12.951   9.550   8.858 -1.3001 -0.5865 -0.4301
  815MOL0     C 9927  13.103   9.580   8.842  1.3653 -0.5182 -0.7333
  815MOL0     C 9928  13.186   9.467   8.790  0.9339  0.2895  0.2742
  815MOL0     C 9929  13.336   9.490   8.786 -0.1958  0.1764 -0.4519
  815MOL0     C 9930  13.434   9.374   8.744  0.1404 -0.5751  0.4616
  815MOL0     C 9931  13.571   9.389   8.797 -1.1016  0.9392  0.2473
  815MOL0     C 9932  13.638   9.254   8.773 -0.2639  0.2502  0.3018
  815MOL0     C 9933  13.794   9.256   8.797  0.6507 -0.9062  0.3587
  815MOL0    Cl 9934  13.832   9.238   8.968 -0.0108 -0.4360  0.0651
  815MOL0     C 9935  12.706   9.601   8.595  0.3162 -1.0265 -0.0618
  815MOL0     C 9936  12.573   9.579   8.572 -0.5482 -0.3676 -0.1952
  815MOL0     O 9937  12.284   9.724   8.664  0.1611 -0.9342  0.1875
  815MOL0     C 9938  12.025   9.669   8.737 -0.1047  0.7166  0.6509
  815MOL0     C 9939  11.884   9.634   8.762 -0.1283 -0.4550 -0.0166
  815MOL0     N 9940  11.628   9.884   8.943  0.1517  0.0650 -0.2937
  815MOL0     N 9941  11.683   9.998   8.951  0.4503 -0.4302  0.3462
  815MOL0     C 9942  10.594  10.319   8.673 -0.1735  0.9529  0.6983
  815MOL0     C 9943  10.468  10.324   8.609  0.8437  0.7880  0.2869
  815MOL0     C 9944  10.039  10.477   8.562  0.0324 -0.7415  0.8260
  815MOL0     C 9945   9.954  10.365   8.542  0.1375 -0.1893  0.3904
  815MOL0     C 9946   9.824  10.379   8.496  0.3001  0.9940 -0.7019
  815MOL0     C 9947   9.771  10.507   8.475  1.0551 -0.2565  0.1326
  815MOL0     O 9948   9.646  10.523   8.416 -0.0280  0.2026  0.8144
  815MOL0     C 9949   9.547  10.576   8.501 -0.3539 -1.1135 -0.1295
  815MOL0     C 9950   9.433  10.480   8.505 -0.1370 -0.0366  0.5106
  815MOL0     C 9951   9.460  10.354   8.589 -0.4769 -0.2039 -0.3751
  815MOL0     C 9952   9.494  10.228   8.517  0.6247  0.5161  0.0713
  815MOL0     C 9953   9.585  10.159   8.610  0.0394  0.4024 -0.1654
  815MOL0     C 9954   9.670  10.104   8.677  0.3438  0.2902  0.4911
  815MOL0     C 9955   9.855  10.621   8.485 -0.0314  0.2044  0.7658
  815MOL0     C 9956   9.984  10.605   8.524  0.3816 -0.3753  0.3259
  815MOL0     C 9957  10.073  10.732   8.521 -0.3882  0.5208  0.2006
  815MOL0     H 9958  10.257  10.279   8.867  0.4083  3.0881  1.5892
  815MOL0     H 9959  10.493  10.271   8.988 -4.9141  1.0864  0.1488
  815MOL0     H 9960  10.874  10.289   8.743  0.0616  1.4437 -1.0514
  815MOL0     H 9961  10.839  10.447   8.822  1.5750 -0.2168  1.9290
  815MOL0     H 9962  10.951  10.218   8.989  1.9098 -0.5896 -0.2790
  815MOL0     H 9963  10.932  10.395   9.015 -1.1276  1.7920 -1.1999
  815MOL0     H 9964  11.092  10.435   8.845 -2.4388 -0.0550 -0.1028
  815MOL0     H 9965  11.100  10.264   8.793  2.9855  2.1886 -1.5118
  815MOL0     H 9966  11.200  10.384   9.057 -0.0962  2.0936 -1.6690
  815MOL0     H 9967  11.189  10.210   9.024  1.9985  0.3394  0.5703
  815MOL0     H 9968  11.341  10.246   8.830 -2.1887  0.0908 -1.1200
  815MOL0     H 9969  11.343  10.412   8.864 -1.3293  0.5731  0.7851
  815MOL0     H 9970  11.425  10.371   9.094  0.0423  0.2797 -1.2682
  815MOL0     H 9971  11.448  10.199   9.061  0.9423 -0.1442 -1.5590
  815MOL0     H 9972  11.661  10.296   9.033 -1.2640 -1.5921  0.9240
  815MOL0     H 9973  11.600  10.416   8.913  1.5688  0.2653 -0.1098
  815MOL0     H 9974  11.566  10.246   8.756 -4.5619 -1.8331  2.4354
  815MOL0     H 9975  11.732  10.232   8.818 -0.5983 -1.0631 -0.3885
  815MOL0     H 9976  11.407  10.040   8.772  1.1576 -1.1285 -3.8694
  815MOL0     H 9977  11.420   9.702   8.925 -0.2318 -1.0642 -1.3831
  815MOL0     H 9978  11.325   9.811   8.832 -0.4537  0.4479 -3.0484
  815MOL0     H 9979  11.360   9.642   8.673 -0.5485 -1.9083  0.3470
  815MOL0     H 9980  11.447   9.785   8.625  2.1229 -0.8515  0.4684
  815MOL0     H 9981  11.661   9.689   8.647  0.3696 -0.4133  0.0944
  815MOL0     H 9982  11.575   9.573   8.578  0.0065  0.7247 -0.7912
  815MOL0     H 9983  11.519   9.473   8.811 -2.1630  2.6824  1.3288
  815MOL0     H 9984  11.637   9.587   8.876  1.4602 -0.7952 -0.3250
  815MOL0     H 9985  11.909   9.320   8.626 -3.4701  1.1223  1.1365
  815MOL0     H 9986  12.147   9.397   8.595  0.4933  0.4407  1.1303
  815MOL0     H 9987  12.457   9.496   8.876 -2.3322  2.0580 -2.1741
  815MOL0     H 9988  12.706   9.537   8.929 -0.6002  1.3086  0.8688
  815MOL0     H 9989  12.915   9.613   8.940  0.6180 -1.0192  0.8313
  815MOL0     H 9990  12.939   9.446   8.891  1.0534  0.4059  4.4109
  815MOL0     H 9991  13.128   9.672   8.788 -0.7945  1.5218  1.4693
  815MOL0     H 9992  13.136   9.598   8.945  2.4874 -0.3236 -1.1222
  815MOL0     H 9993  13.170   9.380   8.855  1.0960  0.4093  0.4740
  815MOL0     H 9994  13.145   9.435   8.693  0.7209 -1.5337  0.9228
  815MOL0     H 9995  13.369   9.523   8.884  0.7658  0.8707 -0.9920
  815MOL0     H 9996  13.358   9.579   8.727 -0.8151  1.5431  1.2984
  815MOL0     H 9997  13.437   9.364   8.635 -0.8450 -0.6599  0.4329
  815MOL0     H 9998  13.382   9.286   8.781 -0.8425 -0.0525  0.3569
  815MOL0     H 9999  13.628   9.469   8.748  0.0646  0.5469  0.9460
  815MOL0     H10000  13.558   9.416   8.903 -1.4088  0.0663  0.4376
  815MOL0     H10001  13.635   9.240   8.664  0.5258  3.0411 -0.1515
  815MOL0     H10002  13.584   9.178   8.829 -0.8068  0.7573  0.4800
  815MOL0     H10003  13.842   9.172   8.747  2.4445  1.9188 -3.0532
  815MOL0     H10004  13.852   9.344   8.770 -0.3341  0.4054  2.2922
  815MOL0     H10005  12.777   9.626   8.517 -0.4996 -0.5745 -0.6736
  815MOL0     H10006  12.548   9.606   8.470  1.7216  2.6962 -0.0814
  815MOL0     H10007  12.063   9.767   8.764 -1.3194  1.5507 -0.5459
  815MOL0     H10008  11.818   9.695   8.822  0.3809  1.3181 -1.1675
  815MOL0     H10009  10.687  10.318   8.616  0.2776 -1.9557  1.2995
  815MOL0     H10010  10.461  10.325   8.501  1.3110 -2.3222  0.1466
  815MOL0     H10011   9.988  10.268   8.576 -0.3878 -0.1909  0.9197
  815MOL0     H10012   9.773  10.290   8.459 -0.4416  0.5615  1.2659
  815MOL0     H10013   9.512  10.670   8.457  0.5854 -0.8657 -0.3714
  815MOL0     H10014   9.585  10.595   8.601  0.8540  1.3667 -0.9889
  815MOL0     H10015   9.392  10.451   8.408 -0.1447  1.5151  0.0276
  815MOL0     H10016   9.346  10.530   8.548 -0.3727 -1.6392  2.0035
  815MOL0     H10017   9.373  10.340   8.653 -0.1640 -0.8620 -0.0851
  815MOL0     H10018   9.541  10.389   8.653 -2.1405  1.0565  1.1295
  815MOL0     H10019   9.404  10.168   8.498 -1.2112  2.1957  2.7316
  815MOL0     H10020   9.554  10.235   8.426  1.9245 -2.4814  0.5712
  815MOL0     H10021   9.742  10.061   8.743  1.8841  1.8167 -0.0758
  815MOL0     H10022   9.807  10.715   8.459 -0.9724  0.9041  4.4317
  815MOL0     H10023  10.082  10.771   8.623 -2.4054  3.0265 -0.4820
  815MOL0     H10024  10.170  10.710   8.474 -0.3439  2.0903 -0.5123
  815MOL0     H10025  10.029  10.814   8.463 -4.6131 -0.6504  1.4147
  816MOL0     O10026   0.674   3.101  11.105 -0.1554  0.1834  0.1740
  816MOL0     C10027   0.674   3.006  11.178  0.5112 -0.7264 -0.7410
  816MOL0     O10028   0.778   2.973  11.258 -0.6078  0.6299 -0.5004
  816MOL0     C10029   0.896   3.054  11.242  0.4237 -0.1192 -0.3112
  816MOL0     C10030   0.926   3.152  11.337  0.1642 -0.3671 -0.2383
  816MOL0     C10031   1.032   3.236  11.310  0.8814 -0.5272 -0.3203
  816MOL0     C10032   1.106   3.235  11.185 -0.6631  0.5850  0.0423
  816MOL0     O10033   1.218   3.317  11.178 -0.3747  0.2019 -0.0101
  816MOL0     C10034   1.301   3.292  11.061 -0.1974 -0.3266 -0.6556
  816MOL0     C10035   1.427   3.367  11.114  0.2855  0.9159 -0.7413
  816MOL0     C10036   1.555   3.346  11.037  0.1246  0.3270  0.2523
  816MOL0     C10037   1.673   3.430  11.091  0.2385  0.1155  0.2926
  816MOL0     C10038   1.806   3.405  11.013 -0.0062 -0.9300 -0.9272
  816MOL0     C10039   1.899   3.515  11.070  0.7148  0.6937  0.9308
  816MOL0     C10040   2.033   3.504  11.003  0.3966 -0.3688 -0.1427
  816MOL0     C10041   2.138   3.408  11.070  0.4260 -0.1242 -0.0080
  816MOL0     N10042   2.255   3.397  10.982  0.7341 -0.0243 -0.7555
  816MOL0     C10043   2.367   3.453  11.015 -0.3483  0.5553 -0.4713
  816MOL0     C10044   2.459   3.438  10.915  0.9199  0.1421  0.6932
  816MOL0     C10045   2.592   3.489  10.907 -0.2267 -0.1170  0.0369
  816MOL0     C10046   2.692   3.387  10.851 -0.2477 -0.0736 -0.2415
  816MOL0     C10047   2.832   3.434  10.878 -0.7779 -0.4821 -0.6377
  816MOL0     C10048   2.934   3.389  10.779  0.0454 -0.4654  0.9841
  816MOL0     O10049   3.070   3.412  10.832 -0.1208 -0.1651  0.5020
  816MOL0     C10050   3.161   3.406  10.722 -0.2324 -0.0526  0.3038
  816MOL0     C10051   3.166   3.306  10.617 -0.0860  0.1224 -0.7803
  816MOL0     C10052   3.281   3.291  10.532  0.7667 -0.8046 -1.0531
  816MOL0     C10053   3.396   3.378  10.541  0.3522 -0.3265  0.4429
  816MOL0     C10054   3.496   3.372  10.434  0.9534  0.4674  0.7620
  816MOL0     O10055   3.487   3.270  10.338 -0.2005  0.0850 -0.0039
  816MOL0     C10056   3.576   3.285  10.233  0.5450  0.5909 -0.7983
  816MOL0     C10057   3.522   3.312  10.106  0.2996  0.0037 -0.2231
  816MOL0     C10058   3.612   3.316   9.996  0.8677  0.2334 -0.5051
  816MOL0     C10059   3.755   3.290  10.006 -1.2118 -1.0984 -1.3585
  816MOL0     O10060   3.838   3.308   9.904  0.3032 -0.3707  0.2460
  816MOL0     C10061   3.806   3.406   9.803  0.1628 -0.2541 -0.7540
  816MOL0     C10062   3.938   3.453   9.739 -0.0473 -0.1394  0.0409
  816MOL0     C10063   3.914   3.579   9.651  0.2346  0.6073 -0.6230
  816MOL0     C10064   3.854   3.539   9.520  0.0502 -0.3899  0.6514
  816MOL0     C10065   3.813   3.671   9.450  0.2585  0.5207  0.0317
  816MOL0     C10066   3.847   3.680   9.301 -0.4145  0.9825  0.6914
  816MOL0     C10067   4.000   3.677   9.260  0.1698 -0.0836 -1.1408
  816MOL0     C10068   4.005   3.680   9.109 -0.0061  0.7066  0.6176
  816MOL0    Cl10069   3.940   3.522   9.036 -0.1720  0.4005  0.0413
  816MOL0     C10070   3.801   3.258  10.136 -0.5515 -0.2373 -0.5230
  816MOL0     C10071   3.711   3.252  10.244  0.0753  0.3898 -0.7469
  816MOL0     O10072   3.569   3.469  10.426  0.0748  0.5345 -0.1785
  816MOL0     C10073   3.391   3.478  10.640  0.3233  0.1819 -0.6985
  816MOL0     C10074   3.277   3.495  10.728 -0.3592  0.2956  0.4698
  816MOL0     N10075   2.391   3.369  10.813  0.1847  0.4908 -0.1287
  816MOL0     N10076   2.265   3.351  10.855 -0.4017 -0.3573 -1.2113
  816MOL0     C10077   1.069   3.134  11.088  0.3983  0.0403 -1.3003
  816MOL0     C10078   0.971   3.045  11.123 -0.3637 -0.0672  0.0310
  816MOL0     C10079   0.545   2.937  11.200 -0.3915 -0.5947 -0.3312
  816MOL0     C10080   0.459   2.924  11.086 -0.2788 -0.2250 -0.9028
  816MOL0     C10081   0.338   2.854  11.103 -0.6175  0.3238  0.1591
  816MOL0     C10082   0.300   2.789  11.219  0.4192 -0.1408 -0.9589
  816MOL0     O10083   0.182   2.728  11.217 -0.5078 -0.5276  0.2824
  816MOL0     C10084   0.189   2.591  11.186 -0.1459 -0.9792  0.2241
  816MOL0     C10085   0.072   2.518  11.247  1.2405 -0.5962  0.4316
  816MOL0     C10086   0.066   2.540  11.405  0.5456  0.1677  0.2051
  816MOL0     C10087   0.163   2.443  11.486  0.5036  0.5427 -0.4081
  816MOL0     C10088   0.289   2.504  11.526 -1.0552  0.8044  0.1300
  816MOL0     C10089   0.394   2.551  11.569  0.3502 -0.1854 -0.0915
  816MOL0     C10090   0.378   2.809  11.331  0.0279  0.1904 -0.2724
  816MOL0     C10091   0.500   2.881  11.323  0.7255  1.1405 -0.7019
  816MOL0     C10092   0.577   2.876  11.454 -0.5503  0.0280 -0.2151
  816MOL0     H10093   0.878   3.164  11.433 -3.2974 -1.1902 -1.6918
  816MOL0     H10094   1.057   3.314  11.381 -1.6828  0.0841  0.0075
  816MOL0     H10095   1.319   3.185  11.045  2.4068 -0.3276  1.5938
  816MOL0     H10096   1.264   3.334  10.967  1.0555  1.3786 -0.4198
  816MOL0     H10097   1.440   3.347  11.221  1.7791  1.5982 -0.7807
  816MOL0     H10098   1.393   3.470  11.111 -1.3937  0.3864 -1.1269
  816MOL0     H10099   1.539   3.367  10.931  3.3613 -0.3136 -0.4873
  816MOL0     H10100   1.587   3.242  11.039  2.3604  0.9426  2.5331
  816MOL0     H10101   1.640   3.531  11.067  2.5149  0.8995  0.2198
  816MOL0     H10102   1.694   3.408  11.196  2.5454 -1.7777 -0.4776
  816MOL0     H10103   1.845   3.305  11.031 -3.5593 -2.2195  0.5156
  816MOL0     H10104   1.804   3.427  10.906 -0.5445 -0.3075 -0.7973
  816MOL0     H10105   1.858   3.616  11.058 -2.0683 -0.5601 -1.5529
  816MOL0     H10106   1.928   3.496  11.174  1.8412 -0.7237  0.3960
  816MOL0     H10107   2.075   3.605  10.997  1.4272 -0.7775 -0.0096
  816MOL0     H10108   2.015   3.474  10.900 -0.1438  0.6659 -0.3666
  816MOL0     H10109   2.169   3.429  11.173  0.5241  0.1664 -0.0954
  816MOL0     H10110   2.086   3.312  11.062  3.0192 -1.5097 -1.3791
  816MOL0     H10111   2.370   3.520  11.100  0.7512  1.1454 -0.9580
  816MOL0     H10112   2.593   3.577  10.843 -1.8938  0.2543  0.4747
  816MOL0     H10113   2.626   3.516  11.007  0.7847 -1.9309  0.2434
  816MOL0     H10114   2.679   3.286  10.893 -1.3903 -2.3591 -5.3153
  816MOL0     H10115   2.667   3.372  10.746 -0.2943  1.5677 -0.4831
  816MOL0     H10116   2.861   3.390  10.974 -2.1788  0.8985  0.4542
  816MOL0     H10117   2.843   3.542  10.875 -0.1622 -0.5482 -0.8393
  816MOL0     H10118   2.923   3.440  10.682  1.3841 -0.9642  0.5487
  816MOL0     H10119   2.917   3.283  10.758  0.5017 -0.3657  0.0653
  816MOL0     H10120   3.088   3.231  10.619 -1.0218  1.1000  0.4330
  816MOL0     H10121   3.275   3.203  10.468 -0.3462 -0.1228 -1.9310
  816MOL0     H10122   3.416   3.319  10.088  0.0688 -1.4056  0.4544
  816MOL0     H10123   3.572   3.344   9.899  3.0401  0.2263 -1.4661
  816MOL0     H10124   3.737   3.373   9.724  0.3190  0.8025 -1.3554
  816MOL0     H10125   3.759   3.492   9.851 -0.3084  0.4286 -2.3484
  816MOL0     H10126   3.994   3.499   9.821 -1.8608  0.6267  0.8965
  816MOL0     H10127   4.007   3.382   9.691  0.2949  2.2060 -3.2726
  816MOL0     H10128   3.848   3.644   9.709 -1.8575  2.1573 -4.3987
  816MOL0     H10129   4.010   3.631   9.636 -0.0803  0.9393 -1.5668
  816MOL0     H10130   3.762   3.481   9.535 -0.4684  0.5134  1.0399
  816MOL0     H10131   3.925   3.475   9.467 -1.6512 -1.6464 -0.2532
  816MOL0     H10132   3.863   3.750   9.507  2.3386 -1.4815  1.1520
  816MOL0     H10133   3.706   3.690   9.462  0.5134  1.9955  0.1773
  816MOL0     H10134   3.804   3.589   9.257  3.4230 -1.2948  1.1208
  816MOL0     H10135   3.796   3.771   9.269 -2.7067  0.1179  1.6388
  816MOL0     H10136   4.063   3.593   9.292  4.6209  3.3421  0.1057
  816MOL0     H10137   4.051   3.764   9.303 -2.2822  1.1034 -0.4634
  816MOL0     H10138   3.936   3.755   9.070 -1.2618  0.2147  1.8203
  816MOL0     H10139   4.109   3.705   9.084  0.0722 -0.0580  0.1468
  816MOL0     H10140   3.908   3.242  10.145 -0.7137 -0.9462  0.3485
  816MOL0     H10141   3.751   3.216  10.338 -3.2932 -1.4636  0.1498
  816MOL0     H10142   3.476   3.543  10.658  0.8013 -0.6155 -0.0338
  816MOL0     H10143   3.293   3.563  10.811  2.9145 -0.8539  0.9386
  816MOL0     H10144   1.124   3.125  10.994 -1.1962  0.4428 -2.3194
  816MOL0     H10145   0.932   2.977  11.048  1.6805 -0.8804 -0.3639
  816MOL0     H10146   0.483   2.972  10.991  2.9079  1.3547  0.5496
  816MOL0     H10147   0.273   2.852  11.016  0.6116  2.5189 -0.8670
  816MOL0     H10148   0.277   2.542  11.230 -0.1313 -1.1414  0.0185
  816MOL0     H10149   0.188   2.574  11.078 -1.8400 -0.6898  0.1634
  816MOL0     H10150   0.075   2.411  11.223 -0.8438 -0.2918 -1.5201
  816MOL0     H10151  -0.013   2.564  11.196  0.9395 -3.7286 -2.2310
  816MOL0     H10152  -0.031   2.507  11.442  1.2633 -1.2583  0.8598
  816MOL0     H10153   0.085   2.645  11.431 -0.7535  0.6619 -0.7113
  816MOL0     H10154   0.106   2.420  11.577  0.1323 -1.2870 -1.0527
  816MOL0     H10155   0.187   2.354  11.427  0.5778  1.4413 -1.7585
  816MOL0     H10156   0.490   2.583  11.605 -0.2481 -0.2948  1.7037
  816MOL0     H10157   0.338   2.762  11.421 -3.1487 -0.0267 -1.6559
  816MOL0     H10158   0.520   2.925  11.534 -1.3233  1.7883 -1.7954
  816MOL0     H10159   0.607   2.776  11.486 -1.3845 -0.1608  0.0094
  816MOL0     H10160   0.671   2.931  11.447 -0.8377  0.4092 -1.2437
  817MOL0     O10161   4.983   0.147   3.732 -0.1080 -0.4026  0.5657
  817MOL0     C10162   4.912   0.059   3.700 -0.5166 -0.2604  1.1885
  817MOL0     O10163   4.956  -0.063   3.658  0.5816  0.4420 -0.5129
  817MOL0     C10164   5.093  -0.078   3.643 -0.1990 -0.2966  0.2509
  817MOL0     C10165   5.169  -0.124   3.751  0.3673  0.0040  0.3917
  817MOL0     C10166   5.305  -0.148   3.738 -0.0968 -0.1470  0.1563
  817MOL0     C10167   5.374  -0.111   3.617  0.3036 -0.1385 -0.0058
  817MOL0     O10168   5.513  -0.107   3.614  0.2994 -0.3827  0.2118
  817MOL0     C10169   5.583  -0.048   3.496 -0.0543 -0.4917 -0.2778
  817MOL0     C10170   5.737  -0.063   3.507  0.1682  0.1812 -0.5236
  817MOL0     C10171   5.802   0.047   3.421  1.3043  0.4118  0.3220
  817MOL0     C10172   5.954   0.025   3.418  0.2842  0.4050 -0.2813
  817MOL0     C10173   6.009   0.087   3.290 -0.3638  0.0511  0.3919
  817MOL0     C10174   6.164   0.074   3.273  0.0383 -0.2176 -0.2195
  817MOL0     C10175   6.202   0.136   3.136  0.2028  0.0862  0.3141
  817MOL0     C10176   6.354   0.133   3.112 -0.6812  0.4212  0.1370
  817MOL0     N10177   6.382   0.223   3.000  0.7036 -0.1709 -0.7502
  817MOL0     C10178   6.421   0.191   2.870 -0.4813  0.6105 -0.1371
  817MOL0     C10179   6.448   0.312   2.810  0.5520 -1.5901  0.0464
  817MOL0     C10180   6.510   0.333   2.671  0.3950 -0.8032  0.3214
  817MOL0     C10181   6.412   0.374   2.560 -0.5163  0.5138  0.4123
  817MOL0     C10182   6.339   0.503   2.614  0.9744 -0.0554 -0.3532
  817MOL0     C10183   6.238   0.550   2.508 -0.8372 -0.5338 -0.2375
  817MOL0     O10184   6.138   0.451   2.471 -0.6493 -0.9296  0.2084
  817MOL0     C10185   6.025   0.485   2.415 -0.3361 -0.6096 -0.1559
  817MOL0     C10186   5.992   0.618   2.367 -0.7203  0.3024 -0.0842
  817MOL0     C10187   5.863   0.658   2.338 -0.0919  0.2592  0.9277
  817MOL0     C10188   5.754   0.567   2.364  0.5753  0.7519  0.1489
  817MOL0     C10189   5.615   0.588   2.324 -0.3129 -0.7656 -0.3018
  817MOL0     O10190   5.601   0.682   2.228  0.0988 -0.3024  0.4246
  817MOL0     C10191   5.466   0.718   2.192 -0.8832 -0.9848  0.4052
  817MOL0     C10192   5.445   0.854   2.170  0.2094 -0.1514 -0.1060
  817MOL0     C10193   5.319   0.899   2.142 -0.2077 -0.5047 -0.8785
  817MOL0     C10194   5.209   0.818   2.130 -0.4270  0.4029  0.7836
  817MOL0     O10195   5.097   0.886   2.080  0.1556 -0.4678 -0.4695
  817MOL0     C10196   4.969   0.837   2.123 -0.7116  0.8347  0.6934
  817MOL0     C10197   4.937   0.912   2.255 -0.0593  0.4348  0.2070
  817MOL0     C10198   4.785   0.903   2.275 -0.3549  0.1800  0.1651
  817MOL0     C10199   4.732   0.978   2.400 -0.5106 -0.2192  0.5333
  817MOL0     C10200   4.584   0.940   2.420 -0.6899  0.0455  0.0271
  817MOL0     C10201   4.533   1.027   2.545 -0.2325 -0.0425  0.3633
  817MOL0     C10202   4.395   0.992   2.550  0.4350  0.0034  0.2856
  817MOL0     C10203   4.314   1.024   2.429  0.4480 -0.6805  0.1322
  817MOL0    Cl10204   4.316   1.196   2.394 -0.0100 -0.2192  0.3861
  817MOL0     C10205   5.232   0.682   2.141  0.6421  0.2345  0.1757
  817MOL0     C10206   5.356   0.627   2.175 -0.3220  0.0224  0.1494
  817MOL0     O10207   5.528   0.549   2.399 -0.8818  0.2501  0.2764
  817MOL0     C10208   5.790   0.438   2.390  0.3056  0.3541  0.2210
  817MOL0     C10209   5.920   0.394   2.416 -0.7710  0.1277  0.0313
  817MOL0     N10210   6.421   0.409   2.909 -0.0449  0.1609 -0.2226
  817MOL0     N10211   6.382   0.360   3.019 -0.0325 -0.6675 -0.3819
  817MOL0     C10212   5.295  -0.062   3.507 -0.2826  0.2488  0.3905
  817MOL0     C10213   5.157  -0.059   3.517  0.8802  0.4810  0.3072
  817MOL0     C10214   4.763   0.078   3.698  0.3513  0.3975  0.5878
  817MOL0     C10215   4.683  -0.028   3.677  0.4521  0.4371 -0.6426
  817MOL0     C10216   4.543  -0.029   3.686  0.1426 -0.0667  0.5578
  817MOL0     C10217   4.470   0.086   3.716 -0.6548  0.1422  0.3981
  817MOL0     O10218   4.333   0.096   3.721 -0.3328  0.0625  1.1524
  817MOL0     C10219   4.264  -0.029   3.739  0.2434 -0.8666 -0.5288
  817MOL0     C10220   4.109  -0.011   3.725  0.2619  0.1515  0.0794
  817MOL0     C10221   4.054   0.056   3.849 -0.1890 -0.4324 -0.0417
  817MOL0     C10222   4.010  -0.039   3.953 -1.0517  0.8499 -0.2776
  817MOL0     C10223   3.957   0.030   4.062 -0.6749 -0.3867 -0.3646
  817MOL0     C10224   3.907   0.081   4.159 -0.0077 -0.3954 -0.1525
  817MOL0     C10225   4.552   0.196   3.736 -1.0002 -0.5568 -0.6276
  817MOL0     C10226   4.696   0.203   3.732  0.4596  0.7350  1.1625
  817MOL0     C10227   4.772   0.332   3.737  0.4484  0.0584 -0.1365
  817MOL0     H10228   5.119  -0.144   3.845 -2.8394 -0.3986 -1.2363
  817MOL0     H10229   5.371  -0.184   3.816 -0.8203 -0.7086  0.5226
  817MOL0     H10230   5.558  -0.098   3.401  1.5926  1.5030 -1.8644
  817MOL0     H10231   5.553   0.056   3.481 -1.5383 -0.6803  1.1426
  817MOL0     H10232   5.766  -0.163   3.473 -1.9423 -0.3979 -0.7504
  817MOL0     H10233   5.762  -0.047   3.612 -1.7411  0.8765 -0.1266
  817MOL0     H10234   5.783   0.145   3.465 -0.4350  0.6772 -0.8994
  817MOL0     H10235   5.760   0.042   3.320  0.4088 -0.7894  0.7325
  817MOL0     H10236   5.996   0.072   3.508 -1.9622 -1.0016  1.6156
  817MOL0     H10237   5.989  -0.078   3.408 -0.1624  0.3549 -1.5000
  817MOL0     H10238   5.958   0.024   3.217  0.6547 -2.1052  1.4483
  817MOL0     H10239   5.978   0.191   3.271 -0.3999  0.1775  1.1247
  817MOL0     H10240   6.223   0.128   3.347 -0.1445  0.6390 -0.6867
  817MOL0     H10241   6.198  -0.029   3.283  3.0506  0.7586  0.6107
  817MOL0     H10242   6.167   0.239   3.127  3.6870  1.5341  1.4880
  817MOL0     H10243   6.149   0.076   3.061 -0.1707 -0.8225  1.2757
  817MOL0     H10244   6.413   0.170   3.196 -2.9181  0.4979  1.7725
  817MOL0     H10245   6.394   0.035   3.086 -0.8837  0.2020  0.6324
  817MOL0     H10246   6.441   0.095   2.824  0.1180  0.3460  0.6435
  817MOL0     H10247   6.579   0.418   2.679  0.3814 -0.5091 -1.8560
  817MOL0     H10248   6.573   0.248   2.641 -1.8353 -2.3213 -0.3023
  817MOL0     H10249   6.463   0.404   2.468  2.2023 -0.2570  1.5550
  817MOL0     H10250   6.333   0.299   2.555 -3.3536  2.5594  5.8336
  817MOL0     H10251   6.406   0.583   2.647 -0.8024  1.1092  0.5721
  817MOL0     H10252   6.282   0.481   2.704 -0.8818 -1.2265 -1.7281
  817MOL0     H10253   6.289   0.598   2.423  2.8238 -1.5929  1.1633
  817MOL0     H10254   6.178   0.621   2.565 -1.1708 -1.2694  0.3339
  817MOL0     H10255   6.067   0.691   2.338 -2.0625  0.9194 -2.1758
  817MOL0     H10256   5.846   0.756   2.295 -2.8829 -1.5156 -2.6045
  817MOL0     H10257   5.535   0.914   2.178 -0.3053  0.4427  1.9000
  817MOL0     H10258   5.297   1.005   2.134  0.2927 -0.3008  0.3037
  817MOL0     H10259   4.891   0.877   2.058  0.1081 -0.4884 -1.1851
  817MOL0     H10260   4.957   0.730   2.143  0.0655  0.9079  1.6288
  817MOL0     H10261   4.976   0.855   2.340 -1.0245 -3.7461 -1.8833
  817MOL0     H10262   4.974   1.015   2.254 -0.5763  0.6624 -1.9412
  817MOL0     H10263   4.745   0.957   2.189  0.0617 -1.1369 -0.8894
  817MOL0     H10264   4.771   0.795   2.272  0.6200  0.0166 -3.7784
  817MOL0     H10265   4.742   1.086   2.383 -2.0798 -0.1070  0.1845
  817MOL0     H10266   4.785   0.949   2.491  0.7562  1.9397  0.5453
  817MOL0     H10267   4.572   0.835   2.449  1.1329 -0.2688 -0.2309
  817MOL0     H10268   4.541   0.958   2.321  1.8095  0.7114 -1.0140
  817MOL0     H10269   4.585   0.990   2.634  0.9414  1.6743  0.4327
  817MOL0     H10270   4.559   1.131   2.524 -2.6889  0.2113 -2.0011
  817MOL0     H10271   4.355   1.043   2.639  1.2859  0.1523  0.5939
  817MOL0     H10272   4.370   0.886   2.559 -1.6217  0.1571 -2.3945
  817MOL0     H10273   4.339   0.959   2.344 -2.5364 -0.7073 -0.8662
  817MOL0     H10274   4.210   0.997   2.448  0.1279 -1.0731 -1.9063
  817MOL0     H10275   5.150   0.616   2.115  0.7552  0.4612 -0.7892
  817MOL0     H10276   5.379   0.521   2.175  0.1027  0.1024 -0.9941
  817MOL0     H10277   5.719   0.356   2.395 -1.8327  1.9641 -1.5399
  817MOL0     H10278   5.943   0.297   2.459 -0.4639  0.6313  1.0431
  817MOL0     H10279   5.344  -0.032   3.415 -2.1840  1.6758 -0.2094
  817MOL0     H10280   5.088  -0.026   3.440  0.1390 -0.6269  0.4635
  817MOL0     H10281   4.722  -0.127   3.655 -2.0051 -0.3959 -1.6371
  817MOL0     H10282   4.504  -0.127   3.662 -1.2403 -0.0634  2.5345
  817MOL0     H10283   4.284  -0.073   3.837 -1.7263  0.0529  0.3252
  817MOL0     H10284   4.296  -0.103   3.665 -2.0846 -0.5144 -2.0034
  817MOL0     H10285   4.053  -0.097   3.689 -2.2655  1.6790  0.1243
  817MOL0     H10286   4.089   0.052   3.637 -0.5858  0.5184  0.5231
  817MOL0     H10287   3.971   0.119   3.818 -0.5887 -0.4962  0.8578
  817MOL0     H10288   4.131   0.121   3.892  0.8906 -2.1248  0.7059
  817MOL0     H10289   3.934  -0.088   3.891 -0.0263  0.7840 -1.5152
  817MOL0     H10290   4.090  -0.107   3.984 -0.8646  1.3133  0.2716
  817MOL0     H10291   3.863   0.119   4.249 -1.2639 -0.1012 -0.8723
  817MOL0     H10292   4.501   0.291   3.750  1.2847  0.8174 -1.1112
  817MOL0     H10293   4.708   0.420   3.729 -2.3571 -1.9385 -1.1056
  817MOL0     H10294   4.826   0.337   3.832 -0.2613 -1.4431  0.3775
  817MOL0     H10295   4.845   0.340   3.656 -0.4169 -2.6202 -1.2969
  818MOL0     O10296   9.630   3.893   8.147 -0.2757 -0.3724  0.6670
  818MOL0     C10297   9.511   3.866   8.170 -0.6868 -0.0096  1.3319
  818MOL0     O10298   9.462   3.846   8.296  0.2741  0.4481 -0.0818
  818MOL0     C10299   9.552   3.839   8.397 -0.1897 -1.3630 -0.6150
  818MOL0     C10300   9.537   3.920   8.502 -0.4667 -0.8184 -0.6558
  818MOL0     C10301   9.625   3.906   8.612  0.5283  0.8047  0.0688
  818MOL0     C10302   9.726   3.804   8.623  0.8639 -0.2026  0.0082
  818MOL0     O10303   9.807   3.781   8.729  0.6387 -0.2792 -0.3312
  818MOL0     C10304   9.856   3.894   8.800  0.0004 -1.2226 -0.3420
  818MOL0     C10305  10.004   3.877   8.846 -0.7884  0.6425  0.7316
  818MOL0     C10306  10.033   3.977   8.950 -0.3758 -0.7426 -0.2225
  818MOL0     C10307  10.172   3.969   9.004  0.7481  0.2234  0.2078
  818MOL0     C10308  10.201   4.082   9.107  0.6290  0.2769  0.5187
  818MOL0     C10309  10.326   4.045   9.179 -0.1324 -0.8607 -0.5878
  818MOL0     C10310  10.335   4.114   9.320  0.3284 -1.1713  0.1387
  818MOL0     C10311  10.462   4.074   9.387  0.1441 -1.2778  0.2398
  818MOL0     N10312  10.573   4.127   9.315  0.5669  0.3536  0.0076
  818MOL0     C10313  10.606   4.259   9.278 -1.1308  0.7028 -0.6691
  818MOL0     C10314  10.713   4.246   9.197 -0.3792 -0.0413 -0.4858
  818MOL0     C10315  10.787   4.376   9.155  0.5991  0.6782  0.2391
  818MOL0     C10316  10.879   4.420   9.268 -0.1286  0.0059  0.4969
  818MOL0     C10317  10.932   4.556   9.243 -0.4399 -0.1418 -0.1395
  818MOL0     C10318  11.054   4.583   9.327 -0.6042  0.3133  0.2997
  818MOL0     O10319  11.162   4.494   9.289  0.0249 -0.2440  0.5808
  818MOL0     C10320  11.284   4.513   9.353  0.3392  0.4683  0.6763
  818MOL0     C10321  11.321   4.597   9.450 -0.0263 -0.6051 -0.5409
  818MOL0     C10322  11.454   4.605   9.480 -0.1428 -0.0524  0.0521
  818MOL0     C10323  11.551   4.531   9.415  0.1631 -0.0342 -0.0545
  818MOL0     C10324  11.693   4.520   9.455  0.3702 -0.2060  0.1875
  818MOL0     O10325  11.791   4.478   9.365  0.3738 -0.3808 -0.5165
  818MOL0     C10326  11.919   4.492   9.403  0.1167 -0.0088 -0.2436
  818MOL0     C10327  12.000   4.550   9.301  0.2542  0.6170  0.2687
  818MOL0     C10328  12.139   4.566   9.318  0.4736  0.4389 -0.3313
  818MOL0     C10329  12.203   4.530   9.443  0.1874 -0.0703 -0.2074
  818MOL0     O10330  12.339   4.551   9.456  0.0821 -0.3181  0.4243
  818MOL0     C10331  12.387   4.607   9.574 -0.4540 -0.2592 -0.4023
  818MOL0     C10332  12.524   4.662   9.553  0.3487 -0.3192  0.3023
  818MOL0     C10333  12.506   4.803   9.504 -0.3539 -0.4129  0.8840
  818MOL0     C10334  12.641   4.875   9.479  1.0159  0.2272 -1.3259
  818MOL0     C10335  12.610   5.002   9.394 -0.7105  0.0962  0.0857
  818MOL0     C10336  12.744   5.061   9.355  0.2618  0.0415  0.1055
  818MOL0     C10337  12.848   5.108   9.461  0.0062  0.9265 -0.1478
  818MOL0     C10338  12.990   5.078   9.409  0.8355 -0.4565 -0.1285
  818MOL0    Cl10339  12.997   5.159   9.259  0.2329  0.0423 -0.4523
  818MOL0     C10340  12.120   4.480   9.549 -0.1951  0.4486  0.4009
  818MOL0     C10341  11.980   4.462   9.519  0.5031  0.5688  0.4080
  818MOL0     O10342  11.708   4.547   9.576 -0.3238 -0.2310  0.1606
  818MOL0     C10343  11.514   4.439   9.320 -0.4714  0.3070  0.9623
  818MOL0     C10344  11.380   4.440   9.287  0.1618  0.0834  0.5639
  818MOL0     N10345  10.757   4.109   9.208  1.0689  0.0090 -0.5872
  818MOL0     N10346  10.674   4.049   9.281 -0.5544  0.2470  0.0992
  818MOL0     C10347   9.738   3.729   8.506  0.3416  0.9769  0.7595
  818MOL0     C10348   9.653   3.746   8.398 -0.2825  0.0920 -0.1574
  818MOL0     C10349   9.412   3.884   8.066 -0.0188 -0.5968  0.4230
  818MOL0     C10350   9.453   3.946   7.947 -0.1626  0.6466  0.3162
  818MOL0     C10351   9.366   3.974   7.840 -1.0681  0.4286  0.0049
  818MOL0     C10352   9.233   3.942   7.854  0.7058  0.4198 -0.3501
  818MOL0     O10353   9.161   3.979   7.741  0.2291  0.3312  0.1966
  818MOL0     C10354   9.020   3.962   7.747 -0.3626 -0.0186  0.8970
  818MOL0     C10355   8.957   4.030   7.624  0.5222 -0.2989  0.2641
  818MOL0     C10356   8.959   3.947   7.494 -0.4239  0.1732 -0.2902
  818MOL0     C10357   9.090   3.901   7.438 -0.3583 -0.6794  0.2223
  818MOL0     C10358   9.175   4.020   7.403 -0.3638  1.3521 -0.0951
  818MOL0     C10359   9.250   4.119   7.378  1.1855  0.6659 -0.5529
  818MOL0     C10360   9.191   3.883   7.973  0.6667  0.0498  1.0272
  818MOL0     C10361   9.273   3.849   8.077  1.0652  0.6018 -0.1308
  818MOL0     C10362   9.218   3.772   8.195  0.3972  0.1054  0.0736
  818MOL0     H10363   9.458   3.995   8.503 -1.6058 -1.9313 -1.8788
  818MOL0     H10364   9.619   3.970   8.700  1.2456  0.3934  0.4252
  818MOL0     H10365   9.855   3.983   8.737 -1.0077 -1.8465 -1.2710
  818MOL0     H10366   9.791   3.909   8.887  1.1886  0.2955  0.3123
  818MOL0     H10367  10.076   3.887   8.764 -1.8089  1.9989 -0.0390
  818MOL0     H10368  10.012   3.779   8.894  1.7658  1.2513  1.6955
  818MOL0     H10369   9.951   3.976   9.022 -0.2445 -0.4491 -0.0668
  818MOL0     H10370  10.027   4.079   8.910 -2.7734 -0.9442 -0.5326
  818MOL0     H10371  10.190   3.870   9.046  0.1595 -1.4021 -3.0606
  818MOL0     H10372  10.242   3.974   8.920  2.7601 -1.6026  1.6750
  818MOL0     H10373  10.222   4.173   9.050  1.0496 -0.4434 -0.5072
  818MOL0     H10374  10.109   4.089   9.167 -1.0412 -2.6809 -1.4510
  818MOL0     H10375  10.329   3.937   9.199 -2.0984 -1.2296 -1.9835
  818MOL0     H10376  10.412   4.071   9.117 -0.0560 -0.0255 -0.1397
  818MOL0     H10377  10.254   4.068   9.376  1.4896 -1.8567  1.3098
  818MOL0     H10378  10.328   4.222   9.303  3.9105 -0.9396 -0.6335
  818MOL0     H10379  10.450   4.117   9.487 -2.0216 -0.7169 -0.2051
  818MOL0     H10380  10.457   3.965   9.380 -2.2098 -1.4275  2.6077
  818MOL0     H10381  10.550   4.340   9.323 -1.4481 -1.1025  2.4903
  818MOL0     H10382  10.834   4.367   9.056 -0.4934  0.9742 -0.3200
  818MOL0     H10383  10.715   4.457   9.148  0.5562  0.6530  0.3831
  818MOL0     H10384  10.828   4.417   9.365  0.6428  0.3975  0.9329
  818MOL0     H10385  10.969   4.358   9.276  0.3311  0.8272  2.6955
  818MOL0     H10386  10.850   4.626   9.260 -0.6955  0.2800 -2.6991
  818MOL0     H10387  10.968   4.569   9.140  4.5940  1.3606  1.4942
  818MOL0     H10388  11.028   4.554   9.430 -2.5850  1.1028  0.0648
  818MOL0     H10389  11.098   4.683   9.327 -0.4586  0.2482 -0.4539
  818MOL0     H10390  11.246   4.650   9.508 -1.4283 -4.3836  1.4188
  818MOL0     H10391  11.491   4.667   9.561  1.2355  1.0464 -1.3426
  818MOL0     H10392  11.956   4.579   9.206  0.3748  2.0872  0.6300
  818MOL0     H10393  12.208   4.597   9.240  2.5338  2.1358  1.9657
  818MOL0     H10394  12.309   4.680   9.593 -1.0378 -0.5887 -1.4549
  818MOL0     H10395  12.390   4.530   9.652  1.5445  0.4876  0.3377
  818MOL0     H10396  12.572   4.660   9.651 -0.6610 -0.2900  0.8075
  818MOL0     H10397  12.575   4.606   9.474 -0.7950  0.3131 -0.9241
  818MOL0     H10398  12.446   4.802   9.412  0.5724  0.2000  0.2520
  818MOL0     H10399  12.443   4.866   9.568 -3.1844 -1.4446 -0.6941
  818MOL0     H10400  12.703   4.807   9.420  1.4104 -1.4864  0.9667
  818MOL0     H10401  12.685   4.917   9.570  0.4694  1.8580 -1.7659
  818MOL0     H10402  12.551   5.073   9.453 -1.0916 -0.2371  0.1083
  818MOL0     H10403  12.558   4.978   9.301 -0.2683  0.1867 -0.1894
  818MOL0     H10404  12.793   4.989   9.290  1.2570 -1.2939  2.2244
  818MOL0     H10405  12.726   5.141   9.283 -2.2076 -3.9905 -4.3092
  818MOL0     H10406  12.838   5.056   9.557  0.4412  2.9547  1.0594
  818MOL0     H10407  12.848   5.214   9.491  2.0838  1.6620 -2.4303
  818MOL0     H10408  13.063   5.111   9.485  0.2246  1.6054 -0.3661
  818MOL0     H10409  13.004   4.972   9.387 -0.1740 -0.3208 -1.5168
  818MOL0     H10410  12.169   4.460   9.644  3.2177 -1.0433 -1.5108
  818MOL0     H10411  11.921   4.419   9.600 -1.9359  0.7005 -1.2094
  818MOL0     H10412  11.581   4.375   9.264 -0.5358 -0.5425  1.8289
  818MOL0     H10413  11.351   4.398   9.191 -1.9370  1.4263  0.5425
  818MOL0     H10414   9.817   3.655   8.512 -0.0398  0.5786  0.9361
  818MOL0     H10415   9.666   3.688   8.307  1.9453  0.9959 -0.4678
  818MOL0     H10416   9.558   3.975   7.943  0.3581 -1.0005  0.9990
  818MOL0     H10417   9.406   4.028   7.755  0.7652  0.8538  1.0652
  818MOL0     H10418   8.990   4.011   7.840  1.2335 -2.1676  2.6464
  818MOL0     H10419   8.988   3.858   7.762 -1.1369 -0.0013 -0.4954
  818MOL0     H10420   9.009   4.123   7.597  0.6592 -0.8092 -1.3174
  818MOL0     H10421   8.855   4.058   7.651  0.3018 -1.0791  0.2663
  818MOL0     H10422   8.894   3.988   7.417 -1.6699 -0.3978  0.4212
  818MOL0     H10423   8.918   3.853   7.531  0.0672 -0.4479 -1.2921
  818MOL0     H10424   9.137   3.846   7.520 -3.2800 -0.8037  1.9739
  818MOL0     H10425   9.083   3.827   7.358  1.7326 -0.0418 -0.6236
  818MOL0     H10426   9.289   4.213   7.345 -2.2156  1.7334 -2.0025
  818MOL0     H10427   9.089   3.847   7.985  0.7729 -0.0646  1.5892
  818MOL0     H10428   9.282   3.696   8.240  0.3580 -0.9183 -1.5283
  818MOL0     H10429   9.177   3.842   8.269 -0.5117  0.2273 -0.5355
  818MOL0     H10430   9.141   3.704   8.158  0.2634  1.3506 -2.0710
  819MOL0     O10431   6.589   0.552   4.625 -0.0780 -0.1703 -0.7250
  819MOL0     C10432   6.478   0.593   4.600 -0.3069  0.3108 -0.0170
  819MOL0     O10433   6.458   0.715   4.552  0.8442  0.4534  0.2493
  819MOL0     C10434   6.568   0.795   4.521 -0.1307  0.8294  0.5350
  819MOL0     C10435   6.580   0.834   4.394 -0.9305 -0.8413 -0.8312
  819MOL0     C10436   6.695   0.913   4.361  0.1918  0.2798  0.5541
  819MOL0     C10437   6.797   0.939   4.454 -0.0994 -0.0725 -0.2832
  819MOL0     O10438   6.901   1.026   4.425 -0.5322  0.4391  0.5034
  819MOL0     C10439   6.998   0.999   4.319  0.4076  0.4438 -0.0722
  819MOL0     C10440   7.132   1.071   4.341 -0.1806  0.3411 -0.7192
  819MOL0     C10441   7.201   1.035   4.473 -0.3343 -0.0494 -1.2534
  819MOL0     C10442   7.328   1.125   4.485  0.2853 -0.3972 -0.0322
  819MOL0     C10443   7.436   1.100   4.374 -0.8166  0.7524 -0.9849
  819MOL0     C10444   7.564   1.184   4.387  0.7348 -0.6026 -0.4635
  819MOL0     C10445   7.543   1.334   4.347 -0.8497  0.3308  0.8403
  819MOL0     C10446   7.515   1.363   4.194 -0.1282 -0.3989 -1.4237
  819MOL0     N10447   7.637   1.338   4.116 -0.6137 -0.3650  0.0311
  819MOL0     C10448   7.762   1.394   4.143  0.4914  0.5726 -0.3691
  819MOL0     C10449   7.837   1.355   4.036 -0.3939 -0.9653 -1.1351
  819MOL0     C10450   7.973   1.416   4.010 -0.4508 -0.0960 -0.5985
  819MOL0     C10451   8.083   1.337   4.079 -0.0779  0.0563  0.5932
  819MOL0     C10452   8.208   1.360   3.993 -0.1296 -0.0517  0.1005
  819MOL0     C10453   8.254   1.509   3.969  0.9861  0.1030  0.2782
  819MOL0     O10454   8.244   1.600   4.078 -0.5695 -0.1969  0.0880
  819MOL0     C10455   8.358   1.628   4.151  0.8770 -0.0652 -0.1039
  819MOL0     C10456   8.482   1.561   4.159  0.0384  0.0588  0.4088
  819MOL0     C10457   8.582   1.614   4.232  0.2285  0.2758 -0.0323
  819MOL0     C10458   8.566   1.737   4.303  0.0237 -0.1204 -0.4926
  819MOL0     C10459   8.683   1.808   4.361 -1.1212  0.1494 -0.0625
  819MOL0     O10460   8.807   1.747   4.367  1.1960 -0.5966 -0.2685
  819MOL0     C10461   8.926   1.797   4.401  0.4096 -0.7638  0.0297
  819MOL0     C10462   9.023   1.696   4.427 -0.0017  0.0315 -0.0474
  819MOL0     C10463   9.159   1.739   4.429 -0.0458  0.5280 -0.8334
  819MOL0     C10464   9.190   1.875   4.412 -0.4033  0.3310 -0.5161
  819MOL0     O10465   9.322   1.912   4.418 -0.5112  0.3930 -0.0089
  819MOL0     C10466   9.361   2.042   4.471  0.3097  0.3663 -0.0760
  819MOL0     C10467   9.508   2.045   4.497  0.3049 -0.5931  0.1056
  819MOL0     C10468   9.559   2.176   4.558 -0.1393 -0.1638 -0.0352
  819MOL0     C10469   9.711   2.164   4.587 -0.2104  0.6512 -0.6084
  819MOL0     C10470   9.756   2.297   4.663  0.2434  0.2601 -0.4600
  819MOL0     C10471   9.913   2.289   4.670  0.5544  0.1507  0.2348
  819MOL0     C10472   9.975   2.410   4.727  0.3187 -1.0852 -0.3716
  819MOL0     C10473  10.129   2.402   4.713 -0.0298 -0.6458 -0.2324
  819MOL0    Cl10474  10.171   2.450   4.540  0.3705 -0.2821 -0.3919
  819MOL0     C10475   9.091   1.970   4.403  0.6454 -0.8082  0.1893
  819MOL0     C10476   8.959   1.939   4.389 -0.5263  0.1952 -0.2993
  819MOL0     O10477   8.670   1.920   4.388  0.3474  0.2180 -0.2366
  819MOL0     C10478   8.446   1.805   4.287 -0.4467 -0.2466 -0.9005
  819MOL0     C10479   8.338   1.745   4.230  0.0275  0.2929  0.3139
  819MOL0     N10480   7.763   1.279   3.939  0.5926  0.0050  0.5529
  819MOL0     N10481   7.637   1.280   3.994 -0.8426 -0.4082  0.0592
  819MOL0     C10482   6.772   0.906   4.587 -1.0931  0.4142 -0.1512
  819MOL0     C10483   6.669   0.825   4.616  0.4790 -0.1373  0.1580
  819MOL0     C10484   6.357   0.514   4.618 -0.8163  0.4752 -0.3152
  819MOL0     C10485   6.238   0.576   4.608 -0.5841 -0.2917 -0.1271
  819MOL0     C10486   6.116   0.509   4.623  0.8935 -0.7798 -0.8351
  819MOL0     C10487   6.109   0.375   4.668  0.1140 -0.8120  0.1476
  819MOL0     O10488   6.006   0.298   4.683  0.6180  0.1220 -0.3581
  819MOL0     C10489   5.876   0.362   4.693  0.0552 -0.5638  0.4191
  819MOL0     C10490   5.776   0.265   4.755  0.0152  0.8485 -0.8005
  819MOL0     C10491   5.720   0.158   4.665  0.4057  0.6261  0.4089
  819MOL0     C10492   5.665   0.038   4.750  0.4625  0.3823  0.3055
  819MOL0     C10493   5.546   0.089   4.824  0.1716 -0.4652 -0.4315
  819MOL0     C10494   5.457   0.150   4.877 -0.8016  0.2998 -0.3211
  819MOL0     C10495   6.234   0.311   4.680 -0.4205 -0.0704 -0.5569
  819MOL0     C10496   6.361   0.370   4.656  0.2354 -0.0496  0.1106
  819MOL0     C10497   6.489   0.281   4.658 -0.2494 -0.0569 -0.4242
  819MOL0     H10498   6.495   0.820   4.328 -0.1981 -2.1542 -1.5382
  819MOL0     H10499   6.696   0.965   4.266 -0.4719 -2.3660 -1.0071
  819MOL0     H10500   7.031   0.895   4.316  0.8305  0.4491  2.4542
  819MOL0     H10501   6.954   1.013   4.219 -0.9462 -3.6120 -0.2118
  819MOL0     H10502   7.115   1.179   4.344  0.6961  0.5253  3.3510
  819MOL0     H10503   7.202   1.052   4.259 -0.2989  2.0815 -1.2568
  819MOL0     H10504   7.234   0.933   4.494 -0.1983  0.2267 -0.0826
  819MOL0     H10505   7.124   1.059   4.546  0.5645  0.5931 -0.4985
  819MOL0     H10506   7.300   1.229   4.468 -1.6415 -1.3831 -4.2804
  819MOL0     H10507   7.365   1.106   4.586 -1.6940 -2.8858  0.3394
  819MOL0     H10508   7.460   0.994   4.373  1.3755  1.1698 -3.1492
  819MOL0     H10509   7.391   1.116   4.275  0.0583  0.9569 -1.3651
  819MOL0     H10510   7.593   1.178   4.492  0.6524 -0.4111 -0.4301
  819MOL0     H10511   7.643   1.148   4.320  0.8367 -0.8441 -0.2205
  819MOL0     H10512   7.633   1.391   4.371  0.6629 -0.3751 -2.5841
  819MOL0     H10513   7.459   1.373   4.405 -0.6383  1.4203  0.4281
  819MOL0     H10514   7.432   1.299   4.165 -0.5845 -0.2287 -0.5309
  819MOL0     H10515   7.476   1.464   4.178 -0.7296 -0.5976 -1.2382
  819MOL0     H10516   7.788   1.466   4.219 -1.1549  0.2504  0.5548
  819MOL0     H10517   7.995   1.419   3.903  5.1300 -0.7233  0.1971
  819MOL0     H10518   7.974   1.519   4.045  1.9619  1.2802 -4.0935
  819MOL0     H10519   8.099   1.371   4.182 -2.1377  2.6710  0.1830
  819MOL0     H10520   8.060   1.231   4.077  2.8271 -0.7081  1.8038
  819MOL0     H10521   8.195   1.312   3.895 -1.5106  0.2033  0.1476
  819MOL0     H10522   8.294   1.304   4.032 -0.3156 -0.8752 -0.6373
  819MOL0     H10523   8.187   1.546   3.891  0.5938  0.2144  0.6651
  819MOL0     H10524   8.351   1.499   3.921  0.1061 -0.8452 -1.3927
  819MOL0     H10525   8.487   1.471   4.099 -3.5270 -1.8673  2.6097
  819MOL0     H10526   8.675   1.560   4.223  1.0356  1.6584 -0.1742
  819MOL0     H10527   8.990   1.593   4.423  1.3236 -0.4718  1.0451
  819MOL0     H10528   9.229   1.660   4.452 -3.4956 -2.3142  0.9994
  819MOL0     H10529   9.339   2.120   4.398  1.1479 -2.8477 -4.1292
  819MOL0     H10530   9.315   2.059   4.569 -0.5138 -2.5035  0.1242
  819MOL0     H10531   9.518   1.972   4.578  0.0136 -1.5944 -0.7296
  819MOL0     H10532   9.562   2.020   4.405  1.3932  0.7195  0.3548
  819MOL0     H10533   9.527   2.251   4.485  0.4495 -0.3299 -0.4711
  819MOL0     H10534   9.513   2.191   4.656 -0.4977  2.1500 -0.4989
  819MOL0     H10535   9.769   2.136   4.499  1.3654  2.0186 -0.0410
  819MOL0     H10536   9.726   2.081   4.657  0.9469  0.0390 -1.5282
  819MOL0     H10537   9.710   2.301   4.762  1.4556  0.1553  0.1288
  819MOL0     H10538   9.718   2.381   4.604 -3.9870 -1.3837 -0.4259
  819MOL0     H10539   9.949   2.205   4.731 -1.6607 -2.3415 -1.6520
  819MOL0     H10540   9.943   2.285   4.565 -1.0633  1.9172 -0.3334
  819MOL0     H10541   9.946   2.415   4.832  2.0706  1.3960  0.1029
  819MOL0     H10542   9.930   2.493   4.672 -1.3506  0.9385  3.6750
  819MOL0     H10543  10.185   2.464   4.784  1.6420 -0.8996 -1.2617
  819MOL0     H10544  10.169   2.303   4.734  3.0854  0.4464 -0.4938
  819MOL0     H10545   9.119   2.074   4.386 -1.3467 -0.0860  1.0878
  819MOL0     H10546   8.884   2.015   4.371 -0.4576  0.7988  1.6632
  819MOL0     H10547   8.436   1.909   4.317 -0.9612 -0.6127  0.2542
  819MOL0     H10548   8.246   1.800   4.247  0.7793  1.3838  0.9149
  819MOL0     H10549   6.841   0.921   4.669  0.5976 -1.4746 -1.1334
  819MOL0     H10550   6.661   0.801   4.722 -0.2833  0.5252  0.2637
  819MOL0     H10551   6.230   0.678   4.571 -1.7825 -0.5045 -0.4925
  819MOL0     H10552   6.034   0.580   4.613  1.1252 -0.2558  0.7805
  819MOL0     H10553   5.844   0.393   4.593 -3.7642  0.2892  1.7342
  819MOL0     H10554   5.888   0.457   4.745 -1.0521  1.7571 -3.1924
  819MOL0     H10555   5.696   0.328   4.795  0.4550  0.9666 -0.0940
  819MOL0     H10556   5.821   0.217   4.842  1.8808 -0.4166 -2.3605
  819MOL0     H10557   5.796   0.122   4.594 -2.4438 -1.2918 -1.9173
  819MOL0     H10558   5.640   0.199   4.602 -0.0033 -0.2906  0.3157
  819MOL0     H10559   5.643  -0.042   4.679 -1.0436  1.2043 -0.2074
  819MOL0     H10560   5.738   0.003   4.823 -0.2516 -1.0747  0.3465
  819MOL0     H10561   5.375   0.198   4.927 -1.3989 -0.5620 -0.4467
  819MOL0     H10562   6.236   0.206   4.707  0.6894 -0.6941 -2.8406
  819MOL0     H10563   6.523   0.272   4.554 -1.0870 -1.7608 -0.5921
  819MOL0     H10564   6.564   0.319   4.728 -1.8514 -0.6233  1.7043
  819MOL0     H10565   6.470   0.178   4.690 -0.5375 -0.5257 -1.9895
  820MOL0     O10566   4.984   1.695   8.746 -0.4433 -0.2947 -0.0477
  820MOL0     C10567   5.021   1.811   8.756 -0.3503 -0.9291  0.1357
  820MOL0     O10568   5.135   1.848   8.820  0.8842 -0.1628 -0.3410
  820MOL0     C10569   5.226   1.765   8.877  0.2232 -0.2836  0.2713
  820MOL0     C10570   5.260   1.636   8.825 -0.0822 -0.6503  0.1903
  820MOL0     C10571   5.360   1.559   8.886 -0.3263 -0.4684 -0.5671
  820MOL0     C10572   5.430   1.613   8.994 -0.1177 -0.5315 -0.4388
  820MOL0     O10573   5.537   1.536   9.037 -0.1446 -0.0638  0.4709
  820MOL0     C10574   5.672   1.589   9.007 -1.0055 -0.0022  0.2890
  820MOL0     C10575   5.772   1.474   9.041  0.2603 -0.7974  0.5446
  820MOL0     C10576   5.908   1.528   8.992 -0.4544 -1.0005  0.4673
  820MOL0     C10577   6.022   1.432   9.030  0.1097 -0.0730  0.3082
  820MOL0     C10578   6.160   1.464   8.976  0.7755  0.0345 -0.9372
  820MOL0     C10579   6.164   1.473   8.826 -0.3762  0.1678  0.5947
  820MOL0     C10580   6.108   1.345   8.748  0.1673  0.4758 -0.0921
  820MOL0     C10581   6.130   1.337   8.594  0.3967  0.3061 -0.4191
  820MOL0     N10582   6.045   1.232   8.539 -0.3407  0.4172 -0.2443
  820MOL0     C10583   5.920   1.253   8.488 -0.1170 -0.2350  0.2166
  820MOL0     C10584   5.874   1.134   8.453  0.2310  0.3063  0.2113
  820MOL0     C10585   5.742   1.107   8.371 -0.1560 -0.1080 -0.4871
  820MOL0     C10586   5.627   1.057   8.465 -0.4854  0.2139 -0.3619
  820MOL0     C10587   5.478   1.072   8.417 -0.2720 -0.1020  0.0697
  820MOL0     C10588   5.446   0.999   8.288 -0.3384  0.5927  0.2997
  820MOL0     O10589   5.513   1.039   8.168 -0.6599 -0.4916 -0.8838
  820MOL0     C10590   5.452   1.078   8.056  0.5302  0.5092  1.1234
  820MOL0     C10591   5.515   1.179   7.978  0.8061 -0.1347 -0.4090
  820MOL0     C10592   5.469   1.203   7.845 -0.0735 -0.3659 -0.1122
  820MOL0     C10593   5.341   1.155   7.812 -0.6913  1.1206 -0.0291
  820MOL0     C10594   5.285   1.199   7.682  0.4182  0.1288 -1.5158
  820MOL0     O10595   5.317   1.320   7.638 -0.0219 -0.2624 -0.4497
  820MOL0     C10596   5.284   1.354   7.507 -0.1093  0.4863 -0.1342
  820MOL0     C10597   5.221   1.475   7.496 -0.4471 -0.2888 -0.0124
  820MOL0     C10598   5.183   1.526   7.374 -0.1653  0.4851 -0.0320
  820MOL0     C10599   5.204   1.450   7.262 -0.5067  0.1656 -0.7280
  820MOL0     O10600   5.149   1.507   7.149 -0.8077  0.3545 -0.1258
  820MOL0     C10601   5.163   1.441   7.022 -0.3375  0.0865  0.7019
  820MOL0     C10602   5.066   1.516   6.926 -0.1483  0.3771 -0.7244
  820MOL0     C10603   5.073   1.467   6.785 -0.1152  0.4511  0.8979
  820MOL0     C10604   4.978   1.342   6.762  0.4276 -0.1733  0.2069
  820MOL0     C10605   4.988   1.303   6.617  0.3812 -0.1401  0.7699
  820MOL0     C10606   4.929   1.164   6.594  0.1429 -0.4636 -0.1874
  820MOL0     C10607   4.916   1.131   6.445  0.6575 -0.3034  0.1816
  820MOL0     C10608   4.842   0.993   6.418  0.2218 -0.8741 -0.5329
  820MOL0    Cl10609   4.670   1.012   6.414  0.1879 -0.6267 -0.0996
  820MOL0     C10610   5.262   1.320   7.276  0.1709  0.1460 -0.1691
  820MOL0     C10611   5.316   1.272   7.395  0.6678  0.2024 -0.8552
  820MOL0     O10612   5.194   1.134   7.631 -0.1005  0.1050  1.0084
  820MOL0     C10613   5.272   1.069   7.898  0.0554 -0.6260  0.0134
  820MOL0     C10614   5.331   1.018   8.006 -0.5269  0.3169  0.2762
  820MOL0     N10615   5.961   1.038   8.490 -0.4552  0.3796  0.1761
  820MOL0     N10616   6.066   1.097   8.537 -0.0140 -0.0554 -0.2315
  820MOL0     C10617   5.399   1.745   9.047  0.0239  0.7258  0.1933
  820MOL0     C10618   5.302   1.816   8.987  0.0104  0.0266  0.0193
  820MOL0     C10619   4.934   1.922   8.717 -1.0658 -0.6537  0.2842
  820MOL0     C10620   4.797   1.902   8.707  0.6524  0.1726  0.9609
  820MOL0     C10621   4.706   2.009   8.668  0.0398  0.1510  0.1126
  820MOL0     C10622   4.756   2.141   8.656 -0.1573  0.1212  0.1454
  820MOL0     O10623   4.682   2.251   8.630 -0.2799 -0.8629  0.1141
  820MOL0     C10624   4.543   2.255   8.655 -1.5896  0.3004 -0.3611
  820MOL0     C10625   4.455   2.181   8.551  0.3293 -0.7287  0.5045
  820MOL0     C10626   4.307   2.229   8.534 -0.6953  0.6195  0.0224
  820MOL0     C10627   4.281   2.359   8.448 -0.3861  0.8264 -0.0562
  820MOL0     C10628   4.147   2.404   8.464  1.0008  0.1246 -0.3899
  820MOL0     C10629   4.022   2.419   8.490  0.1647 -0.4659  0.0134
  820MOL0     C10630   4.892   2.161   8.664  0.1485  0.7296  0.4398
  820MOL0     C10631   4.982   2.055   8.682 -0.6210  0.1863 -0.0623
  820MOL0     C10632   5.120   2.087   8.656  0.0931 -0.1192  0.2935
  820MOL0     H10633   5.212   1.595   8.737  1.8123  2.7429 -2.6784
  820MOL0     H10634   5.387   1.461   8.848  2.0433 -0.7040  1.4874
  820MOL0     H10635   5.682   1.625   8.904 -2.8911  1.4331  0.5608
  820MOL0     H10636   5.686   1.668   9.081 -1.5035 -1.1695  1.6829
  820MOL0     H10637   5.753   1.372   9.006  0.2887 -0.7360  0.3514
  820MOL0     H10638   5.765   1.469   9.150 -0.9828 -0.0862  0.5126
  820MOL0     H10639   5.919   1.629   9.030  4.5100 -1.7171  1.6341
  820MOL0     H10640   5.901   1.522   8.883 -1.7708  0.6883  0.4149
  820MOL0     H10641   6.026   1.431   9.139  0.1000  0.2259  0.3093
  820MOL0     H10642   6.001   1.329   9.000  1.9733 -0.1565 -0.9329
  820MOL0     H10643   6.194   1.557   9.023 -1.1363 -0.0456  0.7127
  820MOL0     H10644   6.221   1.378   9.005  2.5050  1.9678  1.5083
  820MOL0     H10645   6.095   1.552   8.797  2.6799  3.1471  0.8641
  820MOL0     H10646   6.264   1.494   8.785  0.1011 -2.4084  0.2387
  820MOL0     H10647   6.000   1.351   8.765  0.4007  2.8260  0.9175
  820MOL0     H10648   6.146   1.255   8.798 -1.1812 -0.6291 -0.9677
  820MOL0     H10649   6.094   1.427   8.543 -2.3943 -0.5766 -0.2067
  820MOL0     H10650   6.236   1.320   8.573  0.3886  1.3210 -1.3535
  820MOL0     H10651   5.882   1.354   8.490  0.7973  0.1249  2.2912
  820MOL0     H10652   5.713   1.202   8.324 -0.1103  0.3073  0.3105
  820MOL0     H10653   5.752   1.029   8.294 -0.4425 -3.3673  2.5502
  820MOL0     H10654   5.646   0.955   8.499 -1.0297  1.0305  2.6758
  820MOL0     H10655   5.634   1.123   8.553 -0.8449  1.3970 -1.1909
  820MOL0     H10656   5.466   1.181   8.420 -0.1129 -0.0930  0.3145
  820MOL0     H10657   5.418   1.026   8.496 -1.1098  0.8972  0.0538
  820MOL0     H10658   5.337   1.005   8.285 -0.3261  0.6035 -0.0617
  820MOL0     H10659   5.471   0.894   8.310  1.7540  1.2753  1.5131
  820MOL0     H10660   5.604   1.219   8.025 -0.1983  0.0272  1.4709
  820MOL0     H10661   5.529   1.266   7.780  0.1042  0.3352  0.7056
  820MOL0     H10662   5.205   1.534   7.585  4.1019  2.2403 -0.5922
  820MOL0     H10663   5.124   1.616   7.360  0.0201  0.3908 -1.6878
  820MOL0     H10664   5.262   1.446   6.976 -0.7436 -0.4538 -0.2766
  820MOL0     H10665   5.139   1.335   7.035  3.2196 -0.7169  1.8219
  820MOL0     H10666   4.971   1.488   6.972 -0.3203 -1.3959 -2.0697
  820MOL0     H10667   5.080   1.624   6.937  0.0021  0.1857  1.3528
  820MOL0     H10668   5.037   1.549   6.721  0.1150  0.1083  0.3286
  820MOL0     H10669   5.173   1.437   6.753 -0.9150  0.5365 -1.9978
  820MOL0     H10670   4.871   1.363   6.775 -0.2932 -1.9543 -2.1460
  820MOL0     H10671   5.014   1.263   6.828  0.2995 -0.9482 -0.6325
  820MOL0     H10672   5.091   1.307   6.580  0.6864 -3.5475  0.9356
  820MOL0     H10673   4.937   1.384   6.564  1.5260  0.5941  0.7687
  820MOL0     H10674   4.988   1.093   6.653  0.6217  0.8945  1.0371
  820MOL0     H10675   4.832   1.167   6.644  0.4250 -0.2677  0.3587
  820MOL0     H10676   5.019   1.130   6.408  1.1993  0.2718  1.5856
  820MOL0     H10677   4.863   1.208   6.388  1.1307 -0.6408 -0.7347
  820MOL0     H10678   4.865   0.959   6.316  2.1937 -3.4532  0.6476
  820MOL0     H10679   4.875   0.916   6.489 -0.9861 -0.8737  0.0517
  820MOL0     H10680   5.263   1.253   7.191 -0.6066 -3.4828  2.4092
  820MOL0     H10681   5.349   1.171   7.415  1.6169  0.4962 -0.9173
  820MOL0     H10682   5.171   1.030   7.884 -0.3736  0.8327 -1.4046
  820MOL0     H10683   5.288   0.931   8.055  0.2432 -0.4941 -0.4289
  820MOL0     H10684   5.442   1.781   9.140  2.1146  2.7921 -1.4741
  820MOL0     H10685   5.274   1.913   9.026 -1.3787 -0.3337 -0.0423
  820MOL0     H10686   4.766   1.798   8.718  3.0741 -0.4687  2.3991
  820MOL0     H10687   4.601   1.984   8.682 -0.1756  2.3002  3.5797
  820MOL0     H10688   4.505   2.357   8.665  0.3744  1.5412 -3.8499
  820MOL0     H10689   4.521   2.202   8.748 -1.4696  0.6101 -0.1563
  820MOL0     H10690   4.447   2.073   8.563 -2.7487 -1.0745 -2.7826
  820MOL0     H10691   4.513   2.198   8.460 -2.1011  0.5623 -0.9310
  820MOL0     H10692   4.274   2.261   8.633  0.0987 -0.8014  0.7798
  820MOL0     H10693   4.249   2.147   8.490  1.3112 -0.6887 -0.2920
  820MOL0     H10694   4.352   2.434   8.484  2.5100 -1.4314 -0.6743
  820MOL0     H10695   4.287   2.328   8.344 -2.3788  1.8281 -0.5281
  820MOL0     H10696   3.918   2.430   8.511  0.2837 -1.9922  1.6711
  820MOL0     H10697   4.924   2.264   8.661 -2.1872  1.4984 -0.6282
  820MOL0     H10698   5.157   2.163   8.725 -2.4537  0.6745  0.8849
  820MOL0     H10699   5.184   1.999   8.663 -2.3714 -2.0918 -0.7402
  820MOL0     H10700   5.137   2.124   8.554 -0.7048 -0.0605  0.1760
  821MOL0     O10701   4.570   9.356   8.149 -0.4143  0.2218 -0.0403
  821MOL0     C10702   4.539   9.306   8.258  0.9030  0.4630 -0.6630
  821MOL0     O10703   4.617   9.292   8.373  0.6456  0.0703 -0.2779
  821MOL0     C10704   4.746   9.329   8.358 -1.6637 -0.1790  0.2631
  821MOL0     C10705   4.800   9.461   8.372  0.2739  0.1789  0.2084
  821MOL0     C10706   4.941   9.483   8.383 -0.3567 -0.3667  0.3451
  821MOL0     C10707   5.029   9.375   8.391  0.6587  0.2707 -0.2187
  821MOL0     O10708   5.154   9.413   8.424  0.0036 -0.6148  0.4916
  821MOL0     C10709   5.255   9.307   8.422  0.7017 -0.1492 -0.3832
  821MOL0     C10710   5.394   9.352   8.468  0.3313 -0.7504 -0.7486
  821MOL0     C10711   5.502   9.248   8.459 -0.2015  1.4654 -0.2187
  821MOL0     C10712   5.516   9.138   8.567 -0.2946  0.0707  0.9005
  821MOL0     C10713   5.626   9.032   8.525 -0.8413  0.1029 -0.0561
  821MOL0     C10714   5.769   9.077   8.538  0.4409  1.1759  0.2288
  821MOL0     C10715   5.871   8.974   8.471 -0.3758 -0.3598  0.3704
  821MOL0     C10716   6.019   9.036   8.465 -0.0545 -0.1414 -0.3652
  821MOL0     N10717   6.127   8.937   8.420 -0.3123 -0.2283  0.5644
  821MOL0     C10718   6.182   8.841   8.491 -0.1650 -0.2207  0.3499
  821MOL0     C10719   6.278   8.780   8.417 -0.7749 -0.7273  0.5132
  821MOL0     C10720   6.372   8.677   8.479 -0.1455 -0.0623  0.2304
  821MOL0     C10721   6.348   8.538   8.419 -0.1852 -0.2141 -0.1964
  821MOL0     C10722   6.435   8.426   8.482  0.4863 -0.5207  0.8232
  821MOL0     C10723   6.578   8.462   8.513  0.1585 -0.9697  0.1519
  821MOL0     O10724   6.642   8.466   8.385 -0.2897 -0.2372  0.3178
  821MOL0     C10725   6.766   8.521   8.373 -0.3510 -0.3559  0.0555
  821MOL0     C10726   6.860   8.529   8.477  0.1887 -0.4055  0.2598
  821MOL0     C10727   6.992   8.580   8.447 -0.4046  0.4679 -0.5201
  821MOL0     C10728   7.028   8.622   8.320  0.9453 -0.7188  0.1973
  821MOL0     C10729   7.159   8.670   8.299 -0.3174  0.2696 -0.0975
  821MOL0     O10730   7.264   8.614   8.371 -0.4448 -0.7629  0.2643
  821MOL0     C10731   7.382   8.681   8.367  1.1434 -0.6524  0.3256
  821MOL0     C10732   7.382   8.798   8.443 -0.4386 -0.5450 -0.0836
  821MOL0     C10733   7.498   8.872   8.466 -0.6382  0.3754 -0.1913
  821MOL0     C10734   7.626   8.827   8.407  0.2445 -0.3458 -0.9370
  821MOL0     O10735   7.751   8.889   8.420 -0.0108 -0.1072  0.1942
  821MOL0     C10736   7.762   9.015   8.481 -0.4416 -0.2806 -1.4108
  821MOL0     C10737   7.719   9.119   8.384 -0.6162  1.0888  0.3132
  821MOL0     C10738   7.845   9.190   8.337 -0.7241 -0.7274  0.1971
  821MOL0     C10739   7.818   9.286   8.220  0.1793  0.0920 -0.3611
  821MOL0     C10740   7.939   9.381   8.189  0.3085 -0.1966  0.3116
  821MOL0     C10741   8.061   9.290   8.119  0.4535 -0.0831 -0.5692
  821MOL0     C10742   8.186   9.362   8.064  0.2447 -0.2468 -0.2799
  821MOL0     C10743   8.264   9.415   8.182  0.4855  0.8343  0.3255
  821MOL0    Cl10744   8.419   9.472   8.134 -0.3326  0.2638  0.5150
  821MOL0     C10745   7.621   8.707   8.335  0.1474 -0.4755 -0.4314
  821MOL0     C10746   7.500   8.642   8.301  0.6204 -0.0893 -0.9275
  821MOL0     O10747   7.177   8.758   8.214  0.3344 -0.1343 -0.1569
  821MOL0     C10748   6.932   8.607   8.222 -0.3806 -0.4024 -0.3853
  821MOL0     C10749   6.803   8.556   8.251  0.2634 -1.0199  0.2150
  821MOL0     N10750   6.280   8.843   8.293 -0.3083 -0.1083  0.0436
  821MOL0     N10751   6.195   8.942   8.303  0.2896 -0.8497 -0.8718
  821MOL0     C10752   4.980   9.238   8.379  0.0247 -0.2406 -0.1740
  821MOL0     C10753   4.839   9.221   8.362 -0.0644  0.1745  0.3834
  821MOL0     C10754   4.397   9.242   8.284 -0.4672 -0.6496  0.0539
  821MOL0     C10755   4.365   9.198   8.414 -0.7580  0.3894  0.2702
  821MOL0     C10756   4.237   9.150   8.438 -0.4621  0.0073  0.2218
  821MOL0     C10757   4.136   9.159   8.343  0.7297  1.0429  0.0804
  821MOL0     O10758   4.003   9.138   8.381 -0.3154  0.2613  0.0247
  821MOL0     C10759   3.919   9.072   8.288  0.3343  0.1914  0.6721
  821MOL0     C10760   3.777   9.025   8.349 -0.0038  0.3961 -0.6247
  821MOL0     C10761   3.713   9.133   8.437 -0.1492 -0.5567  0.5396
  821MOL0     C10762   3.566   9.087   8.458 -1.0225 -0.0959 -0.5144
  821MOL0     C10763   3.495   9.107   8.336  0.3482  0.2018 -0.3092
  821MOL0     C10764   3.421   9.116   8.241  0.9547  0.9865  0.0329
  821MOL0     C10765   4.168   9.200   8.223  0.3456  0.1966  1.1667
  821MOL0     C10766   4.296   9.247   8.190 -0.0208 -0.6774  0.1931
  821MOL0     C10767   4.317   9.293   8.050  0.5315  0.2955  0.5298
  821MOL0     H10768   4.746   9.551   8.402 -0.9649 -0.2864 -0.5552
  821MOL0     H10769   4.975   9.584   8.404 -0.7572 -0.5392  1.9495
  821MOL0     H10770   5.228   9.224   8.487  1.0810  0.8061  1.0386
  821MOL0     H10771   5.257   9.272   8.318 -1.7535 -0.3853 -0.4248
  821MOL0     H10772   5.386   9.372   8.575  1.1630  0.6898 -0.9375
  821MOL0     H10773   5.425   9.444   8.419  1.5487  0.5778  2.2962
  821MOL0     H10774   5.594   9.306   8.467  0.1801  0.7654  0.5032
  821MOL0     H10775   5.497   9.202   8.360 -1.3037 -0.2438  0.5919
  821MOL0     H10776   5.533   9.179   8.667 -1.4165  0.5354  0.9249
  821MOL0     H10777   5.421   9.084   8.579  0.3631 -1.5523 -0.8170
  821MOL0     H10778   5.617   8.940   8.584 -1.3949  0.4632  0.4329
  821MOL0     H10779   5.606   9.010   8.420  0.9097  0.3429 -0.4712
  821MOL0     H10780   5.791   9.177   8.501  1.7394  0.0540 -2.2549
  821MOL0     H10781   5.783   9.076   8.647 -1.4146 -0.6600  0.5114
  821MOL0     H10782   5.834   8.959   8.369 -1.4171 -1.2673  0.8758
  821MOL0     H10783   5.867   8.876   8.519  2.0698 -1.5618 -1.5850
  821MOL0     H10784   6.027   9.123   8.399  0.2581 -0.6018 -0.9434
  821MOL0     H10785   6.045   9.085   8.560 -0.4311  0.1807 -0.4249
  821MOL0     H10786   6.161   8.814   8.595  0.3411  0.5039  0.6480
  821MOL0     H10787   6.470   8.708   8.441 -1.1431  0.5506 -2.0465
  821MOL0     H10788   6.368   8.673   8.588  4.0573 -1.9169  0.5422
  821MOL0     H10789   6.244   8.506   8.432  0.3517 -2.0071 -0.1299
  821MOL0     H10790   6.351   8.539   8.310 -0.8587 -0.7101 -0.2246
  821MOL0     H10791   6.419   8.344   8.412  0.9136  0.5340 -0.5458
  821MOL0     H10792   6.379   8.398   8.572  1.7940 -0.1907  1.7646
  821MOL0     H10793   6.630   8.385   8.571  0.6593 -0.0232  0.9913
  821MOL0     H10794   6.605   8.554   8.567 -0.8085 -0.0011 -0.9634
  821MOL0     H10795   6.828   8.509   8.579  0.7787 -0.4071  0.4535
  821MOL0     H10796   7.060   8.587   8.531  0.7077  2.5302 -1.5070
  821MOL0     H10797   7.297   8.823   8.505  2.2008  1.7434  2.9157
  821MOL0     H10798   7.486   8.965   8.521  0.1444 -0.9025  2.2816
  821MOL0     H10799   7.704   9.013   8.574  1.0872 -2.0745 -0.4176
  821MOL0     H10800   7.864   9.031   8.517 -1.6639  1.1107  1.8827
  821MOL0     H10801   7.678   9.073   8.294  0.7646 -0.5044  0.4492
  821MOL0     H10802   7.634   9.172   8.426 -2.9699 -1.8297 -0.4229
  821MOL0     H10803   7.894   9.243   8.420  0.7375  0.9932 -1.6566
  821MOL0     H10804   7.911   9.114   8.294  1.4984  0.4584  1.3518
  821MOL0     H10805   7.730   9.345   8.246 -1.0561 -0.5087 -2.8826
  821MOL0     H10806   7.789   9.236   8.127  0.0326 -1.4535  0.4810
  821MOL0     H10807   7.981   9.426   8.279  0.2969 -1.9487  1.2180
  821MOL0     H10808   7.913   9.470   8.131 -0.1126 -0.1295  0.6031
  821MOL0     H10809   8.103   9.218   8.190  0.3149 -0.9867 -1.3747
  821MOL0     H10810   8.002   9.244   8.039  0.1095 -1.7888  0.5959
  821MOL0     H10811   8.144   9.442   8.001 -1.2915 -1.7311 -1.2398
  821MOL0     H10812   8.250   9.297   8.004 -0.4349  0.9418 -2.3985
  821MOL0     H10813   8.201   9.480   8.245 -2.1217  0.0662 -1.3479
  821MOL0     H10814   8.295   9.329   8.242  0.7534  0.5159 -0.2662
  821MOL0     H10815   7.701   8.648   8.293 -0.5628 -2.8198  1.2985
  821MOL0     H10816   7.493   8.555   8.237  0.1292 -1.3725  0.8018
  821MOL0     H10817   6.956   8.610   8.117  1.9248 -1.1200  0.0678
  821MOL0     H10818   6.740   8.543   8.164  0.2017 -0.4965  0.1763
  821MOL0     H10819   5.046   9.152   8.387 -1.7877 -1.8064 -1.3461
  821MOL0     H10820   4.792   9.125   8.347 -1.5782  0.8520  0.5575
  821MOL0     H10821   4.439   9.199   8.493  1.2302 -1.4722 -1.4297
  821MOL0     H10822   4.201   9.118   8.535  1.0112  2.2581  1.6021
  821MOL0     H10823   3.963   8.990   8.231  0.9425  0.3657  0.8843
  821MOL0     H10824   3.887   9.144   8.213 -1.8016 -1.5631 -0.2112
  821MOL0     H10825   3.779   8.930   8.403 -0.9238  1.2903  1.0661
  821MOL0     H10826   3.714   9.018   8.260  0.1642 -1.1599 -0.6471
  821MOL0     H10827   3.728   9.235   8.398  2.9146 -1.1758 -0.1932
  821MOL0     H10828   3.761   9.141   8.535  0.1101 -2.4365  0.5877
  821MOL0     H10829   3.547   8.982   8.483  0.3284 -0.0643  0.8251
  821MOL0     H10830   3.528   9.153   8.537  3.1119  1.5898  0.3694
  821MOL0     H10831   3.345   9.124   8.166  0.5472 -2.1733 -0.0507
  821MOL0     H10832   4.091   9.202   8.146 -0.4096 -0.7364  1.8588
  821MOL0     H10833   4.335   9.400   8.045  1.1117  0.2391  1.2773
  821MOL0     H10834   4.401   9.245   7.999  0.6289  2.1910 -1.2109
  821MOL0     H10835   4.225   9.285   7.990  1.1161  0.6299 -0.4213
  822MOL0     O10836  10.941   5.546   0.010 -0.4268 -0.7097 -0.5988
  822MOL0     C10837  10.905   5.489   0.107  0.0193  0.1362 -1.4946
  822MOL0     O10838  10.977   5.453   0.221  0.4353 -0.3945 -0.1362
  822MOL0     C10839  11.118   5.446   0.215  1.0033 -0.7708 -0.4570
  822MOL0     C10840  11.183   5.480   0.339  0.0249  0.5223  0.5736
  822MOL0     C10841  11.321   5.456   0.356 -0.0331  0.2570 -0.0193
  822MOL0     C10842  11.404   5.422   0.249 -0.3617 -0.0346 -0.3300
  822MOL0     O10843  11.537   5.406   0.258  0.5073 -1.0537 -0.4485
  822MOL0     C10844  11.591   5.397   0.386  0.1234 -0.0630  0.3440
  822MOL0     C10845  11.741   5.406   0.378 -0.3310 -1.3471  1.0179
  822MOL0     C10846  11.815   5.285   0.330  0.0452  0.3319  0.3665
  822MOL0     C10847  11.958   5.283   0.379 -0.4500 -0.3780 -0.4077
  822MOL0     C10848  12.013   5.143   0.349 -0.3502  0.2715 -0.2051
  822MOL0     C10849  12.151   5.127   0.409 -1.0516  0.5599  0.4299
  822MOL0     C10850  12.222   5.003   0.354  0.3782  0.2574 -0.0737
  822MOL0     C10851  12.364   5.010   0.418  0.0161 -0.3405 -0.0335
  822MOL0     N10852  12.460   4.916   0.350 -0.0418  0.3807 -0.5381
  822MOL0     C10853  12.565   4.866   0.418  0.0634  0.3927  0.1363
  822MOL0     C10854  12.628   4.788   0.329  0.4456 -0.2861  1.0481
  822MOL0     C10855  12.741   4.690   0.349 -0.1565 -0.2223  0.7802
  822MOL0     C10856  12.702   4.545   0.364 -0.5110  0.1679  0.2326
  822MOL0     C10857  12.817   4.441   0.340  0.3204 -0.2322  0.1416
  822MOL0     C10858  12.924   4.410   0.448 -0.2944 -0.1925  0.4069
  822MOL0     O10859  12.971   4.538   0.497  0.1213  1.0296  0.1221
  822MOL0     C10860  13.104   4.539   0.486 -0.8606 -0.7265  0.1537
  822MOL0     C10861  13.166   4.596   0.374  0.3970 -0.6079  0.2611
  822MOL0     C10862  13.300   4.578   0.346  0.0755 -0.1938  1.0041
  822MOL0     C10863  13.384   4.519   0.433 -0.2018 -0.3096 -0.5039
  822MOL0     C10864  13.526   4.496   0.399 -0.5323 -0.7740 -0.5849
  822MOL0     O10865  13.579   4.569   0.295  0.9544  0.1664  0.4706
  822MOL0     C10866  13.717   4.571   0.287 -0.6766 -1.5290  0.5128
  822MOL0     C10867  13.782   4.522   0.181 -0.1003 -0.5396  0.1377
  822MOL0     C10868  13.922   4.533   0.168  0.2545  0.8691  0.2127
  822MOL0     C10869  14.007   4.592   0.267 -0.3197  1.0258  1.0988
  822MOL0     O10870  14.142   4.597   0.266  0.0584  0.3242  0.6547
  822MOL0     C10871  14.212   4.536   0.152 -0.0695  0.8200  0.3525
  822MOL0     C10872  14.359   4.518   0.170  0.3312  0.2223 -0.1959
  822MOL0     C10873  14.434   4.435   0.070 -0.6412  0.4122  0.6461
  822MOL0     C10874  14.585   4.397   0.114  0.5469  0.8054 -0.0218
  822MOL0     C10875  14.678   4.519   0.130 -0.2006  0.0084 -0.3161
  822MOL0     C10876  14.697   4.611   0.006 -0.1517 -0.0627 -0.5474
  822MOL0     C10877  14.738   4.546  -0.127  0.0701  0.0645 -0.3721
  822MOL0     C10878  14.868   4.461  -0.109  0.0398 -0.1024  0.5778
  822MOL0    Cl10879  14.822   4.288  -0.106  0.0613 -0.1820  0.0694
  822MOL0     C10880  13.941   4.629   0.382  0.4887 -0.2499  0.1249
  822MOL0     C10881  13.801   4.626   0.388  0.4176 -0.0679  0.2160
  822MOL0     O10882  13.593   4.409   0.458 -0.9061  0.5484  0.5356
  822MOL0     C10883  13.336   4.486   0.563 -0.3922  0.0852 -0.4537
  822MOL0     C10884  13.197   4.488   0.588  0.3113  0.0920  0.4588
  822MOL0     N10885  12.560   4.802   0.209  0.2637 -0.0769 -0.9644
  822MOL0     N10886  12.456   4.874   0.225  0.0265  1.1440 -1.3747
  822MOL0     C10887  11.336   5.406   0.124 -0.5890  0.4871 -0.8272
  822MOL0     C10888  11.196   5.414   0.107  0.2522  0.8744  0.3177
  822MOL0     C10889  10.774   5.444   0.087 -0.6231  0.4397  0.0631
  822MOL0     C10890  10.673   5.525   0.048  0.4774 -0.1876 -0.3768
  822MOL0     C10891  10.540   5.490   0.035 -0.2749 -0.7814 -0.5109
  822MOL0     C10892  10.506   5.355   0.044  0.9493 -0.0245 -0.5053
  822MOL0     O10893  10.379   5.300   0.026 -0.5073  0.6280 -0.3252
  822MOL0     C10894  10.274   5.399   0.026  0.2551 -0.1368  0.4464
  822MOL0     C10895  10.153   5.313   0.066  0.9397  0.6215  0.2611
  822MOL0     C10896  10.027   5.410   0.082 -0.3092 -0.6103 -0.3466
  822MOL0     C10897   9.912   5.331   0.141 -0.2307  0.0904 -0.1652
  822MOL0     C10898   9.786   5.410   0.154  0.2905  0.4927 -0.2778
  822MOL0     C10899   9.683   5.465   0.175 -0.3353 -0.9983 -0.6121
  822MOL0     C10900  10.606   5.267   0.077 -0.0386  0.1136  0.6828
  822MOL0     C10901  10.738   5.307   0.102 -0.5309  0.3473 -0.7838
  822MOL0     C10902  10.847   5.214   0.148  0.5906 -0.1010 -0.2752
  822MOL0     H10903  11.110   5.500   0.417 -2.0463 -0.4622 -1.0170
  822MOL0     H10904  11.340   5.469   0.463 -2.4489 -2.4578  0.8660
  822MOL0     H10905  11.551   5.466   0.462 -1.9826 -2.9076  2.0107
  822MOL0     H10906  11.570   5.299   0.428 -2.5563  0.3913  0.2502
  822MOL0     H10907  11.777   5.431   0.478 -2.8169 -0.0548  1.6672
  822MOL0     H10908  11.780   5.489   0.319 -3.1884 -1.5173 -1.3075
  822MOL0     H10909  11.820   5.286   0.220  1.2310  0.3128  0.4008
  822MOL0     H10910  11.756   5.199   0.362 -3.1222  1.3823 -2.0673
  822MOL0     H10911  12.017   5.357   0.324 -0.9262 -0.6141 -1.2460
  822MOL0     H10912  11.956   5.308   0.485 -4.2276  2.7374 -1.0111
  822MOL0     H10913  11.941   5.072   0.391  0.4323 -0.8402 -0.6786
  822MOL0     H10914  12.012   5.122   0.241  0.7428  2.3943 -0.6836
  822MOL0     H10915  12.211   5.216   0.391 -2.1066  1.5216  1.4667
  822MOL0     H10916  12.126   5.119   0.515 -4.5264  0.1632 -0.2968
  822MOL0     H10917  12.230   5.003   0.245 -2.4565 -0.8474 -0.3605
  822MOL0     H10918  12.167   4.912   0.383  2.9884 -1.3733  0.1178
  822MOL0     H10919  12.411   5.107   0.399  3.2999 -1.8320 -0.3101
  822MOL0     H10920  12.359   4.993   0.526 -1.8205 -1.0294 -0.1895
  822MOL0     H10921  12.600   4.896   0.516 -0.6625  2.4909 -0.1751
  822MOL0     H10922  12.815   4.694   0.268  1.3100 -1.9225  1.9704
  822MOL0     H10923  12.799   4.724   0.435  1.1689 -1.1925  0.2868
  822MOL0     H10924  12.659   4.523   0.462 -0.8210 -1.2410 -0.2075
  822MOL0     H10925  12.622   4.515   0.296 -0.5745  0.5161  0.1495
  822MOL0     H10926  12.872   4.483   0.255  0.5443 -2.5823 -0.9776
  822MOL0     H10927  12.770   4.349   0.303  2.9545  0.1195 -4.9666
  822MOL0     H10928  12.999   4.347   0.399 -1.6182  0.4802 -2.6700
  822MOL0     H10929  12.870   4.357   0.527 -0.1834  2.1678  2.2113
  822MOL0     H10930  13.107   4.652   0.302 -0.0912  0.0670  1.1628
  822MOL0     H10931  13.330   4.617   0.249  2.4594  1.8556  2.4413
  822MOL0     H10932  13.721   4.480   0.102 -0.4214 -1.7304  0.9933
  822MOL0     H10933  13.972   4.489   0.082  1.0355  1.0288  0.5684
  822MOL0     H10934  14.173   4.438   0.120  5.2093 -2.1404  1.8013
  822MOL0     H10935  14.199   4.600   0.064 -1.9198  0.6534  0.4555
  822MOL0     H10936  14.406   4.616   0.154 -2.2221  1.7817  1.0995
  822MOL0     H10937  14.380   4.484   0.271 -0.5790 -0.4320 -0.2118
  822MOL0     H10938  14.378   4.344   0.045  0.3585 -0.0850  0.1457
  822MOL0     H10939  14.447   4.479  -0.029 -1.0509 -0.3234  0.2557
  822MOL0     H10940  14.626   4.328   0.040  1.2782  0.9781  0.2149
  822MOL0     H10941  14.564   4.348   0.209 -4.3298  0.1046 -1.2024
  822MOL0     H10942  14.779   4.486   0.154 -0.2205 -1.1697 -1.7218
  822MOL0     H10943  14.639   4.585   0.208  2.6159 -0.3874  1.5918
  822MOL0     H10944  14.601   4.662  -0.007  1.0970  3.0030  1.2818
  822MOL0     H10945  14.769   4.687   0.038  1.5917 -2.1466  0.7524
  822MOL0     H10946  14.757   4.610  -0.214 -1.3759  0.2901 -0.5496
  822MOL0     H10947  14.658   4.481  -0.161 -0.2549  0.1967  0.1188
  822MOL0     H10948  14.935   4.476  -0.194 -1.5118  0.8997 -0.5203
  822MOL0     H10949  14.920   4.491  -0.018 -0.8482  2.7105  0.2608
  822MOL0     H10950  13.998   4.660   0.469 -1.1207  1.2895  0.6581
  822MOL0     H10951  13.742   4.664   0.472 -1.7912  0.5358 -1.5200
  822MOL0     H10952  13.406   4.443   0.633  0.3166 -0.5145 -1.5095
  822MOL0     H10953  13.150   4.455   0.680 -1.0278 -1.1562 -0.6153
  822MOL0     H10954  11.416   5.382   0.055  0.8715 -1.2065  1.3153
  822MOL0     H10955  11.154   5.389   0.010  2.1037 -3.7973  0.4835
  822MOL0     H10956  10.682   5.631   0.024  0.3758 -0.4663 -1.7015
  822MOL0     H10957  10.465   5.557  -0.003  1.7438  1.3954 -0.8720
  822MOL0     H10958  10.262   5.452  -0.070 -1.3255  2.0336  1.7459
  822MOL0     H10959  10.298   5.480   0.096 -1.4114 -0.0944  1.0099
  822MOL0     H10960  10.167   5.263   0.162  0.2194  1.5451  0.8622
  822MOL0     H10961  10.129   5.234  -0.006 -1.9956 -0.4449  2.2315
  822MOL0     H10962  10.000   5.450  -0.016  0.1241 -0.7566 -0.5313
  822MOL0     H10963  10.046   5.501   0.140  1.3154  0.3877 -2.3078
  822MOL0     H10964   9.897   5.246   0.073  1.4339 -0.1181 -0.2972
  822MOL0     H10965   9.937   5.297   0.242  0.2744 -2.0985 -0.9737
  822MOL0     H10966   9.593   5.521   0.189  1.4681  1.4800  2.1597
  822MOL0     H10967  10.579   5.162   0.088 -2.7596  0.8722  2.2223
  822MOL0     H10968  10.941   5.238   0.099  0.5129  0.6078 -0.0874
  822MOL0     H10969  10.860   5.216   0.257 -0.3516  1.6999 -0.1604
  822MOL0     H10970  10.814   5.112   0.124 -0.9199  0.1536  0.5668
  823MOL0     O10971   5.829  10.645  10.008 -0.0978  0.6983  0.3826
  823MOL0     C10972   5.742  10.568   9.976 -0.2435 -0.5248  0.6179
  823MOL0     O10973   5.757  10.474   9.879 -0.4923  0.5362 -0.4406
  823MOL0     C10974   5.875  10.435   9.824  0.8586  0.2768 -0.3771
  823MOL0     C10975   5.884  10.382   9.696 -1.0397  0.4803  0.8024
  823MOL0     C10976   6.005  10.320   9.660  0.1314 -0.3079 -0.3919
  823MOL0     C10977   6.113  10.307   9.747 -0.9728  0.3700 -0.8366
  823MOL0     O10978   6.236  10.241   9.706  0.1190  0.9061 -0.0175
  823MOL0     C10979   6.335  10.337   9.682 -0.0591 -1.1953 -0.4729
  823MOL0     C10980   6.466  10.260   9.647 -0.4059  0.6810 -0.3315
  823MOL0     C10981   6.590  10.347   9.654 -0.4239 -1.1924  0.9449
  823MOL0     C10982   6.674  10.342   9.528 -0.4336  0.3044  1.2148
  823MOL0     C10983   6.778  10.455   9.527  0.3109  0.2654 -0.4209
  823MOL0     C10984   6.872  10.427   9.414  0.1282 -0.2241  0.9038
  823MOL0     C10985   6.983  10.530   9.425 -0.1429 -0.2426 -0.2186
  823MOL0     C10986   7.101  10.477   9.349  0.4631  0.0289 -0.6032
  823MOL0     N10987   7.222  10.562   9.367 -0.0692  0.5113  0.5375
  823MOL0     C10988   7.352  10.525   9.338 -0.3796 -0.5748 -0.0760
  823MOL0     C10989   7.422  10.635   9.325 -0.4539 -0.3897 -0.3266
  823MOL0     C10990   7.576  10.664   9.286  1.3707  0.2222  0.4376
  823MOL0     C10991   7.667  10.708   9.401 -1.1196 -0.7107 -0.6134
  823MOL0     C10992   7.796  10.769   9.352 -0.3994  0.3934 -0.6921
  823MOL0     C10993   7.891  10.805   9.464  0.0273  0.2838 -0.8717
  823MOL0     O10994   7.980  10.899   9.408  0.3541 -0.3002 -0.4748
  823MOL0     C10995   8.088  10.938   9.495  0.4552 -0.3308  0.3059
  823MOL0     C10996   8.211  10.986   9.441 -0.2439  0.3458  0.4740
  823MOL0     C10997   8.310  11.029   9.531 -0.7760 -0.6027 -0.6688
  823MOL0     C10998   8.288  11.029   9.673  0.9623  0.1785  0.4976
  823MOL0     C10999   8.395  11.065   9.769  0.7804  0.7365  0.9589
  823MOL0     O11000   8.520  11.089   9.721  1.1648  0.6037 -0.3287
  823MOL0     C11001   8.616  11.141   9.805  0.0499  0.1178  0.1741
  823MOL0     C11002   8.672  11.268   9.771 -0.1361  0.0118  0.9028
  823MOL0     C11003   8.789  11.307   9.828  0.5887 -0.5737  0.0500
  823MOL0     C11004   8.849  11.225   9.928 -0.4020 -0.7538 -0.1349
  823MOL0     O11005   8.971  11.267   9.980 -0.5690 -0.3353 -0.0077
  823MOL0     C11006   9.036  11.164  10.064 -0.1619  0.6737  0.5973
  823MOL0     C11007   9.178  11.216  10.087 -0.0329  0.3178  0.2846
  823MOL0     C11008   9.273  11.216   9.958  0.1691 -0.0359 -0.3474
  823MOL0     C11009   9.421  11.219   9.995  0.1495 -0.4218 -0.3417
  823MOL0     C11010   9.497  11.265   9.870  0.4343 -0.0911  1.1845
  823MOL0     C11011   9.645  11.237   9.885  0.4429 -0.3483 -0.2320
  823MOL0     C11012   9.728  11.307   9.777 -0.1294 -0.8310 -0.2142
  823MOL0     C11013   9.875  11.310   9.824 -0.6530  0.0405 -0.2164
  823MOL0    Cl11014   9.901  11.418   9.962 -0.1044 -0.2398 -0.0252
  823MOL0     C11015   8.769  11.116   9.976 -0.5143  0.2004 -0.1720
  823MOL0     C11016   8.666  11.076   9.911  0.3097  0.6678 -0.3681
  823MOL0     O11017   8.356  11.076   9.887 -0.6855 -0.5524 -0.3295
  823MOL0     C11018   8.166  10.979   9.722  0.5657  0.1488 -0.6258
  823MOL0     C11019   8.073  10.926   9.635 -0.2616 -0.1215 -1.3381
  823MOL0     N11020   7.342  10.742   9.352  0.1274  0.0377 -0.0745
  823MOL0     N11021   7.223  10.698   9.377 -0.6181 -0.3256  0.3771
  823MOL0     C11022   6.105  10.358   9.878 -0.1929 -0.4859  1.1118
  823MOL0     C11023   5.991  10.429   9.913  0.1334 -1.2388  0.4893
  823MOL0     C11024   5.608  10.602  10.037  0.0198  0.9081  0.3604
  823MOL0     C11025   5.604  10.695  10.137 -0.8472 -0.0724 -0.3019
  823MOL0     C11026   5.483  10.722  10.204  0.9375  0.4281 -0.4238
  823MOL0     C11027   5.364  10.672  10.155  0.1775 -0.1839 -0.5759
  823MOL0     O11028   5.236  10.704  10.185  0.1388  0.0336 -0.6621
  823MOL0     C11029   5.197  10.770  10.309 -0.2936  0.1168  0.0327
  823MOL0     C11030   5.108  10.896  10.275 -1.2592 -0.3531  0.5910
  823MOL0     C11031   5.197  11.023  10.269 -0.4802  0.3814 -0.2034
  823MOL0     C11032   5.119  11.147  10.203 -0.4959  0.5479  0.5429
  823MOL0     C11033   5.091  11.131  10.061  0.0590  0.4233  0.5042
  823MOL0     C11034   5.067  11.104   9.943  0.3469 -0.1443  0.1058
  823MOL0     C11035   5.366  10.579  10.050 -0.0763  0.0105 -0.1875
  823MOL0     C11036   5.487  10.541   9.996 -1.3384 -0.6115  0.3939
  823MOL0     C11037   5.475  10.440   9.886  0.5117  0.9496  0.8347
  823MOL0     H11038   5.796  10.384   9.632 -0.9501 -2.4634  0.4629
  823MOL0     H11039   6.016  10.278   9.561  2.5681  0.3386 -0.4382
  823MOL0     H11040   6.302  10.412   9.609 -0.9255  0.3856  1.4482
  823MOL0     H11041   6.356  10.396   9.772  0.4769  0.7931 -1.8438
  823MOL0     H11042   6.441  10.207   9.554  0.0741  2.2949 -1.4388
  823MOL0     H11043   6.471  10.186   9.727 -2.1937 -1.2097 -1.8451
  823MOL0     H11044   6.654  10.312   9.736  0.1855  0.2584  1.1127
  823MOL0     H11045   6.554  10.449   9.673 -0.4544 -0.8581 -0.7737
  823MOL0     H11046   6.728  10.248   9.514  4.9371  2.9256  1.6723
  823MOL0     H11047   6.611  10.363   9.441  0.9534 -0.7741 -0.1089
  823MOL0     H11048   6.733  10.553   9.511  0.3661  0.6583  1.5617
  823MOL0     H11049   6.830  10.461   9.623  0.7535 -0.7428 -0.5855
  823MOL0     H11050   6.905  10.322   9.409  0.2617 -0.1421 -2.0958
  823MOL0     H11051   6.828  10.437   9.314 -1.5047 -2.2383  1.3461
  823MOL0     H11052   7.018  10.545   9.528 -1.5328  1.0608  0.0981
  823MOL0     H11053   6.959  10.632   9.392  0.5914  0.4724  1.3066
  823MOL0     H11054   7.131  10.378   9.384 -0.1170  0.1786  0.3541
  823MOL0     H11055   7.081  10.470   9.241 -2.6501  2.4144 -0.3466
  823MOL0     H11056   7.390  10.424   9.326 -0.9172 -1.1322  2.2630
  823MOL0     H11057   7.610  10.572   9.238 -1.3616 -0.4513 -0.3600
  823MOL0     H11058   7.575  10.724   9.195  2.9098 -1.5302 -0.8018
  823MOL0     H11059   7.605  10.777   9.460 -1.8301  0.1430 -2.3104
  823MOL0     H11060   7.677  10.620   9.465 -0.2299 -0.0653  0.1688
  823MOL0     H11061   7.781  10.857   9.289 -0.8785  0.9234  0.1397
  823MOL0     H11062   7.847  10.694   9.290  1.4084  1.5596 -0.6902
  823MOL0     H11063   7.942  10.716   9.503  1.0651  0.4935 -1.6975
  823MOL0     H11064   7.841  10.855   9.548  2.9167  0.9513  0.5933
  823MOL0     H11065   8.226  11.002   9.334  3.5119  1.3379  1.0177
  823MOL0     H11066   8.401  11.081   9.503 -1.7610  1.1621 -0.6927
  823MOL0     H11067   8.624  11.304   9.681  0.5027 -2.5090 -0.5464
  823MOL0     H11068   8.837  11.399   9.797  0.5613 -0.4785  0.2845
  823MOL0     H11069   8.995  11.140  10.162 -0.4743 -2.9314 -0.2895
  823MOL0     H11070   9.049  11.075  10.002 -0.5643  1.3164 -0.4490
  823MOL0     H11071   9.172  11.319  10.122  0.0563 -0.3511  2.4266
  823MOL0     H11072   9.236  11.161  10.162  5.9115  0.7056 -3.3352
  823MOL0     H11073   9.257  11.122   9.903 -0.9932  0.0557 -0.2027
  823MOL0     H11074   9.240  11.297   9.893  2.2619  0.9668 -0.2177
  823MOL0     H11075   9.450  11.120  10.031 -2.0377 -0.9301  0.1648
  823MOL0     H11076   9.421  11.298  10.070 -2.9215 -0.5846 -0.0439
  823MOL0     H11077   9.464  11.370   9.868 -0.9673 -0.5082 -0.7744
  823MOL0     H11078   9.463  11.236   9.771  2.2423  2.4198 -0.2903
  823MOL0     H11079   9.681  11.274   9.982  0.1636 -1.3269  0.2619
  823MOL0     H11080   9.660  11.129   9.885 -1.5354 -0.6723  0.8091
  823MOL0     H11081   9.703  11.413   9.768 -1.7131 -1.1698 -0.0530
  823MOL0     H11082   9.717  11.255   9.681 -1.1307  1.1686 -1.2360
  823MOL0     H11083   9.914  11.210   9.842  2.2521  0.8640 -1.3305
  823MOL0     H11084   9.924  11.354   9.736 -2.5878  0.8641 -0.9588
  823MOL0     H11085   8.800  11.050  10.056 -2.1925 -0.2911  0.1217
  823MOL0     H11086   8.600  10.996   9.943  1.1722  0.6493  1.4897
  823MOL0     H11087   8.129  10.978   9.825  1.1019 -1.4632 -0.4116
  823MOL0     H11088   7.980  10.889   9.679  0.0465  0.5609 -0.0596
  823MOL0     H11089   6.177  10.338   9.957 -0.0530 -0.5970  0.9563
  823MOL0     H11090   5.993  10.476  10.010  1.4460  4.0234 -1.7256
  823MOL0     H11091   5.690  10.752  10.169 -0.8273 -0.5472  0.5167
  823MOL0     H11092   5.486  10.798  10.282 -0.4435  2.5705 -2.3107
  823MOL0     H11093   5.287  10.793  10.366 -0.2820 -0.6911  0.3571
  823MOL0     H11094   5.149  10.692  10.369  0.2490 -1.3868 -1.3918
  823MOL0     H11095   5.030  10.897  10.352 -0.7454 -0.7596  1.1173
  823MOL0     H11096   5.075  10.891  10.170  0.6836 -1.3627 -0.0282
  823MOL0     H11097   5.276  11.007  10.195  2.6355  0.3867  2.8623
  823MOL0     H11098   5.248  11.035  10.366 -0.7248 -0.8293  0.0909
  823MOL0     H11099   5.020  11.161  10.249 -1.2510 -1.0307 -0.5432
  823MOL0     H11100   5.186  11.234  10.203 -1.0052  0.9804 -1.5782
  823MOL0     H11101   5.043  11.099   9.839  0.9460  2.6199 -0.2444
  823MOL0     H11102   5.275  10.533  10.013  0.3257 -2.6137  1.8313
  823MOL0     H11103   5.537  10.354   9.912  1.1689  1.0169 -0.4416
  823MOL0     H11104   5.371  10.416   9.860 -0.2049  2.1803  2.3965
  823MOL0     H11105   5.509  10.483   9.791 -2.4627  0.6117 -0.4887
  824MOL0     O11106   1.856   7.391  11.312 -1.4624  0.4014 -0.3627
  824MOL0     C11107   1.873   7.457  11.211  0.0534 -0.9170  0.7471
  824MOL0     O11108   1.987   7.508  11.163  0.1338 -0.0544  0.1114
  824MOL0     C11109   2.107   7.468  11.213  0.8358 -0.1503 -0.1473
  824MOL0     C11110   2.171   7.350  11.180  0.0488  0.0333  0.2419
  824MOL0     C11111   2.291   7.307  11.234  0.1297  0.4537 -0.3359
  824MOL0     C11112   2.349   7.376  11.340 -0.1135 -0.4493  0.5197
  824MOL0     O11113   2.467   7.338  11.394 -0.9012  0.6631 -0.3999
  824MOL0     C11114   2.573   7.293  11.296  0.2432 -0.3011  0.0245
  824MOL0     C11115   2.719   7.322  11.351 -0.0476  0.8427 -0.9707
  824MOL0     C11116   2.765   7.199  11.434 -0.3818 -0.6647  0.8372
  824MOL0     C11117   2.917   7.166  11.431 -0.9024 -1.1961  0.4942
  824MOL0     C11118   2.957   7.040  11.511  0.2258  0.1488 -0.3658
  824MOL0     C11119   3.067   7.082  11.613 -0.8730 -0.8683 -0.7217
  824MOL0     C11120   3.094   6.983  11.731  0.1781 -0.2444 -0.1672
  824MOL0     C11121   3.170   6.860  11.669 -0.9413  0.2641 -0.1907
  824MOL0     N11122   3.205   6.752  11.765  0.0503 -0.8439 -1.1593
  824MOL0     C11123   3.119   6.716  11.868 -0.0257  0.4937 -0.2750
  824MOL0     C11124   3.200   6.617  11.938 -0.1738  0.0247  0.7350
  824MOL0     C11125   3.169   6.536  12.057  0.0016 -0.0895  0.7435
  824MOL0     C11126   3.099   6.401  12.023  0.4072 -0.4028 -0.1042
  824MOL0     C11127   3.040   6.337  12.148 -0.2794 -1.1165 -1.0361
  824MOL0     C11128   2.993   6.194  12.135 -0.9231  0.3778  0.1907
  824MOL0     O11129   2.880   6.183  12.048  0.0846  0.0263  0.1134
  824MOL0     C11130   2.753   6.141  12.081  0.6182  0.7945 -0.7382
  824MOL0     C11131   2.704   6.126  12.210  0.3158 -0.5661 -0.0110
  824MOL0     C11132   2.577   6.078  12.238 -1.0974  0.0654 -1.1877
  824MOL0     C11133   2.500   6.032  12.138  0.6681  0.8837 -0.2591
  824MOL0     C11134   2.372   5.959  12.160 -0.7020 -0.0696  0.4981
  824MOL0     O11135   2.339   5.883  12.049  0.7295 -0.1637 -0.5353
  824MOL0     C11136   2.213   5.842  12.025  0.0188 -0.4823 -0.6259
  824MOL0     C11137   2.135   5.901  11.924 -0.4698  0.7728 -0.4827
  824MOL0     C11138   2.006   5.845  11.909  0.1617  0.5290  0.0372
  824MOL0     C11139   1.947   5.751  11.992 -0.7346  0.0037 -0.1015
  824MOL0     O11140   1.814   5.737  11.970  0.0872  0.5973 -0.1894
  824MOL0     C11141   1.746   5.651  12.061 -0.4212 -0.1113 -0.0243
  824MOL0     C11142   1.595   5.638  12.031 -0.8925  0.3390 -0.7172
  824MOL0     C11143   1.531   5.524  12.106 -0.3959 -0.1601  0.2432
  824MOL0     C11144   1.392   5.473  12.054  0.3160 -0.1703  0.5787
  824MOL0     C11145   1.354   5.358  12.136  0.6470 -0.2083  0.1599
  824MOL0     C11146   1.330   5.391  12.290  0.3842 -0.1218 -0.0252
  824MOL0     C11147   1.241   5.290  12.372 -0.4220 -0.2309 -0.0435
  824MOL0     C11148   1.098   5.328  12.343  0.3768 -0.2236  0.4800
  824MOL0    Cl11149   0.974   5.227  12.440  0.5424  0.1710 -0.6075
  824MOL0     C11150   2.026   5.693  12.095 -0.4603 -0.5535 -0.1245
  824MOL0     C11151   2.163   5.746  12.103  0.6858 -0.6964  0.9097
  824MOL0     O11152   2.308   5.985  12.258 -0.2420 -0.5653 -0.0232
  824MOL0     C11153   2.552   6.042  12.005  0.0071 -0.9615 -0.3415
  824MOL0     C11154   2.672   6.102  11.976  0.2172  1.3576 -0.2085
  824MOL0     N11155   3.317   6.615  11.870 -0.4200  0.0246  0.1518
  824MOL0     N11156   3.325   6.687  11.767  0.7622  0.2424 -0.0420
  824MOL0     C11157   2.280   7.491  11.389  0.2387  0.1466  0.1229
  824MOL0     C11158   2.167   7.540  11.316 -0.6453  0.8369 -0.3991
  824MOL0     C11159   1.746   7.513  11.150 -0.6652  0.4474  0.4500
  824MOL0     C11160   1.757   7.537  11.010 -0.1020 -0.0712 -0.1276
  824MOL0     C11161   1.649   7.598  10.941  0.5047  1.0040 -0.2701
  824MOL0     C11162   1.532   7.621  11.002  0.3020 -0.8873 -0.3531
  824MOL0     O11163   1.432   7.669  10.920 -0.1473 -0.0392  0.2824
  824MOL0     C11164   1.377   7.796  10.962 -0.2304 -0.3166 -0.1066
  824MOL0     C11165   1.254   7.830  10.888 -0.6908  0.1935  0.4233
  824MOL0     C11166   1.195   7.963  10.932 -0.0339 -0.8176  0.5415
  824MOL0     C11167   1.065   7.980  10.854  0.8069 -0.2392 -0.6897
  824MOL0     C11168   0.960   7.873  10.882 -0.0352 -0.1504  0.4543
  824MOL0     C11169   0.878   7.784  10.894 -0.3820  0.5175 -0.0529
  824MOL0     C11170   1.523   7.598  11.139 -0.9127  0.4485 -0.1816
  824MOL0     C11171   1.633   7.545  11.215 -0.7376  0.6920 -0.1655
  824MOL0     C11172   1.607   7.545  11.360  0.5906 -0.0007 -0.6069
  824MOL0     H11173   2.116   7.300  11.100  1.3633 -0.3139 -0.4785
  824MOL0     H11174   2.332   7.210  11.207 -1.1568 -1.0020  2.4938
  824MOL0     H11175   2.559   7.191  11.260  0.3573  0.0627 -1.0847
  824MOL0     H11176   2.552   7.355  11.208 -1.2721 -1.2865 -0.3490
  824MOL0     H11177   2.706   7.401  11.427 -3.6851 -2.5044  2.3648
  824MOL0     H11178   2.785   7.350  11.268  0.2509  0.0556 -1.0054
  824MOL0     H11179   2.703   7.113  11.406 -3.2744  2.3419 -3.2698
  824MOL0     H11180   2.743   7.205  11.540 -0.2737 -3.3675  1.0857
  824MOL0     H11181   2.951   7.147  11.328  2.9984 -0.4955  1.5009
  824MOL0     H11182   2.969   7.255  11.466  0.2782 -0.4532 -2.7865
  824MOL0     H11183   2.869   7.005  11.565 -0.6575  0.5310 -1.5376
  824MOL0     H11184   2.984   6.967  11.435 -0.6789  0.2530 -0.7885
  824MOL0     H11185   3.167   7.110  11.579 -0.8626 -0.8252 -0.6583
  824MOL0     H11186   3.036   7.173  11.666  0.8416 -0.1200 -0.9535
  824MOL0     H11187   2.992   6.961  11.763 -0.8189  3.8666  0.0444
  824MOL0     H11188   3.137   7.029  11.820  0.7209  1.1220 -1.1090
  824MOL0     H11189   3.106   6.810  11.595  0.0596 -2.2683  0.5463
  824MOL0     H11190   3.257   6.896  11.614 -1.8343  1.3293 -0.9666
  824MOL0     H11191   3.023   6.744  11.909  0.6232 -0.1765  1.8382
  824MOL0     H11192   3.259   6.508  12.113  0.1597 -0.6641  0.2131
  824MOL0     H11193   3.105   6.593  12.125 -0.0278  2.1090 -1.0344
  824MOL0     H11194   3.015   6.432  11.961 -0.5497  0.4093  1.5217
  824MOL0     H11195   3.170   6.332  11.975 -0.9034 -0.6887 -1.7195
  824MOL0     H11196   2.956   6.395  12.186  0.9650 -0.1352  0.3561
  824MOL0     H11197   3.118   6.336  12.225 -0.9062  1.7618 -0.2360
  824MOL0     H11198   2.976   6.151  12.234  1.6665  0.8366  0.9178
  824MOL0     H11199   3.080   6.137  12.103  0.8547  2.5061  0.9322
  824MOL0     H11200   2.768   6.160  12.290 -2.6157  1.4393  1.6491
  824MOL0     H11201   2.547   6.050  12.339  0.1432  0.2593 -0.7399
  824MOL0     H11202   2.159   5.975  11.848 -1.4131  0.7650 -0.7956
  824MOL0     H11203   1.957   5.867  11.815 -0.7483  0.2182  0.4353
  824MOL0     H11204   1.791   5.552  12.046 -0.2249 -0.2834  1.5374
  824MOL0     H11205   1.756   5.672  12.167 -0.8870 -1.0373  0.2158
  824MOL0     H11206   1.548   5.735  12.053  2.5343  2.2121 -0.9749
  824MOL0     H11207   1.578   5.613  11.926 -2.2398 -0.0540 -0.4262
  824MOL0     H11208   1.603   5.442  12.108 -0.0207 -0.0292 -2.8859
  824MOL0     H11209   1.519   5.555  12.210  1.0385 -1.6135  0.8846
  824MOL0     H11210   1.403   5.443  11.950  1.4360 -1.2437  0.9708
  824MOL0     H11211   1.311   5.545  12.065  0.4069 -0.1181  0.9516
  824MOL0     H11212   1.436   5.286  12.124 -1.0708 -2.3842  0.8733
  824MOL0     H11213   1.260   5.317  12.096  1.8097 -1.6650 -1.2524
  824MOL0     H11214   1.429   5.411  12.332 -0.1611  3.3009 -0.0943
  824MOL0     H11215   1.281   5.488  12.279  0.1470 -0.3601 -1.1898
  824MOL0     H11216   1.259   5.296  12.479  3.4721  0.0826 -0.5666
  824MOL0     H11217   1.272   5.191  12.336  1.6533  0.5967 -0.6671
  824MOL0     H11218   1.088   5.435  12.360 -0.1639  0.2797 -2.5694
  824MOL0     H11219   1.090   5.319  12.235 -1.1346 -1.2680  0.6515
  824MOL0     H11220   2.002   5.622  12.173  2.6244 -1.8330 -0.2134
  824MOL0     H11221   2.234   5.714  12.178 -0.2866 -0.7399  1.8329
  824MOL0     H11222   2.507   6.006  11.913 -0.9668  1.5392 -0.9132
  824MOL0     H11223   2.714   6.109  11.876 -2.3254 -2.5026 -1.8285
  824MOL0     H11224   2.318   7.549  11.473 -2.6464  0.1866  1.5428
  824MOL0     H11225   2.131   7.631  11.363 -0.8428 -0.6344  2.4804
  824MOL0     H11226   1.853   7.532  10.961  0.0969 -2.8316  0.3704
  824MOL0     H11227   1.671   7.612  10.836 -0.4181  0.1465 -0.5949
  824MOL0     H11228   1.451   7.873  10.936 -1.2475  1.3619  1.7126
  824MOL0     H11229   1.359   7.807  11.069  0.6990 -1.7406  0.2231
  824MOL0     H11230   1.190   7.748  10.921  0.5070 -0.1990  1.8973
  824MOL0     H11231   1.262   7.822  10.780 -0.1956  0.8291  0.4080
  824MOL0     H11232   1.274   8.039  10.931  2.5337 -3.2510 -2.4824
  824MOL0     H11233   1.163   7.955  11.037  0.4561 -0.2570  0.7375
  824MOL0     H11234   1.016   8.071  10.891  1.3288 -1.1947  2.6628
  824MOL0     H11235   1.080   7.991  10.746 -0.2281  1.4783 -0.7025
  824MOL0     H11236   0.800   7.712  10.882  1.6769 -1.6817 -0.7783
  824MOL0     H11237   1.435   7.635  11.191 -2.0357 -0.1485 -1.5986
  824MOL0     H11238   1.516   7.603  11.379 -2.4974 -4.3655 -0.3030
  824MOL0     H11239   1.591   7.438  11.380  2.0874 -0.3357 -1.0954
  824MOL0     H11240   1.689   7.570  11.427  1.0063 -3.4690  0.3840
  825MOL0     O11241   2.370   4.735   0.846  0.2889 -0.2670 -0.2626
  825MOL0     C11242   2.298   4.822   0.899 -0.6192  0.5956  0.9170
  825MOL0     O11243   2.344   4.951   0.918 -0.2962  1.1700 -0.1843
  825MOL0     C11244   2.440   4.996   0.842  0.2403  0.1812 -0.4135
  825MOL0     C11245   2.439   4.999   0.703  0.6757  0.2320  0.3560
  825MOL0     C11246   2.543   5.071   0.636  0.3822 -0.3469 -0.0189
  825MOL0     C11247   2.634   5.147   0.707  0.3064 -0.6267 -0.0309
  825MOL0     O11248   2.727   5.231   0.649 -0.1178  0.1416  0.1969
  825MOL0     C11249   2.676   5.318   0.550  0.2863  0.5634  0.8615
  825MOL0     C11250   2.754   5.286   0.421  0.5475  0.6186 -0.3508
  825MOL0     C11251   2.896   5.341   0.444 -0.4777  0.0138  0.2906
  825MOL0     C11252   2.960   5.368   0.305  0.2489 -0.3779  0.1058
  825MOL0     C11253   3.104   5.420   0.317 -0.5739  1.2646 -0.4703
  825MOL0     C11254   3.160   5.427   0.182 -0.0961  0.7349  0.0918
  825MOL0     C11255   3.305   5.472   0.173 -0.4562 -0.0848  0.4906
  825MOL0     C11256   3.354   5.618   0.219 -0.2602 -0.6129  0.5335
  825MOL0     N11257   3.475   5.626   0.285  0.4976 -0.3565 -0.5481
  825MOL0     C11258   3.600   5.614   0.243  0.0702  0.5642 -0.7005
  825MOL0     C11259   3.680   5.603   0.349  0.0409 -0.6019 -0.3059
  825MOL0     C11260   3.821   5.572   0.340  0.3881 -0.4812 -0.7215
  825MOL0     C11261   3.832   5.421   0.344 -0.9048  1.3063  0.0498
  825MOL0     C11262   3.772   5.342   0.465  0.2555  0.4181 -0.5329
  825MOL0     C11263   3.861   5.358   0.590  0.5949 -0.2001 -0.9550
  825MOL0     O11264   3.972   5.258   0.583 -0.0384  0.7137 -0.0836
  825MOL0     C11265   4.065   5.254   0.680  0.4377 -0.2257  1.3171
  825MOL0     C11266   4.040   5.287   0.808  0.1006 -0.7875 -0.0239
  825MOL0     C11267   4.141   5.270   0.909 -0.1626 -0.0571  0.4136
  825MOL0     C11268   4.269   5.224   0.877  0.1642 -0.4648 -0.6512
  825MOL0     C11269   4.368   5.199   0.977 -0.0300  0.7756  0.6001
  825MOL0     O11270   4.482   5.154   0.922 -0.1182  0.6153  0.5231
  825MOL0     C11271   4.599   5.128   0.992  0.9518 -0.2022 -0.1708
  825MOL0     C11272   4.715   5.144   0.919 -0.6620  0.3485 -0.4934
  825MOL0     C11273   4.835   5.131   0.978 -0.2385 -1.3416  0.1596
  825MOL0     C11274   4.850   5.104   1.119  0.1898 -0.3565  0.0927
  825MOL0     O11275   4.973   5.112   1.186 -0.3967  0.5807 -0.2083
  825MOL0     C11276   5.088   5.113   1.095  0.6794 -0.1860 -0.3854
  825MOL0     C11277   5.219   5.104   1.183 -0.4205  0.5986  0.5404
  825MOL0     C11278   5.359   5.101   1.098  0.5548  0.8060 -0.3829
  825MOL0     C11279   5.475   5.131   1.194 -0.4358  1.0291  1.1937
  825MOL0     C11280   5.607   5.116   1.123  0.3220 -0.1099  0.4430
  825MOL0     C11281   5.732   5.115   1.213  0.3261  0.6386  0.0901
  825MOL0     C11282   5.857   5.108   1.131 -0.2141 -0.4807 -0.3541
  825MOL0     C11283   5.956   5.124   1.241 -0.4769  0.2519  0.8409
  825MOL0    Cl11284   6.122   5.105   1.167  0.5010  0.1581 -0.2055
  825MOL0     C11285   4.730   5.084   1.193  0.3604  0.2469  0.5825
  825MOL0     C11286   4.605   5.097   1.131  0.0608  1.6519  1.0052
  825MOL0     O11287   4.353   5.222   1.094  0.0982 -0.5499  0.0642
  825MOL0     C11288   4.295   5.186   0.741 -0.0627  0.1921  0.6864
  825MOL0     C11289   4.188   5.188   0.650  0.0599 -0.7203  0.2189
  825MOL0     N11290   3.609   5.632   0.462  0.1253  0.0776 -0.8190
  825MOL0     N11291   3.481   5.638   0.426 -1.2573 -0.3402 -0.2402
  825MOL0     C11292   2.631   5.148   0.846  0.2812  0.7238  0.3246
  825MOL0     C11293   2.532   5.069   0.907  0.3181  0.2142 -0.0095
  825MOL0     C11294   2.166   4.782   0.945  0.3745  0.0106 -0.6776
  825MOL0     C11295   2.097   4.681   0.876 -0.2645 -0.9948 -0.2353
  825MOL0     C11296   1.966   4.648   0.913 -0.0307 -0.3648 -0.0995
  825MOL0     C11297   1.894   4.720   1.021 -0.2187  0.6681  0.0852
  825MOL0     O11298   1.762   4.682   1.042 -0.4633 -0.2168  0.5987
  825MOL0     C11299   1.706   4.733   1.162  0.1290 -0.5919  0.5862
  825MOL0     C11300   1.567   4.672   1.183  0.7349 -0.1260 -0.1137
  825MOL0     C11301   1.494   4.714   1.304 -0.3984  0.1232 -0.6062
  825MOL0     C11302   1.417   4.600   1.369  0.7298 -0.8662 -0.9055
  825MOL0     C11303   1.345   4.661   1.481  1.3199 -0.5334  0.5228
  825MOL0     C11304   1.290   4.715   1.575  0.3505 -0.1029 -0.0528
  825MOL0     C11305   1.965   4.817   1.084  0.8111 -0.1868 -0.1349
  825MOL0     C11306   2.090   4.861   1.039 -0.5621  0.1728  0.2331
  825MOL0     C11307   2.146   4.976   1.116 -0.6809 -0.4877  0.0111
  825MOL0     H11308   2.371   4.933   0.651 -1.2936  1.4374  1.2998
  825MOL0     H11309   2.545   5.077   0.527  0.5499 -1.5362 -0.0974
  825MOL0     H11310   2.571   5.301   0.528  0.4278  1.2722 -0.4957
  825MOL0     H11311   2.699   5.422   0.573 -1.1232  0.9870  0.4597
  825MOL0     H11312   2.714   5.347   0.339 -0.5667  0.8706  0.3423
  825MOL0     H11313   2.750   5.181   0.391  1.4742 -0.5275  3.1005
  825MOL0     H11314   2.960   5.269   0.496  0.0976  0.5474  0.3227
  825MOL0     H11315   2.899   5.428   0.510  1.5147  1.1323 -1.1562
  825MOL0     H11316   2.965   5.273   0.251 -0.0718 -0.9734  1.0801
  825MOL0     H11317   2.889   5.430   0.249  0.9903  1.6878  1.3539
  825MOL0     H11318   3.097   5.520   0.361 -0.8548 -0.2292  3.2262
  825MOL0     H11319   3.165   5.360   0.386 -0.8114  0.3776 -1.0085
  825MOL0     H11320   3.148   5.324   0.146 -0.8748  0.6354  0.6232
  825MOL0     H11321   3.100   5.487   0.114 -1.8493  0.6951  1.5324
  825MOL0     H11322   3.332   5.467   0.068  1.8643 -1.8920  1.0991
  825MOL0     H11323   3.370   5.403   0.227 -3.0625 -2.7508  0.4806
  825MOL0     H11324   3.368   5.676   0.127  1.4799  0.2079  1.2763
  825MOL0     H11325   3.277   5.668   0.280  0.0364 -0.2466  0.6127
  825MOL0     H11326   3.637   5.604   0.141 -0.7141  2.5824 -1.2380
  825MOL0     H11327   3.864   5.601   0.243 -0.7862 -1.5770 -1.6016
  825MOL0     H11328   3.874   5.620   0.423 -2.1699 -0.4660  0.9996
  825MOL0     H11329   3.778   5.375   0.260  0.8445 -0.1119 -0.3649
  825MOL0     H11330   3.939   5.401   0.331 -1.1047  0.4441 -0.3738
  825MOL0     H11331   3.776   5.236   0.438  1.6363  0.6784 -1.4565
  825MOL0     H11332   3.667   5.358   0.490  0.4757 -1.7171  2.1363
  825MOL0     H11333   3.799   5.331   0.676 -0.2831 -1.2516 -1.8805
  825MOL0     H11334   3.882   5.465   0.599 -0.9233 -0.0027  1.1298
  825MOL0     H11335   3.940   5.319   0.836 -0.1169 -0.0082 -1.5478
  825MOL0     H11336   4.110   5.291   1.011  0.2722  0.7572  0.3937
  825MOL0     H11337   4.702   5.174   0.815 -2.7028  0.0159 -0.3814
  825MOL0     H11338   4.918   5.163   0.916 -0.9560  2.0621  0.7533
  825MOL0     H11339   5.088   5.025   1.031  0.6165  1.5587 -2.9568
  825MOL0     H11340   5.103   5.210   1.046 -0.9014  2.0980  3.2029
  825MOL0     H11341   5.229   5.189   1.251 -1.0379  0.3865  0.9044
  825MOL0     H11342   5.216   5.010   1.238  1.8502  0.5769  0.7040
  825MOL0     H11343   5.369   5.001   1.056  1.1634  0.7782 -0.1737
  825MOL0     H11344   5.358   5.176   1.018 -0.6047  0.6042 -0.5716
  825MOL0     H11345   5.463   5.062   1.278 -0.4767  0.5479  0.7979
  825MOL0     H11346   5.457   5.230   1.235 -2.4060  0.2960  2.2118
  825MOL0     H11347   5.612   5.200   1.052 -3.6815 -0.1635 -0.1276
  825MOL0     H11348   5.616   5.018   1.075 -1.7527  0.0288 -0.3017
  825MOL0     H11349   5.725   5.213   1.260  2.3328  1.4925 -1.2306
  825MOL0     H11350   5.722   5.036   1.288 -1.8030 -1.3495 -2.0962
  825MOL0     H11351   5.873   5.182   1.053 -0.2384 -0.8358 -0.6976
  825MOL0     H11352   5.867   5.010   1.083  0.2153 -2.1864  2.9155
  825MOL0     H11353   5.937   5.221   1.287  0.1887  0.5548  0.4965
  825MOL0     H11354   5.943   5.051   1.321 -1.2826 -0.2070  0.3031
  825MOL0     H11355   4.728   5.051   1.296  1.3715 -1.2283  0.1629
  825MOL0     H11356   4.522   5.069   1.194  0.1091  1.0759  0.8173
  825MOL0     H11357   4.385   5.139   0.702 -0.5089  1.1115 -1.6293
  825MOL0     H11358   4.213   5.151   0.551  0.7350 -0.1998  0.1831
  825MOL0     H11359   2.712   5.200   0.896 -0.0606  0.6752  0.9407
  825MOL0     H11360   2.513   5.073   1.014 -0.0861 -0.2741 -0.0591
  825MOL0     H11361   2.154   4.624   0.803 -2.7597 -1.4828 -1.9625
  825MOL0     H11362   1.905   4.576   0.859  0.1731  1.0402 -2.3705
  825MOL0     H11363   1.706   4.843   1.163 -1.3231 -0.5439 -0.7223
  825MOL0     H11364   1.770   4.693   1.241 -0.9314 -4.5511 -0.3635
  825MOL0     H11365   1.574   4.563   1.178  1.2459 -0.3492  3.2732
  825MOL0     H11366   1.511   4.699   1.093 -0.4002  0.4958  0.7451
  825MOL0     H11367   1.422   4.794   1.283 -1.2019  0.0261  1.5338
  825MOL0     H11368   1.575   4.754   1.365  0.6041 -0.0322 -1.8077
  825MOL0     H11369   1.349   4.546   1.302 -0.4442 -0.1147 -0.3378
  825MOL0     H11370   1.478   4.518   1.408 -1.2596 -1.6564  0.7453
  825MOL0     H11371   1.243   4.770   1.654  1.3604  0.9428 -0.1550
  825MOL0     H11372   1.927   4.875   1.167  2.3643  0.8021 -0.0779
  825MOL0     H11373   2.099   4.994   1.213  1.4902 -0.1588  1.0741
  825MOL0     H11374   2.247   4.943   1.145 -1.4583 -3.2578 -0.1035
  825MOL0     H11375   2.155   5.071   1.063  1.0538  0.5121  1.9442
  826MOL0     O11376   3.405   9.281   2.602  0.0510 -0.1124  0.6354
  826MOL0     C11377   3.370   9.358   2.688 -0.6708  0.4360  0.1392
  826MOL0     O11378   3.423   9.483   2.710 -1.0122 -0.4146 -0.1623
  826MOL0     C11379   3.522   9.544   2.639  0.6510  0.2175  0.3608
  826MOL0     C11380   3.610   9.623   2.711  0.1217 -0.0286 -0.0892
  826MOL0     C11381   3.726   9.676   2.642  0.2269 -0.4457  0.0643
  826MOL0     C11382   3.741   9.654   2.506 -0.2330 -0.4282  0.5052
  826MOL0     O11383   3.863   9.689   2.446  0.1599  0.2247  0.4671
  826MOL0     C11384   3.888   9.647   2.314 -0.0815  0.2032  0.0724
  826MOL0     C11385   4.019   9.680   2.245  0.4543 -0.2520  0.6409
  826MOL0     C11386   4.128   9.605   2.309 -1.0831 -0.3095 -0.0871
  826MOL0     C11387   4.263   9.670   2.284 -0.0538 -0.0378 -0.4724
  826MOL0     C11388   4.300   9.684   2.135 -0.1989 -0.0834 -0.3802
  826MOL0     C11389   4.294   9.541   2.077 -0.0762 -0.5041  0.3626
  826MOL0     C11390   4.389   9.519   1.969  0.1255 -0.5617  0.3413
  826MOL0     C11391   4.417   9.366   1.928  0.5413 -0.1743  0.8742
  826MOL0     N11392   4.486   9.380   1.792  0.4083  0.5837 -0.5451
  826MOL0     C11393   4.602   9.448   1.761  0.6735  0.4616 -0.8779
  826MOL0     C11394   4.604   9.449   1.627 -0.2262 -0.1750  0.6864
  826MOL0     C11395   4.704   9.514   1.543 -0.1276  0.0286 -0.2047
  826MOL0     C11396   4.830   9.430   1.551 -0.4065 -0.1688 -0.5248
  826MOL0     C11397   4.822   9.294   1.482  0.0461 -0.1605  0.2212
  826MOL0     C11398   4.953   9.228   1.465  0.5963  0.4902  0.4539
  826MOL0     O11399   5.012   9.201   1.592 -0.0577  0.0434  0.2506
  826MOL0     C11400   5.120   9.119   1.600  0.0627  0.6135  1.0276
  826MOL0     C11401   5.207   9.094   1.488 -0.2025  0.0368 -0.2416
  826MOL0     C11402   5.319   9.015   1.502 -1.2752 -0.1868 -0.8090
  826MOL0     C11403   5.353   8.953   1.623  0.2079 -0.0544  0.1715
  826MOL0     C11404   5.488   8.884   1.633  1.1792  0.4993  0.3139
  826MOL0     O11405   5.564   8.900   1.533  0.6792 -0.1847  0.0068
  826MOL0     C11406   5.687   8.831   1.527  0.1545 -0.5356  0.0556
  826MOL0     C11407   5.705   8.690   1.559  0.1985 -0.3530 -0.7740
  826MOL0     C11408   5.811   8.614   1.525  0.1458  0.0201  1.0198
  826MOL0     C11409   5.925   8.685   1.476 -0.5867  0.6604  0.3613
  826MOL0     O11410   6.046   8.615   1.436 -0.3438 -1.1623  0.1329
  826MOL0     C11411   6.074   8.485   1.487 -0.6918  0.1228 -0.5904
  826MOL0     C11412   6.206   8.449   1.412 -0.1118  0.0826 -0.4342
  826MOL0     C11413   6.235   8.298   1.431  0.0808 -0.0570 -0.3502
  826MOL0     C11414   6.374   8.247   1.371  0.0398 -0.1741 -0.6341
  826MOL0     C11415   6.373   8.098   1.348  0.1988 -0.6278 -0.4576
  826MOL0     C11416   6.345   8.007   1.464  0.8297  0.5644  0.5715
  826MOL0     C11417   6.381   7.862   1.430  0.1425  0.2823  0.4116
  826MOL0     C11418   6.311   7.762   1.519 -0.0651 -1.0679 -0.0515
  826MOL0    Cl11419   6.409   7.755   1.674 -0.0529 -0.1616 -0.1170
  826MOL0     C11420   5.919   8.822   1.446  0.3888 -0.0995 -0.1528
  826MOL0     C11421   5.798   8.896   1.467  0.0578  0.4076  0.5154
  826MOL0     O11422   5.507   8.805   1.723 -0.2868 -0.0270 -0.3133
  826MOL0     C11423   5.259   8.972   1.728 -1.3374  0.9408 -0.5562
  826MOL0     C11424   5.158   9.057   1.723  0.2243 -0.3310  0.1749
  826MOL0     N11425   4.494   9.377   1.578  0.9250  0.8493 -0.3596
  826MOL0     N11426   4.422   9.341   1.679 -0.0087 -0.0169  0.2815
  826MOL0     C11427   3.642   9.583   2.440 -0.3824  0.7215 -0.1394
  826MOL0     C11428   3.534   9.519   2.499 -0.6475 -0.1850 -0.3421
  826MOL0     C11429   3.251   9.344   2.772 -0.0888  0.3042 -0.7288
  826MOL0     C11430   3.196   9.456   2.848 -0.4128  0.4231  0.1781
  826MOL0     C11431   3.082   9.449   2.923  1.0752 -0.5754 -0.9483
  826MOL0     C11432   3.003   9.332   2.941 -0.0039 -0.7672  0.3149
  826MOL0     O11433   2.893   9.302   3.023 -0.2494 -0.5849 -0.1253
  826MOL0     C11434   2.831   9.419   3.085 -0.6048 -0.3698 -0.5914
  826MOL0     C11435   2.684   9.419   3.075  0.3510 -0.1341 -0.6184
  826MOL0     C11436   2.630   9.291   3.141  0.0419 -0.7632  0.8432
  826MOL0     C11437   2.474   9.283   3.148 -0.1450 -0.4679 -0.5897
  826MOL0     C11438   2.444   9.163   3.234  0.5739  0.0727  0.3145
  826MOL0     C11439   2.425   9.066   3.310 -0.3555 -0.4055 -0.3637
  826MOL0     C11440   3.044   9.223   2.860 -0.8975 -0.2894  0.2097
  826MOL0     C11441   3.169   9.226   2.782  0.2016  0.7449  0.4583
  826MOL0     C11442   3.218   9.100   2.715  0.5311  0.2122  0.0539
  826MOL0     H11443   3.586   9.664   2.809  0.6629  3.2824 -1.1943
  826MOL0     H11444   3.804   9.737   2.686 -0.3085 -1.1850  2.1570
  826MOL0     H11445   3.871   9.539   2.318 -0.1456  0.2138  0.0894
  826MOL0     H11446   3.805   9.689   2.257 -0.4863  0.6508  0.9632
  826MOL0     H11447   4.041   9.787   2.255 -1.6753  0.3282 -0.3007
  826MOL0     H11448   4.026   9.663   2.137  0.7198 -0.5299  0.7027
  826MOL0     H11449   4.119   9.501   2.276  0.4435 -0.4534 -0.1048
  826MOL0     H11450   4.112   9.600   2.417 -1.4859  2.2039  0.0265
  826MOL0     H11451   4.266   9.771   2.326  1.2886  0.5982 -2.0097
  826MOL0     H11452   4.340   9.615   2.339 -0.5797 -0.7196 -0.3976
  826MOL0     H11453   4.225   9.749   2.088  0.6092  1.0867 -0.0756
  826MOL0     H11454   4.394   9.739   2.126 -1.4307  2.3071  0.3356
  826MOL0     H11455   4.307   9.465   2.154  2.0395  0.2000  0.7826
  826MOL0     H11456   4.198   9.516   2.030  1.2350  2.0188 -4.3392
  826MOL0     H11457   4.481   9.578   1.983 -1.0426  2.1967 -2.5475
  826MOL0     H11458   4.345   9.571   1.884 -0.9822  2.7964  2.7655
  826MOL0     H11459   4.485   9.320   2.000 -1.3558 -0.5217  2.5297
  826MOL0     H11460   4.323   9.312   1.916  0.4266 -0.0730  1.3230
  826MOL0     H11461   4.678   9.492   1.825 -0.5042 -0.5683  1.3503
  826MOL0     H11462   4.662   9.522   1.442 -0.8487 -2.0783 -0.1377
  826MOL0     H11463   4.714   9.612   1.590 -1.3045 -0.9003  2.1237
  826MOL0     H11464   4.909   9.489   1.502 -0.1090  0.2775  0.4818
  826MOL0     H11465   4.868   9.422   1.653 -0.7190 -1.9274 -0.5081
  826MOL0     H11466   4.767   9.279   1.388  1.3557 -1.7664 -0.3364
  826MOL0     H11467   4.761   9.237   1.552 -0.1256 -0.4415 -0.1516
  826MOL0     H11468   5.017   9.291   1.401 -0.6005  1.2622 -0.0076
  826MOL0     H11469   4.931   9.138   1.406 -1.5319  1.2379  0.0250
  826MOL0     H11470   5.205   9.144   1.392  2.9004 -2.2084 -1.6452
  826MOL0     H11471   5.381   9.006   1.413 -0.0071 -3.5108  0.2559
  826MOL0     H11472   5.609   8.647   1.585  0.8322 -0.8488  0.8595
  826MOL0     H11473   5.809   8.506   1.539  0.8965 -0.3324 -1.1328
  826MOL0     H11474   6.090   8.485   1.595 -1.6029  0.4163 -0.4512
  826MOL0     H11475   5.998   8.410   1.463 -1.7016  0.6955  0.6829
  826MOL0     H11476   6.214   8.469   1.305  0.9295  1.0538 -0.1956
  826MOL0     H11477   6.286   8.504   1.463 -1.4641  1.4332  0.3074
  826MOL0     H11478   6.220   8.266   1.535  1.1034 -0.4097 -0.2928
  826MOL0     H11479   6.162   8.248   1.367  1.7917 -2.0736 -0.8246
  826MOL0     H11480   6.455   8.279   1.438  2.9190 -2.6363 -2.6583
  826MOL0     H11481   6.396   8.294   1.274 -0.6239 -1.3345 -1.3676
  826MOL0     H11482   6.470   8.067   1.307  0.2559 -2.2666  0.7668
  826MOL0     H11483   6.297   8.078   1.272 -0.2293  0.3204 -0.2895
  826MOL0     H11484   6.411   8.032   1.547 -0.2283  1.3270  1.2134
  826MOL0     H11485   6.241   8.012   1.498  0.7264 -0.1980  0.3852
  826MOL0     H11486   6.490   7.853   1.436  0.0549 -1.4205  0.0458
  826MOL0     H11487   6.348   7.837   1.329 -1.0512 -3.9668  1.6628
  826MOL0     H11488   6.214   7.805   1.544  1.2343  2.5785 -0.6695
  826MOL0     H11489   6.310   7.663   1.473 -0.3306 -1.0203 -0.1474
  826MOL0     H11490   6.007   8.873   1.409 -0.1907 -0.3063 -1.8989
  826MOL0     H11491   5.784   9.001   1.446 -0.0042  0.2125 -0.5001
  826MOL0     H11492   5.294   8.923   1.819  0.6527  1.2670 -1.1150
  826MOL0     H11493   5.107   9.077   1.816  1.2553 -1.0529  0.9176
  826MOL0     H11494   3.646   9.568   2.333 -1.1242 -1.7585  0.1185
  826MOL0     H11495   3.462   9.465   2.438  0.4798 -0.6458 -1.3121
  826MOL0     H11496   3.253   9.549   2.845  0.1289  0.0624 -1.9744
  826MOL0     H11497   3.050   9.535   2.981 -1.0892 -3.6812  2.9909
  826MOL0     H11498   2.879   9.514   3.058  2.8396 -0.9467  2.6274
  826MOL0     H11499   2.852   9.418   3.193 -2.5301  0.5725 -0.1631
  826MOL0     H11500   2.649   9.425   2.972 -0.7539  2.2931 -0.1722
  826MOL0     H11501   2.652   9.500   3.141  2.6735 -2.5266  3.9369
  826MOL0     H11502   2.677   9.279   3.239  1.2749  0.9732  0.5088
  826MOL0     H11503   2.659   9.201   3.085  3.8968 -0.2878  1.7696
  826MOL0     H11504   2.423   9.360   3.206 -0.5653 -0.8107 -0.4934
  826MOL0     H11505   2.437   9.269   3.046 -0.2945  1.6106 -0.8710
  826MOL0     H11506   2.404   8.970   3.350  2.0921 -0.6017  0.5924
  826MOL0     H11507   2.992   9.128   2.863 -1.6391  0.0867 -0.3973
  826MOL0     H11508   3.324   9.099   2.740  0.1200 -2.4357  2.0917
  826MOL0     H11509   3.177   9.010   2.762  0.1063  1.0258  1.3092
  826MOL0     H11510   3.201   9.097   2.607  1.6265 -0.6291 -0.1124
  827MOL0     O11511   8.468   7.224  10.135  0.0478  0.5782 -0.5670
  827MOL0     C11512   8.410   7.325  10.163  0.5547  0.1230  0.4231
  827MOL0     O11513   8.287   7.363  10.115  0.4499 -0.4275 -0.0984
  827MOL0     C11514   8.218   7.261  10.062 -0.5848 -0.2391  0.4432
  827MOL0     C11515   8.128   7.206  10.142 -0.5089  0.3879 -0.0678
  827MOL0     C11516   8.037   7.108  10.086 -0.5076 -0.0061 -0.6647
  827MOL0     C11517   8.040   7.089   9.948  0.2405  0.0679 -0.3133
  827MOL0     O11518   7.968   6.980   9.905 -0.5697 -0.0813 -0.0822
  827MOL0     C11519   7.973   6.947   9.770 -0.6424  0.6363  0.1744
  827MOL0     C11520   7.842   6.869   9.745  0.9054 -0.0591 -0.1068
  827MOL0     C11521   7.834   6.827   9.594 -0.5619  0.3980 -0.6541
  827MOL0     C11522   7.689   6.786   9.562  0.8990 -0.7299  0.2633
  827MOL0     C11523   7.677   6.745   9.416  0.3897  0.4504  1.4806
  827MOL0     C11524   7.538   6.767   9.350 -0.2473 -0.8270 -0.4795
  827MOL0     C11525   7.532   6.689   9.224 -0.3782 -0.7661  0.3099
  827MOL0     C11526   7.399   6.721   9.138 -0.5864 -0.2146 -0.3503
  827MOL0     N11527   7.415   6.852   9.083  0.1326 -0.9841 -0.2255
  827MOL0     C11528   7.500   6.895   8.992 -0.5291  0.4512  0.3627
  827MOL0     C11529   7.454   7.013   8.953  0.9807 -0.4799  0.9169
  827MOL0     C11530   7.498   7.100   8.840  0.0227 -0.4647 -1.4985
  827MOL0     C11531   7.612   7.191   8.892  0.3752  0.4009 -1.0559
  827MOL0     C11532   7.661   7.291   8.790  0.1843 -0.1565 -0.2070
  827MOL0     C11533   7.715   7.217   8.666  0.0062  0.2633  0.7715
  827MOL0     O11534   7.806   7.110   8.694  0.2418 -0.0901  0.2083
  827MOL0     C11535   7.933   7.137   8.753  0.3007  0.1129  0.2537
  827MOL0     C11536   8.011   7.039   8.810 -0.0166  0.5267 -0.8279
  827MOL0     C11537   8.137   7.060   8.874  1.0894  0.0716  0.4706
  827MOL0     C11538   8.198   7.188   8.861 -0.4662  0.6387  0.4757
  827MOL0     C11539   8.330   7.204   8.931  0.1172 -0.6673  0.1322
  827MOL0     O11540   8.363   7.129   9.033  0.3399  0.2566 -0.1596
  827MOL0     C11541   8.495   7.138   9.067  0.6648 -0.2005 -0.0247
  827MOL0     C11542   8.577   7.037   9.014  0.3107 -0.2187 -0.6067
  827MOL0     C11543   8.715   7.046   9.025  0.1587 -0.2744  1.4339
  827MOL0     C11544   8.774   7.148   9.103  0.2987  0.7979  0.6142
  827MOL0     O11545   8.908   7.163   9.124 -0.3284  0.4955 -1.1132
  827MOL0     C11546   9.005   7.070   9.083 -0.6121 -0.2319  0.8682
  827MOL0     C11547   9.150   7.120   9.118  0.2405  0.3793  0.1213
  827MOL0     C11548   9.157   7.167   9.269  0.4130  0.1624 -0.1305
  827MOL0     C11549   9.302   7.209   9.303 -0.1658  0.5341 -0.1949
  827MOL0     C11550   9.307   7.282   9.438  0.2492  0.3753 -0.0723
  827MOL0     C11551   9.443   7.339   9.482 -1.0919  0.4984  0.4041
  827MOL0     C11552   9.554   7.252   9.540  1.0032  0.2734  1.3279
  827MOL0     C11553   9.695   7.326   9.533  0.3089  0.5876 -0.0406
  827MOL0    Cl11554   9.746   7.365   9.375  0.0017  0.4670  0.4342
  827MOL0     C11555   8.685   7.235   9.167 -0.9347  0.1140  0.3515
  827MOL0     C11556   8.551   7.242   9.140 -0.5068  0.4259 -0.2608
  827MOL0     O11557   8.399   7.290   8.876 -0.0040 -0.7398 -0.0968
  827MOL0     C11558   8.117   7.287   8.800 -0.8686  0.7763  1.0193
  827MOL0     C11559   7.987   7.261   8.761 -0.2937  0.1379 -0.3848
  827MOL0     N11560   7.348   7.039   9.034  0.0953  0.0778  0.2455
  827MOL0     N11561   7.322   6.944   9.106  0.1254  0.1233  0.4089
  827MOL0     C11562   8.135   7.155   9.869 -0.6880 -0.4368  0.4573
  827MOL0     C11563   8.217   7.242   9.923 -0.2597 -1.0979  0.0682
  827MOL0     C11564   8.492   7.427  10.231 -0.1654  0.3675  0.3055
  827MOL0     C11565   8.435   7.506  10.334 -0.3753  0.0822  0.2405
  827MOL0     C11566   8.516   7.595  10.413 -0.4447 -1.0517 -0.4259
  827MOL0     C11567   8.653   7.595  10.391  0.2945 -0.9523 -0.5225
  827MOL0     O11568   8.723   7.675  10.476 -0.2264 -0.8201 -0.1531
  827MOL0     C11569   8.742   7.615  10.609 -0.3800 -0.4528  0.5986
  827MOL0     C11570   8.842   7.686  10.696  0.5863  0.8485  0.2548
  827MOL0     C11571   8.982   7.670  10.641 -0.3570 -0.0323  0.4207
  827MOL0     C11572   9.106   7.736  10.718  0.3411  0.4105 -0.3398
  827MOL0     C11573   9.110   7.699  10.868  0.2821 -0.1437  0.8351
  827MOL0     C11574   9.130   7.666  10.984 -0.0376  0.0221 -0.4885
  827MOL0     C11575   8.702   7.544  10.271  0.3952  0.1019  0.2239
  827MOL0     C11576   8.617   7.459  10.189 -0.7743  0.2059 -0.6854
  827MOL0     C11577   8.683   7.409  10.066  0.1720  1.0726  0.1325
  827MOL0     H11578   8.110   7.219  10.248 -4.5425 -0.1745 -0.5100
  827MOL0     H11579   7.971   7.047  10.147 -1.0111 -0.3805 -1.5589
  827MOL0     H11580   7.975   7.036   9.706  1.1987  0.2870 -0.3075
  827MOL0     H11581   8.054   6.878   9.748 -3.9845 -2.4894 -3.7861
  827MOL0     H11582   7.755   6.924   9.783  1.3227  0.1154  0.6318
  827MOL0     H11583   7.870   6.786   9.811  0.2927  0.6802  1.1348
  827MOL0     H11584   7.898   6.740   9.580 -0.4376  0.0399  1.8102
  827MOL0     H11585   7.865   6.907   9.526  0.6495 -0.1663 -0.7782
  827MOL0     H11586   7.674   6.700   9.628  0.5567 -2.4382 -1.9279
  827MOL0     H11587   7.617   6.865   9.582 -1.9738 -2.1568 -3.4040
  827MOL0     H11588   7.752   6.804   9.362 -0.5476  0.2415 -0.1263
  827MOL0     H11589   7.689   6.636   9.412  0.2476  0.4527  0.7993
  827MOL0     H11590   7.450   6.740   9.410  0.0649 -4.5124 -1.4343
  827MOL0     H11591   7.532   6.874   9.329  1.6361 -0.3703  1.0103
  827MOL0     H11592   7.529   6.581   9.234 -1.0499 -1.0491 -2.2505
  827MOL0     H11593   7.621   6.712   9.163  0.0371 -0.5845  0.9715
  827MOL0     H11594   7.398   6.656   9.050 -0.3250  0.6445 -0.9956
  827MOL0     H11595   7.302   6.705   9.186 -0.0068 -2.0705  0.3091
  827MOL0     H11596   7.589   6.841   8.960  0.0631  2.5974 -1.9994
  827MOL0     H11597   7.539   7.042   8.756  0.7567 -0.6358 -1.0276
  827MOL0     H11598   7.421   7.169   8.805  1.0665  2.5956  1.6311
  827MOL0     H11599   7.576   7.260   8.969  0.0746  0.7611 -1.5125
  827MOL0     H11600   7.694   7.132   8.935  0.0609 -0.9828 -2.2626
  827MOL0     H11601   7.736   7.349   8.845 -0.7620 -1.2485  2.3562
  827MOL0     H11602   7.575   7.355   8.767 -0.4635 -1.2874 -1.0450
  827MOL0     H11603   7.772   7.274   8.592  1.8099 -0.4736  1.5224
  827MOL0     H11604   7.629   7.191   8.603  1.3744  2.0275 -2.0449
  827MOL0     H11605   7.972   6.938   8.822  1.1115  0.2467  0.6827
  827MOL0     H11606   8.191   6.980   8.923  0.8813 -0.9825 -0.9640
  827MOL0     H11607   8.526   6.954   8.966  1.8947 -1.4565 -0.2253
  827MOL0     H11608   8.765   6.967   8.969 -1.0921 -0.5492  0.6665
  827MOL0     H11609   8.994   6.972   9.129 -0.6260 -1.8323 -2.2691
  827MOL0     H11610   9.000   7.057   8.974  0.2806  2.6641  0.3958
  827MOL0     H11611   9.228   7.043   9.112 -2.1486 -2.2164  0.3980
  827MOL0     H11612   9.187   7.208   9.066  1.4239 -0.3622 -0.3471
  827MOL0     H11613   9.100   7.255   9.301  0.8083  0.3925 -0.0585
  827MOL0     H11614   9.119   7.079   9.321 -0.6736  0.3498 -0.5798
  827MOL0     H11615   9.330   7.276   9.222  0.2062 -0.1329 -0.6290
  827MOL0     H11616   9.367   7.121   9.304 -0.2600  0.4643 -0.0959
  827MOL0     H11617   9.267   7.227   9.524  0.3432  0.2283 -0.1215
  827MOL0     H11618   9.244   7.370   9.427 -1.1604 -0.2979  2.0293
  827MOL0     H11619   9.478   7.404   9.402  0.2741  0.5781  1.0325
  827MOL0     H11620   9.424   7.405   9.567  1.3116  2.5625 -0.5422
  827MOL0     H11621   9.569   7.157   9.488 -0.8886 -0.6996  2.4370
  827MOL0     H11622   9.529   7.225   9.643 -1.5112 -3.2985 -0.0246
  827MOL0     H11623   9.698   7.411   9.601  1.3550  0.3071  0.2821
  827MOL0     H11624   9.772   7.255   9.564  1.8741  1.5681 -1.5248
  827MOL0     H11625   8.731   7.320   9.216  2.3737  0.6174 -3.1619
  827MOL0     H11626   8.490   7.326   9.171  1.5301  1.5750  0.8654
  827MOL0     H11627   8.166   7.381   8.781 -1.4126  0.9361  0.3489
  827MOL0     H11628   7.933   7.347   8.724 -0.4424  0.0860 -0.2898
  827MOL0     H11629   8.130   7.138   9.762 -1.5908  1.8081  0.0826
  827MOL0     H11630   8.260   7.322   9.863  1.5098 -1.3540  0.9280
  827MOL0     H11631   8.330   7.500  10.359 -0.7409  1.1617 -0.9128
  827MOL0     H11632   8.477   7.653  10.496  2.8175  0.0184  0.4977
  827MOL0     H11633   8.763   7.508  10.615 -0.6580 -0.4101  4.0571
  827MOL0     H11634   8.642   7.618  10.652 -1.1555 -0.4373 -1.1105
  827MOL0     H11635   8.829   7.628  10.788  2.1191  0.4805  0.2663
  827MOL0     H11636   8.823   7.794  10.708  2.2893  1.6663 -3.1851
  827MOL0     H11637   8.979   7.708  10.539  1.2528  0.8353  0.6595
  827MOL0     H11638   9.001   7.562  10.636  0.0308  0.0677 -0.4272
  827MOL0     H11639   9.201   7.711  10.670  1.0057  1.9697  0.1243
  827MOL0     H11640   9.102   7.844  10.703  1.4956  0.2971 -1.7558
  827MOL0     H11641   9.170   7.646  11.081  3.6101  2.3442 -1.3164
  827MOL0     H11642   8.808   7.555  10.252  0.3569 -0.8727 -0.6501
  827MOL0     H11643   8.762   7.478  10.034  2.5130 -2.2451 -1.8582
  827MOL0     H11644   8.732   7.316  10.095  0.0249  0.4638 -1.5248
  827MOL0     H11645   8.612   7.389   9.986 -0.0642  0.4133  0.5030
  828MOL0     O11646   7.520   9.005  10.778  0.0253  0.5706 -0.2342
  828MOL0     C11647   7.402   9.020  10.769  0.6281 -0.5797 -0.7533
  828MOL0     O11648   7.339   9.145  10.741  0.1872  0.6963  0.2736
  828MOL0     C11649   7.400   9.269  10.716 -0.0735  0.4245  0.0614
  828MOL0     C11650   7.516   9.311  10.782  0.0716 -0.1021 -0.5802
  828MOL0     C11651   7.561   9.445  10.754  0.2334  0.5080 -0.9786
  828MOL0     C11652   7.485   9.536  10.680  0.0565 -0.9105 -0.5235
  828MOL0     O11653   7.523   9.667  10.668  0.6377  0.0601 -0.0108
  828MOL0     C11654   7.610   9.737  10.762 -0.3262  0.2329  0.3549
  828MOL0     C11655   7.647   9.870  10.694  0.8389  0.0788  0.2041
  828MOL0     C11656   7.682   9.977  10.795  0.2251 -0.0410 -0.1014
  828MOL0     C11657   7.788   9.936  10.890 -0.1986  0.2272 -0.1155
  828MOL0     C11658   7.891  10.055  10.917 -0.7542  0.3913  0.5278
  828MOL0     C11659   8.017   9.991  10.980 -0.4411  0.0136 -0.9083
  828MOL0     C11660   8.131  10.085  10.989 -0.8005 -0.6615  0.4686
  828MOL0     C11661   8.264  10.008  11.012  0.2285 -0.4926  0.1440
  828MOL0     N11662   8.374  10.094  11.047  0.1743 -0.5770 -0.1373
  828MOL0     C11663   8.439  10.185  10.966 -0.4124 -0.5074 -0.6560
  828MOL0     C11664   8.541  10.238  11.036 -0.5973 -0.5062  1.7318
  828MOL0     C11665   8.639  10.331  10.966  0.3385  0.4794  0.0731
  828MOL0     C11666   8.786  10.286  10.997  0.2664  0.4956  0.3125
  828MOL0     C11667   8.889  10.362  10.919 -0.8611 -0.1006  0.4282
  828MOL0     C11668   9.026  10.313  10.964 -0.2284  0.5081 -0.8411
  828MOL0     O11669   9.130  10.391  10.904 -0.5140  0.5057  0.0464
  828MOL0     C11670   9.259  10.354  10.927  0.0613  0.3102  0.4424
  828MOL0     C11671   9.361  10.429  10.864  0.0778 -0.2569 -0.0417
  828MOL0     C11672   9.505  10.402  10.879  0.1517  0.3897 -0.6191
  828MOL0     C11673   9.550  10.297  10.960  0.0403 -0.2571  0.0546
  828MOL0     C11674   9.692  10.276  10.998 -0.1107 -0.1751  0.2584
  828MOL0     O11675   9.720  10.190  11.103 -0.0164 -0.6735  1.1370
  828MOL0     C11676   9.841  10.212  11.170  1.4176 -0.0709 -0.4247
  828MOL0     C11677   9.891  10.338  11.209  0.0381 -0.4667 -0.4082
  828MOL0     C11678  10.016  10.349  11.278  0.0878 -0.6029 -0.3076
  828MOL0     C11679  10.083  10.229  11.320 -0.4812 -0.2520 -0.4472
  828MOL0     O11680  10.198  10.237  11.398  0.6178  0.4240  0.1236
  828MOL0     C11681  10.234  10.121  11.466  0.0948  0.3495 -0.1975
  828MOL0     C11682  10.343  10.141  11.567 -0.2283  0.4645 -0.3856
  828MOL0     C11683  10.405  10.011  11.622 -0.7574 -0.1920  0.3005
  828MOL0     C11684  10.534  10.037  11.709 -0.1780 -0.5446  0.1770
  828MOL0     C11685  10.578   9.905  11.771  1.3207 -1.0228  0.0725
  828MOL0     C11686  10.712   9.908  11.854  0.0970  1.0635  0.2718
  828MOL0     C11687  10.831   9.955  11.779  0.0425 -0.2728  0.0333
  828MOL0     C11688  10.968   9.964  11.858 -0.3191  0.2295  0.4117
  828MOL0    Cl11689  10.994   9.821  11.952  0.0074  0.1542  0.1145
  828MOL0     C11690  10.019  10.110  11.288  0.7884 -0.1000  0.0344
  828MOL0     C11691   9.895  10.101  11.220  0.2020  0.4883 -0.0199
  828MOL0     O11692   9.781  10.338  10.930 -0.1570 -0.4493  0.4249
  828MOL0     C11693   9.451  10.218  11.017  0.2252 -0.6904 -0.0992
  828MOL0     C11694   9.312  10.245  11.003 -0.4034  0.2446 -0.4338
  828MOL0     N11695   8.538  10.177  11.156  0.4167  0.1520  0.5840
  828MOL0     N11696   8.437  10.102  11.168  0.2907  0.1947  0.6653
  828MOL0     C11697   7.374   9.490  10.615 -0.1083  1.2050  0.8841
  828MOL0     C11698   7.339   9.354  10.624  0.0117  0.0362 -0.0660
  828MOL0     C11699   7.312   8.906  10.804  0.7800  0.0952  0.2589
  828MOL0     C11700   7.184   8.930  10.863  0.5667  0.2578 -0.2837
  828MOL0     C11701   7.100   8.821  10.892 -0.2901  0.0547  0.6663
  828MOL0     C11702   7.130   8.687  10.864 -0.2126 -0.7056 -0.5733
  828MOL0     O11703   7.029   8.599  10.880 -1.1519 -0.2244  0.3345
  828MOL0     C11704   7.029   8.470  10.823  0.0171 -0.2941  0.4779
  828MOL0     C11705   6.907   8.394  10.887 -0.5980 -0.9944  0.3400
  828MOL0     C11706   6.762   8.437  10.848 -0.7645  0.0651  1.2229
  828MOL0     C11707   6.663   8.342  10.901 -0.2540  0.0196 -0.4530
  828MOL0     C11708   6.525   8.388  10.894  0.3095 -0.0332 -0.5181
  828MOL0     C11709   6.412   8.424  10.896 -0.2333 -1.3202 -0.2985
  828MOL0     C11710   7.254   8.663  10.816 -0.2173 -1.1202  0.1052
  828MOL0     C11711   7.345   8.766  10.779 -0.1158 -0.1921 -0.4206
  828MOL0     C11712   7.480   8.729  10.722  1.1594  0.3331 -0.5367
  828MOL0     H11713   7.579   9.260  10.854  2.5570  2.0363 -1.0764
  828MOL0     H11714   7.657   9.465  10.799  0.4480  0.2086 -1.2988
  828MOL0     H11715   7.568   9.754  10.862  1.1385  2.1682  0.6933
  828MOL0     H11716   7.703   9.682  10.777  0.6764  1.4668 -1.0900
  828MOL0     H11717   7.565   9.893  10.626  1.1253 -0.8266 -0.4716
  828MOL0     H11718   7.733   9.846  10.630 -1.2557 -1.9601 -2.0512
  828MOL0     H11719   7.604  10.017  10.860  1.6111  2.5079  0.1427
  828MOL0     H11720   7.713  10.060  10.730  0.9140 -0.0033  0.2612
  828MOL0     H11721   7.749   9.904  10.987  1.2366 -1.5833 -0.0733
  828MOL0     H11722   7.835   9.848  10.843 -1.2920 -0.0692 -0.6880
  828MOL0     H11723   7.911  10.099  10.819 -2.8881  3.3888  1.2573
  828MOL0     H11724   7.857  10.134  10.986  2.3165  0.5908  1.9710
  828MOL0     H11725   8.000   9.942  11.077 -1.4883  1.7718 -0.1569
  828MOL0     H11726   8.032   9.902  10.918 -1.2472 -1.3233  0.7142
  828MOL0     H11727   8.114  10.157  11.071  1.7018  1.6120 -0.8520
  828MOL0     H11728   8.149  10.145  10.900  3.7724 -2.3964 -0.0340
  828MOL0     H11729   8.246   9.931  11.088  0.8146 -1.5000 -0.6990
  828MOL0     H11730   8.294   9.957  10.920  2.7461  1.8269 -0.4539
  828MOL0     H11731   8.402  10.219  10.869 -2.0411  0.9511  0.4215
  828MOL0     H11732   8.635  10.324  10.857 -1.6955  2.2747 -0.0291
  828MOL0     H11733   8.617  10.432  11.000 -0.4915 -0.5837  3.0201
  828MOL0     H11734   8.801  10.305  11.104 -2.1508 -3.3536  1.5603
  828MOL0     H11735   8.795  10.178  10.978 -0.3554  0.4245  0.4104
  828MOL0     H11736   8.893  10.463  10.960  1.2593 -0.4414  1.1536
  828MOL0     H11737   8.870  10.358  10.811  1.6088  1.5365 -0.1197
  828MOL0     H11738   9.025  10.207  10.935  0.1983 -0.1774  1.4369
  828MOL0     H11739   9.036  10.309  11.072 -0.7299 -0.3559 -0.8166
  828MOL0     H11740   9.330  10.519  10.812 -1.3282 -0.5286  0.2687
  828MOL0     H11741   9.583  10.464  10.836  0.7131  0.4192  0.4106
  828MOL0     H11742   9.835  10.425  11.180  0.4407  0.0466  0.3031
  828MOL0     H11743  10.052  10.450  11.295 -5.2644  1.4835  0.6289
  828MOL0     H11744  10.151  10.084  11.527 -0.3810  2.3695  0.4326
  828MOL0     H11745  10.268  10.040  11.400  0.6436 -0.9538  1.5971
  828MOL0     H11746  10.423  10.199  11.520 -1.5178  3.0888  0.4978
  828MOL0     H11747  10.316  10.199  11.655 -1.2572 -2.6293  1.5093
  828MOL0     H11748  10.328   9.961  11.682 -3.5472  2.0039 -1.1931
  828MOL0     H11749  10.441   9.947  11.540  0.8377  0.2319  0.6374
  828MOL0     H11750  10.509  10.111  11.785  1.5996  2.6922 -2.1295
  828MOL0     H11751  10.616  10.086  11.656 -0.8531  1.5831  0.9917
  828MOL0     H11752  10.589   9.844  11.680  0.4599 -0.8916 -0.1328
  828MOL0     H11753  10.500   9.858  11.831 -0.0618 -0.6856 -1.3879
  828MOL0     H11754  10.690   9.965  11.945 -1.5449 -2.7241  2.4765
  828MOL0     H11755  10.733   9.810  11.899  0.9843  1.4368  0.7087
  828MOL0     H11756  10.801  10.054  11.741 -0.8739 -0.8947 -0.9215
  828MOL0     H11757  10.846   9.885  11.696  1.8506 -0.2460  0.2856
  828MOL0     H11758  11.055   9.985  11.795  0.5756 -0.0268  1.5348
  828MOL0     H11759  10.960  10.049  11.926  0.0490 -0.5420  1.4333
  828MOL0     H11760  10.064  10.017  11.321 -0.2191 -0.6384 -0.0672
  828MOL0     H11761   9.841  10.011  11.191  0.5798  0.1963  0.1785
  828MOL0     H11762   9.475  10.136  11.083  1.6159 -0.4183 -0.2289
  828MOL0     H11763   9.244  10.185  11.061  0.4887  0.6111  1.0612
  828MOL0     H11764   7.323   9.568  10.560 -0.3803  0.2280 -0.3108
  828MOL0     H11765   7.247   9.314  10.584 -0.8024  1.2053  0.5764
  828MOL0     H11766   7.143   9.029  10.882 -0.8989 -0.3212 -0.3349
  828MOL0     H11767   7.006   8.843  10.941 -0.9166 -0.5608 -0.2226
  828MOL0     H11768   7.123   8.416  10.835  0.8559 -0.0399 -3.6846
  828MOL0     H11769   7.009   8.485  10.717 -4.3636 -2.1735  0.7952
  828MOL0     H11770   6.923   8.398  10.995  0.2484  0.9874  0.1841
  828MOL0     H11771   6.913   8.290  10.853 -1.1986 -0.5680 -1.1345
  828MOL0     H11772   6.762   8.425  10.739 -1.3181  3.7446  0.6881
  828MOL0     H11773   6.748   8.542  10.875  0.7421  0.2737  1.3110
  828MOL0     H11774   6.674   8.248  10.846 -0.2938 -0.3000  0.0820
  828MOL0     H11775   6.684   8.322  11.006 -1.9544  0.1069 -0.0666
  828MOL0     H11776   6.310   8.456  10.904  0.2940 -0.0184  2.4310
  828MOL0     H11777   7.275   8.562  10.782 -1.8794 -1.2877 -0.5049
  828MOL0     H11778   7.500   8.622  10.723  0.1315  0.0583 -2.8673
  828MOL0     H11779   7.481   8.755  10.616 -2.9632  0.8900 -0.5991
  828MOL0     H11780   7.566   8.775  10.772  0.9805 -0.4469  0.5328
  829MOL0     O11781   6.733   6.979   0.439  0.3858 -0.9704 -0.3420
  829MOL0     C11782   6.757   6.869   0.382 -0.2346 -1.6768  0.0691
  829MOL0     O11783   6.878   6.816   0.375 -0.4292 -0.3768 -0.2294
  829MOL0     C11784   6.984   6.906   0.390  0.2950  0.2073  0.0001
  829MOL0     C11785   7.001   7.011   0.305  0.1332 -0.3940  0.2623
  829MOL0     C11786   7.118   7.083   0.309 -0.3527  0.3774  0.3872
  829MOL0     C11787   7.213   7.060   0.405 -0.1073 -0.4046  0.1841
  829MOL0     O11788   7.327   7.139   0.404 -0.1550  0.2804  0.0754
  829MOL0     C11789   7.316   7.261   0.474  0.2778  0.2992  0.6608
  829MOL0     C11790   7.452   7.335   0.475 -0.3409  0.6077  0.1397
  829MOL0     C11791   7.543   7.270   0.585  1.2867  0.2309  0.0677
  829MOL0     C11792   7.686   7.331   0.590  0.5119 -0.5101 -0.2549
  829MOL0     C11793   7.784   7.250   0.680  0.3800  0.6228 -0.2891
  829MOL0     C11794   7.932   7.246   0.628  0.1921 -0.8552  0.2545
  829MOL0     C11795   7.996   7.375   0.633  0.0478  0.2754 -0.7009
  829MOL0     C11796   8.094   7.381   0.514  0.2943  0.1004 -0.5417
  829MOL0     N11797   8.183   7.501   0.519 -0.6172 -0.2827  0.2424
  829MOL0     C11798   8.323   7.497   0.541  0.4325 -0.6504 -0.0350
  829MOL0     C11799   8.364   7.625   0.561  1.2121 -0.6236 -0.1028
  829MOL0     C11800   8.493   7.667   0.624  0.5682  0.5297  0.0657
  829MOL0     C11801   8.574   7.751   0.527  0.5407 -0.4899 -0.1491
  829MOL0     C11802   8.534   7.907   0.538  0.3332  0.8243 -0.1685
  829MOL0     C11803   8.637   7.997   0.459  0.5460  0.3598  0.5738
  829MOL0     O11804   8.735   8.048   0.557  0.0120  0.5501  0.6628
  829MOL0     C11805   8.832   8.136   0.510 -0.3737  0.2820 -0.1769
  829MOL0     C11806   8.847   8.187   0.391  0.6289 -0.4279 -0.1078
  829MOL0     C11807   8.950   8.275   0.355 -0.3249 -0.6540  1.2074
  829MOL0     C11808   9.037   8.326   0.459 -1.2410  0.5111  0.9698
  829MOL0     C11809   9.160   8.409   0.419 -0.0128  0.2507  0.5994
  829MOL0     O11810   9.231   8.462   0.525 -0.1432 -0.1416  1.5956
  829MOL0     C11811   9.346   8.529   0.482  0.8857  0.7632 -0.4662
  829MOL0     C11812   9.456   8.473   0.417 -0.1931 -0.2494 -0.0905
  829MOL0     C11813   9.569   8.542   0.382 -0.2578 -0.3993  0.1262
  829MOL0     C11814   9.571   8.683   0.396  0.3918  0.6174 -0.2966
  829MOL0     O11815   9.683   8.769   0.380  0.3224  0.2131  0.3849
  829MOL0     C11816   9.806   8.707   0.331 -0.0828  0.5126  0.5525
  829MOL0     C11817   9.923   8.798   0.302 -0.4945 -0.1252 -0.8564
  829MOL0     C11818   9.956   8.889   0.416  0.1923 -0.6789  0.2370
  829MOL0     C11819  10.077   8.968   0.393 -0.6800  0.3427  0.0358
  829MOL0     C11820  10.122   9.044   0.521  0.9390 -0.3850  0.3376
  829MOL0     C11821  10.238   9.138   0.492  0.9757 -0.5845 -0.0354
  829MOL0     C11822  10.350   9.065   0.417 -0.2644  0.1846 -0.2303
  829MOL0     C11823  10.482   9.139   0.390  0.6974 -0.1520  0.5513
  829MOL0    Cl11824  10.453   9.265   0.272 -0.1927  0.0547 -0.5198
  829MOL0     C11825   9.460   8.749   0.457 -0.1507 -0.2241 -0.7302
  829MOL0     C11826   9.350   8.669   0.497 -0.1155 -0.7835 -0.1401
  829MOL0     O11827   9.183   8.423   0.304  0.0941 -0.1397 -0.0116
  829MOL0     C11828   9.022   8.278   0.585 -0.2395 -0.0612 -0.1447
  829MOL0     C11829   8.919   8.180   0.604 -0.3172  0.2784  0.2043
  829MOL0     N11830   8.244   7.702   0.549  0.2234  0.1932 -0.0026
  829MOL0     N11831   8.143   7.629   0.518 -0.3319  1.0673  0.3852
  829MOL0     C11832   7.197   6.954   0.493 -0.6587 -0.4042  0.3699
  829MOL0     C11833   7.081   6.871   0.484 -0.4122 -0.3019  0.1228
  829MOL0     C11834   6.642   6.793   0.325  0.3962 -0.0358  0.1998
  829MOL0     C11835   6.508   6.839   0.355 -0.1291 -0.7954 -0.4938
  829MOL0     C11836   6.391   6.774   0.311  0.2284 -0.3181 -0.1293
  829MOL0     C11837   6.396   6.662   0.220  0.2270  0.3125  0.3671
  829MOL0     O11838   6.281   6.602   0.186  0.7897  0.2992  0.1398
  829MOL0     C11839   6.292   6.487   0.101 -0.5513 -0.0079  0.0461
  829MOL0     C11840   6.169   6.449   0.027  0.1461  0.0625  0.0759
  829MOL0     C11841   6.178   6.304  -0.042  0.1966  0.2223 -0.0129
  829MOL0     C11842   6.059   6.266  -0.128 -0.3884  0.1738  0.5684
  829MOL0     C11843   5.943   6.232  -0.053 -0.4340  0.3931 -0.5368
  829MOL0     C11844   5.841   6.215   0.012  0.2504 -0.3412  0.0533
  829MOL0     C11845   6.530   6.613   0.192  0.5950 -0.4500  0.0390
  829MOL0     C11846   6.647   6.681   0.232  0.7006 -1.1634 -0.5417
  829MOL0     C11847   6.767   6.636   0.166 -0.1616  0.5161  0.0073
  829MOL0     H11848   6.919   7.018   0.234 -1.2082  1.3037  1.8520
  829MOL0     H11849   7.143   7.165   0.241  1.3344  0.7046  1.3444
  829MOL0     H11850   7.237   7.318   0.425 -0.1804 -1.1066 -0.3005
  829MOL0     H11851   7.286   7.251   0.578 -0.6224  3.3204  0.7708
  829MOL0     H11852   7.430   7.441   0.492 -2.4458  0.1760  0.4749
  829MOL0     H11853   7.493   7.342   0.375  1.3499 -0.4452  0.7200
  829MOL0     H11854   7.555   7.164   0.561  2.3832 -0.0166  1.5506
  829MOL0     H11855   7.503   7.285   0.686  1.0162 -0.5969  0.0909
  829MOL0     H11856   7.725   7.323   0.488 -0.0169  0.3119 -0.5250
  829MOL0     H11857   7.670   7.427   0.639 -1.1425 -0.3480 -1.0240
  829MOL0     H11858   7.788   7.291   0.781  0.2893  2.2440 -0.9202
  829MOL0     H11859   7.746   7.147   0.685 -2.6513  1.4569 -2.8190
  829MOL0     H11860   7.990   7.180   0.693  3.1642  1.2438 -0.0773
  829MOL0     H11861   7.935   7.211   0.524  3.0815  1.6344 -0.6370
  829MOL0     H11862   8.049   7.388   0.728 -0.7418 -0.2015 -0.1793
  829MOL0     H11863   7.923   7.456   0.618 -2.3173 -1.2929  1.3835
  829MOL0     H11864   8.159   7.294   0.514 -1.8896 -1.6417  0.6764
  829MOL0     H11865   8.038   7.385   0.420 -1.7241 -1.1553  0.5238
  829MOL0     H11866   8.388   7.411   0.551  2.6074  0.7854 -1.0577
  829MOL0     H11867   8.463   7.711   0.720  0.6177 -1.8233  1.2398
  829MOL0     H11868   8.540   7.570   0.640 -1.9100 -1.1078 -1.8109
  829MOL0     H11869   8.680   7.725   0.535  0.5731 -1.6706 -3.1170
  829MOL0     H11870   8.553   7.718   0.425  0.9006 -2.8935  0.4915
  829MOL0     H11871   8.520   7.940   0.641 -0.5713 -0.5950  0.1816
  829MOL0     H11872   8.439   7.911   0.484  0.2131 -1.9331 -0.2738
  829MOL0     H11873   8.570   8.073   0.417 -0.4705 -1.7594 -2.0025
  829MOL0     H11874   8.686   7.933   0.384  2.6860  0.5769  1.7134
  829MOL0     H11875   8.770   8.159   0.320  0.8746  0.5153 -0.7468
  829MOL0     H11876   8.952   8.311   0.253 -3.4079 -0.4629  1.1225
  829MOL0     H11877   9.463   8.366   0.403 -2.2328 -0.2523 -1.5694
  829MOL0     H11878   9.653   8.491   0.337 -0.2826 -0.5252  0.2244
  829MOL0     H11879   9.850   8.640   0.406  0.2050 -1.4900 -1.3233
  829MOL0     H11880   9.786   8.650   0.240  0.8300  0.4150  0.4046
  829MOL0     H11881  10.010   8.741   0.269 -0.0691  0.8394 -1.4643
  829MOL0     H11882   9.889   8.874   0.231  0.6508  1.8340  0.5715
  829MOL0     H11883   9.878   8.965   0.421  2.8129  2.2697 -0.2299
  829MOL0     H11884   9.970   8.835   0.510  4.1800 -1.0350 -0.3838
  829MOL0     H11885  10.075   9.029   0.302 -1.5694 -4.6775 -3.7218
  829MOL0     H11886  10.160   8.899   0.377 -1.4303 -0.5339 -0.1214
  829MOL0     H11887  10.152   8.982   0.605  3.8435  1.7063  0.9826
  829MOL0     H11888  10.045   9.108   0.565  2.3319  0.3453  1.8137
  829MOL0     H11889  10.203   9.225   0.435  3.7283  1.8295  1.6537
  829MOL0     H11890  10.269   9.178   0.589  0.1624  0.6201 -0.2468
  829MOL0     H11891  10.318   9.018   0.323 -0.2845  0.9284 -0.6048
  829MOL0     H11892  10.375   8.976   0.474  0.1753 -0.6297 -1.6432
  829MOL0     H11893  10.518   9.188   0.481  2.3491 -2.0416  0.9876
  829MOL0     H11894  10.558   9.075   0.344  0.5675  1.5925 -2.3874
  829MOL0     H11895   9.477   8.854   0.477 -0.7631 -0.0691 -0.9890
  829MOL0     H11896   9.260   8.716   0.537  1.0257  0.1028  1.5032
  829MOL0     H11897   9.098   8.309   0.657  0.2394 -1.2201 -0.1246
  829MOL0     H11898   8.909   8.149   0.708 -0.5900  1.3038  0.4970
  829MOL0     H11899   7.286   6.939   0.554  0.6666  0.3918 -1.2849
  829MOL0     H11900   7.067   6.781   0.542  2.0471 -1.6704 -1.2362
  829MOL0     H11901   6.514   6.919   0.429  2.5103 -1.3114 -0.0449
  829MOL0     H11902   6.291   6.799   0.343 -0.2310 -0.4827 -1.3815
  829MOL0     H11903   6.324   6.406   0.167  2.6444  0.8714 -0.2567
  829MOL0     H11904   6.376   6.491   0.032  0.1572  0.8814  0.9357
  829MOL0     H11905   6.160   6.524  -0.051 -0.3455  1.6133  1.5506
  829MOL0     H11906   6.079   6.447   0.091 -0.0054 -1.0667 -0.1522
  829MOL0     H11907   6.176   6.234   0.043  1.4113 -1.7537 -1.5398
  829MOL0     H11908   6.267   6.276  -0.098 -0.2570  0.5513 -0.9197
  829MOL0     H11909   6.028   6.341  -0.201 -1.3604 -1.3379 -0.6371
  829MOL0     H11910   6.075   6.171  -0.180  0.1254  0.5531  0.0243
  829MOL0     H11911   5.759   6.208   0.080  1.1844 -1.0033  1.1279
  829MOL0     H11912   6.537   6.518   0.141 -1.6541 -0.7124  0.1062
  829MOL0     H11913   6.737   6.570   0.085  1.5152  2.1692 -2.0729
  829MOL0     H11914   6.821   6.721   0.124  2.3450 -1.2357 -0.4822
  829MOL0     H11915   6.832   6.578   0.232 -0.5552 -0.5215 -0.4889
  830MOL0     O11916  10.636   7.256  10.145  0.1617 -0.6345  0.5051
  830MOL0     C11917  10.593   7.326  10.233  0.7158  0.1808  0.2487
  830MOL0     O11918  10.663   7.410  10.320 -0.4564 -0.4111 -0.2787
  830MOL0     C11919  10.799   7.444  10.303  0.0325  0.4613 -0.2961
  830MOL0     C11920  10.866   7.478  10.420 -1.7421 -1.0192 -0.5213
  830MOL0     C11921  10.999   7.525  10.411  0.2121 -0.5829  0.3676
  830MOL0     C11922  11.058   7.543  10.287  0.5120  0.7073 -0.3697
  830MOL0     O11923  11.179   7.599  10.270 -0.9781 -0.4927 -0.4647
  830MOL0     C11924  11.221   7.694  10.368 -0.1218 -0.3596  0.1498
  830MOL0     C11925  11.348   7.767  10.313  0.1190 -0.0451 -0.6631
  830MOL0     C11926  11.469   7.672  10.279 -0.6085  0.3516  0.3622
  830MOL0     C11927  11.577   7.760  10.213  0.3681  0.3917  0.3433
  830MOL0     C11928  11.706   7.681  10.204 -0.0173  0.5256 -0.4393
  830MOL0     C11929  11.824   7.766  10.164  0.4575  1.0672 -0.3236
  830MOL0     C11930  11.949   7.677  10.150  0.6740 -0.4860  1.0743
  830MOL0     C11931  12.048   7.753  10.065  0.5585 -0.2449 -0.3178
  830MOL0     N11932  12.168   7.670  10.051  0.6642 -0.1877  0.0691
  830MOL0     C11933  12.191   7.582   9.945  0.3806 -0.0383  0.2912
  830MOL0     C11934  12.304   7.522   9.981 -0.6723 -0.1407 -0.5179
  830MOL0     C11935  12.372   7.419   9.891  0.8101  0.3609  0.4554
  830MOL0     C11936  12.521   7.458   9.857  0.3313  0.5351  0.4101
  830MOL0     C11937  12.579   7.340   9.777 -0.0980  0.0863  0.3170
  830MOL0     C11938  12.723   7.359   9.728 -1.9392  0.8971 -0.4058
  830MOL0     O11939  12.810   7.367   9.844  0.2142 -0.5388 -0.0946
  830MOL0     C11940  12.940   7.404   9.826 -0.7500  0.7316 -0.1124
  830MOL0     C11941  12.998   7.477   9.923  0.8473 -1.4475  0.0684
  830MOL0     C11942  13.135   7.510   9.917 -0.4858 -0.5410 -0.6939
  830MOL0     C11943  13.210   7.484   9.809 -0.4598  0.2226 -0.3320
  830MOL0     C11944  13.355   7.517   9.808 -0.6125 -0.2376  0.3881
  830MOL0     O11945  13.424   7.462   9.704 -0.4072 -0.0966  0.4297
  830MOL0     C11946  13.555   7.484   9.684 -0.3859  0.5457  0.6532
  830MOL0     C11947  13.643   7.373   9.655  0.6046 -0.1399 -0.7797
  830MOL0     C11948  13.775   7.397   9.611  0.1762 -0.7237  0.2631
  830MOL0     C11949  13.824   7.529   9.603  0.1143 -0.0632  1.0917
  830MOL0     O11950  13.946   7.563   9.559 -0.1117 -0.0983  0.2690
  830MOL0     C11951  14.049   7.459   9.565  0.6563  0.5154  0.3421
  830MOL0     C11952  14.190   7.505   9.505 -0.1733  0.6481 -0.3884
  830MOL0     C11953  14.238   7.643   9.553 -0.0060 -0.0479  0.0903
  830MOL0     C11954  14.380   7.665   9.505 -0.2481  0.3735  0.8113
  830MOL0     C11955  14.450   7.788   9.550  0.3922 -1.0030  0.3099
  830MOL0     C11956  14.596   7.782   9.521 -1.4038  0.7674  0.4436
  830MOL0     C11957  14.682   7.700   9.625 -0.1028 -0.9503 -0.3307
  830MOL0     C11958  14.811   7.662   9.567 -0.0638 -0.1929  0.2526
  830MOL0    Cl11959  14.908   7.806   9.536 -0.0677 -0.4469 -0.2550
  830MOL0     C11960  13.746   7.635   9.651  0.4473 -0.6172  1.4713
  830MOL0     C11961  13.612   7.616   9.676  0.5954 -0.2532  1.3532
  830MOL0     O11962  13.410   7.591   9.889  0.1233  0.3069  0.8609
  830MOL0     C11963  13.152   7.413   9.706 -0.2992 -0.8133  0.0004
  830MOL0     C11964  13.017   7.370   9.715  0.6380  0.2515  0.1642
  830MOL0     N11965  12.349   7.573  10.107  0.1298 -0.5329 -0.1557
  830MOL0     N11966  12.262   7.663  10.146 -0.4226 -1.2275  0.1195
  830MOL0     C11967  10.991   7.505  10.167 -0.1045  0.4008 -0.1548
  830MOL0     C11968  10.859   7.456  10.181 -0.0083  1.0402 -0.1150
  830MOL0     C11969  10.445   7.337  10.229  1.1419  0.1328 -0.1855
  830MOL0     C11970  10.387   7.444  10.295 -0.0899  0.0165 -0.3254
  830MOL0     C11971  10.240   7.463  10.292 -0.4269  1.0371 -0.1607
  830MOL0     C11972  10.156   7.376  10.215  0.3840 -0.3016  0.7111
  830MOL0     O11973  10.022   7.390  10.197 -0.1706  0.5308 -0.1048
  830MOL0     C11974   9.967   7.520  10.169 -0.5364  1.1458 -0.9064
  830MOL0     C11975   9.826   7.514  10.107  0.3729  0.0867 -0.6059
  830MOL0     C11976   9.830   7.473   9.953  0.6319  0.0706 -0.2793
  830MOL0     C11977   9.827   7.323   9.920 -0.0804 -1.3457  0.4111
  830MOL0     C11978   9.715   7.254   9.989 -0.4247 -0.4921  0.5892
  830MOL0     C11979   9.622   7.199  10.041 -0.0366 -0.3903  0.1045
  830MOL0     C11980  10.216   7.270  10.151  0.2327 -0.1724 -0.6173
  830MOL0     C11981  10.354   7.243  10.168 -0.6084  0.2078  0.4864
  830MOL0     C11982  10.394   7.111  10.124  0.3016  0.2094  0.1495
  830MOL0     H11983  10.811   7.465  10.513 -1.3740  1.2789  0.0692
  830MOL0     H11984  11.057   7.547  10.499 -0.8754  0.8377  0.7713
  830MOL0     H11985  11.148   7.774  10.382  0.6412 -0.0843  3.3610
  830MOL0     H11986  11.258   7.647  10.460  3.7990  0.4782 -0.8126
  830MOL0     H11987  11.380   7.833  10.394 -2.4659 -0.4804  0.8397
  830MOL0     H11988  11.315   7.827  10.229 -1.9089 -1.3174 -0.8615
  830MOL0     H11989  11.456   7.590  10.208  0.3010 -0.8741  1.5628
  830MOL0     H11990  11.502   7.620  10.370  0.2106 -1.2014 -0.7669
  830MOL0     H11991  11.546   7.793  10.113 -1.9398 -0.8779  0.5852
  830MOL0     H11992  11.587   7.852  10.272 -0.6476  0.1761  0.8777
  830MOL0     H11993  11.707   7.624  10.298  0.6137 -0.5670 -1.0823
  830MOL0     H11994  11.695   7.607  10.124 -2.4258  0.0568  0.2381
  830MOL0     H11995  11.793   7.800  10.065  2.6754  0.4768 -1.2959
  830MOL0     H11996  11.842   7.851  10.231  0.1450  1.9917 -1.3863
  830MOL0     H11997  11.928   7.580  10.104  0.1678  0.4074 -0.6348
  830MOL0     H11998  11.994   7.655  10.248  0.3861 -0.2400  1.2629
  830MOL0     H11999  12.020   7.790   9.966  1.9847  1.8006 -0.0123
  830MOL0     H12000  12.068   7.843  10.123 -2.1218 -0.4653  1.1461
  830MOL0     H12001  12.128   7.558   9.861  0.2267 -0.2690  0.4699
  830MOL0     H12002  12.363   7.328   9.951  0.4595  0.4427  0.5346
  830MOL0     H12003  12.307   7.399   9.805 -0.2090 -0.6444  1.4205
  830MOL0     H12004  12.524   7.545   9.792 -0.7466 -0.8048 -1.5244
  830MOL0     H12005  12.569   7.481   9.953  1.1482 -1.5411  0.5484
  830MOL0     H12006  12.523   7.324   9.685 -0.3841  1.1864  0.2776
  830MOL0     H12007  12.577   7.249   9.838 -0.4693 -0.6545 -0.7677
  830MOL0     H12008  12.728   7.454   9.675 -1.7244  0.9893 -0.2211
  830MOL0     H12009  12.745   7.275   9.661 -2.2318  0.0652  0.5127
  830MOL0     H12010  12.926   7.501  10.000  1.0335 -1.3732  0.2202
  830MOL0     H12011  13.168   7.579   9.994 -1.7131  1.5398 -1.8949
  830MOL0     H12012  13.589   7.279   9.662  1.8115 -0.7099  2.1343
  830MOL0     H12013  13.835   7.310   9.585 -0.3419 -1.0234  0.0740
  830MOL0     H12014  14.065   7.424   9.668 -1.0963 -0.6789  0.2474
  830MOL0     H12015  14.020   7.372   9.505 -0.7162  0.3136  1.2474
  830MOL0     H12016  14.268   7.432   9.529 -1.0052 -0.8520 -2.0009
  830MOL0     H12017  14.185   7.505   9.396  5.1455 -0.0873 -0.8847
  830MOL0     H12018  14.171   7.717   9.509  0.4331 -2.1020 -4.5645
  830MOL0     H12019  14.230   7.644   9.662 -1.9192 -3.0020  0.0735
  830MOL0     H12020  14.378   7.664   9.395 -1.4440  1.6214  0.7949
  830MOL0     H12021  14.440   7.577   9.526  0.6297 -0.0501 -2.8439
  830MOL0     H12022  14.433   7.805   9.657  3.7542 -0.5697  0.8962
  830MOL0     H12023  14.416   7.881   9.505 -1.6607 -1.8169  0.0624
  830MOL0     H12024  14.616   7.742   9.421  1.7018  0.8805  0.9097
  830MOL0     H12025  14.629   7.886   9.522 -1.6635  0.8720 -0.5486
  830MOL0     H12026  14.631   7.604   9.639  1.5291 -1.9128 -0.6895
  830MOL0     H12027  14.690   7.757   9.718 -1.5533  2.7702 -2.2597
  830MOL0     H12028  14.872   7.596   9.629  0.5394  0.0078 -0.1150
  830MOL0     H12029  14.790   7.598   9.480 -1.9718 -2.7341  2.4163
  830MOL0     H12030  13.789   7.733   9.637  0.2168 -0.7716 -0.8569
  830MOL0     H12031  13.536   7.691   9.694  1.1176  0.7688 -0.5317
  830MOL0     H12032  13.202   7.373   9.618  0.1115  0.8372 -0.5511
  830MOL0     H12033  12.981   7.322   9.624 -2.7936  1.5287  0.6972
  830MOL0     H12034  11.040   7.524  10.073 -1.3341  2.6277 -0.3998
  830MOL0     H12035  10.807   7.422  10.092 -0.2767 -0.0378  0.4290
  830MOL0     H12036  10.448   7.506  10.359 -1.1295  0.8382 -0.1063
  830MOL0     H12037  10.193   7.547  10.342  0.0844  2.5398 -2.1310
  830MOL0     H12038  10.044   7.569  10.109  0.7342 -2.0011 -2.0742
  830MOL0     H12039   9.973   7.580  10.260 -1.7759  1.4880 -1.0278
  830MOL0     H12040   9.781   7.613  10.118  0.0596  0.3019 -3.0599
  830MOL0     H12041   9.761   7.443  10.158  0.1980  1.2191  0.7857
  830MOL0     H12042   9.917   7.505   9.894  0.1370 -1.4595 -1.9193
  830MOL0     H12043   9.737   7.519   9.918 -1.1426  0.5800  4.4248
  830MOL0     H12044   9.806   7.307   9.814  0.9565 -2.4201  0.3508
  830MOL0     H12045   9.922   7.277   9.950  0.3019 -0.6934  0.2168
  830MOL0     H12046   9.545   7.155  10.100  0.1463 -1.6262 -0.5550
  830MOL0     H12047  10.153   7.194  10.105  0.1313  0.7504 -2.0786
  830MOL0     H12048  10.316   7.034  10.125 -0.8351  1.2773 -1.3087
  830MOL0     H12049  10.429   7.118  10.020 -1.2757  2.2667 -0.3076
  830MOL0     H12050  10.473   7.074  10.191  0.5518  1.7118  0.7254
  831MOL0     O12051   4.872   8.904   9.285  0.0399 -0.4238 -0.2626
  831MOL0     C12052   4.794   8.902   9.190 -0.6717 -0.6704 -0.6852
  831MOL0     O12053   4.740   9.018   9.144  0.1231  1.0703 -0.0183
  831MOL0     C12054   4.790   9.139   9.179  0.2163  0.5461  0.1253
  831MOL0     C12055   4.809   9.186   9.312  0.8068  0.1583  0.6059
  831MOL0     C12056   4.873   9.314   9.325 -0.5828 -0.0245 -0.0310
  831MOL0     C12057   4.919   9.394   9.216 -0.1836 -0.1824 -0.2284
  831MOL0     O12058   5.002   9.500   9.222 -0.3314  0.1303  0.7377
  831MOL0     C12059   5.074   9.532   9.344  0.0663  0.3171 -0.3216
  831MOL0     C12060   5.211   9.582   9.304 -0.6401  0.1255  0.0705
  831MOL0     C12061   5.317   9.482   9.250 -0.5615 -0.6092  1.1886
  831MOL0     C12062   5.436   9.570   9.208  0.1050  0.2499  0.0913
  831MOL0     C12063   5.559   9.478   9.201  0.3732  0.1947  0.1234
  831MOL0     C12064   5.665   9.569   9.139  0.7065 -0.7095 -0.3159
  831MOL0     C12065   5.803   9.494   9.134  0.9800  0.4019  0.4579
  831MOL0     C12066   5.879   9.488   9.267 -0.4071  0.1020 -0.4281
  831MOL0     N12067   6.016   9.452   9.243 -0.6165 -0.4361 -0.0825
  831MOL0     C12068   6.069   9.329   9.198  1.1022 -0.1088  0.3291
  831MOL0     C12069   6.196   9.360   9.162  0.6805  0.3230  0.5858
  831MOL0     C12070   6.285   9.261   9.095 -0.2751  0.8249 -0.2020
  831MOL0     C12071   6.256   9.243   8.946  0.2121 -1.0648 -0.5572
  831MOL0     C12072   6.329   9.119   8.897  0.7324  0.4159  0.8435
  831MOL0     C12073   6.320   9.099   8.747  0.0328  0.3156  0.5484
  831MOL0     O12074   6.399   8.985   8.709  0.0453  0.3426  0.1756
  831MOL0     C12075   6.537   9.005   8.664  0.7309 -0.1095 -0.1468
  831MOL0     C12076   6.603   9.136   8.662  0.0186  0.4260  0.0002
  831MOL0     C12077   6.736   9.150   8.614 -0.0785 -0.5285 -0.2980
  831MOL0     C12078   6.810   9.034   8.580 -0.4982 -0.3645  0.8966
  831MOL0     C12079   6.954   9.045   8.539  0.2787 -0.2982 -0.2722
  831MOL0     O12080   6.994   9.170   8.502  0.6306 -0.4334  0.2309
  831MOL0     C12081   7.118   9.189   8.437 -0.2005 -0.5944  0.0583
  831MOL0     C12082   7.182   9.098   8.354 -0.6358  0.1090 -0.1060
  831MOL0     C12083   7.295   9.136   8.285 -1.0136 -0.8872  0.3087
  831MOL0     C12084   7.347   9.263   8.286  0.0694 -0.2182  0.0690
  831MOL0     O12085   7.450   9.298   8.203 -0.5774  0.4604 -0.2234
  831MOL0     C12086   7.409   9.394   8.105 -0.3248 -0.0501  0.7417
  831MOL0     C12087   7.519   9.487   8.083 -0.4129  0.6152  0.5597
  831MOL0     C12088   7.506   9.559   7.942  0.6550  1.0103 -0.8250
  831MOL0     C12089   7.626   9.650   7.935  0.5125 -1.0199 -0.2502
  831MOL0     C12090   7.629   9.728   7.804 -0.3287 -0.0138 -0.7857
  831MOL0     C12091   7.755   9.814   7.776  0.1774  0.3612  0.2632
  831MOL0     C12092   7.875   9.719   7.743 -0.0591 -0.9171  0.0846
  831MOL0     C12093   8.001   9.776   7.675  0.0700 -0.2613 -0.2159
  831MOL0    Cl12094   7.968   9.857   7.527 -0.0685  0.0144 -0.0065
  831MOL0     C12095   7.287   9.360   8.371  0.4776 -0.1828  0.6664
  831MOL0     C12096   7.178   9.318   8.445  0.3244  0.1152  0.3298
  831MOL0     O12097   7.021   8.946   8.549 -0.0986  0.0305  0.2059
  831MOL0     C12098   6.743   8.908   8.574 -0.4389  0.7419 -0.3713
  831MOL0     C12099   6.608   8.894   8.618 -0.4697  0.0785  0.3530
  831MOL0     N12100   6.206   9.497   9.161 -0.4194 -0.1943  0.2294
  831MOL0     N12101   6.101   9.549   9.212 -0.5786 -0.3432 -0.3830
  831MOL0     C12102   4.892   9.336   9.085 -0.4966 -0.2727 -1.2808
  831MOL0     C12103   4.822   9.219   9.068 -1.2237 -0.2170 -0.3159
  831MOL0     C12104   4.759   8.777   9.120  0.1162 -0.0498  0.6870
  831MOL0     C12105   4.757   8.652   9.190 -0.8639 -0.2831 -0.3818
  831MOL0     C12106   4.741   8.524   9.134 -0.6161  1.0005  0.1677
  831MOL0     C12107   4.723   8.519   8.997 -0.4295  0.4800 -0.2595
  831MOL0     O12108   4.698   8.410   8.925  0.5033  0.5555 -0.1197
  831MOL0     C12109   4.570   8.357   8.941 -0.2526  0.1686  0.5756
  831MOL0     C12110   4.511   8.325   8.804  0.6546 -0.1312 -1.3916
  831MOL0     C12111   4.358   8.294   8.822 -0.0152 -0.8509  0.4411
  831MOL0     C12112   4.299   8.254   8.687 -0.0877  0.7451 -0.1576
  831MOL0     C12113   4.378   8.142   8.629  0.6292  0.5555  0.9308
  831MOL0     C12114   4.436   8.053   8.572 -0.1762  0.1716  0.7685
  831MOL0     C12115   4.722   8.632   8.921  0.1599  0.2988  0.4738
  831MOL0     C12116   4.744   8.761   8.975  0.8493 -0.2177 -0.1131
  831MOL0     C12117   4.745   8.877   8.872 -0.0044  0.6983 -0.8545
  831MOL0     H12118   4.783   9.139   9.406  0.3252  2.6148  1.7793
  831MOL0     H12119   4.895   9.340   9.428 -0.6535 -0.9711  0.2297
  831MOL0     H12120   5.027   9.616   9.395 -1.9006 -0.0873 -1.3854
  831MOL0     H12121   5.095   9.444   9.405 -0.9924 -0.8854 -1.6455
  831MOL0     H12122   5.262   9.616   9.395 -0.1214  0.7668 -0.4502
  831MOL0     H12123   5.196   9.670   9.241  0.7718  0.1862 -0.2066
  831MOL0     H12124   5.266   9.437   9.165 -2.0958  1.6932  0.8344
  831MOL0     H12125   5.353   9.408   9.323  1.2441 -2.9616 -1.8106
  831MOL0     H12126   5.416   9.613   9.109 -1.3024 -0.2609  0.1344
  831MOL0     H12127   5.448   9.653   9.278 -0.8953 -0.0729  0.6622
  831MOL0     H12128   5.589   9.437   9.298  1.7724 -4.2639 -1.9676
  831MOL0     H12129   5.527   9.400   9.132 -0.3124 -0.0163  0.6633
  831MOL0     H12130   5.624   9.581   9.039  0.3525  2.2296  0.1029
  831MOL0     H12131   5.672   9.661   9.198 -1.6723  1.4764 -3.1766
  831MOL0     H12132   5.872   9.529   9.057  0.0188  0.7955 -0.2387
  831MOL0     H12133   5.780   9.392   9.103  1.7416 -0.0758  1.4236
  831MOL0     H12134   5.870   9.585   9.317 -0.4819  1.3128 -2.6593
  831MOL0     H12135   5.834   9.413   9.331  0.0144 -0.1580 -0.4334
  831MOL0     H12136   6.024   9.231   9.211 -0.7645  0.6818  0.2212
  831MOL0     H12137   6.388   9.294   9.114 -1.5547  4.7417  0.8700
  831MOL0     H12138   6.271   9.169   9.152  1.1497  0.6110 -0.1494
  831MOL0     H12139   6.147   9.244   8.938  0.1192 -0.5748  0.5789
  831MOL0     H12140   6.295   9.333   8.896  0.5901 -1.0471 -0.2347
  831MOL0     H12141   6.287   9.027   8.938  1.0099  0.7111  1.8313
  831MOL0     H12142   6.433   9.128   8.930  2.2418  0.3398 -3.3802
  831MOL0     H12143   6.357   9.186   8.692  2.5971 -1.2352 -0.3271
  831MOL0     H12144   6.216   9.084   8.713  1.1685  0.8970 -3.8256
  831MOL0     H12145   6.558   9.232   8.684  1.9759  2.2060 -2.9645
  831MOL0     H12146   6.777   9.250   8.603 -2.4039  0.7178  1.5470
  831MOL0     H12147   7.154   8.994   8.340  1.8486 -0.4890 -1.3473
  831MOL0     H12148   7.341   9.063   8.219  0.6702  0.8285 -0.5090
  831MOL0     H12149   7.383   9.348   8.009 -0.4814  2.2272 -0.3553
  831MOL0     H12150   7.327   9.460   8.133 -0.2840  1.2558 -1.9503
  831MOL0     H12151   7.517   9.567   8.158 -0.6227  1.5808 -0.4627
  831MOL0     H12152   7.608   9.424   8.073 -2.0033 -1.7071  0.2261
  831MOL0     H12153   7.509   9.482   7.864  0.9564 -1.5043  1.5118
  831MOL0     H12154   7.410   9.609   7.928 -0.9447 -0.8665  2.3772
  831MOL0     H12155   7.710   9.581   7.947 -0.3949 -2.3099 -1.0797
  831MOL0     H12156   7.637   9.718   8.020  1.9960 -1.2741 -0.2101
  831MOL0     H12157   7.545   9.797   7.803  0.2414  0.7290  0.3259
  831MOL0     H12158   7.616   9.667   7.714 -1.1401  0.1247 -0.7679
  831MOL0     H12159   7.750   9.886   7.695 -0.3431  0.2634  0.2056
  831MOL0     H12160   7.778   9.875   7.864 -3.5844 -0.7420  2.2466
  831MOL0     H12161   7.827   9.643   7.681  1.7141 -0.8850 -1.4104
  831MOL0     H12162   7.919   9.681   7.836  2.4813 -0.4608 -0.8619
  831MOL0     H12163   8.055   9.842   7.743 -0.0974 -0.0932 -0.2480
  831MOL0     H12164   8.068   9.692   7.652 -0.2117 -1.2161  2.2096
  831MOL0     H12165   7.336   9.456   8.388  1.0712 -0.5733  1.1776
  831MOL0     H12166   7.129   9.396   8.503 -0.8485  1.2357 -2.0382
  831MOL0     H12167   6.794   8.815   8.551  0.6806  0.9220  1.2862
  831MOL0     H12168   6.567   8.794   8.619 -0.6256  0.1344 -0.4040
  831MOL0     H12169   4.937   9.383   8.999 -1.0572  2.4116 -0.1900
  831MOL0     H12170   4.797   9.189   8.966  2.2682 -1.4360 -0.9268
  831MOL0     H12171   4.767   8.645   9.298 -1.4071 -1.1164 -0.3776
  831MOL0     H12172   4.745   8.428   9.185 -1.3149  0.8144 -0.1228
  831MOL0     H12173   4.510   8.426   9.002 -0.3431  0.7474 -0.1662
  831MOL0     H12174   4.583   8.265   8.999  1.6217 -0.5145 -0.8343
  831MOL0     H12175   4.564   8.240   8.760  3.3633  0.2941  0.7882
  831MOL0     H12176   4.516   8.417   8.744 -1.7448  2.2962  1.7468
  831MOL0     H12177   4.309   8.385   8.857  0.8348 -1.4620  3.4825
  831MOL0     H12178   4.342   8.219   8.900  1.8439  0.4712  2.1827
  831MOL0     H12179   4.197   8.232   8.717 -0.1724  1.9027  0.4913
  831MOL0     H12180   4.297   8.335   8.613 -0.2074  1.4812  0.6229
  831MOL0     H12181   4.498   7.981   8.521  0.3554  0.4877  0.9661
  831MOL0     H12182   4.713   8.626   8.813 -0.8135 -0.8724  0.5971
  831MOL0     H12183   4.845   8.881   8.828 -0.8363 -2.6880 -3.4413
  831MOL0     H12184   4.672   8.844   8.798 -3.0909 -1.3870  2.7388
  831MOL0     H12185   4.720   8.978   8.906  0.9876  1.2431 -1.6935
  832MOL0     O12186   7.850   4.124   1.858  0.2635 -0.3297  0.5539
  832MOL0     C12187   7.807   4.015   1.882  0.0807  0.2119  0.1425
  832MOL0     O12188   7.861   3.930   1.958 -0.0916 -0.4518  0.9193
  832MOL0     C12189   7.999   3.935   1.978 -0.4964  0.6632  0.4356
  832MOL0     C12190   8.089   3.871   1.885  0.6877 -0.0535  0.4214
  832MOL0     C12191   8.222   3.868   1.921 -0.8899  0.3340 -0.1007
  832MOL0     C12192   8.270   3.914   2.045  0.6097  0.1734  0.3460
  832MOL0     O12193   8.400   3.907   2.067 -0.4798 -0.1507 -0.5149
  832MOL0     C12194   8.472   4.032   2.086 -0.0263 -0.0051 -0.2553
  832MOL0     C12195   8.622   4.008   2.074 -0.4830 -0.1289  0.2656
  832MOL0     C12196   8.706   4.126   2.106 -0.5645  0.3110 -0.5616
  832MOL0     C12197   8.853   4.088   2.125  0.0550  0.6062  0.3197
  832MOL0     C12198   8.926   4.215   2.181 -0.6318 -0.1370  0.3935
  832MOL0     C12199   9.074   4.178   2.183 -1.3737  0.2476  0.2728
  832MOL0     C12200   9.165   4.302   2.216  0.3269 -0.3922 -0.6254
  832MOL0     C12201   9.314   4.258   2.234  0.1266  0.7519 -0.1247
  832MOL0     N12202   9.404   4.381   2.220 -0.2197 -0.5713  0.1088
  832MOL0     C12203   9.423   4.484   2.315 -0.0878 -0.3469 -0.2568
  832MOL0     C12204   9.521   4.564   2.260  0.1460  0.0332  0.1834
  832MOL0     C12205   9.594   4.676   2.344 -0.1146  0.5067  0.6904
  832MOL0     C12206   9.737   4.642   2.370 -0.5214  0.1781 -0.3263
  832MOL0     C12207   9.812   4.738   2.459 -0.1968  0.4619  0.9570
  832MOL0     C12208   9.959   4.730   2.468 -0.6592  0.5278 -0.4159
  832MOL0     O12209  10.005   4.855   2.517  0.8234 -0.4833  0.8181
  832MOL0     C12210  10.144   4.880   2.528  1.0705 -0.1605  0.5773
  832MOL0     C12211  10.197   5.012   2.520 -0.0804 -0.4451 -0.1150
  832MOL0     C12212  10.338   5.035   2.531  0.0317  0.3201  0.8419
  832MOL0     C12213  10.432   4.929   2.532  0.5003  0.0417 -0.4714
  832MOL0     C12214  10.580   4.961   2.554 -0.4930  1.1663 -0.1832
  832MOL0     O12215  10.655   4.855   2.585 -0.0902 -0.6089 -0.4950
  832MOL0     C12216  10.779   4.884   2.627 -0.2007  0.1182 -0.5181
  832MOL0     C12217  10.800   4.962   2.738  0.1636 -0.0033 -0.0853
  832MOL0     C12218  10.928   4.983   2.775 -0.2899 -0.4858 -0.3171
  832MOL0     C12219  11.039   4.912   2.728  0.2511 -0.5447  0.2244
  832MOL0     O12220  11.164   4.919   2.787 -0.1373 -0.4072  0.4483
  832MOL0     C12221  11.224   5.042   2.754 -0.2457  0.1079 -0.1893
  832MOL0     C12222  11.345   5.047   2.851 -0.0876  0.0115  1.2241
  832MOL0     C12223  11.449   5.149   2.796  0.2826 -0.0944  0.1535
  832MOL0     C12224  11.580   5.143   2.886 -0.3096 -0.6966 -0.3474
  832MOL0     C12225  11.714   5.189   2.819 -0.1141  0.3270  0.4416
  832MOL0     C12226  11.804   5.255   2.916 -0.1552 -0.0785  0.2733
  832MOL0     C12227  11.942   5.300   2.864  0.2291 -0.7764  0.3131
  832MOL0     C12228  11.923   5.423   2.782  0.0643  0.1711  0.2556
  832MOL0    Cl12229  12.086   5.464   2.700 -0.1052  0.0546  0.0729
  832MOL0     C12230  11.018   4.828   2.629 -0.4843 -0.0418  0.0357
  832MOL0     C12231  10.889   4.814   2.572  0.6902  0.0351 -0.0948
  832MOL0     O12232  10.615   5.078   2.548  1.0102 -0.0235  0.1362
  832MOL0     C12233  10.386   4.797   2.546  0.6363  0.8730  0.2099
  832MOL0     C12234  10.240   4.778   2.540  0.2508  0.1419  0.7855
  832MOL0     N12235   9.555   4.510   2.136 -0.6019  0.3512  0.2739
  832MOL0     N12236   9.492   4.395   2.121 -0.0480  0.7716 -0.6509
  832MOL0     C12237   8.184   3.974   2.136  0.1621  0.6419  0.3867
  832MOL0     C12238   8.053   3.985   2.096 -0.6691  0.8911  0.5653
  832MOL0     C12239   7.670   3.964   1.834 -0.1259 -0.5171  0.1987
  832MOL0     C12240   7.626   3.828   1.859  0.5455 -0.0129  0.1062
  832MOL0     C12241   7.502   3.788   1.811  0.3132  0.1036  0.8387
  832MOL0     C12242   7.412   3.872   1.753  0.7132  0.6414  0.5626
  832MOL0     O12243   7.301   3.811   1.698  0.0848  0.3562 -0.3935
  832MOL0     C12244   7.217   3.894   1.609 -0.5637  1.4641 -0.8415
  832MOL0     C12245   7.092   3.806   1.588  0.2671  0.9894  0.2665
  832MOL0     C12246   6.989   3.829   1.698  0.5183  0.9384 -0.0227
  832MOL0     C12247   6.907   3.950   1.679 -0.3458  0.2177  0.3497
  832MOL0     C12248   6.818   3.976   1.797  0.3385  0.2143 -0.3456
  832MOL0     C12249   6.744   4.011   1.883 -0.4321 -0.5553  0.2914
  832MOL0     C12250   7.449   4.006   1.735  0.3840  0.3427  0.4294
  832MOL0     C12251   7.576   4.054   1.775 -0.2453 -0.2530  0.0744
  832MOL0     C12252   7.593   4.201   1.757 -0.6328 -0.2642  1.0278
  832MOL0     H12253   8.050   3.836   1.790  0.6993  0.0386  0.3826
  832MOL0     H12254   8.295   3.829   1.851  1.7505  0.6597  2.3371
  832MOL0     H12255   8.441   4.104   2.010 -2.7575 -2.5829 -1.7864
  832MOL0     H12256   8.462   4.074   2.186  0.0904  1.5879 -0.8794
  832MOL0     H12257   8.642   3.985   1.969  1.0702 -2.6069  1.0325
  832MOL0     H12258   8.646   3.920   2.133 -0.9921 -0.8301 -0.5507
  832MOL0     H12259   8.668   4.184   2.190  0.2339 -0.2286  0.1935
  832MOL0     H12260   8.705   4.192   2.019  1.4247  3.3459  1.5287
  832MOL0     H12261   8.876   3.994   2.176 -2.3695 -0.9440 -1.2220
  832MOL0     H12262   8.905   4.060   2.032  3.9490 -0.4359  2.5868
  832MOL0     H12263   8.918   4.304   2.119  0.3790 -1.8743 -2.4072
  832MOL0     H12264   8.894   4.247   2.281  0.3256 -0.4073  0.8032
  832MOL0     H12265   9.099   4.106   2.261 -1.0584  0.1899  0.1210
  832MOL0     H12266   9.104   4.151   2.081  1.9264  4.7988 -0.2978
  832MOL0     H12267   9.137   4.345   2.312 -3.0313  1.1919 -2.1541
  832MOL0     H12268   9.149   4.386   2.148  2.6129  1.8921  1.4304
  832MOL0     H12269   9.313   4.215   2.334 -1.0197  1.9133  0.4031
  832MOL0     H12270   9.337   4.190   2.152  1.8308  3.6922 -2.2645
  832MOL0     H12271   9.381   4.487   2.415 -0.0320 -0.6813 -0.2215
  832MOL0     H12272   9.585   4.769   2.288  0.1153 -1.1900 -2.3768
  832MOL0     H12273   9.539   4.684   2.438 -1.1213 -0.5895  0.2169
  832MOL0     H12274   9.754   4.545   2.417  4.6608  0.7943 -0.3332
  832MOL0     H12275   9.792   4.651   2.276  1.6822 -0.1160  0.8558
  832MOL0     H12276   9.764   4.726   2.556  0.8767  0.9131  1.5646
  832MOL0     H12277   9.804   4.840   2.418  2.7163  0.4230  0.0923
  832MOL0     H12278  10.015   4.701   2.379 -0.3346  2.1592 -0.7762
  832MOL0     H12279   9.982   4.658   2.548 -1.7365  0.4419 -0.1692
  832MOL0     H12280  10.133   5.097   2.501  3.2915  1.9838 -1.7329
  832MOL0     H12281  10.379   5.133   2.509  2.1364 -1.3383 -4.1171
  832MOL0     H12282  10.727   5.015   2.798  1.1844  4.8416 -2.5959
  832MOL0     H12283  10.943   5.040   2.865  0.3144 -2.3948  0.8548
  832MOL0     H12284  11.253   5.049   2.649  5.1899  0.2668  0.9870
  832MOL0     H12285  11.158   5.124   2.782 -0.5859  0.1905 -1.2050
  832MOL0     H12286  11.317   5.069   2.955 -0.3564  1.9076  0.7933
  832MOL0     H12287  11.402   4.955   2.839 -0.4318  0.0488 -1.2229
  832MOL0     H12288  11.467   5.126   2.691 -1.8874 -0.0255 -0.2737
  832MOL0     H12289  11.406   5.249   2.812 -3.7590 -1.7741  0.9734
  832MOL0     H12290  11.597   5.040   2.919  0.6975 -1.5160 -3.1327
  832MOL0     H12291  11.558   5.204   2.974 -1.8718  2.8916 -3.0136
  832MOL0     H12292  11.690   5.259   2.739  0.1212 -1.2914 -1.0992
  832MOL0     H12293  11.769   5.104   2.779  0.8007  1.0368  0.1786
  832MOL0     H12294  11.749   5.340   2.957 -1.5852 -1.6919  1.8343
  832MOL0     H12295  11.823   5.188   3.001  1.1091  1.2591  1.0931
  832MOL0     H12296  11.992   5.228   2.798  1.6623 -0.4166  0.9629
  832MOL0     H12297  12.018   5.313   2.941  0.2467  1.1189  0.0231
  832MOL0     H12298  11.839   5.418   2.712  1.6586 -0.1942 -1.7345
  832MOL0     H12299  11.904   5.504   2.853  0.6224 -0.6921  1.4231
  832MOL0     H12300  11.099   4.776   2.580 -1.5842 -0.3507 -1.5440
  832MOL0     H12301  10.866   4.743   2.494 -0.5425 -1.1831  1.3041
  832MOL0     H12302  10.449   4.709   2.544 -0.2153  0.2532 -1.1950
  832MOL0     H12303  10.204   4.676   2.544 -1.3834  0.6858  0.6641
  832MOL0     H12304   8.217   4.013   2.232 -0.0273  3.9673 -0.7519
  832MOL0     H12305   7.971   4.002   2.166  0.8071  1.3938  2.2619
  832MOL0     H12306   7.691   3.763   1.916  2.0618  0.4843 -0.9737
  832MOL0     H12307   7.468   3.686   1.827 -0.1502  0.0887 -0.1503
  832MOL0     H12308   7.270   3.910   1.515  0.9422  1.1748 -0.0776
  832MOL0     H12309   7.185   3.984   1.663  0.9303  0.8088  1.2355
  832MOL0     H12310   7.114   3.699   1.577  4.1670  1.6791 -0.1544
  832MOL0     H12311   7.037   3.829   1.496 -1.3317  2.9332  1.6202
  832MOL0     H12312   7.044   3.827   1.793  0.7665 -1.6366 -0.1448
  832MOL0     H12313   6.924   3.741   1.695  1.0178  0.5931 -2.5704
  832MOL0     H12314   6.960   4.041   1.648 -1.3348  0.0259 -2.1452
  832MOL0     H12315   6.850   3.933   1.587  0.7200 -0.7579 -0.1501
  832MOL0     H12316   6.674   4.027   1.963 -0.0081 -0.2396  0.6056
  832MOL0     H12317   7.377   4.078   1.696 -0.5565 -0.8532 -0.1061
  832MOL0     H12318   7.642   4.252   1.841 -1.2516  0.4715  0.9495
  832MOL0     H12319   7.656   4.211   1.668 -2.1118 -1.5700 -0.2072
  832MOL0     H12320   7.499   4.251   1.733  0.2153  0.9534  0.0725
  833MOL0     O12321   7.684   0.122   0.763 -0.1128  0.5314 -0.3773
  833MOL0     C12322   7.648   0.006   0.783  0.6402  0.8179  0.9021
  833MOL0     O12323   7.698  -0.081   0.874 -0.5162 -0.1312 -0.1057
  833MOL0     C12324   7.817  -0.051   0.930 -0.7235 -0.0383 -0.1319
  833MOL0     C12325   7.930  -0.006   0.860 -0.2444  0.7711  0.4598
  833MOL0     C12326   8.047   0.010   0.929  0.6140  0.4470  0.7191
  833MOL0     C12327   8.059  -0.002   1.068  1.1164  0.1965  0.2401
  833MOL0     O12328   8.175   0.028   1.140  0.2633 -0.0223  0.6222
  833MOL0     C12329   8.282   0.086   1.069 -0.3306  0.2893  0.4769
  833MOL0     C12330   8.384   0.102   1.172 -0.3751 -0.5676 -0.5684
  833MOL0     C12331   8.534   0.129   1.129 -0.0815  0.5959 -0.0570
  833MOL0     C12332   8.632   0.118   1.246  0.5495 -0.0249 -0.4059
  833MOL0     C12333   8.780   0.135   1.188 -0.0980 -0.3521 -0.1461
  833MOL0     C12334   8.883   0.150   1.302 -1.2396  0.2290 -0.2135
  833MOL0     C12335   9.023   0.176   1.247  0.0862  1.0746  0.4579
  833MOL0     C12336   9.054   0.333   1.233  0.0217 -0.0845  0.4473
  833MOL0     N12337   9.195   0.337   1.205  0.0074 -0.2204 -0.4243
  833MOL0     C12338   9.298   0.330   1.302  0.0488 -0.5978  0.2697
  833MOL0     C12339   9.405   0.307   1.225  0.5596 -1.3292 -0.2072
  833MOL0     C12340   9.547   0.294   1.267 -0.1672  0.4914  0.4976
  833MOL0     C12341   9.602   0.435   1.295 -0.0218  0.1675  0.0372
  833MOL0     C12342   9.754   0.432   1.287 -0.4981  1.2018 -0.8699
  833MOL0     C12343   9.829   0.565   1.287 -0.4653 -0.2125 -0.7451
  833MOL0     O12344   9.968   0.546   1.262 -0.3012 -0.0631  0.5980
  833MOL0     C12345  10.051   0.650   1.254  0.5665 -0.4030 -0.3093
  833MOL0     C12346  10.183   0.618   1.251 -0.6708  0.7615  0.7455
  833MOL0     C12347  10.276   0.719   1.255 -0.6114 -0.2910 -0.4013
  833MOL0     C12348  10.247   0.856   1.252 -0.4619 -0.6035  0.4315
  833MOL0     C12349  10.356   0.950   1.263  0.4327  0.3121  0.0626
  833MOL0     O12350  10.484   0.897   1.262 -0.3794  0.0915 -0.3395
  833MOL0     C12351  10.584   0.988   1.295 -0.2818 -0.0842  0.3294
  833MOL0     C12352  10.688   1.008   1.204  0.4807  0.1011  0.7459
  833MOL0     C12353  10.806   1.068   1.240 -0.5595 -1.3356  0.5621
  833MOL0     C12354  10.816   1.138   1.365 -0.3954  0.9139 -0.1277
  833MOL0     O12355  10.935   1.211   1.393  0.1259  0.4010 -0.0276
  833MOL0     C12356  10.964   1.255   1.529  0.5026  0.3246  0.3336
  833MOL0     C12357  10.991   1.403   1.524  0.2200  0.3339  0.6371
  833MOL0     C12358  11.143   1.425   1.516  0.2236 -0.6658  0.2812
  833MOL0     C12359  11.181   1.569   1.557 -1.0795 -0.2352 -1.1710
  833MOL0     C12360  11.331   1.605   1.519  0.3465 -0.0530  0.4413
  833MOL0     C12361  11.428   1.481   1.541  0.7319  0.1161 -0.3342
  833MOL0     C12362  11.564   1.533   1.523  0.3257  0.7316  0.3942
  833MOL0     C12363  11.640   1.599   1.629 -0.7866  0.0178  0.5831
  833MOL0    Cl12364  11.662   1.470   1.749  0.2559 -0.1549  0.3233
  833MOL0     C12365  10.702   1.137   1.454  0.5395  0.3991  0.4122
  833MOL0     C12366  10.592   1.058   1.413  0.2287 -0.2468  0.4251
  833MOL0     O12367  10.322   1.065   1.276  0.4001  0.0890 -0.2882
  833MOL0     C12368  10.107   0.891   1.264 -0.2713 -1.0523 -0.3385
  833MOL0     C12369  10.006   0.790   1.256  0.2788  0.1768 -0.3863
  833MOL0     N12370   9.372   0.309   1.090  0.2073 -0.4999 -0.2486
  833MOL0     N12371   9.250   0.343   1.083  0.6072  0.6004 -0.3702
  833MOL0     C12372   7.948  -0.053   1.130 -0.1711  0.9663 -0.3095
  833MOL0     C12373   7.826  -0.081   1.065  0.1530  0.3181 -1.0602
  833MOL0     C12374   7.526  -0.039   0.705 -0.3470  0.3156  0.8880
  833MOL0     C12375   7.491  -0.170   0.714 -0.3657 -0.0153 -0.7818
  833MOL0     C12376   7.377  -0.220   0.664  0.3186  0.2718  0.0485
  833MOL0     C12377   7.302  -0.145   0.573  0.4499  0.0802 -0.6427
  833MOL0     O12378   7.201  -0.194   0.504  0.3457  0.1149  0.3126
  833MOL0     C12379   7.069  -0.208   0.566 -1.0855  0.4420 -0.5403
  833MOL0     C12380   6.949  -0.166   0.481 -0.4654 -0.2677  0.1068
  833MOL0     C12381   6.818  -0.140   0.557  0.6429 -0.2685 -0.2034
  833MOL0     C12382   6.772  -0.262   0.639 -0.1054  0.1551 -0.2048
  833MOL0     C12383   6.671  -0.235   0.742  0.6058  0.2801 -0.3310
  833MOL0     C12384   6.598  -0.227   0.843  0.2704 -0.5831  0.7963
  833MOL0     C12385   7.337  -0.015   0.551 -0.1690  0.2969  0.1406
  833MOL0     C12386   7.447   0.042   0.616 -0.2323 -0.2986  0.2760
  833MOL0     C12387   7.463   0.191   0.592 -0.0319  0.4379 -0.1789
  833MOL0     H12388   7.924   0.022   0.755  0.4726  1.9859  0.7205
  833MOL0     H12389   8.129   0.043   0.866 -0.9112  0.4427 -1.3622
  833MOL0     H12390   8.320   0.019   0.992 -1.6730  1.4952 -1.3343
  833MOL0     H12391   8.246   0.175   1.016 -0.7811 -0.1920 -0.0390
  833MOL0     H12392   8.372   0.009   1.228 -3.4525 -0.9611 -1.6959
  833MOL0     H12393   8.356   0.180   1.244 -0.5775 -1.2446  0.1012
  833MOL0     H12394   8.537   0.229   1.083  0.0079  1.6627  2.1224
  833MOL0     H12395   8.566   0.057   1.054 -0.3405  1.2726 -0.8427
  833MOL0     H12396   8.612   0.199   1.316  0.6400 -0.9316  0.7046
  833MOL0     H12397   8.629   0.022   1.299 -2.4639  0.1945 -0.0200
  833MOL0     H12398   8.807   0.049   1.125  0.8057  0.2539 -0.5985
  833MOL0     H12399   8.780   0.227   1.129  0.8480 -1.4586 -1.9930
  833MOL0     H12400   8.860   0.236   1.367  0.1505  0.4610  0.0122
  833MOL0     H12401   8.885   0.059   1.363  1.5037 -0.0234 -0.5600
  833MOL0     H12402   9.036   0.125   1.151  1.3551  1.5031  0.3874
  833MOL0     H12403   9.094   0.129   1.316 -1.5276 -1.3869  0.5644
  833MOL0     H12404   9.007   0.381   1.147  4.3170  3.1064 -0.5056
  833MOL0     H12405   9.027   0.395   1.319 -1.7760  1.4788 -1.1529
  833MOL0     H12406   9.306   0.334   1.410  0.2868  0.5115  0.2226
  833MOL0     H12407   9.558   0.229   1.353 -1.7866  0.0779  0.4296
  833MOL0     H12408   9.605   0.247   1.187 -0.6678 -1.6759  1.3440
  833MOL0     H12409   9.562   0.511   1.226 -0.5333 -0.1877 -0.0618
  833MOL0     H12410   9.572   0.473   1.393  0.4005  0.4544  0.0578
  833MOL0     H12411   9.793   0.380   1.199  0.5978 -0.4169  0.4960
  833MOL0     H12412   9.796   0.365   1.363 -1.0124  0.5274 -1.1679
  833MOL0     H12413   9.817   0.621   1.380  1.8745  0.1771 -0.6061
  833MOL0     H12414   9.785   0.625   1.207  1.8038  0.7213 -1.3843
  833MOL0     H12415  10.212   0.513   1.251  1.3036  1.1841 -1.8903
  833MOL0     H12416  10.377   0.679   1.257  0.3489  1.8378 -1.9539
  833MOL0     H12417  10.708   0.941   1.121  4.3058  2.3557 -0.4117
  833MOL0     H12418  10.886   1.056   1.168 -0.5996 -0.8675  0.4383
  833MOL0     H12419  10.879   1.234   1.595 -0.3097 -0.2163 -0.8456
  833MOL0     H12420  11.045   1.190   1.562  0.0345 -1.2746 -1.4689
  833MOL0     H12421  10.933   1.451   1.445 -1.0343 -0.3597  1.1171
  833MOL0     H12422  10.961   1.452   1.618 -0.3530  1.0025  0.1110
  833MOL0     H12423  11.189   1.367   1.597  0.5583 -0.6731  0.0873
  833MOL0     H12424  11.183   1.398   1.418  1.6804  3.3477 -0.4353
  833MOL0     H12425  11.175   1.573   1.666  0.5943  1.0659 -1.0810
  833MOL0     H12426  11.119   1.653   1.524  1.4640  3.0938  1.6734
  833MOL0     H12427  11.366   1.684   1.585  1.0271 -0.2692  0.3493
  833MOL0     H12428  11.344   1.647   1.418 -3.4346 -1.1968 -0.6951
  833MOL0     H12429  11.418   1.438   1.641 -0.4714  2.3929  0.6062
  833MOL0     H12430  11.408   1.411   1.460  1.1957 -0.4489  0.0267
  833MOL0     H12431  11.559   1.591   1.431  0.6960  2.1507  1.2390
  833MOL0     H12432  11.633   1.451   1.499 -1.0565 -0.7277  1.2390
  833MOL0     H12433  11.738   1.629   1.594 -0.5475 -2.3567 -1.0266
  833MOL0     H12434  11.588   1.684   1.675  0.5281 -1.1922  4.8099
  833MOL0     H12435  10.696   1.196   1.545  1.3320  0.2539  0.5716
  833MOL0     H12436  10.514   1.039   1.485  1.4670  1.5206  2.3516
  833MOL0     H12437  10.074   0.994   1.270  1.4064 -0.5788  2.3584
  833MOL0     H12438   9.903   0.822   1.248 -0.6938 -2.4427  0.6564
  833MOL0     H12439   7.957  -0.075   1.236 -0.8103  0.3152 -0.3781
  833MOL0     H12440   7.740  -0.122   1.116 -0.8670  3.2751 -0.2300
  833MOL0     H12441   7.531  -0.240   0.787 -0.6787 -0.7386 -1.2910
  833MOL0     H12442   7.334  -0.319   0.667 -1.6430  1.0762 -0.4949
  833MOL0     H12443   7.067  -0.142   0.653  1.4674  1.6778 -1.3080
  833MOL0     H12444   7.067  -0.312   0.601  4.1347  0.2077 -0.1409
  833MOL0     H12445   6.936  -0.234   0.396  0.7382  1.3795 -1.4871
  833MOL0     H12446   6.977  -0.069   0.437  0.4841 -0.1331  0.9664
  833MOL0     H12447   6.741  -0.108   0.485 -0.0751  1.4199  1.2321
  833MOL0     H12448   6.844  -0.062   0.629 -0.3450 -0.8805  0.8487
  833MOL0     H12449   6.731  -0.333   0.566 -0.5877  2.0373 -1.8515
  833MOL0     H12450   6.853  -0.309   0.695 -0.7398  1.7480  2.2351
  833MOL0     H12451   6.548  -0.205   0.935  2.0848  1.5142  1.3530
  833MOL0     H12452   7.263   0.031   0.486 -0.3972 -1.0102 -0.5523
  833MOL0     H12453   7.552   0.215   0.534  0.8599  0.0135  0.9691
  833MOL0     H12454   7.375   0.228   0.538 -1.4740 -1.5553  0.6830
  833MOL0     H12455   7.466   0.241   0.689  0.2388 -1.5011  0.8562
  834MOL0     O12456   5.802   1.803   9.532  0.3913  0.5784 -0.7693
  834MOL0     C12457   5.710   1.746   9.470 -0.5276 -0.4354  0.3061
  834MOL0     O12458   5.727   1.725   9.340 -0.3139 -0.1908 -0.4146
  834MOL0     C12459   5.839   1.774   9.279  0.3508 -0.3671  0.2652
  834MOL0     C12460   5.962   1.724   9.304  0.0813 -0.5627  0.1288
  834MOL0     C12461   6.080   1.782   9.244 -0.9378  0.1965 -0.3555
  834MOL0     C12462   6.061   1.896   9.158 -0.7263 -0.6355  0.2510
  834MOL0     O12463   6.166   1.979   9.117  0.0628  0.3338 -0.7215
  834MOL0     C12464   6.287   1.982   9.197 -0.9833  1.5471  0.2449
  834MOL0     C12465   6.382   2.082   9.145 -0.6585 -0.0211 -1.0399
  834MOL0     C12466   6.521   2.076   9.223 -0.0733  0.5154  0.0092
  834MOL0     C12467   6.632   2.158   9.155  0.4970 -0.8860  0.4437
  834MOL0     C12468   6.761   2.166   9.237  0.4358 -0.7120  0.5571
  834MOL0     C12469   6.837   2.031   9.244 -0.5300 -0.3714 -1.1138
  834MOL0     C12470   6.958   2.026   9.332 -0.5622 -0.1281  0.2574
  834MOL0     C12471   6.923   2.029   9.485  0.3310  0.1687  0.0108
  834MOL0     N12472   7.044   2.057   9.558 -1.1180  0.7609  0.0089
  834MOL0     C12473   7.057   2.137   9.672  0.0160  0.3325 -0.2887
  834MOL0     C12474   7.190   2.120   9.707 -0.0269 -0.6383  1.1165
  834MOL0     C12475   7.254   2.215   9.809  0.7103  0.5363  1.0045
  834MOL0     C12476   7.258   2.130   9.940 -0.2494 -0.1393 -0.1456
  834MOL0     C12477   7.323   2.194  10.063 -0.3297 -0.6011 -0.2455
  834MOL0     C12478   7.466   2.220  10.033  0.0793  0.5777 -0.2938
  834MOL0     O12479   7.540   2.226  10.165  0.1338  0.2400 -0.2387
  834MOL0     C12480   7.631   2.326  10.171 -0.9301 -0.7777 -0.1179
  834MOL0     C12481   7.601   2.429  10.261  0.1174 -0.5964  0.0384
  834MOL0     C12482   7.700   2.524  10.286  0.0480  0.8892 -0.9834
  834MOL0     C12483   7.836   2.511  10.225 -0.4651 -0.1103 -0.0269
  834MOL0     C12484   7.940   2.619  10.250  0.6122  0.3785 -0.1650
  834MOL0     O12485   7.900   2.727  10.328 -0.2158  0.5229  0.2627
  834MOL0     C12486   7.989   2.821  10.348 -0.1395  0.9106 -0.2598
  834MOL0     C12487   7.951   2.961  10.325  0.3499 -0.0093  0.3157
  834MOL0     C12488   8.041   3.058  10.360  0.3459 -0.1931 -0.4040
  834MOL0     C12489   8.158   3.024  10.419 -0.0564 -0.8401 -0.0477
  834MOL0     O12490   8.241   3.131  10.452  0.4060 -0.2514 -0.0728
  834MOL0     C12491   8.325   3.129  10.569 -1.0307 -0.5343  0.1873
  834MOL0     C12492   8.404   3.269  10.572 -0.6012  0.0035 -0.8988
  834MOL0     C12493   8.525   3.269  10.474  0.5288 -0.5445  0.0889
  834MOL0     C12494   8.662   3.225  10.539  0.4650  0.1807  0.7838
  834MOL0     C12495   8.783   3.227  10.447  0.5883  0.0863 -0.1652
  834MOL0     C12496   8.912   3.182  10.525  0.0378  0.4342 -0.2040
  834MOL0     C12497   9.037   3.207  10.437  1.4383  0.2868  0.1332
  834MOL0     C12498   9.161   3.131  10.486  0.6670 -0.0628 -0.2280
  834MOL0    Cl12499   9.303   3.188  10.396  0.1461  0.1629 -0.3051
  834MOL0     C12500   8.195   2.897  10.428  0.7334  0.1268  0.7142
  834MOL0     C12501   8.115   2.788  10.401  0.9994 -0.4305 -0.1235
  834MOL0     O12502   8.044   2.611  10.183  0.9287  0.5567 -0.5811
  834MOL0     C12503   7.858   2.403  10.141  0.3747  0.1367  0.0336
  834MOL0     C12504   7.757   2.309  10.115 -0.0758  0.7204 -0.1578
  834MOL0     N12505   7.254   2.038   9.613  0.0194  0.0539 -0.7396
  834MOL0     N12506   7.164   2.006   9.526 -0.3663 -0.1988 -0.3651
  834MOL0     C12507   5.935   1.948   9.129  0.4808 -0.3073  0.1604
  834MOL0     C12508   5.824   1.889   9.198 -0.1736  0.8998  0.2197
  834MOL0     C12509   5.589   1.694   9.541  0.3259  0.5977 -0.3274
  834MOL0     C12510   5.580   1.745   9.671 -0.3531  0.6436  0.4949
  834MOL0     C12511   5.468   1.708   9.751  0.4194 -0.6042 -0.5846
  834MOL0     C12512   5.358   1.628   9.707 -0.2232 -0.6860  0.6479
  834MOL0     O12513   5.237   1.626   9.780 -0.5806  0.3431 -0.0366
  834MOL0     C12514   5.114   1.632   9.710  0.1587  0.2284  0.3249
  834MOL0     C12515   5.010   1.681   9.797  0.8959  0.1745  0.0696
  834MOL0     C12516   4.984   1.571   9.898 -0.3922 -0.1434  0.1070
  834MOL0     C12517   4.872   1.599   9.992  0.8167 -0.7992 -0.2147
  834MOL0     C12518   4.739   1.569   9.925  0.0745  0.1629  0.1105
  834MOL0     C12519   4.638   1.544   9.869  0.0068 -0.0975 -0.0638
  834MOL0     C12520   5.374   1.578   9.574 -0.1318 -0.8611  0.1681
  834MOL0     C12521   5.492   1.608   9.494 -0.3104  0.1204 -0.4624
  834MOL0     C12522   5.494   1.547   9.355 -0.0504 -0.1058  0.1858
  834MOL0     H12523   5.971   1.638   9.370 -3.4093  0.3007  1.9833
  834MOL0     H12524   6.175   1.731   9.255 -0.9146  0.1344 -0.8351
  834MOL0     H12525   6.258   2.001   9.301 -0.8013  0.7923  0.4350
  834MOL0     H12526   6.333   1.884   9.190 -0.9799  1.6599 -2.5662
  834MOL0     H12527   6.331   2.179   9.146 -1.8401 -0.5915  0.9233
  834MOL0     H12528   6.403   2.048   9.043  0.2255 -4.5385  0.4022
  834MOL0     H12529   6.557   1.974   9.236 -1.4293 -0.3311 -2.1795
  834MOL0     H12530   6.502   2.116   9.323  1.0822  1.8045 -0.2548
  834MOL0     H12531   6.658   2.131   9.053  0.9621  1.6781 -0.2003
  834MOL0     H12532   6.595   2.261   9.143  3.2042  0.5236  2.8385
  834MOL0     H12533   6.829   2.244   9.202  0.3902 -0.5403  0.8487
  834MOL0     H12534   6.734   2.192   9.340  0.0282 -0.1704  0.3200
  834MOL0     H12535   6.765   1.965   9.294  0.9263  1.5484  4.2777
  834MOL0     H12536   6.864   2.005   9.141  0.8642 -0.0655 -0.8393
  834MOL0     H12537   7.018   2.116   9.316  1.7407 -1.5469  0.3268
  834MOL0     H12538   7.016   1.934   9.318  0.6994  0.6105  0.4472
  834MOL0     H12539   6.857   2.113   9.507 -0.1958  0.0117 -0.9255
  834MOL0     H12540   6.875   1.938   9.522  1.7242 -0.7672 -0.3910
  834MOL0     H12541   6.979   2.191   9.726 -0.5817 -0.0286 -0.7763
  834MOL0     H12542   7.350   2.255   9.775  0.4934  2.1614  2.1442
  834MOL0     H12543   7.185   2.300   9.816  0.5319  0.4761  0.0626
  834MOL0     H12544   7.157   2.105   9.974 -0.1847  2.6135  2.5549
  834MOL0     H12545   7.316   2.040   9.921  1.6408  0.9096  0.3814
  834MOL0     H12546   7.315   2.123  10.146 -1.9923 -1.5005 -1.1302
  834MOL0     H12547   7.260   2.283  10.078 -1.2225 -1.0342 -1.2689
  834MOL0     H12548   7.471   2.319   9.986  2.7138  1.5060  1.6993
  834MOL0     H12549   7.511   2.149   9.963 -1.2036  0.6830 -1.2452
  834MOL0     H12550   7.501   2.437  10.304  0.5321  1.1065  0.7854
  834MOL0     H12551   7.682   2.603  10.358  0.0701  1.7810 -1.9321
  834MOL0     H12552   7.861   2.996  10.274  1.1228  1.4808 -0.0636
  834MOL0     H12553   8.019   3.161  10.335  0.9135  0.0048 -0.0960
  834MOL0     H12554   8.263   3.120  10.659  0.0264 -0.5744  0.9363
  834MOL0     H12555   8.396   3.046  10.557 -1.2177 -0.5538 -0.8637
  834MOL0     H12556   8.333   3.348  10.544  0.4413  0.4696 -2.3465
  834MOL0     H12557   8.447   3.278  10.672 -2.7236  0.3166  0.0242
  834MOL0     H12558   8.503   3.211  10.383  0.8130  1.8123 -1.5916
  834MOL0     H12559   8.531   3.373  10.439  0.2085 -0.6939 -0.4289
  834MOL0     H12560   8.659   3.122  10.576  0.5333 -0.6741 -1.4528
  834MOL0     H12561   8.670   3.288  10.628 -1.0008 -1.7329  2.3656
  834MOL0     H12562   8.787   3.324  10.397 -1.2675  0.0714 -0.4261
  834MOL0     H12563   8.760   3.152  10.371 -0.6128 -1.6745  1.8036
  834MOL0     H12564   8.926   3.236  10.619 -0.3410 -1.2395  0.8644
  834MOL0     H12565   8.903   3.077  10.556 -0.5067  0.0486 -1.5858
  834MOL0     H12566   9.054   3.314  10.422  1.9811 -0.1937 -3.5681
  834MOL0     H12567   9.026   3.173  10.333  0.7030  0.0260  0.2911
  834MOL0     H12568   9.170   3.138  10.595 -0.6999  2.4793 -0.2150
  834MOL0     H12569   9.141   3.026  10.463 -0.7500  0.4381 -1.4010
  834MOL0     H12570   8.298   2.875  10.454  1.4345  1.0422 -1.0966
  834MOL0     H12571   8.145   2.689  10.433  1.0228  0.0571  1.4805
  834MOL0     H12572   7.949   2.391  10.084 -0.0146 -4.8102  0.0345
  834MOL0     H12573   7.770   2.224  10.049 -3.3966 -1.1899  1.4145
  834MOL0     H12574   5.922   2.034   9.064 -3.9727 -0.3706  0.6172
  834MOL0     H12575   5.724   1.923   9.172 -0.4680  0.5636  0.8894
  834MOL0     H12576   5.652   1.817   9.708  1.2186  0.5008 -2.0668
  834MOL0     H12577   5.452   1.749   9.850  0.8200 -1.6896 -0.0547
  834MOL0     H12578   5.086   1.533   9.670  1.3816  0.6623 -1.7770
  834MOL0     H12579   5.123   1.693   9.620 -2.5637  2.8702  1.6674
  834MOL0     H12580   4.923   1.699   9.734  1.7140  0.3048 -1.0536
  834MOL0     H12581   5.035   1.779   9.839  0.9525  0.9871 -1.7709
  834MOL0     H12582   5.071   1.572   9.964 -0.4578  0.3961  0.1880
  834MOL0     H12583   4.973   1.470   9.857 -2.1368 -0.2654  0.7867
  834MOL0     H12584   4.872   1.537  10.082  1.4774  0.4831  0.7040
  834MOL0     H12585   4.871   1.708  10.004  0.3850 -0.9236  1.0652
  834MOL0     H12586   4.543   1.527   9.824 -1.1892 -1.4960  2.7272
  834MOL0     H12587   5.296   1.514   9.535 -3.3523  2.8089 -0.0434
  834MOL0     H12588   5.587   1.495   9.331  0.3208  1.6872 -2.8687
  834MOL0     H12589   5.413   1.475   9.341  0.2909 -0.2142 -1.4063
  834MOL0     H12590   5.487   1.619   9.273  1.9295 -1.4000 -1.2165
  835MOL0     O12591   9.881   1.119   9.792 -0.2676  0.8676 -0.0397
  835MOL0     C12592   9.842   1.139   9.906  0.5399 -0.6192 -0.6338
  835MOL0     O12593   9.920   1.139  10.023 -0.4673 -0.7185  0.2229
  835MOL0     C12594  10.031   1.064  10.043  0.5131  0.8342  0.5009
  835MOL0     C12595  10.129   1.109  10.128  0.1941  0.4639 -0.2511
  835MOL0     C12596  10.249   1.043  10.150 -0.3314  0.2586  0.4842
  835MOL0     C12597  10.268   0.912  10.098 -0.0386 -0.2866 -0.0640
  835MOL0     O12598  10.381   0.844  10.139 -0.1008  0.5031  0.2100
  835MOL0     C12599  10.454   0.768  10.046  0.2119  0.4459 -0.0970
  835MOL0     C12600  10.570   0.714  10.125 -1.4700 -0.3884  0.3683
  835MOL0     C12601  10.670   0.661  10.020 -1.0421 -0.1906 -0.1275
  835MOL0     C12602  10.774   0.589  10.095 -0.0856 -0.2699 -0.5318
  835MOL0     C12603  10.889   0.520  10.010  0.8045  0.2749 -0.6963
  835MOL0     C12604  10.984   0.431  10.094  0.6924 -0.2612  0.6160
  835MOL0     C12605  11.048   0.509  10.203  0.2350  0.6607 -0.3951
  835MOL0     C12606  11.144   0.623  10.160  0.5704  0.3969  0.2696
  835MOL0     N12607  11.251   0.643  10.264 -0.5975  0.4394 -0.2629
  835MOL0     C12608  11.316   0.766  10.279  0.5331  0.5618 -1.0156
  835MOL0     C12609  11.422   0.743  10.362  0.4601 -0.6175  0.0213
  835MOL0     C12610  11.531   0.840  10.397 -0.2623  0.0801  0.4309
  835MOL0     C12611  11.641   0.823  10.294  0.4751 -0.9645 -0.4424
  835MOL0     C12612  11.748   0.714  10.329 -0.3806  0.5104  0.3413
  835MOL0     C12613  11.877   0.760  10.384  0.8081  0.8176  0.6334
  835MOL0     O12614  11.959   0.655  10.439  0.1472  0.6963  0.3683
  835MOL0     C12615  12.091   0.671  10.450  0.2149 -0.2689  0.2559
  835MOL0     C12616  12.156   0.793  10.437 -0.2025  0.1222  0.0007
  835MOL0     C12617  12.293   0.793  10.455  0.4583 -0.1018 -0.2699
  835MOL0     C12618  12.368   0.673  10.477 -0.0092 -1.0689 -0.4496
  835MOL0     C12619  12.508   0.675  10.527  0.2615 -0.2635 -0.2687
  835MOL0     O12620  12.566   0.550  10.560  0.8405 -0.5188 -0.3311
  835MOL0     C12621  12.701   0.543  10.603 -0.5916  0.4609 -0.6989
  835MOL0     C12622  12.802   0.526  10.516 -0.4553  0.2660 -0.3868
  835MOL0     C12623  12.930   0.523  10.558  0.7532  0.4480  0.3139
  835MOL0     C12624  12.971   0.550  10.687 -0.2265  0.5864 -1.5096
  835MOL0     O12625  13.111   0.547  10.719  0.0628 -0.4264  0.2364
  835MOL0     C12626  13.181   0.664  10.662 -0.2560  0.1635  0.3550
  835MOL0     C12627  13.234   0.657  10.518  0.3072 -0.1994 -0.5662
  835MOL0     C12628  13.344   0.547  10.499 -0.8915 -0.8150  0.3694
  835MOL0     C12629  13.389   0.539  10.354  0.0245 -0.6673 -0.0136
  835MOL0     C12630  13.519   0.464  10.336 -0.0248  0.4721  0.8157
  835MOL0     C12631  13.562   0.454  10.191 -0.3770  0.0948 -0.2596
  835MOL0     C12632  13.715   0.443  10.170 -0.1475 -0.6727  0.5754
  835MOL0     C12633  13.747   0.406  10.030 -0.0668 -0.6832 -0.6129
  835MOL0    Cl12634  13.920   0.392  10.004 -0.1140 -0.3318 -0.2654
  835MOL0     C12635  12.875   0.572  10.785 -0.2476 -0.4637 -0.1093
  835MOL0     C12636  12.737   0.569  10.742  0.1840 -0.4325 -0.0335
  835MOL0     O12637  12.563   0.782  10.549 -0.3287  0.2477  0.2266
  835MOL0     C12638  12.291   0.553  10.489 -0.3569 -0.3219 -0.3088
  835MOL0     C12639  12.160   0.554  10.465  0.8868 -0.8434 -0.0521
  835MOL0     N12640  11.414   0.613  10.403 -0.5258 -1.3337  0.3451
  835MOL0     N12641  11.317   0.556  10.347 -0.2002 -0.3717  0.6262
  835MOL0     C12642  10.182   0.875  10.000 -0.5954  0.0173 -0.6046
  835MOL0     C12643  10.063   0.945   9.970  0.3914 -1.0707 -0.1257
  835MOL0     C12644   9.696   1.178   9.914  0.0917 -0.6358  0.1934
  835MOL0     C12645   9.615   1.148   9.800  0.5966  0.1344 -0.6039
  835MOL0     C12646   9.482   1.176   9.796  0.4185  0.4575 -0.3956
  835MOL0     C12647   9.418   1.241   9.898  0.4060 -0.5731  0.1578
  835MOL0     O12648   9.287   1.294   9.890 -0.1342  0.0663  0.1147
  835MOL0     C12649   9.191   1.235   9.796 -0.6315 -0.1115 -0.2525
  835MOL0     C12650   9.049   1.280   9.827  0.0557 -0.3425  0.2032
  835MOL0     C12651   8.949   1.251   9.718  0.6021  0.0493 -0.3820
  835MOL0     C12652   8.803   1.270   9.772 -0.6605  0.4859 -0.0771
  835MOL0     C12653   8.778   1.407   9.816  0.2354 -0.1343  0.3013
  835MOL0     C12654   8.777   1.514   9.870 -0.5160  0.1316  0.2384
  835MOL0     C12655   9.491   1.272  10.007 -0.6751  0.1492  1.0142
  835MOL0     C12656   9.623   1.227  10.019 -0.2562 -0.6151 -0.4784
  835MOL0     C12657   9.688   1.262  10.158  0.9559 -0.1941 -0.0597
  835MOL0     H12658  10.116   1.208  10.172 -0.4594 -1.2045  3.7336
  835MOL0     H12659  10.331   1.064  10.218  1.2912 -1.0235 -0.9892
  835MOL0     H12660  10.405   0.682   9.998  1.6622 -0.2276 -0.4299
  835MOL0     H12661  10.481   0.836   9.966 -2.2182 -0.8346 -2.1564
  835MOL0     H12662  10.555   0.650  10.212  1.7491  0.2309  1.4994
  835MOL0     H12663  10.619   0.801  10.170 -1.4387 -0.6201  0.7773
  835MOL0     H12664  10.718   0.746   9.971  1.5941 -1.2454  0.4442
  835MOL0     H12665  10.629   0.590   9.947 -0.6748  1.3871 -1.9650
  835MOL0     H12666  10.833   0.657  10.157  0.7586 -2.5120  1.2683
  835MOL0     H12667  10.737   0.514  10.166 -0.8238  0.5847  0.0079
  835MOL0     H12668  10.838   0.441   9.953  1.7334 -2.5013  2.0583
  835MOL0     H12669  10.948   0.581   9.942  0.9250 -0.3127 -1.1307
  835MOL0     H12670  10.935   0.339  10.126  0.8660 -0.4932  0.2265
  835MOL0     H12671  11.060   0.400  10.022 -1.1275  0.7878 -1.9245
  835MOL0     H12672  11.123   0.433  10.228  0.5566  1.3482  0.8105
  835MOL0     H12673  10.986   0.527  10.292 -2.7054 -1.8743 -1.7493
  835MOL0     H12674  11.192   0.602  10.065 -0.1592 -0.6339  0.1000
  835MOL0     H12675  11.074   0.707  10.157 -2.2738 -1.5877  3.0767
  835MOL0     H12676  11.308   0.858  10.222  0.7405  0.9564 -0.4194
  835MOL0     H12677  11.505   0.946  10.387  2.1624  0.6356 -0.9278
  835MOL0     H12678  11.570   0.827  10.498 -2.6496  1.7921  1.6740
  835MOL0     H12679  11.596   0.788  10.201  0.1985  0.9894 -1.0950
  835MOL0     H12680  11.686   0.922  10.282  0.0599 -1.1278 -4.8314
  835MOL0     H12681  11.760   0.645  10.245  2.1247  1.1776  0.0720
  835MOL0     H12682  11.701   0.642  10.397 -1.2087 -0.9965 -1.7356
  835MOL0     H12683  11.850   0.820  10.471 -0.1777 -1.5378  2.0152
  835MOL0     H12684  11.930   0.824  10.312  0.3470  0.9309  0.3901
  835MOL0     H12685  12.104   0.886  10.415 -1.5709 -0.9118 -1.3446
  835MOL0     H12686  12.355   0.882  10.457  2.9609 -1.7461  1.0768
  835MOL0     H12687  12.789   0.514  10.409  1.4353 -0.9200 -0.5229
  835MOL0     H12688  13.006   0.494  10.486 -0.8799 -0.3197 -1.1618
  835MOL0     H12689  13.125   0.758  10.670  2.0379  1.7736 -1.0138
  835MOL0     H12690  13.266   0.681  10.730  2.0736 -1.3271 -2.0181
  835MOL0     H12691  13.145   0.642  10.457 -0.2627  1.3305 -0.1551
  835MOL0     H12692  13.280   0.752  10.490 -0.4754  0.4035  0.1628
  835MOL0     H12693  13.424   0.586  10.562 -2.0266  1.2497  0.6102
  835MOL0     H12694  13.309   0.449  10.533 -0.1552 -1.5558 -0.9328
  835MOL0     H12695  13.396   0.641  10.315  0.4775 -0.9773 -0.7640
  835MOL0     H12696  13.314   0.479  10.301 -1.4786 -0.0060  1.2818
  835MOL0     H12697  13.526   0.362  10.373  1.1588 -0.5130 -1.8788
  835MOL0     H12698  13.601   0.518  10.385 -1.3395  1.0360  2.4537
  835MOL0     H12699  13.519   0.365  10.146 -0.5885  0.1109 -0.0931
  835MOL0     H12700  13.527   0.545  10.140 -2.7696  0.0820  1.1988
  835MOL0     H12701  13.755   0.362  10.233 -3.8410 -1.7248  1.8460
  835MOL0     H12702  13.760   0.539  10.195 -1.4835  0.1757 -0.1802
  835MOL0     H12703  13.713   0.305  10.005  0.6148 -0.8889 -0.7282
  835MOL0     H12704  13.708   0.484   9.964 -1.4471  0.0663  1.0195
  835MOL0     H12705  12.906   0.609  10.883  1.1150  1.7369 -1.2705
  835MOL0     H12706  12.647   0.592  10.798 -0.8877 -0.6973 -1.5766
  835MOL0     H12707  12.350   0.463  10.500 -0.6852 -0.3393  1.8984
  835MOL0     H12708  12.102   0.463  10.464 -0.7246  0.1401 -0.0134
  835MOL0     H12709  10.213   0.781   9.953  0.6003 -0.8360  1.7395
  835MOL0     H12710   9.991   0.911   9.896 -0.9636  2.8208 -0.8414
  835MOL0     H12711   9.652   1.099   9.711 -0.3332 -0.4446 -0.6788
  835MOL0     H12712   9.423   1.157   9.707 -1.0539  1.0810  0.4075
  835MOL0     H12713   9.202   1.126   9.799  1.8906  0.0254 -1.6875
  835MOL0     H12714   9.218   1.260   9.694 -1.2971 -2.0835 -0.9652
  835MOL0     H12715   9.042   1.389   9.837 -0.4497 -0.3658  0.1182
  835MOL0     H12716   9.027   1.226   9.919  3.7577 -3.2239 -0.3703
  835MOL0     H12717   8.958   1.149   9.679  0.3744 -0.7379  1.4905
  835MOL0     H12718   8.956   1.327   9.640 -0.0389 -0.6527 -1.1464
  835MOL0     H12719   8.728   1.250   9.695 -2.7938  3.0538  1.1702
  835MOL0     H12720   8.775   1.205   9.856  0.6529  0.5770  0.4681
  835MOL0     H12721   8.775   1.606   9.924 -2.5232  1.0523 -1.3170
  835MOL0     H12722   9.453   1.339  10.083 -0.0842 -1.4085  2.7361
  835MOL0     H12723   9.738   1.360  10.154 -0.9851  0.9217  1.2831
  835MOL0     H12724   9.615   1.285  10.237 -0.4052 -0.0765 -1.2977
  835MOL0     H12725   9.753   1.180  10.188 -0.4955 -1.9956 -1.5898
  836MOL0     O12726   1.745   9.679   0.665 -0.0271  0.2385 -0.4404
  836MOL0     C12727   1.697   9.750   0.761 -0.3607 -0.6210 -0.2927
  836MOL0     O12728   1.762   9.836   0.848 -0.5856  0.1756  0.1717
  836MOL0     C12729   1.890   9.869   0.825  0.2377 -1.0719 -1.3028
  836MOL0     C12730   1.973   9.843   0.719  1.0225 -0.5552 -0.4242
  836MOL0     C12731   2.102   9.897   0.702  0.4463  0.3224  0.1850
  836MOL0     C12732   2.151   9.979   0.795  0.2176 -1.1864 -0.5519
  836MOL0     O12733   2.282  10.016   0.783 -0.1477 -0.3473 -0.4014
  836MOL0     C12734   2.337  10.119   0.860 -0.6882  0.4128  0.1789
  836MOL0     C12735   2.460  10.078   0.941 -0.4562 -0.3151 -0.2971
  836MOL0     C12736   2.586  10.043   0.856  0.1841 -0.3809  0.0613
  836MOL0     C12737   2.712  10.008   0.933 -0.5713 -0.7127 -0.4840
  836MOL0     C12738   2.820   9.973   0.839 -0.2473  0.1318  0.1718
  836MOL0     C12739   2.958   9.980   0.899  0.8191  0.8978 -0.0676
  836MOL0     C12740   2.978   9.852   0.989 -1.0043 -1.5417  0.4479
  836MOL0     C12741   3.117   9.853   1.050  0.1691  0.6805 -0.3043
  836MOL0     N12742   3.233   9.874   0.966 -0.1832  0.5518  0.5750
  836MOL0     C12743   3.331   9.782   0.938 -1.1724  0.1835  0.3597
  836MOL0     C12744   3.431   9.846   0.875  0.1611 -0.6885 -0.4746
  836MOL0     C12745   3.563   9.795   0.825  0.3953 -0.3150 -0.1906
  836MOL0     C12746   3.613   9.872   0.693  0.4564  0.1700 -0.0818
  836MOL0     C12747   3.743   9.804   0.629  0.2447 -0.2737  0.5992
  836MOL0     C12748   3.740   9.815   0.471 -0.7798  0.2390  0.3331
  836MOL0     O12749   3.879   9.811   0.416 -0.4499 -0.3726 -0.9459
  836MOL0     C12750   3.964   9.714   0.441  0.1178  0.1448 -0.5029
  836MOL0     C12751   3.936   9.584   0.409 -0.6605  0.2238 -0.0728
  836MOL0     C12752   4.031   9.485   0.417  0.3902  0.5504 -0.8240
  836MOL0     C12753   4.157   9.523   0.465 -0.8900 -0.1218  0.2409
  836MOL0     C12754   4.262   9.420   0.506  0.0086  0.4489  0.2434
  836MOL0     O12755   4.386   9.462   0.551 -0.1737  0.0511 -0.0633
  836MOL0     C12756   4.462   9.377   0.619  0.0854  0.0593 -0.5291
  836MOL0     C12757   4.415   9.311   0.734  0.5114  0.3511 -0.3306
  836MOL0     C12758   4.501   9.214   0.787 -0.7451  0.2647 -0.5013
  836MOL0     C12759   4.626   9.175   0.728  0.1340 -0.0317  0.3415
  836MOL0     O12760   4.696   9.059   0.769 -0.2972  0.2155  0.2084
  836MOL0     C12761   4.694   8.946   0.679  0.5176  0.1251 -0.1463
  836MOL0     C12762   4.567   8.871   0.700  0.1998  0.1649 -0.7007
  836MOL0     C12763   4.567   8.807   0.841 -0.7378 -0.0213  0.5124
  836MOL0     C12764   4.427   8.757   0.877 -0.9942 -0.0809  0.2214
  836MOL0     C12765   4.344   8.861   0.954  0.4526  0.1483  0.0660
  836MOL0     C12766   4.231   8.782   1.014  0.2660  0.2125 -0.2357
  836MOL0     C12767   4.142   8.860   1.111 -0.1550  0.6010 -0.2206
  836MOL0     C12768   4.014   8.917   1.040 -0.2814 -0.1260 -0.3290
  836MOL0    Cl12769   3.883   8.924   1.161 -0.3264 -0.3369  0.2863
  836MOL0     C12770   4.677   9.243   0.613  0.4337  0.2291 -0.7898
  836MOL0     C12771   4.594   9.347   0.558 -0.7991 -0.0581  0.2643
  836MOL0     O12772   4.227   9.301   0.500 -0.5218  0.5667 -0.0299
  836MOL0     C12773   4.192   9.657   0.493 -0.3247 -0.0411  0.4300
  836MOL0     C12774   4.092   9.751   0.484  1.0714 -0.7073  0.4878
  836MOL0     N12775   3.397   9.982   0.883  0.5460  0.4641  0.0649
  836MOL0     N12776   3.277   9.995   0.933 -0.2899 -0.4602  0.7245
  836MOL0     C12777   2.082   9.992   0.922 -0.7965 -0.4168  0.1912
  836MOL0     C12778   1.951   9.941   0.930  0.7745 -0.1139  0.0736
  836MOL0     C12779   1.558   9.722   0.796  0.1137  0.0282  0.2405
  836MOL0     C12780   1.472   9.690   0.688  0.2739 -0.0320  0.4476
  836MOL0     C12781   1.328   9.680   0.702  0.1228 -1.1020  0.1795
  836MOL0     C12782   1.278   9.694   0.835 -0.8287  0.1582 -0.0643
  836MOL0     O12783   1.150   9.691   0.882  0.2839 -0.2567  0.0675
  836MOL0     C12784   1.055   9.645   0.785 -0.1706  0.4362 -0.2060
  836MOL0     C12785   0.911   9.647   0.841  0.1164 -0.0638  0.5145
  836MOL0     C12786   0.874   9.796   0.887  0.6015  0.1342  0.0027
  836MOL0     C12787   0.725   9.815   0.914 -0.0460  0.4066 -0.8653
  836MOL0     C12788   0.644   9.801   0.786  0.4087  0.5952 -0.0179
  836MOL0     C12789   0.571   9.799   0.689  0.4534  0.1938 -0.3756
  836MOL0     C12790   1.365   9.729   0.943 -0.6991  0.4890 -0.1047
  836MOL0     C12791   1.501   9.738   0.931  0.1168  1.0543  0.4326
  836MOL0     C12792   1.575   9.763   1.063 -0.2194 -0.5219  0.7621
  836MOL0     H12793   1.936   9.793   0.631  1.3487  0.9107 -1.4215
  836MOL0     H12794   2.171   9.875   0.621 -0.2327 -1.4813  0.0666
  836MOL0     H12795   2.359  10.196   0.784 -0.1641 -0.7941 -0.9321
  836MOL0     H12796   2.272  10.168   0.933 -0.0661  1.2125  0.2269
  836MOL0     H12797   2.431   9.989   0.997 -0.1192  0.1631  0.6747
  836MOL0     H12798   2.481  10.156   1.016 -0.8569 -1.7473  1.3739
  836MOL0     H12799   2.610  10.123   0.785  0.4996  0.6864  1.3213
  836MOL0     H12800   2.554   9.951   0.806 -0.0881 -0.0565 -0.3716
  836MOL0     H12801   2.745  10.093   0.994  0.2706 -0.4257 -1.3251
  836MOL0     H12802   2.696   9.926   1.004  2.2534 -0.9732 -0.0329
  836MOL0     H12803   2.791   9.876   0.797  1.3652  0.2548 -1.3257
  836MOL0     H12804   2.823  10.042   0.755 -2.2873  1.2820  0.9738
  836MOL0     H12805   3.036   9.991   0.823  1.4474  0.3875  0.4949
  836MOL0     H12806   2.956  10.068   0.964  0.9646  1.4390 -0.7736
  836MOL0     H12807   2.964   9.764   0.925 -4.1936 -0.6322 -0.3371
  836MOL0     H12808   2.910   9.866   1.074 -0.2886  1.9507  0.6127
  836MOL0     H12809   3.126   9.921   1.135 -0.2335  1.7533 -1.1009
  836MOL0     H12810   3.125   9.754   1.096  1.7340  0.1267 -1.6959
  836MOL0     H12811   3.330   9.675   0.959  0.2363  0.0640 -0.1055
  836MOL0     H12812   3.635   9.811   0.906  0.3185 -2.3623  0.3234
  836MOL0     H12813   3.558   9.690   0.796  3.1896 -0.1715 -1.4655
  836MOL0     H12814   3.531   9.888   0.623 -1.3691 -0.3048  1.8388
  836MOL0     H12815   3.644   9.973   0.720 -0.5885  1.1489 -2.3457
  836MOL0     H12816   3.745   9.698   0.656  2.8375 -0.1140  1.2868
  836MOL0     H12817   3.836   9.846   0.667  0.4507 -0.7697  0.6451
  836MOL0     H12818   3.693   9.911   0.449 -0.7728 -0.4202 -3.0393
  836MOL0     H12819   3.677   9.734   0.433  0.1107 -1.4721  2.3026
  836MOL0     H12820   3.833   9.561   0.382 -1.5174  2.5763  0.9272
  836MOL0     H12821   4.003   9.382   0.398 -2.0197  1.1293 -0.6990
  836MOL0     H12822   4.315   9.326   0.771  1.2041  1.8336  1.0764
  836MOL0     H12823   4.477   9.156   0.875 -0.9954 -2.2266 -2.0748
  836MOL0     H12824   4.692   8.968   0.572 -4.2713  0.3532 -0.2066
  836MOL0     H12825   4.786   8.895   0.710  0.6771  1.7220  2.2465
  836MOL0     H12826   4.488   8.942   0.675  1.0835  0.5142 -2.7272
  836MOL0     H12827   4.554   8.793   0.624 -2.7546  2.0025 -2.2630
  836MOL0     H12828   4.634   8.721   0.848 -1.2239 -0.2933  2.4284
  836MOL0     H12829   4.602   8.869   0.925 -1.4864 -0.4512  1.1594
  836MOL0     H12830   4.449   8.668   0.936  3.5565  1.5749  1.4421
  836MOL0     H12831   4.366   8.731   0.790 -0.6564  2.8019 -0.9931
  836MOL0     H12832   4.305   8.937   0.886  0.4617  0.3235  0.2550
  836MOL0     H12833   4.405   8.920   1.024 -0.2728  1.0380 -0.0332
  836MOL0     H12834   4.170   8.741   0.933  0.7974 -0.0145 -0.5240
  836MOL0     H12835   4.270   8.697   1.071 -1.8344  0.1782  1.2677
  836MOL0     H12836   4.194   8.946   1.154  0.5113 -0.2186  0.6344
  836MOL0     H12837   4.117   8.794   1.194  2.1650  0.8062  0.7028
  836MOL0     H12838   4.027   9.022   1.015  0.3928  0.9550  3.8917
  836MOL0     H12839   3.976   8.866   0.951  0.7057  2.0794 -2.0913
  836MOL0     H12840   4.775   9.214   0.576  1.2014 -1.6269  2.2956
  836MOL0     H12841   4.627   9.396   0.468  0.1185 -0.9799  0.0811
  836MOL0     H12842   4.289   9.685   0.534 -0.2167 -0.5107  0.5039
  836MOL0     H12843   4.104   9.852   0.523 -0.3289 -0.5087  0.4331
  836MOL0     H12844   2.113  10.039   1.015 -1.4880  0.1912  0.1241
  836MOL0     H12845   1.896   9.967   1.020  0.2769  1.4522 -0.6450
  836MOL0     H12846   1.515   9.689   0.588 -0.3568  1.5495  0.1208
  836MOL0     H12847   1.280   9.675   0.604  0.8117 -1.1506 -0.1623
  836MOL0     H12848   1.088   9.547   0.749  0.7705  1.1906 -1.4844
  836MOL0     H12849   1.055   9.713   0.699 -1.4360  1.2283  0.3914
  836MOL0     H12850   0.885   9.584   0.926  1.4600  0.0017  1.0077
  836MOL0     H12851   0.856   9.609   0.755  0.5486  0.0343  0.1872
  836MOL0     H12852   0.912   9.866   0.812  1.3374 -1.2871 -0.9988
  836MOL0     H12853   0.906   9.814   0.990 -2.2302 -0.6486  1.1133
  836MOL0     H12854   0.711   9.738   0.990  1.8937 -1.1309 -1.9727
  836MOL0     H12855   0.704   9.907   0.968 -4.3053 -0.4301 -0.7425
  836MOL0     H12856   0.493   9.809   0.616  0.1758  1.7602  0.1141
  836MOL0     H12857   1.321   9.750   1.040 -1.4791  0.5332 -0.4612
  836MOL0     H12858   1.582   9.872   1.067 -2.5522 -0.3011  0.1824
  836MOL0     H12859   1.529   9.720   1.153 -2.5892  0.2981  0.0232
  836MOL0     H12860   1.676   9.722   1.056  0.0277  0.3154 -1.5924
  837MOL0     O12861   5.481   5.635   0.926 -0.7875 -0.0901 -0.4409
  837MOL0     C12862   5.451   5.544   0.996 -0.0309  0.6233 -0.1269
  837MOL0     O12863   5.541   5.454   1.054  0.1672 -0.6839 -0.5802
  837MOL0     C12864   5.678   5.476   1.033  0.0141  0.2581  0.9436
  837MOL0     C12865   5.731   5.437   0.910 -0.2228  1.1179  0.5044
  837MOL0     C12866   5.873   5.457   0.889 -0.7346  0.3574  0.0736
  837MOL0     C12867   5.955   5.504   1.000 -0.2014 -0.4491 -0.1157
  837MOL0     O12868   6.082   5.535   0.972 -0.0594 -0.3768  0.0301
  837MOL0     C12869   6.180   5.551   1.075  0.4600 -0.3030 -0.1821
  837MOL0     C12870   6.218   5.415   1.146  0.2991  0.2786 -0.4127
  837MOL0     C12871   6.324   5.433   1.257  0.4618  0.8298  0.1871
  837MOL0     C12872   6.376   5.298   1.303 -0.3508 -1.6038 -0.2502
  837MOL0     C12873   6.483   5.316   1.413 -0.2571 -0.5603 -0.4996
  837MOL0     C12874   6.614   5.368   1.353  0.6377  0.4503 -0.0548
  837MOL0     C12875   6.729   5.345   1.449 -1.8705 -0.5718 -0.8324
  837MOL0     C12876   6.852   5.436   1.398 -0.4784  0.0987  0.4745
  837MOL0     N12877   6.905   5.398   1.263 -0.6632 -0.2162 -0.3978
  837MOL0     C12878   6.958   5.482   1.165 -0.5632 -0.3661 -0.1500
  837MOL0     C12879   6.972   5.406   1.055 -0.4116 -0.1644 -0.5572
  837MOL0     C12880   7.022   5.458   0.919  0.0018 -0.1423 -0.5071
  837MOL0     C12881   7.172   5.437   0.896 -0.3517  0.1166  0.0008
  837MOL0     C12882   7.202   5.281   0.871 -0.2824 -0.6157  0.4072
  837MOL0     C12883   7.357   5.264   0.831  0.4814  0.1911 -1.0451
  837MOL0     O12884   7.367   5.305   0.693 -0.7624 -0.3430 -0.1740
  837MOL0     C12885   7.490   5.282   0.634 -0.5161  1.0680  0.3477
  837MOL0     C12886   7.488   5.239   0.502  0.3088 -0.0767  0.4955
  837MOL0     C12887   7.603   5.187   0.436 -0.1490  0.5044  0.0651
  837MOL0     C12888   7.727   5.169   0.516  0.2830  0.0709  0.7853
  837MOL0     C12889   7.857   5.128   0.448  0.0349 -0.1381 -0.0497
  837MOL0     O12890   7.953   5.080   0.531  0.1622  0.2185 -0.1322
  837MOL0     C12891   8.071   5.020   0.490 -0.3209  0.2027 -0.5716
  837MOL0     C12892   8.134   5.009   0.370  0.2434  0.8411  0.2732
  837MOL0     C12893   8.267   4.963   0.363  0.0907 -0.8335  0.6090
  837MOL0     C12894   8.338   4.929   0.476  0.3685  0.6764  0.1139
  837MOL0     O12895   8.462   4.871   0.446  0.7490 -0.0743  0.5937
  837MOL0     C12896   8.558   4.823   0.538  0.6397 -1.0274  0.0480
  837MOL0     C12897   8.674   4.749   0.457  0.2603 -0.0821  0.0291
  837MOL0     C12898   8.758   4.646   0.537 -0.5074  0.3464 -0.0849
  837MOL0     C12899   8.860   4.718   0.626 -0.1226 -0.2565  0.4051
  837MOL0     C12900   8.972   4.628   0.691  0.0616  0.8288  0.6652
  837MOL0     C12901   9.056   4.699   0.793 -0.6246 -0.0465  0.4193
  837MOL0     C12902   9.148   4.593   0.847  0.1760  0.1192 -0.2583
  837MOL0     C12903   9.178   4.614   0.996 -0.6010  0.1505  0.1959
  837MOL0    Cl12904   9.034   4.585   1.110 -0.0775 -0.0793  0.0735
  837MOL0     C12905   8.277   4.936   0.608  0.0896  0.2182 -0.1734
  837MOL0     C12906   8.137   4.978   0.612  0.3130 -0.7190 -0.0098
  837MOL0     O12907   7.868   5.126   0.324 -0.6373 -0.2082 -0.3158
  837MOL0     C12908   7.730   5.216   0.645  0.0860 -0.3045  0.0616
  837MOL0     C12909   7.614   5.276   0.701 -0.6468 -0.5272  0.2231
  837MOL0     N12910   6.940   5.274   1.094  0.2162 -0.1761  0.0762
  837MOL0     N12911   6.896   5.274   1.214  0.0562  0.0859  0.0145
  837MOL0     C12912   5.895   5.549   1.119  1.3078 -0.1936 -0.6031
  837MOL0     C12913   5.760   5.527   1.134 -0.1460  0.1249 -0.0317
  837MOL0     C12914   5.307   5.518   1.027  0.4352  0.3893  0.2437
  837MOL0     C12915   5.268   5.488   1.155  0.2248  0.1010  0.6360
  837MOL0     C12916   5.130   5.469   1.191 -0.3261 -0.5484  0.0251
  837MOL0     C12917   5.037   5.482   1.099  0.1061 -0.3517 -0.0833
  837MOL0     O12918   4.909   5.452   1.152  0.2428  0.0519  0.2492
  837MOL0     C12919   4.789   5.484   1.080  0.6114 -0.1900 -0.6069
  837MOL0     C12920   4.668   5.459   1.175 -0.4805 -0.1462 -0.6635
  837MOL0     C12921   4.630   5.559   1.282 -1.0690 -0.0224 -0.5350
  837MOL0     C12922   4.525   5.664   1.231  0.4401  0.0281 -0.5577
  837MOL0     C12923   4.397   5.594   1.218  0.5601  0.7764 -0.7212
  837MOL0     C12924   4.298   5.534   1.193  0.6641  0.2262  0.1678
  837MOL0     C12925   5.068   5.519   0.962 -0.4964 -1.2039  0.1090
  837MOL0     C12926   5.202   5.533   0.933 -0.1313 -0.3037 -0.4482
  837MOL0     C12927   5.228   5.562   0.785  0.9094 -0.5632  0.2950
  837MOL0     H12928   5.680   5.396   0.824  0.7107 -0.8436  0.8448
  837MOL0     H12929   5.923   5.426   0.798 -0.3069  1.4225 -0.0600
  837MOL0     H12930   6.270   5.593   1.027  4.3401 -1.2322  5.2932
  837MOL0     H12931   6.170   5.639   1.139  1.2712 -0.7425  0.5677
  837MOL0     H12932   6.255   5.349   1.067 -1.8995  0.9912 -2.1474
  837MOL0     H12933   6.130   5.368   1.188  0.2762 -0.5427 -1.3363
  837MOL0     H12934   6.274   5.481   1.342 -0.4705  1.1818 -0.5493
  837MOL0     H12935   6.402   5.505   1.233 -0.5535  1.6414 -0.7824
  837MOL0     H12936   6.289   5.253   1.351 -2.4065  1.3717 -0.9146
  837MOL0     H12937   6.408   5.232   1.221 -1.3777 -0.4790 -1.5924
  837MOL0     H12938   6.452   5.384   1.492 -0.1495 -0.3750 -0.6137
  837MOL0     H12939   6.506   5.220   1.459  0.6333 -0.6654 -1.1164
  837MOL0     H12940   6.649   5.311   1.267  1.8163  1.8402 -0.5490
  837MOL0     H12941   6.617   5.473   1.322  1.9334 -0.0625 -1.8191
  837MOL0     H12942   6.754   5.239   1.447 -1.5110 -0.5222  0.2710
  837MOL0     H12943   6.703   5.373   1.552 -2.3177  1.7472 -1.5177
  837MOL0     H12944   6.821   5.541   1.389  0.4916  0.5320  1.8625
  837MOL0     H12945   6.933   5.424   1.470 -0.3028 -0.7660  0.1498
  837MOL0     H12946   6.973   5.590   1.170  1.2143 -0.5809 -0.1794
  837MOL0     H12947   6.968   5.402   0.842  1.5432  0.6317 -2.2523
  837MOL0     H12948   7.000   5.565   0.921 -1.3044 -0.3940  1.1877
  837MOL0     H12949   7.201   5.492   0.805  0.7313 -0.7405 -0.1861
  837MOL0     H12950   7.233   5.466   0.981 -2.9176  1.4486  1.5109
  837MOL0     H12951   7.145   5.238   0.789  0.7134  0.9136 -1.1643
  837MOL0     H12952   7.199   5.223   0.963  0.2537  0.2430  0.9869
  837MOL0     H12953   7.387   5.162   0.857 -1.0783  0.6655  3.6166
  837MOL0     H12954   7.417   5.325   0.900  0.3738  0.9678 -1.6306
  837MOL0     H12955   7.401   5.253   0.439 -0.6175  0.0522  1.7682
  837MOL0     H12956   7.606   5.141   0.338  0.1741 -0.7186  0.6262
  837MOL0     H12957   8.089   5.034   0.274  2.0788 -2.4510 -1.6802
  837MOL0     H12958   8.322   4.959   0.269  0.4380  3.2416  0.4303
  837MOL0     H12959   8.603   4.908   0.590  1.4186 -1.4027 -0.0037
  837MOL0     H12960   8.517   4.757   0.616 -1.6448 -0.8395 -0.9131
  837MOL0     H12961   8.634   4.700   0.368 -2.4635 -0.1584  1.1942
  837MOL0     H12962   8.732   4.831   0.413 -3.2737  1.7314 -1.7338
  837MOL0     H12963   8.695   4.575   0.590  0.2536  0.4080  0.9371
  837MOL0     H12964   8.804   4.583   0.460  0.0398 -1.1634  1.4079
  837MOL0     H12965   8.804   4.760   0.710 -1.8403 -1.7333  0.0667
  837MOL0     H12966   8.905   4.803   0.574  5.3623 -3.4527 -0.8710
  837MOL0     H12967   9.040   4.592   0.614 -0.7930 -0.2716  0.4086
  837MOL0     H12968   8.923   4.546   0.743  0.7516 -0.4261 -0.6126
  837MOL0     H12969   9.112   4.780   0.747 -2.5325  1.3240  0.4017
  837MOL0     H12970   9.001   4.733   0.882  0.7367  0.3334  1.1409
  837MOL0     H12971   9.242   4.587   0.792 -0.7732  0.3643 -2.0043
  837MOL0     H12972   9.106   4.492   0.853  0.4191  0.0670  0.7245
  837MOL0     H12973   9.269   4.568   1.038 -0.9366  1.0008  1.9745
  837MOL0     H12974   9.192   4.720   1.018  1.6418  0.3186 -1.6514
  837MOL0     H12975   8.328   4.900   0.696 -0.0181  2.3928  0.8515
  837MOL0     H12976   8.083   4.978   0.706  2.4044  3.1800  1.4200
  837MOL0     H12977   7.826   5.212   0.695  0.7733 -1.4428 -1.2765
  837MOL0     H12978   7.617   5.326   0.797 -1.6177 -0.4448  0.2203
  837MOL0     H12979   5.947   5.602   1.199 -1.6095 -0.6903  1.7983
  837MOL0     H12980   5.709   5.558   1.225  0.6529 -1.0829  0.8492
  837MOL0     H12981   5.339   5.470   1.235 -1.2506 -0.2098  1.9423
  837MOL0     H12982   5.109   5.448   1.295  1.2826  1.0752  0.7389
  837MOL0     H12983   4.775   5.419   0.994 -1.7605 -2.5646  1.4087
  837MOL0     H12984   4.795   5.590   1.055  0.5874 -0.5047 -1.9776
  837MOL0     H12985   4.676   5.361   1.223 -1.6914  0.4302  0.8118
  837MOL0     H12986   4.579   5.447   1.113 -1.0423 -0.7603  0.2415
  837MOL0     H12987   4.714   5.621   1.312  0.3629 -2.1820  0.2039
  837MOL0     H12988   4.604   5.505   1.374  0.5526  1.2457  0.7116
  837MOL0     H12989   4.513   5.754   1.291  3.1760  1.6753 -2.2255
  837MOL0     H12990   4.553   5.702   1.132  2.2832 -0.3874 -0.2377
  837MOL0     H12991   4.225   5.459   1.169  2.6039 -0.8724 -2.8118
  837MOL0     H12992   4.997   5.529   0.880  0.1908  1.5005 -0.2629
  837MOL0     H12993   5.196   5.471   0.733 -1.5540 -0.4718  1.4927
  837MOL0     H12994   5.173   5.653   0.759 -0.6987 -0.6327  3.0849
  837MOL0     H12995   5.334   5.575   0.760  1.2205  0.2653  1.9347
  838MOL0     O12996   2.515  10.508   3.036 -0.1507 -0.1908  0.4934
  838MOL0     C12997   2.570  10.446   2.947  0.3557  0.0189  0.9920
  838MOL0     O12998   2.517  10.331   2.882  0.0580  0.5712 -0.6953
  838MOL0     C12999   2.397  10.279   2.926 -0.0023 -0.2137 -0.0646
  838MOL0     C13000   2.398  10.157   2.985 -0.4655  0.0097 -0.0881
  838MOL0     C13001   2.279  10.091   3.016  0.6063 -0.7693 -0.2087
  838MOL0     C13002   2.156  10.165   2.999  0.2207  0.0256  0.3012
  838MOL0     O13003   2.026  10.131   3.042  0.0550  0.2903 -0.0660
  838MOL0     C13004   2.020  10.019   3.137 -0.2098 -0.0733  0.8578
  838MOL0     C13005   1.896   9.989   3.210 -0.4673 -0.3771 -0.2314
  838MOL0     C13006   1.765   9.979   3.127  0.6742  0.2714 -0.1481
  838MOL0     C13007   1.644   9.934   3.207 -0.0955  0.1089 -0.0307
  838MOL0     C13008   1.586   9.799   3.159  0.3665 -0.3692  0.4792
  838MOL0     C13009   1.678   9.680   3.174  0.0298  0.5869  0.3262
  838MOL0     C13010   1.602   9.554   3.159  0.3742  0.4118  0.1875
  838MOL0     C13011   1.664   9.434   3.224 -1.2191 -0.4801 -0.4146
  838MOL0     N13012   1.575   9.325   3.256 -0.4016  0.2861  0.1160
  838MOL0     C13013   1.527   9.239   3.163  0.7149 -0.1793 -0.3765
  838MOL0     C13014   1.411   9.185   3.225 -0.4460  0.3791  0.8807
  838MOL0     C13015   1.319   9.081   3.169 -0.2332  0.1013  0.2816
  838MOL0     C13016   1.392   8.948   3.151  0.0085  0.5286  0.9470
  838MOL0     C13017   1.422   8.861   3.284  0.3905  0.2056  0.5118
  838MOL0     C13018   1.567   8.840   3.323 -0.1698  0.0459 -0.4981
  838MOL0     O13019   1.646   8.814   3.211  0.6342  0.3361  0.0263
  838MOL0     C13020   1.782   8.792   3.213  0.2843  0.5721  0.4878
  838MOL0     C13021   1.857   8.826   3.102  1.1764  0.2630  0.3854
  838MOL0     C13022   1.997   8.809   3.088 -0.6953 -0.2395  0.2663
  838MOL0     C13023   2.072   8.759   3.202  0.5109 -0.3158 -0.2343
  838MOL0     C13024   2.219   8.734   3.183 -0.4996 -0.2897  0.3662
  838MOL0     O13025   2.269   8.799   3.066  0.0950  0.4286  0.8441
  838MOL0     C13026   2.402   8.790   3.037  0.2843 -0.5745  0.5606
  838MOL0     C13027   2.479   8.676   3.030 -0.7074  0.4594  0.8278
  838MOL0     C13028   2.610   8.688   2.975 -0.6550 -0.2699  0.1587
  838MOL0     C13029   2.673   8.806   2.943 -0.4891 -0.8281 -0.6186
  838MOL0     O13030   2.796   8.817   2.892  0.0092  0.0422  0.6433
  838MOL0     C13031   2.892   8.712   2.914  0.2145 -0.3557  0.3882
  838MOL0     C13032   3.010   8.738   2.812  0.5329 -0.1780 -0.8438
  838MOL0     C13033   2.962   8.706   2.666  0.6648  0.2805 -0.3183
  838MOL0     C13034   3.053   8.781   2.572  0.7889 -1.0597 -1.8067
  838MOL0     C13035   3.005   8.783   2.426 -0.9494 -0.2082 -0.3316
  838MOL0     C13036   2.925   8.912   2.414 -0.2687 -0.0727  0.3532
  838MOL0     C13037   2.882   8.945   2.264  0.2306  0.6577 -0.1781
  838MOL0     C13038   2.780   9.052   2.242 -0.1691  0.2293 -0.7331
  838MOL0    Cl13039   2.623   8.988   2.302  0.6441  0.0022  0.1488
  838MOL0     C13040   2.597   8.918   2.971 -0.0710 -0.8831  0.3843
  838MOL0     C13041   2.465   8.916   3.013 -0.1052  0.4471  0.2525
  838MOL0     O13042   2.285   8.680   3.267  0.0596 -0.6145  0.6670
  838MOL0     C13043   2.000   8.726   3.317 -0.5645  0.6015  0.7344
  838MOL0     C13044   1.858   8.740   3.319 -0.5929 -0.6975 -0.0288
  838MOL0     N13045   1.397   9.247   3.341 -0.2334  0.4725 -0.2527
  838MOL0     N13046   1.501   9.325   3.361  0.8128 -0.2780  0.7485
  838MOL0     C13047   2.163  10.297   2.956  0.0779 -0.1819 -0.1826
  838MOL0     C13048   2.278  10.347   2.900 -0.6884  0.2843  0.2340
  838MOL0     C13049   2.695  10.507   2.894  0.7204  0.5436 -0.9282
  838MOL0     C13050   2.796  10.547   2.984 -1.3105  0.0014 -0.2529
  838MOL0     C13051   2.909  10.614   2.938 -0.4425  0.2720  0.3221
  838MOL0     C13052   2.926  10.638   2.799  0.1139  0.4037  0.2177
  838MOL0     O13053   3.049  10.700   2.772 -0.3025 -0.0306  0.1281
  838MOL0     C13054   3.066  10.755   2.633  0.6781 -0.0983  0.5423
  838MOL0     C13055   3.198  10.837   2.634  0.0139 -0.0559  0.2143
  838MOL0     C13056   3.212  10.924   2.502 -0.0705 -0.0627  0.1949
  838MOL0     C13057   3.347  11.002   2.503  0.0283 -0.7020  0.1682
  838MOL0     C13058   3.450  10.905   2.451 -0.0513 -0.4120 -0.4891
  838MOL0     C13059   3.522  10.813   2.421  0.7117  0.3017 -0.2336
  838MOL0     C13060   2.833  10.586   2.712  0.5788  0.2956  0.3326
  838MOL0     C13061   2.721  10.519   2.753 -0.1559  0.8298 -0.3542
  838MOL0     C13062   2.616  10.471   2.655 -0.0886 -0.2179 -0.4263
  838MOL0     H13063   2.495  10.108   2.988  1.3016  3.1560 -1.0596
  838MOL0     H13064   2.270   9.989   3.052 -1.7637  0.0598  1.8185
  838MOL0     H13065   2.056   9.931   3.084  0.6869  2.4764 -3.2421
  838MOL0     H13066   2.085  10.052   3.218 -0.3020  1.2203  0.4293
  838MOL0     H13067   1.884  10.070   3.283 -1.6888 -0.4446 -0.3339
  838MOL0     H13068   1.905   9.894   3.265  0.1484  1.3483  2.9014
  838MOL0     H13069   1.770   9.903   3.049 -2.3266 -1.2122  0.9619
  838MOL0     H13070   1.749  10.077   3.081  4.0086  1.4391  0.8307
  838MOL0     H13071   1.664   9.935   3.315  3.7693  0.8020 -0.6172
  838MOL0     H13072   1.570  10.014   3.195 -0.6308 -0.4623 -0.5955
  838MOL0     H13073   1.493   9.788   3.217 -0.4107  0.7980 -0.5008
  838MOL0     H13074   1.554   9.792   3.055 -0.9612 -1.5629  0.9260
  838MOL0     H13075   1.758   9.687   3.099  0.5800 -0.3044  0.8011
  838MOL0     H13076   1.728   9.676   3.271 -1.6939 -0.8694  1.2103
  838MOL0     H13077   1.598   9.537   3.051 -1.0803  1.0989  0.1108
  838MOL0     H13078   1.502   9.580   3.193  0.3289 -0.3301  0.6339
  838MOL0     H13079   1.738   9.395   3.154 -1.0599  1.0875 -1.1587
  838MOL0     H13080   1.711   9.461   3.319  1.0596  0.0940 -1.6326
  838MOL0     H13081   1.571   9.225   3.065 -0.5299 -1.3339 -0.7878
  838MOL0     H13082   1.235   9.075   3.239 -0.5236  1.1843  0.0385
  838MOL0     H13083   1.282   9.119   3.073  1.7586  0.5554 -0.3467
  838MOL0     H13084   1.325   8.892   3.085 -1.7831  3.2015  0.3369
  838MOL0     H13085   1.489   8.946   3.101  0.2468 -1.4822  1.3740
  838MOL0     H13086   1.373   8.765   3.261  0.7624  0.1178  0.0860
  838MOL0     H13087   1.366   8.904   3.368  0.8713 -1.1998  1.5963
  838MOL0     H13088   1.569   8.755   3.391 -2.2727 -2.2307 -3.0373
  838MOL0     H13089   1.612   8.919   3.384  0.4622 -0.9924  0.4099
  838MOL0     H13090   1.811   8.876   3.017  0.5540  1.1213  1.1977
  838MOL0     H13091   2.048   8.840   2.998 -0.6024 -0.2204  0.3251
  838MOL0     H13092   2.431   8.584   3.064 -3.2329  1.1454 -0.5897
  838MOL0     H13093   2.672   8.600   2.961  1.2500  0.8883  0.9522
  838MOL0     H13094   2.923   8.706   3.019  0.6459 -4.4235  0.1730
  838MOL0     H13095   2.858   8.610   2.897  2.2199 -1.9557  4.6299
  838MOL0     H13096   3.027   8.846   2.819 -2.3374  0.3369 -0.5340
  838MOL0     H13097   3.099   8.681   2.839  1.4354  1.0563 -1.1399
  838MOL0     H13098   2.960   8.598   2.647 -0.4257 -0.2420  2.2803
  838MOL0     H13099   2.859   8.739   2.648  1.5944  2.4263 -1.9723
  838MOL0     H13100   3.143   8.719   2.577  0.3060 -1.6380  0.4759
  838MOL0     H13101   3.087   8.881   2.600 -0.0528 -0.8789 -1.4120
  838MOL0     H13102   2.941   8.695   2.409 -0.8779 -0.7729  2.0620
  838MOL0     H13103   3.088   8.782   2.355 -0.2354 -0.0455  0.4894
  838MOL0     H13104   2.844   8.902   2.487 -0.0356 -0.2533  0.5898
  838MOL0     H13105   2.987   8.997   2.440 -1.5828  1.0245  0.0310
  838MOL0     H13106   2.844   8.852   2.222 -0.6593  0.8304  0.2205
  838MOL0     H13107   2.972   8.981   2.211  0.3744  1.7374  0.7618
  838MOL0     H13108   2.807   9.133   2.311  2.7557 -3.2620  2.7376
  838MOL0     H13109   2.780   9.078   2.136 -3.0063  0.4296 -0.7405
  838MOL0     H13110   2.646   9.014   2.959 -0.3368 -0.9411 -1.3479
  838MOL0     H13111   2.422   9.015   3.020  3.3200  2.1650 -0.7032
  838MOL0     H13112   2.044   8.681   3.405  1.4096 -3.3703 -1.9569
  838MOL0     H13113   1.799   8.716   3.407 -3.3581 -0.4502 -1.7105
  838MOL0     H13114   2.076  10.361   2.968  0.3141  0.0826  0.1576
  838MOL0     H13115   2.282  10.445   2.854  1.4273  1.8258  3.3342
  838MOL0     H13116   2.775  10.530   3.089 -2.5431 -0.9432 -0.6326
  838MOL0     H13117   2.988  10.647   3.004 -0.6143  0.6997  0.3162
  838MOL0     H13118   2.984  10.822   2.606  1.7114  2.1669  2.5831
  838MOL0     H13119   3.073  10.678   2.556 -0.0653 -1.1738  1.5228
  838MOL0     H13120   3.279  10.765   2.645 -1.6397 -1.7009  2.5655
  838MOL0     H13121   3.198  10.914   2.712  1.9011  0.2609 -0.0577
  838MOL0     H13122   3.138  11.003   2.493  1.2847  1.6078  2.4529
  838MOL0     H13123   3.207  10.849   2.423  1.4362 -0.6203  0.5910
  838MOL0     H13124   3.340  11.074   2.421  0.5375 -1.2543 -0.3658
  838MOL0     H13125   3.372  11.054   2.596  0.8600 -0.2878 -0.2778
  838MOL0     H13126   3.593  10.738   2.396 -0.3185 -0.1503 -1.9943
  838MOL0     H13127   2.863  10.595   2.608  3.8400 -0.1017  1.1127
  838MOL0     H13128   2.521  10.509   2.692  0.0529 -0.8294  0.6100
  838MOL0     H13129   2.647  10.513   2.559 -1.3458  2.8022  0.3758
  838MOL0     H13130   2.609  10.362   2.645 -0.6063 -0.1971 -0.2954
  839MOL0     O13131   0.234   7.538   5.690  0.7285  0.7136  0.3102
  839MOL0     C13132   0.209   7.474   5.789  0.4621  0.0239 -0.0322
  839MOL0     O13133   0.297   7.388   5.853  0.3815 -0.3897  0.2343
  839MOL0     C13134   0.418   7.373   5.784  0.3286  0.2993  0.1750
  839MOL0     C13135   0.434   7.264   5.698  0.7409  0.4493 -0.1961
  839MOL0     C13136   0.556   7.230   5.646 -0.3002 -0.7758 -0.9057
  839MOL0     C13137   0.675   7.306   5.690 -0.5016  0.0445  0.3375
  839MOL0     O13138   0.807   7.280   5.647  0.2952 -0.2312 -0.0426
  839MOL0     C13139   0.821   7.195   5.535 -0.3238  1.0514  0.4409
  839MOL0     C13140   0.961   7.201   5.477  0.3082  0.4890 -0.7067
  839MOL0     C13141   1.077   7.186   5.580  0.7626  0.3938  0.1425
  839MOL0     C13142   1.062   7.069   5.665  1.6115 -1.2122 -0.6568
  839MOL0     C13143   1.190   7.023   5.726 -0.3962 -0.0030 -0.0054
  839MOL0     C13144   1.163   6.886   5.798  0.3487 -0.3814 -0.3347
  839MOL0     C13145   1.285   6.831   5.875  0.6951  0.8819 -0.6262
  839MOL0     C13146   1.421   6.872   5.820  0.2034 -0.1570  0.2856
  839MOL0     N13147   1.539   6.817   5.893 -0.4083 -0.7633  0.2560
  839MOL0     C13148   1.614   6.711   5.852  0.1113 -0.0812 -0.1501
  839MOL0     C13149   1.716   6.715   5.935 -0.1977  0.3388  0.2895
  839MOL0     C13150   1.834   6.622   5.920 -0.3271 -0.2103 -0.9003
  839MOL0     C13151   1.965   6.666   5.985  0.4292 -1.0883 -0.6547
  839MOL0     C13152   2.057   6.548   5.958  0.3485 -0.1076 -0.5234
  839MOL0     C13153   2.186   6.568   6.031 -0.1997 -0.1491  0.3920
  839MOL0     O13154   2.258   6.645   5.933  0.7665 -0.0291  0.0192
  839MOL0     C13155   2.395   6.666   5.949  0.6534  0.2520  0.1062
  839MOL0     C13156   2.457   6.735   5.851 -0.1069 -0.9186  0.0696
  839MOL0     C13157   2.594   6.751   5.847 -0.8206 -0.1049 -0.1446
  839MOL0     C13158   2.676   6.703   5.953  0.4130  0.3620 -0.3078
  839MOL0     C13159   2.819   6.735   5.977  0.8684  0.0383  0.6449
  839MOL0     O13160   2.878   6.798   5.870 -0.5123 -0.0992  0.0310
  839MOL0     C13161   3.016   6.809   5.863 -0.5994  0.4974 -0.2762
  839MOL0     C13162   3.097   6.695   5.818 -0.2844  0.5232 -0.8956
  839MOL0     C13163   3.235   6.697   5.834 -0.0930 -0.7411 -0.8283
  839MOL0     C13164   3.303   6.811   5.877  0.2729 -0.2349 -0.1725
  839MOL0     O13165   3.442   6.813   5.879  0.0472 -0.0218  0.1476
  839MOL0     C13166   3.519   6.934   5.896  0.0800  0.9680 -0.3413
  839MOL0     C13167   3.670   6.904   5.905 -0.4951  0.2840  0.0738
  839MOL0     C13168   3.755   6.831   5.793  0.5917  0.8022 -0.3410
  839MOL0     C13169   3.737   6.900   5.659  0.4247 -0.4094  1.2680
  839MOL0     C13170   3.786   6.822   5.534 -0.6553 -0.3143 -1.1280
  839MOL0     C13171   3.761   6.903   5.408  0.2305 -0.2491 -0.8443
  839MOL0     C13172   3.854   6.847   5.288  0.7524  0.9540  0.1475
  839MOL0     C13173   4.009   6.853   5.291 -0.4650 -0.1545 -0.8615
  839MOL0    Cl13174   4.040   7.032   5.308 -0.0061  0.1890  0.5213
  839MOL0     C13175   3.229   6.916   5.922 -0.0323  0.3210 -0.7586
  839MOL0     C13176   3.087   6.922   5.902 -0.2967 -0.2991  0.4049
  839MOL0     O13177   2.871   6.698   6.074  0.0332 -0.0513  0.0943
  839MOL0     C13178   2.602   6.631   6.053  0.1697  0.1449 -0.3038
  839MOL0     C13179   2.467   6.618   6.055 -0.0849 -0.1622  0.4770
  839MOL0     N13180   1.694   6.808   6.039 -0.1887 -0.1743  1.0254
  839MOL0     N13181   1.588   6.868   6.007 -0.1721  0.1200 -0.3047
  839MOL0     C13182   0.651   7.410   5.780 -0.1968 -0.2707 -0.3689
  839MOL0     C13183   0.532   7.443   5.826 -0.0755  0.3102 -0.2421
  839MOL0     C13184   0.070   7.495   5.858  0.2862 -0.8164  0.3155
  839MOL0     C13185   0.061   7.480   5.994 -0.4576 -0.1331 -0.6021
  839MOL0     C13186  -0.058   7.479   6.065  0.3330  0.0073  0.5824
  839MOL0     C13187  -0.182   7.498   5.997 -0.2789 -0.7651 -0.2526
  839MOL0     O13188  -0.300   7.483   6.054  0.5998 -0.2139  0.2052
  839MOL0     C13189  -0.410   7.572   6.022 -0.4996  0.0277 -0.0545
  839MOL0     C13190  -0.544   7.497   6.033  0.6006  1.0931 -0.3331
  839MOL0     C13191  -0.561   7.399   5.920 -0.1272  0.2250 -0.0198
  839MOL0     C13192  -0.690   7.308   5.920  0.0345  0.5994 -0.4781
  839MOL0     C13193  -0.813   7.385   5.903  0.6949 -0.1597 -0.4353
  839MOL0     C13194  -0.912   7.455   5.887 -0.5121 -0.5742  0.5187
  839MOL0     C13195  -0.175   7.527   5.862  0.0997 -0.2985  0.5121
  839MOL0     C13196  -0.052   7.539   5.793  0.1377 -0.9046 -0.6211
  839MOL0     C13197  -0.059   7.586   5.650  0.4955  0.3689  0.3495
  839MOL0     H13198   0.348   7.207   5.665 -0.5907  1.2351  1.7089
  839MOL0     H13199   0.560   7.145   5.579 -0.5752 -0.5000 -1.2791
  839MOL0     H13200   0.792   7.093   5.562 -0.6906  1.3703  1.2704
  839MOL0     H13201   0.760   7.230   5.451 -0.1937 -2.3292 -1.2611
  839MOL0     H13202   0.972   7.293   5.419 -0.7222  0.0646 -1.6143
  839MOL0     H13203   0.961   7.119   5.405 -0.1926 -0.9956  0.8961
  839MOL0     H13204   1.077   7.281   5.632 -0.4281  1.2429 -1.3200
  839MOL0     H13205   1.174   7.181   5.530 -0.1624  1.2499 -1.8398
  839MOL0     H13206   0.999   7.096   5.750  2.7540  0.4495 -0.2956
  839MOL0     H13207   1.012   6.988   5.610  1.1294 -0.5778 -1.1678
  839MOL0     H13208   1.261   7.011   5.644 -0.3030 -0.7211  0.1777
  839MOL0     H13209   1.223   7.110   5.784  0.1027  0.2010 -0.5862
  839MOL0     H13210   1.077   6.903   5.863  0.5425  0.9493 -0.3911
  839MOL0     H13211   1.130   6.813   5.724  1.6712 -1.4825  0.1252
  839MOL0     H13212   1.283   6.722   5.871  3.6246  0.7763 -1.5911
  839MOL0     H13213   1.296   6.858   5.981 -0.6944 -0.4604 -0.1096
  839MOL0     H13214   1.425   6.843   5.715 -1.0304 -0.6694  0.3550
  839MOL0     H13215   1.425   6.981   5.819 -0.7993 -0.0788 -2.5526
  839MOL0     H13216   1.611   6.661   5.755  2.3785  3.0190 -1.9976
  839MOL0     H13217   1.788   6.528   5.954  1.0594 -1.2518 -1.7962
  839MOL0     H13218   1.862   6.609   5.815  3.6504  1.7660 -0.2703
  839MOL0     H13219   2.000   6.752   5.927  2.3616 -1.0478  0.5136
  839MOL0     H13220   1.959   6.704   6.087 -0.4993  0.2529 -1.1655
  839MOL0     H13221   2.076   6.538   5.850  1.5641  5.5380 -1.1500
  839MOL0     H13222   2.014   6.457   6.000 -1.7516  0.8664 -0.4354
  839MOL0     H13223   2.232   6.471   6.053 -1.6829 -1.1999 -0.9309
  839MOL0     H13224   2.166   6.635   6.115 -1.2530  1.7694 -1.3139
  839MOL0     H13225   2.398   6.770   5.767  2.8185 -1.5227 -2.4129
  839MOL0     H13226   2.642   6.803   5.765  0.1550 -0.4538  0.1935
  839MOL0     H13227   3.036   6.609   5.795  0.4078  0.0413 -0.9655
  839MOL0     H13228   3.292   6.605   5.822  1.4291 -0.3775  2.3799
  839MOL0     H13229   3.496   7.003   5.814  0.5188 -0.8550 -2.0814
  839MOL0     H13230   3.487   6.982   5.989  1.0269  0.0695  0.4778
  839MOL0     H13231   3.718   7.000   5.926 -1.4584  1.1576 -1.5801
  839MOL0     H13232   3.677   6.844   5.997  2.1031  0.2202 -0.0687
  839MOL0     H13233   3.859   6.815   5.821  0.1672 -1.7949  0.0344
  839MOL0     H13234   3.733   6.724   5.782  2.4440  0.5979 -2.8504
  839MOL0     H13235   3.805   6.986   5.657  2.8365 -2.2067  1.4073
  839MOL0     H13236   3.631   6.923   5.644  0.6142 -0.3566 -0.0885
  839MOL0     H13237   3.753   6.718   5.528 -1.3773 -0.1533 -0.2297
  839MOL0     H13238   3.894   6.810   5.551 -0.8878  0.2194  1.0077
  839MOL0     H13239   3.654   6.886   5.393 -0.6439  2.4999  1.3082
  839MOL0     H13240   3.780   7.009   5.427 -1.8610  0.3007 -1.5769
  839MOL0     H13241   3.823   6.897   5.196  1.2406  1.5083  0.2790
  839MOL0     H13242   3.827   6.742   5.273 -1.4497  1.0988  2.3852
  839MOL0     H13243   4.042   6.802   5.382 -0.5541  1.7865  0.3095
  839MOL0     H13244   4.051   6.800   5.204  1.2570 -3.0485  1.5421
  839MOL0     H13245   3.283   6.994   5.974  1.3836 -1.4312  0.5762
  839MOL0     H13246   3.030   7.013   5.921  1.1352  0.4779  1.1702
  839MOL0     H13247   2.657   6.609   6.144 -0.0316 -1.9821 -0.6251
  839MOL0     H13248   2.418   6.573   6.141 -0.5911  1.1724  0.9077
  839MOL0     H13249   0.743   7.440   5.830 -0.5941 -1.1537  0.9396
  839MOL0     H13250   0.520   7.511   5.909 -0.7733  0.4875 -0.4782
  839MOL0     H13251   0.148   7.453   6.053  0.5378  1.0823 -1.4581
  839MOL0     H13252  -0.054   7.457   6.171 -0.9265 -1.2793  0.3885
  839MOL0     H13253  -0.405   7.635   5.932 -2.0226  2.7662  1.6342
  839MOL0     H13254  -0.413   7.648   6.101 -1.3449  1.6098 -1.5253
  839MOL0     H13255  -0.621   7.575   6.030  1.6570  2.1673 -0.2485
  839MOL0     H13256  -0.548   7.436   6.123 -1.2159  0.8959 -0.5105
  839MOL0     H13257  -0.479   7.327   5.928  0.5388  0.9866  0.1003
  839MOL0     H13258  -0.558   7.456   5.826 -2.7312  0.9371  0.2580
  839MOL0     H13259  -0.675   7.248   5.830  5.0469  1.1237 -0.2759
  839MOL0     H13260  -0.691   7.234   6.000  1.3917 -0.4636 -1.3977
  839MOL0     H13261  -1.001   7.512   5.874 -0.4711 -0.5411  0.3841
  839MOL0     H13262  -0.264   7.523   5.799 -0.4862 -0.5279  1.3454
  839MOL0     H13263  -0.158   7.614   5.614  0.6421  3.7478  2.1622
  839MOL0     H13264  -0.000   7.676   5.627 -0.5079  0.9710  0.0700
  839MOL0     H13265  -0.034   7.507   5.579 -0.7765 -1.2863  1.6853
  840MOL0     O13266   1.160   3.882   2.842 -0.2331 -0.0973 -0.4434
  840MOL0     C13267   1.156   4.005   2.838  0.1739 -0.0894 -0.6822
  840MOL0     O13268   1.262   4.084   2.872 -0.3972 -0.4490  0.6574
  840MOL0     C13269   1.381   4.021   2.917  0.7323  0.3859 -1.0375
  840MOL0     C13270   1.447   4.085   3.028  0.2288 -0.4801  1.2380
  840MOL0     C13271   1.572   4.034   3.074 -0.1003  0.4054  0.2937
  840MOL0     C13272   1.634   3.935   3.007 -0.1955  0.8325  0.0934
  840MOL0     O13273   1.761   3.904   3.062  1.2093  0.4130 -0.2921
  840MOL0     C13274   1.851   3.837   2.979 -0.5327 -0.2654  1.1828
  840MOL0     C13275   1.991   3.885   3.028  0.1293  0.5556  0.4662
  840MOL0     C13276   2.100   3.809   2.962  0.1676  0.7919  0.4245
  840MOL0     C13277   2.232   3.835   3.039  0.3232  0.0422 -0.8113
  840MOL0     C13278   2.340   3.731   2.993  0.5613  0.4001 -0.8018
  840MOL0     C13279   2.307   3.592   3.051 -0.0438 -0.5856  0.1164
  840MOL0     C13280   2.431   3.496   3.065  0.4380 -0.0561 -0.5040
  840MOL0     C13281   2.529   3.546   3.175 -0.2162 -0.3357  0.0485
  840MOL0     N13282   2.621   3.435   3.207 -0.1028  0.2741 -0.3427
  840MOL0     C13283   2.735   3.400   3.141 -1.6135  0.8180  0.1204
  840MOL0     C13284   2.769   3.274   3.181  0.0163  0.1379  0.7866
  840MOL0     C13285   2.884   3.201   3.128 -0.3271  0.1010  0.0592
  840MOL0     C13286   3.013   3.234   3.210  0.0904  0.1251 -1.0817
  840MOL0     C13287   2.998   3.227   3.358 -1.0953  0.0455  0.2659
  840MOL0     C13288   2.941   3.086   3.389  0.3904 -0.3918 -0.3626
  840MOL0     O13289   2.977   3.045   3.523 -0.3706  0.1143 -0.1560
  840MOL0     C13290   2.919   3.113   3.625 -0.4767 -0.4787 -1.0920
  840MOL0     C13291   2.809   3.202   3.613 -0.2604  0.1773 -0.0023
  840MOL0     C13292   2.773   3.279   3.721 -0.0504 -0.1724  0.7025
  840MOL0     C13293   2.840   3.262   3.848  0.4540  0.2725  0.1495
  840MOL0     C13294   2.799   3.344   3.960 -0.1387 -0.2489  0.1050
  840MOL0     O13295   2.879   3.329   4.064 -0.0991  0.4635 -0.4567
  840MOL0     C13296   2.817   3.362   4.187 -0.9651 -0.6498  0.1782
  840MOL0     C13297   2.851   3.468   4.264  0.0173  0.5278 -0.1099
  840MOL0     C13298   2.789   3.486   4.393 -0.6777  0.5683 -0.4677
  840MOL0     C13299   2.706   3.391   4.445  0.3569  0.0482 -0.4577
  840MOL0     O13300   2.648   3.418   4.563  0.2823  0.3418 -0.5675
  840MOL0     C13301   2.644   3.305   4.660 -0.0040 -0.0854 -0.9033
  840MOL0     C13302   2.623   3.359   4.799 -0.2102 -0.6108  0.1652
  840MOL0     C13303   2.480   3.356   4.843 -0.2191  0.8834  0.6621
  840MOL0     C13304   2.401   3.477   4.780 -0.0544  0.5369 -0.5296
  840MOL0     C13305   2.264   3.436   4.724  0.4767  0.0009  1.0005
  840MOL0     C13306   2.198   3.541   4.633  0.3005  0.0003 -0.0063
  840MOL0     C13307   2.209   3.685   4.682 -0.3903  0.3729 -0.2224
  840MOL0     C13308   2.127   3.780   4.594  0.4601  0.1780 -0.3957
  840MOL0    Cl13309   2.112   3.946   4.666  0.2274  0.1327  0.2988
  840MOL0     C13310   2.675   3.272   4.372 -0.4501  0.1921  0.3122
  840MOL0     C13311   2.733   3.261   4.241  0.2373 -0.4268 -0.7224
  840MOL0     O13312   2.705   3.417   3.945  0.5213 -0.1280  0.4813
  840MOL0     C13313   2.937   3.161   3.866  0.6804  0.3904 -1.3985
  840MOL0     C13314   2.983   3.103   3.750  1.0688  0.2214 -0.5451
  840MOL0     N13315   2.681   3.244   3.283  0.9647  0.6263  0.8921
  840MOL0     N13316   2.596   3.339   3.294  0.0076  0.5289  0.8639
  840MOL0     C13317   1.577   3.876   2.900  0.1948  0.3343  0.3148
  840MOL0     C13318   1.451   3.919   2.852  0.3062  0.0861 -0.4891
  840MOL0     C13319   1.033   4.071   2.789 -0.0214  0.0159 -0.0268
  840MOL0     C13320   1.032   4.210   2.790 -0.0279 -0.1239  0.3080
  840MOL0     C13321   0.927   4.285   2.737 -0.8863  0.0071 -0.2584
  840MOL0     C13322   0.807   4.223   2.687  0.1651 -1.0818 -0.2127
  840MOL0     O13323   0.711   4.305   2.643  0.3599  0.3480  0.7687
  840MOL0     C13324   0.594   4.255   2.590 -0.6206 -0.5043  0.9615
  840MOL0     C13325   0.504   4.363   2.521  0.0636  0.5603  0.4437
  840MOL0     C13326   0.440   4.462   2.623  0.4866  0.4914  0.2635
  840MOL0     C13327   0.538   4.544   2.710  0.3783  0.6966 -0.3357
  840MOL0     C13328   0.493   4.673   2.755  0.3217  0.0294  1.1672
  840MOL0     C13329   0.446   4.774   2.798  0.4439  0.2088  0.2873
  840MOL0     C13330   0.808   4.086   2.700  0.0368  0.8944 -0.1531
  840MOL0     C13331   0.913   4.008   2.748 -0.4060 -0.0493  0.2675
  840MOL0     C13332   0.893   3.863   2.747  0.3934  0.8375  0.2009
  840MOL0     H13333   1.396   4.164   3.082  0.8402  1.4796 -0.8973
  840MOL0     H13334   1.614   4.070   3.167 -1.4944  1.5319  0.5353
  840MOL0     H13335   1.843   3.729   2.965 -2.6210  0.1249 -1.3215
  840MOL0     H13336   1.835   3.878   2.879 -0.3749  1.2907  1.7742
  840MOL0     H13337   1.988   3.878   3.137 -2.0251 -1.8935  0.3448
  840MOL0     H13338   2.007   3.992   3.010  0.1768  0.8039  1.8812
  840MOL0     H13339   2.113   3.842   2.859  0.5058  1.1401  0.5782
  840MOL0     H13340   2.085   3.700   2.963  1.8183  0.5417  0.2720
  840MOL0     H13341   2.271   3.936   3.021 -2.5812  1.4600  0.1823
  840MOL0     H13342   2.224   3.819   3.147 -0.5644  2.4105 -0.4622
  840MOL0     H13343   2.346   3.720   2.884 -0.6310 -1.6536 -0.7063
  840MOL0     H13344   2.435   3.772   3.030  1.1296 -2.0436  0.6967
  840MOL0     H13345   2.258   3.594   3.148 -0.0202  0.4143  0.1179
  840MOL0     H13346   2.245   3.541   2.977 -1.5298  1.9943 -0.5680
  840MOL0     H13347   2.479   3.482   2.968  0.4865 -3.6654 -0.0772
  840MOL0     H13348   2.396   3.398   3.097  0.5343 -0.3301 -1.2268
  840MOL0     H13349   2.592   3.631   3.148 -0.2844  0.4370  2.1310
  840MOL0     H13350   2.475   3.584   3.262  1.1235 -0.7831  1.1255
  840MOL0     H13351   2.783   3.448   3.057 -1.0644  2.0155  1.0913
  840MOL0     H13352   2.866   3.093   3.134 -0.1981 -0.1578 -2.9807
  840MOL0     H13353   2.904   3.226   3.024 -1.2204  0.0408 -0.1343
  840MOL0     H13354   3.093   3.164   3.185 -0.0904 -2.1522  3.6240
  840MOL0     H13355   3.059   3.331   3.188  1.2737 -0.2251 -0.2404
  840MOL0     H13356   2.926   3.302   3.394 -1.8874 -1.0359  0.9829
  840MOL0     H13357   3.097   3.241   3.402  0.2484  1.3318 -2.8308
  840MOL0     H13358   2.982   3.010   3.322  1.9548 -1.0642  1.2816
  840MOL0     H13359   2.833   3.087   3.371  0.6741 -0.4856 -2.3235
  840MOL0     H13360   2.751   3.206   3.521  2.4131  1.9689 -1.7850
  840MOL0     H13361   2.693   3.351   3.706 -0.3254 -0.6581 -0.3048
  840MOL0     H13362   2.919   3.542   4.222  0.5242  1.0220  1.5069
  840MOL0     H13363   2.802   3.578   4.450 -1.0275  0.1367  0.3265
  840MOL0     H13364   2.571   3.224   4.646  1.1883 -1.7995  2.0214
  840MOL0     H13365   2.739   3.252   4.655  0.5980  0.7419  1.1047
  840MOL0     H13366   2.689   3.310   4.870  0.3806  0.3663  0.3064
  840MOL0     H13367   2.648   3.465   4.808  1.0091 -0.9702  1.4609
  840MOL0     H13368   2.446   3.255   4.815  1.2442  1.0453 -2.0427
  840MOL0     H13369   2.477   3.370   4.951 -0.9654 -2.4219  1.1805
  840MOL0     H13370   2.459   3.534   4.706  0.2778 -1.1429 -1.6146
  840MOL0     H13371   2.369   3.541   4.863  0.2785  0.2530 -0.1852
  840MOL0     H13372   2.193   3.409   4.802 -1.4504  0.9132 -0.3593
  840MOL0     H13373   2.287   3.343   4.672 -0.6987  0.5032 -0.4696
  840MOL0     H13374   2.245   3.545   4.534  0.8266  4.5683  0.1981
  840MOL0     H13375   2.092   3.517   4.620  0.2456  0.3362 -0.2048
  840MOL0     H13376   2.312   3.720   4.687 -0.7904  1.3932  1.9637
  840MOL0     H13377   2.164   3.688   4.781  0.1760 -1.5705  0.1279
  840MOL0     H13378   2.186   3.787   4.502 -0.9219  1.1638 -1.2506
  840MOL0     H13379   2.031   3.728   4.584  0.8231 -0.3575 -1.1419
  840MOL0     H13380   2.608   3.192   4.402  0.6445 -1.6797 -1.9107
  840MOL0     H13381   2.706   3.174   4.181  1.0065  0.3418 -2.2403
  840MOL0     H13382   2.989   3.137   3.958 -1.4832 -3.2681 -0.9108
  840MOL0     H13383   3.063   3.031   3.767 -0.1341 -1.2011 -0.6663
  840MOL0     H13384   1.632   3.802   2.842  0.2221 -0.0625  0.8396
  840MOL0     H13385   1.407   3.867   2.769 -1.2004  1.0677 -0.3463
  840MOL0     H13386   1.121   4.257   2.833  0.8011 -2.0163  0.7547
  840MOL0     H13387   0.945   4.392   2.729 -0.8739 -0.1343 -3.1673
  840MOL0     H13388   0.537   4.202   2.666 -4.9093  0.9836 -0.9361
  840MOL0     H13389   0.627   4.180   2.518 -1.7291  1.5784 -1.8640
  840MOL0     H13390   0.419   4.306   2.482 -0.9302  1.0749  1.7531
  840MOL0     H13391   0.555   4.413   2.439  1.8809  5.1857  3.9455
  840MOL0     H13392   0.357   4.419   2.680 -0.3793 -0.6619 -1.7449
  840MOL0     H13393   0.395   4.539   2.559  0.7231  1.8565  1.6890
  840MOL0     H13394   0.579   4.485   2.792 -0.6239  0.3529 -0.0614
  840MOL0     H13395   0.621   4.580   2.648  0.3314  3.0179  0.8426
  840MOL0     H13396   0.412   4.870   2.832 -2.9898 -0.6703 -0.2560
  840MOL0     H13397   0.721   4.040   2.654  0.1680  1.5887 -1.1294
  840MOL0     H13398   0.979   3.810   2.704 -0.3113  1.7273 -2.4856
  840MOL0     H13399   0.884   3.830   2.851 -1.2633 -0.6324 -0.3682
  840MOL0     H13400   0.795   3.833   2.710  1.1033  0.3977 -1.3988
  841MOL0     O13401   1.793  10.937   0.604 -0.0070 -0.0232  0.4566
  841MOL0     C13402   1.761  11.031   0.536 -0.1602 -0.2257  0.1711
  841MOL0     O13403   1.843  11.098   0.461 -0.0145 -0.4583 -0.2473
  841MOL0     C13404   1.975  11.092   0.484 -0.4340  0.3624  0.1581
  841MOL0     C13405   2.035  11.110   0.612 -0.5143 -0.4185 -0.0396
  841MOL0     C13406   2.174  11.109   0.629  0.8181  0.3096 -0.5253
  841MOL0     C13407   2.256  11.108   0.513  0.5793  0.0163  0.0153
  841MOL0     O13408   2.390  11.116   0.534 -0.4400 -0.6477  0.0875
  841MOL0     C13409   2.446  11.233   0.461 -0.4918  0.5574 -0.3448
  841MOL0     C13410   2.560  11.298   0.544 -0.4655 -0.3141 -0.4068
  841MOL0     C13411   2.679  11.200   0.549 -0.1889  0.7491  0.1181
  841MOL0     C13412   2.810  11.274   0.575  1.0246 -0.5928  0.0049
  841MOL0     C13413   2.946  11.204   0.539 -0.1482 -0.2566 -0.2287
  841MOL0     C13414   3.062  11.308   0.556  1.3215  1.2916 -0.4022
  841MOL0     C13415   3.202  11.249   0.530  0.9184 -0.5005 -0.0389
  841MOL0     C13416   3.212  11.213   0.379 -0.0659 -0.0014  0.0347
  841MOL0     N13417   3.338  11.278   0.333  0.3090  0.0457 -0.0065
  841MOL0     C13418   3.362  11.404   0.285 -0.1029  0.7032  0.4655
  841MOL0     C13419   3.490  11.392   0.243 -0.8143  0.0727 -1.5564
  841MOL0     C13420   3.596  11.498   0.216 -0.0826  0.0005  0.7558
  841MOL0     C13421   3.585  11.544   0.072 -0.5625  0.3566 -0.2259
  841MOL0     C13422   3.678  11.475  -0.023  0.0072 -0.0425  0.5356
  841MOL0     C13423   3.821  11.534  -0.022  0.2521  0.4108  0.4221
  841MOL0     O13424   3.903  11.467  -0.130 -0.1060 -0.5127 -0.3278
  841MOL0     C13425   4.034  11.517  -0.152  0.2591  0.2835 -0.2658
  841MOL0     C13426   4.095  11.472  -0.269  0.2105  0.7167  0.5023
  841MOL0     C13427   4.227  11.510  -0.296  0.0205  0.4558 -0.1452
  841MOL0     C13428   4.293  11.600  -0.215  0.5048 -0.1943  0.6084
  841MOL0     C13429   4.422  11.655  -0.258 -0.4888  0.1983 -0.2799
  841MOL0     O13430   4.486  11.739  -0.182  0.1300 -0.5632 -0.4448
  841MOL0     C13431   4.605  11.801  -0.223  0.8884  0.9140 -0.6078
  841MOL0     C13432   4.722  11.734  -0.237 -0.4803  0.0764 -0.1126
  841MOL0     C13433   4.837  11.796  -0.277 -0.3094  0.2962 -0.6863
  841MOL0     C13434   4.853  11.935  -0.299 -0.5409  0.7682 -0.0873
  841MOL0     O13435   4.974  11.996  -0.319 -0.1665 -0.2449  0.0740
  841MOL0     C13436   5.072  11.937  -0.412 -0.1692 -0.0767  0.2374
  841MOL0     C13437   5.182  11.882  -0.329 -0.1662  0.5353  0.2090
  841MOL0     C13438   5.299  11.980  -0.323 -0.5701 -0.2501 -0.2381
  841MOL0     C13439   5.410  11.939  -0.421  0.0370  0.4270  1.1028
  841MOL0     C13440   5.512  12.053  -0.436  0.7887  0.2905  0.4290
  841MOL0     C13441   5.609  12.070  -0.319 -0.1077  0.2911 -0.1814
  841MOL0     C13442   5.666  11.940  -0.262 -1.3196  0.5124 -0.4794
  841MOL0     C13443   5.783  11.953  -0.165 -0.0983  0.0267  0.2179
  841MOL0    Cl13444   5.762  12.084  -0.048  0.1229 -0.2333  0.4444
  841MOL0     C13445   4.735  12.003  -0.269 -0.2639 -1.3140 -0.1156
  841MOL0     C13446   4.615  11.941  -0.232  0.2486  0.2119 -0.0857
  841MOL0     O13447   4.477  11.605  -0.352  0.5532 -0.5133  0.3663
  841MOL0     C13448   4.234  11.645  -0.102  0.9227 -0.5343 -0.2182
  841MOL0     C13449   4.102  11.609  -0.069 -0.3687  0.0764  0.0191
  841MOL0     N13450   3.529  11.258   0.257 -0.0449 -0.3964  0.0663
  841MOL0     N13451   3.435  11.184   0.306 -0.0962 -0.0371  0.0649
  841MOL0     C13452   2.191  11.103   0.384 -0.1504 -0.4179 -0.1812
  841MOL0     C13453   2.051  11.075   0.372  0.1938  0.2452 -0.1136
  841MOL0     C13454   1.616  11.062   0.514  0.3025 -0.3454  0.7442
  841MOL0     C13455   1.588  11.153   0.409  0.5899  0.1128 -0.3262
  841MOL0     C13456   1.456  11.194   0.384  0.0369  0.5399  0.2209
  841MOL0     C13457   1.346  11.133   0.456 -0.2629  0.5181 -0.3141
  841MOL0     O13458   1.208  11.140   0.426 -0.5520 -0.6698  0.4764
  841MOL0     C13459   1.176  11.206   0.301  0.3602  0.1932  0.3228
  841MOL0     C13460   1.027  11.182   0.279 -0.2957 -0.3342 -0.3390
  841MOL0     C13461   0.955  11.265   0.177 -0.4298  0.3271  0.8931
  841MOL0     C13462   1.016  11.261   0.039  0.1880 -0.6758 -0.3280
  841MOL0     C13463   0.951  11.372  -0.035  0.0982 -0.0400  0.4508
  841MOL0     C13464   0.895  11.472  -0.083 -0.1906 -0.3910  0.3108
  841MOL0     C13465   1.380  11.038   0.557 -0.1466 -0.0241  0.3429
  841MOL0     C13466   1.506  11.007   0.590 -0.8033  0.3273  0.3981
  841MOL0     C13467   1.525  10.922   0.721  0.8669  0.2938  0.4718
  841MOL0     H13468   1.984  11.108   0.708  0.6613  1.5153  0.6889
  841MOL0     H13469   2.215  11.103   0.729  0.5616 -1.1771 -0.4811
  841MOL0     H13470   2.496  11.209   0.367  1.1955  1.5750  0.2622
  841MOL0     H13471   2.363  11.302   0.444 -2.4134 -1.2425  1.2110
  841MOL0     H13472   2.535  11.305   0.650 -0.4260  1.5031 -0.4848
  841MOL0     H13473   2.577  11.397   0.500  0.5376 -2.1081 -4.5785
  841MOL0     H13474   2.689  11.147   0.454 -1.2221  0.7535 -0.0019
  841MOL0     H13475   2.661  11.125   0.627  2.1384  0.3513  0.3707
  841MOL0     H13476   2.798  11.364   0.514 -4.7555 -1.5606 -0.9100
  841MOL0     H13477   2.806  11.308   0.679  0.7711  0.7550 -0.4237
  841MOL0     H13478   2.951  11.114   0.600 -1.0810  0.2623  0.6384
  841MOL0     H13479   2.942  11.175   0.433  0.5838 -1.7498  0.1317
  841MOL0     H13480   3.026  11.391   0.494 -1.2764  0.5548 -0.0007
  841MOL0     H13481   3.058  11.344   0.659  0.3530  0.9255 -0.3045
  841MOL0     H13482   3.222  11.164   0.595  0.0788 -0.6335  0.0449
  841MOL0     H13483   3.278  11.325   0.553  1.5142 -1.1431  0.1582
  841MOL0     H13484   3.219  11.104   0.386  0.6881  0.0351  0.0102
  841MOL0     H13485   3.123  11.236   0.321  0.2709  0.6865 -0.2276
  841MOL0     H13486   3.294  11.489   0.281  0.3325  1.1540  1.9215
  841MOL0     H13487   3.571  11.585   0.277  2.0156 -0.1952  1.9937
  841MOL0     H13488   3.700  11.467   0.236  1.6325  3.0537 -2.3593
  841MOL0     H13489   3.480  11.522   0.052 -0.0219 -2.3123 -0.3922
  841MOL0     H13490   3.601  11.652   0.060 -1.6522  0.3145 -2.4461
  841MOL0     H13491   3.638  11.481  -0.125  0.5458 -1.6129  0.1996
  841MOL0     H13492   3.677  11.368   0.001 -0.9462 -0.2606 -0.3942
  841MOL0     H13493   3.864  11.520   0.077  1.4982 -0.4719 -0.2176
  841MOL0     H13494   3.822  11.643  -0.033  2.2371  0.6910  2.5419
  841MOL0     H13495   4.048  11.402  -0.337  0.5682 -1.0581  1.9801
  841MOL0     H13496   4.275  11.486  -0.391  0.9620  2.6538 -0.2781
  841MOL0     H13497   4.716  11.626  -0.228 -2.1650  0.3247  2.4821
  841MOL0     H13498   4.928  11.739  -0.295  1.1452  1.3612  2.4375
  841MOL0     H13499   5.019  11.864  -0.474  0.0281  0.4172 -0.5276
  841MOL0     H13500   5.104  12.011  -0.486 -3.9555 -0.5289 -2.1024
  841MOL0     H13501   5.145  11.853  -0.230 -0.4869  1.0952  0.2531
  841MOL0     H13502   5.210  11.792  -0.384 -0.9053  0.8174 -0.6523
  841MOL0     H13503   5.271  12.082  -0.352  3.6152  0.8346 -1.1538
  841MOL0     H13504   5.343  11.981  -0.222 -0.1493  0.3660 -0.4214
  841MOL0     H13505   5.381  11.916  -0.524  1.6412  1.9636  0.2572
  841MOL0     H13506   5.453  11.849  -0.376 -0.8524 -0.4730  0.2182
  841MOL0     H13507   5.472  12.154  -0.451 -2.1140 -0.5966  1.4805
  841MOL0     H13508   5.564  12.029  -0.529 -0.5661  1.3749 -0.6609
  841MOL0     H13509   5.699  12.120  -0.354  2.3663 -3.2181  0.5610
  841MOL0     H13510   5.561  12.126  -0.238  0.5104 -0.4106  0.6947
  841MOL0     H13511   5.696  11.878  -0.347 -1.8168  1.2392 -1.1850
  841MOL0     H13512   5.587  11.889  -0.206 -0.2862 -0.7293 -0.0719
  841MOL0     H13513   5.787  11.866  -0.099 -2.1026 -0.0320  0.3111
  841MOL0     H13514   5.883  11.965  -0.209 -0.2387  2.9335  0.5279
  841MOL0     H13515   4.738  12.110  -0.288  4.5385 -1.6766 -3.4471
  841MOL0     H13516   4.534  12.001  -0.191  0.1442 -2.9765  5.2832
  841MOL0     H13517   4.283  11.724  -0.045  0.2579  0.7583 -1.3722
  841MOL0     H13518   4.043  11.646   0.015 -2.4357  1.2451 -1.8224
  841MOL0     H13519   2.255  11.096   0.297 -0.6852  1.5939 -0.7848
  841MOL0     H13520   2.008  11.042   0.278  1.1890  1.6558 -1.1117
  841MOL0     H13521   1.658  11.190   0.334  0.1678  1.9702  0.1417
  841MOL0     H13522   1.446  11.247   0.291  1.2128 -1.1635 -0.9362
  841MOL0     H13523   1.233  11.180   0.211  0.2215  1.3075 -0.1063
  841MOL0     H13524   1.189  11.314   0.307  0.4276  0.3216 -1.5136
  841MOL0     H13525   0.975  11.217   0.368  0.2592  0.2723 -0.2520
  841MOL0     H13526   1.013  11.076   0.253 -0.0020  0.0053 -2.0132
  841MOL0     H13527   0.956  11.370   0.206  0.5895  1.1463 -1.7665
  841MOL0     H13528   0.850  11.236   0.178  0.3867 -3.2524 -1.1213
  841MOL0     H13529   1.122  11.286   0.042  1.2789 -4.6096 -0.2398
  841MOL0     H13530   0.995  11.165  -0.008 -1.4534 -0.7673  0.5034
  841MOL0     H13531   0.844  11.550  -0.136 -1.2076 -0.9764  0.3904
  841MOL0     H13532   1.294  10.994   0.607 -1.4199  2.4502  0.5068
  841MOL0     H13533   1.590  10.970   0.795  1.0729  1.2199 -0.2984
  841MOL0     H13534   1.427  10.891   0.761  1.3648 -1.1046  0.6664
  841MOL0     H13535   1.583  10.833   0.696 -0.3442  0.3093 -2.9193
  842MOL0     O13536   3.423   6.707   1.667 -0.2516 -0.3228 -0.0054
  842MOL0     C13537   3.351   6.724   1.764  0.0080 -0.5116  0.1295
  842MOL0     O13538   3.393   6.738   1.896  0.8486 -0.1635  0.9819
  842MOL0     C13539   3.525   6.721   1.918  0.2340 -0.8078 -0.3013
  842MOL0     C13540   3.584   6.602   1.878 -0.1812  0.7230  0.4819
  842MOL0     C13541   3.718   6.588   1.885  0.7195  0.3419  0.6104
  842MOL0     C13542   3.797   6.700   1.914 -0.1253  0.4033  0.0639
  842MOL0     O13543   3.929   6.714   1.912 -0.2674  0.1371  0.0623
  842MOL0     C13544   4.016   6.611   1.863 -0.2114  0.6031  0.3708
  842MOL0     C13545   4.152   6.629   1.917 -0.2540  0.1979 -0.1611
  842MOL0     C13546   4.244   6.515   1.881  0.3750 -0.0712  0.5710
  842MOL0     C13547   4.390   6.547   1.916  0.2551 -0.2316 -0.5608
  842MOL0     C13548   4.487   6.424   1.911 -0.3137 -0.0544  0.5610
  842MOL0     C13549   4.635   6.467   1.928 -0.2743  0.3285 -0.3486
  842MOL0     C13550   4.678   6.503   2.076 -0.6818 -0.1677  0.1256
  842MOL0     C13551   4.823   6.543   2.087 -0.4797 -0.1149  0.2031
  842MOL0     N13552   4.856   6.615   2.212  0.9907  0.1619 -0.4009
  842MOL0     C13553   4.985   6.622   2.242 -0.3540 -0.3053  0.6091
  842MOL0     C13554   4.987   6.732   2.319 -0.5331 -0.6019 -0.0883
  842MOL0     C13555   5.102   6.797   2.380  0.3511  0.4146  0.0781
  842MOL0     C13556   5.121   6.747   2.521 -0.1649  0.0937 -0.3489
  842MOL0     C13557   5.206   6.842   2.618  0.4584  1.0556  0.1131
  842MOL0     C13558   5.353   6.860   2.578 -0.2214  0.1770 -0.4512
  842MOL0     O13559   5.411   6.729   2.590  0.0670 -0.6738 -0.4456
  842MOL0     C13560   5.548   6.725   2.575 -0.6649  0.0809 -0.1613
  842MOL0     C13561   5.629   6.821   2.516  0.8668 -0.3047  0.5127
  842MOL0     C13562   5.769   6.806   2.497 -0.1625 -0.8456  0.1009
  842MOL0     C13563   5.835   6.689   2.542  0.3325 -0.2646 -0.6534
  842MOL0     C13564   5.976   6.669   2.528  0.1392  0.2334  0.6499
  842MOL0     O13565   6.030   6.579   2.609 -0.4424 -0.7800 -0.1385
  842MOL0     C13566   6.165   6.561   2.603 -1.0154  0.0745 -0.1355
  842MOL0     C13567   6.246   6.626   2.699  1.4499  0.7746  0.1707
  842MOL0     C13568   6.384   6.608   2.687  0.1460 -0.5658 -0.0413
  842MOL0     C13569   6.443   6.520   2.600 -0.6260  0.7009  0.1206
  842MOL0     O13570   6.582   6.519   2.585 -0.3234 -0.0244  0.4854
  842MOL0     C13571   6.647   6.655   2.566  0.1744 -0.5847 -0.2689
  842MOL0     C13572   6.773   6.650   2.467  0.3568  0.0685 -0.7907
  842MOL0     C13573   6.869   6.530   2.497  0.7613 -0.0004  0.2861
  842MOL0     C13574   6.937   6.532   2.643  0.0826  0.3234 -0.2027
  842MOL0     C13575   7.046   6.639   2.650 -0.2998  0.2513  0.9307
  842MOL0     C13576   7.101   6.658   2.794  0.7146 -0.6412 -0.0527
  842MOL0     C13577   7.160   6.534   2.860 -0.9234  0.0417 -0.4957
  842MOL0     C13578   7.216   6.554   2.996  0.3199  0.0342 -0.2611
  842MOL0    Cl13579   7.248   6.408   3.082 -0.0669 -0.0243 -0.1167
  842MOL0     C13580   6.355   6.454   2.511 -0.3874 -0.4325 -0.6114
  842MOL0     C13581   6.213   6.467   2.521  0.4221 -0.5298 -0.7374
  842MOL0     O13582   6.027   6.726   2.435 -0.6195 -0.6053 -0.1536
  842MOL0     C13583   5.751   6.592   2.604  0.1140 -0.1975  0.4285
  842MOL0     C13584   5.608   6.614   2.623  0.2868  0.3966 -0.5492
  842MOL0     N13585   4.863   6.776   2.346  0.6415  0.3994  0.6992
  842MOL0     N13586   4.781   6.706   2.271 -0.4013 -0.3910 -0.1017
  842MOL0     C13587   3.740   6.811   1.967 -0.3726 -0.6600  0.3739
  842MOL0     C13588   3.597   6.830   1.969  0.5848  0.5449 -0.1099
  842MOL0     C13589   3.194   6.718   1.748  0.4900  0.2019  0.4804
  842MOL0     C13590   3.109   6.722   1.862 -0.1981 -0.1204 -0.2971
  842MOL0     C13591   2.963   6.711   1.848 -0.7227 -0.6418  0.4411
  842MOL0     C13592   2.907   6.691   1.725  0.2013 -1.1135 -0.3505
  842MOL0     O13593   2.768   6.676   1.720  0.3501  0.3275 -0.0054
  842MOL0     C13594   2.693   6.637   1.602 -0.3980  0.6643  0.1451
  842MOL0     C13595   2.580   6.731   1.600  0.3224 -0.0570 -0.3453
  842MOL0     C13596   2.631   6.866   1.544  0.3554 -0.0503 -0.9276
  842MOL0     C13597   2.521   6.972   1.550 -0.6279 -0.2554  0.0048
  842MOL0     C13598   2.397   6.932   1.486 -0.2115 -0.9398 -0.2918
  842MOL0     C13599   2.299   6.890   1.428  0.5259 -1.3353  0.1222
  842MOL0     C13600   2.990   6.699   1.613 -0.5386 -0.4637  0.7636
  842MOL0     C13601   3.128   6.709   1.620 -0.4736 -0.4971  0.3998
  842MOL0     C13602   3.203   6.716   1.481 -0.3432  0.7834 -0.7533
  842MOL0     H13603   3.533   6.514   1.841  1.4706 -0.4682  0.8985
  842MOL0     H13604   3.762   6.492   1.860  0.2595 -0.2659  2.0317
  842MOL0     H13605   3.964   6.520   1.893  1.2816 -0.3503  0.1735
  842MOL0     H13606   4.029   6.612   1.755  1.9754  0.0020  0.5827
  842MOL0     H13607   4.143   6.623   2.026 -1.5312 -1.5272 -0.3153
  842MOL0     H13608   4.191   6.729   1.895 -2.1450  1.6607  2.5740
  842MOL0     H13609   4.240   6.499   1.773  2.1599  0.5186  0.3717
  842MOL0     H13610   4.202   6.426   1.927 -1.6896 -0.2825 -1.5127
  842MOL0     H13611   4.426   6.616   1.839  1.8176  0.8037  1.0202
  842MOL0     H13612   4.393   6.600   2.011  1.4129 -1.7516  0.2961
  842MOL0     H13613   4.458   6.352   1.988 -0.9733  0.5464  0.8832
  842MOL0     H13614   4.486   6.374   1.814  1.1756 -2.9365  1.9298
  842MOL0     H13615   4.705   6.391   1.893  1.3654  2.0514 -0.9884
  842MOL0     H13616   4.650   6.558   1.869  2.5357  1.0653  1.3440
  842MOL0     H13617   4.659   6.418   2.142  0.1271 -0.9418 -0.5988
  842MOL0     H13618   4.620   6.592   2.103  2.2866  1.8460  0.3703
  842MOL0     H13619   4.886   6.456   2.066  1.0590  1.3097 -1.3174
  842MOL0     H13620   4.848   6.609   2.004  0.8700 -1.0350 -0.1583
  842MOL0     H13621   5.072   6.570   2.202  2.1340  2.8138  1.5481
  842MOL0     H13622   5.194   6.791   2.321 -0.6304 -0.3099 -1.4337
  842MOL0     H13623   5.080   6.904   2.386  0.7779  0.4394  1.7609
  842MOL0     H13624   5.021   6.728   2.562 -0.0689  1.2383  0.4717
  842MOL0     H13625   5.155   6.642   2.518 -0.0412  0.1652 -2.3817
  842MOL0     H13626   5.215   6.793   2.715 -2.6247 -1.2793 -0.6358
  842MOL0     H13627   5.158   6.940   2.634 -1.6765  0.9399 -4.2304
  842MOL0     H13628   5.400   6.940   2.636 -0.7820 -0.1507  0.4809
  842MOL0     H13629   5.357   6.894   2.474 -0.1672 -1.2065 -0.9162
  842MOL0     H13630   5.575   6.904   2.471  0.0617 -1.4152 -0.6426
  842MOL0     H13631   5.839   6.877   2.454  1.7073 -2.2498  0.6801
  842MOL0     H13632   6.207   6.692   2.776  4.1475  1.1150  1.3565
  842MOL0     H13633   6.454   6.652   2.757 -0.9052 -1.1055  1.3817
  842MOL0     H13634   6.573   6.731   2.538  1.2753  0.7255  0.2428
  842MOL0     H13635   6.679   6.706   2.658  0.2968  2.0370 -1.6733
  842MOL0     H13636   6.748   6.641   2.361  1.9738  0.1342 -1.2012
  842MOL0     H13637   6.826   6.746   2.477 -0.4718  0.3978  0.6608
  842MOL0     H13638   6.801   6.446   2.480 -1.1412  1.7266 -1.0610
  842MOL0     H13639   6.951   6.533   2.425 -0.6112 -0.5290 -1.3840
  842MOL0     H13640   6.983   6.433   2.659 -1.1698 -0.4428 -1.1634
  842MOL0     H13641   6.853   6.537   2.713  0.8444 -0.2072  0.7739
  842MOL0     H13642   7.008   6.735   2.612 -1.1091 -0.3989  0.0581
  842MOL0     H13643   7.125   6.612   2.579 -3.3916 -2.2750 -1.8975
  842MOL0     H13644   7.179   6.734   2.802 -0.2713  0.1781  2.8216
  842MOL0     H13645   7.022   6.689   2.863 -0.4327 -2.2223 -0.6143
  842MOL0     H13646   7.233   6.488   2.792 -3.0784 -3.1731 -0.8424
  842MOL0     H13647   7.089   6.452   2.871 -1.1297 -0.4632 -4.3587
  842MOL0     H13648   7.305   6.618   3.002  0.5960 -0.3858  0.2658
  842MOL0     H13649   7.139   6.603   3.057 -1.4670 -0.9717 -1.6410
  842MOL0     H13650   6.401   6.395   2.432  1.2581 -2.4176  1.6496
  842MOL0     H13651   6.157   6.403   2.454  2.0179 -2.6127 -0.2017
  842MOL0     H13652   5.800   6.504   2.645 -2.3224 -2.2737 -0.8069
  842MOL0     H13653   5.550   6.558   2.695 -1.3299  4.0890  1.2786
  842MOL0     H13654   3.800   6.894   2.004 -1.2491  1.7595 -3.1330
  842MOL0     H13655   3.543   6.916   2.007  1.3989  0.5694  1.0614
  842MOL0     H13656   3.151   6.733   1.961 -2.0130  2.2308  0.3236
  842MOL0     H13657   2.912   6.703   1.944 -0.0460  1.3574  1.0208
  842MOL0     H13658   2.655   6.535   1.612 -1.3515  1.1358  1.8632
  842MOL0     H13659   2.750   6.647   1.509  1.6374  2.9989  1.5037
  842MOL0     H13660   2.551   6.733   1.706  0.2428 -1.1070 -0.3394
  842MOL0     H13661   2.502   6.688   1.536  0.5088 -1.5317  0.3711
  842MOL0     H13662   2.656   6.839   1.441  0.3726  0.3199 -1.0205
  842MOL0     H13663   2.721   6.899   1.597  0.4331 -0.8685 -0.5306
  842MOL0     H13664   2.494   6.983   1.656  0.4263 -3.5663  0.7371
  842MOL0     H13665   2.549   7.064   1.500 -2.3864 -0.9026 -2.3199
  842MOL0     H13666   2.222   6.850   1.365  1.1147 -0.4774 -1.1883
  842MOL0     H13667   2.948   6.691   1.513  0.7557  1.5077  0.0149
  842MOL0     H13668   3.133   6.730   1.397  2.1760  1.8124 -2.8299
  842MOL0     H13669   3.265   6.806   1.471  2.6928 -0.8671  1.5990
  842MOL0     H13670   3.265   6.628   1.456 -0.7119  1.1864 -3.4422
  843MOL0     O13671  11.256   3.451   4.179 -0.1506  0.0240 -0.5120
  843MOL0     C13672  11.220   3.561   4.137 -0.3008 -0.3348 -0.1624
  843MOL0     O13673  11.288   3.683   4.156 -0.9131 -0.5005  1.0193
  843MOL0     C13674  11.409   3.681   4.215  0.2363  0.1215 -0.3513
  843MOL0     C13675  11.524   3.620   4.154  0.4643  1.0831 -0.1186
  843MOL0     C13676  11.650   3.641   4.210 -0.7080 -0.1017  0.5850
  843MOL0     C13677  11.672   3.719   4.323 -0.2209  0.3652  0.3012
  843MOL0     O13678  11.805   3.740   4.355 -0.0773  0.6991 -0.3406
  843MOL0     C13679  11.827   3.799   4.476 -0.2253 -0.7611 -0.4066
  843MOL0     C13680  11.980   3.825   4.501 -0.2758  0.1567 -0.0641
  843MOL0     C13681  12.030   3.931   4.398 -0.8207 -0.2344 -0.0293
  843MOL0     C13682  12.178   3.958   4.420  0.0236 -0.2650 -0.5620
  843MOL0     C13683  12.240   4.067   4.329  0.1771  0.8378  0.5608
  843MOL0     C13684  12.394   4.059   4.320 -0.0056  0.2534  0.6359
  843MOL0     C13685  12.461   4.128   4.439 -0.2139 -0.1810 -0.4070
  843MOL0     C13686  12.608   4.130   4.412 -0.7146 -0.4605 -0.4401
  843MOL0     N13687  12.682   4.119   4.537 -0.0871  0.1114  0.4862
  843MOL0     C13688  12.816   4.074   4.536  0.0134 -0.9123 -0.0006
  843MOL0     C13689  12.860   4.107   4.661  0.1923 -0.4907 -0.1304
  843MOL0     C13690  12.987   4.074   4.720 -1.0977 -0.0026 -0.7158
  843MOL0     C13691  13.008   4.066   4.872  0.4233  0.4896 -0.7215
  843MOL0     C13692  13.151   4.019   4.900 -0.4985 -0.6456 -0.8762
  843MOL0     C13693  13.236   4.138   4.943 -0.1105  0.2901 -0.9621
  843MOL0     O13694  13.357   4.071   4.984  0.2515  0.0153 -0.4194
  843MOL0     C13695  13.482   4.117   4.946  0.5689  0.8807 -0.1529
  843MOL0     C13696  13.578   4.024   4.968  0.0470 -0.0269  1.3958
  843MOL0     C13697  13.709   4.043   4.912  0.8499  0.5457 -1.2009
  843MOL0     C13698  13.743   4.162   4.842  0.0639  0.5993  0.1230
  843MOL0     C13699  13.883   4.181   4.803  0.4752  0.4226 -0.5689
  843MOL0     O13700  13.905   4.302   4.744  0.2794  0.2509 -0.7821
  843MOL0     C13701  14.024   4.316   4.691 -0.1811 -0.4308  0.4110
  843MOL0     C13702  14.035   4.311   4.554 -0.0064  0.0088  0.0278
  843MOL0     C13703  14.156   4.349   4.485 -0.6162 -0.0116 -0.8340
  843MOL0     C13704  14.274   4.369   4.563 -0.2365  0.1190 -0.6705
  843MOL0     O13705  14.403   4.384   4.516 -0.0714  0.2947  0.0387
  843MOL0     C13706  14.412   4.440   4.385 -0.3052  0.1553  0.4075
  843MOL0     C13707  14.550   4.506   4.368 -0.0255 -0.5706  0.2146
  843MOL0     C13708  14.669   4.408   4.395 -0.4201  0.0062  0.2648
  843MOL0     C13709  14.769   4.414   4.279 -0.4169  0.0011 -0.8099
  843MOL0     C13710  14.896   4.343   4.334  0.8108  0.2136 -0.3870
  843MOL0     C13711  14.995   4.341   4.219  0.3022  0.2257 -0.5904
  843MOL0     C13712  15.122   4.285   4.279  0.6563  0.0203 -1.1740
  843MOL0     C13713  15.230   4.297   4.178  0.3796  0.1986  0.2855
  843MOL0    Cl13714  15.211   4.162   4.057  0.4254  0.0083  0.4454
  843MOL0     C13715  14.265   4.368   4.704  0.8065  0.4269  0.0035
  843MOL0     C13716  14.138   4.355   4.765  0.2321  0.1904  0.3848
  843MOL0     O13717  13.965   4.090   4.810 -0.3837 -0.3862 -1.0342
  843MOL0     C13718  13.639   4.255   4.819 -0.1551  0.0495  0.7682
  843MOL0     C13719  13.509   4.233   4.879 -0.2950 -0.2089 -0.5100
  843MOL0     N13720  12.761   4.183   4.728 -0.2634 -0.1864  0.7661
  843MOL0     N13721  12.656   4.188   4.647  1.2001 -0.3475 -0.1022
  843MOL0     C13722  11.559   3.773   4.387 -0.3194  0.7757 -0.2591
  843MOL0     C13723  11.436   3.755   4.326 -0.1774 -0.7689  0.1602
  843MOL0     C13724  11.091   3.583   4.067 -0.1034  0.6259 -0.1178
  843MOL0     C13725  11.072   3.702   3.998 -0.4739 -0.6044 -0.2697
  843MOL0     C13726  10.954   3.727   3.925  0.3320  0.0284 -0.6363
  843MOL0     C13727  10.853   3.627   3.906  0.1934  0.0896  0.2438
  843MOL0     O13728  10.741   3.647   3.827  0.7943  0.8126  0.2885
  843MOL0     C13729  10.713   3.789   3.799  0.5939 -1.0473 -0.2755
  843MOL0     C13730  10.584   3.824   3.727  0.3943 -0.0047  0.5838
  843MOL0     C13731  10.463   3.768   3.795 -1.0313 -0.4895 -0.2304
  843MOL0     C13732  10.385   3.873   3.874  0.7627 -0.6304 -0.4185
  843MOL0     C13733  10.331   3.967   3.779 -0.2645  0.3529 -0.1277
  843MOL0     C13734  10.288   4.067   3.723 -0.2118  0.4882  0.3747
  843MOL0     C13735  10.882   3.507   3.968  0.0343  0.2543  0.1239
  843MOL0     C13736  10.991   3.482   4.051 -0.0166  1.3724 -0.6308
  843MOL0     C13737  10.991   3.341   4.111 -0.7024 -0.5761  0.2062
  843MOL0     H13738  11.520   3.555   4.067  0.2136 -2.6449  2.4429
  843MOL0     H13739  11.723   3.591   4.146 -1.1875 -1.8230  1.3283
  843MOL0     H13740  11.778   3.895   4.494  3.3269  1.0130  0.7879
  843MOL0     H13741  11.797   3.725   4.551 -0.5708  0.0846  0.2996
  843MOL0     H13742  12.033   3.729   4.501  0.3761  0.4856 -1.5202
  843MOL0     H13743  11.995   3.856   4.605 -0.7573  2.1639 -0.5624
  843MOL0     H13744  11.984   4.027   4.422  1.7019  1.0915 -0.1345
  843MOL0     H13745  11.999   3.901   4.297  0.3514 -2.4124  0.1979
  843MOL0     H13746  12.201   3.978   4.525  0.8832  2.6895 -1.2141
  843MOL0     H13747  12.217   3.860   4.390 -0.9335 -1.4072  1.7061
  843MOL0     H13748  12.193   4.056   4.231 -0.1629 -0.9616  0.9014
  843MOL0     H13749  12.217   4.169   4.363  2.0508  1.3222  0.4630
  843MOL0     H13750  12.411   3.952   4.304  2.9634  0.9619 -1.6700
  843MOL0     H13751  12.433   4.104   4.229  2.3735  0.4287  1.6778
  843MOL0     H13752  12.440   4.072   4.530  2.2487 -1.9081 -0.8084
  843MOL0     H13753  12.434   4.234   4.444  2.4121  0.6585 -1.7987
  843MOL0     H13754  12.633   4.037   4.360  1.2819 -0.8669  1.1043
  843MOL0     H13755  12.641   4.216   4.352  0.5807 -0.2726  0.4922
  843MOL0     H13756  12.856   4.017   4.453  1.2774 -2.6255  1.7195
  843MOL0     H13757  13.016   3.976   4.683  0.1999  0.1344 -0.1143
  843MOL0     H13758  13.054   4.148   4.675 -0.1592 -0.7039 -0.4853
  843MOL0     H13759  12.993   4.168   4.910  1.8203  1.2836 -2.1724
  843MOL0     H13760  12.932   3.997   4.910 -0.9021  1.2695 -1.8542
  843MOL0     H13761  13.200   3.974   4.814  1.5835  1.5788 -0.9764
  843MOL0     H13762  13.143   3.943   4.979  0.0850  0.3119  0.1450
  843MOL0     H13763  13.202   4.195   5.030 -0.8031 -0.2917 -0.8475
  843MOL0     H13764  13.254   4.204   4.858  2.5261 -0.3937 -1.0144
  843MOL0     H13765  13.566   3.932   5.024  0.1865 -0.3870  0.8473
  843MOL0     H13766  13.780   3.964   4.933 -0.2735  0.1558  1.5481
  843MOL0     H13767  13.946   4.283   4.499  0.0656 -2.0928  0.8873
  843MOL0     H13768  14.170   4.362   4.378  0.3681  1.0833 -0.5938
  843MOL0     H13769  14.398   4.351   4.323  0.5104  0.0396  0.3736
  843MOL0     H13770  14.337   4.517   4.365 -0.0142  0.3805  0.1727
  843MOL0     H13771  14.569   4.542   4.267 -0.2670 -0.3070  0.2606
  843MOL0     H13772  14.553   4.599   4.425 -0.1019  1.2688 -2.5886
  843MOL0     H13773  14.716   4.435   4.490  0.5024 -3.1216  0.8055
  843MOL0     H13774  14.619   4.311   4.391  0.8868 -0.6558 -1.4291
  843MOL0     H13775  14.797   4.519   4.264 -2.3840  0.7902  0.7241
  843MOL0     H13776  14.731   4.364   4.190  2.2957 -2.5170 -0.7117
  843MOL0     H13777  14.877   4.241   4.369 -2.0736  1.3215  1.6088
  843MOL0     H13778  14.928   4.399   4.422  1.7749  2.4843 -2.1059
  843MOL0     H13779  14.953   4.277   4.141 -1.5909  0.0796  0.5069
  843MOL0     H13780  15.025   4.435   4.171  0.3983 -0.4597 -1.9375
  843MOL0     H13781  15.110   4.177   4.296  0.3992  0.5562  2.8624
  843MOL0     H13782  15.141   4.330   4.376 -1.7907 -1.4604  0.0729
  843MOL0     H13783  15.232   4.397   4.132  0.5427  0.6297  1.2087
  843MOL0     H13784  15.329   4.287   4.224  1.5929 -1.9107 -2.4622
  843MOL0     H13785  14.344   4.390   4.775  0.7986 -1.2023  0.5467
  843MOL0     H13786  14.131   4.368   4.873  2.5590 -1.6133  0.8281
  843MOL0     H13787  13.661   4.347   4.766 -0.7390 -0.8082 -1.0222
  843MOL0     H13788  13.435   4.312   4.866 -1.5228 -0.5790  3.1871
  843MOL0     H13789  11.564   3.832   4.478  1.9163  1.5011 -0.7960
  843MOL0     H13790  11.349   3.795   4.379 -0.0576  2.5238 -1.8337
  843MOL0     H13791  11.138   3.786   4.016 -1.4070 -0.3927  2.7185
  843MOL0     H13792  10.947   3.825   3.880 -3.2007 -0.2245 -0.9513
  843MOL0     H13793  10.797   3.824   3.739  1.9586 -1.5609  1.2758
  843MOL0     H13794  10.717   3.833   3.899  1.8342  2.2268 -1.6589
  843MOL0     H13795  10.595   3.777   3.629 -1.7116 -1.8569  1.1594
  843MOL0     H13796  10.582   3.931   3.702  2.4789 -0.3298 -1.3637
  843MOL0     H13797  10.494   3.689   3.864 -0.6747  0.3124  0.5602
  843MOL0     H13798  10.412   3.723   3.710 -0.1047  0.7673 -1.5092
  843MOL0     H13799  10.295   3.841   3.928 -1.6836  1.2735 -3.0503
  843MOL0     H13800  10.450   3.930   3.941 -0.7027  4.7969 -3.0381
  843MOL0     H13801  10.253   4.155   3.673  0.8653 -0.7003 -2.6672
  843MOL0     H13802  10.803   3.432   3.969 -3.2143  3.3921 -1.1942
  843MOL0     H13803  10.896   3.288   4.124 -0.7770 -0.7240 -0.8573
  843MOL0     H13804  11.041   3.285   4.031  0.5997  2.7558 -1.5279
  843MOL0     H13805  11.057   3.328   4.198 -0.1546 -0.5127 -0.1950
  844MOL0     O13806   2.554   2.789   5.662 -0.0087 -0.0835  0.3695
  844MOL0     C13807   2.527   2.757   5.542 -0.1378 -0.3098  0.2249
  844MOL0     O13808   2.605   2.685   5.463 -0.3241  0.0128  0.1884
  844MOL0     C13809   2.679   2.593   5.524  0.5300  0.0168  0.2766
  844MOL0     C13810   2.812   2.626   5.560  1.2829 -0.2732 -0.4995
  844MOL0     C13811   2.889   2.526   5.605  0.2511  0.6170 -0.8294
  844MOL0     C13812   2.846   2.389   5.608  0.0411  0.2580 -0.1102
  844MOL0     O13813   2.930   2.284   5.650  0.0616 -0.2439  0.3859
  844MOL0     C13814   3.064   2.310   5.691 -0.1556 -0.0957  0.8134
  844MOL0     C13815   3.134   2.175   5.717 -0.7953  0.2170 -0.0818
  844MOL0     C13816   3.287   2.210   5.743 -0.0393 -0.3839  0.1089
  844MOL0     C13817   3.346   2.076   5.782 -0.3148  0.4103  0.1655
  844MOL0     C13818   3.505   2.084   5.798  0.1470  0.9360  0.0577
  844MOL0     C13819   3.579   2.127   5.664  0.5289  1.0237 -0.3604
  844MOL0     C13820   3.536   2.027   5.543 -0.5232  0.0458  0.1969
  844MOL0     C13821   3.621   2.053   5.414  0.6326  0.2807  0.3443
  844MOL0     N13822   3.751   1.994   5.410 -0.4939 -0.3378  0.1566
  844MOL0     C13823   3.872   2.061   5.415  0.3291 -0.3349 -0.3258
  844MOL0     C13824   3.966   1.971   5.379 -0.0172 -0.3372 -0.2954
  844MOL0     C13825   4.105   2.020   5.365 -0.3762  0.0241 -0.8453
  844MOL0     C13826   4.140   2.023   5.218  0.1329 -0.4566  0.7765
  844MOL0     C13827   4.249   2.125   5.194 -0.3327  0.0309  0.0788
  844MOL0     C13828   4.388   2.079   5.232  0.5890  0.8644  0.4714
  844MOL0     O13829   4.404   1.960   5.160  0.2801  0.5231 -0.3493
  844MOL0     C13830   4.530   1.911   5.166  0.4470 -0.0109  0.5823
  844MOL0     C13831   4.635   1.986   5.102 -0.7754 -0.6268  0.1903
  844MOL0     C13832   4.768   1.935   5.104  0.0687 -0.1076  0.7462
  844MOL0     C13833   4.796   1.811   5.160 -0.6796  0.4512 -0.6382
  844MOL0     C13834   4.937   1.751   5.161 -0.7640  0.0395  0.1710
  844MOL0     O13835   5.038   1.838   5.115  0.0797  0.5077  0.0343
  844MOL0     C13836   5.166   1.786   5.090 -0.6499  0.1839 -0.7298
  844MOL0     C13837   5.186   1.718   4.970  0.0812 -0.2736  0.5139
  844MOL0     C13838   5.317   1.667   4.938 -0.0356  0.4885 -0.1009
  844MOL0     C13839   5.422   1.680   5.038 -0.4763  0.4512  0.0225
  844MOL0     O13840   5.544   1.615   5.044  0.6660  0.0795 -0.2131
  844MOL0     C13841   5.568   1.525   4.937  0.2687  1.0148 -0.4770
  844MOL0     C13842   5.720   1.491   4.939 -0.6726 -0.2021  0.1780
  844MOL0     C13843   5.749   1.372   4.850 -0.2505 -0.4569  0.4238
  844MOL0     C13844   5.896   1.335   4.876 -0.6049 -0.2010 -0.6422
  844MOL0     C13845   5.950   1.253   4.755  0.4830  0.1002 -0.6783
  844MOL0     C13846   6.073   1.173   4.802 -0.3191  0.6117  0.6444
  844MOL0     C13847   6.117   1.073   4.693  0.1571  0.0630 -0.1321
  844MOL0     C13848   6.208   0.963   4.746  0.3578  0.0697 -0.6071
  844MOL0    Cl13849   6.088   0.862   4.828 -0.3773 -0.1274 -0.2606
  844MOL0     C13850   5.392   1.753   5.155  0.1006 -0.8767 -0.5344
  844MOL0     C13851   5.268   1.796   5.186  1.9327 -1.2769  0.1640
  844MOL0     O13852   4.956   1.641   5.214  0.3747 -0.7013 -0.1256
  844MOL0     C13853   4.685   1.744   5.230 -0.2535 -0.1982  1.2891
  844MOL0     C13854   4.555   1.790   5.229 -0.0067 -0.3674  0.9719
  844MOL0     N13855   3.912   1.847   5.354 -0.4312 -0.1020 -0.1740
  844MOL0     N13856   3.784   1.866   5.368  0.1007 -0.2492  0.8645
  844MOL0     C13857   2.720   2.357   5.573  0.1570  0.0865 -0.8595
  844MOL0     C13858   2.632   2.463   5.534 -0.4168 -0.5564  0.2128
  844MOL0     C13859   2.397   2.800   5.478  0.7108  0.3144 -0.2260
  844MOL0     C13860   2.381   2.808   5.335  0.3263  0.1778  0.1585
  844MOL0     C13861   2.268   2.865   5.282  0.1251  0.4147 -1.0803
  844MOL0     C13862   2.158   2.905   5.364  0.5000 -0.5412  0.4122
  844MOL0     O13863   2.042   2.972   5.321 -0.3330  0.2321 -0.1241
  844MOL0     C13864   2.022   2.982   5.187 -0.0210  0.0974  0.0170
  844MOL0     C13865   1.902   3.057   5.158  0.0570  0.5640  0.7739
  844MOL0     C13866   1.770   2.988   5.192  0.0999  0.0708 -0.0680
  844MOL0     C13867   1.659   3.085   5.204  1.1600  0.3820  0.3902
  844MOL0     C13868   1.606   3.154   5.082 -0.4816  0.5713 -0.3024
  844MOL0     C13869   1.560   3.217   4.986 -0.2787  0.6801 -0.2372
  844MOL0     C13870   2.169   2.893   5.504 -0.8925 -0.6991 -0.1894
  844MOL0     C13871   2.291   2.854   5.560  0.1430  0.4302 -0.1200
  844MOL0     C13872   2.289   2.867   5.710 -0.3321  0.2821  0.4623
  844MOL0     H13873   2.854   2.725   5.546 -0.8030  0.5892 -0.9889
  844MOL0     H13874   2.990   2.561   5.627 -0.0520  2.9966 -2.8104
  844MOL0     H13875   3.117   2.371   5.617  1.0844 -0.8273  1.0680
  844MOL0     H13876   3.060   2.363   5.786 -2.5806 -0.6058  1.0481
  844MOL0     H13877   3.137   2.122   5.622  0.1649  2.0738 -1.1367
  844MOL0     H13878   3.086   2.127   5.803 -1.1524  1.8317  0.6690
  844MOL0     H13879   3.291   2.275   5.831 -0.6525 -1.0422  0.6313
  844MOL0     H13880   3.335   2.268   5.663  0.6806 -0.4700  0.4643
  844MOL0     H13881   3.297   2.036   5.871 -1.5912 -1.5289 -1.3297
  844MOL0     H13882   3.333   2.004   5.701  3.1857  0.5571 -0.6839
  844MOL0     H13883   3.535   2.155   5.875  3.0913  1.8037 -1.7192
  844MOL0     H13884   3.545   1.987   5.830 -0.1668  0.6136 -0.5079
  844MOL0     H13885   3.557   2.233   5.649 -0.0590  0.7143 -1.8756
  844MOL0     H13886   3.687   2.123   5.678  0.9058 -1.4582 -3.1216
  844MOL0     H13887   3.435   2.050   5.508  0.2821  5.3017  0.3777
  844MOL0     H13888   3.539   1.920   5.566 -3.3248 -0.7969 -2.7049
  844MOL0     H13889   3.555   2.013   5.336  1.1082 -1.0745  0.6120
  844MOL0     H13890   3.633   2.161   5.398  0.3815  0.7965  3.1073
  844MOL0     H13891   3.891   2.165   5.439  2.3634 -1.1292  1.9339
  844MOL0     H13892   4.118   2.121   5.404  0.1440 -0.5252  0.4280
  844MOL0     H13893   4.162   1.947   5.423  1.8374  0.3406 -2.5134
  844MOL0     H13894   4.168   1.927   5.175 -2.2943 -0.3141 -1.2964
  844MOL0     H13895   4.055   2.049   5.155  2.2773  0.8276 -1.8189
  844MOL0     H13896   4.228   2.222   5.241  1.8069 -0.8703  3.2540
  844MOL0     H13897   4.259   2.137   5.086  2.7475 -0.3298  0.2289
  844MOL0     H13898   4.406   2.081   5.340 -0.4684  0.5349  0.6620
  844MOL0     H13899   4.448   2.158   5.187 -0.2778  0.8046 -0.8218
  844MOL0     H13900   4.614   2.080   5.052  0.1803 -1.7427 -2.5180
  844MOL0     H13901   4.843   1.991   5.049 -0.9711  2.2207  1.5791
  844MOL0     H13902   5.112   1.721   4.891  0.7888  0.6758 -0.1363
  844MOL0     H13903   5.332   1.624   4.840 -1.7222  1.3237 -0.7874
  844MOL0     H13904   5.509   1.434   4.953 -0.3818  1.3833 -0.7161
  844MOL0     H13905   5.534   1.568   4.842 -3.4240 -3.6623 -1.6953
  844MOL0     H13906   5.771   1.581   4.902 -1.3267  0.0106 -0.2291
  844MOL0     H13907   5.744   1.482   5.046 -0.3509 -1.3766  0.0125
  844MOL0     H13908   5.689   1.288   4.887 -0.9777  0.9337  2.6068
  844MOL0     H13909   5.721   1.388   4.745 -1.2474 -1.0657  0.5801
  844MOL0     H13910   5.906   1.268   4.962  1.1189 -1.3945 -1.6995
  844MOL0     H13911   5.954   1.427   4.888  2.7282 -1.8782 -2.2099
  844MOL0     H13912   5.973   1.319   4.671  0.1881  0.5145 -0.4411
  844MOL0     H13913   5.868   1.186   4.730 -0.8914  1.8412 -1.0199
  844MOL0     H13914   6.151   1.250   4.796 -0.2789  0.4797 -0.9242
  844MOL0     H13915   6.062   1.130   4.902 -2.2881 -2.7844 -0.8732
  844MOL0     H13916   6.171   1.125   4.613  0.7123 -0.8607 -0.3656
  844MOL0     H13917   6.022   1.033   4.658 -0.6447 -0.0115  1.9624
  844MOL0     H13918   6.262   0.906   4.670 -0.7949  1.0684 -2.2394
  844MOL0     H13919   6.277   0.984   4.829 -1.6981 -3.5144  2.2834
  844MOL0     H13920   5.472   1.774   5.225  1.7712  0.7001 -2.7912
  844MOL0     H13921   5.257   1.845   5.282  1.8823 -0.7063 -0.1271
  844MOL0     H13922   4.715   1.663   5.296  0.9207  2.3798  4.1062
  844MOL0     H13923   4.477   1.736   5.283 -1.0425 -0.5297 -0.6338
  844MOL0     H13924   2.690   2.253   5.570 -0.3057  0.1222  1.0821
  844MOL0     H13925   2.536   2.434   5.493 -1.1399 -1.0186  2.1057
  844MOL0     H13926   2.459   2.766   5.272  2.4155  1.0796  1.9915
  844MOL0     H13927   2.265   2.897   5.179  0.4927 -2.6387 -2.1230
  844MOL0     H13928   2.013   2.884   5.138 -0.3602  0.9522 -1.7382
  844MOL0     H13929   2.110   3.027   5.141  0.0974  1.1247  1.2221
  844MOL0     H13930   1.902   3.082   5.052  1.4053 -0.4041  0.5267
  844MOL0     H13931   1.902   3.152   5.212 -0.3117  0.8260  0.3298
  844MOL0     H13932   1.780   2.941   5.290 -0.3705  0.3567  0.1190
  844MOL0     H13933   1.743   2.910   5.120 -0.9744 -0.9690  1.4058
  844MOL0     H13934   1.580   3.021   5.243  1.0217 -0.2512 -0.8862
  844MOL0     H13935   1.673   3.164   5.278  0.2839  0.2590  0.6947
  844MOL0     H13936   1.507   3.267   4.908 -1.4733  1.1386  0.8258
  844MOL0     H13937   2.086   2.927   5.566  1.2123  0.3521  2.1956
  844MOL0     H13938   2.352   2.955   5.731  2.3116 -2.0976  3.5998
  844MOL0     H13939   2.187   2.876   5.749 -0.0483  0.3031  1.2275
  844MOL0     H13940   2.328   2.777   5.759 -1.7428 -0.1981  0.7475
  845MOL0     O13941   3.892   4.528  10.735  0.5518  0.3836  0.0395
  845MOL0     C13942   3.825   4.436  10.783  0.0274  0.0432  0.7567
  845MOL0     O13943   3.882   4.329  10.838 -0.4319  0.3088  0.2632
  845MOL0     C13944   4.020   4.318  10.845  0.2622 -0.1632 -1.0507
  845MOL0     C13945   4.083   4.238  10.754  0.5903 -0.1525 -0.6264
  845MOL0     C13946   4.222   4.233  10.743  0.4628 -0.4779 -0.5108
  845MOL0     C13947   4.303   4.300  10.841  0.7504 -0.7115  1.0348
  845MOL0     O13948   4.436   4.313  10.849  0.0630 -0.0658  0.4456
  845MOL0     C13949   4.513   4.235  10.756  0.9160 -1.2294  0.3513
  845MOL0     C13950   4.509   4.084  10.785  0.0095 -0.6609 -0.5130
  845MOL0     C13951   4.524   3.994  10.665 -0.4562 -0.0348 -0.2442
  845MOL0     C13952   4.564   3.852  10.720 -0.2474 -1.0876  0.0950
  845MOL0     C13953   4.555   3.731  10.625 -0.7377 -0.6767  0.1935
  845MOL0     C13954   4.650   3.623  10.672 -1.2293 -0.4215  1.1253
  845MOL0     C13955   4.655   3.508  10.578 -0.0080 -0.3734 -0.2009
  845MOL0     C13956   4.678   3.367  10.645 -0.1158 -0.5412 -0.2485
  845MOL0     N13957   4.800   3.388  10.715  0.4682 -0.2028  0.0210
  845MOL0     C13958   4.920   3.399  10.652 -0.4797  0.8473  0.0037
  845MOL0     C13959   5.000   3.443  10.749  0.7218  0.5137  0.1083
  845MOL0     C13960   5.149   3.466  10.743  0.2213 -1.1184  0.5654
  845MOL0     C13961   5.233   3.342  10.760  1.3698 -0.9473 -0.9831
  845MOL0     C13962   5.222   3.234  10.647 -0.3480 -0.4578  0.4124
  845MOL0     C13963   5.284   3.258  10.508 -0.0808  0.6281 -0.3873
  845MOL0     O13964   5.425   3.237  10.513 -0.5586 -0.2219  0.5063
  845MOL0     C13965   5.493   3.316  10.426 -1.2984 -0.0342 -0.5532
  845MOL0     C13966   5.471   3.290  10.291  0.6876 -0.4203  0.5388
  845MOL0     C13967   5.561   3.332  10.201 -0.9125 -0.8921  0.0765
  845MOL0     C13968   5.682   3.408  10.242  0.3930  1.1356  0.8822
  845MOL0     C13969   5.790   3.451  10.143  0.7496 -0.0173 -0.7462
  845MOL0     O13970   5.866   3.561  10.180  0.3041 -0.2739 -0.0530
  845MOL0     C13971   5.982   3.588  10.115 -0.5142  0.1622 -0.9519
  845MOL0     C13972   6.010   3.720  10.074 -0.6207 -0.3615 -0.3718
  845MOL0     C13973   6.129   3.746  10.000 -0.2197 -0.5061 -0.0479
  845MOL0     C13974   6.223   3.649   9.975  0.4062 -0.1180 -0.4346
  845MOL0     O13975   6.333   3.689   9.910  0.9504 -0.5869 -0.3611
  845MOL0     C13976   6.452   3.612   9.938  0.7320  0.8168  0.3144
  845MOL0     C13977   6.580   3.694   9.909 -0.5421  0.2306 -0.4667
  845MOL0     C13978   6.709   3.611   9.937  0.3477  0.4635 -0.4678
  845MOL0     C13979   6.837   3.690   9.912  0.1327 -0.0683  0.3851
  845MOL0     C13980   6.959   3.609   9.944 -1.1653 -0.3396 -0.0387
  845MOL0     C13981   7.087   3.690   9.958  0.6638 -0.3030 -0.1918
  845MOL0     C13982   7.213   3.617  10.001  0.4109 -0.6182  0.1691
  845MOL0     C13983   7.326   3.716   9.988  0.0427 -0.7120  0.4748
  845MOL0    Cl13984   7.481   3.650  10.023  0.3425 -0.5768  0.1235
  845MOL0     C13985   6.204   3.514  10.022  0.8502  0.3140 -0.3575
  845MOL0     C13986   6.078   3.489  10.089 -0.3484 -0.3334 -0.1213
  845MOL0     O13987   5.791   3.406  10.031  1.1335 -0.5851 -0.0352
  845MOL0     C13988   5.678   3.455  10.379 -0.5634  0.4461 -0.4894
  845MOL0     C13989   5.588   3.405  10.469  0.3834  0.2521  0.0085
  845MOL0     N13990   4.931   3.463  10.867 -0.3647 -0.3746  0.1084
  845MOL0     N13991   4.807   3.428  10.844 -0.6367 -0.8997  0.2300
  845MOL0     C13992   4.242   4.368  10.935  0.1900  0.3264  0.6584
  845MOL0     C13993   4.104   4.382  10.942 -0.5456  1.0846  0.4541
  845MOL0     C13994   3.681   4.437  10.792  0.2849  0.8607 -0.3825
  845MOL0     C13995   3.617   4.332  10.856 -0.0704  0.9611  0.2279
  845MOL0     C13996   3.475   4.315  10.862 -0.0482 -0.4017  0.4399
  845MOL0     C13997   3.396   4.416  10.807  0.0128  0.6681  0.5922
  845MOL0     O13998   3.259   4.398  10.840  0.2727 -0.9616  0.1230
  845MOL0     C13999   3.166   4.499  10.786 -0.1130  0.9283 -0.6045
  845MOL0     C14000   3.028   4.465  10.823  0.4292 -1.1556 -0.3198
  845MOL0     C14001   2.994   4.315  10.798 -0.0217 -0.2696 -0.1223
  845MOL0     C14002   2.873   4.259  10.875 -0.0166  0.5533  0.1377
  845MOL0     C14003   2.903   4.248  11.014 -0.3909  0.4818  0.1717
  845MOL0     C14004   2.917   4.248  11.136 -0.8497 -0.4358 -0.1775
  845MOL0     C14005   3.454   4.519  10.740 -0.4468  0.0768  0.8025
  845MOL0     C14006   3.590   4.524  10.722  0.0700  0.4880 -1.6422
  845MOL0     C14007   3.630   4.628  10.627  0.1371 -0.5284  0.1565
  845MOL0     H14008   4.028   4.176  10.685  0.8406  1.2038 -2.1020
  845MOL0     H14009   4.252   4.171  10.659 -1.6276 -0.9781 -0.9468
  845MOL0     H14010   4.481   4.247  10.652 -0.1767 -2.0665  0.5800
  845MOL0     H14011   4.615   4.275  10.757  0.7358  0.0565 -4.7466
  845MOL0     H14012   4.422   4.060  10.846 -0.6727  0.8650 -0.8511
  845MOL0     H14013   4.590   4.071  10.859 -0.0972  0.6229 -0.1480
  845MOL0     H14014   4.605   4.034  10.604 -0.3396 -1.2895 -0.9496
  845MOL0     H14015   4.435   3.983  10.602 -0.1299 -1.6666 -0.4555
  845MOL0     H14016   4.666   3.857  10.759  0.5130  1.4521 -1.8460
  845MOL0     H14017   4.518   3.830  10.816  3.1286  0.1894  2.1953
  845MOL0     H14018   4.451   3.697  10.627 -0.6201 -1.0405  0.3069
  845MOL0     H14019   4.580   3.751  10.521 -1.0354 -0.7885  0.1000
  845MOL0     H14020   4.746   3.672  10.688 -0.3726  0.7903 -5.2168
  845MOL0     H14021   4.616   3.591  10.771 -1.6121 -0.5054  0.9687
  845MOL0     H14022   4.745   3.527  10.518  0.1954  0.2782  0.3019
  845MOL0     H14023   4.564   3.505  10.518 -1.0874  0.0703  1.3733
  845MOL0     H14024   4.598   3.328  10.710 -1.4080  0.7902 -0.9829
  845MOL0     H14025   4.706   3.292  10.570  0.2049 -0.6223 -0.0522
  845MOL0     H14026   4.952   3.382  10.549 -0.2796 -0.5731  0.2786
  845MOL0     H14027   5.175   3.499  10.642  1.6695 -1.9045  0.6609
  845MOL0     H14028   5.182   3.542  10.814 -1.2552 -1.4452  1.6674
  845MOL0     H14029   5.335   3.378  10.780  1.3067 -1.8947  1.4717
  845MOL0     H14030   5.201   3.306  10.859  1.8787  1.8013  0.2719
  845MOL0     H14031   5.114   3.213  10.644 -0.3523 -0.4548  0.5388
  845MOL0     H14032   5.278   3.146  10.679  2.4256  0.5749 -1.2540
  845MOL0     H14033   5.264   3.362  10.481 -0.5922  0.3972 -0.8956
  845MOL0     H14034   5.234   3.189  10.440  0.8106 -1.4595  0.9913
  845MOL0     H14035   5.388   3.232  10.253  1.6853 -0.8691 -1.0278
  845MOL0     H14036   5.555   3.332  10.092 -0.2112 -0.0082  0.0304
  845MOL0     H14037   5.935   3.795  10.094  2.1455  2.5559 -0.1681
  845MOL0     H14038   6.153   3.848   9.970 -0.4055 -0.3605  0.2979
  845MOL0     H14039   6.452   3.592  10.046 -0.1667  1.3750  0.4246
  845MOL0     H14040   6.451   3.516   9.884 -3.0392  1.6873 -1.4612
  845MOL0     H14041   6.580   3.730   9.806  1.2569  0.6552 -0.3446
  845MOL0     H14042   6.579   3.778   9.978 -0.3909  1.9614 -2.4775
  845MOL0     H14043   6.699   3.584  10.043 -2.1239 -0.3590 -0.8371
  845MOL0     H14044   6.715   3.519   9.879 -0.0126  1.4524 -2.1392
  845MOL0     H14045   6.841   3.775   9.982 -0.0837 -1.4203  2.1133
  845MOL0     H14046   6.822   3.737   9.815 -1.7450  2.7210  1.8707
  845MOL0     H14047   6.980   3.539   9.863  0.2880 -0.7989  0.7140
  845MOL0     H14048   6.936   3.551  10.034 -0.9371  1.2843  1.1198
  845MOL0     H14049   7.092   3.736   9.859 -0.2192 -0.1298 -0.1632
  845MOL0     H14050   7.078   3.778  10.022  2.5842  0.2575 -0.6385
  845MOL0     H14051   7.235   3.535   9.932  1.9662 -0.4647  0.4454
  845MOL0     H14052   7.216   3.570  10.100  2.0771 -3.1924 -0.9882
  845MOL0     H14053   7.332   3.757   9.887  3.3332 -2.5389 -0.1916
  845MOL0     H14054   7.320   3.793  10.065  0.1324 -3.1154  3.0394
  845MOL0     H14055   6.279   3.436  10.014  0.7243  0.0018  1.1242
  845MOL0     H14056   6.055   3.387  10.120 -3.1426  0.4861  0.8571
  845MOL0     H14057   5.758   3.519  10.413 -1.4766 -0.7544  4.7803
  845MOL0     H14058   5.590   3.426  10.575  1.6307  1.2527 -0.1870
  845MOL0     H14059   4.299   4.418  11.013 -0.4048  0.2779  1.1249
  845MOL0     H14060   4.057   4.419  11.033 -2.4504  0.6712 -0.3170
  845MOL0     H14061   3.672   4.251  10.902 -0.4545 -0.2419 -1.3308
  845MOL0     H14062   3.433   4.226  10.907 -0.4519 -0.7446 -0.5788
  845MOL0     H14063   3.173   4.503  10.677  0.4216 -0.2866 -0.6291
  845MOL0     H14064   3.199   4.588  10.840  0.1243  0.0013  0.8254
  845MOL0     H14065   2.958   4.524  10.764  0.3366 -0.1541  0.7743
  845MOL0     H14066   3.014   4.482  10.930  1.0981  2.0769 -0.6449
  845MOL0     H14067   3.076   4.251  10.831 -0.1272  0.1195  0.9397
  845MOL0     H14068   2.980   4.300  10.690  1.3044  0.7501 -0.4721
  845MOL0     H14069   2.784   4.319  10.856 -0.2819 -0.4730 -2.1562
  845MOL0     H14070   2.849   4.158  10.840  2.7403  0.6692 -2.5316
  845MOL0     H14071   2.912   4.245  11.243  0.2253 -2.4213 -0.1195
  845MOL0     H14072   3.385   4.586  10.690 -2.5974 -3.0792 -0.8434
  845MOL0     H14073   3.559   4.709  10.613  1.6511  1.3074  2.2712
  845MOL0     H14074   3.714   4.688  10.666  0.5596 -1.5269  0.8460
  845MOL0     H14075   3.668   4.583  10.535  2.0171 -0.4603  0.8489
  846MOL0     O14076   8.984   6.667   6.360 -0.2210  0.2383 -0.2657
  846MOL0     C14077   8.907   6.699   6.445  0.6993 -0.1501 -0.5113
  846MOL0     O14078   8.943   6.757   6.565  0.2845 -0.0199  0.1027
  846MOL0     C14079   9.075   6.771   6.585  0.0137  1.4995 -0.5886
  846MOL0     C14080   9.126   6.891   6.548 -0.8615 -0.3834  0.4750
  846MOL0     C14081   9.259   6.927   6.584  0.0661  1.0622 -0.2668
  846MOL0     C14082   9.332   6.846   6.660 -0.2226  0.9265  0.1006
  846MOL0     O14083   9.457   6.890   6.701  0.8132 -0.0103 -0.4861
  846MOL0     C14084   9.504   6.840   6.826  0.5456 -0.1771  0.0513
  846MOL0     C14085   9.595   6.937   6.896 -0.2596  0.0051 -0.0518
  846MOL0     C14086   9.722   6.949   6.827  0.6049  0.4399 -0.1620
  846MOL0     C14087   9.804   7.075   6.857 -0.1095 -0.5216 -0.0605
  846MOL0     C14088   9.945   7.072   6.792 -0.1657  0.4030 -0.0212
  846MOL0     C14089   9.948   7.050   6.640 -0.1219  1.0712  0.1555
  846MOL0     C14090  10.084   7.023   6.570  0.2512 -0.6239  0.2898
  846MOL0     C14091  10.201   7.114   6.610  0.3015 -0.5501 -0.0798
  846MOL0     N14092  10.325   7.063   6.539 -0.2597  0.4729  0.7649
  846MOL0     C14093  10.437   7.142   6.517 -0.1541  0.1624 -0.3024
  846MOL0     C14094  10.545   7.055   6.480 -0.6230 -0.4935 -0.2021
  846MOL0     C14095  10.688   7.093   6.448 -0.1633 -0.4910  0.3544
  846MOL0     C14096  10.707   7.097   6.298  0.5160  0.4698 -0.1978
  846MOL0     C14097  10.848   7.147   6.259 -0.1767 -0.2458 -0.2423
  846MOL0     C14098  10.962   7.045   6.267 -0.0912  0.5981  0.1000
  846MOL0     O14099  11.011   7.023   6.404 -0.1223 -0.9489  0.4332
  846MOL0     C14100  11.086   7.126   6.454  0.2079  0.1389 -0.8561
  846MOL0     C14101  11.188   7.194   6.384 -0.0307 -0.1132 -0.1555
  846MOL0     C14102  11.258   7.295   6.449 -0.8729  0.1267  0.0053
  846MOL0     C14103  11.224   7.340   6.579 -0.5500 -0.3082 -0.1188
  846MOL0     C14104  11.288   7.457   6.633 -0.2558  0.5002 -1.3155
  846MOL0     O14105  11.387   7.519   6.565  0.3930 -0.1243 -0.0137
  846MOL0     C14106  11.441   7.631   6.620  0.4189  0.2085  0.1730
  846MOL0     C14107  11.576   7.643   6.608  0.7982  0.6728 -0.1468
  846MOL0     C14108  11.643   7.748   6.653 -0.7640 -0.4592 -0.1213
  846MOL0     C14109  11.591   7.853   6.727  0.0619 -0.1643 -0.5340
  846MOL0     O14110  11.652   7.972   6.769  0.1067  0.8621 -0.5304
  846MOL0     C14111  11.788   7.959   6.811 -0.0516  0.6169 -0.5099
  846MOL0     C14112  11.802   8.057   6.929  0.5937  0.2433 -0.2178
  846MOL0     C14113  11.761   8.198   6.906  0.5567 -0.8706  0.7148
  846MOL0     C14114  11.811   8.287   7.028 -0.4150 -0.4070  0.2502
  846MOL0     C14115  11.736   8.423   7.041 -0.1930  0.9866  0.0408
  846MOL0     C14116  11.719   8.493   6.900  0.1699 -0.2404 -0.9602
  846MOL0     C14117  11.663   8.634   6.937 -0.6008  0.4602  0.0231
  846MOL0     C14118  11.644   8.722   6.821  0.3447 -0.1791 -1.3481
  846MOL0    Cl14119  11.798   8.770   6.745  0.1200 -0.1977  0.2379
  846MOL0     C14120  11.449   7.847   6.742 -0.9111  0.4557  0.1730
  846MOL0     C14121  11.375   7.738   6.687  0.5445 -0.7212 -0.1951
  846MOL0     O14122  11.270   7.475   6.757 -0.3396  0.5775  0.3134
  846MOL0     C14123  11.131   7.269   6.655  0.0921  0.9190  0.7780
  846MOL0     C14124  11.064   7.161   6.594  0.1401 -0.0349  0.7631
  846MOL0     N14125  10.492   6.931   6.482 -0.6443 -0.6651  1.1780
  846MOL0     N14126  10.366   6.934   6.513 -0.2129 -0.1007  0.6627
  846MOL0     C14127   9.283   6.719   6.694  0.4539  0.2301  0.8982
  846MOL0     C14128   9.155   6.676   6.656  0.1906 -0.2097  1.3326
  846MOL0     C14129   8.764   6.652   6.431 -0.0389 -0.1395 -0.0699
  846MOL0     C14130   8.674   6.649   6.535 -0.6302  0.3394  0.2049
  846MOL0     C14131   8.543   6.602   6.523 -0.2743  0.4015  0.0379
  846MOL0     C14132   8.498   6.565   6.399 -0.0906 -1.2683 -0.0310
  846MOL0     O14133   8.374   6.524   6.368  0.5149  0.0736  0.5016
  846MOL0     C14134   8.267   6.568   6.450 -0.0551  0.1490  0.8503
  846MOL0     C14135   8.144   6.531   6.372  0.4064 -0.4207 -0.0456
  846MOL0     C14136   8.011   6.609   6.403  0.0087  0.0827  0.2691
  846MOL0     C14137   7.899   6.548   6.325 -0.4712  0.2486  0.0629
  846MOL0     C14138   7.785   6.641   6.325 -0.1995 -0.3365  0.6752
  846MOL0     C14139   7.690   6.721   6.335  0.0123 -0.7566  0.7788
  846MOL0     C14140   8.584   6.579   6.289 -0.2228 -0.4107  0.1905
  846MOL0     C14141   8.714   6.613   6.302 -0.6237 -0.2661 -1.0612
  846MOL0     C14142   8.792   6.596   6.170  1.2117  0.2082 -0.5140
  846MOL0     H14143   9.061   6.959   6.494  0.0582 -0.8930 -1.3401
  846MOL0     H14144   9.294   7.026   6.557  0.6515  0.2741 -2.7397
  846MOL0     H14145   9.417   6.821   6.889  1.9655  1.4836  2.7110
  846MOL0     H14146   9.560   6.746   6.825  1.5481  0.3967  0.6586
  846MOL0     H14147   9.630   6.893   6.989 -1.4063  1.0427  0.9087
  846MOL0     H14148   9.546   7.033   6.920  1.5746  1.2102 -0.9250
  846MOL0     H14149   9.709   6.948   6.718  0.5548  1.2469 -0.1728
  846MOL0     H14150   9.782   6.863   6.858 -0.8363  0.2220  2.3747
  846MOL0     H14151   9.753   7.158   6.808  1.5403  1.9450  2.1019
  846MOL0     H14152   9.802   7.101   6.964 -1.6173  0.9153 -0.3951
  846MOL0     H14153   9.993   7.167   6.818 -1.1527  0.4465  1.8415
  846MOL0     H14154  10.006   6.994   6.837 -0.7373 -0.2745 -0.3964
  846MOL0     H14155   9.877   6.970   6.619 -2.9019  2.6654  2.6074
  846MOL0     H14156   9.901   7.138   6.596 -0.7917  1.2380  1.1591
  846MOL0     H14157  10.056   7.032   6.465 -0.9903  1.6528  0.7577
  846MOL0     H14158  10.104   6.919   6.597 -1.3686 -0.8627  0.6872
  846MOL0     H14159  10.183   7.220   6.588  0.3919 -0.7519 -1.1615
  846MOL0     H14160  10.221   7.111   6.718  0.7185  0.3095 -0.1213
  846MOL0     H14161  10.441   7.249   6.535 -0.0538 -0.2821  2.8660
  846MOL0     H14162  10.714   7.194   6.482  1.9349 -1.0536  0.5666
  846MOL0     H14163  10.758   7.022   6.494  0.0258 -0.9325 -0.5850
  846MOL0     H14164  10.690   6.996   6.258  0.5698  0.8352 -1.1831
  846MOL0     H14165  10.624   7.159   6.263 -1.4918 -1.1425  1.4505
  846MOL0     H14166  10.871   7.239   6.313 -2.0689 -0.4751  1.0443
  846MOL0     H14167  10.835   7.167   6.152 -0.5979 -0.3744 -0.2166
  846MOL0     H14168  11.050   7.062   6.205  0.3905  0.6672  0.7898
  846MOL0     H14169  10.923   6.949   6.231  0.6872  0.3747 -0.1610
  846MOL0     H14170  11.217   7.172   6.282 -0.6601  0.5143 -0.4829
  846MOL0     H14171  11.340   7.342   6.394 -1.8110  0.8961 -0.7903
  846MOL0     H14172  11.629   7.561   6.559 -0.9782 -1.2456  0.9576
  846MOL0     H14173  11.749   7.747   6.627 -1.0328  0.6071 -1.3796
  846MOL0     H14174  11.804   7.860   6.853 -3.3213 -0.8602 -2.3685
  846MOL0     H14175  11.861   7.976   6.731 -2.0019  2.5099 -2.0146
  846MOL0     H14176  11.732   8.015   7.001 -1.1201  0.4043 -1.7173
  846MOL0     H14177  11.905   8.054   6.966 -0.0695  1.6025  1.9242
  846MOL0     H14178  11.809   8.231   6.814  0.5974  0.5019  1.1898
  846MOL0     H14179  11.653   8.207   6.898  0.5871 -0.3523  0.8495
  846MOL0     H14180  11.918   8.306   7.017 -0.8119  1.8686 -0.0852
  846MOL0     H14181  11.802   8.231   7.121  1.8661  1.6765  1.8401
  846MOL0     H14182  11.791   8.475   7.119  2.6919 -2.1114  0.3333
  846MOL0     H14183  11.638   8.423   7.089  0.8790  3.7177  2.4471
  846MOL0     H14184  11.812   8.490   6.843  1.6287  0.8610  1.2194
  846MOL0     H14185  11.646   8.430   6.849 -1.8924  0.0618  1.3830
  846MOL0     H14186  11.736   8.677   7.006 -0.8536 -1.0759  1.3104
  846MOL0     H14187  11.566   8.623   6.986 -1.8677  0.0961 -2.4031
  846MOL0     H14188  11.592   8.674   6.737  0.7992 -1.5480 -0.8721
  846MOL0     H14189  11.597   8.812   6.863  0.4754 -1.1545  1.0706
  846MOL0     H14190  11.391   7.919   6.799  1.0039  2.2675 -0.0224
  846MOL0     H14191  11.267   7.736   6.680  0.5422 -0.7576 -0.1485
  846MOL0     H14192  11.094   7.298   6.753 -2.9297  0.2350 -0.0384
  846MOL0     H14193  10.992   7.097   6.644 -0.6471 -0.6766 -1.0899
  846MOL0     H14194   9.351   6.656   6.751  1.2304  1.3126  1.2097
  846MOL0     H14195   9.103   6.587   6.688 -2.8433  1.3900  1.1824
  846MOL0     H14196   8.714   6.683   6.630 -0.1969 -0.5492  0.3532
  846MOL0     H14197   8.476   6.598   6.609  0.6531 -1.0077  0.7193
  846MOL0     H14198   8.274   6.678   6.456 -1.3214  0.4502 -1.7111
  846MOL0     H14199   8.276   6.515   6.545  1.5974 -0.1491  0.5579
  846MOL0     H14200   8.126   6.423   6.368  2.6237 -1.0630  3.1368
  846MOL0     H14201   8.167   6.555   6.268  0.9194 -2.1969 -0.3702
  846MOL0     H14202   8.028   6.712   6.373 -1.8589  0.8626  1.6917
  846MOL0     H14203   7.989   6.599   6.510  0.6368  2.9787  0.7495
  846MOL0     H14204   7.935   6.538   6.222  2.5095 -1.8848  1.1906
  846MOL0     H14205   7.872   6.449   6.360 -1.7151 -0.0114 -1.5135
  846MOL0     H14206   7.608   6.788   6.353  0.3771 -0.1578  0.2572
  846MOL0     H14207   8.550   6.557   6.188  1.6673 -0.6013 -0.4410
  846MOL0     H14208   8.885   6.540   6.185  1.3914 -0.0430 -2.2787
  846MOL0     H14209   8.740   6.548   6.087 -0.7385  0.3502  0.5740
  846MOL0     H14210   8.813   6.698   6.136 -1.1520  1.0367  0.3460
  847MOL0     O14211   2.609   3.347   7.884  0.7505  0.2121  0.4514
  847MOL0     C14212   2.566   3.232   7.889  0.1143  0.0939 -1.3231
  847MOL0     O14213   2.627   3.140   7.960 -0.2219  0.9390  0.0685
  847MOL0     C14214   2.761   3.158   7.986 -1.1394  0.5694 -0.8218
  847MOL0     C14215   2.806   3.209   8.107 -0.2336  0.4506 -0.4095
  847MOL0     C14216   2.938   3.240   8.126  0.0931  0.2688  0.4518
  847MOL0     C14217   3.038   3.221   8.028  0.5423  0.2874  0.8243
  847MOL0     O14218   3.163   3.256   8.049 -0.8697  0.4559 -0.6926
  847MOL0     C14219   3.245   3.296   7.934 -0.4812 -0.4239 -0.5854
  847MOL0     C14220   3.387   3.341   7.979  0.2676 -0.0152  0.0716
  847MOL0     C14221   3.380   3.469   8.067  0.2896 -0.1050 -0.3921
  847MOL0     C14222   3.528   3.516   8.099  0.5071  0.8179 -0.1598
  847MOL0     C14223   3.603   3.592   7.982 -0.6418 -0.0579  0.6639
  847MOL0     C14224   3.717   3.688   8.028 -0.6341 -0.0503 -0.8849
  847MOL0     C14225   3.835   3.621   8.111  0.3050 -0.3712  0.7381
  847MOL0     C14226   3.947   3.568   8.017  0.0788  0.4715 -0.0580
  847MOL0     N14227   4.056   3.494   8.077 -0.5778 -0.7093 -0.9079
  847MOL0     C14228   4.136   3.415   8.007 -0.1778  0.3041 -0.3872
  847MOL0     C14229   4.236   3.394   8.093 -0.6176  0.3128  0.4847
  847MOL0     C14230   4.379   3.337   8.069 -0.0934 -0.4095  0.1345
  847MOL0     C14231   4.426   3.241   8.181 -0.0662 -0.3973  0.1433
  847MOL0     C14232   4.555   3.282   8.248 -0.4189  0.3787 -0.2335
  847MOL0     C14233   4.537   3.404   8.332  0.6468  0.2513  0.1457
  847MOL0     O14234   4.636   3.416   8.435 -0.6548  0.3495 -0.3352
  847MOL0     C14235   4.767   3.449   8.402  0.2513 -0.2033 -0.0306
  847MOL0     C14236   4.800   3.500   8.275  0.2529 -0.3662 -0.3874
  847MOL0     C14237   4.933   3.539   8.255 -0.4795 -0.3384  0.0370
  847MOL0     C14238   5.038   3.524   8.349 -0.4771 -0.2305 -0.3705
  847MOL0     C14239   5.184   3.574   8.321  0.4014 -0.6505 -0.5311
  847MOL0     O14240   5.282   3.514   8.391  0.3400  0.3875  0.7738
  847MOL0     C14241   5.416   3.552   8.366  0.1974  0.0080 -0.0177
  847MOL0     C14242   5.508   3.447   8.385  0.0872  0.1172  0.1188
  847MOL0     C14243   5.644   3.468   8.375  0.6954  0.3806  0.0495
  847MOL0     C14244   5.699   3.593   8.332 -0.0483 -0.3042  0.1004
  847MOL0     O14245   5.828   3.625   8.306  0.2923 -0.9723 -0.6766
  847MOL0     C14246   5.916   3.524   8.362  0.3513 -0.3494 -0.9637
  847MOL0     C14247   6.062   3.569   8.328 -0.4576 -0.3737  0.4537
  847MOL0     C14248   6.165   3.470   8.372  0.8618  0.1198  0.0962
  847MOL0     C14249   6.297   3.531   8.345  0.6840  0.6264  0.0852
  847MOL0     C14250   6.413   3.431   8.372  0.1271  1.0846  0.0538
  847MOL0     C14251   6.548   3.499   8.338 -0.6275  1.0795  1.0969
  847MOL0     C14252   6.665   3.402   8.288  0.6755  0.0597 -0.6050
  847MOL0     C14253   6.713   3.305   8.388 -0.4142 -0.2188  0.4031
  847MOL0    Cl14254   6.834   3.199   8.317 -0.2512  0.3874  0.4907
  847MOL0     C14255   5.604   3.695   8.311  0.4866  0.1698 -0.1430
  847MOL0     C14256   5.464   3.683   8.332  0.5880 -0.2739  0.3455
  847MOL0     O14257   5.193   3.644   8.222  0.1670 -0.4294  0.0805
  847MOL0     C14258   4.995   3.472   8.474  0.1366 -0.4954 -0.6980
  847MOL0     C14259   4.867   3.440   8.506  0.0276 -0.1580  0.3446
  847MOL0     N14260   4.206   3.459   8.211 -0.5096 -0.3758 -0.4097
  847MOL0     N14261   4.100   3.522   8.201 -0.2404  0.3402  0.0154
  847MOL0     C14262   2.995   3.158   7.906  0.0156  0.1806 -0.9150
  847MOL0     C14263   2.858   3.129   7.884 -0.4056  0.1683 -0.1718
  847MOL0     C14264   2.433   3.197   7.820 -0.0522 -0.7865  0.4099
  847MOL0     C14265   2.377   3.294   7.739  0.1040 -0.2260 -0.6009
  847MOL0     C14266   2.251   3.282   7.680  0.3034 -0.1022  0.1517
  847MOL0     C14267   2.177   3.167   7.707  0.1471  0.7618 -0.4184
  847MOL0     O14268   2.058   3.148   7.641  0.3327 -0.1046 -0.0828
  847MOL0     C14269   1.953   3.055   7.682 -0.1531 -0.5580 -0.0450
  847MOL0     C14270   1.841   3.041   7.580  0.0339  0.0599 -0.1880
  847MOL0     C14271   1.746   3.157   7.574  0.1570 -1.1223  0.2145
  847MOL0     C14272   1.739   3.216   7.427  0.1350  0.2237 -0.8969
  847MOL0     C14273   1.669   3.336   7.418  0.7440  0.2978  0.1742
  847MOL0     C14274   1.603   3.439   7.397  0.2380  0.2773 -0.0487
  847MOL0     C14275   2.229   3.070   7.796  0.7657 -0.4787  0.8431
  847MOL0     C14276   2.352   3.082   7.848 -0.2164  0.3938  0.8473
  847MOL0     C14277   2.413   2.978   7.932 -0.0951 -0.1964 -0.2453
  847MOL0     H14278   2.732   3.207   8.186 -1.0621 -1.1622 -1.1640
  847MOL0     H14279   2.967   3.282   8.221 -0.2284  0.1467  0.6065
  847MOL0     H14280   3.259   3.215   7.862 -1.7817 -1.3112  0.1250
  847MOL0     H14281   3.205   3.385   7.885  3.0233  1.7738  0.1661
  847MOL0     H14282   3.450   3.365   7.892 -0.7450 -1.3886 -1.0868
  847MOL0     H14283   3.435   3.264   8.041  1.0793  0.0953 -0.4030
  847MOL0     H14284   3.318   3.452   8.155 -0.8302 -0.7128 -1.2747
  847MOL0     H14285   3.333   3.551   8.012 -0.0261  1.6971  2.3944
  847MOL0     H14286   3.507   3.573   8.189 -1.5728 -1.3095  0.8089
  847MOL0     H14287   3.592   3.434   8.135  1.7836  1.4878 -0.8299
  847MOL0     H14288   3.647   3.521   7.912  1.3770  0.2588  1.5365
  847MOL0     H14289   3.537   3.664   7.932  0.3601 -0.3085 -1.0602
  847MOL0     H14290   3.765   3.742   7.946 -1.5662 -0.4657 -1.7244
  847MOL0     H14291   3.675   3.769   8.088 -0.0076  0.0153 -0.5257
  847MOL0     H14292   3.808   3.536   8.174  2.5415 -2.4298 -0.8887
  847MOL0     H14293   3.887   3.698   8.169  1.1462 -0.9513  0.7765
  847MOL0     H14294   3.891   3.495   7.957 -1.3969  0.2670  1.4981
  847MOL0     H14295   3.996   3.647   7.959  0.5959  0.1366 -0.0820
  847MOL0     H14296   4.134   3.382   7.904  4.2612  0.4802 -0.7350
  847MOL0     H14297   4.375   3.287   7.972  4.1244  1.6922 -1.3928
  847MOL0     H14298   4.447   3.417   8.036  0.7127 -1.8376 -1.8873
  847MOL0     H14299   4.345   3.216   8.249 -1.1036 -1.8263 -1.5149
  847MOL0     H14300   4.445   3.139   8.146  0.0272 -1.7758  3.8337
  847MOL0     H14301   4.631   3.290   8.171  1.2117 -0.7060  1.1849
  847MOL0     H14302   4.594   3.205   8.315 -0.7435  1.4309  1.2232
  847MOL0     H14303   4.444   3.391   8.390  0.8799  3.5050  1.4806
  847MOL0     H14304   4.534   3.490   8.264  0.0039  0.7697  0.8078
  847MOL0     H14305   4.735   3.520   8.191  1.4852  0.1319 -1.2545
  847MOL0     H14306   4.936   3.595   8.162 -5.6636 -0.0171 -0.2415
  847MOL0     H14307   5.484   3.353   8.434  3.1476 -0.3785  0.8456
  847MOL0     H14308   5.705   3.380   8.389  1.3690  0.3309 -2.6374
  847MOL0     H14309   5.901   3.532   8.471  0.1693  0.8824 -1.0559
  847MOL0     H14310   5.894   3.428   8.315 -0.4637  0.7128 -2.8937
  847MOL0     H14311   6.077   3.575   8.220  1.8002 -0.1819  0.7327
  847MOL0     H14312   6.078   3.670   8.367 -2.0920  1.4769 -3.1104
  847MOL0     H14313   6.148   3.459   8.480 -0.2691 -0.6709 -0.1406
  847MOL0     H14314   6.141   3.371   8.332 -0.6158  1.1357 -1.6939
  847MOL0     H14315   6.316   3.618   8.408  0.0709  0.8111  0.0180
  847MOL0     H14316   6.314   3.556   8.240 -0.4917 -0.7969 -0.4780
  847MOL0     H14317   6.399   3.338   8.315  0.9223  0.4630  0.8430
  847MOL0     H14318   6.413   3.398   8.476  2.0029  0.7131 -0.0202
  847MOL0     H14319   6.533   3.569   8.255  0.2394 -0.4776 -0.4325
  847MOL0     H14320   6.583   3.551   8.428 -1.1852  1.8988  0.8543
  847MOL0     H14321   6.745   3.472   8.262  0.6499  0.0828 -0.6224
  847MOL0     H14322   6.620   3.346   8.206 -2.1263 -0.8797  1.4209
  847MOL0     H14323   6.752   3.354   8.478  0.4853  0.4900 -0.3579
  847MOL0     H14324   6.634   3.235   8.417  0.2506 -1.2440 -0.2091
  847MOL0     H14325   5.641   3.794   8.287  2.3978 -0.1809  1.1392
  847MOL0     H14326   5.395   3.766   8.324  0.5341 -0.4363 -1.3381
  847MOL0     H14327   5.069   3.479   8.553 -1.2929  1.9763  0.5618
  847MOL0     H14328   4.833   3.401   8.601 -0.7990  0.7231  0.4369
  847MOL0     H14329   3.060   3.142   7.821  0.9003 -2.3043  0.1063
  847MOL0     H14330   2.831   3.100   7.783  0.9617  0.8626 -0.7658
  847MOL0     H14331   2.417   3.393   7.722 -0.4245 -0.2570 -2.1043
  847MOL0     H14332   2.226   3.369   7.620  0.3409 -0.8344 -0.9492
  847MOL0     H14333   1.907   3.097   7.772 -1.1712 -2.1967  0.2597
  847MOL0     H14334   1.989   2.954   7.703 -1.6544 -1.1619 -0.2115
  847MOL0     H14335   1.785   2.948   7.594 -1.1531  0.4331 -2.0977
  847MOL0     H14336   1.891   3.032   7.483  2.0516 -2.2682  0.9527
  847MOL0     H14337   1.775   3.239   7.640 -1.8047  1.3086 -1.7714
  847MOL0     H14338   1.647   3.126   7.609 -0.9101  0.8649 -0.8584
  847MOL0     H14339   1.837   3.241   7.387  2.1247 -0.7146  2.9369
  847MOL0     H14340   1.692   3.137   7.368 -0.2682 -0.4143  0.2468
  847MOL0     H14341   1.541   3.520   7.363 -0.8443 -0.3681  0.3349
  847MOL0     H14342   2.164   2.985   7.813 -0.7026  0.3670 -0.3238
  847MOL0     H14343   2.504   2.933   7.892 -0.2216  0.0393 -0.7999
  847MOL0     H14344   2.436   3.020   8.031 -1.4201 -0.9277  0.4066
  847MOL0     H14345   2.338   2.903   7.957 -1.7385  1.3397 -0.3690
  848MOL0     O14346   6.138   7.185  10.079 -0.0322  0.1651  0.0372
  848MOL0     C14347   6.132   7.306  10.104 -0.8935  0.0989 -0.0733
  848MOL0     O14348   6.235   7.394  10.114 -0.2169 -0.8678  0.1863
  848MOL0     C14349   6.359   7.344  10.086  0.1998 -0.1986 -0.9455
  848MOL0     C14350   6.430   7.382   9.978 -0.0157 -0.6746  0.5099
  848MOL0     C14351   6.564   7.346   9.952 -0.2291 -0.4970 -0.2224
  848MOL0     C14352   6.630   7.264  10.050 -0.6039  0.2349 -0.2025
  848MOL0     O14353   6.762   7.234  10.044 -0.6812 -0.0290  0.4721
  848MOL0     C14354   6.851   7.324   9.977  0.0650  0.5164 -0.2325
  848MOL0     C14355   7.003   7.306  10.020 -0.4700 -0.1337 -0.5406
  848MOL0     C14356   7.086   7.428   9.960 -0.4595  0.2277 -0.1657
  848MOL0     C14357   7.121   7.404   9.807  0.1019 -0.6290 -0.6099
  848MOL0     C14358   7.241   7.484   9.761 -0.1263 -0.2500  0.0422
  848MOL0     C14359   7.260   7.499   9.607  0.4480 -0.1064  0.1326
  848MOL0     C14360   7.403   7.560   9.582  0.0126  0.3152 -0.8417
  848MOL0     C14361   7.428   7.610   9.438  0.1700 -0.0116  0.1993
  848MOL0     N14362   7.547   7.696   9.421  0.0073  0.5185 -0.4626
  848MOL0     C14363   7.677   7.660   9.428  0.1948 -0.4329  0.2601
  848MOL0     C14364   7.746   7.771   9.395  0.1015 -0.7678 -0.6981
  848MOL0     C14365   7.894   7.769   9.399 -0.3039  0.1057 -0.6209
  848MOL0     C14366   7.975   7.888   9.346  0.1431  0.0248 -1.5349
  848MOL0     C14367   7.930   7.932   9.208  0.0922  0.0429 -0.2675
  848MOL0     C14368   8.044   7.950   9.113 -0.1185 -0.6041  1.1684
  848MOL0     O14369   8.141   8.040   9.168 -0.2254 -0.0756  0.4303
  848MOL0     C14370   8.266   8.019   9.120  0.4120 -0.7565  0.8657
  848MOL0     C14371   8.289   7.983   8.990  0.2607 -0.6859  0.1992
  848MOL0     C14372   8.416   7.971   8.948 -0.0903 -0.6348  0.7988
  848MOL0     C14373   8.528   8.009   9.037  0.7262  0.8154  0.6085
  848MOL0     C14374   8.667   8.010   9.003 -0.2391  0.2310 -0.4419
  848MOL0     O14375   8.760   8.044   9.097 -0.7174  0.0846 -0.1613
  848MOL0     C14376   8.886   8.076   9.047 -0.3340  0.2110  0.8591
  848MOL0     C14377   8.902   8.197   8.985  0.3004  0.3197  0.1957
  848MOL0     C14378   9.023   8.261   8.953 -0.2580 -0.0098  0.0993
  848MOL0     C14379   9.143   8.182   8.964  0.4250 -1.0913 -0.3350
  848MOL0     O14380   9.264   8.223   8.926  0.1960 -0.2522 -0.2106
  848MOL0     C14381   9.300   8.355   8.882 -0.0121 -0.2289 -0.4234
  848MOL0     C14382   9.438   8.340   8.806  0.0229  0.1683 -0.1901
  848MOL0     C14383   9.516   8.464   8.785  0.8249  0.6772  0.9206
  848MOL0     C14384   9.621   8.448   8.672  0.4896  0.0309  0.7808
  848MOL0     C14385   9.722   8.566   8.686 -0.3892 -0.5704  0.3373
  848MOL0     C14386   9.842   8.541   8.587  0.0661 -0.4576 -0.7777
  848MOL0     C14387   9.957   8.641   8.621 -1.1030 -0.6863  1.3147
  848MOL0     C14388  10.085   8.623   8.530  1.5908 -0.1270  0.0469
  848MOL0    Cl14389  10.186   8.761   8.554  0.0595 -0.2566  0.2632
  848MOL0     C14390   9.134   8.057   9.026  0.0085 -0.1643  0.1255
  848MOL0     C14391   9.007   8.011   9.076 -0.5325  0.9374  0.0407
  848MOL0     O14392   8.686   8.005   8.882 -0.0078  0.2333 -0.6618
  848MOL0     C14393   8.494   8.041   9.161 -0.7229 -0.9271  0.3521
  848MOL0     C14394   8.368   8.051   9.210 -0.1597  0.5852 -0.6240
  848MOL0     N14395   7.659   7.878   9.375  0.2336  0.3243  0.0262
  848MOL0     N14396   7.544   7.828   9.388  0.6463 -0.3039  0.1106
  848MOL0     C14397   6.557   7.225  10.167  0.4335  0.0415  0.3239
  848MOL0     C14398   6.424   7.270  10.184 -0.0267  0.8479  0.0161
  848MOL0     C14399   5.988   7.343  10.122  0.1785  0.1510 -0.8705
  848MOL0     C14400   5.880   7.269  10.063 -0.0053 -0.6321  0.0283
  848MOL0     C14401   5.741   7.284  10.087 -0.1061 -0.1613  0.2437
  848MOL0     C14402   5.702   7.394  10.158 -0.7168 -0.1129  0.2460
  848MOL0     O14403   5.575   7.436  10.176  1.1877 -0.3217  0.2741
  848MOL0     C14404   5.464   7.359  10.125 -0.5169  0.0003  0.3707
  848MOL0     C14405   5.330   7.430  10.157 -0.9459 -0.4854 -0.2709
  848MOL0     C14406   5.313   7.457  10.316  0.4630  0.8896 -0.6478
  848MOL0     C14407   5.243   7.592  10.337 -0.5098  0.3134  0.1740
  848MOL0     C14408   5.293   7.662  10.452 -0.1552  0.0010 -0.4980
  848MOL0     C14409   5.335   7.732  10.546 -0.6777  0.4517 -0.1462
  848MOL0     C14410   5.802   7.468  10.224  0.2637  0.4620 -0.7983
  848MOL0     C14411   5.943   7.443  10.204 -0.2682  0.3037  0.0660
  848MOL0     C14412   6.034   7.533  10.281  0.7574  0.3517  0.0272
  848MOL0     H14413   6.384   7.446   9.903 -0.7032 -0.3696  1.1763
  848MOL0     H14414   6.608   7.381   9.859 -0.5739 -1.4740 -0.7628
  848MOL0     H14415   6.832   7.320   9.869  1.2931 -2.0126 -0.4236
  848MOL0     H14416   6.830   7.428  10.003  3.4276  1.0283  0.9246
  848MOL0     H14417   7.041   7.210   9.985  3.0128 -0.1278  2.5523
  848MOL0     H14418   7.018   7.298  10.129  0.0398  1.6877 -0.4299
  848MOL0     H14419   7.176   7.445  10.019 -1.1949  1.7239  0.5806
  848MOL0     H14420   7.032   7.523   9.969  0.3744  0.8208 -1.2441
  848MOL0     H14421   7.154   7.305   9.773 -0.6744 -0.2055 -2.7745
  848MOL0     H14422   7.031   7.411   9.745 -0.1385  1.1151 -0.1199
  848MOL0     H14423   7.246   7.588   9.794  0.0021 -0.9184  2.2957
  848MOL0     H14424   7.323   7.426   9.804 -0.1071  0.2297  0.6722
  848MOL0     H14425   7.262   7.401   9.558  1.6453 -0.1376  0.2170
  848MOL0     H14426   7.172   7.549   9.564  0.7053  1.0336  0.8748
  848MOL0     H14427   7.468   7.478   9.614 -3.3075 -1.4285  2.1776
  848MOL0     H14428   7.406   7.649   9.647 -2.7288 -0.6515  0.8055
  848MOL0     H14429   7.443   7.518   9.382  1.1903  1.6045 -2.3754
  848MOL0     H14430   7.340   7.669   9.409  1.3856  1.9402  0.2612
  848MOL0     H14431   7.726   7.566   9.450 -0.1267 -0.9836 -1.2546
  848MOL0     H14432   7.924   7.751   9.503  0.6074 -1.3785 -1.1125
  848MOL0     H14433   7.920   7.677   9.346 -3.1052 -2.0127  1.3478
  848MOL0     H14434   7.974   7.972   9.415  2.9561  0.0743 -1.4609
  848MOL0     H14435   8.076   7.847   9.346  0.3071  0.3874 -0.1068
  848MOL0     H14436   7.873   8.025   9.213 -0.3203 -0.0474 -2.1848
  848MOL0     H14437   7.856   7.861   9.170 -0.4727 -1.2516  3.0049
  848MOL0     H14438   8.010   7.986   9.016 -2.1269 -0.4446  1.8876
  848MOL0     H14439   8.094   7.855   9.091  0.4288  0.6391 -4.0647
  848MOL0     H14440   8.212   7.959   8.916 -1.5176  2.1381  0.9687
  848MOL0     H14441   8.446   7.941   8.848  1.0106  1.9194  0.3029
  848MOL0     H14442   8.813   8.258   8.980  0.3179  0.3661  0.4568
  848MOL0     H14443   9.035   8.359   8.908 -2.0895  0.0736 -0.2890
  848MOL0     H14444   9.228   8.391   8.808 -2.4237 -3.3829  0.1340
  848MOL0     H14445   9.312   8.428   8.962 -0.0425 -0.4549 -0.2118
  848MOL0     H14446   9.499   8.267   8.858  0.1899 -0.3374 -1.0729
  848MOL0     H14447   9.418   8.295   8.708  0.5826 -3.7049  1.3190
  848MOL0     H14448   9.451   8.549   8.762  1.9416  0.9592 -1.4199
  848MOL0     H14449   9.566   8.500   8.876  0.7809 -0.3028  1.3415
  848MOL0     H14450   9.568   8.458   8.577 -1.2278  3.4386  1.9126
  848MOL0     H14451   9.670   8.350   8.672 -2.3526 -1.5778 -2.3202
  848MOL0     H14452   9.765   8.588   8.784 -0.9704  2.9655 -0.0621
  848MOL0     H14453   9.668   8.657   8.659 -0.1884 -0.4110  0.4721
  848MOL0     H14454   9.875   8.438   8.604  2.1249  0.2421 -0.3557
  848MOL0     H14455   9.812   8.550   8.482 -3.7808  0.8440  0.2443
  848MOL0     H14456   9.994   8.616   8.721  1.6145 -2.8759 -0.0816
  848MOL0     H14457   9.918   8.743   8.626 -1.5680 -0.8633  1.3768
  848MOL0     H14458  10.140   8.531   8.552  1.1420 -0.5931 -0.7381
  848MOL0     H14459  10.041   8.616   8.430  2.6150  1.6723 -0.5755
  848MOL0     H14460   9.219   7.991   9.038  0.9781  1.0033 -0.0988
  848MOL0     H14461   9.003   7.917   9.131 -2.1393 -0.6397 -2.5132
  848MOL0     H14462   8.569   8.077   9.231 -1.4586 -0.3504  0.8658
  848MOL0     H14463   8.358   8.090   9.311  0.8771  1.9246 -1.0016
  848MOL0     H14464   6.599   7.168  10.249 -0.3266 -1.1183 -0.0538
  848MOL0     H14465   6.360   7.252  10.270 -2.1152  2.9435 -0.9988
  848MOL0     H14466   5.914   7.187  10.002 -2.6902 -0.9267 -1.2112
  848MOL0     H14467   5.686   7.199  10.047  1.0930 -1.1402  0.6320
  848MOL0     H14468   5.462   7.267  10.185 -0.7811 -0.2698 -0.0465
  848MOL0     H14469   5.462   7.328  10.020 -1.5179 -1.1360  0.7018
  848MOL0     H14470   5.247   7.373  10.112 -3.4146  2.1467  0.6665
  848MOL0     H14471   5.321   7.521  10.098 -1.0654 -0.9206 -0.9342
  848MOL0     H14472   5.410   7.458  10.365 -0.5872 -0.8905  1.6569
  848MOL0     H14473   5.264   7.379  10.375 -0.1920  0.9938 -1.0357
  848MOL0     H14474   5.259   7.650  10.246  2.6923 -0.6782 -0.0143
  848MOL0     H14475   5.134   7.577  10.339 -0.7628  1.4587 -2.0931
  848MOL0     H14476   5.372   7.809  10.611 -0.8129  0.8669 -0.5464
  848MOL0     H14477   5.784   7.552  10.290 -0.8540  0.1637 -0.6952
  848MOL0     H14478   6.002   7.578  10.376  1.0614  1.7811 -0.5245
  848MOL0     H14479   6.124   7.475  10.301 -1.3411 -3.5131 -0.7421
  848MOL0     H14480   6.058   7.619  10.218 -0.9914  0.4840 -0.5200
  849MOL0     O14481   9.935   2.657   8.532  0.1189 -0.1233 -0.3609
  849MOL0     C14482   9.865   2.754   8.531  0.2432  0.6597 -0.1264
  849MOL0     O14483   9.902   2.869   8.591 -0.6115 -0.4262  0.7687
  849MOL0     C14484  10.026   2.896   8.640  0.3796  0.5767 -0.6693
  849MOL0     C14485  10.028   3.018   8.703 -0.4378  0.4538  0.1674
  849MOL0     C14486  10.145   3.073   8.761  0.3116 -0.1998 -0.1886
  849MOL0     C14487  10.262   2.999   8.761  0.4873  0.0603  0.2422
  849MOL0     O14488  10.380   3.043   8.825  0.1187 -0.1638  0.5134
  849MOL0     C14489  10.502   2.986   8.788  0.3594 -0.0270  0.2943
  849MOL0     C14490  10.608   3.056   8.868  0.6131  0.2688 -0.1355
  849MOL0     C14491  10.737   2.983   8.858  0.7382  0.8636 -0.2525
  849MOL0     C14492  10.848   3.083   8.821  0.0140  0.4283 -0.9018
  849MOL0     C14493  10.977   3.013   8.781 -0.3373 -0.7366  0.2421
  849MOL0     C14494  10.985   2.982   8.637 -0.4603 -0.1351 -0.8412
  849MOL0     C14495  11.122   2.922   8.580 -0.5453  0.1737 -0.3773
  849MOL0     C14496  11.246   3.015   8.596  0.3867 -0.1611  0.3276
  849MOL0     N14497  11.369   2.960   8.531  0.9133  0.0330  1.1553
  849MOL0     C14498  11.412   2.979   8.397  1.0834 -0.7652  0.0250
  849MOL0     C14499  11.518   2.907   8.386 -0.8730  0.5617  0.6172
  849MOL0     C14500  11.617   2.921   8.270 -0.0803  0.3546  0.2340
  849MOL0     C14501  11.697   2.799   8.239 -0.4302 -0.1489 -0.4570
  849MOL0     C14502  11.799   2.827   8.122  0.0506 -1.3231  0.6939
  849MOL0     C14503  11.875   2.693   8.091 -0.0594  0.3148  0.2057
  849MOL0     O14504  11.959   2.705   7.974  0.2788  0.4045  0.2411
  849MOL0     C14505  12.065   2.803   7.989  0.4655  0.3884 -0.7983
  849MOL0     C14506  12.094   2.878   7.874  0.2635  0.3481 -0.3493
  849MOL0     C14507  12.198   2.973   7.876  0.1646 -0.4304  0.3817
  849MOL0     C14508  12.264   2.999   7.998  0.6862 -0.4502 -0.3500
  849MOL0     C14509  12.367   3.105   8.013  0.2701  0.4662 -0.2877
  849MOL0     O14510  12.418   3.144   7.902  0.0256 -0.2930  0.5875
  849MOL0     C14511  12.507   3.244   7.899  0.3506 -0.0983 -0.1980
  849MOL0     C14512  12.532   3.352   7.988 -0.1754 -0.1880 -0.3208
  849MOL0     C14513  12.645   3.433   7.976  0.0746  0.2441  0.3618
  849MOL0     C14514  12.729   3.422   7.868  0.1694 -0.2131 -0.3805
  849MOL0     O14515  12.841   3.511   7.863 -0.4781 -0.0420  0.0607
  849MOL0     C14516  12.956   3.463   7.785  0.6196  0.2744 -0.3558
  849MOL0     C14517  13.079   3.516   7.846  0.1739 -0.3506  0.4775
  849MOL0     C14518  13.104   3.453   7.982 -0.1063 -0.1000 -0.3832
  849MOL0     C14519  13.231   3.497   8.056 -1.1006 -0.2395  0.1730
  849MOL0     C14520  13.348   3.395   8.032 -1.0185 -1.3883  0.8958
  849MOL0     C14521  13.475   3.476   8.029 -0.5020  0.1560  0.7796
  849MOL0     C14522  13.522   3.521   8.170 -0.0507 -0.4089 -0.4569
  849MOL0     C14523  13.679   3.556   8.170  0.5610  0.1466 -0.4729
  849MOL0    Cl14524  13.770   3.399   8.142 -0.1779 -0.1303  0.1060
  849MOL0     C14525  12.693   3.336   7.772 -0.0651 -0.0112 -0.5227
  849MOL0     C14526  12.586   3.244   7.782  0.6489  0.4342 -0.2710
  849MOL0     O14527  12.380   3.160   8.124  0.0003 -0.7342 -0.6669
  849MOL0     C14528  12.232   2.920   8.118  0.2693  0.6822  0.7356
  849MOL0     C14529  12.137   2.819   8.109  0.6141  0.1480  0.0626
  849MOL0     N14530  11.540   2.841   8.505  0.0823 -0.4185 -0.6740
  849MOL0     N14531  11.458   2.884   8.587  0.4559 -0.4547 -0.0844
  849MOL0     C14532  10.250   2.868   8.716 -0.3041  1.0713 -1.0796
  849MOL0     C14533  10.137   2.816   8.648  0.3331  0.1568  0.6740
  849MOL0     C14534   9.735   2.765   8.454  0.8724 -0.3853 -0.7049
  849MOL0     C14535   9.694   2.899   8.436 -0.2857 -0.4867 -0.2616
  849MOL0     C14536   9.588   2.920   8.345  0.4978 -0.7366 -0.1198
  849MOL0     C14537   9.525   2.812   8.283 -0.0571  0.3521  0.3302
  849MOL0     O14538   9.430   2.841   8.186 -0.0215  0.4107  0.3269
  849MOL0     C14539   9.288   2.876   8.219 -0.3396  0.1402  0.1230
  849MOL0     C14540   9.182   2.765   8.198 -0.6306  1.0017 -0.7704
  849MOL0     C14541   9.188   2.704   8.053  0.1010  0.2123  0.4562
  849MOL0     C14542   9.050   2.648   8.015 -0.1009 -0.4131  0.9452
  849MOL0     C14543   8.945   2.747   7.981  0.0998 -0.3906 -0.8848
  849MOL0     C14544   8.857   2.819   7.947  0.9583  0.5058  1.4332
  849MOL0     C14545   9.557   2.681   8.311  0.4942 -0.2044 -0.0361
  849MOL0     C14546   9.665   2.653   8.389 -0.3940  1.0285 -0.2871
  849MOL0     C14547   9.694   2.509   8.437  0.4804 -1.0045 -0.0720
  849MOL0     H14548   9.937   3.078   8.700 -1.7896 -1.5295  0.0859
  849MOL0     H14549  10.144   3.178   8.788 -2.9341 -0.9076  3.1400
  849MOL0     H14550  10.495   2.880   8.815 -0.5655 -0.7617 -2.5023
  849MOL0     H14551  10.518   2.992   8.680  0.4470 -2.2910  0.1381
  849MOL0     H14552  10.571   3.070   8.970 -2.9334 -1.6332 -0.9683
  849MOL0     H14553  10.627   3.159   8.836  0.0862  0.0870 -1.0739
  849MOL0     H14554  10.730   2.904   8.783 -1.1045  1.2043 -0.4860
  849MOL0     H14555  10.758   2.946   8.959 -1.3243 -4.1511 -1.3680
  849MOL0     H14556  10.822   3.144   8.735 -1.3694  0.9825 -0.1221
  849MOL0     H14557  10.871   3.140   8.912  2.5103  0.2171 -1.3256
  849MOL0     H14558  11.059   3.085   8.792 -2.0511  1.5522 -0.9873
  849MOL0     H14559  10.997   2.922   8.839  2.2995 -0.3843  0.0079
  849MOL0     H14560  10.911   2.905   8.616 -1.4636  0.0669  1.6354
  849MOL0     H14561  10.961   3.063   8.568 -3.9602 -1.2295 -1.0647
  849MOL0     H14562  11.094   2.908   8.475  0.6558 -4.9662 -0.2551
  849MOL0     H14563  11.152   2.827   8.625 -1.0856  1.3327  2.7086
  849MOL0     H14564  11.228   3.115   8.556  0.9798 -0.4416 -0.6760
  849MOL0     H14565  11.272   3.027   8.702 -2.2861  2.8306  0.8146
  849MOL0     H14566  11.369   3.054   8.332 -1.0505 -0.9583  1.0980
  849MOL0     H14567  11.563   2.953   8.180 -0.2652 -1.8876 -0.5270
  849MOL0     H14568  11.693   2.989   8.309 -0.6684 -0.8500  3.8007
  849MOL0     H14569  11.749   2.760   8.327 -2.5138 -1.5943  0.1905
  849MOL0     H14570  11.626   2.724   8.205 -0.2577 -0.4116 -0.2499
  849MOL0     H14571  11.860   2.911   8.156  0.6661 -1.4454 -0.1044
  849MOL0     H14572  11.745   2.859   8.033  0.3012 -0.2774  0.9051
  849MOL0     H14573  11.804   2.610   8.085 -0.0800  0.2743  0.9181
  849MOL0     H14574  11.930   2.669   8.182 -0.6651  0.2035  0.5497
  849MOL0     H14575  12.038   2.862   7.783 -0.9061  0.3244  0.3635
  849MOL0     H14576  12.228   3.027   7.787  1.7330  2.0114  2.2841
  849MOL0     H14577  12.465   3.371   8.072 -0.0918  0.3138 -0.3691
  849MOL0     H14578  12.669   3.501   8.057  1.8835  1.7966 -1.3762
  849MOL0     H14579  12.959   3.355   7.769  1.0018  0.3112 -0.5396
  849MOL0     H14580  12.947   3.503   7.683 -0.6144 -0.6161 -0.6251
  849MOL0     H14581  13.161   3.513   7.774  0.7453  3.6250  0.7261
  849MOL0     H14582  13.068   3.622   7.874  0.0510 -0.7038  1.8384
  849MOL0     H14583  13.021   3.493   8.041 -0.3964 -0.0262 -0.8344
  849MOL0     H14584  13.100   3.344   7.978 -1.5185 -0.0430 -3.0501
  849MOL0     H14585  13.213   3.503   8.164 -0.1333 -1.3665  0.4138
  849MOL0     H14586  13.262   3.592   8.013  2.0940 -2.3820 -2.7754
  849MOL0     H14587  13.344   3.353   7.931 -0.5390 -0.6044  0.5421
  849MOL0     H14588  13.347   3.319   8.110 -2.7748  0.8606  3.2512
  849MOL0     H14589  13.563   3.418   7.998  1.3009  0.5758  4.5489
  849MOL0     H14590  13.464   3.558   7.957  0.2968 -0.8804 -0.5755
  849MOL0     H14591  13.487   3.447   8.243 -0.5730 -0.4482 -0.7477
  849MOL0     H14592  13.482   3.621   8.183  0.6630  0.2263 -2.6414
  849MOL0     H14593  13.689   3.641   8.102 -2.8111  1.7151  0.7189
  849MOL0     H14594  13.708   3.591   8.270 -3.8798 -1.1811  1.5737
  849MOL0     H14595  12.762   3.335   7.688  1.9464  0.6140  1.0362
  849MOL0     H14596  12.568   3.172   7.703 -3.1452 -2.3786  2.7748
  849MOL0     H14597  12.292   2.932   8.207  3.5526  0.7293 -1.3274
  849MOL0     H14598  12.105   2.758   8.193 -4.0565  0.5968 -1.1489
  849MOL0     H14599  10.333   2.799   8.728 -1.9282 -0.8986 -0.6438
  849MOL0     H14600  10.152   2.715   8.611  1.6808  0.1397  1.2132
  849MOL0     H14601   9.743   2.989   8.471  0.2984  1.0193 -4.4166
  849MOL0     H14602   9.551   3.022   8.343 -0.6928 -0.9896  3.2436
  849MOL0     H14603   9.272   2.962   8.153  0.3450  0.0075 -0.2217
  849MOL0     H14604   9.291   2.906   8.324  0.6121  0.8839 -0.1066
  849MOL0     H14605   9.086   2.819   8.204 -0.1948  1.7574 -0.3922
  849MOL0     H14606   9.193   2.684   8.270  1.6653  1.8659 -0.0728
  849MOL0     H14607   9.261   2.623   8.061  0.3769  0.1984 -1.6839
  849MOL0     H14608   9.224   2.781   7.985  0.1414  1.2580  1.6102
  849MOL0     H14609   9.057   2.583   7.928 -1.9034  1.1213 -0.4449
  849MOL0     H14610   9.011   2.586   8.096  1.6763 -1.7155  0.8397
  849MOL0     H14611   8.776   2.877   7.906  0.9307  0.3685  1.2904
  849MOL0     H14612   9.506   2.606   8.251  1.3779 -0.4959 -0.4379
  849MOL0     H14613   9.792   2.473   8.405 -0.0347 -2.8364  0.3076
  849MOL0     H14614   9.697   2.511   8.547 -3.3644  0.0937  0.1485
  849MOL0     H14615   9.621   2.433   8.410 -2.4002  1.8188 -0.8339
  850MOL0     O14616   8.611   2.504   1.172  0.7868 -0.2670  0.7778
  850MOL0     C14617   8.604   2.509   1.047  0.3393  0.6305  0.5907
  850MOL0     O14618   8.704   2.490   0.966 -0.3380  0.3758  0.5649
  850MOL0     C14619   8.830   2.480   1.023  0.1089 -1.2098 -0.1022
  850MOL0     C14620   8.911   2.586   1.024  0.3481 -0.1201  0.0750
  850MOL0     C14621   9.035   2.579   1.089 -0.5380  0.6380  1.0965
  850MOL0     C14622   9.083   2.461   1.149  0.4887 -0.8594  0.6730
  850MOL0     O14623   9.204   2.472   1.212 -0.0205 -0.3790  0.2675
  850MOL0     C14624   9.225   2.387   1.328 -0.3652 -0.6356  0.7270
  850MOL0     C14625   9.302   2.477   1.424 -0.3781  0.2247  0.3757
  850MOL0     C14626   9.455   2.479   1.382  0.8139  0.1804 -0.2598
  850MOL0     C14627   9.549   2.551   1.483 -0.9922  0.3085  0.6453
  850MOL0     C14628   9.693   2.543   1.442  0.4692 -0.2890  0.1807
  850MOL0     C14629   9.722   2.592   1.300 -0.1481 -0.3598  0.2576
  850MOL0     C14630   9.866   2.617   1.259  0.0636  0.5382 -0.3807
  850MOL0     C14631   9.967   2.501   1.261 -1.2036  0.2713 -0.1305
  850MOL0     N14632   9.910   2.388   1.181 -0.5303 -0.5673  0.5424
  850MOL0     C14633   9.847   2.272   1.219 -0.2830 -0.7134 -0.3704
  850MOL0     C14634   9.823   2.204   1.105  1.3405  0.3962  0.5187
  850MOL0     C14635   9.753   2.071   1.095 -0.5150  0.1332 -0.2306
  850MOL0     C14636   9.597   2.084   1.072 -0.0422 -1.2661  0.3172
  850MOL0     C14637   9.539   1.941   1.022  0.1112 -0.5258 -0.2678
  850MOL0     C14638   9.391   1.939   1.011  0.6869  0.2557 -0.0263
  850MOL0     O14639   9.347   2.016   0.893  0.8479 -0.5544  0.1525
  850MOL0     C14640   9.214   2.009   0.861 -0.7768  0.2050 -1.2658
  850MOL0     C14641   9.170   2.074   0.749 -0.3605  0.0449 -0.1749
  850MOL0     C14642   9.038   2.074   0.704 -0.0913  0.8332  0.0420
  850MOL0     C14643   8.935   2.006   0.767 -1.6602  0.5821 -0.3236
  850MOL0     C14644   8.793   2.015   0.724  0.0380  0.0474 -0.0840
  850MOL0     O14645   8.760   2.090   0.617  0.5192  0.2251  0.5988
  850MOL0     C14646   8.620   2.112   0.607  0.5486 -0.9041 -0.2628
  850MOL0     C14647   8.564   2.207   0.697 -0.4647  0.3782 -0.1043
  850MOL0     C14648   8.432   2.241   0.704  0.2197  0.0938  1.1457
  850MOL0     C14649   8.347   2.179   0.612 -0.5765 -0.7892  0.2237
  850MOL0     O14650   8.215   2.214   0.610  0.7892 -0.4748 -1.0241
  850MOL0     C14651   8.155   2.274   0.720 -0.3386  0.2937 -0.0957
  850MOL0     C14652   7.999   2.256   0.695  0.8873  1.3684 -0.5639
  850MOL0     C14653   7.906   2.305   0.807 -0.3709 -0.3860  0.3400
  850MOL0     C14654   7.918   2.242   0.948 -0.0489  1.0868  0.2082
  850MOL0     C14655   7.779   2.195   1.005 -0.0035  0.0596 -0.2054
  850MOL0     C14656   7.668   2.295   1.045 -0.5873  0.6609  0.1478
  850MOL0     C14657   7.547   2.234   1.125 -1.0215 -0.7853 -0.5976
  850MOL0     C14658   7.453   2.162   1.042 -1.1365  0.6211 -0.1705
  850MOL0    Cl14659   7.319   2.097   1.152 -0.0803  0.5653 -0.0372
  850MOL0     C14660   8.400   2.089   0.520  0.8363 -0.3499 -0.3886
  850MOL0     C14661   8.536   2.051   0.517  0.8942  0.6477 -0.0161
  850MOL0     O14662   8.706   1.971   0.804 -0.4762 -0.2156  0.1745
  850MOL0     C14663   8.975   1.929   0.881  0.2880  0.2272 -0.1918
  850MOL0     C14664   9.111   1.937   0.930  0.6149  0.2961 -0.0953
  850MOL0     N14665   9.849   2.283   1.000 -0.1154  0.6623 -0.0872
  850MOL0     N14666   9.910   2.388   1.045 -0.1259 -0.3555  0.7987
  850MOL0     C14667   9.000   2.345   1.134 -0.8610 -0.1584 -0.0348
  850MOL0     C14668   8.877   2.362   1.074  0.5562  0.7467  0.8404
  850MOL0     C14669   8.468   2.529   0.981 -1.6991  0.0249 -0.4389
  850MOL0     C14670   8.360   2.455   1.026 -0.6059 -0.3039  0.1071
  850MOL0     C14671   8.233   2.481   0.982 -0.3160 -1.5361  0.1588
  850MOL0     C14672   8.214   2.586   0.892  0.4149  0.1907 -0.4726
  850MOL0     O14673   8.090   2.633   0.860 -0.0509  1.2580  0.1250
  850MOL0     C14674   8.017   2.703   0.965 -0.2696  0.0987  0.5192
  850MOL0     C14675   7.895   2.770   0.901  0.3954  0.0982  1.0938
  850MOL0     C14676   7.777   2.676   0.852 -0.1880 -0.1722 -0.6387
  850MOL0     C14677   7.641   2.738   0.860  0.0630 -0.6639  0.6729
  850MOL0     C14678   7.632   2.767   1.004  0.2674 -0.3656  1.1738
  850MOL0     C14679   7.600   2.759   1.118  0.2530  0.7344 -0.6405
  850MOL0     C14680   8.317   2.659   0.842 -0.7434  0.4529 -0.3488
  850MOL0     C14681   8.452   2.632   0.886 -0.0673 -0.3827  0.0102
  850MOL0     C14682   8.565   2.730   0.820  0.1015  0.2628 -0.4087
  850MOL0     H14683   8.873   2.678   0.981  1.2051 -0.0194 -0.5009
  850MOL0     H14684   9.095   2.670   1.096  0.6373  0.1388 -1.3865
  850MOL0     H14685   9.134   2.348   1.376 -0.5429 -0.9683  0.1338
  850MOL0     H14686   9.281   2.306   1.281 -1.4893 -0.4349 -1.0385
  850MOL0     H14687   9.299   2.432   1.523  1.2842 -2.3500 -0.6333
  850MOL0     H14688   9.263   2.579   1.427  1.0570  0.8917 -1.5967
  850MOL0     H14689   9.460   2.529   1.285 -2.6546  1.2497 -0.0218
  850MOL0     H14690   9.498   2.379   1.368 -1.0074 -0.5983 -0.6697
  850MOL0     H14691   9.513   2.654   1.483 -1.5581  0.1143 -0.1242
  850MOL0     H14692   9.535   2.504   1.581  0.8165  1.2918  1.4261
  850MOL0     H14693   9.761   2.595   1.510  0.9567 -1.8097  0.9011
  850MOL0     H14694   9.725   2.439   1.451 -0.0741 -0.4308  0.5102
  850MOL0     H14695   9.684   2.521   1.226  0.8516 -1.9890  1.2370
  850MOL0     H14696   9.667   2.687   1.293  1.4987  0.9664  3.3686
  850MOL0     H14697   9.912   2.690   1.326  2.7930 -0.9384 -0.5241
  850MOL0     H14698   9.869   2.645   1.153  0.2799 -2.2320 -1.1900
  850MOL0     H14699  10.056   2.545   1.215 -0.3095  0.8970  2.1134
  850MOL0     H14700   9.996   2.464   1.359 -1.5684  0.9683  0.2454
  850MOL0     H14701   9.833   2.240   1.322  1.2097  0.6502  0.2828
  850MOL0     H14702   9.803   2.011   1.018  1.5084 -0.4435  1.4564
  850MOL0     H14703   9.778   2.021   1.188 -0.9244 -2.4461 -1.4277
  850MOL0     H14704   9.551   2.126   1.162  0.6345  3.0372 -1.0933
  850MOL0     H14705   9.573   2.161   0.997 -2.8128 -0.9075  1.4421
  850MOL0     H14706   9.577   1.873   1.099  0.2934  0.8275  0.8808
  850MOL0     H14707   9.583   1.906   0.928  0.2767  0.0965 -0.4291
  850MOL0     H14708   9.345   1.984   1.099  1.2573 -0.2785  0.5583
  850MOL0     H14709   9.366   1.833   1.021  1.6912  0.2147  2.9137
  850MOL0     H14710   9.240   2.131   0.688  0.5187 -2.6369 -1.8554
  850MOL0     H14711   9.007   2.141   0.624 -0.5908 -0.4149 -0.8401
  850MOL0     H14712   8.628   2.262   0.766  1.2767  2.3009 -3.0334
  850MOL0     H14713   8.394   2.302   0.786 -0.8405 -0.3862  1.0357
  850MOL0     H14714   8.178   2.232   0.818 -0.8812 -3.2458 -1.3518
  850MOL0     H14715   8.173   2.381   0.733 -0.2357  0.1053  1.4242
  850MOL0     H14716   7.978   2.307   0.601 -1.4369  2.5369  0.5186
  850MOL0     H14717   7.984   2.147   0.690  0.5022  1.2991  1.3760
  850MOL0     H14718   7.915   2.414   0.805 -2.4341 -0.1846 -0.4134
  850MOL0     H14719   7.803   2.290   0.774  0.1835  1.2937 -2.4784
  850MOL0     H14720   7.963   2.318   1.014  2.6638  0.7914 -1.1612
  850MOL0     H14721   7.986   2.157   0.940  0.1175  1.2553 -0.1997
  850MOL0     H14722   7.802   2.143   1.099  0.3955 -1.4763 -1.1168
  850MOL0     H14723   7.732   2.117   0.944 -1.0932 -0.2374  0.9652
  850MOL0     H14724   7.719   2.374   1.100  1.0990 -0.3312  0.0975
  850MOL0     H14725   7.627   2.328   0.949  2.4243  0.5631 -1.2962
  850MOL0     H14726   7.487   2.310   1.176 -0.7271 -0.7633 -0.2850
  850MOL0     H14727   7.574   2.155   1.196 -0.6874 -1.5620 -1.5649
  850MOL0     H14728   7.406   2.222   0.964 -1.9052 -2.2827 -2.0958
  850MOL0     H14729   7.515   2.083   0.999 -1.6920 -0.1383  0.4215
  850MOL0     H14730   8.331   2.050   0.446  1.1582  0.0401 -0.8971
  850MOL0     H14731   8.562   1.981   0.438 -1.5650 -0.8591  0.4078
  850MOL0     H14732   8.901   1.867   0.932  2.6875 -2.9646 -0.2297
  850MOL0     H14733   9.127   1.887   1.025 -0.3032  2.9190  1.5746
  850MOL0     H14734   9.036   2.247   1.163 -1.4606 -0.4354 -0.2101
  850MOL0     H14735   8.808   2.280   1.059 -0.2787  0.8976  3.3376
  850MOL0     H14736   8.385   2.380   1.100 -0.6197  0.9431  1.4060
  850MOL0     H14737   8.146   2.423   1.012 -0.2115 -1.7042  0.1365
  850MOL0     H14738   8.074   2.786   1.006 -0.5264 -0.0986  1.2935
  850MOL0     H14739   7.989   2.640   1.050 -0.0712  0.9185  1.2010
  850MOL0     H14740   7.927   2.820   0.809 -1.4826 -1.0935 -0.2707
  850MOL0     H14741   7.859   2.853   0.963  1.6593  1.1090  0.5338
  850MOL0     H14742   7.777   2.583   0.911 -0.0362  0.3390  0.1762
  850MOL0     H14743   7.793   2.644   0.748 -1.2414 -0.6956 -0.6547
  850MOL0     H14744   7.621   2.830   0.803 -0.4599 -0.2985  1.4322
  850MOL0     H14745   7.565   2.671   0.819 -2.3313  2.6366 -0.7756
  850MOL0     H14746   7.575   2.772   1.221  3.2591  3.0356 -0.0497
  850MOL0     H14747   8.315   2.745   0.776  0.1460 -1.1231 -2.6045
  850MOL0     H14748   8.553   2.761   0.716 -0.2862  1.2130 -0.0986
  850MOL0     H14749   8.553   2.822   0.879 -4.6075  0.6502 -1.5600
  850MOL0     H14750   8.666   2.686   0.820 -0.6844 -1.6294 -1.1591
  851MOL0     O14751   0.364   4.198   5.816 -0.0726  0.6444  0.4822
  851MOL0     C14752   0.274   4.207   5.895  0.6575 -0.5439 -0.8487
  851MOL0     O14753   0.249   4.314   5.980  0.0505 -0.0517 -0.5051
  851MOL0     C14754   0.350   4.400   5.996  0.3253  0.6987  0.3651
  851MOL0     C14755   0.319   4.534   5.959 -0.4786 -0.9046  0.0422
  851MOL0     C14756   0.418   4.630   5.980 -0.0928  0.1929  0.0390
  851MOL0     C14757   0.548   4.597   6.018  0.0449  0.6459 -0.1793
  851MOL0     O14758   0.653   4.688   6.030  0.3191 -0.2230 -0.1771
  851MOL0     C14759   0.620   4.807   6.102 -0.1897 -0.1116 -0.5692
  851MOL0     C14760   0.748   4.891   6.100 -0.7258  0.7283  1.0935
  851MOL0     C14761   0.770   4.964   5.961  0.1038  0.6985 -1.2295
  851MOL0     C14762   0.673   5.077   5.936 -0.5662 -0.3729  0.4340
  851MOL0     C14763   0.722   5.221   5.964 -0.2102  0.5222 -0.1211
  851MOL0     C14764   0.860   5.244   5.895  0.4600 -0.5108 -0.9508
  851MOL0     C14765   0.897   5.383   5.843  0.6218 -0.6302 -0.8911
  851MOL0     C14766   0.942   5.477   5.962 -0.0838  0.5794  0.1695
  851MOL0     N14767   0.977   5.607   5.915  0.2545 -0.8950 -0.0440
  851MOL0     C14768   1.109   5.654   5.901  0.4637 -0.1051  0.1291
  851MOL0     C14769   1.089   5.761   5.825  0.7908  0.3968 -0.2946
  851MOL0     C14770   1.186   5.870   5.796  0.0574 -0.4047  0.1034
  851MOL0     C14771   1.324   5.803   5.759  0.3965  1.4669 -0.0169
  851MOL0     C14772   1.417   5.901   5.701  0.1617 -0.4125  0.7906
  851MOL0     C14773   1.542   5.842   5.634  0.5663 -0.2465 -0.7549
  851MOL0     O14774   1.639   5.944   5.617  0.1689  0.2023 -0.3255
  851MOL0     C14775   1.757   5.916   5.559  0.5653 -0.0286 -0.1669
  851MOL0     C14776   1.858   6.017   5.543 -1.1811 -0.1648  0.3881
  851MOL0     C14777   1.991   5.979   5.519  0.4416  0.3801 -0.1091
  851MOL0     C14778   2.021   5.844   5.483 -0.1586 -0.6475 -1.4313
  851MOL0     C14779   2.167   5.819   5.460  0.0426  0.1048  0.3229
  851MOL0     O14780   2.256   5.910   5.503 -0.0682  0.1000  0.0647
  851MOL0     C14781   2.383   5.884   5.468  0.4152 -0.1806  0.5111
  851MOL0     C14782   2.442   5.983   5.390 -0.1930 -0.3383 -0.8787
  851MOL0     C14783   2.570   5.971   5.338  0.5399  1.6398  0.1906
  851MOL0     C14784   2.644   5.854   5.366 -0.0458 -0.4701 -0.5334
  851MOL0     O14785   2.771   5.831   5.327  0.1947  0.1580 -0.3939
  851MOL0     C14786   2.853   5.951   5.305  0.6385  0.0301  0.3126
  851MOL0     C14787   2.998   5.907   5.275  0.7720  0.4168 -0.4668
  851MOL0     C14788   3.075   5.833   5.392  0.0145 -0.2926  0.0098
  851MOL0     C14789   3.116   5.928   5.511 -0.5772 -0.1694 -0.2836
  851MOL0     C14790   3.212   5.849   5.609  0.6690  0.3994  0.4974
  851MOL0     C14791   3.292   5.949   5.692  0.6077  0.8856  0.2166
  851MOL0     C14792   3.399   5.875   5.773  1.1821  0.0995  0.3349
  851MOL0     C14793   3.437   5.948   5.891 -0.5904 -0.2601  0.3883
  851MOL0    Cl14794   3.294   5.970   6.005  0.1187 -0.6110 -0.2265
  851MOL0     C14795   2.595   5.766   5.466 -0.1865  0.3293  0.4209
  851MOL0     C14796   2.463   5.783   5.515 -0.6064  0.0204 -0.2674
  851MOL0     O14797   2.205   5.717   5.406 -0.2251  0.3921  0.4813
  851MOL0     C14798   1.923   5.747   5.477 -0.0295 -0.2680 -0.5647
  851MOL0     C14799   1.787   5.790   5.509 -0.7439  1.3004 -0.8112
  851MOL0     N14800   0.951   5.793   5.817  0.5094 -0.1411 -0.1513
  851MOL0     N14801   0.885   5.695   5.870 -0.0988  0.4682  0.5318
  851MOL0     C14802   0.574   4.459   6.049 -0.0641  1.3586 -0.2517
  851MOL0     C14803   0.466   4.368   6.059 -0.3324 -1.0309 -0.0702
  851MOL0     C14804   0.187   4.086   5.901  0.2740 -0.0087  0.5060
  851MOL0     C14805   0.125   4.062   6.028  0.3977 -0.6605 -0.3347
  851MOL0     C14806   0.034   3.957   6.038  0.1524  0.3484  0.0265
  851MOL0     C14807   0.006   3.874   5.932  0.0633  0.2203  0.6469
  851MOL0     O14808  -0.094   3.781   5.949 -0.4903 -0.1370 -0.7497
  851MOL0     C14809  -0.145   3.699   5.844 -0.3400  0.5792  0.3573
  851MOL0     C14810  -0.257   3.622   5.895  0.4109 -0.0976 -0.2355
  851MOL0     C14811  -0.380   3.697   5.921 -0.2723  0.7379  0.0512
  851MOL0     C14812  -0.409   3.746   6.061 -0.2588 -0.2115  0.1968
  851MOL0     C14813  -0.548   3.744   6.099  0.9090  0.9885 -0.0215
  851MOL0     C14814  -0.662   3.756   6.135  0.2238  0.6730  0.2538
  851MOL0     C14815   0.066   3.895   5.811  0.3438  0.4749  0.7993
  851MOL0     C14816   0.152   4.008   5.784 -0.3488  0.6535 -0.8357
  851MOL0     C14817   0.193   4.027   5.639  0.2262  0.0781 -0.0684
  851MOL0     H14818   0.220   4.557   5.921 -1.1890 -1.3035  1.5490
  851MOL0     H14819   0.387   4.731   5.956  0.4460 -0.3942 -3.7652
  851MOL0     H14820   0.534   4.855   6.055 -0.0449 -0.7406 -1.5015
  851MOL0     H14821   0.604   4.782   6.208  0.6557  0.9411 -0.1729
  851MOL0     H14822   0.826   4.816   6.118 -0.4131  0.2460 -1.7014
  851MOL0     H14823   0.761   4.966   6.178  2.4764  2.4386 -0.8442
  851MOL0     H14824   0.768   4.886   5.884  1.1004 -1.2065  0.5835
  851MOL0     H14825   0.873   5.002   5.955  0.1192  0.6334 -1.3748
  851MOL0     H14826   0.642   5.084   5.832 -0.8286 -1.9674  0.3743
  851MOL0     H14827   0.579   5.070   5.992 -1.8400  0.6925 -1.4544
  851MOL0     H14828   0.645   5.291   5.930  0.6057  2.8472  2.3779
  851MOL0     H14829   0.728   5.244   6.071 -1.9941  1.5856 -0.2111
  851MOL0     H14830   0.929   5.215   5.974  0.5100 -3.2035 -1.8920
  851MOL0     H14831   0.869   5.175   5.811 -0.1985 -1.7116 -0.0825
  851MOL0     H14832   0.818   5.419   5.777  0.3084  1.0865  0.3607
  851MOL0     H14833   0.984   5.373   5.778  0.2852 -2.8195 -1.0985
  851MOL0     H14834   0.856   5.486   6.030 -0.2636 -1.0370  0.1799
  851MOL0     H14835   1.022   5.430   6.020  0.5829  1.5927  0.1094
  851MOL0     H14836   1.201   5.615   5.943  2.1954  2.3793 -1.0529
  851MOL0     H14837   1.140   5.935   5.721  1.7873  0.7212 -0.0222
  851MOL0     H14838   1.192   5.936   5.883  1.3699  1.8041 -1.5669
  851MOL0     H14839   1.372   5.754   5.845 -2.7456  0.1912  1.1721
  851MOL0     H14840   1.298   5.728   5.684  0.4026  0.8001  0.6330
  851MOL0     H14841   1.449   5.955   5.790 -2.6038  0.4570  1.3342
  851MOL0     H14842   1.358   5.969   5.639  0.8634 -0.5094 -0.0078
  851MOL0     H14843   1.520   5.801   5.535 -0.4071  0.9658 -1.0543
  851MOL0     H14844   1.579   5.757   5.693  2.6690  1.1120  0.0089
  851MOL0     H14845   1.833   6.121   5.565 -1.5582 -0.0907 -0.3716
  851MOL0     H14846   2.070   6.053   5.509  0.4012  0.7630  1.9867
  851MOL0     H14847   2.388   6.074   5.366  0.0241  0.4393  1.3366
  851MOL0     H14848   2.600   6.046   5.265  0.6951 -0.1570 -1.6915
  851MOL0     H14849   2.823   6.014   5.221 -0.0792  0.6091  0.9870
  851MOL0     H14850   2.852   6.017   5.392  1.5619  1.4100 -0.6908
  851MOL0     H14851   2.983   5.840   5.190 -1.8875 -2.9666  2.3488
  851MOL0     H14852   3.046   6.001   5.247 -0.0174  0.7503 -0.7501
  851MOL0     H14853   3.020   5.745   5.427  0.8009  0.6124  3.9041
  851MOL0     H14854   3.165   5.793   5.344  0.4602  0.0512  0.5514
  851MOL0     H14855   3.033   5.964   5.573  2.3234  2.9829  2.1403
  851MOL0     H14856   3.177   6.010   5.473 -0.7733 -0.0771 -0.3961
  851MOL0     H14857   3.274   5.781   5.549 -0.0433 -0.2237  0.4512
  851MOL0     H14858   3.156   5.782   5.676 -1.2030 -0.0544 -1.3945
  851MOL0     H14859   3.334   6.025   5.625  4.4739  0.0184  1.4044
  851MOL0     H14860   3.233   6.011   5.760 -0.9082 -1.9385  1.6590
  851MOL0     H14861   3.494   5.854   5.725  0.9144 -0.6910  0.1372
  851MOL0     H14862   3.355   5.780   5.805 -1.3781  1.9573  2.9391
  851MOL0     H14863   3.507   5.884   5.947 -1.4710 -0.0976  1.7287
  851MOL0     H14864   3.474   6.047   5.865 -0.2584 -0.6995 -0.8822
  851MOL0     H14865   2.648   5.675   5.491  1.3532  0.6118 -1.5332
  851MOL0     H14866   2.425   5.703   5.578  2.4763 -2.8281 -1.6946
  851MOL0     H14867   1.942   5.648   5.438  1.3932  0.4620 -1.8437
  851MOL0     H14868   1.716   5.708   5.500  1.9646 -1.2888 -0.0315
  851MOL0     H14869   0.667   4.434   6.100 -0.7718 -0.6732  0.1418
  851MOL0     H14870   0.488   4.271   6.103 -2.7016 -2.1100 -1.1008
  851MOL0     H14871   0.141   4.124   6.116  0.6410  0.7509 -1.3301
  851MOL0     H14872  -0.010   3.942   6.136  1.6081 -3.9620  0.2176
  851MOL0     H14873  -0.070   3.622   5.822 -0.7234  0.6191 -1.2448
  851MOL0     H14874  -0.162   3.756   5.752 -1.6416  0.2936  0.3955
  851MOL0     H14875  -0.217   3.570   5.982 -0.5320 -1.9274 -0.8388
  851MOL0     H14876  -0.277   3.535   5.832 -0.2266 -0.7525  0.8215
  851MOL0     H14877  -0.449   3.615   5.899 -0.0298 -0.1374  2.2561
  851MOL0     H14878  -0.385   3.783   5.854  1.1536  0.8275  0.0373
  851MOL0     H14879  -0.343   3.682   6.121  1.8000 -1.2309 -2.9141
  851MOL0     H14880  -0.365   3.844   6.081 -0.9072  0.1076  0.0891
  851MOL0     H14881  -0.766   3.758   6.158  0.1009 -0.2814 -0.1704
  851MOL0     H14882   0.043   3.829   5.728  0.0239  0.3061  1.0219
  851MOL0     H14883   0.298   4.000   5.622  0.3026 -0.7781  1.5234
  851MOL0     H14884   0.124   3.967   5.579 -0.9042  1.7460 -0.4898
  851MOL0     H14885   0.172   4.127   5.602  1.0968  0.5724  0.7195
  852MOL0     O14886   8.690   4.276   0.461 -0.0082  0.2914  0.4988
  852MOL0     C14887   8.685   4.324   0.350  0.3129  0.6565 -0.5111
  852MOL0     O14888   8.784   4.324   0.263 -0.9469 -0.5141  0.2251
  852MOL0     C14889   8.906   4.283   0.293 -0.7978  0.0544 -0.1001
  852MOL0     C14890   8.971   4.323   0.411  0.0667 -0.2221 -0.2620
  852MOL0     C14891   9.099   4.286   0.436 -0.4360  0.5588  0.1067
  852MOL0     C14892   9.176   4.213   0.337  0.4609 -0.2506 -0.1797
  852MOL0     O14893   9.304   4.171   0.355 -0.1065  0.5697 -0.0145
  852MOL0     C14894   9.384   4.226   0.465  0.2854 -0.2134  0.4513
  852MOL0     C14895   9.528   4.225   0.426 -0.5695 -0.3476  1.2520
  852MOL0     C14896   9.600   4.099   0.475 -0.6507 -0.9452  0.3184
  852MOL0     C14897   9.568   3.975   0.396  0.3452  0.7366  0.2428
  852MOL0     C14898   9.603   3.981   0.248 -0.4263 -0.1306 -0.2752
  852MOL0     C14899   9.578   3.847   0.184 -0.0804 -0.3853  0.2665
  852MOL0     C14900   9.439   3.790   0.227  0.0351  1.0316 -0.0880
  852MOL0     C14901   9.384   3.688   0.130 -0.5431  0.3632  0.6412
  852MOL0     N14902   9.431   3.553   0.177 -0.0025 -1.1056  0.0901
  852MOL0     C14903   9.555   3.487   0.150  0.0468  0.3372  0.5183
  852MOL0     C14904   9.542   3.368   0.208  0.6942  0.2836  0.0539
  852MOL0     C14905   9.646   3.263   0.212 -0.0919 -0.1062 -0.3643
  852MOL0     C14906   9.736   3.284   0.344  0.0354 -0.1670  0.1628
  852MOL0     C14907   9.853   3.386   0.330  0.9168  0.4669 -0.0186
  852MOL0     C14908   9.827   3.532   0.361 -0.1092 -0.4829  0.2869
  852MOL0     O14909   9.938   3.611   0.315 -0.3721  0.0961  0.1374
  852MOL0     C14910  10.050   3.619   0.386  0.0428 -0.0133  0.0686
  852MOL0     C14911  10.082   3.566   0.514 -0.0267 -0.1104  0.4025
  852MOL0     C14912  10.206   3.592   0.561 -0.0776 -0.1262 -0.4529
  852MOL0     C14913  10.305   3.666   0.487 -0.1460 -0.3217  0.3054
  852MOL0     C14914  10.444   3.673   0.543 -0.5336 -0.4786 -0.0086
  852MOL0     O14915  10.462   3.633   0.667 -0.1099  0.0600 -0.1147
  852MOL0     C14916  10.561   3.679   0.754  0.0160 -0.1621 -0.3993
  852MOL0     C14917  10.590   3.603   0.863  0.8941  0.6562  0.3963
  852MOL0     C14918  10.690   3.642   0.960 -0.1388  0.9940 -0.8194
  852MOL0     C14919  10.752   3.766   0.950  0.1263 -0.0566 -0.5475
  852MOL0     O14920  10.854   3.823   1.030  0.0038  0.1952  1.0067
  852MOL0     C14921  10.960   3.744   1.077  0.2059 -0.1518 -0.5510
  852MOL0     C14922  11.060   3.842   1.150  0.4250 -0.0611 -0.4713
  852MOL0     C14923  11.184   3.772   1.199  0.3189  0.4512  0.9030
  852MOL0     C14924  11.278   3.870   1.266  0.0416  0.0156  0.4624
  852MOL0     C14925  11.409   3.788   1.301 -0.1550 -0.1170  0.7539
  852MOL0     C14926  11.521   3.884   1.357 -0.3778 -0.5491 -0.0997
  852MOL0     C14927  11.648   3.813   1.355  0.6103  0.1539 -0.6208
  852MOL0     C14928  11.769   3.887   1.416  1.1651  0.1096 -0.3417
  852MOL0    Cl14929  11.782   4.065   1.375 -0.2858  0.1896 -0.0227
  852MOL0     C14930  10.703   3.848   0.851 -0.1265 -1.5499 -0.6881
  852MOL0     C14931  10.614   3.807   0.750 -0.9953  0.4103 -0.2725
  852MOL0     O14932  10.533   3.722   0.474 -0.5543 -0.1211 -0.0626
  852MOL0     C14933  10.269   3.727   0.368 -0.0337  1.0348  0.7336
  852MOL0     C14934  10.139   3.705   0.323  0.3046  0.3191  0.7548
  852MOL0     N14935   9.413   3.360   0.261 -0.4149  0.2461  0.1447
  852MOL0     N14936   9.352   3.471   0.247  0.1188  0.1942 -1.2769
  852MOL0     C14937   9.107   4.180   0.227 -0.0998  0.2042  1.1818
  852MOL0     C14938   8.978   4.211   0.203  0.4744  0.0796  0.4484
  852MOL0     C14939   8.560   4.389   0.313 -0.2167 -0.5884  0.5410
  852MOL0     C14940   8.564   4.462   0.188  0.0448  0.2681 -0.7894
  852MOL0     C14941   8.461   4.547   0.155  0.6228  0.3420 -0.2273
  852MOL0     C14942   8.344   4.554   0.233 -0.5714 -0.4871 -0.4481
  852MOL0     O14943   8.240   4.635   0.190 -0.4064 -0.4383  0.4976
  852MOL0     C14944   8.106   4.610   0.229 -0.6941 -0.1344  0.6603
  852MOL0     C14945   8.020   4.725   0.162  0.6745 -0.4364 -0.9423
  852MOL0     C14946   7.870   4.700   0.191 -0.7241 -0.8346  0.3272
  852MOL0     C14947   7.774   4.803   0.129  0.4782  0.2427 -0.2163
  852MOL0     C14948   7.638   4.793   0.195 -0.8860  1.2305 -1.6558
  852MOL0     C14949   7.526   4.793   0.246  0.1350  0.3153  0.2542
  852MOL0     C14950   8.332   4.472   0.351 -0.2405 -0.1915 -0.7452
  852MOL0     C14951   8.432   4.388   0.380 -0.5860  0.2925 -0.6582
  852MOL0     C14952   8.407   4.302   0.509  0.6275 -0.9600 -0.2493
  852MOL0     H14953   8.930   4.388   0.487 -0.1617  0.7912 -1.2233
  852MOL0     H14954   9.147   4.322   0.527  2.1002  0.6938 -1.1701
  852MOL0     H14955   9.364   4.331   0.485 -0.8184 -0.2937 -0.1706
  852MOL0     H14956   9.363   4.172   0.558 -0.7558 -1.0169 -0.2302
  852MOL0     H14957   9.576   4.316   0.462 -3.0792  1.1958  0.8997
  852MOL0     H14958   9.532   4.234   0.317 -2.0772  0.2118  1.2276
  852MOL0     H14959   9.585   4.094   0.583  0.4923  1.2226  0.6407
  852MOL0     H14960   9.708   4.118   0.465 -0.5021 -1.1262  1.4396
  852MOL0     H14961   9.614   3.894   0.454  0.6671  1.6003  1.2331
  852MOL0     H14962   9.459   3.974   0.401  0.3573  1.1238  0.6817
  852MOL0     H14963   9.533   4.054   0.206  1.1531  0.5933 -1.7872
  852MOL0     H14964   9.706   4.009   0.227 -0.4459  0.1528  0.0120
  852MOL0     H14965   9.574   3.879   0.080 -0.6116  1.0089  0.6823
  852MOL0     H14966   9.656   3.774   0.207 -1.9195 -2.3321  0.5937
  852MOL0     H14967   9.372   3.876   0.235 -0.1837  0.8364  0.2150
  852MOL0     H14968   9.444   3.743   0.326 -0.2332  2.0694  0.4360
  852MOL0     H14969   9.275   3.683   0.138 -0.6420  0.3458 -0.5139
  852MOL0     H14970   9.412   3.699   0.025  1.7437 -0.8472  1.0497
  852MOL0     H14971   9.641   3.524   0.096  0.5812  0.0800  1.1870
  852MOL0     H14972   9.601   3.163   0.206  0.3136 -0.4193  1.3144
  852MOL0     H14973   9.701   3.272   0.118  1.7555  2.3548  0.8592
  852MOL0     H14974   9.670   3.324   0.422 -1.0943  1.9943 -1.7824
  852MOL0     H14975   9.784   3.189   0.368  1.8312  0.3726 -1.0735
  852MOL0     H14976   9.895   3.374   0.230  3.6249 -1.9095  1.2859
  852MOL0     H14977   9.932   3.348   0.394 -1.2035 -1.0362  1.8898
  852MOL0     H14978   9.810   3.543   0.469  3.2612  2.1357  0.7233
  852MOL0     H14979   9.741   3.565   0.303  0.9800 -1.3786 -1.9635
  852MOL0     H14980  10.017   3.492   0.562  0.2998 -0.9018 -0.3446
  852MOL0     H14981  10.230   3.540   0.654  1.4156 -0.4750 -1.0065
  852MOL0     H14982  10.542   3.505   0.865 -0.0026  1.0879  0.1193
  852MOL0     H14983  10.712   3.571   1.040  2.3022  1.7586 -0.7457
  852MOL0     H14984  10.931   3.663   1.144  0.2254 -0.4407 -0.8913
  852MOL0     H14985  11.011   3.702   0.991  0.9321  1.1703 -0.7916
  852MOL0     H14986  11.097   3.914   1.076 -0.7781 -1.4521 -2.5283
  852MOL0     H14987  11.010   3.890   1.234  0.8657  1.4731 -1.0585
  852MOL0     H14988  11.154   3.700   1.276  4.4273 -3.2605 -0.5173
  852MOL0     H14989  11.242   3.716   1.124 -0.1164 -1.3741  1.8660
  852MOL0     H14990  11.237   3.914   1.357 -2.1889 -0.0866 -0.4418
  852MOL0     H14991  11.305   3.945   1.191 -0.3950 -1.8530 -1.6611
  852MOL0     H14992  11.437   3.732   1.211 -1.6271  0.4984 -0.1271
  852MOL0     H14993  11.384   3.713   1.377  0.9488 -1.7885 -0.4676
  852MOL0     H14994  11.545   3.967   1.291 -2.9491 -0.4217 -0.9630
  852MOL0     H14995  11.481   3.912   1.455  0.0865  0.2109 -0.1193
  852MOL0     H14996  11.669   3.792   1.250  1.5662 -1.4509 -0.1523
  852MOL0     H14997  11.641   3.713   1.400  0.9483  0.2849 -0.2647
  852MOL0     H14998  11.764   3.896   1.525  1.8068  1.0523 -0.3781
  852MOL0     H14999  11.862   3.834   1.395  0.8206 -0.7330  0.1956
  852MOL0     H15000  10.739   3.950   0.846 -2.1551 -0.8162 -1.3911
  852MOL0     H15001  10.595   3.868   0.663  3.3649 -1.0572 -2.5589
  852MOL0     H15002  10.331   3.801   0.317 -0.4448  0.7966 -0.1212
  852MOL0     H15003  10.116   3.745   0.225 -0.0518 -0.2042  0.6221
  852MOL0     H15004   9.165   4.122   0.155  1.4637  1.5102  1.3411
  852MOL0     H15005   8.937   4.184   0.106  0.8148 -2.4846  0.9624
  852MOL0     H15006   8.645   4.447   0.117  0.1185  1.6298 -1.0327
  852MOL0     H15007   8.465   4.613   0.069 -0.5748  1.2113  0.3499
  852MOL0     H15008   8.083   4.616   0.336  0.5213  2.9560  0.8472
  852MOL0     H15009   8.073   4.511   0.198  1.8779 -1.4190  1.7811
  852MOL0     H15010   8.039   4.725   0.055  1.6501 -2.9663 -0.8248
  852MOL0     H15011   8.045   4.823   0.205 -1.7070  0.2669 -1.0265
  852MOL0     H15012   7.842   4.708   0.297 -0.1142  0.1625  0.4285
  852MOL0     H15013   7.850   4.597   0.160  2.1799 -1.7003  1.0625
  852MOL0     H15014   7.805   4.907   0.145 -1.3784  0.7791  0.1789
  852MOL0     H15015   7.760   4.776   0.024 -2.0097  1.6022 -0.3129
  852MOL0     H15016   7.433   4.778   0.297 -0.4466  1.9525 -0.2489
  852MOL0     H15017   8.243   4.481   0.413  1.0419  2.0277  0.9235
  852MOL0     H15018   8.446   4.200   0.503 -1.0165 -1.5959 -0.3744
  852MOL0     H15019   8.441   4.365   0.592 -1.6109  0.4061 -0.3098
  852MOL0     H15020   8.300   4.294   0.531  0.3121  3.7864  1.0166
  853MOL0     O15021   0.918   7.281   9.578 -0.1209 -0.1079 -0.2665
  853MOL0     C15022   0.861   7.347   9.496  0.1702 -0.7354 -0.7467
  853MOL0     O15023   0.911   7.445   9.417 -0.2826  0.1200  0.2489
  853MOL0     C15024   1.041   7.479   9.434  0.0058  0.0324  0.3470
  853MOL0     C15025   1.069   7.590   9.520 -0.6990 -0.8429  0.6559
  853MOL0     C15026   1.199   7.646   9.518 -0.0461 -0.1916  0.1645
  853MOL0     C15027   1.297   7.586   9.434 -0.4334 -0.3936 -0.7758
  853MOL0     O15028   1.425   7.630   9.454 -0.5794 -0.2109  0.0518
  853MOL0     C15029   1.536   7.592   9.370 -0.7309 -0.0149 -0.2685
  853MOL0     C15030   1.533   7.678   9.242 -0.5562  0.4744  0.2878
  853MOL0     C15031   1.653   7.648   9.131 -0.0571 -0.4737 -1.5394
  853MOL0     C15032   1.794   7.648   9.195  0.5874  0.0951  1.2391
  853MOL0     C15033   1.834   7.771   9.260  0.3653  0.7134  0.1115
  853MOL0     C15034   1.978   7.752   9.314 -0.3178 -0.5290  0.7588
  853MOL0     C15035   2.029   7.880   9.395 -0.8243  0.9441  0.2216
  853MOL0     C15036   2.185   7.881   9.401 -0.1012  0.3924 -0.1949
  853MOL0     N15037   2.239   7.916   9.272 -0.4171 -0.6678 -0.2075
  853MOL0     C15038   2.270   8.050   9.237  0.5527  0.1361  0.0298
  853MOL0     C15039   2.338   8.036   9.118  0.3775  0.0545 -0.1640
  853MOL0     C15040   2.379   8.147   9.023 -0.4012 -0.3125 -0.4960
  853MOL0     C15041   2.503   8.141   8.928 -1.2144 -0.7534  0.2065
  853MOL0     C15042   2.479   8.224   8.803 -0.3824 -0.1876  0.7089
  853MOL0     C15043   2.613   8.214   8.725  0.7233  1.0974  0.3857
  853MOL0     O15044   2.715   8.271   8.810 -0.2734 -0.4982  0.4184
  853MOL0     C15045   2.854   8.252   8.770 -0.0777  0.1717  0.1691
  853MOL0     C15046   2.941   8.282   8.876 -0.2604  0.2983 -0.0229
  853MOL0     C15047   3.077   8.256   8.865 -0.6167 -0.7114 -1.4054
  853MOL0     C15048   3.131   8.220   8.740 -0.6843 -0.2948  0.4028
  853MOL0     C15049   3.287   8.194   8.732  0.4828  0.2980  0.3195
  853MOL0     O15050   3.327   8.097   8.634 -0.0131 -0.2977  0.3896
  853MOL0     C15051   3.458   8.093   8.605 -0.3524  0.7672  0.3948
  853MOL0     C15052   3.532   8.204   8.564 -0.3051  0.7982 -0.6369
  853MOL0     C15053   3.668   8.196   8.533 -0.6880  0.0396  0.4006
  853MOL0     C15054   3.729   8.069   8.529  0.2842 -0.0928 -0.3412
  853MOL0     O15055   3.859   8.065   8.501 -0.3519  1.1378  0.1252
  853MOL0     C15056   3.900   7.957   8.421  0.6926  0.6488  0.9044
  853MOL0     C15057   4.055   7.962   8.400  0.2096 -0.2733  0.0961
  853MOL0     C15058   4.086   7.927   8.253 -0.2233 -0.8637  0.5498
  853MOL0     C15059   4.239   7.930   8.247 -1.0342 -0.5301  0.4472
  853MOL0     C15060   4.290   7.917   8.096 -0.3471  0.1073  0.1034
  853MOL0     C15061   4.441   7.885   8.094 -0.1695  0.6235 -0.7792
  853MOL0     C15062   4.493   7.868   7.955 -0.4487  0.2591  0.2696
  853MOL0     C15063   4.644   7.876   7.942 -0.2088 -0.6440  0.8711
  853MOL0    Cl15064   4.681   8.041   7.944 -0.1192 -0.3038 -0.4484
  853MOL0     C15065   3.659   7.955   8.578  0.2148 -0.9674  0.0462
  853MOL0     C15066   3.523   7.967   8.607 -0.3381  0.2266 -0.0625
  853MOL0     O15067   3.357   8.244   8.820 -1.1818  0.1346 -0.1251
  853MOL0     C15068   3.044   8.184   8.631 -0.2587 -0.4318 -0.0468
  853MOL0     C15069   2.905   8.197   8.645  0.6684 -0.3030 -0.9056
  853MOL0     N15070   2.357   7.899   9.094  0.2773  0.2307 -0.0257
  853MOL0     N15071   2.294   7.830   9.180 -0.5674 -1.0974  0.2045
  853MOL0     C15072   1.268   7.483   9.352 -0.0507 -0.5562 -0.3127
  853MOL0     C15073   1.142   7.430   9.349  0.0477 -0.2325 -0.3038
  853MOL0     C15074   0.714   7.312   9.480  0.5357 -0.3386  0.0725
  853MOL0     C15075   0.648   7.390   9.380  0.3636  0.6913 -0.5688
  853MOL0     C15076   0.515   7.361   9.342  0.3715  0.2738  0.3593
  853MOL0     C15077   0.441   7.257   9.406  0.2161 -0.5654 -0.0582
  853MOL0     O15078   0.310   7.240   9.370 -0.1026  0.6590  0.8437
  853MOL0     C15079   0.234   7.157   9.463  0.0871 -0.1252  0.5260
  853MOL0     C15080   0.093   7.153   9.413 -0.6453  0.4047 -0.9247
  853MOL0     C15081   0.013   7.063   9.510  0.4906 -0.7005  0.3231
  853MOL0     C15082  -0.130   7.061   9.455 -0.7112 -0.2302  0.2151
  853MOL0     C15083  -0.153   6.983   9.332  0.2181 -0.7687 -0.3853
  853MOL0     C15084  -0.154   6.926   9.224 -0.0471  0.2255 -0.5433
  853MOL0     C15085   0.506   7.185   9.507 -0.4121 -0.2844 -0.0956
  853MOL0     C15086   0.643   7.207   9.541 -0.9433 -0.2160 -0.6097
  853MOL0     C15087   0.692   7.128   9.669  0.5168  1.0166 -0.3123
  853MOL0     H15088   0.995   7.646   9.577  0.4100  1.5102 -0.0886
  853MOL0     H15089   1.235   7.732   9.573  0.7593  0.1205 -0.8201
  853MOL0     H15090   1.629   7.611   9.424  0.8462 -1.0764 -2.4587
  853MOL0     H15091   1.536   7.485   9.347 -2.6185 -0.5952  2.0541
  853MOL0     H15092   1.550   7.783   9.271  1.2540  0.0659  0.8435
  853MOL0     H15093   1.437   7.664   9.191  0.7272  2.0821 -2.9220
  853MOL0     H15094   1.658   7.724   9.052 -0.8542  1.2194 -0.0300
  853MOL0     H15095   1.635   7.545   9.097  3.5417 -2.8060  2.5840
  853MOL0     H15096   1.812   7.558   9.256  0.3190 -2.0834 -1.6992
  853MOL0     H15097   1.858   7.633   9.108 -2.0752  0.5184 -0.9066
  853MOL0     H15098   1.832   7.853   9.188 -0.1478  0.0369 -0.6640
  853MOL0     H15099   1.770   7.783   9.348  0.2272  0.3006  0.0688
  853MOL0     H15100   2.005   7.661   9.369 -0.0955  0.0222  1.5822
  853MOL0     H15101   2.039   7.760   9.224 -1.3144  0.6363  0.1617
  853MOL0     H15102   1.989   7.884   9.497 -0.2427 -2.2443  0.6706
  853MOL0     H15103   1.997   7.974   9.348 -1.3650  1.3336  1.3242
  853MOL0     H15104   2.220   7.944   9.483  0.2760 -0.4356  0.2826
  853MOL0     H15105   2.214   7.778   9.424  0.4346  0.6102  0.1103
  853MOL0     H15106   2.233   8.135   9.294  0.6781 -1.1071  2.0521
  853MOL0     H15107   2.291   8.173   8.964 -0.5285  1.5955  0.4565
  853MOL0     H15108   2.399   8.231   9.091  3.0255  0.6495 -2.4747
  853MOL0     H15109   2.596   8.160   8.983  0.7312 -2.8696 -2.0942
  853MOL0     H15110   2.531   8.041   8.892  0.8583  0.0906 -0.6467
  853MOL0     H15111   2.440   8.323   8.825 -0.9514 -0.4314  0.8227
  853MOL0     H15112   2.397   8.186   8.741  0.6082 -1.6695  0.2343
  853MOL0     H15113   2.590   8.256   8.627 -0.1496 -1.5855 -0.6490
  853MOL0     H15114   2.630   8.108   8.708 -5.0816 -0.0760 -0.2697
  853MOL0     H15115   2.889   8.318   8.964 -0.2005  3.6514 -1.2086
  853MOL0     H15116   3.140   8.279   8.950 -1.6246 -3.3397  0.1668
  853MOL0     H15117   3.486   8.302   8.574  0.3142  1.0203  0.2151
  853MOL0     H15118   3.725   8.283   8.502  0.1868 -1.1802 -1.5822
  853MOL0     H15119   3.881   7.857   8.461  4.7638 -1.5216 -1.8881
  853MOL0     H15120   3.836   7.966   8.333 -2.1677  1.4848  2.9276
  853MOL0     H15121   4.095   8.056   8.438  0.3117 -0.8371  1.4394
  853MOL0     H15122   4.094   7.888   8.471 -0.2059 -0.5969 -0.0085
  853MOL0     H15123   4.048   7.825   8.242 -0.1832 -0.8896  0.6513
  853MOL0     H15124   4.031   7.987   8.181  3.6461  0.3217 -1.7283
  853MOL0     H15125   4.293   7.862   8.314  1.2504 -0.7857 -1.5018
  853MOL0     H15126   4.265   8.034   8.267  0.7071 -0.4114 -1.9331
  853MOL0     H15127   4.274   8.011   8.042  0.2486  0.4017  0.4308
  853MOL0     H15128   4.232   7.838   8.047 -2.1593  0.0347  2.1567
  853MOL0     H15129   4.496   7.967   8.140  0.4812  1.3023 -2.6770
  853MOL0     H15130   4.471   7.802   8.157  2.8412  1.8000 -0.5044
  853MOL0     H15131   4.447   7.946   7.894 -1.9434  0.0452  1.0716
  853MOL0     H15132   4.468   7.769   7.915  0.2260  0.2785 -0.2095
  853MOL0     H15133   4.708   7.826   8.014  0.2203  0.5226  1.3310
  853MOL0     H15134   4.667   7.835   7.843 -0.5867  0.5736  0.2438
  853MOL0     H15135   3.702   7.855   8.582  0.1591 -1.0153 -0.4889
  853MOL0     H15136   3.461   7.884   8.638 -0.0919 -0.3629 -1.1031
  853MOL0     H15137   3.088   8.142   8.541  1.2087 -0.3844  0.6295
  853MOL0     H15138   2.828   8.153   8.583 -0.9234 -2.4249  2.3095
  853MOL0     H15139   1.343   7.430   9.294  0.1361 -0.7924  0.1393
  853MOL0     H15140   1.115   7.349   9.282 -0.2722  2.7262 -4.1212
  853MOL0     H15141   0.686   7.474   9.322 -2.3853  1.9752 -0.6811
  853MOL0     H15142   0.473   7.425   9.264  0.2808 -0.5027 -0.2400
  853MOL0     H15143   0.238   7.200   9.563 -0.1912  2.1847 -0.3929
  853MOL0     H15144   0.278   7.058   9.447  2.5257  1.1920 -1.5648
  853MOL0     H15145   0.084   7.105   9.314  0.6844 -3.2783  0.5653
  853MOL0     H15146   0.042   7.249   9.422 -0.5504  0.3577  0.1296
  853MOL0     H15147   0.007   7.100   9.613  1.0254 -0.1944  0.1739
  853MOL0     H15148   0.055   6.962   9.505 -2.0688 -1.8042 -0.5960
  853MOL0     H15149  -0.203   7.036   9.533 -1.4008  2.1574  0.4284
  853MOL0     H15150  -0.156   7.162   9.422  2.9239  0.3240 -1.4347
  853MOL0     H15151  -0.153   6.875   9.130 -1.6402 -0.8780 -0.0137
  853MOL0     H15152   0.466   7.100   9.561  0.9084 -0.4829  0.6077
  853MOL0     H15153   0.797   7.102   9.657  0.1959 -1.6082  1.6779
  853MOL0     H15154   0.689   7.188   9.760  2.3617  1.8783 -0.7655
  853MOL0     H15155   0.635   7.035   9.677  1.5172  0.2342 -1.7280
  854MOL0     O15156   7.702   3.207  10.821  0.0807 -0.1798 -0.5976
  854MOL0     C15157   7.668   3.313  10.874  0.6555  0.2074  0.4489
  854MOL0     O15158   7.736   3.434  10.859  0.1036  0.5085  0.1149
  854MOL0     C15159   7.861   3.444  10.809 -0.5384  0.8059 -0.0012
  854MOL0     C15160   7.968   3.347  10.822  0.2807 -0.0231  0.0637
  854MOL0     C15161   8.096   3.387  10.794 -0.4216 -0.5305  0.1943
  854MOL0     C15162   8.129   3.514  10.751 -0.2170  0.2500  0.9116
  854MOL0     O15163   8.266   3.538  10.733 -0.5753 -0.4385  0.3199
  854MOL0     C15164   8.319   3.669  10.719  0.6665 -0.1304  0.2530
  854MOL0     C15165   8.429   3.660  10.621  0.1581 -0.2655  0.5010
  854MOL0     C15166   8.489   3.795  10.598 -0.3081 -0.4803 -0.4775
  854MOL0     C15167   8.563   3.806  10.461 -0.3723  0.2232  0.0310
  854MOL0     C15168   8.689   3.713  10.454  0.1078 -0.1992  0.3689
  854MOL0     C15169   8.797   3.746  10.561 -0.5809  0.7535  0.1314
  854MOL0     C15170   8.926   3.665  10.536  0.3991 -0.5025 -0.3925
  854MOL0     C15171   9.028   3.718  10.639 -0.4063  0.1803  0.5160
  854MOL0     N15172   9.168   3.675  10.611  0.0372  0.6644 -0.8644
  854MOL0     C15173   9.222   3.545  10.622 -0.6019  0.1607 -0.1304
  854MOL0     C15174   9.348   3.548  10.585 -0.4460 -0.1650 -0.1606
  854MOL0     C15175   9.461   3.440  10.599 -0.0539 -0.1005 -0.5909
  854MOL0     C15176   9.588   3.487  10.685  0.3616  0.2479 -0.2421
  854MOL0     C15177   9.712   3.405  10.656  0.2292  0.1026 -0.1039
  854MOL0     C15178   9.835   3.468  10.726 -0.6974 -0.5520 -0.0698
  854MOL0     O15179   9.952   3.388  10.688  0.9952 -0.0713 -0.0391
  854MOL0     C15180  10.063   3.379  10.764  0.3850 -0.1568  0.1346
  854MOL0     C15181  10.153   3.278  10.742  0.1616 -0.2248  0.1343
  854MOL0     C15182  10.281   3.279  10.804 -0.0491 -0.1160  0.6611
  854MOL0     C15183  10.314   3.380  10.897  0.4774 -0.3627 -0.3835
  854MOL0     C15184  10.439   3.383  10.972  0.3824  0.6261 -1.4121
  854MOL0     O15185  10.517   3.277  10.962  0.4024 -0.1537 -0.6764
  854MOL0     C15186  10.637   3.266  11.030 -0.1618 -0.4381 -0.3057
  854MOL0     C15187  10.721   3.164  10.982  0.7166 -0.4490  0.6929
  854MOL0     C15188  10.845   3.144  11.032 -0.6102  0.1211 -0.0524
  854MOL0     C15189  10.904   3.227  11.129  0.6256 -0.3428 -0.2576
  854MOL0     O15190  11.037   3.216  11.177 -0.1715  0.4473 -0.2082
  854MOL0     C15191  11.124   3.119  11.128  0.6122 -0.5086 -0.2027
  854MOL0     C15192  11.250   3.081  11.208  1.0894  0.2542  0.2390
  854MOL0     C15193  11.355   3.182  11.192 -0.2294  0.0502  0.2744
  854MOL0     C15194  11.468   3.141  11.292 -0.3551  0.0410  0.2557
  854MOL0     C15195  11.576   3.249  11.296 -0.4201  0.4566  0.4142
  854MOL0     C15196  11.693   3.207  11.383 -0.1804  0.1465 -0.0554
  854MOL0     C15197  11.791   3.327  11.389  0.0535  0.5861 -0.0866
  854MOL0     C15198  11.932   3.282  11.426 -0.9734  0.4043 -0.9448
  854MOL0    Cl15199  12.030   3.430  11.472 -0.3713  0.3981  0.2595
  854MOL0     C15200  10.818   3.319  11.192  1.1932  0.3394 -0.2562
  854MOL0     C15201  10.681   3.333  11.144 -0.5353  0.2446  0.2137
  854MOL0     O15202  10.464   3.489  11.035  0.0161 -0.4868  0.1575
  854MOL0     C15203  10.221   3.486  10.923 -0.2921 -1.1256 -0.3907
  854MOL0     C15204  10.095   3.486  10.854 -0.4097 -0.6184 -0.4517
  854MOL0     N15205   9.366   3.684  10.554  0.0448  0.1039 -0.3107
  854MOL0     N15206   9.263   3.757  10.571 -0.5370 -0.5664 -0.3399
  854MOL0     C15207   8.022   3.610  10.747  0.2334 -0.2700 -0.5284
  854MOL0     C15208   7.890   3.576  10.771 -0.4759  0.2453  0.3201
  854MOL0     C15209   7.541   3.318  10.936 -0.3716  0.5019 -0.6959
  854MOL0     C15210   7.467   3.438  10.920  0.0080  0.2299  0.1711
  854MOL0     C15211   7.338   3.445  10.957 -0.5640 -0.2522  0.0267
  854MOL0     C15212   7.281   3.340  11.025 -0.1608  0.5955 -0.9542
  854MOL0     O15213   7.153   3.332  11.068  0.8643  0.3458  0.3672
  854MOL0     C15214   7.066   3.436  11.014 -0.3839 -0.1412 -0.4062
  854MOL0     C15215   6.925   3.395  11.032 -0.5563  0.1575  1.0198
  854MOL0     C15216   6.874   3.410  11.178  0.5602 -0.1970 -0.0760
  854MOL0     C15217   6.747   3.322  11.189 -0.5207 -0.5409 -0.7953
  854MOL0     C15218   6.695   3.306  11.328  0.4550  1.0457 -0.3371
  854MOL0     C15219   6.628   3.296  11.428 -0.3428  0.3595  0.2006
  854MOL0     C15220   7.357   3.233  11.068 -0.5173  0.0065  0.1950
  854MOL0     C15221   7.492   3.226  11.031 -0.0424  0.0549  0.1956
  854MOL0     C15222   7.570   3.105  11.074 -0.1858  0.1342  0.1794
  854MOL0     H15223   7.940   3.247  10.853 -1.3992  0.3250 -0.2668
  854MOL0     H15224   8.175   3.312  10.794  0.5196  0.2609 -3.2467
  854MOL0     H15225   8.246   3.739  10.677  1.3475  0.7252  0.4524
  854MOL0     H15226   8.351   3.709  10.816 -1.5081  0.6447  0.7034
  854MOL0     H15227   8.392   3.623  10.525  1.0349  0.4250 -0.1207
  854MOL0     H15228   8.510   3.592  10.647  2.3181  1.8164 -0.4050
  854MOL0     H15229   8.549   3.834  10.681 -1.8988  3.4645 -0.9628
  854MOL0     H15230   8.404   3.863  10.600 -0.6403 -0.8855  1.3343
  854MOL0     H15231   8.496   3.797  10.375 -2.0935  2.5039  1.0179
  854MOL0     H15232   8.600   3.909  10.465 -0.8505  0.3716  2.1139
  854MOL0     H15233   8.655   3.609  10.460 -4.7425  1.1714  0.2392
  854MOL0     H15234   8.742   3.726  10.358 -0.3729  2.3788  0.3977
  854MOL0     H15235   8.811   3.854  10.555 -1.8329  0.9452  0.3549
  854MOL0     H15236   8.751   3.724  10.658 -3.4053 -2.3528 -1.6856
  854MOL0     H15237   8.963   3.695  10.438 -1.9070 -0.8127 -1.4225
  854MOL0     H15238   8.914   3.557  10.543 -2.7063 -0.4930 -3.0198
  854MOL0     H15239   9.028   3.827  10.642  2.3575  0.4035 -2.1318
  854MOL0     H15240   8.995   3.681  10.736  0.1480  1.1952  1.1003
  854MOL0     H15241   9.169   3.458  10.660  0.6321 -0.2740  0.6545
  854MOL0     H15242   9.420   3.350  10.647  2.9425 -0.0029  2.4722
  854MOL0     H15243   9.499   3.402  10.504  2.7505  0.9674  0.0317
  854MOL0     H15244   9.608   3.589  10.650  1.9034 -0.1827 -0.7141
  854MOL0     H15245   9.570   3.496  10.792  0.1047  0.3674 -0.2934
  854MOL0     H15246   9.735   3.401  10.549 -1.3071 -1.2498 -0.4230
  854MOL0     H15247   9.688   3.302  10.680 -0.3708  0.2111 -0.2201
  854MOL0     H15248   9.816   3.485  10.833 -1.4160 -0.1775 -0.2507
  854MOL0     H15249   9.856   3.564  10.678 -2.3509  0.4682  1.1124
  854MOL0     H15250  10.129   3.193  10.679 -1.6119 -0.8110  1.5177
  854MOL0     H15251  10.355   3.201  10.792 -0.1143  0.0082 -0.6507
  854MOL0     H15252  10.687   3.106  10.897 -1.1139  1.7646 -0.2072
  854MOL0     H15253  10.893   3.053  10.997  1.7473  1.8234 -1.6235
  854MOL0     H15254  11.085   3.018  11.111  1.9731 -1.5530  2.4185
  854MOL0     H15255  11.167   3.163  11.038  0.3392  0.7699  0.2786
  854MOL0     H15256  11.221   3.073  11.313  0.1186 -0.5855 -0.0727
  854MOL0     H15257  11.281   2.981  11.178  1.3289 -0.0020  1.3120
  854MOL0     H15258  11.388   3.168  11.089 -2.1013 -0.0788 -0.3497
  854MOL0     H15259  11.323   3.283  11.218 -1.0557 -0.3105  0.7116
  854MOL0     H15260  11.504   3.050  11.244 -2.6226  0.5955 -2.8065
  854MOL0     H15261  11.436   3.103  11.389  0.4066 -2.0839 -0.2680
  854MOL0     H15262  11.532   3.344  11.328 -0.5588 -0.3001  2.6922
  854MOL0     H15263  11.624   3.261  11.199  0.6178  1.3894  1.0285
  854MOL0     H15264  11.657   3.174  11.481  0.2378 -0.0068  0.0466
  854MOL0     H15265  11.747   3.123  11.339  1.3760  2.0013 -1.8763
  854MOL0     H15266  11.756   3.398  11.465 -0.0034  0.2098  0.2410
  854MOL0     H15267  11.788   3.378  11.293 -0.7833 -2.5036 -1.8304
  854MOL0     H15268  11.922   3.216  11.512  1.6746 -0.4397 -1.2090
  854MOL0     H15269  11.982   3.225  11.347 -1.9571  2.5204 -3.2660
  854MOL0     H15270  10.849   3.368  11.284 -0.0807 -1.1865  1.0423
  854MOL0     H15271  10.631   3.415  11.196 -1.6593 -0.9500  1.0707
  854MOL0     H15272  10.249   3.569  10.988 -1.0101 -0.5701 -0.7785
  854MOL0     H15273  10.033   3.570  10.883 -1.8242 -2.2195  1.5192
  854MOL0     H15274   8.029   3.716  10.721 -0.0460 -0.2277 -0.4388
  854MOL0     H15275   7.804   3.642  10.763 -2.5236 -1.7248  3.6494
  854MOL0     H15276   7.513   3.525  10.875 -0.5013  0.8562  0.8352
  854MOL0     H15277   7.292   3.541  10.937  1.4498  0.7723  0.0256
  854MOL0     H15278   7.085   3.455  10.908  0.0592  1.0494 -0.1331
  854MOL0     H15279   7.096   3.536  11.049  2.5780 -0.6651 -1.2224
  854MOL0     H15280   6.911   3.296  10.987  0.8149  0.5927 -0.4675
  854MOL0     H15281   6.862   3.456  10.967 -0.6034 -2.7175 -1.8862
  854MOL0     H15282   6.866   3.516  11.203 -0.0399  0.4127 -2.5008
  854MOL0     H15283   6.954   3.363  11.236 -0.9257 -1.4931  0.9747
  854MOL0     H15284   6.663   3.354  11.125 -0.2034 -1.4088 -1.6678
  854MOL0     H15285   6.775   3.220  11.162 -0.0886 -0.6877  0.1553
  854MOL0     H15286   6.574   3.286  11.520 -2.8712 -0.3508 -1.2637
  854MOL0     H15287   7.309   3.162  11.134  1.0605 -0.1094  1.2725
  854MOL0     H15288   7.552   3.036  10.991  2.1399  2.5437 -2.6074
  854MOL0     H15289   7.678   3.124  11.076 -0.1835  0.2673 -0.7300
  854MOL0     H15290   7.542   3.063  11.170 -0.3220 -1.2899 -0.4682
  855MOL0     O15291  11.076   9.751   8.171 -0.6427  0.0691 -0.2162
  855MOL0     C15292  11.071   9.669   8.079 -0.1069  0.6434  0.9223
  855MOL0     O15293  11.176   9.589   8.052  0.3657 -0.0332  0.7463
  855MOL0     C15294  11.298   9.602   8.117 -0.4592 -0.2796 -0.2471
  855MOL0     C15295  11.293   9.591   8.256 -0.7502  0.5938 -0.2103
  855MOL0     C15296  11.423   9.596   8.319 -0.4456  0.4957 -0.6323
  855MOL0     C15297  11.538   9.626   8.247 -0.1937 -0.1759 -0.3613
  855MOL0     O15298  11.652   9.637   8.327 -0.6900 -0.4349  0.0798
  855MOL0     C15299  11.780   9.621   8.261  0.0725  0.4663  0.6575
  855MOL0     C15300  11.883   9.595   8.365  0.3198  0.1714  0.2757
  855MOL0     C15301  12.026   9.617   8.304  0.1163 -0.4028 -0.7707
  855MOL0     C15302  12.069   9.483   8.247  0.1514  0.7208 -0.2372
  855MOL0     C15303  12.199   9.481   8.168 -0.2798  0.3619 -0.3546
  855MOL0     C15304  12.316   9.496   8.264  0.2622  0.3265 -0.3156
  855MOL0     C15305  12.448   9.489   8.192 -0.1219  0.1039 -0.1314
  855MOL0     C15306  12.468   9.354   8.109 -0.2443 -0.1624  0.1339
  855MOL0     N15307  12.452   9.234   8.197 -0.4002  0.5015 -0.4884
  855MOL0     C15308  12.543   9.188   8.286  0.8659 -0.3369 -0.4559
  855MOL0     C15309  12.486   9.089   8.357  0.2401 -0.2277 -1.0597
  855MOL0     C15310  12.535   9.030   8.489  0.6212  0.4566  0.4862
  855MOL0     C15311  12.668   9.078   8.539 -0.1118  0.1503 -0.5621
  855MOL0     C15312  12.774   9.001   8.458  0.2984  0.3304 -0.1767
  855MOL0     C15313  12.912   9.052   8.496 -0.9142  0.0826 -0.5099
  855MOL0     O15314  12.979   9.121   8.386 -0.8197 -0.2108  0.0184
  855MOL0     C15315  13.113   9.123   8.394 -0.6669  0.0117 -1.0443
  855MOL0     C15316  13.174   9.246   8.387 -0.7641 -0.2480  0.2354
  855MOL0     C15317  13.310   9.250   8.409 -0.6818 -0.2971 -0.9639
  855MOL0     C15318  13.385   9.136   8.417  0.5892  0.7144 -0.6866
  855MOL0     C15319  13.535   9.134   8.410 -0.0084 -0.7750 -0.1355
  855MOL0     O15320  13.591   9.013   8.378  0.2005  0.0723 -0.4075
  855MOL0     C15321  13.724   9.016   8.340  0.5986 -0.0407 -0.7246
  855MOL0     C15322  13.833   9.084   8.396 -1.0338 -0.6299  1.1746
  855MOL0     C15323  13.965   9.076   8.335 -0.4745 -0.0509  0.1795
  855MOL0     C15324  13.983   8.984   8.228 -0.3206  0.0018 -0.1420
  855MOL0     O15325  14.107   8.944   8.173  0.0751 -0.2470  0.6275
  855MOL0     C15326  14.235   9.017   8.180  0.7143  0.2739 -0.4072
  855MOL0     C15327  14.227   9.150   8.109  1.0933 -0.0701  0.5024
  855MOL0     C15328  14.370   9.197   8.101  0.6973 -0.6129 -0.0265
  855MOL0     C15329  14.379   9.329   8.029  0.0061  0.1014 -1.5412
  855MOL0     C15330  14.510   9.327   7.947  1.0506 -0.1864 -0.4673
  855MOL0     C15331  14.543   9.466   7.894  0.4728 -0.1893  0.3604
  855MOL0     C15332  14.676   9.457   7.812  0.5072 -0.0508  0.0916
  855MOL0     C15333  14.737   9.585   7.756  0.3570  0.7575 -0.1542
  855MOL0    Cl15334  14.922   9.579   7.727 -0.2664  0.2529 -0.1023
  855MOL0     C15335  13.873   8.913   8.179  0.3970 -0.1038  0.0073
  855MOL0     C15336  13.746   8.928   8.234  1.0029  0.2462 -0.0146
  855MOL0     O15337  13.583   9.249   8.394  0.1135 -0.3323 -0.2606
  855MOL0     C15338  13.320   9.009   8.420  0.1088 -0.0451 -0.3468
  855MOL0     C15339  13.180   9.001   8.410  0.5685 -0.1263  0.2926
  855MOL0     N15340  12.352   9.075   8.311 -0.2120 -0.0232  0.2117
  855MOL0     N15341  12.334   9.155   8.209 -0.5670  0.2006  0.0796
  855MOL0     C15342  11.533   9.657   8.110  0.0895 -0.3355 -0.1066
  855MOL0     C15343  11.411   9.641   8.043 -0.1685 -0.5234 -0.4699
  855MOL0     C15344  10.940   9.644   8.009 -0.4857  0.0460  0.3921
  855MOL0     C15345  10.826   9.697   8.071 -0.1360 -0.8568  0.1145
  855MOL0     C15346  10.697   9.676   8.015  0.7499  0.3342  0.0257
  855MOL0     C15347  10.678   9.593   7.899  0.6812  0.1949 -0.4106
  855MOL0     O15348  10.557   9.554   7.845  0.1048 -0.6213 -0.0032
  855MOL0     C15349  10.435   9.587   7.910 -0.2823 -1.1368  0.1546
  855MOL0     C15350  10.304   9.547   7.833 -0.1370 -0.5756  0.0297
  855MOL0     C15351  10.173   9.570   7.914  0.3340 -0.0210 -0.3545
  855MOL0     C15352  10.082   9.667   7.848 -0.2299 -0.1720 -0.0917
  855MOL0     C15353  10.135   9.798   7.844 -0.9370  0.3805 -0.1734
  855MOL0     C15354  10.159   9.918   7.844  1.3382 -0.2161  0.6158
  855MOL0     C15355  10.788   9.539   7.842 -0.9526  0.6609 -0.9236
  855MOL0     C15356  10.921   9.562   7.897 -0.0033  1.1043 -0.2558
  855MOL0     C15357  11.030   9.496   7.813 -0.0466 -0.5040 -0.2055
  855MOL0     H15358  11.197   9.570   8.301 -0.4950 -3.1228 -1.0695
  855MOL0     H15359  11.437   9.582   8.426  1.9788 -0.8554 -1.0410
  855MOL0     H15360  11.785   9.538   8.190 -0.1598  1.9005 -1.0930
  855MOL0     H15361  11.784   9.716   8.208 -4.4138 -0.0848 -1.0044
  855MOL0     H15362  11.873   9.494   8.407 -0.6390 -0.4912 -1.4055
  855MOL0     H15363  11.854   9.667   8.442 -2.7304 -0.7369  0.1237
  855MOL0     H15364  12.096   9.648   8.382  1.8530 -0.6640 -2.1792
  855MOL0     H15365  12.023   9.700   8.233  1.0443 -0.1903 -0.5697
  855MOL0     H15366  12.062   9.405   8.324 -0.3899  0.0691 -0.9361
  855MOL0     H15367  11.995   9.458   8.171 -0.4811  1.9890 -0.0767
  855MOL0     H15368  12.189   9.389   8.111 -2.8487 -0.4994  1.3176
  855MOL0     H15369  12.221   9.560   8.096 -0.1355  0.8887  0.2549
  855MOL0     H15370  12.314   9.596   8.310  0.4661  1.9972 -3.6772
  855MOL0     H15371  12.311   9.421   8.344  3.3743 -0.3938 -0.6877
  855MOL0     H15372  12.531   9.508   8.260 -1.6455 -0.2222  1.9225
  855MOL0     H15373  12.446   9.579   8.130  1.2647  0.5627  0.4652
  855MOL0     H15374  12.390   9.355   8.033 -0.9803  1.7005  0.8373
  855MOL0     H15375  12.567   9.346   8.061  0.4102 -1.6229  1.6212
  855MOL0     H15376  12.640   9.232   8.310  1.6919 -2.3667  0.1744
  855MOL0     H15377  12.453   9.058   8.555 -0.6928  2.6803 -1.9164
  855MOL0     H15378  12.537   8.921   8.501 -1.3984  0.5171  2.0150
  855MOL0     H15379  12.670   9.187   8.533 -2.9581  0.2136 -3.1313
  855MOL0     H15380  12.682   9.061   8.646 -0.8728  1.9289 -0.1449
  855MOL0     H15381  12.761   9.016   8.350 -2.8335 -0.8216 -0.0818
  855MOL0     H15382  12.764   8.893   8.475 -2.5285  0.7856  1.7063
  855MOL0     H15383  12.959   8.958   8.529 -4.2444 -2.0683 -1.3996
  855MOL0     H15384  12.911   9.122   8.581  1.1690 -0.9694  0.4731
  855MOL0     H15385  13.115   9.336   8.375  0.2152  0.1913 -1.5458
  855MOL0     H15386  13.350   9.349   8.394  0.3510 -0.7019 -0.9573
  855MOL0     H15387  13.823   9.153   8.479 -0.6490  0.7792  0.0792
  855MOL0     H15388  14.048   9.129   8.381 -0.9967  2.3919 -1.4802
  855MOL0     H15389  14.262   9.032   8.285  1.4465 -1.0312 -0.3814
  855MOL0     H15390  14.321   8.968   8.133  1.0808 -0.7907  1.2860
  855MOL0     H15391  14.193   9.130   8.007  0.2070 -2.1195  1.1483
  855MOL0     H15392  14.157   9.219   8.158 -0.7401 -1.5329  0.0689
  855MOL0     H15393  14.433   9.203   8.190 -0.4345 -0.3666  0.7778
  855MOL0     H15394  14.420   9.127   8.034  1.7278  0.0766 -0.0100
  855MOL0     H15395  14.380   9.411   8.101  0.3784 -1.3796  0.2284
  855MOL0     H15396  14.294   9.343   7.961  0.3916  1.9773 -1.7047
  855MOL0     H15397  14.495   9.256   7.865  0.1519  1.4621 -1.7869
  855MOL0     H15398  14.589   9.294   8.015 -0.6006 -2.1179  0.6471
  855MOL0     H15399  14.463   9.496   7.826  0.1761 -1.0386  0.3236
  855MOL0     H15400  14.554   9.542   7.972  0.6568 -0.1095  0.2586
  855MOL0     H15401  14.653   9.378   7.740  0.8805  1.0987 -1.3437
  855MOL0     H15402  14.747   9.416   7.884 -2.5853 -2.1922  2.1962
  855MOL0     H15403  14.689   9.626   7.666  0.1398  1.9804  0.4910
  855MOL0     H15404  14.746   9.661   7.834  1.0874  0.8715 -0.3464
  855MOL0     H15405  13.893   8.849   8.094  1.7935  1.2953 -0.7620
  855MOL0     H15406  13.662   8.886   8.179 -1.0652  2.1112  1.5273
  855MOL0     H15407  13.381   8.920   8.432  0.4010  0.2020 -0.0254
  855MOL0     H15408  13.134   8.907   8.381  3.5313 -0.5105 -4.3677
  855MOL0     H15409  11.615   9.685   8.045  0.6806  2.7599  1.7572
  855MOL0     H15410  11.404   9.647   7.935 -2.6289 -2.1948 -0.4776
  855MOL0     H15411  10.833   9.742   8.170  2.4752 -2.8063  0.9360
  855MOL0     H15412  10.618   9.718   8.076  0.7407  2.6735 -1.4784
  855MOL0     H15413  10.426   9.695   7.923  0.5516 -0.9279 -0.8474
  855MOL0     H15414  10.439   9.530   8.004  1.5282  0.7063  1.3010
  855MOL0     H15415  10.313   9.441   7.806  0.4838 -0.4798 -0.1485
  855MOL0     H15416  10.293   9.591   7.733 -0.0638 -0.6905 -0.0294
  855MOL0     H15417  10.189   9.593   8.020 -0.9033 -0.5196 -0.0346
  855MOL0     H15418  10.118   9.476   7.923 -2.4663  1.7010  3.0326
  855MOL0     H15419  10.068   9.623   7.749 -0.4251 -1.0667  0.3334
  855MOL0     H15420   9.992   9.676   7.908 -0.4647  0.6216 -0.5473
  855MOL0     H15421  10.162  10.024   7.832 -1.9547 -0.0922  0.0412
  855MOL0     H15422  10.770   9.473   7.758  1.5864 -0.8762 -0.3490
  855MOL0     H15423  11.106   9.567   7.778  1.1962 -0.2636  2.6369
  855MOL0     H15424  11.094   9.427   7.869 -1.8415 -2.3269 -0.2838
  855MOL0     H15425  10.994   9.443   7.725 -1.1761  3.1766 -2.1363
  856MOL0     O15426   7.814   4.118  10.979 -0.3979 -0.0525  0.2922
  856MOL0     C15427   7.794   3.996  10.965 -0.1814  0.5141  0.2216
  856MOL0     O15428   7.882   3.904  10.954  0.4983  1.1111 -0.6644
  856MOL0     C15429   8.011   3.928  10.953 -0.4559 -0.0734 -0.0470
  856MOL0     C15430   8.092   3.829  11.009 -0.4518  0.1348 -0.9413
  856MOL0     C15431   8.231   3.846  11.008  0.0133  0.5928 -0.4995
  856MOL0     C15432   8.292   3.953  10.945 -0.3544  0.4923 -0.5256
  856MOL0     O15433   8.430   3.966  10.923  0.4589  0.2003  0.0287
  856MOL0     C15434   8.521   3.956  11.033  0.8169 -0.2874 -0.6587
  856MOL0     C15435   8.661   3.949  10.971  0.3209 -1.3108 -0.1401
  856MOL0     C15436   8.713   4.081  10.904  0.1479  0.2799 -1.0482
  856MOL0     C15437   8.852   4.059  10.846  0.7095 -0.5023 -0.4161
  856MOL0     C15438   8.931   4.189  10.830  0.9269 -0.0699 -0.1385
  856MOL0     C15439   9.028   4.190  10.715 -0.8364  1.0319 -0.1239
  856MOL0     C15440   9.155   4.120  10.754 -1.0248 -0.1570 -0.0962
  856MOL0     C15441   9.239   4.202  10.848  0.0898  0.1701 -0.3991
  856MOL0     N15442   9.383   4.183  10.850 -0.0626 -0.1174 -0.1008
  856MOL0     C15443   9.464   4.071  10.814  0.7922 -0.2375  0.2812
  856MOL0     C15444   9.586   4.131  10.810 -0.3009  0.7429  0.0570
  856MOL0     C15445   9.696   4.034  10.811  0.1377 -0.4708  0.8354
  856MOL0     C15446   9.829   4.117  10.826  0.3600 -0.5657  0.0656
  856MOL0     C15447   9.954   4.021  10.834  0.2647  0.4043 -0.0109
  856MOL0     C15448  10.009   3.980  10.700 -1.2918 -0.6281  0.4520
  856MOL0     O15449  10.095   3.871  10.725 -0.0344 -0.6038 -0.0598
  856MOL0     C15450  10.225   3.887  10.757 -0.4186 -0.5380  0.4722
  856MOL0     C15451  10.288   4.009  10.787  0.4427 -0.5136 -0.4697
  856MOL0     C15452  10.425   4.013  10.818  0.6607 -0.7400  0.5614
  856MOL0     C15453  10.501   3.892  10.821  0.3501 -0.2567  0.7896
  856MOL0     C15454  10.647   3.891  10.844 -0.2341 -0.0422  0.2030
  856MOL0     O15455  10.715   3.769  10.836 -0.1341 -0.7893  0.3343
  856MOL0     C15456  10.846   3.756  10.895  0.3461 -0.2426 -0.0954
  856MOL0     C15457  10.942   3.861  10.914  0.9062 -0.2776 -0.2269
  856MOL0     C15458  11.066   3.837  10.988  0.1082  0.3506  0.1818
  856MOL0     C15459  11.089   3.704  11.023  0.2467 -0.0766  0.5888
  856MOL0     O15460  11.199   3.682  11.090 -0.2712 -0.0377  0.5975
  856MOL0     C15461  11.279   3.581  11.038 -0.3137 -0.0487 -0.1112
  856MOL0     C15462  11.422   3.643  11.010 -0.9293 -0.0620 -0.3034
  856MOL0     C15463  11.534   3.538  11.020 -0.3733  0.3548 -0.5135
  856MOL0     C15464  11.660   3.613  11.058 -0.4388  0.6791  0.4414
  856MOL0     C15465  11.787   3.523  11.030  0.4158 -0.3805 -0.3396
  856MOL0     C15466  11.903   3.562  11.117 -1.4459  0.1262 -0.4773
  856MOL0     C15467  12.028   3.475  11.095 -0.9945 -0.0416 -0.0421
  856MOL0     C15468  12.157   3.529  11.153  0.1284 -0.5221 -0.2961
  856MOL0    Cl15469  12.196   3.702  11.104  0.0818 -0.1496  0.1047
  856MOL0     C15470  10.998   3.599  10.997  0.8210 -0.7798  0.6392
  856MOL0     C15471  10.875   3.630  10.940 -0.2956  0.8107 -0.1051
  856MOL0     O15472  10.688   4.000  10.879 -0.5140  0.2913  0.1917
  856MOL0     C15473  10.436   3.772  10.783  0.6984 -0.4743 -0.4421
  856MOL0     C15474  10.293   3.766  10.758 -0.2665 -0.0096 -0.4034
  856MOL0     N15475   9.596   4.265  10.839  0.5715 -0.1998 -0.4697
  856MOL0     N15476   9.466   4.290  10.858 -0.1003 -0.3785  0.1163
  856MOL0     C15477   8.210   4.053  10.877 -0.1306  0.0908  0.3594
  856MOL0     C15478   8.072   4.039  10.886  0.1928 -0.1915  0.1192
  856MOL0     C15479   7.656   3.951  10.983  0.2189 -0.2915 -0.7935
  856MOL0     C15480   7.640   3.833  11.054  0.5843  0.2164 -0.8547
  856MOL0     C15481   7.514   3.779  11.087  0.7568 -0.2241 -0.3410
  856MOL0     C15482   7.399   3.854  11.055  0.1477  0.5530  0.4087
  856MOL0     O15483   7.284   3.806  11.098 -0.2722  0.3363 -0.4810
  856MOL0     C15484   7.242   3.875  11.221  0.1745  0.2935 -0.2669
  856MOL0     C15485   7.293   3.793  11.346 -0.3744  0.4426  0.5198
  856MOL0     C15486   7.242   3.645  11.326 -0.3935  1.3507  0.0694
  856MOL0     C15487   7.288   3.556  11.439 -0.1662 -1.2722  0.2198
  856MOL0     C15488   7.419   3.495  11.410 -0.2432  0.3959  0.5023
  856MOL0     C15489   7.517   3.449  11.357 -1.0754 -0.1893 -0.3237
  856MOL0     C15490   7.419   3.974  10.983 -0.0566  0.1727 -0.1099
  856MOL0     C15491   7.545   4.020  10.934 -0.1471  0.6708  0.3035
  856MOL0     C15492   7.556   4.155  10.862 -0.2270  0.0535  0.1708
  856MOL0     H15493   8.065   3.727  11.034  2.8052 -0.9912 -1.4926
  856MOL0     H15494   8.299   3.767  11.040  0.5511  1.9229  1.8330
  856MOL0     H15495   8.518   4.046  11.096  1.0762 -0.1861 -0.7921
  856MOL0     H15496   8.495   3.869  11.094  0.3009  0.7251  0.6232
  856MOL0     H15497   8.666   3.873  10.892 -0.6745 -0.9779 -0.5496
  856MOL0     H15498   8.728   3.918  11.051  0.6937 -1.9700 -0.6956
  856MOL0     H15499   8.714   4.157  10.982 -1.9341  1.0479 -1.7026
  856MOL0     H15500   8.647   4.118  10.825  1.8964  0.0554 -2.6824
  856MOL0     H15501   8.910   3.984  10.901  0.6147 -1.1036 -1.1217
  856MOL0     H15502   8.844   4.025  10.743  0.9421  2.6166 -1.5787
  856MOL0     H15503   8.860   4.268  10.804 -1.4075 -1.4323  1.7897
  856MOL0     H15504   8.975   4.216  10.927  0.1566 -1.3250  0.5726
  856MOL0     H15505   8.991   4.143  10.623 -0.6169 -0.9154  0.7223
  856MOL0     H15506   9.056   4.292  10.690  3.0738  0.4269  1.0776
  856MOL0     H15507   9.223   4.113  10.669  0.8093 -0.1879  1.2945
  856MOL0     H15508   9.130   4.021  10.794 -2.1869  0.0988 -0.1505
  856MOL0     H15509   9.211   4.305  10.825 -2.0529  0.0097  1.2155
  856MOL0     H15510   9.204   4.171  10.947 -0.2330 -0.9008 -0.8356
  856MOL0     H15511   9.430   3.973  10.784 -2.0655  1.1760 -1.4840
  856MOL0     H15512   9.685   3.952  10.883  2.3651  0.5424  2.4626
  856MOL0     H15513   9.703   3.992  10.710 -0.6128  0.9137  0.1832
  856MOL0     H15514   9.836   4.197  10.752 -1.2965 -1.4655 -1.1429
  856MOL0     H15515   9.831   4.171  10.921 -2.6868  0.0310 -0.1012
  856MOL0     H15516   9.925   3.929  10.886 -1.2320 -0.1104 -1.6680
  856MOL0     H15517  10.026   4.085  10.886 -2.3300  3.2012  0.4047
  856MOL0     H15518  10.064   4.063  10.653 -0.2415 -1.4448  0.1953
  856MOL0     H15519   9.933   3.943  10.631  0.2459 -1.0163 -1.1080
  856MOL0     H15520  10.235   4.102  10.768  1.0881 -0.2275 -0.9268
  856MOL0     H15521  10.479   4.105  10.836  3.2936 -1.8914 -0.9289
  856MOL0     H15522  10.916   3.963  10.889  0.2591  0.2783  2.4537
  856MOL0     H15523  11.131   3.920  11.015  1.9667  0.5718 -4.1924
  856MOL0     H15524  11.283   3.494  11.104 -1.3065  1.1720  1.6364
  856MOL0     H15525  11.244   3.545  10.941  0.8257 -0.9949 -0.1923
  856MOL0     H15526  11.419   3.699  10.916  0.6086  2.8711  1.2733
  856MOL0     H15527  11.456   3.711  11.088  2.7746 -1.6652 -0.3002
  856MOL0     H15528  11.505   3.461  11.093  0.5620  0.9892  0.5681
  856MOL0     H15529  11.544   3.476  10.931 -0.1580  1.1879 -1.0734
  856MOL0     H15530  11.658   3.644  11.163  2.0714  0.4153  0.6219
  856MOL0     H15531  11.674   3.704  10.999  4.2573  0.5640  1.0200
  856MOL0     H15532  11.820   3.551  10.930 -0.6081  3.2051  0.1685
  856MOL0     H15533  11.766   3.417  11.049 -0.5037 -0.4946 -1.8265
  856MOL0     H15534  11.929   3.665  11.093 -2.0337  0.1139 -1.1649
  856MOL0     H15535  11.887   3.557  11.225  3.0000  1.8610  0.4704
  856MOL0     H15536  12.050   3.465  10.988  1.2206 -2.2218  0.5001
  856MOL0     H15537  12.013   3.377  11.142  2.5620 -1.2289 -1.0152
  856MOL0     H15538  12.161   3.523  11.263 -3.5054 -1.0176 -0.0507
  856MOL0     H15539  12.241   3.467  11.124  0.0148 -1.5401  1.3824
  856MOL0     H15540  11.033   3.499  11.020  2.2338  0.1563  2.8885
  856MOL0     H15541  10.810   3.545  10.922 -0.7300  0.9426  0.8257
  856MOL0     H15542  10.489   3.680  10.761  2.3953 -0.0549  1.6035
  856MOL0     H15543  10.235   3.677  10.738  0.8091 -0.5302 -1.3100
  856MOL0     H15544   8.251   4.138  10.824 -2.3464  2.0778  1.6232
  856MOL0     H15545   8.004   4.113  10.845  0.0708  1.3039  2.8326
  856MOL0     H15546   7.729   3.783  11.090  0.6324  1.0382  0.2016
  856MOL0     H15547   7.499   3.691  11.149 -2.6341  0.0813 -0.5269
  856MOL0     H15548   7.133   3.882  11.215 -0.0084 -0.8137  1.0918
  856MOL0     H15549   7.285   3.975  11.211  0.3647  0.1104 -1.3859
  856MOL0     H15550   7.245   3.838  11.433  0.7205  1.1333  0.7758
  856MOL0     H15551   7.401   3.791  11.358 -0.2006  0.7660 -0.8404
  856MOL0     H15552   7.274   3.595  11.234 -2.0566 -2.6753  1.4598
  856MOL0     H15553   7.134   3.657  11.329 -0.3648  1.3652  2.0100
  856MOL0     H15554   7.285   3.617  11.529 -0.0236 -0.5120 -0.2758
  856MOL0     H15555   7.214   3.476  11.448 -0.2590 -1.9346 -4.2051
  856MOL0     H15556   7.606   3.414  11.310  1.0238  2.3903  1.4010
  856MOL0     H15557   7.336   4.043  10.969  0.9508  1.4504 -0.0313
  856MOL0     H15558   7.611   4.136  10.769 -0.4605  2.6211 -0.5877
  856MOL0     H15559   7.454   4.191  10.845  0.8220  2.4707 -1.6815
  856MOL0     H15560   7.602   4.236  10.919 -2.8149  0.0303  2.4890
  857MOL0     O15561   2.026   1.785   8.398  0.0452 -0.4269  0.7377
  857MOL0     C15562   1.984   1.700   8.319 -0.2985  0.3967 -0.0889
  857MOL0     O15563   2.056   1.607   8.252 -0.2254  0.1441  0.2367
  857MOL0     C15564   2.189   1.605   8.274  0.7821  1.0564 -0.4799
  857MOL0     C15565   2.237   1.526   8.379 -0.2504 -0.1836 -0.2642
  857MOL0     C15566   2.376   1.525   8.410 -0.2677  0.0255  0.3090
  857MOL0     C15567   2.467   1.585   8.319 -0.0394  0.2685 -0.8266
  857MOL0     O15568   2.601   1.583   8.344  0.0609  0.1441  0.5874
  857MOL0     C15569   2.658   1.449   8.345 -0.0329  0.7247  0.5681
  857MOL0     C15570   2.774   1.451   8.439  0.3372  0.1167 -0.2167
  857MOL0     C15571   2.909   1.428   8.369 -0.0523  0.5676 -0.2513
  857MOL0     C15572   2.947   1.552   8.290  0.8174 -0.1407 -1.0802
  857MOL0     C15573   3.077   1.530   8.211  0.6092  0.8659  0.3340
  857MOL0     C15574   3.114   1.653   8.122 -0.1699 -0.2947 -0.7207
  857MOL0     C15575   3.219   1.618   8.027  1.2789  0.4888  0.1747
  857MOL0     C15576   3.326   1.722   8.018 -0.3616  0.5294  0.1848
  857MOL0     N15577   3.419   1.681   7.914 -0.1622  0.0531 -0.3110
  857MOL0     C15578   3.540   1.629   7.937 -0.0315  0.0293  0.3798
  857MOL0     C15579   3.591   1.608   7.811 -0.0827  0.2074  0.0156
  857MOL0     C15580   3.722   1.542   7.788 -0.8664  0.2305  0.4320
  857MOL0     C15581   3.844   1.628   7.761  0.1350  0.4515 -0.4788
  857MOL0     C15582   3.893   1.717   7.884 -0.2754 -0.4214 -0.1216
  857MOL0     C15583   4.016   1.793   7.841  0.8616 -0.2010 -0.5993
  857MOL0     O15584   4.132   1.715   7.830 -0.7717  0.1883 -0.3449
  857MOL0     C15585   4.251   1.756   7.883  0.2735 -0.9668  0.3999
  857MOL0     C15586   4.368   1.680   7.879 -0.2929 -0.1517 -1.1632
  857MOL0     C15587   4.493   1.722   7.922 -0.9909 -0.1836 -0.6159
  857MOL0     C15588   4.512   1.859   7.956  0.0529 -0.4521 -0.0313
  857MOL0     C15589   4.641   1.915   7.981 -0.5354  0.3355 -0.7213
  857MOL0     O15590   4.649   2.045   8.015 -0.1216  0.8406  0.1434
  857MOL0     C15591   4.763   2.091   8.075 -0.1462  0.0203 -0.0741
  857MOL0     C15592   4.765   2.089   8.215 -0.1507  0.4955 -0.1548
  857MOL0     C15593   4.885   2.114   8.277 -0.0583  0.1883 -0.0562
  857MOL0     C15594   4.997   2.152   8.208 -0.0691  0.1825  0.1353
  857MOL0     O15595   5.115   2.178   8.282  0.2633 -0.3422 -0.2096
  857MOL0     C15596   5.242   2.179   8.209 -0.1849  0.3781 -0.3404
  857MOL0     C15597   5.357   2.195   8.313 -0.4433 -0.5009 -0.3608
  857MOL0     C15598   5.389   2.072   8.401 -0.6722  0.3878  0.2484
  857MOL0     C15599   5.504   2.120   8.505  0.1113 -0.1362 -0.7987
  857MOL0     C15600   5.520   2.017   8.624 -0.2321  0.1238 -0.0288
  857MOL0     C15601   5.578   1.878   8.571  0.5868 -0.0031 -0.4623
  857MOL0     C15602   5.587   1.766   8.672 -0.3259 -0.1775  0.0454
  857MOL0     C15603   5.634   1.631   8.615  0.6209  0.2082 -0.3651
  857MOL0    Cl15604   5.809   1.622   8.609 -0.0062 -0.4263  0.0173
  857MOL0     C15605   4.990   2.162   8.064  0.3059 -0.0279  0.4051
  857MOL0     C15606   4.873   2.130   7.999  0.5472 -0.6209  0.5187
  857MOL0     O15607   4.734   1.842   7.963 -0.2353  0.5479 -0.4982
  857MOL0     C15608   4.398   1.944   7.973  0.3448 -0.6446  0.8297
  857MOL0     C15609   4.273   1.887   7.935 -0.1117  0.3011  0.3456
  857MOL0     N15610   3.498   1.648   7.717 -0.1197  0.3944 -0.4463
  857MOL0     N15611   3.391   1.688   7.785  1.1649  0.1672  0.6695
  857MOL0     C15612   2.418   1.649   8.204 -0.3956  0.0171 -0.3877
  857MOL0     C15613   2.280   1.668   8.193  0.6080  0.4431 -0.5438
  857MOL0     C15614   1.837   1.689   8.297 -0.0274 -0.2917  0.1321
  857MOL0     C15615   1.795   1.592   8.208  0.6122 -0.1794  0.0836
  857MOL0     C15616   1.665   1.545   8.207  0.0872 -0.6942 -0.2477
  857MOL0     C15617   1.559   1.628   8.254  0.3940  0.0369  0.0462
  857MOL0     O15618   1.423   1.594   8.248 -0.7752  1.1393  0.8429
  857MOL0     C15619   1.359   1.613   8.122 -0.1268  0.8316 -0.5743
  857MOL0     C15620   1.333   1.757   8.101  0.0662 -0.3958 -0.0933
  857MOL0     C15621   1.243   1.822   8.214  0.4470 -0.1460 -0.1072
  857MOL0     C15622   1.221   1.973   8.207 -0.1248  1.2923  0.1853
  857MOL0     C15623   1.340   2.046   8.232  0.3681 -0.5042  0.1166
  857MOL0     C15624   1.447   2.102   8.236  0.8959 -0.1175 -0.5709
  857MOL0     C15625   1.601   1.735   8.334  0.1533  0.0756  0.7052
  857MOL0     C15626   1.736   1.767   8.368  0.4398 -0.1014  0.8315
  857MOL0     C15627   1.749   1.881   8.463  0.4485  0.0838  0.5909
  857MOL0     H15628   2.171   1.474   8.447  2.8702 -2.7579  1.0802
  857MOL0     H15629   2.414   1.478   8.500 -3.3474 -0.7455  1.3359
  857MOL0     H15630   2.592   1.368   8.378  1.6452 -0.1821  1.7798
  857MOL0     H15631   2.700   1.424   8.247  1.8033 -0.0795  1.5214
  857MOL0     H15632   2.760   1.371   8.512  0.0890 -0.3810 -0.7961
  857MOL0     H15633   2.778   1.546   8.493 -1.7280  1.0043 -1.5078
  857MOL0     H15634   2.905   1.333   8.316 -4.5631  0.7542 -0.5662
  857MOL0     H15635   2.985   1.419   8.447 -1.0549 -1.5793  0.5620
  857MOL0     H15636   2.865   1.579   8.223 -0.2595  2.5767  1.1552
  857MOL0     H15637   2.961   1.631   8.364  0.5165 -1.1783  0.1130
  857MOL0     H15638   3.159   1.502   8.277  0.9733  0.6365 -0.2116
  857MOL0     H15639   3.059   1.445   8.145  1.8525 -0.6654  1.8994
  857MOL0     H15640   3.020   1.693   8.082 -0.5352  1.1534  1.4615
  857MOL0     H15641   3.153   1.735   8.182  0.2604 -0.4827 -0.7380
  857MOL0     H15642   3.167   1.598   7.933  0.3265 -0.4489  0.8762
  857MOL0     H15643   3.266   1.521   8.047 -2.4127 -1.6490 -0.5900
  857MOL0     H15644   3.282   1.821   8.000 -0.2714  0.1426 -2.6628
  857MOL0     H15645   3.377   1.734   8.114  0.9327  0.7004 -0.4880
  857MOL0     H15646   3.579   1.604   8.036  2.1943  1.1587 -0.1413
  857MOL0     H15647   3.749   1.488   7.880  1.9564  0.2326 -0.3009
  857MOL0     H15648   3.710   1.470   7.707  0.8985  0.8827 -0.4673
  857MOL0     H15649   3.928   1.560   7.743 -0.8407 -0.5173 -1.4632
  857MOL0     H15650   3.824   1.684   7.670 -1.9690  1.7665  0.7311
  857MOL0     H15651   3.924   1.659   7.971  1.0396  1.9673  1.1000
  857MOL0     H15652   3.814   1.788   7.912  0.8577 -0.0313  2.3727
  857MOL0     H15653   4.017   1.861   7.926 -3.2811  1.2891 -1.4841
  857MOL0     H15654   3.987   1.853   7.754 -1.7262 -0.7548 -0.2232
  857MOL0     H15655   4.343   1.580   7.845  0.4873 -1.1493  0.9972
  857MOL0     H15656   4.576   1.656   7.900 -1.5357 -0.3783 -2.2529
  857MOL0     H15657   4.674   2.086   8.275 -1.6743 -1.2177 -2.3657
  857MOL0     H15658   4.892   2.115   8.386 -1.4014  1.1697  0.0491
  857MOL0     H15659   5.252   2.079   8.167  0.3124 -0.1190  0.9051
  857MOL0     H15660   5.235   2.258   8.134  0.1089 -0.5252 -1.3451
  857MOL0     H15661   5.443   2.240   8.261 -0.7248  2.1403  1.2780
  857MOL0     H15662   5.322   2.269   8.385  0.6465 -1.5213  1.2872
  857MOL0     H15663   5.304   2.030   8.455  0.5296  2.1634  3.8685
  857MOL0     H15664   5.433   1.988   8.347 -1.7351 -1.6174  2.3381
  857MOL0     H15665   5.473   2.216   8.545 -0.0481 -1.1433  1.6866
  857MOL0     H15666   5.597   2.132   8.449  0.8191 -2.4384 -0.2243
  857MOL0     H15667   5.427   1.989   8.675  0.4805 -1.6754  0.3720
  857MOL0     H15668   5.593   2.048   8.700  2.2628 -3.0395 -0.9269
  857MOL0     H15669   5.508   1.844   8.495  0.4356  1.3315 -0.9479
  857MOL0     H15670   5.679   1.898   8.534  0.2634  0.1051 -1.3023
  857MOL0     H15671   5.482   1.760   8.703 -1.2683  1.6964 -2.4815
  857MOL0     H15672   5.655   1.790   8.754 -0.8647  0.1029  0.4150
  857MOL0     H15673   5.602   1.545   8.673  0.4490  1.0256  0.7947
  857MOL0     H15674   5.589   1.619   8.516 -1.1950 -0.7698  0.5213
  857MOL0     H15675   5.078   2.205   8.019 -0.0740  0.9918  0.6097
  857MOL0     H15676   4.873   2.117   7.891 -0.1141  0.5496  0.3524
  857MOL0     H15677   4.409   2.043   8.015  1.8465 -0.4816  0.0887
  857MOL0     H15678   4.192   1.955   7.958 -1.4625 -0.4115 -1.9337
  857MOL0     H15679   2.484   1.702   8.136 -2.0401  0.3906 -1.7428
  857MOL0     H15680   2.234   1.729   8.116 -1.6617 -0.5100 -0.0411
  857MOL0     H15681   1.859   1.530   8.146 -2.5055 -1.1843 -2.4098
  857MOL0     H15682   1.639   1.446   8.171 -2.3485 -0.5339  0.8609
  857MOL0     H15683   1.268   1.555   8.137  0.4226  0.0314 -0.2790
  857MOL0     H15684   1.402   1.561   8.036 -0.8050  0.9896 -1.0145
  857MOL0     H15685   1.284   1.777   8.005 -1.6961  2.5836  1.2749
  857MOL0     H15686   1.429   1.808   8.090 -0.0068 -0.5672 -1.7730
  857MOL0     H15687   1.292   1.804   8.310  2.7916  4.7043 -0.0658
  857MOL0     H15688   1.145   1.775   8.219  0.9999 -1.3594 -0.2606
  857MOL0     H15689   1.201   2.000   8.103 -2.0125  0.5324  0.3161
  857MOL0     H15690   1.133   2.001   8.265 -2.5064  0.4777 -2.8062
  857MOL0     H15691   1.528   2.172   8.247 -0.8985  1.7890  1.7879
  857MOL0     H15692   1.523   1.793   8.382 -0.7765  0.0773 -0.7617
  857MOL0     H15693   1.678   1.960   8.435  0.6365  1.0481  2.6357
  857MOL0     H15694   1.726   1.840   8.562 -2.5495 -3.0443 -1.2177
  857MOL0     H15695   1.849   1.926   8.461  0.9150 -0.5843  3.6425
  858MOL0     O15696   1.713   5.265   4.801 -0.3611  0.9241 -0.1977
  858MOL0     C15697   1.677   5.323   4.698  0.3380  0.3820 -0.3014
  858MOL0     O15698   1.760   5.359   4.592  0.2444  0.3104  0.2357
  858MOL0     C15699   1.896   5.332   4.602  0.4865 -0.4519 -1.1550
  858MOL0     C15700   1.970   5.441   4.554 -0.5857 -0.2637 -0.3991
  858MOL0     C15701   2.110   5.424   4.532  0.2065  0.1770 -0.5162
  858MOL0     C15702   2.175   5.301   4.580 -0.4878 -0.3370  0.0940
  858MOL0     O15703   2.316   5.297   4.589  0.2331 -0.1569  0.9441
  858MOL0     C15704   2.396   5.363   4.487 -0.5358 -0.0848  0.0937
  858MOL0     C15705   2.535   5.323   4.491  0.3111  0.5498  0.4487
  858MOL0     C15706   2.549   5.173   4.470  0.2646  0.3078  0.3020
  858MOL0     C15707   2.689   5.122   4.480 -0.1121 -0.2123  0.0029
  858MOL0     C15708   2.712   4.966   4.452  0.0740  0.0359 -0.5125
  858MOL0     C15709   2.864   4.947   4.469  0.6304  0.0715 -1.0366
  858MOL0     C15710   2.899   4.796   4.464 -0.2479 -0.7457 -0.3605
  858MOL0     C15711   2.857   4.726   4.589 -0.2471  0.3456 -0.7606
  858MOL0     N15712   2.957   4.760   4.687 -0.2784 -0.7416  0.1210
  858MOL0     C15713   3.088   4.709   4.693 -0.3544 -0.7820 -0.0145
  858MOL0     C15714   3.148   4.786   4.788  0.3597 -0.5594 -0.1548
  858MOL0     C15715   3.287   4.776   4.844 -0.1224 -0.7007 -0.0050
  858MOL0     C15716   3.354   4.639   4.832 -1.0436  0.3447 -0.5017
  858MOL0     C15717   3.296   4.539   4.924  0.0397 -0.0322 -0.2976
  858MOL0     C15718   3.371   4.412   4.929 -0.1607 -0.3454  0.1963
  858MOL0     O15719   3.500   4.446   4.978  0.3528  0.4469 -0.6269
  858MOL0     C15720   3.600   4.348   4.964  0.1893 -0.3673  0.1121
  858MOL0     C15721   3.593   4.211   4.961 -0.2648 -0.2192  0.8786
  858MOL0     C15722   3.705   4.138   4.954 -0.5566 -0.0518 -0.1212
  858MOL0     C15723   3.830   4.205   4.933  0.5698 -0.4103  0.1725
  858MOL0     C15724   3.952   4.125   4.927 -0.8435  0.7371  0.2654
  858MOL0     O15725   4.067   4.175   4.875  0.2239  0.3313 -0.2836
  858MOL0     C15726   4.189   4.116   4.861  0.3007 -0.4095 -0.2739
  858MOL0     C15727   4.229   3.985   4.896  0.7366 -0.1074  0.9172
  858MOL0     C15728   4.352   3.935   4.867  0.6089  0.1070 -0.5652
  858MOL0     C15729   4.454   4.012   4.807  0.1925 -0.1005  0.8667
  858MOL0     O15730   4.570   3.949   4.768  0.6889 -0.2251 -0.4333
  858MOL0     C15731   4.687   4.028   4.738  0.1163 -0.2039 -0.3983
  858MOL0     C15732   4.810   3.938   4.717  0.3286 -0.2776 -0.5436
  858MOL0     C15733   4.936   4.017   4.698 -0.2223  0.0718 -0.3528
  858MOL0     C15734   5.053   3.915   4.711  0.3289  0.3050  0.5321
  858MOL0     C15735   5.189   3.971   4.708  0.7228  0.5095 -0.2645
  858MOL0     C15736   5.285   3.850   4.733 -0.1157 -0.4257  0.1125
  858MOL0     C15737   5.434   3.889   4.706  0.1171  0.3546  0.1059
  858MOL0     C15738   5.520   3.773   4.765 -0.2997 -0.3765 -0.7556
  858MOL0    Cl15739   5.530   3.813   4.945  0.1135  0.1903 -0.0530
  858MOL0     C15740   4.417   4.150   4.778  0.0039 -0.7828 -0.1258
  858MOL0     C15741   4.289   4.196   4.798  0.3859  0.0114  0.1800
  858MOL0     O15742   3.935   4.003   4.952 -0.1454  0.1629  0.3989
  858MOL0     C15743   3.835   4.341   4.925 -0.2260 -0.0977  0.1970
  858MOL0     C15744   3.716   4.413   4.937 -0.4463  0.3834  0.4526
  858MOL0     N15745   3.060   4.883   4.831  0.2393  0.3728  0.8906
  858MOL0     N15746   2.945   4.860   4.779  0.3916 -0.5374 -0.1903
  858MOL0     C15747   2.099   5.204   4.643 -0.6403  0.0112 -0.1239
  858MOL0     C15748   1.959   5.210   4.644  0.7591 -0.3801  0.4750
  858MOL0     C15749   1.537   5.356   4.688  0.0355  0.9078 -0.0047
  858MOL0     C15750   1.441   5.253   4.694  0.3375  0.0276  0.5388
  858MOL0     C15751   1.307   5.276   4.665 -0.2266 -0.2744  0.0067
  858MOL0     C15752   1.262   5.408   4.652 -0.0793  1.6279 -0.3187
  858MOL0     O15753   1.128   5.420   4.647 -0.0121  0.1281  0.7373
  858MOL0     C15754   1.077   5.537   4.586 -0.2749  0.3274  0.0134
  858MOL0     C15755   0.921   5.532   4.561 -1.1972  0.6047  0.2201
  858MOL0     C15756   0.895   5.442   4.448  0.2299  0.3024 -0.4282
  858MOL0     C15757   0.744   5.448   4.406 -0.9482 -0.4565  0.1902
  858MOL0     C15758   0.688   5.314   4.433  0.9665 -1.0301 -0.8125
  858MOL0     C15759   0.641   5.204   4.455 -0.1780  0.2401 -0.3586
  858MOL0     C15760   1.350   5.513   4.649 -0.9664 -0.3017 -0.0769
  858MOL0     C15761   1.492   5.486   4.663  0.0408 -0.3658  0.5366
  858MOL0     C15762   1.587   5.603   4.646 -0.0415 -0.2239  0.5377
  858MOL0     H15763   1.915   5.532   4.532 -1.3881 -0.5883  0.1989
  858MOL0     H15764   2.164   5.509   4.491  0.0199  0.6454  0.1849
  858MOL0     H15765   2.359   5.348   4.385  0.1876  0.8110 -0.3163
  858MOL0     H15766   2.393   5.468   4.519 -0.5055 -0.6179  1.9742
  858MOL0     H15767   2.571   5.357   4.589 -2.4017 -1.1960  2.1999
  858MOL0     H15768   2.589   5.370   4.409 -2.5601 -0.4134 -2.1735
  858MOL0     H15769   2.506   5.150   4.372 -0.9983  0.3317  0.8315
  858MOL0     H15770   2.486   5.120   4.542  2.8001 -1.2805  1.4798
  858MOL0     H15771   2.753   5.167   4.403 -2.3773 -1.5464 -2.8163
  858MOL0     H15772   2.735   5.137   4.579  2.3958 -0.0894 -1.0922
  858MOL0     H15773   2.655   4.904   4.522  0.8398  1.0139  1.0230
  858MOL0     H15774   2.674   4.945   4.352  0.0992  3.6243 -1.4115
  858MOL0     H15775   2.920   4.999   4.391 -0.0704  4.0515  0.8403
  858MOL0     H15776   2.903   4.996   4.559  0.9696 -3.1830  0.7311
  858MOL0     H15777   3.004   4.788   4.435 -0.4355  0.6402 -1.5315
  858MOL0     H15778   2.839   4.759   4.380 -0.9681  2.5860 -1.4705
  858MOL0     H15779   2.753   4.736   4.621  0.1368 -0.0204  0.6622
  858MOL0     H15780   2.865   4.618   4.574  0.6244  0.2659  0.1605
  858MOL0     H15781   3.132   4.638   4.625  1.3160 -1.9466  2.1336
  858MOL0     H15782   3.334   4.849   4.778 -2.6383 -0.3856 -1.6192
  858MOL0     H15783   3.300   4.819   4.944  1.5659 -1.3447  0.0735
  858MOL0     H15784   3.324   4.604   4.732 -1.1129 -1.8026  0.2232
  858MOL0     H15785   3.462   4.643   4.849 -1.0657 -1.5996  0.3578
  858MOL0     H15786   3.191   4.511   4.911 -0.3703 -0.5489  3.1843
  858MOL0     H15787   3.294   4.590   5.021 -1.4450  1.4797 -1.0591
  858MOL0     H15788   3.374   4.365   4.830  0.1034 -3.4033  1.5544
  858MOL0     H15789   3.319   4.342   4.994 -1.3732  0.4664  0.1298
  858MOL0     H15790   3.499   4.158   4.974 -1.0134  0.7864 -0.1704
  858MOL0     H15791   3.699   4.031   4.970  2.7994 -0.0240  2.4769
  858MOL0     H15792   4.163   3.913   4.945 -1.2623  0.7914 -0.3220
  858MOL0     H15793   4.380   3.835   4.901  0.7048  1.0623  2.4958
  858MOL0     H15794   4.666   4.091   4.651  1.0765  1.3391  0.4336
  858MOL0     H15795   4.715   4.095   4.819  3.3166  0.7524 -2.1375
  858MOL0     H15796   4.821   3.873   4.803 -0.8870 -1.5366 -1.2999
  858MOL0     H15797   4.799   3.876   4.627  0.6992  1.0721 -1.5565
  858MOL0     H15798   4.933   4.070   4.602 -1.8652  0.6092 -0.0342
  858MOL0     H15799   4.943   4.092   4.777 -0.8993  0.7438 -0.9177
  858MOL0     H15800   5.037   3.849   4.626 -0.4582 -0.8311  1.5319
  858MOL0     H15801   5.034   3.862   4.805  0.9741 -1.7890 -0.4645
  858MOL0     H15802   5.209   4.052   4.779 -0.5254 -0.0682  0.8009
  858MOL0     H15803   5.201   4.019   4.611 -0.2442  0.1894 -0.5542
  858MOL0     H15804   5.285   3.814   4.836  0.5275  2.3792  1.1865
  858MOL0     H15805   5.272   3.767   4.663  1.8160 -1.3971  0.8299
  858MOL0     H15806   5.468   3.984   4.748  4.0190 -0.9769  0.3312
  858MOL0     H15807   5.447   3.894   4.597 -0.2108  0.8401  0.0827
  858MOL0     H15808   5.471   3.677   4.747 -1.9960  0.4339 -0.7533
  858MOL0     H15809   5.623   3.770   4.728 -0.3340  2.8975 -1.4890
  858MOL0     H15810   4.474   4.211   4.709  0.1369  0.2342  0.8668
  858MOL0     H15811   4.255   4.287   4.750 -1.6477 -2.3995 -3.4469
  858MOL0     H15812   3.924   4.403   4.916 -0.1925 -0.0269  0.9655
  858MOL0     H15813   3.718   4.521   4.936  2.7179  0.5121 -2.9726
  858MOL0     H15814   2.147   5.120   4.692 -1.3637 -0.0515  0.5024
  858MOL0     H15815   1.888   5.141   4.689 -0.1297 -1.1173 -1.8977
  858MOL0     H15816   1.472   5.150   4.712  0.8042 -0.6658 -3.3796
  858MOL0     H15817   1.241   5.194   4.643 -1.6805  0.7867  0.2945
  858MOL0     H15818   1.128   5.559   4.492  1.6254 -0.0406  0.9027
  858MOL0     H15819   1.100   5.625   4.647  2.0294  0.2124 -0.5907
  858MOL0     H15820   0.890   5.633   4.533 -1.6481  0.5443  0.4920
  858MOL0     H15821   0.864   5.493   4.646 -1.0644 -1.0774 -0.4289
  858MOL0     H15822   0.939   5.348   4.480  1.2281  0.2443 -1.8697
  858MOL0     H15823   0.955   5.479   4.364 -1.7480  1.5415 -1.3880
  858MOL0     H15824   0.684   5.528   4.450 -0.1466  0.3828 -0.2057
  858MOL0     H15825   0.745   5.465   4.298  0.7547  0.0718  0.2718
  858MOL0     H15826   0.601   5.108   4.481  2.0773 -0.8619 -0.6528
  858MOL0     H15827   1.315   5.613   4.627 -0.4302 -0.2810 -0.8732
  858MOL0     H15828   1.534   5.698   4.660  0.1370 -0.1578  0.7828
  858MOL0     H15829   1.656   5.603   4.731 -1.6876  1.9378  1.9751
  858MOL0     H15830   1.618   5.592   4.542 -0.0773 -0.1379  0.5184
  859MOL0     O15831   5.260   7.098  10.029 -0.0401  0.4901  0.5111
  859MOL0     C15832   5.210   6.988  10.002 -0.8731  0.0729 -0.5057
  859MOL0     O15833   5.275   6.866  10.017 -0.6563 -0.2554  0.3719
  859MOL0     C15834   5.409   6.860  10.062 -0.0676 -0.5529  0.1016
  859MOL0     C15835   5.514   6.944  10.006 -0.0294  0.5329 -0.7535
  859MOL0     C15836   5.640   6.936  10.061  0.2415  0.9778 -0.1420
  859MOL0     C15837   5.669   6.842  10.166  0.1205  0.0863  0.1028
  859MOL0     O15838   5.790   6.840  10.237  1.4829  0.5378 -0.4267
  859MOL0     C15839   5.909   6.905  10.196 -0.2516  0.1590 -0.9367
  859MOL0     C15840   6.022   6.843  10.276 -0.6059  0.1100  0.2878
  859MOL0     C15841   6.153   6.900  10.228  0.2021  0.0350  0.5861
  859MOL0     C15842   6.257   6.795  10.283  1.4043  0.0535  0.1476
  859MOL0     C15843   6.400   6.841  10.258  0.1108  0.4565 -0.8317
  859MOL0     C15844   6.488   6.714  10.289  0.4345 -0.3196 -0.2288
  859MOL0     C15845   6.622   6.722  10.221  0.0124 -0.5192  0.9737
  859MOL0     C15846   6.731   6.800  10.302  0.1312  0.2917  0.4912
  859MOL0     N15847   6.843   6.823  10.211 -1.2528 -0.2195 -0.0682
  859MOL0     C15848   6.948   6.739  10.175 -0.2382 -0.4300 -0.4231
  859MOL0     C15849   6.999   6.794  10.070 -0.4978  0.5630  0.1061
  859MOL0     C15850   7.100   6.725   9.980  0.0378  0.1674 -0.2270
  859MOL0     C15851   7.035   6.616   9.889 -0.0897  0.0389 -0.8336
  859MOL0     C15852   7.141   6.536   9.803 -0.0127 -0.2021 -0.5905
  859MOL0     C15853   7.236   6.444   9.865  0.7560  0.1844  0.0254
  859MOL0     O15854   7.321   6.381   9.767  0.6279  0.7914 -0.1337
  859MOL0     C15855   7.441   6.323   9.814 -0.3229  0.3074 -0.7571
  859MOL0     C15856   7.474   6.288   9.953 -0.0905 -0.1330  0.1599
  859MOL0     C15857   7.596   6.221   9.979  0.1256  0.0812 -0.4282
  859MOL0     C15858   7.694   6.187   9.884 -0.0216  0.9998 -0.2451
  859MOL0     C15859   7.811   6.111   9.918 -0.5121 -0.1376 -1.2677
  859MOL0     O15860   7.907   6.103   9.826  0.1942 -0.4456  0.2500
  859MOL0     C15861   8.016   6.018   9.840 -0.3100 -0.4811 -0.1123
  859MOL0     C15862   8.140   6.053   9.797 -0.1464  0.3931 -0.6495
  859MOL0     C15863   8.251   5.965   9.790  0.8508  0.8030 -0.3735
  859MOL0     C15864   8.240   5.834   9.845  0.2235 -0.4122  0.3362
  859MOL0     O15865   8.338   5.746   9.829 -0.7363  0.4017  0.0922
  859MOL0     C15866   8.325   5.606   9.845  0.3019  0.2898  0.5051
  859MOL0     C15867   8.439   5.536   9.767  0.0652 -0.3581  0.4150
  859MOL0     C15868   8.453   5.394   9.792  0.0403 -0.2023  0.2231
  859MOL0     C15869   8.590   5.352   9.751 -0.1218 -0.0166  0.0489
  859MOL0     C15870   8.610   5.205   9.786 -0.1654 -0.1913 -0.3278
  859MOL0     C15871   8.739   5.153   9.737 -0.2770  0.7691  0.3342
  859MOL0     C15872   8.756   5.000   9.785  0.3594  0.3889 -0.5752
  859MOL0     C15873   8.868   4.927   9.708 -0.7297 -0.4601  0.6536
  859MOL0    Cl15874   8.837   4.864   9.543 -0.6386  0.3605  0.2428
  859MOL0     C15875   8.117   5.797   9.906  0.1319 -0.2549 -0.4386
  859MOL0     C15876   8.009   5.890   9.905  0.0280  0.3609  0.0201
  859MOL0     O15877   7.827   6.072  10.034 -0.1499  0.3380 -0.1379
  859MOL0     C15878   7.667   6.218   9.752  0.1485  0.1084 -0.2937
  859MOL0     C15879   7.543   6.287   9.723 -0.7537  0.8459  1.0484
  859MOL0     N15880   6.936   6.910  10.037  0.0432 -0.3496 -0.3448
  859MOL0     N15881   6.850   6.931  10.126  0.1853 -0.3324  0.2728
  859MOL0     C15882   5.565   6.752  10.214  0.1932 -0.1946  0.2678
  859MOL0     C15883   5.437   6.765  10.161  0.5212  0.3664 -0.7432
  859MOL0     C15884   5.067   6.986   9.959  0.1594 -0.2054 -0.9175
  859MOL0     C15885   5.030   6.892   9.865 -0.5918 -0.2946 -0.4514
  859MOL0     C15886   4.897   6.861   9.851 -0.7897  0.0464 -0.4068
  859MOL0     C15887   4.803   6.948   9.910  0.6647 -0.7339  0.1089
  859MOL0     O15888   4.667   6.938   9.893  0.5053 -0.2185  0.2061
  859MOL0     C15889   4.609   6.862   9.790 -0.7184  0.1345 -0.2305
  859MOL0     C15890   4.466   6.906   9.777 -0.2006 -0.3360  0.0065
  859MOL0     C15891   4.395   6.865   9.642 -1.0717  0.1408 -0.5160
  859MOL0     C15892   4.323   6.973   9.561 -0.0222  0.1604 -0.3491
  859MOL0     C15893   4.192   7.001   9.612  0.1190  0.2670 -0.6742
  859MOL0     C15894   4.083   7.050   9.654  0.0265 -0.1576 -0.0741
  859MOL0     C15895   4.833   7.055   9.989 -0.0777 -0.0178 -0.5422
  859MOL0     C15896   4.966   7.074  10.015  0.2173 -0.2694  0.0955
  859MOL0     C15897   5.003   7.184  10.112 -0.6849  0.1706 -0.3155
  859MOL0     H15898   5.486   7.002   9.918  0.0752  0.9548 -0.5126
  859MOL0     H15899   5.715   7.005  10.023  0.1726 -0.3245 -2.8666
  859MOL0     H15900   5.928   6.896  10.089 -1.7932 -3.1653 -1.0356
  859MOL0     H15901   5.896   7.012  10.216 -0.7909 -0.3375  1.8793
  859MOL0     H15902   6.023   6.734  10.275 -1.2604  0.0326  2.3201
  859MOL0     H15903   6.003   6.875  10.379 -2.3332 -1.3079  0.4440
  859MOL0     H15904   6.163   7.000  10.271  1.4175  0.7129 -1.1238
  859MOL0     H15905   6.159   6.917  10.120  5.8157  2.4717  0.9002
  859MOL0     H15906   6.242   6.803  10.392 -2.0010  0.1367 -0.2049
  859MOL0     H15907   6.228   6.696  10.247  1.2318  0.4078 -0.6917
  859MOL0     H15908   6.409   6.867  10.152 -1.9903  1.5493 -0.7887
  859MOL0     H15909   6.419   6.934  10.312 -1.1902  0.1349  0.2326
  859MOL0     H15910   6.491   6.700  10.398  1.2298 -0.3366 -0.2455
  859MOL0     H15911   6.448   6.619  10.255  2.0938 -0.4004 -2.0957
  859MOL0     H15912   6.615   6.754  10.117  1.1578 -1.4486  0.5908
  859MOL0     H15913   6.666   6.623  10.204  1.2446  0.2229 -0.3713
  859MOL0     H15914   6.695   6.897  10.338  1.0508  1.5013 -1.6748
  859MOL0     H15915   6.758   6.732  10.384  0.1794  1.1550  1.2153
  859MOL0     H15916   6.971   6.644  10.222  0.6071 -0.2050 -0.3848
  859MOL0     H15917   7.173   6.787   9.927 -0.3669  1.1186  0.3243
  859MOL0     H15918   7.160   6.659  10.044 -2.9885 -1.1120  1.4793
  859MOL0     H15919   6.982   6.543   9.952  0.5447 -1.3467 -1.8710
  859MOL0     H15920   6.973   6.678   9.823  1.9211  2.3848 -0.6483
  859MOL0     H15921   7.197   6.621   9.763 -2.6687  2.8872  1.6681
  859MOL0     H15922   7.092   6.486   9.718  1.6516 -0.3012 -1.5270
  859MOL0     H15923   7.182   6.358   9.906 -0.1448  1.4403  1.5956
  859MOL0     H15924   7.287   6.493   9.949  0.2712  1.1298 -0.2182
  859MOL0     H15925   7.401   6.296  10.034 -1.4551 -2.9624 -0.6351
  859MOL0     H15926   7.608   6.202  10.085 -0.9343 -1.6457 -0.5771
  859MOL0     H15927   8.156   6.148   9.748  0.1905  0.3171 -0.6915
  859MOL0     H15928   8.343   5.985   9.735  1.0504  0.9300 -0.0006
  859MOL0     H15929   8.328   5.579   9.951 -0.7871  0.7615  0.6681
  859MOL0     H15930   8.231   5.573   9.800  0.9155  3.1185 -3.4069
  859MOL0     H15931   8.405   5.553   9.665 -0.5560 -1.0567  0.4961
  859MOL0     H15932   8.533   5.590   9.780 -0.1732  0.0758  0.3683
  859MOL0     H15933   8.438   5.368   9.897  0.9665  1.1038  0.7024
  859MOL0     H15934   8.385   5.325   9.741 -0.7990  0.1234  0.8814
  859MOL0     H15935   8.665   5.419   9.793 -0.3294 -1.1540  2.3747
  859MOL0     H15936   8.601   5.358   9.642 -0.8323  2.0010  0.0617
  859MOL0     H15937   8.526   5.149   9.745  1.0113 -2.1402 -0.2304
  859MOL0     H15938   8.598   5.195   9.895 -2.2742  1.4992 -0.3288
  859MOL0     H15939   8.755   5.166   9.630  0.5654  1.8201  0.5688
  859MOL0     H15940   8.832   5.198   9.775  0.8422  2.9422 -4.2924
  859MOL0     H15941   8.661   4.948   9.771  1.5592 -2.0349 -0.2960
  859MOL0     H15942   8.782   4.989   9.890  0.3019 -3.1703 -0.7935
  859MOL0     H15943   8.956   4.992   9.703 -0.5847 -0.2308  4.0625
  859MOL0     H15944   8.898   4.833   9.755  0.4372 -0.7973 -0.6762
  859MOL0     H15945   8.088   5.708   9.961 -2.0513 -0.2446 -1.4383
  859MOL0     H15946   7.913   5.865   9.949 -0.4202  0.5367 -0.8314
  859MOL0     H15947   7.733   6.190   9.670  0.4984  1.5697 -0.5582
  859MOL0     H15948   7.539   6.315   9.618  1.6920 -1.5292  0.1847
  859MOL0     H15949   5.581   6.686  10.299 -1.5957 -1.5898 -0.4316
  859MOL0     H15950   5.355   6.706  10.201 -0.6635  3.3315  1.5971
  859MOL0     H15951   5.103   6.829   9.816 -0.6943 -2.0673  1.5496
  859MOL0     H15952   4.872   6.778   9.785  0.5430  0.0835 -0.9834
  859MOL0     H15953   4.605   6.757   9.819  0.4594  0.3115  0.6701
  859MOL0     H15954   4.665   6.877   9.697  1.8151 -1.1729  0.9959
  859MOL0     H15955   4.456   7.015   9.775  0.5358 -0.2721 -0.2389
  859MOL0     H15956   4.411   6.873   9.866 -0.0988  1.0835  0.6322
  859MOL0     H15957   4.328   6.785   9.673 -0.1001  0.0081  1.3872
  859MOL0     H15958   4.472   6.819   9.579  1.6892  4.0535 -0.3551
  859MOL0     H15959   4.387   7.061   9.574 -1.9076  1.2002  3.5697
  859MOL0     H15960   4.306   6.933   9.461 -1.5735 -3.3961  1.1571
  859MOL0     H15961   3.997   7.105   9.685 -0.6571 -2.3396  2.1479
  859MOL0     H15962   4.760   7.119  10.039  1.1788  0.4091  0.7977
  859MOL0     H15963   5.076   7.146  10.185 -1.7364 -0.4282  0.4423
  859MOL0     H15964   5.049   7.275  10.072 -0.5231 -0.2947 -1.2362
  859MOL0     H15965   4.915   7.214  10.169 -0.2286 -2.7164  2.1789
  860MOL0     O15966   0.791  10.028  11.115  0.3515 -0.1657  0.2056
  860MOL0     C15967   0.697   9.955  11.085 -0.1170  0.0966  0.2455
  860MOL0     O15968   0.683   9.821  11.102 -0.2662 -0.1673 -0.0122
  860MOL0     C15969   0.797   9.740  11.116  0.2986  0.3054 -0.1762
  860MOL0     C15970   0.785   9.609  11.057 -0.0643  0.0046 -0.4602
  860MOL0     C15971   0.887   9.506  11.073  0.2363  0.2427 -0.1428
  860MOL0     C15972   1.003   9.548  11.143 -0.8674 -0.0380  0.8809
  860MOL0     O15973   1.106   9.461  11.161 -0.2958 -0.0555 -0.0101
  860MOL0     C15974   1.084   9.314  11.155  0.1251 -1.0509 -0.2529
  860MOL0     C15975   1.219   9.252  11.196  0.4606 -0.2121  0.5407
  860MOL0     C15976   1.220   9.101  11.220 -0.1343  1.2138 -0.6283
  860MOL0     C15977   1.354   9.050  11.275 -0.1295 -0.1963 -0.9055
  860MOL0     C15978   1.360   8.896  11.293  0.5244  0.1577 -0.0331
  860MOL0     C15979   1.509   8.866  11.329  0.5394 -0.6086  0.0159
  860MOL0     C15980   1.539   8.910  11.473 -0.6769  1.2477  0.0937
  860MOL0     C15981   1.614   8.789  11.545  0.1462  0.6960 -0.4227
  860MOL0     N15982   1.533   8.669  11.549 -0.8317 -0.2371 -0.3235
  860MOL0     C15983   1.412   8.650  11.617  1.2064  0.5986 -0.1087
  860MOL0     C15984   1.385   8.513  11.595  0.0688 -0.3474  1.5458
  860MOL0     C15985   1.272   8.436  11.650  0.0606  0.1451 -0.4507
  860MOL0     C15986   1.249   8.461  11.797 -0.4128  0.2544  0.0836
  860MOL0     C15987   1.365   8.420  11.892 -0.4788 -0.2633 -0.2615
  860MOL0     C15988   1.356   8.274  11.951  0.0807  0.1165 -0.3306
  860MOL0     O15989   1.420   8.275  12.078 -0.4522 -0.3731 -0.2154
  860MOL0     C15990   1.557   8.260  12.083 -0.4403  0.1396 -0.3995
  860MOL0     C15991   1.643   8.250  11.975  0.2517 -1.2073  0.1399
  860MOL0     C15992   1.785   8.263  12.002  0.6157  0.5124 -0.9231
  860MOL0     C15993   1.833   8.254  12.136  0.3187 -0.3772  0.3886
  860MOL0     C15994   1.976   8.256  12.144 -0.2703  0.1953  0.4272
  860MOL0     O15995   2.033   8.225  12.259 -0.5423 -0.0538  0.2140
  860MOL0     C15996   2.169   8.255  12.285  0.2744  0.6967  0.3471
  860MOL0     C15997   2.234   8.172  12.380  1.0669 -0.0030  0.2292
  860MOL0     C15998   2.367   8.185  12.402 -0.1520 -1.2288 -0.1288
  860MOL0     C15999   2.441   8.305  12.360  0.1421 -0.7734  0.3286
  860MOL0     O16000   2.567   8.335  12.403 -0.0725 -0.4971 -0.0286
  860MOL0     C16001   2.633   8.237  12.480 -0.8139  0.0445 -0.2165
  860MOL0     C16002   2.743   8.301  12.556 -0.0330 -0.6606  0.5865
  860MOL0     C16003   2.865   8.337  12.473  0.0035 -0.2203 -0.4494
  860MOL0     C16004   2.939   8.225  12.415  1.1284 -0.2809 -0.5028
  860MOL0     C16005   3.080   8.257  12.375  0.3800  0.2098 -0.1225
  860MOL0     C16006   3.187   8.302  12.484  0.0321  0.7984  0.1516
  860MOL0     C16007   3.330   8.337  12.432 -0.1893 -0.0656 -0.1322
  860MOL0     C16008   3.415   8.216  12.415 -0.4500 -0.0480  0.6808
  860MOL0    Cl16009   3.496   8.186  12.576 -0.0662  0.2213 -0.0760
  860MOL0     C16010   2.374   8.395  12.273  0.2811 -0.2503  0.1256
  860MOL0     C16011   2.238   8.370  12.236 -0.0342 -0.5230  0.3514
  860MOL0     O16012   2.038   8.302  12.049  0.1482 -0.5272  0.1462
  860MOL0     C16013   1.742   8.244  12.247  0.9480  0.3164 -0.4567
  860MOL0     C16014   1.604   8.268  12.218 -0.1640 -0.2743  1.1619
  860MOL0     N16015   1.480   8.472  11.511  0.3930  0.7158  0.8997
  860MOL0     N16016   1.573   8.557  11.492 -0.1239 -0.2600  0.7098
  860MOL0     C16017   1.011   9.668  11.210  0.1503 -0.4832 -0.5172
  860MOL0     C16018   0.906   9.764  11.199  0.2642 -0.3044 -0.0028
  860MOL0     C16019   0.573  10.020  11.030 -0.0142  0.3404  0.0138
  860MOL0     C16020   0.499   9.952  10.937 -0.2469 -0.0989  0.1084
  860MOL0     C16021   0.382   9.998  10.890  0.2855  0.4956  1.0837
  860MOL0     C16022   0.326  10.115  10.941 -0.1766  0.0015  0.5433
  860MOL0     O16023   0.212  10.167  10.892 -0.1745 -0.0906 -0.0972
  860MOL0     C16024   0.141  10.102  10.786 -0.0259  0.0007 -0.0496
  860MOL0     C16025   0.054   9.986  10.834  0.6822 -0.0791 -0.1828
  860MOL0     C16026  -0.014  10.021  10.970 -0.0802 -0.5445  0.5839
  860MOL0     C16027  -0.008   9.888  11.058  0.6857 -0.3667 -0.4537
  860MOL0     C16028   0.127   9.868  11.101  0.3764 -0.8150  0.0166
  860MOL0     C16029   0.231   9.835  11.144 -0.4359 -0.7376 -0.0207
  860MOL0     C16030   0.387  10.176  11.040 -0.5134  0.2892 -0.1019
  860MOL0     C16031   0.521  10.142  11.083  0.1508  0.7230  1.2301
  860MOL0     C16032   0.609  10.226  11.170  0.4646 -1.2247  0.1354
  860MOL0     H16033   0.694   9.602  10.999 -1.8523  2.5383  1.8305
  860MOL0     H16034   0.874   9.405  11.035  0.9785  0.4960 -1.1075
  860MOL0     H16035   1.007   9.278  11.224 -1.2447  0.1370 -1.1076
  860MOL0     H16036   1.062   9.300  11.049 -0.6526  1.4683 -0.4865
  860MOL0     H16037   1.261   9.303  11.283  0.2214  3.4253 -1.2598
  860MOL0     H16038   1.292   9.287  11.123 -0.3386  1.0608  0.3194
  860MOL0     H16039   1.204   9.056  11.122  0.1591  1.2315 -0.6844
  860MOL0     H16040   1.142   9.066  11.289  0.8276 -1.2721 -0.6883
  860MOL0     H16041   1.438   9.098  11.225 -0.9232  3.1355  0.6718
  860MOL0     H16042   1.373   9.090  11.375  0.2281  0.5588 -1.2696
  860MOL0     H16043   1.288   8.865  11.370 -0.9790  1.2837 -0.9297
  860MOL0     H16044   1.336   8.847  11.198 -0.5202  2.9259 -1.2779
  860MOL0     H16045   1.525   8.759  11.309  0.7631 -0.2382 -2.0923
  860MOL0     H16046   1.577   8.924  11.265  0.2756  0.7182  0.9094
  860MOL0     H16047   1.449   8.944  11.526 -1.1232 -1.3433  1.1751
  860MOL0     H16048   1.617   8.987  11.469  2.1863 -1.4613 -3.7273
  860MOL0     H16049   1.713   8.775  11.501  1.3508  3.5723  1.0860
  860MOL0     H16050   1.636   8.820  11.648  1.4127  0.9406 -0.7414
  860MOL0     H16051   1.359   8.723  11.678 -0.4228  0.9464 -1.8293
  860MOL0     H16052   1.180   8.467  11.599 -0.3555 -0.4748 -0.0867
  860MOL0     H16053   1.295   8.331  11.632  1.1927  0.3482 -0.2776
  860MOL0     H16054   1.224   8.567  11.812 -0.8768 -0.1832  3.0600
  860MOL0     H16055   1.163   8.404  11.833  0.8359 -1.2728  0.7655
  860MOL0     H16056   1.368   8.485  11.980  2.4511 -0.2741 -0.2532
  860MOL0     H16057   1.461   8.429  11.841 -0.3766 -0.9647 -0.2025
  860MOL0     H16058   1.394   8.205  11.876 -0.0340  1.4522 -1.6714
  860MOL0     H16059   1.251   8.243  11.958 -0.2262  0.8200 -1.6418
  860MOL0     H16060   1.612   8.246  11.871 -1.0137 -0.7581  0.4883
  860MOL0     H16061   1.847   8.271  11.913 -2.7629 -1.4432 -3.6917
  860MOL0     H16062   2.169   8.093  12.418 -0.6128 -0.2128 -2.7200
  860MOL0     H16063   2.399   8.119  12.481  1.1088  1.2829  1.6037
  860MOL0     H16064   2.558   8.202  12.551 -0.8318  0.2004 -0.1565
  860MOL0     H16065   2.671   8.154  12.420  1.5706 -0.5300  1.9092
  860MOL0     H16066   2.693   8.388  12.599 -1.2085  0.3145 -2.4759
  860MOL0     H16067   2.781   8.229  12.629  0.3686 -0.6759  0.3662
  860MOL0     H16068   2.826   8.398  12.391 -2.0502 -0.7307  0.0709
  860MOL0     H16069   2.931   8.401  12.532 -1.0023  0.7003 -0.2799
  860MOL0     H16070   2.881   8.184  12.332 -3.3865  2.8643  0.7749
  860MOL0     H16071   2.945   8.155  12.499  1.7394 -1.0473 -1.1658
  860MOL0     H16072   3.065   8.340  12.305 -1.1424  0.1356  0.0857
  860MOL0     H16073   3.107   8.168  12.317 -0.2151 -1.8368  2.5176
  860MOL0     H16074   3.161   8.386  12.548 -1.7042  0.7311 -0.4199
  860MOL0     H16075   3.205   8.216  12.549  0.6843 -1.1502 -2.4326
  860MOL0     H16076   3.390   8.410  12.487  0.3446 -3.3176  4.2453
  860MOL0     H16077   3.307   8.378  12.334 -3.0323 -0.7766  0.1430
  860MOL0     H16078   3.353   8.133  12.382 -2.7159  1.0931  1.8421
  860MOL0     H16079   3.498   8.236  12.347  1.3201 -0.9183  2.4612
  860MOL0     H16080   2.433   8.477  12.233  1.2403  0.7437  3.2714
  860MOL0     H16081   2.183   8.447  12.182  3.0942  1.7181  0.0943
  860MOL0     H16082   1.769   8.246  12.352  1.1052 -1.7086 -0.4070
  860MOL0     H16083   1.527   8.274  12.294  1.1123 -2.3843  2.7241
  860MOL0     H16084   1.084   9.706  11.280 -3.3563  1.3040  2.4958
  860MOL0     H16085   0.919   9.856  11.255 -0.7567  0.5981 -1.2012
  860MOL0     H16086   0.540   9.859  10.898  1.3476 -1.4215  4.3713
  860MOL0     H16087   0.330   9.947  10.809  2.4308  0.9220 -0.6644
  860MOL0     H16088   0.210  10.074  10.706  0.7659 -0.6541  0.8229
  860MOL0     H16089   0.078  10.179  10.741 -0.7763 -0.5975 -0.0342
  860MOL0     H16090   0.125   9.904  10.837  1.7939  0.8872  1.2568
  860MOL0     H16091  -0.028   9.960  10.767  1.4247 -2.5448 -0.2191
  860MOL0     H16092  -0.119  10.048  10.955  0.5123  1.2808 -0.6878
  860MOL0     H16093   0.031  10.102  11.028  0.4404 -1.4093  1.4240
  860MOL0     H16094  -0.087   9.889  11.134 -0.9280  2.1388 -2.0146
  860MOL0     H16095  -0.036   9.800  10.998 -3.8072  1.0315 -0.8150
  860MOL0     H16096   0.326   9.818  11.190 -0.5805 -0.0500  0.5350
  860MOL0     H16097   0.337  10.265  11.075 -1.7901 -0.1675 -0.6999
  860MOL0     H16098   0.666  10.180  11.251  0.7197 -0.2185  0.5441
  860MOL0     H16099   0.688  10.282  11.118 -0.0447 -0.5881  0.0207
  860MOL0     H16100   0.542  10.302  11.213 -0.3293 -1.6608 -0.3063
  861MOL0     O16101   8.937   5.574   2.788  0.5184 -0.0476 -0.7978
  861MOL0     C16102   8.856   5.640   2.848 -0.6608  0.8486 -1.0534
  861MOL0     O16103   8.882   5.769   2.900  0.3501 -0.4690  0.0727
  861MOL0     C16104   9.015   5.804   2.884  0.0864 -0.9561 -0.5307
  861MOL0     C16105   9.049   5.914   2.801 -0.4667 -0.0696 -0.0030
  861MOL0     C16106   9.186   5.946   2.787 -0.3143  0.0394 -0.9011
  861MOL0     C16107   9.296   5.876   2.855  0.6621  0.0106  0.4508
  861MOL0     O16108   9.426   5.907   2.837  0.6074  0.8787 -0.1972
  861MOL0     C16109   9.454   6.003   2.740 -0.6552 -0.0135 -0.5765
  861MOL0     C16110   9.598   6.007   2.707 -0.8639  0.3943  0.0885
  861MOL0     C16111   9.701   6.038   2.817 -0.6260 -0.1258 -0.7627
  861MOL0     C16112   9.842   6.035   2.761 -0.3032  0.4598  0.7205
  861MOL0     C16113   9.949   6.092   2.860  0.5925 -0.0689  0.3808
  861MOL0     C16114   9.942   6.039   2.998  0.0918  0.8259 -0.7321
  861MOL0     C16115  10.040   6.112   3.093  1.1909  0.2859 -0.0582
  861MOL0     C16116  10.016   6.262   3.105  0.2683 -0.0996 -0.3967
  861MOL0     N16117  10.116   6.323   3.203  0.1751  0.1304 -0.2644
  861MOL0     C16118  10.149   6.266   3.323 -1.3114  0.0431 -0.7962
  861MOL0     C16119  10.239   6.353   3.377  0.4188  0.5864  0.0101
  861MOL0     C16120  10.305   6.350   3.510  1.2039  0.4785 -0.6403
  861MOL0     C16121  10.208   6.401   3.626  0.2710  1.2756  0.0152
  861MOL0     C16122  10.139   6.529   3.605 -0.0179 -0.9863 -0.2882
  861MOL0     C16123  10.236   6.651   3.572 -0.0041  0.1699 -0.0802
  861MOL0     O16124  10.343   6.649   3.666  0.5872  0.7713  0.0659
  861MOL0     C16125  10.436   6.750   3.644 -0.2083 -0.0569  0.7661
  861MOL0     C16126  10.437   6.847   3.545  0.6421  0.3844 -0.9027
  861MOL0     C16127  10.540   6.942   3.536 -0.7111 -0.4752 -0.8767
  861MOL0     C16128  10.651   6.938   3.626  0.3460  0.1610  0.2101
  861MOL0     C16129  10.766   7.032   3.632  0.1000 -0.2331  0.2211
  861MOL0     O16130  10.874   7.009   3.723 -0.0475  0.7807 -0.6736
  861MOL0     C16131  10.993   7.086   3.736  1.1465 -0.6579 -0.2688
  861MOL0     C16132  11.005   7.215   3.691  0.3418  0.2294 -0.2159
  861MOL0     C16133  11.118   7.291   3.714  0.3632 -0.7562  0.4821
  861MOL0     C16134  11.224   7.235   3.779 -1.3019 -0.1723 -1.1709
  861MOL0     O16135  11.333   7.316   3.804 -0.2961 -0.7934 -0.7614
  861MOL0     C16136  11.459   7.267   3.846  0.3764 -0.0972 -0.0752
  861MOL0     C16137  11.568   7.369   3.836 -0.3587 -0.9028  0.5009
  861MOL0     C16138  11.545   7.470   3.946 -0.8171  0.5647  0.2827
  861MOL0     C16139  11.666   7.559   3.964 -0.1604 -0.2858 -0.5335
  861MOL0     C16140  11.634   7.654   4.070  0.9619 -0.6852  0.1352
  861MOL0     C16141  11.722   7.773   4.086  0.3842  0.0056  0.6423
  861MOL0     C16142  11.702   7.834   4.218  0.8946  0.0781 -0.6361
  861MOL0     C16143  11.769   7.968   4.211  0.1329  0.1896 -0.1731
  861MOL0    Cl16144  11.779   8.040   4.370 -0.0778 -0.0030 -0.3955
  861MOL0     C16145  11.217   7.099   3.814  0.1899  0.7303 -0.0505
  861MOL0     C16146  11.102   7.027   3.798 -0.2367  0.3844  0.3572
  861MOL0     O16147  10.765   7.120   3.540  1.2091  0.2932 -0.4280
  861MOL0     C16148  10.659   6.825   3.703  0.0419  0.4681 -0.1303
  861MOL0     C16149  10.554   6.738   3.720  0.4641 -0.0831 -0.4014
  861MOL0     N16150  10.253   6.461   3.296  0.2299 -0.6943 -0.2022
  861MOL0     N16151  10.179   6.440   3.191  0.4259 -0.7520 -0.2444
  861MOL0     C16152   9.259   5.763   2.928 -0.3445  0.2924  0.2393
  861MOL0     C16153   9.125   5.730   2.947 -0.7670 -0.0201  0.9863
  861MOL0     C16154   8.718   5.595   2.857  0.2953  0.4170  0.6475
  861MOL0     C16155   8.635   5.576   2.742  0.1197  1.2416  0.1763
  861MOL0     C16156   8.500   5.539   2.754  0.6836 -0.2650 -1.1715
  861MOL0     C16157   8.443   5.519   2.881 -0.1763  0.0737 -0.4020
  861MOL0     O16158   8.317   5.469   2.893  0.5016 -0.7305 -0.0757
  861MOL0     C16159   8.218   5.559   2.840  0.4984  0.7205  0.3087
  861MOL0     C16160   8.097   5.519   2.926 -0.8005  0.0476  0.5275
  861MOL0     C16161   7.968   5.603   2.889 -1.2759  0.4081 -0.8740
  861MOL0     C16162   7.868   5.597   3.005  0.4269  0.0767 -0.2599
  861MOL0     C16163   7.814   5.465   3.027  0.1875 -0.0556  0.1464
  861MOL0     C16164   7.769   5.358   3.058 -0.7441 -0.1789 -0.3414
  861MOL0     C16165   8.528   5.535   2.996  0.5038 -0.2057  0.1757
  861MOL0     C16166   8.659   5.568   2.986  1.3876 -0.2980  0.5581
  861MOL0     C16167   8.728   5.584   3.122  0.2704 -0.5869  0.2507
  861MOL0     H16168   8.975   5.969   2.744  0.2742  1.4331  0.4352
  861MOL0     H16169   9.204   6.017   2.706 -0.0429 -0.5845 -1.3991
  861MOL0     H16170   9.401   5.979   2.648  2.0280 -1.2934 -1.9051
  861MOL0     H16171   9.433   6.101   2.785 -0.0319  0.4614 -1.2929
  861MOL0     H16172   9.623   6.075   2.626 -0.5388 -1.5614 -1.5450
  861MOL0     H16173   9.626   5.905   2.677  1.1524  1.0585 -0.4345
  861MOL0     H16174   9.688   5.961   2.895  0.0596 -0.5684 -1.0739
  861MOL0     H16175   9.687   6.139   2.855  0.2519  0.3039 -1.5602
  861MOL0     H16176   9.876   5.935   2.733 -1.6995  0.4770 -1.2533
  861MOL0     H16177   9.846   6.093   2.668  0.9671  0.4955  0.7798
  861MOL0     H16178  10.049   6.075   2.819  0.1866 -0.5374 -0.4514
  861MOL0     H16179   9.920   6.197   2.859  0.0570 -0.2032 -0.7942
  861MOL0     H16180   9.842   6.049   3.042  1.0236 -0.8811  2.0353
  861MOL0     H16181   9.965   5.932   2.997  1.2383  1.0566 -1.9589
  861MOL0     H16182  10.143   6.090   3.062  1.0529 -0.0051 -0.3101
  861MOL0     H16183  10.023   6.072   3.194 -4.9262 -1.1416 -1.2617
  861MOL0     H16184  10.027   6.305   3.005  1.0561 -1.2665 -0.8341
  861MOL0     H16185   9.912   6.283   3.132  0.2510 -1.3810  0.6688
  861MOL0     H16186  10.107   6.180   3.373  2.0430 -0.6970  1.0061
  861MOL0     H16187  10.337   6.247   3.533  1.2947  0.7034  0.2855
  861MOL0     H16188  10.399   6.406   3.502  0.9827  1.0454  0.5276
  861MOL0     H16189  10.130   6.325   3.636  0.7599  1.0378  2.7102
  861MOL0     H16190  10.270   6.407   3.716  0.4507 -1.1621  0.1194
  861MOL0     H16191  10.080   6.555   3.694 -1.4553  1.9694 -1.9800
  861MOL0     H16192  10.076   6.525   3.516  0.7448  0.7482 -0.9490
  861MOL0     H16193  10.191   6.750   3.571  1.3848  0.8486  0.9446
  861MOL0     H16194  10.272   6.632   3.470 -1.7392 -2.1379 -0.3448
  861MOL0     H16195  10.346   6.865   3.489 -0.6561  0.5288  1.1587
  861MOL0     H16196  10.529   7.032   3.476 -0.2982  0.6532  0.6733
  861MOL0     H16197  10.928   7.270   3.637  2.5852  1.2174 -2.6311
  861MOL0     H16198  11.138   7.392   3.680 -0.9979 -0.9035 -0.8467
  861MOL0     H16199  11.440   7.237   3.949 -1.7000 -0.3321 -0.4827
  861MOL0     H16200  11.493   7.188   3.778  1.5835  1.9054 -1.9296
  861MOL0     H16201  11.663   7.314   3.839  0.6080  0.6586 -0.2447
  861MOL0     H16202  11.567   7.405   3.733 -0.6611 -2.3887 -0.0493
  861MOL0     H16203  11.457   7.530   3.919 -1.6206 -0.9329 -0.6437
  861MOL0     H16204  11.524   7.415   4.038 -2.4136 -3.4605 -2.2011
  861MOL0     H16205  11.699   7.596   3.866  0.0464 -0.7326 -0.6348
  861MOL0     H16206  11.755   7.512   4.006  1.7065  2.0596 -1.5899
  861MOL0     H16207  11.631   7.596   4.162 -2.5046 -0.7405  0.1254
  861MOL0     H16208  11.535   7.696   4.050 -0.7997 -4.3595  0.2529
  861MOL0     H16209  11.823   7.731   4.083 -0.6532 -2.6986 -0.2030
  861MOL0     H16210  11.707   7.843   4.003  0.7006 -0.1703  0.4343
  861MOL0     H16211  11.746   7.767   4.293  2.1731  0.4960 -0.9826
  861MOL0     H16212  11.595   7.848   4.234  0.9334  0.7265 -0.9456
  861MOL0     H16213  11.870   7.953   4.173 -0.5393 -2.7752 -1.1058
  861MOL0     H16214  11.717   8.034   4.141  0.9958  1.8020  0.6681
  861MOL0     H16215  11.296   7.045   3.866  0.3485  1.2083  0.2168
  861MOL0     H16216  11.091   6.923   3.827 -1.5096  0.4556  0.2098
  861MOL0     H16217  10.740   6.811   3.775 -1.5568  3.5282  2.5435
  861MOL0     H16218  10.569   6.648   3.780  1.7032  0.2814 -0.1245
  861MOL0     H16219   9.338   5.715   2.985  2.1514  1.6469 -1.8543
  861MOL0     H16220   9.085   5.649   3.007 -3.1476 -1.0875 -1.8066
  861MOL0     H16221   8.680   5.592   2.645 -2.3945 -0.0450 -1.2905
  861MOL0     H16222   8.442   5.533   2.663  0.3721  1.0221 -1.0750
  861MOL0     H16223   8.204   5.551   2.732  1.3520  1.3371  0.1393
  861MOL0     H16224   8.238   5.664   2.864  1.0221  0.5010  0.8455
  861MOL0     H16225   8.126   5.540   3.029  0.7875 -0.9834  0.3224
  861MOL0     H16226   8.073   5.412   2.928 -3.7490  0.6234  0.1039
  861MOL0     H16227   7.912   5.570   2.801  0.3379  0.3050 -1.9046
  861MOL0     H16228   7.999   5.706   2.872 -1.9261  0.2720 -3.1089
  861MOL0     H16229   7.914   5.623   3.101  1.6241 -1.6056 -0.3390
  861MOL0     H16230   7.777   5.656   2.988 -0.4687 -0.5830  1.9052
  861MOL0     H16231   7.729   5.266   3.095 -0.5926 -1.3170 -2.8043
  861MOL0     H16232   8.484   5.515   3.093 -0.8056  0.3367 -0.2750
  861MOL0     H16233   8.702   5.687   3.147 -0.7718 -0.4521 -1.2535
  861MOL0     H16234   8.691   5.528   3.209  0.6327  2.9166  2.8867
  861MOL0     H16235   8.836   5.567   3.115  0.1596 -1.5929  0.7119
  862MOL0     O16236   5.193   8.269   7.662 -0.8668  1.1421  0.7558
  862MOL0     C16237   5.155   8.347   7.742 -0.0301 -0.4699 -0.0182
  862MOL0     O16238   5.027   8.400   7.741 -0.3523 -0.2934 -0.7691
  862MOL0     C16239   4.974   8.416   7.612 -0.2257 -0.5642 -0.0514
  862MOL0     C16240   5.051   8.459   7.504  0.0179 -0.0772 -0.3501
  862MOL0     C16241   5.000   8.469   7.377  0.2035  0.1645  0.2837
  862MOL0     C16242   4.867   8.440   7.355  0.7587 -0.2970 -0.5035
  862MOL0     O16243   4.799   8.453   7.238 -0.5262 -0.2851  0.0978
  862MOL0     C16244   4.878   8.497   7.119  0.0529 -0.5007 -0.1257
  862MOL0     C16245   4.803   8.469   6.989  0.3452 -0.2849 -0.4092
  862MOL0     C16246   4.893   8.484   6.865  0.1229  0.6728 -0.8332
  862MOL0     C16247   4.963   8.353   6.835 -0.3142  0.8884 -0.3787
  862MOL0     C16248   5.001   8.340   6.692 -0.0222 -0.7476  0.5913
  862MOL0     C16249   5.088   8.213   6.684 -0.8121 -0.2113 -0.1435
  862MOL0     C16250   5.140   8.191   6.542 -0.6698  0.1818 -0.1145
  862MOL0     C16251   5.223   8.065   6.534  0.3129 -0.4326 -0.3743
  862MOL0     N16252   5.234   8.007   6.395  0.8015 -0.6206 -0.1695
  862MOL0     C16253   5.259   8.074   6.273  0.0045 -0.6281  0.4400
  862MOL0     C16254   5.295   7.969   6.195 -0.2069 -0.1311 -0.7698
  862MOL0     C16255   5.344   7.980   6.055 -0.2277  0.0585 -0.1256
  862MOL0     C16256   5.484   7.917   6.051 -0.1576 -0.7305  0.5623
  862MOL0     C16257   5.555   7.910   5.921 -0.1681  0.0729 -0.2393
  862MOL0     C16258   5.566   8.044   5.857  0.0545  0.0761  0.5471
  862MOL0     O16259   5.651   8.126   5.945 -0.2000  0.6197  0.1092
  862MOL0     C16260   5.790   8.112   5.930 -0.4057 -0.2732 -0.4339
  862MOL0     C16261   5.865   8.118   6.055  0.7395  0.3645  0.1509
  862MOL0     C16262   6.008   8.096   6.052  0.8435 -0.2191  0.1366
  862MOL0     C16263   6.075   8.064   5.940 -0.6757  0.1760 -0.3051
  862MOL0     C16264   6.229   8.051   5.938 -0.7935 -0.1895 -0.1754
  862MOL0     O16265   6.301   8.024   5.832 -0.5207  0.0870 -0.4069
  862MOL0     C16266   6.440   8.022   5.846 -0.2280 -1.2278 -0.4870
  862MOL0     C16267   6.514   7.914   5.800 -0.7146 -0.3887 -0.2210
  862MOL0     C16268   6.658   7.916   5.819 -0.5924  0.1168 -0.3706
  862MOL0     C16269   6.727   8.037   5.865 -0.2038 -0.0600  0.8133
  862MOL0     O16270   6.863   8.043   5.881 -1.0509 -0.1746  0.7452
  862MOL0     C16271   6.937   7.922   5.853  0.3368  0.0452 -0.0231
  862MOL0     C16272   7.088   7.953   5.852 -0.0945  0.0350  0.9875
  862MOL0     C16273   7.181   7.828   5.825 -0.9192  0.0032 -0.7433
  862MOL0     C16274   7.330   7.856   5.792 -0.8094 -0.3098  0.0078
  862MOL0     C16275   7.416   7.733   5.783  0.7551  0.6749 -0.0021
  862MOL0     C16276   7.540   7.765   5.702 -0.0249 -0.2886  0.1031
  862MOL0     C16277   7.617   7.632   5.688  0.3532 -0.1495 -0.3213
  862MOL0     C16278   7.751   7.648   5.635 -0.7264  0.3417  0.3609
  862MOL0    Cl16279   7.758   7.742   5.485  0.2699 -0.0740  0.3903
  862MOL0     C16280   6.648   8.151   5.902 -0.0464  0.7351 -0.2798
  862MOL0     C16281   6.509   8.138   5.896 -0.6422 -0.7173  0.4117
  862MOL0     O16282   6.276   8.065   6.049 -0.4432  0.7277 -0.3689
  862MOL0     C16283   5.999   8.057   5.820  0.8530  0.6310  0.4556
  862MOL0     C16284   5.862   8.082   5.816  0.4173 -0.1100  0.1830
  862MOL0     N16285   5.268   7.848   6.266 -0.6366 -0.8925 -0.1384
  862MOL0     N16286   5.226   7.874   6.388  1.0027  0.1034 -0.4759
  862MOL0     C16287   4.785   8.413   7.460 -0.8642  0.3297 -0.3857
  862MOL0     C16288   4.839   8.390   7.589  0.0241  0.1967  0.0060
  862MOL0     C16289   5.257   8.398   7.831 -0.1989  0.7355  0.8787
  862MOL0     C16290   5.350   8.303   7.884  0.2890 -0.0483  0.6993
  862MOL0     C16291   5.446   8.353   7.974 -0.7990 -0.5892  0.2588
  862MOL0     C16292   5.449   8.487   8.023 -0.9303  1.3518  1.0005
  862MOL0     O16293   5.550   8.516   8.105  0.3144  0.4363 -0.1538
  862MOL0     C16294   5.581   8.651   8.155  0.2035 -0.3169 -0.1496
  862MOL0     C16295   5.702   8.639   8.255  0.5737 -0.1887 -0.7956
  862MOL0     C16296   5.831   8.576   8.189 -0.8857  0.2654 -0.7158
  862MOL0     C16297   5.949   8.571   8.275  0.1541  0.1487 -0.7499
  862MOL0     C16298   6.065   8.545   8.194  0.1634  0.2475  0.1689
  862MOL0     C16299   6.167   8.523   8.126  0.1827  0.0449  0.0928
  862MOL0     C16300   5.362   8.579   7.962 -0.6488  0.4875  0.6062
  862MOL0     C16301   5.272   8.537   7.863  0.5014  0.0596  0.4269
  862MOL0     C16302   5.185   8.642   7.788  0.3705 -0.0689  0.2921
  862MOL0     H16303   5.154   8.491   7.515  0.4936 -1.3733 -0.8589
  862MOL0     H16304   5.069   8.506   7.301 -1.4235  0.3121 -1.1743
  862MOL0     H16305   4.894   8.605   7.126  0.0665 -0.5707  1.2801
  862MOL0     H16306   4.977   8.452   7.112  0.4805  0.6788 -5.1467
  862MOL0     H16307   4.730   8.550   6.978  0.8734  0.5143  1.4850
  862MOL0     H16308   4.749   8.374   6.988 -3.1868  1.5448 -1.4314
  862MOL0     H16309   4.967   8.562   6.887  0.6312 -0.5469  2.3340
  862MOL0     H16310   4.832   8.518   6.781  0.5519 -2.2454 -2.4645
  862MOL0     H16311   5.056   8.334   6.891 -1.1010 -0.8222  0.4243
  862MOL0     H16312   4.900   8.268   6.861 -0.6762  1.4057  0.4862
  862MOL0     H16313   4.915   8.321   6.628  0.5096 -0.0548 -0.3528
  862MOL0     H16314   5.063   8.421   6.653 -0.7598 -0.5453 -0.1709
  862MOL0     H16315   5.168   8.213   6.759  2.5954 -1.6126 -3.4402
  862MOL0     H16316   5.026   8.129   6.716  0.1096 -0.9579 -0.2752
  862MOL0     H16317   5.197   8.278   6.509 -0.8939  0.8094  1.0899
  862MOL0     H16318   5.049   8.187   6.482 -0.8113  0.6005  0.0686
  862MOL0     H16319   5.325   8.082   6.568  1.3843 -2.1518 -2.5106
  862MOL0     H16320   5.183   7.988   6.601  0.2489  0.1036  0.2077
  862MOL0     H16321   5.269   8.180   6.253  3.4027 -1.0782 -0.8158
  862MOL0     H16322   5.282   7.913   5.996  0.5636 -1.4940  0.7430
  862MOL0     H16323   5.329   8.083   6.020 -3.8859 -0.2146  0.2358
  862MOL0     H16324   5.547   7.965   6.126 -0.8312 -1.0770  1.3590
  862MOL0     H16325   5.485   7.809   6.072  0.6865 -1.2826 -1.8948
  862MOL0     H16326   5.490   7.848   5.859  0.9768 -0.9403 -0.4544
  862MOL0     H16327   5.652   7.861   5.919 -1.2746 -2.2798  0.6492
  862MOL0     H16328   5.463   8.081   5.852  1.3034  3.7556 -1.6627
  862MOL0     H16329   5.597   8.033   5.753 -1.1676 -2.2060  0.3630
  862MOL0     H16330   5.824   8.144   6.152  1.0429  2.7946 -0.2955
  862MOL0     H16331   6.061   8.121   6.143  0.0692 -0.6987  0.7397
  862MOL0     H16332   6.453   7.839   5.751 -1.5615 -0.8551  1.4669
  862MOL0     H16333   6.717   7.837   5.773  1.5021  1.5651 -0.2869
  862MOL0     H16334   6.932   7.842   5.927  1.4190 -0.5071 -0.5182
  862MOL0     H16335   6.916   7.884   5.753  1.6597  0.7265 -0.5902
  862MOL0     H16336   7.100   8.030   5.775 -1.8450  1.1964  1.8062
  862MOL0     H16337   7.130   8.003   5.940  2.3957  0.2246 -0.2063
  862MOL0     H16338   7.164   7.751   5.900 -2.1424 -0.1310 -1.1443
  862MOL0     H16339   7.141   7.786   5.732 -0.4801  0.2572 -1.0519
  862MOL0     H16340   7.367   7.920   5.872 -1.9343  1.7629 -1.0407
  862MOL0     H16341   7.329   7.899   5.691  1.1065  2.4176  1.0448
  862MOL0     H16342   7.367   7.646   5.737  0.8453 -0.6222  2.1836
  862MOL0     H16343   7.448   7.693   5.880  2.0783 -0.9988 -1.0733
  862MOL0     H16344   7.520   7.820   5.609 -0.1483  2.0134  1.4180
  862MOL0     H16345   7.592   7.840   5.762 -0.5523 -1.7487  2.5052
  862MOL0     H16346   7.569   7.563   5.618  1.2686 -1.0215 -0.1267
  862MOL0     H16347   7.612   7.579   5.784 -1.8323  1.8506  0.7742
  862MOL0     H16348   7.817   7.691   5.711  0.1081  1.5423 -0.9776
  862MOL0     H16349   7.781   7.547   5.606  0.2132  0.5867  0.4639
  862MOL0     H16350   6.710   8.233   5.938  0.9882  0.2382 -0.8738
  862MOL0     H16351   6.445   8.222   5.921 -0.9014 -1.2476  1.6019
  862MOL0     H16352   6.043   8.020   5.728 -2.9938 -1.4490 -0.7554
  862MOL0     H16353   5.804   8.074   5.724 -0.7373  0.6123  0.8127
  862MOL0     H16354   4.682   8.389   7.438 -1.3394  0.5040  1.4347
  862MOL0     H16355   4.780   8.358   7.675 -0.1825  0.0372 -0.1942
  862MOL0     H16356   5.330   8.198   7.869 -0.9548  0.3292 -0.4460
  862MOL0     H16357   5.513   8.293   8.035 -0.5870 -1.1077 -0.4642
  862MOL0     H16358   5.490   8.690   8.201  0.1120  1.7307 -1.8977
  862MOL0     H16359   5.602   8.725   8.077  1.0996 -1.2184 -0.7777
  862MOL0     H16360   5.674   8.566   8.331  3.8739 -0.6136  0.1822
  862MOL0     H16361   5.726   8.733   8.306 -1.0260  0.8504 -1.8599
  862MOL0     H16362   5.848   8.641   8.102 -1.9501 -0.5334 -1.5554
  862MOL0     H16363   5.812   8.474   8.155 -0.7306  0.7766 -2.4421
  862MOL0     H16364   5.972   8.667   8.322 -0.1697  0.0854 -0.4510
  862MOL0     H16365   5.931   8.496   8.353 -1.5676  1.7225  0.4647
  862MOL0     H16366   6.254   8.484   8.078 -1.1209 -0.6256 -1.8237
  862MOL0     H16367   5.375   8.684   7.986  1.0033  0.0313  1.8311
  862MOL0     H16368   5.178   8.628   7.679 -1.8796 -3.9897  0.7664
  862MOL0     H16369   5.087   8.620   7.831  0.1790  0.4283  0.1188
  862MOL0     H16370   5.218   8.740   7.824  0.2306  0.3864 -0.7615
  863MOL0     O16371   2.426   0.879   0.966  0.7205 -0.0606  0.6736
  863MOL0     C16372   2.408   1.008   0.972  0.5350  0.4977 -0.7156
  863MOL0     O16373   2.501   1.108   0.980  0.7503  0.5930 -0.9797
  863MOL0     C16374   2.630   1.064   0.966 -0.3161  0.2097 -0.6036
  863MOL0     C16375   2.710   1.129   0.866  0.8345  0.8557 -0.6672
  863MOL0     C16376   2.847   1.100   0.858  0.2230 -0.7933 -0.4789
  863MOL0     C16377   2.910   1.013   0.947  0.3062  0.6558  0.4671
  863MOL0     O16378   3.040   0.975   0.940  0.3988  0.4306 -0.1218
  863MOL0     C16379   3.142   1.068   0.903 -0.4464 -0.9142 -0.6794
  863MOL0     C16380   3.168   1.061   0.755  0.1830  0.3601  0.3909
  863MOL0     C16381   3.302   1.119   0.717 -0.7605 -0.5347 -0.5556
  863MOL0     C16382   3.403   1.021   0.651 -0.5315 -0.9251 -0.3819
  863MOL0     C16383   3.533   1.092   0.627  0.4761  0.6086 -0.1689
  863MOL0     C16384   3.662   0.999   0.637 -0.1102 -0.6272 -0.4219
  863MOL0     C16385   3.778   1.066   0.566 -0.5354  0.8936  0.1846
  863MOL0     C16386   3.898   0.964   0.549 -0.2469 -0.0772  0.9584
  863MOL0     N16387   4.017   1.030   0.486 -0.3395  0.7636 -0.1770
  863MOL0     C16388   4.039   1.090   0.370  0.1743 -0.7858  0.1372
  863MOL0     C16389   4.151   1.168   0.380  0.2237 -0.6633  0.7120
  863MOL0     C16390   4.207   1.271   0.289 -0.2430  0.0361 -0.5969
  863MOL0     C16391   4.355   1.235   0.264  0.4354 -0.0850 -1.3240
  863MOL0     C16392   4.423   1.336   0.182 -0.1732 -0.3055  0.6760
  863MOL0     C16393   4.568   1.290   0.167 -0.6309 -0.2783 -0.2961
  863MOL0     O16394   4.643   1.400   0.113 -0.3472 -0.9875  0.3058
  863MOL0     C16395   4.780   1.405   0.116 -0.3982 -0.7442 -0.0157
  863MOL0     C16396   4.855   1.295   0.169 -0.7246  0.0240  0.0583
  863MOL0     C16397   5.000   1.301   0.172  0.3960  0.2421 -1.2146
  863MOL0     C16398   5.070   1.408   0.116 -0.1684 -0.2378 -0.2833
  863MOL0     C16399   5.213   1.415   0.136 -0.5699 -0.0740 -0.4339
  863MOL0     O16400   5.268   1.325   0.219 -0.7834 -0.1444  0.6014
  863MOL0     C16401   5.399   1.310   0.217 -0.0344  0.2261  0.3171
  863MOL0     C16402   5.481   1.319   0.332  0.8295 -0.0665 -0.2526
  863MOL0     C16403   5.620   1.294   0.328  0.8013  0.2956 -0.1673
  863MOL0     C16404   5.691   1.273   0.211 -0.2289 -0.6517  0.5949
  863MOL0     O16405   5.830   1.262   0.224 -0.2966  0.3086  0.4106
  863MOL0     C16406   5.901   1.246   0.102 -0.1431  0.2756 -0.4793
  863MOL0     C16407   6.037   1.180   0.132  0.0893 -0.3870  0.9477
  863MOL0     C16408   6.152   1.282   0.162 -0.5587 -0.4337  0.1588
  863MOL0     C16409   6.275   1.208   0.202  0.3842 -0.5577 -0.4514
  863MOL0     C16410   6.384   1.300   0.262  0.0628 -0.2912  0.3077
  863MOL0     C16411   6.497   1.189   0.307 -0.2280 -0.0078  0.1835
  863MOL0     C16412   6.588   1.267   0.401 -0.4499 -0.2706  0.0845
  863MOL0     C16413   6.536   1.289   0.545  0.0962  0.3376  0.5124
  863MOL0    Cl16414   6.617   1.418   0.627 -0.0799 -0.0387  0.2619
  863MOL0     C16415   5.610   1.269   0.093  0.0845  0.1618 -0.5262
  863MOL0     C16416   5.474   1.280   0.096  0.3326 -0.8754 -0.3441
  863MOL0     O16417   5.274   1.497   0.068  0.3133 -0.9369 -0.7873
  863MOL0     C16418   4.992   1.510   0.057  0.2352 -0.4762  0.4040
  863MOL0     C16419   4.853   1.508   0.055  0.4175 -0.0371 -0.4463
  863MOL0     N16420   4.194   1.152   0.512  0.3288  0.3810 -0.1353
  863MOL0     N16421   4.116   1.070   0.568 -0.2907  0.8961 -0.0722
  863MOL0     C16422   2.821   0.943   1.033  0.2030 -0.3814  0.2843
  863MOL0     C16423   2.684   0.975   1.047  0.2535  0.0352 -0.0997
  863MOL0     C16424   2.269   1.050   0.954 -0.1316  0.5614  0.2971
  863MOL0     C16425   2.232   1.147   0.855 -0.4027  0.2641  0.1921
  863MOL0     C16426   2.097   1.195   0.847 -0.7215 -0.5248  0.6853
  863MOL0     C16427   2.002   1.136   0.925 -0.4224  0.3790 -0.4953
  863MOL0     O16428   1.868   1.165   0.926  0.4648  0.1763  0.0948
  863MOL0     C16429   1.813   1.255   0.835  0.2051  0.4761 -0.1597
  863MOL0     C16430   1.671   1.292   0.878 -0.3904 -0.1083  0.6573
  863MOL0     C16431   1.576   1.168   0.854 -0.0522  0.5704 -0.3417
  863MOL0     C16432   1.441   1.212   0.881  0.3851 -0.3624 -0.1841
  863MOL0     C16433   1.343   1.100   0.889 -0.1930 -0.2477  0.7234
  863MOL0     C16434   1.268   1.006   0.897  0.9796 -0.1956  0.3944
  863MOL0     C16435   2.036   1.037   1.014 -0.7659  0.4350 -0.0590
  863MOL0     C16436   2.171   0.999   1.039  0.4502 -0.3926 -0.2196
  863MOL0     C16437   2.198   0.918   1.163  0.0930  0.2603  0.6524
  863MOL0     H16438   2.664   1.209   0.808  0.1056 -1.1990 -3.1564
  863MOL0     H16439   2.912   1.144   0.782 -0.5306 -0.5646 -0.9983
  863MOL0     H16440   3.132   1.173   0.934  2.2194  0.3727 -3.6875
  863MOL0     H16441   3.231   1.033   0.956 -1.3413 -4.1112 -1.0916
  863MOL0     H16442   3.095   1.119   0.698 -0.4996  0.7515  1.6174
  863MOL0     H16443   3.165   0.958   0.719 -1.4796  0.1151  1.1339
  863MOL0     H16444   3.356   1.158   0.804 -1.1113 -0.4796 -0.3623
  863MOL0     H16445   3.286   1.203   0.648 -2.3126 -2.0428 -2.1693
  863MOL0     H16446   3.425   0.941   0.723 -3.3392  1.9309  4.1662
  863MOL0     H16447   3.356   0.982   0.560  0.1687  0.4739 -1.3802
  863MOL0     H16448   3.533   1.147   0.532 -0.8078  1.6003  0.3798
  863MOL0     H16449   3.548   1.165   0.707  1.5050  0.1922  0.0453
  863MOL0     H16450   3.696   0.984   0.740  2.1717  1.6714 -0.7302
  863MOL0     H16451   3.649   0.898   0.597  2.1241 -0.6839 -1.1325
  863MOL0     H16452   3.804   1.156   0.621 -0.9326  0.3818  1.2272
  863MOL0     H16453   3.762   1.094   0.461  0.8368 -1.8026 -0.8650
  863MOL0     H16454   3.927   0.920   0.645 -2.0079  0.9613  2.0196
  863MOL0     H16455   3.874   0.886   0.476  1.9229  1.1862 -1.2542
  863MOL0     H16456   3.972   1.078   0.285 -1.2314 -0.9660  1.2315
  863MOL0     H16457   4.155   1.279   0.193  1.7408  0.3624 -1.6927
  863MOL0     H16458   4.206   1.363   0.349  1.0224 -2.1129  3.0584
  863MOL0     H16459   4.397   1.227   0.365  1.2633 -1.9265 -1.7783
  863MOL0     H16460   4.376   1.142   0.210  3.5415  0.1347 -0.6753
  863MOL0     H16461   4.412   1.439   0.218 -0.7351 -0.6197  1.4339
  863MOL0     H16462   4.378   1.327   0.083 -1.7856 -3.4932  1.5396
  863MOL0     H16463   4.569   1.199   0.106  1.2524 -0.7132  0.3242
  863MOL0     H16464   4.616   1.273   0.264  1.6160 -0.1455 -1.3218
  863MOL0     H16465   4.809   1.202   0.200 -0.3313 -1.1984 -2.7712
  863MOL0     H16466   5.053   1.231   0.236 -2.7036  0.9731  2.5453
  863MOL0     H16467   5.426   1.336   0.425  0.1355 -0.9684 -0.4771
  863MOL0     H16468   5.680   1.280   0.418  4.9537  2.2663 -2.3731
  863MOL0     H16469   5.841   1.185   0.034 -1.0674 -0.2470  0.7413
  863MOL0     H16470   5.909   1.345   0.057  0.7059 -1.2834 -4.1078
  863MOL0     H16471   6.019   1.126   0.225 -2.3413 -0.9125  0.2428
  863MOL0     H16472   6.061   1.111   0.051  0.3019  2.3948 -1.5502
  863MOL0     H16473   6.167   1.352   0.079 -0.9907 -1.6601 -0.9995
  863MOL0     H16474   6.118   1.339   0.248 -0.2139 -1.6457  1.1208
  863MOL0     H16475   6.319   1.161   0.114  0.5934 -1.1118 -0.0571
  863MOL0     H16476   6.251   1.133   0.278  1.1357 -0.7570 -0.4054
  863MOL0     H16477   6.326   1.365   0.328 -0.7270 -0.7747  0.0995
  863MOL0     H16478   6.435   1.367   0.192  1.0763  1.9285  2.9781
  863MOL0     H16479   6.450   1.101   0.352  3.7813 -2.2358  0.5019
  863MOL0     H16480   6.556   1.141   0.228  0.6494  1.1371  0.1206
  863MOL0     H16481   6.601   1.366   0.357  1.8942 -1.6482 -2.7001
  863MOL0     H16482   6.692   1.232   0.401  1.7748  5.2968  1.7035
  863MOL0     H16483   6.427   1.298   0.550  0.2162  1.2923  1.9361
  863MOL0     H16484   6.556   1.197   0.601  1.0817  0.3275  0.1782
  863MOL0     H16485   5.652   1.261  -0.007  1.3065 -1.0109  0.0520
  863MOL0     H16486   5.415   1.263   0.006 -4.2351 -1.1822  2.4136
  863MOL0     H16487   5.048   1.592   0.013  1.0946 -0.4640  1.5014
  863MOL0     H16488   4.811   1.604   0.028 -2.9303 -1.3001 -0.1867
  863MOL0     H16489   2.854   0.853   1.083 -2.1840 -1.6311 -0.2601
  863MOL0     H16490   2.631   0.920   1.124 -0.0002  1.0869  0.4946
  863MOL0     H16491   2.301   1.197   0.787 -0.2554 -0.7349 -0.4250
  863MOL0     H16492   2.078   1.269   0.770 -0.2903  2.4480  3.2356
  863MOL0     H16493   1.817   1.217   0.733 -1.9560 -1.4114  0.3784
  863MOL0     H16494   1.872   1.347   0.826 -0.1548  0.6181 -1.1674
  863MOL0     H16495   1.637   1.372   0.812  0.9242  1.3266  1.6244
  863MOL0     H16496   1.669   1.324   0.983 -3.3503  1.6440  0.1769
  863MOL0     H16497   1.614   1.090   0.921  0.8565  0.3400 -1.0903
  863MOL0     H16498   1.579   1.127   0.752 -1.3754 -1.0846  0.2354
  863MOL0     H16499   1.446   1.274   0.971  1.1398 -1.7064  0.7366
  863MOL0     H16500   1.420   1.277   0.795  1.2697 -0.2248 -0.3040
  863MOL0     H16501   1.210   0.918   0.919  1.9864 -1.0161 -0.1455
  863MOL0     H16502   1.961   0.990   1.076 -0.5397  2.5522  1.9886
  863MOL0     H16503   2.283   0.952   1.223  0.1826  0.4619  0.4094
  863MOL0     H16504   2.115   0.934   1.232  0.5150  0.9981  1.0028
  863MOL0     H16505   2.215   0.814   1.137 -0.5223 -0.1903  1.9341
  864MOL0     O16506   4.972   8.941   9.761 -0.1560 -0.3659 -0.5370
  864MOL0     C16507   4.911   9.045   9.733  0.1643  0.3686 -0.1389
  864MOL0     O16508   4.947   9.157   9.666 -0.5051  0.9140 -0.0080
  864MOL0     C16509   5.078   9.158   9.627  0.4664 -0.1585 -0.2759
  864MOL0     C16510   5.172   9.202   9.720  0.6543  0.1493  1.1520
  864MOL0     C16511   5.307   9.206   9.674  0.0867 -0.5063  0.5004
  864MOL0     C16512   5.339   9.163   9.545  0.1107 -0.3160 -1.1540
  864MOL0     O16513   5.471   9.159   9.521 -0.5709 -0.0999  0.3536
  864MOL0     C16514   5.537   9.051   9.446 -0.5124 -0.2072 -0.7351
  864MOL0     C16515   5.687   9.089   9.480 -0.0194  0.9545  0.2906
  864MOL0     C16516   5.784   9.010   9.374 -0.4888 -1.1025  0.1478
  864MOL0     C16517   5.928   9.001   9.434  0.3376 -0.7571 -0.4280
  864MOL0     C16518   6.007   8.890   9.366 -1.0335  0.2698 -0.1837
  864MOL0     C16519   6.157   8.902   9.421 -0.5291  0.8660 -0.2105
  864MOL0     C16520   6.233   8.780   9.361  0.3481  0.8777 -0.8466
  864MOL0     C16521   6.380   8.799   9.387 -0.4349  0.3775 -0.6696
  864MOL0     N16522   6.460   8.861   9.276  0.5569 -0.3194 -0.0792
  864MOL0     C16523   6.600   8.850   9.257 -0.4289 -0.1328 -0.6699
  864MOL0     C16524   6.627   8.929   9.153  0.6074 -0.7574  0.1897
  864MOL0     C16525   6.765   8.943   9.088  0.7724  0.1964 -0.2923
  864MOL0     C16526   6.776   8.844   8.971  0.5293  0.3648 -0.1583
  864MOL0     C16527   6.908   8.785   8.943  0.2584  0.2643 -0.2028
  864MOL0     C16528   6.922   8.725   8.804 -0.1141  0.3154 -0.0259
  864MOL0     O16529   7.019   8.615   8.787 -0.1004 -0.1727 -0.4035
  864MOL0     C16530   7.152   8.633   8.811  0.5193 -1.5045 -0.0458
  864MOL0     C16531   7.246   8.529   8.816  0.9939 -0.1541  0.4819
  864MOL0     C16532   7.384   8.552   8.832  0.2234  0.6696 -0.4062
  864MOL0     C16533   7.438   8.677   8.847 -0.2830 -0.0340 -0.3131
  864MOL0     C16534   7.578   8.701   8.891  0.5744 -0.3016 -0.2582
  864MOL0     O16535   7.609   8.843   8.901  0.7892  0.3319  0.3530
  864MOL0     C16536   7.742   8.871   8.891 -0.1276 -0.0087 -0.0423
  864MOL0     C16537   7.822   8.938   8.984  0.3720  0.0599  0.2058
  864MOL0     C16538   7.954   8.975   8.948 -0.2823  0.5462  0.1362
  864MOL0     C16539   8.015   8.947   8.825  0.8491  0.6970  0.0902
  864MOL0     O16540   8.148   8.979   8.784 -0.4206 -0.0387  0.5427
  864MOL0     C16541   8.239   9.022   8.879 -0.0269  0.3656 -0.1282
  864MOL0     C16542   8.349   9.100   8.803  0.9994  0.2136 -0.0594
  864MOL0     C16543   8.440   9.156   8.909 -0.4314 -0.9157 -0.0369
  864MOL0     C16544   8.522   9.274   8.864  0.6712 -1.3797 -0.2227
  864MOL0     C16545   8.654   9.294   8.935 -0.5776  0.3198  0.6779
  864MOL0     C16546   8.765   9.219   8.859  0.2352 -0.8237 -0.9674
  864MOL0     C16547   8.793   9.076   8.916 -0.6683 -0.1168 -0.1091
  864MOL0     C16548   8.936   9.023   8.877 -0.5768 -0.1248  0.2615
  864MOL0    Cl16549   8.965   8.980   8.693 -0.3116  0.0882 -0.2147
  864MOL0     C16550   7.937   8.865   8.744 -0.7271  0.6722  0.0690
  864MOL0     C16551   7.800   8.842   8.771 -0.5430 -0.4539 -0.3148
  864MOL0     O16552   7.655   8.608   8.897  0.0998  0.1368 -0.2413
  864MOL0     C16553   7.344   8.780   8.826  0.2531 -0.1582  0.5223
  864MOL0     C16554   7.202   8.763   8.810  0.1890 -0.7351  0.2677
  864MOL0     N16555   6.509   9.004   9.123 -0.1896  1.0490  0.0164
  864MOL0     N16556   6.405   8.945   9.186 -0.0597 -0.3258  0.0215
  864MOL0     C16557   5.243   9.124   9.455  0.6875 -0.2876  0.0403
  864MOL0     C16558   5.112   9.118   9.495  0.1873  0.0369 -1.3631
  864MOL0     C16559   4.772   9.045   9.784 -0.1243 -0.1634  1.7959
  864MOL0     C16560   4.702   9.169   9.767 -0.5929  0.0280 -0.3032
  864MOL0     C16561   4.565   9.180   9.804 -1.1569 -0.0584  0.6435
  864MOL0     C16562   4.492   9.060   9.823 -0.0782 -0.1528 -0.2782
  864MOL0     O16563   4.358   9.081   9.831  0.1619 -0.4216 -0.4049
  864MOL0     C16564   4.273   8.967   9.849  0.5602  0.8353 -0.1457
  864MOL0     C16565   4.139   9.010   9.909  0.8084  0.0640 -0.0924
  864MOL0     C16566   4.055   9.087   9.811  0.2980 -0.3056  0.3587
  864MOL0     C16567   3.911   9.097   9.858  0.1091 -0.8836  0.0075
  864MOL0     C16568   3.852   9.228   9.831  0.1714 -0.1220 -0.1509
  864MOL0     C16569   3.811   9.344   9.802  0.0928 -0.5036  0.5392
  864MOL0     C16570   4.559   8.938   9.835 -0.4608 -0.1591  0.6093
  864MOL0     C16571   4.698   8.930   9.829 -0.0765  0.0849 -0.2365
  864MOL0     C16572   4.762   8.793   9.859 -0.8909  0.0870  0.3578
  864MOL0     H16573   5.149   9.243   9.818  0.8361 -0.1962  1.3448
  864MOL0     H16574   5.390   9.248   9.730  0.0963  3.1856 -1.9035
  864MOL0     H16575   5.499   8.955   9.483 -2.8785  1.2162  0.8078
  864MOL0     H16576   5.511   9.058   9.340 -0.5975 -1.1975 -0.7900
  864MOL0     H16577   5.724   9.050   9.575  0.3100 -2.9797 -1.2993
  864MOL0     H16578   5.696   9.198   9.488 -1.4291  1.0122  1.8074
  864MOL0     H16579   5.789   9.069   9.282 -0.0868  2.5215  2.3154
  864MOL0     H16580   5.746   8.909   9.354 -2.1051 -1.3277  3.5897
  864MOL0     H16581   5.982   9.096   9.428  1.0257 -1.1012  0.2775
  864MOL0     H16582   5.917   8.971   9.539 -0.2709 -0.5503 -0.4289
  864MOL0     H16583   5.965   8.791   9.385  0.3683 -0.6975 -1.8691
  864MOL0     H16584   6.016   8.898   9.257  0.7749  1.7489  0.0228
  864MOL0     H16585   6.202   8.995   9.385  0.4680  0.6220  0.3695
  864MOL0     H16586   6.157   8.896   9.530 -1.5758 -0.6133 -0.2610
  864MOL0     H16587   6.203   8.760   9.258 -1.0571 -0.0388 -0.2915
  864MOL0     H16588   6.204   8.692   9.419  0.8251  0.7104 -0.8582
  864MOL0     H16589   6.402   8.853   9.480  3.0563 -1.4015 -0.3086
  864MOL0     H16590   6.427   8.703   9.407 -0.1772  0.4713 -0.8171
  864MOL0     H16591   6.670   8.784   9.308 -1.5296 -0.6258  0.2332
  864MOL0     H16592   6.786   9.045   9.055  0.0214  0.4370 -0.0332
  864MOL0     H16593   6.840   8.902   9.157  0.8672  1.6902  0.5305
  864MOL0     H16594   6.713   8.759   8.999 -1.0091  1.5660  0.1767
  864MOL0     H16595   6.733   8.897   8.885 -0.2095  1.5270  0.8939
  864MOL0     H16596   6.935   8.713   9.021  0.9753  0.2282 -0.4735
  864MOL0     H16597   6.978   8.869   8.946 -1.4147  1.7850 -1.4396
  864MOL0     H16598   6.944   8.805   8.733 -0.8711  1.6112  1.1701
  864MOL0     H16599   6.821   8.699   8.773 -0.7691  0.9157  1.5547
  864MOL0     H16600   7.214   8.428   8.792  1.3695  0.5378 -3.7146
  864MOL0     H16601   7.442   8.461   8.848  1.1184  1.2117 -0.4988
  864MOL0     H16602   7.786   8.947   9.086  1.7454  1.5945  0.5879
  864MOL0     H16603   8.010   9.023   9.027 -1.8208 -2.9080  3.6923
  864MOL0     H16604   8.188   9.089   8.949  0.3708  0.5636 -0.0270
  864MOL0     H16605   8.277   8.940   8.942 -0.4612  0.9123  0.8773
  864MOL0     H16606   8.400   9.036   8.730 -0.2343  0.2839 -1.0177
  864MOL0     H16607   8.306   9.188   8.755  0.4957  1.1434  1.9824
  864MOL0     H16608   8.388   9.186   9.001  0.6380  0.0837  0.2684
  864MOL0     H16609   8.512   9.079   8.939 -0.2904 -0.7794 -0.0231
  864MOL0     H16610   8.465   9.366   8.873  1.3562 -0.8950 -0.7289
  864MOL0     H16611   8.536   9.268   8.755 -1.2078 -0.2170 -0.5760
  864MOL0     H16612   8.662   9.268   9.041  4.1715  0.4854  0.5420
  864MOL0     H16613   8.679   9.401   8.942  0.6818 -0.0519  5.3605
  864MOL0     H16614   8.742   9.214   8.752 -0.0479  0.9430 -1.0142
  864MOL0     H16615   8.853   9.282   8.874  1.1021 -1.8356 -1.6576
  864MOL0     H16616   8.720   9.008   8.871 -1.6729  1.5079 -1.0477
  864MOL0     H16617   8.785   9.090   9.024  2.2497  0.6526  0.1099
  864MOL0     H16618   9.010   9.097   8.908  0.1905 -0.2720 -1.1659
  864MOL0     H16619   8.962   8.935   8.937  2.1839 -0.3091 -1.0482
  864MOL0     H16620   7.982   8.829   8.652 -0.1180  2.3145 -0.3129
  864MOL0     H16621   7.748   8.792   8.690 -0.9329  1.2002 -1.1288
  864MOL0     H16622   7.386   8.880   8.825  1.0865 -0.4321 -2.6169
  864MOL0     H16623   7.140   8.851   8.800  1.8288  0.6071  1.3999
  864MOL0     H16624   5.277   9.096   9.356  1.0041  1.3465 -0.3408
  864MOL0     H16625   5.033   9.085   9.427 -1.0349 -0.3751  0.1960
  864MOL0     H16626   4.761   9.259   9.749 -0.3584 -0.3963 -1.7678
  864MOL0     H16627   4.502   9.266   9.825  0.1401  0.4180  3.0286
  864MOL0     H16628   4.313   8.891   9.918 -3.1561 -1.2483 -0.0255
  864MOL0     H16629   4.259   8.919   9.752 -1.3773  2.2220 -0.5984
  864MOL0     H16630   4.156   9.071   9.998 -1.5168  0.4231  0.1644
  864MOL0     H16631   4.086   8.918   9.936 -0.1219  0.1664 -1.4652
  864MOL0     H16632   4.052   9.044   9.710  0.9749  1.7563 -0.6052
  864MOL0     H16633   4.088   9.191   9.811  3.9304 -1.3005  2.0866
  864MOL0     H16634   3.846   9.026   9.806  1.0644 -2.3272  0.7206
  864MOL0     H16635   3.891   9.077   9.964 -1.6723 -1.2936 -0.3761
  864MOL0     H16636   3.773   9.441   9.777  0.0302 -0.6745 -0.0476
  864MOL0     H16637   4.500   8.851   9.862  1.0703 -1.0163  1.2728
  864MOL0     H16638   4.673   8.734   9.881 -0.1506 -1.9202 -1.6923
  864MOL0     H16639   4.812   8.756   9.769 -1.9718  0.7821 -0.5554
  864MOL0     H16640   4.835   8.793   9.940  1.1598 -0.7791 -1.3872
  865MOL0     O16641   9.633   8.486   6.964 -0.4952  0.1744  0.3595
  865MOL0     C16642   9.549   8.549   6.901 -0.4657  0.2064  0.5992
  865MOL0     O16643   9.568   8.678   6.861 -0.1408  0.2746  0.7716
  865MOL0     C16644   9.687   8.752   6.832  0.0633  0.1970 -0.8693
  865MOL0     C16645   9.665   8.869   6.755 -0.3549  0.7919  0.4201
  865MOL0     C16646   9.773   8.941   6.706 -0.5390 -0.9608  0.0038
  865MOL0     C16647   9.903   8.903   6.745 -0.0288 -0.6726 -0.7094
  865MOL0     O16648  10.009   8.990   6.712  0.4609 -0.0403 -0.4346
  865MOL0     C16649  10.039   9.080   6.815  0.3785 -0.7466  0.7220
  865MOL0     C16650  10.177   9.133   6.772 -1.3156 -0.2825  0.1232
  865MOL0     C16651  10.240   9.240   6.878  0.6321  0.1159 -0.0386
  865MOL0     C16652  10.375   9.300   6.832 -0.8378 -0.0402  0.5491
  865MOL0     C16653  10.429   9.388   6.944  0.0313  0.2524  0.2584
  865MOL0     C16654  10.557   9.462   6.900 -0.8656  0.8651 -0.0565
  865MOL0     C16655  10.611   9.552   7.017 -0.3959 -0.3022  0.3058
  865MOL0     C16656  10.746   9.633   6.974  0.7950  0.1095  0.3189
  865MOL0     N16657  10.813   9.706   7.083 -0.0628  0.4691  0.5327
  865MOL0     C16658  10.940   9.766   7.062  0.2948  0.5688  0.8518
  865MOL0     C16659  10.969   9.820   7.185  0.1243  0.3625 -0.6871
  865MOL0     C16660  11.093   9.889   7.231  0.6740  0.1132  0.6737
  865MOL0     C16661  11.140   9.822   7.366 -0.9323  0.4499  0.2248
  865MOL0     C16662  11.177   9.681   7.333  0.6911 -0.0799  0.2322
  865MOL0     C16663  11.234   9.608   7.454  0.3941 -0.3359  0.0313
  865MOL0     O16664  11.338   9.681   7.520  0.2417 -0.9195  1.0786
  865MOL0     C16665  11.425   9.616   7.602  0.2010  0.2674 -0.1456
  865MOL0     C16666  11.399   9.496   7.664 -0.7118 -0.3057 -1.2854
  865MOL0     C16667  11.490   9.441   7.763 -0.1028 -0.1853  0.2517
  865MOL0     C16668  11.612   9.509   7.789  0.4175 -0.1657  0.2919
  865MOL0     C16669  11.702   9.440   7.885  0.8815 -0.9736 -0.4230
  865MOL0     O16670  11.661   9.320   7.939  0.3501  0.3119  0.1622
  865MOL0     C16671  11.720   9.279   8.052 -0.9104 -0.4725 -0.3553
  865MOL0     C16672  11.663   9.301   8.174  0.7587  0.5675 -0.3448
  865MOL0     C16673  11.723   9.263   8.292  0.0258 -0.3016 -0.0476
  865MOL0     C16674  11.840   9.182   8.294  0.3091 -0.6691 -0.0741
  865MOL0     O16675  11.896   9.156   8.419 -0.7669  0.1939 -0.3758
  865MOL0     C16676  12.022   9.084   8.419 -0.1805 -0.2606 -0.5211
  865MOL0     C16677  12.009   8.936   8.409 -1.3490 -0.6328 -0.2054
  865MOL0     C16678  12.117   8.861   8.476 -0.1187  0.6585 -0.3090
  865MOL0     C16679  12.091   8.852   8.626  0.0614 -0.8472 -0.0868
  865MOL0     C16680  12.194   8.769   8.701  0.1844  0.3329  0.7783
  865MOL0     C16681  12.297   8.862   8.762  0.4136  0.1008  0.3071
  865MOL0     C16682  12.397   8.779   8.846  0.0161  0.0668  0.1018
  865MOL0     C16683  12.525   8.733   8.762 -0.4381 -0.0568 -0.3926
  865MOL0    Cl16684  12.486   8.629   8.623  0.1839 -0.3520 -0.0406
  865MOL0     C16685  11.907   9.154   8.172  0.0037 -0.5334  0.7819
  865MOL0     C16686  11.843   9.204   8.052 -0.5001  0.1484  0.1286
  865MOL0     O16687  11.808   9.497   7.907 -0.2061  0.4084 -0.0015
  865MOL0     C16688  11.643   9.626   7.717  1.0610 -0.7381 -0.0954
  865MOL0     C16689  11.547   9.681   7.626 -0.1404 -0.3084  0.3912
  865MOL0     N16690  10.867   9.785   7.276 -1.0717  0.1114 -1.0164
  865MOL0     N16691  10.776   9.713   7.218  0.6524  0.1274  0.0180
  865MOL0     C16692   9.924   8.791   6.821 -0.0053 -0.0915  0.1080
  865MOL0     C16693   9.819   8.711   6.865  0.6388 -0.3894 -0.4929
  865MOL0     C16694   9.421   8.488   6.866  0.1338  0.3080  0.0908
  865MOL0     C16695   9.410   8.347   6.888  0.6029  0.0707  0.2678
  865MOL0     C16696   9.292   8.281   6.867 -0.6836  0.0576  0.0383
  865MOL0     C16697   9.181   8.349   6.819 -0.0774  0.1321  1.0320
  865MOL0     O16698   9.062   8.295   6.786 -0.7073 -0.3488  0.4754
  865MOL0     C16699   9.040   8.164   6.849  0.6856  0.4682 -0.2303
  865MOL0     C16700   8.887   8.117   6.846 -0.2812 -1.0392  0.2851
  865MOL0     C16701   8.846   7.984   6.918 -0.1739  0.6543  0.8633
  865MOL0     C16702   8.728   7.915   6.850  0.9355  0.1955  0.2361
  865MOL0     C16703   8.614   8.004   6.844 -0.1841 -0.7604 -0.9825
  865MOL0     C16704   8.516   8.084   6.842 -1.0194 -0.3188  0.0221
  865MOL0     C16705   9.191   8.489   6.797  0.7287 -0.2865 -0.5947
  865MOL0     C16706   9.310   8.560   6.816 -0.3099  0.4373  0.5729
  865MOL0     C16707   9.314   8.695   6.766  0.1580 -0.0440 -0.8342
  865MOL0     H16708   9.568   8.915   6.736  0.7857  3.0200 -0.3061
  865MOL0     H16709   9.765   9.040   6.663 -0.2633 -0.0681  1.9188
  865MOL0     H16710   9.974   9.166   6.831 -1.0096 -2.0779  2.7521
  865MOL0     H16711  10.065   9.037   6.913 -0.4703  0.2853  1.4191
  865MOL0     H16712  10.173   9.179   6.673 -3.2885  0.3610  0.4567
  865MOL0     H16713  10.245   9.048   6.781  1.5729  2.0276  1.9685
  865MOL0     H16714  10.259   9.185   6.971 -1.0589 -1.3247 -0.4948
  865MOL0     H16715  10.170   9.321   6.901  0.4366 -0.2392  0.6600
  865MOL0     H16716  10.441   9.217   6.804 -0.3224  0.2038  1.0317
  865MOL0     H16717  10.370   9.360   6.741  3.2054  0.4307  0.4465
  865MOL0     H16718  10.353   9.461   6.973 -0.8451 -0.2773 -0.6409
  865MOL0     H16719  10.439   9.319   7.028 -0.6305  0.1282  0.2405
  865MOL0     H16720  10.637   9.390   6.879 -1.2362 -0.6669  3.1610
  865MOL0     H16721  10.540   9.527   6.814  1.4648 -0.2969 -1.4963
  865MOL0     H16722  10.639   9.483   7.097  0.8946 -0.1833 -0.0236
  865MOL0     H16723  10.532   9.623   7.045 -0.0922  1.1131 -2.1015
  865MOL0     H16724  10.814   9.561   6.928  1.5231  1.9924 -1.7366
  865MOL0     H16725  10.730   9.708   6.896 -2.2339  1.3611  1.9783
  865MOL0     H16726  10.994   9.795   6.972 -2.4928  2.7494 -0.2786
  865MOL0     H16727  11.169   9.908   7.155 -0.5983  1.6787 -0.2590
  865MOL0     H16728  11.056   9.988   7.260 -0.4664  0.4290 -1.6892
  865MOL0     H16729  11.222   9.880   7.409 -0.6205 -0.2497  0.5940
  865MOL0     H16730  11.061   9.835   7.441  0.1082 -0.9700  1.6522
  865MOL0     H16731  11.232   9.676   7.239 -0.2199  0.9652 -0.3794
  865MOL0     H16732  11.085   9.629   7.307  0.5320 -0.0318  0.6924
  865MOL0     H16733  11.248   9.500   7.444  0.4893 -0.4641  1.3708
  865MOL0     H16734  11.149   9.608   7.522 -1.3531 -1.3477 -2.0442
  865MOL0     H16735  11.305   9.444   7.645  0.6930 -3.2447 -0.7552
  865MOL0     H16736  11.468   9.360   7.832  0.5188 -1.0284 -0.5183
  865MOL0     H16737  11.574   9.362   8.175  0.2840 -0.1166 -0.0199
  865MOL0     H16738  11.697   9.288   8.395  0.4044 -2.2104  0.5556
  865MOL0     H16739  12.081   9.123   8.335  0.7548 -0.0707  0.2000
  865MOL0     H16740  12.067   9.121   8.512  2.3635 -0.9443 -1.3762
  865MOL0     H16741  11.917   8.899   8.455 -1.3239  0.5628  0.8628
  865MOL0     H16742  12.008   8.916   8.301  0.4829  1.8664 -0.7664
  865MOL0     H16743  12.118   8.760   8.433 -0.6623  0.7472 -0.5375
  865MOL0     H16744  12.211   8.916   8.469 -0.4409  1.0395 -2.0048
  865MOL0     H16745  11.996   8.800   8.640 -1.0590  0.9023 -0.9222
  865MOL0     H16746  12.078   8.952   8.667 -2.4917 -0.8976 -0.6171
  865MOL0     H16747  12.244   8.691   8.643 -1.4432  0.4352 -0.8564
  865MOL0     H16748  12.145   8.704   8.775  1.4532  1.1309  2.3963
  865MOL0     H16749  12.339   8.920   8.679 -1.7673  0.4682 -0.5946
  865MOL0     H16750  12.246   8.929   8.832 -1.6976 -2.6025  1.5709
  865MOL0     H16751  12.349   8.693   8.895  2.8964 -1.1377  1.0171
  865MOL0     H16752  12.427   8.849   8.924  0.4328  2.5044 -2.1292
  865MOL0     H16753  12.583   8.820   8.729  3.3796 -1.8898  0.7836
  865MOL0     H16754  12.591   8.675   8.828 -0.5127 -1.1409 -1.2520
  865MOL0     H16755  11.995   9.091   8.162  0.4865 -0.2262  2.7299
  865MOL0     H16756  11.906   9.187   7.965  0.0873 -1.7070  0.8722
  865MOL0     H16757  11.743   9.668   7.714  1.8513 -2.3142  1.9074
  865MOL0     H16758  11.582   9.776   7.585  1.1816 -0.9084  0.0781
  865MOL0     H16759  10.026   8.774   6.854 -0.2055  1.9203  1.9483
  865MOL0     H16760   9.836   8.620   6.922 -1.1187 -0.6077 -0.2727
  865MOL0     H16761   9.496   8.302   6.935  0.9419  1.9105  1.5257
  865MOL0     H16762   9.292   8.173   6.877  0.1938 -0.1228 -1.5602
  865MOL0     H16763   9.088   8.163   6.948 -1.1816  3.5202  0.8499
  865MOL0     H16764   9.099   8.095   6.787  3.6977  0.0885  2.7555
  865MOL0     H16765   8.874   8.099   6.738 -0.3733  0.2710  0.0656
  865MOL0     H16766   8.826   8.201   6.880 -0.2845 -0.3820 -1.2630
  865MOL0     H16767   8.828   7.991   7.026  0.4172 -2.8644  1.3045
  865MOL0     H16768   8.925   7.910   6.904 -1.6964 -0.4213 -4.2991
  865MOL0     H16769   8.755   7.880   6.750 -2.1340  1.1089 -1.0357
  865MOL0     H16770   8.707   7.823   6.904 -1.4993 -0.7670 -2.1331
  865MOL0     H16771   8.430   8.148   6.834 -1.6799 -1.3529 -1.5217
  865MOL0     H16772   9.106   8.549   6.768  1.0742  1.6599  2.0544
  865MOL0     H16773   9.211   8.732   6.751  0.6965  1.6638 -0.5877
  865MOL0     H16774   9.350   8.760   6.846 -2.3446  0.7121 -0.2167
  865MOL0     H16775   9.376   8.712   6.677  1.1688  0.0774 -0.1234
  866MOL0     O16776   7.299   0.065   5.125 -0.5521  0.3220 -0.1478
  866MOL0     C16777   7.250  -0.027   5.189 -0.1261  0.0932  0.0850
  866MOL0     O16778   7.295  -0.157   5.179  0.3777  0.2965 -0.5066
  866MOL0     C16779   7.407  -0.195   5.110 -0.1283  0.6165 -0.0659
  866MOL0     C16780   7.410  -0.187   4.969  1.1083  0.1738 -0.0721
  866MOL0     C16781   7.515  -0.242   4.893 -0.9429 -0.4641  0.5781
  866MOL0     C16782   7.614  -0.308   4.970  0.4369 -0.4526  0.7524
  866MOL0     O16783   7.727  -0.349   4.916 -0.1962 -0.2822  0.3944
  866MOL0     C16784   7.760  -0.322   4.779  0.1886 -0.0565  0.1902
  866MOL0     C16785   7.905  -0.372   4.751 -0.6664 -0.0666  0.1597
  866MOL0     C16786   7.939  -0.341   4.608 -0.4364  0.0015  0.2483
  866MOL0     C16787   8.089  -0.310   4.583 -0.5368  0.0598  0.5546
  866MOL0     C16788   8.192  -0.428   4.581  1.1424 -0.0471 -0.4431
  866MOL0     C16789   8.338  -0.377   4.573 -0.3470 -0.1876 -0.1136
  866MOL0     C16790   8.435  -0.488   4.517 -1.2536  0.7082 -0.0855
  866MOL0     C16791   8.465  -0.598   4.620  1.6255 -1.1365 -0.4662
  866MOL0     N16792   8.554  -0.700   4.574 -0.0720 -0.0378 -0.1443
  866MOL0     C16793   8.657  -0.762   4.643 -0.6484 -0.1921  0.3525
  866MOL0     C16794   8.697  -0.868   4.565 -0.3620  0.2461 -1.0724
  866MOL0     C16795   8.795  -0.969   4.608  0.1442 -1.1552 -0.1973
  866MOL0     C16796   8.922  -0.963   4.523 -0.2743 -1.0061 -0.0915
  866MOL0     C16797   9.019  -1.053   4.595  0.1241  0.4324  0.3323
  866MOL0     C16798   9.132  -1.095   4.509 -0.6333 -0.9921  0.1571
  866MOL0     O16799   9.217  -0.982   4.483 -0.2035 -0.4989  0.6701
  866MOL0     C16800   9.334  -0.973   4.553  0.4289  0.0799  0.1087
  866MOL0     C16801   9.351  -1.023   4.684 -0.1907  0.9064 -0.3822
  866MOL0     C16802   9.476  -1.032   4.749 -0.0617  0.1192 -0.5855
  866MOL0     C16803   9.585  -0.981   4.677 -0.3001  0.6165 -0.2403
  866MOL0     C16804   9.723  -0.998   4.728 -0.8919  0.1999 -0.8085
  866MOL0     O16805   9.822  -0.950   4.653  0.2539 -0.7237 -0.1791
  866MOL0     C16806   9.958  -0.960   4.678  0.3786 -0.0349  0.0686
  866MOL0     C16807  10.031  -0.964   4.805  0.0604 -0.8125 -0.1043
  866MOL0     C16808  10.169  -0.968   4.815  0.4508 -1.1103  0.5085
  866MOL0     C16809  10.240  -0.978   4.693 -0.9275 -0.0687 -0.4460
  866MOL0     O16810  10.379  -0.995   4.684  0.9374  0.8104 -0.4109
  866MOL0     C16811  10.446  -0.918   4.788 -0.0353  0.2056 -0.5503
  866MOL0     C16812  10.593  -0.926   4.765  0.4866 -0.4992  0.0303
  866MOL0     C16813  10.674  -0.820   4.842 -0.7024 -0.5558  0.3449
  866MOL0     C16814  10.663  -0.850   4.990 -0.2297 -0.1949 -0.0451
  866MOL0     C16815  10.765  -0.768   5.067 -0.7163 -0.0249 -0.2560
  866MOL0     C16816  10.911  -0.821   5.063  0.0484  0.0082  0.1948
  866MOL0     C16817  10.994  -0.722   5.141 -0.1032  0.1770 -0.8367
  866MOL0     C16818  11.134  -0.771   5.156 -0.5425  0.6491 -0.1578
  866MOL0    Cl16819  11.236  -0.635   5.217  0.1182  0.4218  0.1616
  866MOL0     C16820  10.166  -0.969   4.574 -0.5670  0.0506  0.2571
  866MOL0     C16821  10.029  -0.962   4.566 -0.5822 -0.3348 -0.0143
  866MOL0     O16822   9.730  -1.055   4.838 -0.5522  0.4633 -0.3042
  866MOL0     C16823   9.564  -0.920   4.549  0.5950 -0.1594  0.0257
  866MOL0     C16824   9.439  -0.919   4.489 -0.0669 -0.5645 -0.0192
  866MOL0     N16825   8.621  -0.868   4.450 -0.7139 -0.4721 -0.7657
  866MOL0     N16826   8.547  -0.762   4.454  0.2378 -0.5470 -0.3167
  866MOL0     C16827   7.601  -0.335   5.106  0.5640 -0.6010 -0.1567
  866MOL0     C16828   7.505  -0.270   5.174  0.6084  0.2462 -0.3550
  866MOL0     C16829   7.141   0.012   5.282  0.1378 -0.4659  0.5334
  866MOL0     C16830   7.062  -0.093   5.320  0.4087  0.3820 -0.4547
  866MOL0     C16831   6.956  -0.080   5.415  0.6818 -0.3369 -0.7371
  866MOL0     C16832   6.915   0.045   5.467 -0.1874 -0.4646 -0.7222
  866MOL0     O16833   6.814   0.066   5.558  0.2531 -0.3603  0.3613
  866MOL0     C16834   6.710  -0.030   5.574 -0.3983 -0.0258 -0.0141
  866MOL0     C16835   6.587   0.020   5.643  0.3497 -0.3721 -0.8751
  866MOL0     C16836   6.610   0.086   5.781 -0.1413  0.3771  0.4014
  866MOL0     C16837   6.513   0.202   5.801  0.2549 -0.1181 -0.9187
  866MOL0     C16838   6.374   0.155   5.806 -0.5151 -0.2736  0.5733
  866MOL0     C16839   6.258   0.115   5.803 -0.2916  0.8145 -0.3458
  866MOL0     C16840   7.002   0.153   5.427 -0.4519  0.5175  0.3226
  866MOL0     C16841   7.108   0.144   5.331  0.4326  0.8105  0.1022
  866MOL0     C16842   7.165   0.267   5.284 -0.3691 -0.4620 -0.1718
  866MOL0     H16843   7.327  -0.138   4.919  1.8230  2.8826  1.1938
  866MOL0     H16844   7.537  -0.216   4.790 -1.2867  0.9784  0.8436
  866MOL0     H16845   7.686  -0.369   4.713 -2.4999  1.9440  1.5787
  866MOL0     H16846   7.747  -0.214   4.767 -3.2387 -0.0699  2.5038
  866MOL0     H16847   7.911  -0.480   4.768  2.6375  0.2311  1.6719
  866MOL0     H16848   7.975  -0.320   4.817 -1.3575  0.6899  0.3208
  866MOL0     H16849   7.879  -0.253   4.584 -1.6107  0.3889  3.8812
  866MOL0     H16850   7.914  -0.426   4.544 -3.0535  1.0828 -0.2777
  866MOL0     H16851   8.099  -0.257   4.488  3.0607 -0.6895  0.3495
  866MOL0     H16852   8.100  -0.235   4.661 -0.1356 -0.7695  1.3170
  866MOL0     H16853   8.171  -0.491   4.668  0.8347 -0.5942 -0.9057
  866MOL0     H16854   8.175  -0.493   4.495 -1.4099 -2.2220  1.5334
  866MOL0     H16855   8.334  -0.293   4.503  2.3410 -0.2059 -0.4110
  866MOL0     H16856   8.360  -0.330   4.670 -0.7274 -0.2440  0.0021
  866MOL0     H16857   8.532  -0.447   4.489 -1.1967  0.8771  0.3545
  866MOL0     H16858   8.389  -0.538   4.431 -2.2145  0.9420  0.2743
  866MOL0     H16859   8.514  -0.540   4.699 -0.0186 -0.2703 -0.0289
  866MOL0     H16860   8.372  -0.643   4.658  0.7488 -1.0052 -2.3664
  866MOL0     H16861   8.690  -0.739   4.743 -3.7968 -1.1661  1.7412
  866MOL0     H16862   8.812  -0.942   4.713 -1.4273 -0.2083 -0.1546
  866MOL0     H16863   8.738  -1.061   4.596 -1.0983 -0.2349 -1.6015
  866MOL0     H16864   8.901  -0.985   4.417  0.1263 -0.0239 -0.3846
  866MOL0     H16865   8.970  -0.865   4.528 -0.9954 -0.7167  2.8134
  866MOL0     H16866   8.970  -1.143   4.635  0.1407 -0.2668 -1.1256
  866MOL0     H16867   9.064  -0.994   4.675  0.2114  1.5231 -0.5040
  866MOL0     H16868   9.090  -1.145   4.421 -0.8412  2.9366 -2.1632
  866MOL0     H16869   9.183  -1.174   4.566 -3.3279 -2.6474  0.4337
  866MOL0     H16870   9.265  -1.068   4.732 -0.3253 -1.3148 -2.5067
  866MOL0     H16871   9.482  -1.085   4.843 -1.7287  1.4522  0.3379
  866MOL0     H16872   9.975  -0.971   4.897 -1.2494  0.8542 -0.7220
  866MOL0     H16873  10.214  -0.975   4.913 -0.1737 -3.7258  0.6885
  866MOL0     H16874  10.417  -0.813   4.788  1.4282  0.6556  1.4105
  866MOL0     H16875  10.423  -0.962   4.886  0.2417  3.1991  0.9517
  866MOL0     H16876  10.625  -1.028   4.792 -0.8725 -0.9417  0.0212
  866MOL0     H16877  10.616  -0.909   4.659  1.5880 -0.1254  0.3117
  866MOL0     H16878  10.778  -0.828   4.808 -1.0111 -1.8939 -0.3869
  866MOL0     H16879  10.634  -0.720   4.825  1.0828  0.5239  2.1141
  866MOL0     H16880  10.677  -0.955   5.016 -0.3976 -0.7946 -2.2434
  866MOL0     H16881  10.558  -0.827   5.007 -1.6685 -4.2062 -2.2371
  866MOL0     H16882  10.724  -0.770   5.169  1.1259 -1.0254  0.5147
  866MOL0     H16883  10.767  -0.669   5.021 -1.4165  0.6748  1.1546
  866MOL0     H16884  10.911  -0.914   5.120 -2.5457  0.0931  0.4560
  866MOL0     H16885  10.945  -0.832   4.960  0.7080 -1.9804  0.5749
  866MOL0     H16886  10.954  -0.708   5.242 -2.3855  0.8118 -1.7508
  866MOL0     H16887  10.994  -0.624   5.091  1.0416 -0.2690 -1.7368
  866MOL0     H16888  11.126  -0.848   5.233 -0.3460 -0.9108 -1.6150
  866MOL0     H16889  11.173  -0.818   5.064  2.7531  1.4660  0.6781
  866MOL0     H16890  10.225  -0.984   4.484 -0.0504 -1.7302  0.8587
  866MOL0     H16891   9.974  -0.966   4.472  0.5455 -0.3556 -0.6978
  866MOL0     H16892   9.648  -0.896   4.485  0.9200 -0.7642  0.2163
  866MOL0     H16893   9.402  -0.896   4.390 -1.8053 -0.4262  0.6137
  866MOL0     H16894   7.672  -0.394   5.164  0.1542 -0.5565  0.3902
  866MOL0     H16895   7.507  -0.284   5.282  1.0832 -0.6460 -0.4717
  866MOL0     H16896   7.094  -0.193   5.293 -2.3807 -2.3122  4.6564
  866MOL0     H16897   6.896  -0.170   5.428 -1.8086  1.2281 -0.6147
  866MOL0     H16898   6.748  -0.118   5.627 -0.3538 -1.2912 -2.0559
  866MOL0     H16899   6.698  -0.070   5.473 -0.0365  3.5649 -1.6358
  866MOL0     H16900   6.517  -0.062   5.664  0.3896  0.1670  1.7039
  866MOL0     H16901   6.538   0.086   5.572  0.6579  0.6933 -0.1152
  866MOL0     H16902   6.714   0.122   5.782  0.7515 -2.0616  0.5363
  866MOL0     H16903   6.591   0.010   5.857  1.3453 -0.6846 -0.2360
  866MOL0     H16904   6.527   0.250   5.898  0.2602 -0.3506 -0.8029
  866MOL0     H16905   6.536   0.281   5.729  2.8330  3.0489  3.0030
  866MOL0     H16906   6.160   0.072   5.802  1.4434 -3.8579  1.6158
  866MOL0     H16907   6.972   0.250   5.465  0.4969  0.3867  1.4684
  866MOL0     H16908   7.144   0.285   5.179 -2.5555  0.6837  0.3970
  866MOL0     H16909   7.123   0.352   5.339 -0.9642 -1.0607  0.3265
  866MOL0     H16910   7.273   0.273   5.298 -0.2603  1.0423 -1.4580
  867MOL0     O16911   5.498   3.725   3.802 -0.0502 -0.4524 -0.1901
  867MOL0     C16912   5.562   3.683   3.710  0.8661 -0.2233 -0.6630
  867MOL0     O16913   5.519   3.695   3.576 -0.7114 -0.5919 -0.5164
  867MOL0     C16914   5.415   3.777   3.547 -0.3355  0.0609  0.6345
  867MOL0     C16915   5.285   3.722   3.539 -0.5961  0.1541 -0.1364
  867MOL0     C16916   5.165   3.804   3.510 -0.2243  0.1113 -0.3944
  867MOL0     C16917   5.192   3.944   3.482  0.6526 -0.0158 -0.0850
  867MOL0     O16918   5.091   4.024   3.429  0.2545  0.2814 -0.2994
  867MOL0     C16919   4.975   4.041   3.517 -0.1446  0.4116 -0.1778
  867MOL0     C16920   4.904   4.178   3.503  0.1938  0.3620  0.1289
  867MOL0     C16921   4.958   4.298   3.570  0.0344 -0.8934 -0.6599
  867MOL0     C16922   5.090   4.350   3.507 -0.1380 -0.3979  0.5179
  867MOL0     C16923   5.120   4.488   3.559  0.0143  0.2497 -0.0018
  867MOL0     C16924   5.252   4.558   3.509  0.0814  0.9327  0.3563
  867MOL0     C16925   5.382   4.490   3.541 -0.0619 -0.4393 -1.2312
  867MOL0     C16926   5.503   4.578   3.497 -0.0203 -0.4662 -0.5639
  867MOL0     N16927   5.632   4.520   3.535 -0.9966  0.0210 -0.1268
  867MOL0     C16928   5.755   4.592   3.522  0.3791 -0.2123 -0.4391
  867MOL0     C16929   5.857   4.507   3.528 -0.2754  0.4289  0.4690
  867MOL0     C16930   6.004   4.540   3.550  0.2288  0.1065 -0.4952
  867MOL0     C16931   6.105   4.440   3.499  0.2596 -0.1177 -0.8405
  867MOL0     C16932   6.248   4.482   3.547  0.6491 -0.2255 -0.3408
  867MOL0     C16933   6.369   4.390   3.505  1.1025 -0.4655 -0.5581
  867MOL0     O16934   6.325   4.262   3.536 -0.3170 -0.6267 -0.2178
  867MOL0     C16935   6.413   4.163   3.559  0.1057 -1.0993  0.0861
  867MOL0     C16936   6.359   4.039   3.594 -1.4774  0.1496 -0.3782
  867MOL0     C16937   6.442   3.930   3.620 -0.3935 -0.8772  0.9267
  867MOL0     C16938   6.587   3.942   3.613  0.2910 -0.6583  0.8848
  867MOL0     C16939   6.678   3.832   3.637 -0.8580 -0.1441  0.0134
  867MOL0     O16940   6.807   3.869   3.638 -0.3017  0.6201 -0.4730
  867MOL0     C16941   6.903   3.778   3.674 -0.1833  0.2087 -0.5849
  867MOL0     C16942   6.914   3.730   3.806  0.3277  0.2175  0.4612
  867MOL0     C16943   7.009   3.631   3.835  0.4466 -0.0019  0.5558
  867MOL0     C16944   7.089   3.573   3.741 -0.0607 -0.4242  0.2297
  867MOL0     O16945   7.165   3.464   3.786  0.6130 -0.5849  0.3663
  867MOL0     C16946   7.238   3.397   3.686 -0.6302  0.0586 -0.4202
  867MOL0     C16947   7.301   3.272   3.757 -0.0405 -0.4082  1.1631
  867MOL0     C16948   7.392   3.205   3.653 -0.3456 -1.0072  0.8936
  867MOL0     C16949   7.463   3.082   3.716  0.3322  1.0394 -0.3329
  867MOL0     C16950   7.596   3.052   3.638  0.2877  0.5897 -0.0354
  867MOL0     C16951   7.638   2.900   3.647 -0.0144  0.8127  0.6866
  867MOL0     C16952   7.770   2.878   3.568  0.6965 -0.2009  0.1865
  867MOL0     C16953   7.880   2.981   3.608  0.0095 -1.2587 -0.5880
  867MOL0    Cl16954   8.047   2.907   3.598 -0.0078 -0.4884  0.1218
  867MOL0     C16955   7.080   3.625   3.608 -0.3015  0.7832  0.3213
  867MOL0     C16956   6.998   3.736   3.587 -1.4161  0.3921  0.0966
  867MOL0     O16957   6.634   3.726   3.683 -0.2400  0.1853  0.3515
  867MOL0     C16958   6.633   4.074   3.580  0.3165 -0.4128 -0.2391
  867MOL0     C16959   6.553   4.178   3.546 -0.0494 -0.6691 -0.2135
  867MOL0     N16960   5.794   4.382   3.550 -0.0219 -0.8984 -0.3415
  867MOL0     N16961   5.661   4.390   3.557 -0.0441  0.5041 -0.7285
  867MOL0     C16962   5.327   3.994   3.476  0.5958  0.8746  0.3685
  867MOL0     C16963   5.436   3.908   3.508  0.1984  0.9745 -0.2728
  867MOL0     C16964   5.697   3.620   3.717  0.6024  0.4025  0.2552
  867MOL0     C16965   5.754   3.575   3.599 -0.2778  0.0348  0.3493
  867MOL0     C16966   5.883   3.509   3.601  0.2743  0.1776 -0.8099
  867MOL0     C16967   5.952   3.488   3.723 -0.4504  0.5467 -0.4921
  867MOL0     O16968   6.071   3.422   3.721  0.4597  0.9394 -0.2143
  867MOL0     C16969   6.169   3.425   3.825 -0.2676 -1.0325 -0.1480
  867MOL0     C16970   6.298   3.359   3.778  0.4754 -0.1167  0.9040
  867MOL0     C16971   6.364   3.456   3.679  0.3599 -0.1965  0.5875
  867MOL0     C16972   6.497   3.420   3.616  0.3470 -0.5843  0.7270
  867MOL0     C16973   6.469   3.331   3.505  0.8717 -1.1950 -0.3523
  867MOL0     C16974   6.447   3.248   3.418 -0.2180  0.2598 -0.5361
  867MOL0     C16975   5.890   3.526   3.842 -0.0490 -0.4009  0.1190
  867MOL0     C16976   5.764   3.595   3.839  0.1615 -0.6799  0.8874
  867MOL0     C16977   5.712   3.633   3.976  0.5013  0.2458 -0.3744
  867MOL0     H16978   5.274   3.615   3.555 -1.7176 -0.2842 -3.0939
  867MOL0     H16979   5.065   3.763   3.501  0.3729 -1.3522 -0.6260
  867MOL0     H16980   4.898   3.968   3.490  2.4612 -3.2401  1.3442
  867MOL0     H16981   4.979   4.017   3.624  0.5490  0.2759 -0.2310
  867MOL0     H16982   4.810   4.159   3.554  0.7630 -2.5834  0.2704
  867MOL0     H16983   4.900   4.201   3.396  0.6115  1.7245  0.3833
  867MOL0     H16984   4.962   4.285   3.678 -0.4520 -0.5607 -0.5953
  867MOL0     H16985   4.888   4.382   3.558 -0.0424 -0.8276  0.2037
  867MOL0     H16986   5.162   4.274   3.539  1.8591  0.4524 -1.6061
  867MOL0     H16987   5.085   4.352   3.397 -0.0706 -0.4570  0.5132
  867MOL0     H16988   5.034   4.552   3.538  0.8461  1.0321 -1.1622
  867MOL0     H16989   5.130   4.472   3.667 -0.6915 -1.3697 -0.1414
  867MOL0     H16990   5.246   4.557   3.400  0.6900 -0.2039  0.3275
  867MOL0     H16991   5.257   4.662   3.545 -1.2333  0.5212  1.8306
  867MOL0     H16992   5.377   4.395   3.487 -0.9078 -2.5597  2.2876
  867MOL0     H16993   5.384   4.475   3.649 -2.4446 -2.3665 -1.3750
  867MOL0     H16994   5.494   4.593   3.389 -0.3112  0.8968 -0.3610
  867MOL0     H16995   5.494   4.676   3.544 -0.1426 -1.7331  2.2945
  867MOL0     H16996   5.765   4.699   3.508  1.2174 -0.0229  1.3816
  867MOL0     H16997   6.019   4.640   3.508  0.1518  0.4537  0.2826
  867MOL0     H16998   6.014   4.551   3.659 -1.0270 -0.1753 -0.3303
  867MOL0     H16999   6.079   4.339   3.532  1.4399 -1.6222 -4.0516
  867MOL0     H17000   6.096   4.444   3.390 -3.2256 -0.7333 -0.7060
  867MOL0     H17001   6.260   4.482   3.655 -1.4290  1.4057 -0.0624
  867MOL0     H17002   6.260   4.587   3.518 -0.8777  0.3693  1.0693
  867MOL0     H17003   6.458   4.418   3.562 -0.1332 -1.3460  1.9352
  867MOL0     H17004   6.390   4.401   3.398  1.8573  0.9444 -0.2929
  867MOL0     H17005   6.251   4.027   3.603 -1.6734  1.7948 -0.0970
  867MOL0     H17006   6.395   3.833   3.635  0.2112 -1.4393 -0.5630
  867MOL0     H17007   6.850   3.771   3.883  1.2983  0.7696  0.9892
  867MOL0     H17008   7.019   3.588   3.934  1.5325  1.7405  1.2594
  867MOL0     H17009   7.173   3.375   3.601  0.0073 -0.2140 -0.8496
  867MOL0     H17010   7.320   3.459   3.649  0.1585 -0.2305  0.8028
  867MOL0     H17011   7.355   3.299   3.848  0.8465 -0.7246  0.7434
  867MOL0     H17012   7.218   3.207   3.788 -0.5829  0.1165  0.8169
  867MOL0     H17013   7.326   3.168   3.574 -0.2730 -2.5072  1.5099
  867MOL0     H17014   7.463   3.281   3.617 -1.5756 -1.1972 -2.2807
  867MOL0     H17015   7.392   2.999   3.713  1.7348 -0.5228  3.4861
  867MOL0     H17016   7.486   3.089   3.823  0.1010 -1.2112 -0.0766
  867MOL0     H17017   7.672   3.123   3.673  1.0902  0.4301 -1.4016
  867MOL0     H17018   7.572   3.070   3.533 -2.2600 -4.7604 -0.7038
  867MOL0     H17019   7.655   2.861   3.747  0.8834 -2.6830 -0.7046
  867MOL0     H17020   7.559   2.843   3.598  0.1116  0.8311  0.4608
  867MOL0     H17021   7.752   2.878   3.460  0.2626  0.1052  0.2541
  867MOL0     H17022   7.810   2.777   3.583 -1.3998 -0.6473  3.9282
  867MOL0     H17023   7.886   3.080   3.563  2.7356  0.1439  2.4516
  867MOL0     H17024   7.876   3.002   3.715  1.6600 -2.1222 -0.3336
  867MOL0     H17025   7.150   3.595   3.531 -0.5768  0.1829  0.2959
  867MOL0     H17026   7.011   3.784   3.491  0.7975 -0.1483  0.0630
  867MOL0     H17027   6.740   4.090   3.570  0.0372  1.0888 -1.1341
  867MOL0     H17028   6.599   4.269   3.509  1.2546 -0.8059  0.9914
  867MOL0     H17029   5.339   4.101   3.466 -1.2172  1.0554 -0.3189
  867MOL0     H17030   5.535   3.951   3.522 -0.2599  3.1637 -2.8349
  867MOL0     H17031   5.702   3.587   3.505  0.4139 -0.6325 -0.1352
  867MOL0     H17032   5.916   3.469   3.506 -0.9166 -0.2818 -1.0561
  867MOL0     H17033   6.129   3.386   3.918 -0.1822  2.0434  1.3024
  867MOL0     H17034   6.197   3.528   3.852  1.8395 -1.2477 -1.2511
  867MOL0     H17035   6.281   3.260   3.736  1.6870  0.7448 -1.8044
  867MOL0     H17036   6.374   3.353   3.857  3.4836 -0.8775 -1.8772
  867MOL0     H17037   6.384   3.546   3.737 -1.2765 -0.3822  1.5239
  867MOL0     H17038   6.295   3.493   3.602 -0.2181  0.1211  1.2524
  867MOL0     H17039   6.547   3.509   3.578  1.1235 -0.8908  1.0115
  867MOL0     H17040   6.558   3.375   3.694  3.9428  0.3268 -1.3179
  867MOL0     H17041   6.434   3.173   3.342  0.5649  0.2200 -0.6340
  867MOL0     H17042   5.939   3.499   3.935  1.5500  0.5984 -0.3894
  867MOL0     H17043   5.717   3.740   3.998 -1.1094  0.0776  1.0295
  867MOL0     H17044   5.606   3.606   3.987  0.7512  0.0013  1.9797
  867MOL0     H17045   5.765   3.587   4.060  0.9598  1.5576  0.0823
  868MOL0     O17046   6.132   7.218   2.079 -0.1672 -0.0450  0.7257
  868MOL0     C17047   6.112   7.118   2.151  0.0122 -0.3955  0.2413
  868MOL0     O17048   6.194   7.066   2.239 -0.7030 -0.2172 -0.0024
  868MOL0     C17049   6.334   7.096   2.236  0.0044 -0.2059  0.1866
  868MOL0     C17050   6.378   7.211   2.300  0.4863  0.1020  0.2044
  868MOL0     C17051   6.515   7.230   2.331  0.1479 -0.1472  0.3378
  868MOL0     C17052   6.608   7.125   2.311  0.0069  0.0715 -0.9269
  868MOL0     O17053   6.745   7.151   2.343  0.4749 -0.5142 -0.5299
  868MOL0     C17054   6.837   7.048   2.349  0.0164 -0.3628 -0.6134
  868MOL0     C17055   6.972   7.117   2.379 -0.1019 -0.4532  0.2645
  868MOL0     C17056   7.018   7.204   2.264 -0.4687 -0.2016  0.6162
  868MOL0     C17057   7.157   7.277   2.313 -0.0522  0.4525  0.4251
  868MOL0     C17058   7.293   7.201   2.313  0.5489  0.6028 -0.3960
  868MOL0     C17059   7.415   7.282   2.339 -0.0386 -1.0161 -0.2672
  868MOL0     C17060   7.541   7.200   2.387  1.0779 -0.0410 -0.3266
  868MOL0     C17061   7.536   7.168   2.534 -0.3630 -0.2843 -0.4668
  868MOL0     N17062   7.663   7.094   2.559 -0.5377  0.9216  0.4944
  868MOL0     C17063   7.790   7.143   2.585 -1.2996 -0.1017 -0.5023
  868MOL0     C17064   7.878   7.038   2.555  0.0551  0.2399 -0.0547
  868MOL0     C17065   8.032   7.046   2.568  0.2853  0.2361 -0.0106
  868MOL0     C17066   8.095   6.924   2.634 -0.0478 -0.3639  0.0388
  868MOL0     C17067   8.247   6.921   2.619 -0.4694 -0.1769  0.2229
  868MOL0     C17068   8.311   6.798   2.693  0.5388 -0.0803 -0.2240
  868MOL0     O17069   8.421   6.737   2.624  0.1590  0.0441 -0.3197
  868MOL0     C17070   8.554   6.784   2.638  0.0373 -0.2958  0.0734
  868MOL0     C17071   8.592   6.899   2.703 -0.3572 -0.2135 -0.5091
  868MOL0     C17072   8.725   6.915   2.741  0.1304 -0.0133 -1.1447
  868MOL0     C17073   8.822   6.822   2.711  0.2823  0.2264  0.9525
  868MOL0     C17074   8.961   6.851   2.748 -0.3735 -0.0795  0.1433
  868MOL0     O17075   8.993   6.976   2.811  0.1917  0.5595 -0.8240
  868MOL0     C17076   9.119   6.987   2.865 -0.9016 -0.2781 -0.4201
  868MOL0     C17077   9.181   7.102   2.821 -1.1761  0.0902  0.6449
  868MOL0     C17078   9.307   7.140   2.872 -0.0982  0.9414  0.1285
  868MOL0     C17079   9.383   7.060   2.958 -0.2133 -0.6256  0.9701
  868MOL0     O17080   9.505   7.089   3.007  0.2985 -0.1616  0.0838
  868MOL0     C17081   9.582   7.167   2.918 -0.0028  0.4183 -0.7036
  868MOL0     C17082   9.725   7.118   2.920  1.2796  0.7391  0.2397
  868MOL0     C17083   9.806   7.173   2.802 -0.0208  0.1246 -0.4285
  868MOL0     C17084   9.944   7.121   2.803 -0.2624 -0.1677 -0.2197
  868MOL0     C17085   9.994   7.131   2.666 -0.1350  0.1644 -0.1157
  868MOL0     C17086  10.143   7.090   2.665  0.0318  0.1361  0.5886
  868MOL0     C17087  10.217   7.097   2.525  0.3964 -0.2299  0.0312
  868MOL0     C17088  10.167   6.980   2.428  0.1552  0.0745  0.3354
  868MOL0    Cl17089  10.244   7.001   2.265 -0.0511 -0.1434  0.2896
  868MOL0     C17090   9.318   6.942   2.995 -0.0935 -0.5363 -0.3399
  868MOL0     C17091   9.192   6.900   2.946 -0.2075 -0.8240  0.4599
  868MOL0     O17092   9.042   6.764   2.730  0.3087  0.2565  0.3744
  868MOL0     C17093   8.786   6.706   2.633 -0.0909 -0.3150 -0.1169
  868MOL0     C17094   8.648   6.690   2.609 -0.0448  0.9909 -0.0492
  868MOL0     N17095   7.800   6.934   2.510 -1.1126  0.7737 -0.1384
  868MOL0     N17096   7.687   6.971   2.514 -0.1376  0.9102 -0.5458
  868MOL0     C17097   6.563   7.011   2.249 -0.0665 -0.2471  0.5002
  868MOL0     C17098   6.426   6.993   2.219 -0.1112 -0.1047 -0.3044
  868MOL0     C17099   5.979   7.052   2.126 -0.4937  0.4245  0.4264
  868MOL0     C17100   5.959   6.915   2.164  1.1773  0.5555  0.2609
  868MOL0     C17101   5.840   6.843   2.147  0.0682  0.0732  0.3369
  868MOL0     C17102   5.725   6.901   2.099 -0.0653  0.2332 -0.7978
  868MOL0     O17103   5.604   6.831   2.100  0.3304 -0.2289 -0.7480
  868MOL0     C17104   5.600   6.698   2.155  1.3951  0.4206 -0.1824
  868MOL0     C17105   5.452   6.676   2.192  0.2269  0.7415 -0.4501
  868MOL0     C17106   5.433   6.553   2.282 -0.0981  0.2493 -0.6254
  868MOL0     C17107   5.380   6.431   2.196 -1.2005  0.8400  0.0228
  868MOL0     C17108   5.492   6.361   2.137 -1.1484 -0.5695  0.0975
  868MOL0     C17109   5.601   6.326   2.093  0.4189  0.1158 -0.1549
  868MOL0     C17110   5.734   7.036   2.059 -0.4550  0.6162 -1.1401
  868MOL0     C17111   5.862   7.113   2.072  0.0029  0.2574  0.4299
  868MOL0     C17112   5.870   7.244   1.998 -0.1581  0.2285  0.7887
  868MOL0     H17113   6.317   7.293   2.334 -0.0744  0.8376 -2.3838
  868MOL0     H17114   6.550   7.314   2.391  0.6913 -1.8264  2.5361
  868MOL0     H17115   6.813   6.971   2.422  0.1914  1.1419  1.0936
  868MOL0     H17116   6.855   7.006   2.249 -0.3558  1.3852 -1.4564
  868MOL0     H17117   7.050   7.042   2.396  1.3527  0.7669 -0.7777
  868MOL0     H17118   6.956   7.165   2.476 -1.4575 -2.4267  1.1045
  868MOL0     H17119   6.952   7.289   2.243  0.3527 -0.0219 -1.5983
  868MOL0     H17120   7.057   7.156   2.173  1.8272  0.2145  1.3137
  868MOL0     H17121   7.173   7.358   2.240  2.5696 -0.5531 -0.2445
  868MOL0     H17122   7.137   7.330   2.407 -1.4446 -1.6291  1.3607
  868MOL0     H17123   7.283   7.125   2.390  1.0001  3.0874  2.3031
  868MOL0     H17124   7.299   7.146   2.219 -1.5929  0.1097 -0.2877
  868MOL0     H17125   7.443   7.345   2.254  3.3391  0.0836  1.4471
  868MOL0     H17126   7.385   7.349   2.420  1.6267 -0.4505 -0.0771
  868MOL0     H17127   7.627   7.256   2.350  1.2352 -0.7878 -1.1193
  868MOL0     H17128   7.530   7.107   2.330 -1.4117 -0.9324  1.4426
  868MOL0     H17129   7.521   7.255   2.599 -0.0803  1.9641 -3.2373
  868MOL0     H17130   7.457   7.094   2.552 -1.1213  0.1625 -1.8796
  868MOL0     H17131   7.806   7.244   2.619 -1.7609  0.3911 -1.6868
  868MOL0     H17132   8.066   7.043   2.464 -2.6985 -3.0077 -1.1031
  868MOL0     H17133   8.075   7.130   2.624  1.0135 -1.6056  2.3745
  868MOL0     H17134   8.061   6.915   2.738 -2.6641  2.0431 -0.5071
  868MOL0     H17135   8.050   6.835   2.588  1.0582 -0.3658 -1.0895
  868MOL0     H17136   8.290   7.016   2.654  2.5607 -1.4069  0.1732
  868MOL0     H17137   8.276   6.900   2.516  0.9957  0.2284  0.5280
  868MOL0     H17138   8.237   6.717   2.695 -0.5359  0.7834 -2.3765
  868MOL0     H17139   8.338   6.834   2.793 -2.4568  0.5454  0.4350
  868MOL0     H17140   8.519   6.974   2.733 -0.1492 -0.5115  0.8207
  868MOL0     H17141   8.745   7.006   2.796  1.7178  0.3015 -2.1768
  868MOL0     H17142   9.126   7.169   2.755 -0.9109  0.3492  0.6844
  868MOL0     H17143   9.338   7.235   2.832 -0.2424  0.6935 -0.5908
  868MOL0     H17144   9.555   7.167   2.812 -1.1949 -0.4349 -0.4240
  868MOL0     H17145   9.573   7.270   2.953 -3.1253  0.6912 -1.9883
  868MOL0     H17146   9.760   7.146   3.020 -1.4393 -1.6888  2.0363
  868MOL0     H17147   9.723   7.008   2.919 -0.1278  0.7460 -0.9881
  868MOL0     H17148   9.757   7.125   2.717  2.9380 -2.2144 -0.9697
  868MOL0     H17149   9.799   7.282   2.788 -0.0662  0.2520  0.5251
  868MOL0     H17150   9.945   7.015   2.832 -0.4786 -0.1676 -0.2066
  868MOL0     H17151  10.011   7.169   2.875  1.3994 -2.5909 -0.0436
  868MOL0     H17152   9.985   7.236   2.636 -1.1432 -0.2223 -1.2821
  868MOL0     H17153   9.935   7.071   2.597 -1.8826  1.0150  0.5832
  868MOL0     H17154  10.194   7.166   2.725 -0.8439  0.9944  0.2567
  868MOL0     H17155  10.149   6.987   2.703 -0.5452  0.4190  1.4764
  868MOL0     H17156  10.322   7.074   2.546  1.0337  2.5828  0.2663
  868MOL0     H17157  10.209   7.196   2.480 -0.5696 -0.7492 -1.0042
  868MOL0     H17158  10.201   6.883   2.466  0.0499  0.2592  0.9247
  868MOL0     H17159  10.058   6.970   2.420  0.0999  0.4899  0.5351
  868MOL0     H17160   9.364   6.862   3.051 -2.6157 -1.6066  0.3434
  868MOL0     H17161   9.149   6.804   2.974 -0.8066 -0.7540 -0.1717
  868MOL0     H17162   8.858   6.630   2.608  1.8806  0.4789  2.6764
  868MOL0     H17163   8.605   6.599   2.569  0.4297  0.3217  0.9054
  868MOL0     H17164   6.627   6.926   2.226 -3.2616 -2.0528 -2.9853
  868MOL0     H17165   6.394   6.902   2.170 -0.4362  0.3462 -0.9398
  868MOL0     H17166   6.043   6.868   2.213  0.5782  1.4979  2.3108
  868MOL0     H17167   5.839   6.745   2.194 -0.3774 -1.3598 -2.4334
  868MOL0     H17168   5.653   6.688   2.250 -2.0029  1.2017  2.0017
  868MOL0     H17169   5.627   6.619   2.085 -1.6663 -0.8621 -0.1133
  868MOL0     H17170   5.388   6.683   2.103  0.3036 -2.8098 -0.9543
  868MOL0     H17171   5.424   6.761   2.255 -2.9307 -1.3158  1.1731
  868MOL0     H17172   5.355   6.568   2.357  0.3474  0.1357 -0.1358
  868MOL0     H17173   5.517   6.517   2.341  0.2699  0.0702 -1.2480
  868MOL0     H17174   5.322   6.363   2.259  1.4973 -0.4198  1.3279
  868MOL0     H17175   5.325   6.472   2.111 -2.1353  0.7346  0.5622
  868MOL0     H17176   5.695   6.325   2.043  1.2730  1.0348  1.3449
  868MOL0     H17177   5.647   7.090   2.024 -0.2621  0.8699 -1.2328
  868MOL0     H17178   5.773   7.266   1.952 -0.2830  0.3044  1.0868
  868MOL0     H17179   5.901   7.329   2.060 -2.3531  2.9650 -1.5399
  868MOL0     H17180   5.936   7.232   1.911  0.2733  0.6061  1.0596
  869MOL0     O17181   3.581   8.609   3.492  0.3130 -0.6215 -0.0416
  869MOL0     C17182   3.476   8.650   3.543  0.6804  0.2235  0.5110
  869MOL0     O17183   3.438   8.777   3.547  0.3083 -0.2022  0.0656
  869MOL0     C17184   3.541   8.869   3.528  0.1776 -1.1389  0.6090
  869MOL0     C17185   3.531   8.961   3.421  0.2832  0.7523 -0.4318
  869MOL0     C17186   3.625   9.059   3.407  0.4215 -0.2997 -0.2644
  869MOL0     C17187   3.741   9.073   3.496  0.4392 -0.4028  0.7696
  869MOL0     O17188   3.843   9.158   3.469 -0.0959 -0.2696 -0.3226
  869MOL0     C17189   3.832   9.233   3.341 -0.8964 -0.0096 -0.5115
  869MOL0     C17190   3.957   9.310   3.310 -0.7597  0.0297 -0.0971
  869MOL0     C17191   3.951   9.451   3.384 -0.0407  0.3546  0.1853
  869MOL0     C17192   4.068   9.538   3.337 -0.4108 -0.2293  0.5622
  869MOL0     C17193   4.058   9.680   3.400 -0.5722  0.7780 -0.1619
  869MOL0     C17194   4.050   9.674   3.556 -0.1900  0.6326  0.5687
  869MOL0     C17195   4.111   9.806   3.617 -0.8533  0.0916 -0.1979
  869MOL0     C17196   4.268   9.787   3.628  0.6819 -0.4417  0.4704
  869MOL0     N17197   4.329   9.903   3.691  0.1988 -0.5241 -0.3919
  869MOL0     C17198   4.435   9.973   3.642 -0.7238 -0.5166 -0.0899
  869MOL0     C17199   4.448  10.073   3.736  0.6734  0.1617 -0.3463
  869MOL0     C17200   4.543  10.194   3.715 -1.1214  0.1031 -0.8587
  869MOL0     C17201   4.692  10.158   3.730 -0.1967 -0.1838  0.0403
  869MOL0     C17202   4.735  10.108   3.865 -0.3064 -0.4427  0.0147
  869MOL0     C17203   4.873  10.063   3.842  0.6789 -0.4586  0.2048
  869MOL0     O17204   4.957  10.175   3.804 -0.1050 -0.6964  0.0095
  869MOL0     C17205   5.096  10.151   3.810  0.5867 -0.3117 -0.6825
  869MOL0     C17206   5.179  10.258   3.827 -0.1364 -0.2043  0.2376
  869MOL0     C17207   5.317  10.253   3.815 -1.0262  0.5392 -0.1283
  869MOL0     C17208   5.380  10.129   3.787 -0.8265 -0.7039 -0.0034
  869MOL0     C17209   5.520  10.125   3.753  0.7796 -0.3531  0.5823
  869MOL0     O17210   5.583  10.239   3.730  0.0392  0.3272 -0.0868
  869MOL0     C17211   5.717  10.238   3.693 -0.4550  0.0972 -0.5583
  869MOL0     C17212   5.727  10.238   3.561  0.8858  0.3749 -0.3787
  869MOL0     C17213   5.854  10.232   3.506  0.5093 -0.5515  0.1525
  869MOL0     C17214   5.969  10.254   3.586 -0.3424  1.0331  0.1257
  869MOL0     O17215   6.101  10.261   3.544  0.0187  0.2897 -0.7451
  869MOL0     C17216   6.126  10.279   3.399  0.3540  0.1167 -0.6254
  869MOL0     C17217   6.274  10.241   3.393  0.0825  0.4123 -0.0210
  869MOL0     C17218   6.338  10.245   3.254  0.5213  0.8556 -0.4103
  869MOL0     C17219   6.486  10.218   3.265 -0.2847  0.5763 -0.7073
  869MOL0     C17220   6.573  10.234   3.138 -0.5101  0.6548  0.4981
  869MOL0     C17221   6.720  10.202   3.180  0.7339  0.4484  1.2025
  869MOL0     C17222   6.825  10.260   3.080 -0.7408 -0.3751 -0.1837
  869MOL0     C17223   6.968  10.209   3.079 -0.8189 -0.2291  0.4019
  869MOL0    Cl17224   7.033  10.202   3.244  0.0395  0.0408 -0.4417
  869MOL0     C17225   5.949  10.271   3.724  0.1152  1.0429 -0.2488
  869MOL0     C17226   5.823  10.261   3.779  0.0098  0.0396  0.1076
  869MOL0     O17227   5.568  10.012   3.763  0.0053  0.1144 -0.2112
  869MOL0     C17228   5.301  10.017   3.776  0.0890  0.3464  0.9753
  869MOL0     C17229   5.162  10.029   3.781 -0.4492  0.0215 -0.0441
  869MOL0     N17230   4.370  10.042   3.849  0.2383 -0.3154  0.6860
  869MOL0     N17231   4.299   9.939   3.819 -0.4033 -0.9016  0.1206
  869MOL0     C17232   3.733   8.994   3.612 -0.0558 -0.4447 -1.3878
  869MOL0     C17233   3.643   8.887   3.624  0.1689 -0.1536 -0.3295
  869MOL0     C17234   3.373   8.545   3.579 -0.1047 -0.7395  0.7608
  869MOL0     C17235   3.232   8.570   3.545 -0.2200 -0.0456  0.0507
  869MOL0     C17236   3.135   8.466   3.573 -0.7527 -0.1989 -0.6150
  869MOL0     C17237   3.181   8.344   3.633 -0.3038  0.4289 -0.8989
  869MOL0     O17238   3.102   8.230   3.670 -0.4614 -0.3031 -0.2603
  869MOL0     C17239   2.968   8.229   3.620 -0.2922  0.2919  0.0413
  869MOL0     C17240   2.879   8.104   3.650  0.1929  0.1877 -0.5040
  869MOL0     C17241   2.895   8.059   3.796  0.9988 -0.2076  0.0008
  869MOL0     C17242   2.781   7.954   3.849  0.2533  0.3097  0.1677
  869MOL0     C17243   2.646   8.009   3.852  0.2233 -0.2412  0.4158
  869MOL0     C17244   2.537   8.053   3.821 -0.3034 -0.2428 -0.5548
  869MOL0     C17245   3.312   8.330   3.656  0.3161  0.9846  0.5054
  869MOL0     C17246   3.409   8.416   3.626 -0.0416 -0.5378 -0.2244
  869MOL0     C17247   3.552   8.377   3.657  0.1031  0.6026 -0.5832
  869MOL0     H17248   3.450   8.955   3.349  1.8455 -1.9747 -2.1541
  869MOL0     H17249   3.607   9.137   3.333 -0.1580  0.4067  0.6071
  869MOL0     H17250   3.824   9.160   3.260 -0.9992  0.2901 -0.7733
  869MOL0     H17251   3.750   9.305   3.333 -0.6277  0.1260 -2.5368
  869MOL0     H17252   3.966   9.324   3.202  0.9540 -1.4693 -0.1891
  869MOL0     H17253   4.045   9.258   3.349  0.0202  1.8953  0.7667
  869MOL0     H17254   3.943   9.446   3.493 -2.2744 -1.0384  0.0331
  869MOL0     H17255   3.858   9.500   3.352  0.6108  1.3509 -0.2090
  869MOL0     H17256   4.162   9.492   3.368 -0.1707 -0.2070 -0.1111
  869MOL0     H17257   4.069   9.554   3.229 -3.0301  1.1203  0.6622
  869MOL0     H17258   4.150   9.729   3.367  0.3115 -0.0689  0.9512
  869MOL0     H17259   3.970   9.732   3.363 -2.2417 -0.7603  1.4381
  869MOL0     H17260   3.947   9.686   3.589  0.2221  0.8655  1.8072
  869MOL0     H17261   4.099   9.581   3.587 -1.3618 -0.0834  0.3271
  869MOL0     H17262   4.069   9.824   3.716  0.6227 -0.7973  0.6385
  869MOL0     H17263   4.093   9.884   3.543 -0.8028 -0.6767 -1.0376
  869MOL0     H17264   4.293   9.703   3.693 -0.4010 -3.1095 -2.3097
  869MOL0     H17265   4.307   9.766   3.527 -0.7040  2.4178 -0.7717
  869MOL0     H17266   4.506   9.959   3.562 -0.5411 -0.2435  0.0231
  869MOL0     H17267   4.526  10.241   3.618 -0.1553 -1.4686 -1.8257
  869MOL0     H17268   4.510  10.264   3.793 -0.1441 -1.1824  0.7892
  869MOL0     H17269   4.714  10.078   3.659 -0.8249  0.7142 -1.2108
  869MOL0     H17270   4.747  10.251   3.708 -1.6004  0.2302 -2.0625
  869MOL0     H17271   4.671  10.029   3.907 -1.0308  0.9764  1.7024
  869MOL0     H17272   4.746  10.185   3.942  1.4528 -1.0882  0.4662
  869MOL0     H17273   4.890   9.975   3.779  2.9395 -1.9749  2.7279
  869MOL0     H17274   4.907  10.025   3.939 -0.5743 -1.7115  0.1719
  869MOL0     H17275   5.141  10.356   3.857  3.2475  0.2862  3.6706
  869MOL0     H17276   5.370  10.346   3.832 -0.3984 -0.2537  2.8713
  869MOL0     H17277   5.642  10.228   3.494  1.9917  0.9814 -1.9279
  869MOL0     H17278   5.855  10.234   3.397 -0.1988 -0.6021  0.1387
  869MOL0     H17279   6.068  10.212   3.334  1.1506 -0.3496 -0.8662
  869MOL0     H17280   6.111  10.376   3.351 -2.1716 -0.6566 -1.6096
  869MOL0     H17281   6.329  10.300   3.468 -2.5737  1.5346  1.1854
  869MOL0     H17282   6.283  10.135   3.421 -1.0359 -0.0854 -1.4275
  869MOL0     H17283   6.300  10.158   3.200  0.6681  0.5144  0.0273
  869MOL0     H17284   6.312  10.335   3.199 -0.9409  0.1391 -0.9283
  869MOL0     H17285   6.490  10.120   3.313  2.3347  1.6880  1.5604
  869MOL0     H17286   6.526  10.279   3.346  0.7064 -0.1828 -0.6131
  869MOL0     H17287   6.557  10.336   3.101 -0.1940 -0.5574 -3.4001
  869MOL0     H17288   6.533  10.173   3.057 -2.8481  0.5552  1.6498
  869MOL0     H17289   6.756  10.239   3.276  0.7470  2.1497  0.5886
  869MOL0     H17290   6.727  10.094   3.167 -2.2950  0.5263 -3.4061
  869MOL0     H17291   6.836  10.365   3.107 -0.1357 -0.8280  1.4694
  869MOL0     H17292   6.799  10.256   2.974  0.6949  0.8924 -0.6032
  869MOL0     H17293   6.962  10.106   3.042 -0.6669 -0.1280  0.0943
  869MOL0     H17294   7.029  10.265   3.009 -1.0615  0.5492  0.7925
  869MOL0     H17295   6.034  10.287   3.789  2.6659  0.4929 -3.1785
  869MOL0     H17296   5.822  10.275   3.887 -2.1436  0.8982  0.0337
  869MOL0     H17297   5.344   9.925   3.740  0.0294  0.7579 -0.1940
  869MOL0     H17298   5.111   9.935   3.764 -0.1398 -0.1747  0.1070
  869MOL0     H17299   3.813   9.001   3.685  1.6928 -2.7108 -2.8912
  869MOL0     H17300   3.660   8.823   3.710  1.3956 -1.2574 -1.3297
  869MOL0     H17301   3.211   8.663   3.495 -1.2456  0.5606  1.5538
  869MOL0     H17302   3.030   8.480   3.551 -0.3552 -0.6764 -3.1313
  869MOL0     H17303   2.965   8.238   3.511  3.9022 -2.6239 -0.5375
  869MOL0     H17304   2.912   8.314   3.659  0.2679  1.1751 -1.0368
  869MOL0     H17305   2.908   8.027   3.578 -0.5168  2.0530 -2.9221
  869MOL0     H17306   2.772   8.123   3.636 -0.1014  1.2560  2.5345
  869MOL0     H17307   2.892   8.147   3.861  4.3433  0.6024 -0.7436
  869MOL0     H17308   2.997   8.023   3.809  1.3007  1.0818  1.5387
  869MOL0     H17309   2.778   7.876   3.771  0.4426 -1.4644  1.8567
  869MOL0     H17310   2.810   7.918   3.948 -0.8321  2.2184  1.2373
  869MOL0     H17311   2.437   8.087   3.803 -0.1994  0.8109  0.6666
  869MOL0     H17312   3.337   8.237   3.706  0.5138  0.8274  0.1118
  869MOL0     H17313   3.561   8.280   3.706 -5.2251  0.9990  1.8324
  869MOL0     H17314   3.617   8.380   3.569 -0.1060  2.4436 -0.7121
  869MOL0     H17315   3.592   8.450   3.728  0.0435  0.4450 -0.3858
  870MOL0     O17316  11.067   1.447   8.183  0.3029 -0.3402 -0.2208
  870MOL0     C17317  11.066   1.469   8.067  0.6817 -0.9989  0.5922
  870MOL0     O17318  11.174   1.516   7.998  0.1989  0.6577  0.0368
  870MOL0     C17319  11.297   1.488   8.044  0.1663  0.3242 -0.5709
  870MOL0     C17320  11.353   1.554   8.158 -0.0599  0.2023 -0.2769
  870MOL0     C17321  11.470   1.500   8.214  0.1220  0.2659 -0.1228
  870MOL0     C17322  11.539   1.390   8.157 -0.0671  0.2017  0.3975
  870MOL0     O17323  11.656   1.341   8.208  0.9027  0.3294 -0.1197
  870MOL0     C17324  11.750   1.427   8.281 -0.5081  0.0444  0.7718
  870MOL0     C17325  11.722   1.410   8.428  0.4253  0.2365 -0.7410
  870MOL0     C17326  11.807   1.506   8.520 -0.9565  0.5240 -0.8681
  870MOL0     C17327  11.948   1.454   8.550  0.0752  0.0466  0.3968
  870MOL0     C17328  12.019   1.544   8.656  0.6884  0.8543 -0.3981
  870MOL0     C17329  12.147   1.482   8.711  0.3482  0.4807 -0.4256
  870MOL0     C17330  12.201   1.536   8.842 -0.5117  0.1769  0.3560
  870MOL0     C17331  12.262   1.672   8.813 -0.5825 -0.2630  0.0312
  870MOL0     N17332  12.317   1.722   8.946  0.4997  0.3430  0.2501
  870MOL0     C17333  12.421   1.660   9.010  0.6168 -0.6018  0.1371
  870MOL0     C17334  12.424   1.731   9.123 -0.1589 -0.7503  0.4116
  870MOL0     C17335  12.497   1.691   9.247 -0.1966 -0.0527 -0.2348
  870MOL0     C17336  12.620   1.784   9.267 -0.8232  0.2539  0.0516
  870MOL0     C17337  12.676   1.764   9.404  0.5614  0.6126 -0.3679
  870MOL0     C17338  12.807   1.841   9.428 -0.0900  0.7043  0.2829
  870MOL0     O17339  12.852   1.802   9.555  0.3292  0.4099 -0.7574
  870MOL0     C17340  12.983   1.824   9.597 -0.1661 -0.7890 -0.0831
  870MOL0     C17341  13.077   1.914   9.532 -0.6812 -0.9798 -0.3744
  870MOL0     C17342  13.198   1.934   9.587 -0.8219 -0.2813 -0.0800
  870MOL0     C17343  13.237   1.864   9.699 -1.1497  0.0012  0.3524
  870MOL0     C17344  13.368   1.903   9.763 -0.2218  0.6071 -0.3773
  870MOL0     O17345  13.412   1.802   9.840 -0.1765 -0.0640  0.0024
  870MOL0     C17346  13.526   1.813   9.912  0.2596 -0.2144 -0.1770
  870MOL0     C17347  13.608   1.697   9.919  0.8964 -0.4105  0.2329
  870MOL0     C17348  13.732   1.704   9.993 -0.4636  0.2588 -0.5116
  870MOL0     C17349  13.782   1.819  10.045  1.2061  0.0993  0.6414
  870MOL0     O17350  13.900   1.803  10.105  0.7408 -0.5105 -0.0312
  870MOL0     C17351  13.963   1.916  10.159 -0.1707  0.3380  0.4918
  870MOL0     C17352  14.100   1.893  10.224 -0.2871 -0.1245 -0.8503
  870MOL0     C17353  14.223   1.845  10.151  0.2331 -0.3079 -0.0855
  870MOL0     C17354  14.291   1.950  10.073 -0.0932  0.4624  0.5771
  870MOL0     C17355  14.399   1.883   9.981  0.8507  0.1835  0.6179
  870MOL0     C17356  14.444   1.992   9.889 -0.1408  0.5765  0.1579
  870MOL0     C17357  14.505   1.919   9.767 -0.4312 -0.0196 -0.1978
  870MOL0     C17358  14.570   2.009   9.668  0.3621  0.2892  0.1605
  870MOL0    Cl17359  14.729   2.066   9.746  0.4080 -0.2248  0.5703
  870MOL0     C17360  13.695   1.928  10.038 -0.0181  0.4932 -0.8385
  870MOL0     C17361  13.567   1.921   9.987  0.7497  0.2376 -0.3091
  870MOL0     O17362  13.437   2.000   9.732  0.5127  0.5301  0.1044
  870MOL0     C17363  13.156   1.777   9.760 -0.0465 -0.1820 -0.6545
  870MOL0     C17364  13.024   1.757   9.711  0.5880  0.3707 -0.2871
  870MOL0     N17365  12.325   1.829   9.130 -0.0778 -0.0989  0.3315
  870MOL0     N17366  12.257   1.819   9.017 -1.2975 -0.0497  0.5573
  870MOL0     C17367  11.487   1.333   8.039  0.3087 -0.9040  0.7296
  870MOL0     C17368  11.368   1.384   7.980  0.5741  0.6686 -0.3875
  870MOL0     C17369  10.936   1.487   7.998  0.9733  0.2791  0.6218
  870MOL0     C17370  10.916   1.617   7.953 -0.1252  0.0735  0.5019
  870MOL0     C17371  10.792   1.651   7.905 -1.0700 -0.0489 -1.3130
  870MOL0     C17372  10.680   1.572   7.911 -0.2681  0.0887  0.1132
  870MOL0     O17373  10.554   1.623   7.878 -0.5076 -0.3441 -0.8447
  870MOL0     C17374  10.435   1.542   7.877 -0.4171  0.8942 -0.2188
  870MOL0     C17375  10.315   1.628   7.843  0.5754 -0.1232  0.1227
  870MOL0     C17376  10.286   1.728   7.954  0.0637 -0.0073 -0.0488
  870MOL0     C17377  10.170   1.820   7.924  0.3999  0.1863  0.3766
  870MOL0     C17378  10.195   1.944   7.996  0.0628 -1.2702 -0.1177
  870MOL0     C17379  10.211   2.050   8.053 -0.1723 -0.5570  0.4471
  870MOL0     C17380  10.698   1.438   7.956  0.9656  0.2806  0.1955
  870MOL0     C17381  10.829   1.397   7.995  0.8166 -0.2941  0.4919
  870MOL0     C17382  10.847   1.262   8.051  0.3849  0.5025  0.2907
  870MOL0     H17383  11.294   1.628   8.211 -0.3746 -0.3391  0.1468
  870MOL0     H17384  11.492   1.542   8.311 -0.5265  0.0083  0.1458
  870MOL0     H17385  11.855   1.402   8.263 -0.4802 -1.0850  2.3109
  870MOL0     H17386  11.746   1.533   8.254  3.6752  0.4575  1.1355
  870MOL0     H17387  11.744   1.306   8.455 -1.0598 -0.0019 -0.3766
  870MOL0     H17388  11.617   1.433   8.449  0.7560  3.0621 -1.8184
  870MOL0     H17389  11.751   1.540   8.607 -1.9814  1.5373 -1.8799
  870MOL0     H17390  11.819   1.601   8.466  0.0050  1.9978  1.7715
  870MOL0     H17391  11.929   1.356   8.595  0.4994 -0.6063 -0.7873
  870MOL0     H17392  12.011   1.447   8.461  0.6030 -1.4102  0.8633
  870MOL0     H17393  12.036   1.633   8.596 -1.1690  0.4372 -1.6341
  870MOL0     H17394  11.946   1.565   8.735 -0.2600  0.0149 -1.0113
  870MOL0     H17395  12.130   1.374   8.723 -0.0547  0.1214 -3.3568
  870MOL0     H17396  12.236   1.482   8.647  1.5545 -0.4756  1.1906
  870MOL0     H17397  12.262   1.456   8.886 -1.4065 -0.3570  0.6513
  870MOL0     H17398  12.105   1.536   8.895 -0.9120 -0.7577 -0.3429
  870MOL0     H17399  12.346   1.666   8.743  2.4145  4.0903  2.7094
  870MOL0     H17400  12.176   1.732   8.785 -0.5659 -0.3406 -0.1860
  870MOL0     H17401  12.484   1.578   8.978 -0.1542 -1.3824  0.5652
  870MOL0     H17402  12.425   1.708   9.328 -0.0580  2.0495 -0.5020
  870MOL0     H17403  12.518   1.583   9.248 -3.7327 -0.8536  0.5541
  870MOL0     H17404  12.702   1.764   9.198 -0.5637 -4.3368  1.3947
  870MOL0     H17405  12.598   1.890   9.251  3.3485  1.5846  1.8690
  870MOL0     H17406  12.703   1.658   9.410  1.2267  0.8102  0.2131
  870MOL0     H17407  12.591   1.778   9.471 -0.2162 -0.0457 -1.1815
  870MOL0     H17408  12.801   1.950   9.419  0.8205  0.8086  0.7407
  870MOL0     H17409  12.880   1.816   9.349  0.0454  2.7744 -0.2944
  870MOL0     H17410  13.026   1.974   9.457 -1.3154 -1.0215  0.0113
  870MOL0     H17411  13.259   2.010   9.539 -1.9866  0.2918 -0.6796
  870MOL0     H17412  13.576   1.604   9.874  0.3104 -0.9937  1.7751
  870MOL0     H17413  13.790   1.614  10.006 -0.8679  0.0812  0.1438
  870MOL0     H17414  13.986   1.989  10.081 -0.0179 -0.6613 -0.4192
  870MOL0     H17415  13.892   1.964  10.227  0.1314 -1.0240  1.8244
  870MOL0     H17416  14.123   1.989  10.271  0.6810 -0.8586  0.2267
  870MOL0     H17417  14.078   1.816  10.298 -0.9229 -0.1537 -1.0629
  870MOL0     H17418  14.293   1.807  10.226  1.4062 -3.5684 -2.5828
  870MOL0     H17419  14.203   1.764  10.080  0.7278 -1.0454  0.5951
  870MOL0     H17420  14.329   2.025  10.143 -0.1586  1.3908 -0.3446
  870MOL0     H17421  14.214   2.006  10.017 -1.0880 -1.4534 -0.0639
  870MOL0     H17422  14.354   1.806   9.919  1.9083 -0.4087  0.5614
  870MOL0     H17423  14.477   1.836  10.042  2.4666 -1.8564 -2.7029
  870MOL0     H17424  14.368   2.063   9.854 -0.4831 -0.1628 -0.6495
  870MOL0     H17425  14.524   2.042   9.944  0.0197 -1.5476  1.9843
  870MOL0     H17426  14.417   1.882   9.715 -1.6490  0.0016  1.7682
  870MOL0     H17427  14.576   1.840   9.794  0.1037  0.7773  0.8256
  870MOL0     H17428  14.596   1.954   9.578 -1.0719  0.1313 -0.1754
  870MOL0     H17429  14.499   2.090   9.652 -1.6089 -0.9411  2.0896
  870MOL0     H17430  13.729   2.004  10.107 -0.1842 -2.0511  2.2758
  870MOL0     H17431  13.510   2.014   9.990  1.6121  0.8091 -1.1564
  870MOL0     H17432  13.184   1.726   9.852  3.8681 -1.9019 -2.5246
  870MOL0     H17433  12.956   1.688   9.759  1.4934 -0.5429 -0.2627
  870MOL0     H17434  11.548   1.260   7.988  2.5327  2.6575 -2.2673
  870MOL0     H17435  11.332   1.326   7.896  3.0103 -2.0049  0.2228
  870MOL0     H17436  10.992   1.693   7.939 -1.9227  1.6677 -1.2724
  870MOL0     H17437  10.776   1.755   7.878  2.1186  0.5163 -1.4849
  870MOL0     H17438  10.431   1.500   7.977 -1.1465  0.0162 -0.5989
  870MOL0     H17439  10.445   1.457   7.808  0.3011  0.8438 -0.0588
  870MOL0     H17440  10.235   1.554   7.833 -0.0276  0.5838 -0.4204
  870MOL0     H17441  10.337   1.674   7.746  3.8056  1.6759  1.5566
  870MOL0     H17442  10.378   1.787   7.962  1.8280 -2.6105 -0.0502
  870MOL0     H17443  10.272   1.680   8.051  0.6155  1.8916  1.0443
  870MOL0     H17444  10.170   1.840   7.817  1.7501  1.1209  0.5324
  870MOL0     H17445  10.078   1.767   7.955  0.9316 -1.6267 -0.9853
  870MOL0     H17446  10.231   2.139   8.109 -0.9399 -0.1797  0.1267
  870MOL0     H17447  10.612   1.372   7.961  0.8994  0.0259 -2.5346
  870MOL0     H17448  10.889   1.188   7.983 -2.3245  1.1834 -2.3654
  870MOL0     H17449  10.899   1.263   8.147  1.5310 -0.7421 -0.2913
  870MOL0     H17450  10.746   1.222   8.069  0.6669 -0.6589 -0.5859
  871MOL0     O17451   1.096   3.799   3.824  1.3878  0.2699 -0.2592
  871MOL0     C17452   1.068   3.787   3.941 -0.4557  0.1981 -1.0195
  871MOL0     O17453   1.141   3.846   4.041  0.0616 -0.7444 -0.5612
  871MOL0     C17454   1.257   3.906   4.006 -0.3785  0.4243  0.7616
  871MOL0     C17455   1.385   3.835   4.020  0.4981  0.3471  0.3644
  871MOL0     C17456   1.510   3.906   4.019  0.5333 -0.4539 -0.1276
  871MOL0     C17457   1.511   4.040   3.973  0.4571  0.0024  0.5593
  871MOL0     O17458   1.640   4.093   3.941 -0.1994  0.2920 -0.6657
  871MOL0     C17459   1.642   4.229   3.899 -0.3241  0.0358  0.4619
  871MOL0     C17460   1.794   4.274   3.921 -0.1299  0.2944 -0.5049
  871MOL0     C17461   1.881   4.196   3.830  0.2333  0.1335 -0.8244
  871MOL0     C17462   2.021   4.247   3.829 -0.2531  0.0917  0.9546
  871MOL0     C17463   2.127   4.147   3.781  0.3226 -0.6482  0.0973
  871MOL0     C17464   2.172   4.048   3.894 -0.4378  0.3273  0.8237
  871MOL0     C17465   2.257   4.123   3.999 -0.1388 -0.0318  0.6078
  871MOL0     C17466   2.373   4.034   4.051  0.0212 -0.5018  0.6295
  871MOL0     N17467   2.483   4.029   3.957  0.0203 -0.0646  0.0589
  871MOL0     C17468   2.551   4.149   3.907 -0.2977  1.0075 -0.3958
  871MOL0     C17469   2.644   4.094   3.826  0.0479 -0.8145  0.6903
  871MOL0     C17470   2.720   4.181   3.730 -0.2471 -0.7919 -0.4647
  871MOL0     C17471   2.856   4.128   3.689  0.1301 -0.3346  0.1436
  871MOL0     C17472   2.850   4.015   3.582 -0.1906  0.1058  0.2216
  871MOL0     C17473   2.985   3.959   3.549  1.0271  0.1127 -0.0580
  871MOL0     O17474   3.062   4.059   3.483  0.4347  0.5241  0.0467
  871MOL0     C17475   3.192   4.024   3.463  0.4420  0.6152 -0.4352
  871MOL0     C17476   3.258   4.108   3.378 -0.7933  0.3147  1.3480
  871MOL0     C17477   3.392   4.084   3.348  1.1565 -0.1085  0.1889
  871MOL0     C17478   3.455   3.971   3.399  0.5446 -0.3150  0.5286
  871MOL0     C17479   3.596   3.942   3.377 -1.1844 -0.2060  0.4254
  871MOL0     O17480   3.655   3.842   3.447 -0.2662 -0.8212  0.0704
  871MOL0     C17481   3.784   3.798   3.424  0.0785 -0.6250 -0.4349
  871MOL0     C17482   3.855   3.796   3.303  0.4032 -0.7473 -0.1073
  871MOL0     C17483   3.992   3.758   3.306  0.0319  0.4509 -0.2478
  871MOL0     C17484   4.061   3.721   3.423 -0.6738 -0.6994  0.7085
  871MOL0     O17485   4.190   3.676   3.403 -0.3243  0.2027 -0.6229
  871MOL0     C17486   4.299   3.686   3.497 -0.2900  0.7741 -0.4648
  871MOL0     C17487   4.358   3.827   3.477 -0.6574  0.4298 -0.2741
  871MOL0     C17488   4.429   3.847   3.342  0.1162  0.5143 -0.3682
  871MOL0     C17489   4.541   3.953   3.352  0.0681  0.2635 -0.1607
  871MOL0     C17490   4.641   3.948   3.231 -0.5784  0.3171  0.2159
  871MOL0     C17491   4.583   3.992   3.094  0.7329 -0.2166 -0.5782
  871MOL0     C17492   4.696   3.995   2.986 -0.6445 -0.0661  0.9302
  871MOL0     C17493   4.647   3.987   2.851  0.1791  0.2094 -0.0774
  871MOL0    Cl17494   4.790   3.965   2.744 -0.2224  0.6021 -0.7270
  871MOL0     C17495   3.993   3.727   3.539 -0.4266  0.0443 -0.1432
  871MOL0     C17496   3.855   3.766   3.545 -1.1218 -0.2886 -0.3419
  871MOL0     O17497   3.659   4.021   3.308  0.6256 -0.2082 -0.1502
  871MOL0     C17498   3.386   3.880   3.478  0.2419  0.0001  0.0431
  871MOL0     C17499   3.258   3.912   3.513 -0.4472 -0.5174 -0.1003
  871MOL0     N17500   2.641   3.953   3.836  0.0187 -0.1784 -1.0896
  871MOL0     N17501   2.548   3.917   3.920  0.0976 -0.8787  0.3877
  871MOL0     C17502   1.388   4.103   3.934 -1.6439  0.8259 -0.4595
  871MOL0     C17503   1.260   4.039   3.970 -0.9822  0.1819  0.7878
  871MOL0     C17504   0.964   3.689   3.988  0.3225 -0.1438  0.3408
  871MOL0     C17505   0.927   3.694   4.130  0.6368 -0.0193  0.8732
  871MOL0     C17506   0.848   3.594   4.194 -0.1037 -0.5590 -0.0609
  871MOL0     C17507   0.771   3.521   4.110  0.7590  0.1890  0.9960
  871MOL0     O17508   0.680   3.432   4.161 -0.7216  0.0973  0.7094
  871MOL0     C17509   0.726   3.308   4.217 -0.7835  0.8400 -1.0530
  871MOL0     C17510   0.723   3.195   4.109 -0.0789  0.7838  0.1990
  871MOL0     C17511   0.863   3.167   4.046  0.3675  0.1244  1.0205
  871MOL0     C17512   0.855   3.069   3.930 -0.0412  0.2749 -0.6532
  871MOL0     C17513   0.995   3.053   3.882  0.2906  0.0954  0.5476
  871MOL0     C17514   1.112   3.028   3.865 -0.7060  0.9744  0.5636
  871MOL0     C17515   0.794   3.524   3.974 -0.6436  0.0687  0.2030
  871MOL0     C17516   0.896   3.597   3.908 -0.2259 -0.0460 -0.6908
  871MOL0     C17517   0.924   3.576   3.756  0.7146 -0.1448  0.3694
  871MOL0     H17518   1.371   3.729   4.038  0.2339  0.4746  0.9224
  871MOL0     H17519   1.607   3.865   4.048  0.7558  2.7758  4.8079
  871MOL0     H17520   1.610   4.240   3.795 -0.7224  1.9007  0.7568
  871MOL0     H17521   1.576   4.286   3.965  0.5977  2.3367 -0.4984
  871MOL0     H17522   1.818   4.250   4.025 -3.4770  1.7198  0.7636
  871MOL0     H17523   1.817   4.378   3.896  0.9843 -0.3616 -2.4669
  871MOL0     H17524   1.840   4.190   3.729 -1.3882 -0.4399 -0.1620
  871MOL0     H17525   1.882   4.102   3.886 -1.0713  0.9899  0.7153
  871MOL0     H17526   2.023   4.340   3.772  1.2385 -0.0005  0.8253
  871MOL0     H17527   2.046   4.284   3.929 -0.5500  2.7647  0.0906
  871MOL0     H17528   2.108   4.091   3.689  3.6472  0.9754 -1.7527
  871MOL0     H17529   2.213   4.204   3.747 -0.4585 -0.0493 -0.9387
  871MOL0     H17530   2.091   3.996   3.945  0.2022 -2.0583 -0.4663
  871MOL0     H17531   2.232   3.971   3.845 -1.5482 -0.4709  0.6981
  871MOL0     H17532   2.195   4.161   4.081 -0.2496  0.8126  0.1387
  871MOL0     H17533   2.297   4.210   3.948 -2.1128  0.1759 -0.6831
  871MOL0     H17534   2.407   4.069   4.149 -0.3738  2.0899 -0.0870
  871MOL0     H17535   2.334   3.933   4.068 -1.9759  0.1033 -0.0473
  871MOL0     H17536   2.543   4.257   3.912  1.9544  1.1584  2.3351
  871MOL0     H17537   2.665   4.195   3.636  1.1869  1.6811 -1.0425
  871MOL0     H17538   2.734   4.281   3.772  1.5551 -1.3839  0.4608
  871MOL0     H17539   2.928   4.203   3.655  0.4772 -0.5369  0.4269
  871MOL0     H17540   2.908   4.089   3.777  0.5101  0.7135  0.3954
  871MOL0     H17541   2.807   4.050   3.488 -0.2867  0.9897  0.5871
  871MOL0     H17542   2.793   3.931   3.622  2.0540 -0.8983  1.5059
  871MOL0     H17543   2.968   3.876   3.480 -2.5809  1.1647 -0.6310
  871MOL0     H17544   3.036   3.932   3.642 -0.3232 -1.0340  0.3922
  871MOL0     H17545   3.205   4.197   3.345 -1.3257 -0.0491  1.2061
  871MOL0     H17546   3.450   4.145   3.280  0.4597 -1.7880 -2.0539
  871MOL0     H17547   3.796   3.832   3.219 -2.5549  0.3058  2.1975
  871MOL0     H17548   4.047   3.780   3.215 -0.2047  3.7420  0.2977
  871MOL0     H17549   4.269   3.665   3.600  0.0869 -1.0917 -0.7078
  871MOL0     H17550   4.372   3.608   3.474 -1.3425 -0.4253  0.1796
  871MOL0     H17551   4.280   3.903   3.487 -1.3050 -0.4855  2.4030
  871MOL0     H17552   4.439   3.832   3.550 -1.2384 -1.8275  0.6193
  871MOL0     H17553   4.473   3.752   3.310  1.5348  0.2912  1.9992
  871MOL0     H17554   4.349   3.876   3.272 -0.7029  0.0368  0.3486
  871MOL0     H17555   4.592   3.937   3.448  0.1175 -0.1511 -0.2548
  871MOL0     H17556   4.482   4.045   3.352  0.7057  0.7205  1.9829
  871MOL0     H17557   4.686   3.849   3.219 -0.6751  0.3972 -0.9125
  871MOL0     H17558   4.723   4.016   3.255 -2.1437  2.3396  0.0920
  871MOL0     H17559   4.493   3.935   3.070 -0.2274 -0.1728  2.5216
  871MOL0     H17560   4.550   4.095   3.109 -0.8756 -0.7957  0.0843
  871MOL0     H17561   4.767   3.914   2.999 -0.6262 -0.0518  0.9184
  871MOL0     H17562   4.755   4.086   2.996 -0.5034 -0.0012 -0.3389
  871MOL0     H17563   4.576   3.904   2.844 -0.9105  1.1269 -0.2500
  871MOL0     H17564   4.580   4.068   2.820 -2.9874 -2.5485 -1.0165
  871MOL0     H17565   4.047   3.697   3.627  0.1365  2.0531  0.2281
  871MOL0     H17566   3.804   3.771   3.641 -2.7858  2.5404 -1.2676
  871MOL0     H17567   3.427   3.785   3.510 -1.9261 -1.8963 -2.3817
  871MOL0     H17568   3.210   3.846   3.585 -0.0501  0.2613  0.8956
  871MOL0     H17569   1.388   4.198   3.881  1.9942 -0.0309 -2.2921
  871MOL0     H17570   1.172   4.098   3.948 -1.3013  0.3669  2.4584
  871MOL0     H17571   0.974   3.767   4.195  0.8689  2.8299 -2.2646
  871MOL0     H17572   0.851   3.593   4.302  1.4055 -0.7110 -0.0833
  871MOL0     H17573   0.662   3.276   4.300  0.1755  2.9954  0.6200
  871MOL0     H17574   0.822   3.321   4.268 -0.4373 -1.8361 -0.9122
  871MOL0     H17575   0.651   3.231   4.035  0.7310  0.9265 -0.5292
  871MOL0     H17576   0.681   3.104   4.153  0.4838  1.6135  2.5915
  871MOL0     H17577   0.922   3.123   4.128 -0.6842 -0.1432  1.6473
  871MOL0     H17578   0.914   3.261   4.022  3.5542 -1.7882 -0.3852
  871MOL0     H17579   0.813   2.974   3.962 -2.8215  1.7503  0.4500
  871MOL0     H17580   0.803   3.118   3.847 -0.9171  0.7776  0.1778
  871MOL0     H17581   1.211   2.993   3.844 -1.0054 -0.0262  0.7610
  871MOL0     H17582   0.728   3.470   3.906  0.5479 -0.0996 -0.8503
  871MOL0     H17583   0.875   3.484   3.720  0.2666 -0.2298  1.1503
  871MOL0     H17584   0.884   3.665   3.707 -3.4089 -2.2426 -0.5616
  871MOL0     H17585   1.026   3.574   3.716 -0.2375 -0.1083 -2.2425
  872MOL0     O17586  10.246   3.591   8.768 -0.0916  0.6169 -0.4184
  872MOL0     C17587  10.191   3.516   8.847  1.1062  0.3053 -0.0665
  872MOL0     O17588  10.243   3.473   8.966 -0.1238  0.4764  0.0963
  872MOL0     C17589  10.374   3.511   8.992  0.3064  0.3599 -0.8643
  872MOL0     C17590  10.470   3.406   9.020 -1.0527 -0.1570  1.6142
  872MOL0     C17591  10.604   3.430   9.059 -0.2490 -0.3578 -1.0254
  872MOL0     C17592  10.646   3.569   9.081  1.1189 -0.1520  0.4913
  872MOL0     O17593  10.771   3.591   9.131 -0.2440 -0.0565  0.3056
  872MOL0     C17594  10.797   3.722   9.180 -0.0611  0.7881  0.0497
  872MOL0     C17595  10.915   3.712   9.271  0.0826  0.4490 -0.1345
  872MOL0     C17596  11.046   3.685   9.187  0.9986 -0.7434  0.2066
  872MOL0     C17597  11.171   3.738   9.259  0.2172 -0.2665  0.9270
  872MOL0     C17598  11.300   3.677   9.216  0.0693 -0.4052 -0.3856
  872MOL0     C17599  11.333   3.749   9.089  0.0007 -0.5914  0.2124
  872MOL0     C17600  11.476   3.692   9.018  0.4627  0.1170 -0.0732
  872MOL0     C17601  11.524   3.799   8.920 -0.1533  0.2057 -0.2430
  872MOL0     N17602  11.646   3.762   8.845  0.3083  0.3841  0.2880
  872MOL0     C17603  11.656   3.711   8.717 -0.4523 -0.0677  0.2014
  872MOL0     C17604  11.791   3.691   8.691 -0.2496 -0.9252 -0.6918
  872MOL0     C17605  11.851   3.623   8.575  0.8482  0.3612 -0.6985
  872MOL0     C17606  12.007   3.625   8.565  0.5166 -0.8911  0.2622
  872MOL0     C17607  12.071   3.527   8.663  0.6277  0.1010 -0.7990
  872MOL0     C17608  12.225   3.543   8.682 -0.5218  0.9036 -0.1780
  872MOL0     O17609  12.261   3.671   8.735  0.3276 -0.3173  0.5955
  872MOL0     C17610  12.311   3.672   8.867  0.0279 -0.5889 -0.3137
  872MOL0     C17611  12.245   3.685   8.992 -0.0521 -0.2175  0.8845
  872MOL0     C17612  12.311   3.700   9.107 -0.6123  0.3933  0.2875
  872MOL0     C17613  12.452   3.682   9.118  0.0656 -0.1263  0.7498
  872MOL0     C17614  12.529   3.689   9.246  0.0160 -0.1124  0.6891
  872MOL0     O17615  12.657   3.640   9.233  0.1935  1.3584 -0.4740
  872MOL0     C17616  12.737   3.640   9.342  0.5329  0.6968 -0.3312
  872MOL0     C17617  12.837   3.736   9.366  0.0764 -1.3373 -0.2288
  872MOL0     C17618  12.938   3.726   9.459  0.0917  0.0714 -0.0544
  872MOL0     C17619  12.938   3.613   9.546  0.3246  1.3114 -0.6757
  872MOL0     O17620  13.032   3.590   9.655 -0.1622  0.2115  0.6027
  872MOL0     C17621  13.134   3.686   9.666  0.1422 -0.3992 -0.2755
  872MOL0     C17622  13.222   3.669   9.793  0.9527 -0.3993 -0.1761
  872MOL0     C17623  13.154   3.712   9.924  0.2676  0.1718 -0.9328
  872MOL0     C17624  13.231   3.655  10.046  0.3290 -0.3477  0.5426
  872MOL0     C17625  13.160   3.682  10.180  0.1461 -0.3469 -0.0937
  872MOL0     C17626  13.200   3.573  10.287 -0.4476 -0.6205  0.0198
  872MOL0     C17627  13.135   3.622  10.413  0.3593 -0.2694  0.4002
  872MOL0     C17628  13.142   3.514  10.517 -0.5330  0.1205 -0.2875
  872MOL0    Cl17629  13.307   3.487  10.588 -0.0953  0.0425 -0.0719
  872MOL0     C17630  12.832   3.517   9.531  0.4008 -0.5093 -0.4256
  872MOL0     C17631  12.736   3.536   9.430  0.0967  0.2418 -0.4146
  872MOL0     O17632  12.481   3.716   9.352  0.4788  0.1755  0.4221
  872MOL0     C17633  12.517   3.655   8.998 -0.3006 -0.5189  0.0119
  872MOL0     C17634  12.453   3.652   8.874  0.2483  0.8663 -0.8958
  872MOL0     N17635  11.850   3.729   8.813  0.3021  0.4405  0.3654
  872MOL0     N17636  11.764   3.747   8.906 -0.0232 -0.2223 -1.3139
  872MOL0     C17637  10.558   3.668   9.041  0.5574  0.4367  0.1320
  872MOL0     C17638  10.425   3.636   8.991  0.2441  0.8171 -0.3295
  872MOL0     C17639  10.059   3.448   8.799  0.4735 -0.2033 -0.1485
  872MOL0     C17640  10.018   3.485   8.669  0.0792 -0.3141  0.5758
  872MOL0     C17641   9.909   3.426   8.603 -1.2459  0.6559  0.3606
  872MOL0     C17642   9.838   3.332   8.672  1.2307  0.3530  1.1027
  872MOL0     O17643   9.733   3.273   8.603  0.2856  0.0333  0.2725
  872MOL0     C17644   9.606   3.337   8.630 -0.5887  0.1485  0.5449
  872MOL0     C17645   9.501   3.259   8.545 -0.4591  0.1010 -0.6290
  872MOL0     C17646   9.506   3.283   8.389  0.4239  0.2736 -0.0543
  872MOL0     C17647   9.504   3.432   8.349  0.1686 -0.1982 -0.7552
  872MOL0     C17648   9.431   3.452   8.217 -0.1357 -0.2869  0.3218
  872MOL0     C17649   9.376   3.471   8.116  0.3658  0.3247  0.4088
  872MOL0     C17650   9.863   3.302   8.800 -0.2951  0.5375  1.1627
  872MOL0     C17651   9.974   3.350   8.869 -1.1480 -0.2791 -0.0737
  872MOL0     C17652   9.997   3.310   9.015  0.3482  0.7911 -0.3064
  872MOL0     H17653  10.436   3.305   8.999 -0.5428  0.4398 -3.2549
  872MOL0     H17654  10.683   3.358   9.079  2.6535  2.3019 -2.0575
  872MOL0     H17655  10.810   3.798   9.102  0.8032  1.9225  1.2598
  872MOL0     H17656  10.723   3.757   9.253 -1.7828 -2.5594  0.0821
  872MOL0     H17657  10.903   3.627   9.340  0.5255  0.9030  0.5085
  872MOL0     H17658  10.923   3.802   9.333  1.7352  0.8432 -0.8713
  872MOL0     H17659  11.033   3.737   9.091  1.3994  0.8958  0.9957
  872MOL0     H17660  11.051   3.579   9.159  0.0533 -1.1447  1.5046
  872MOL0     H17661  11.178   3.847   9.255  1.9481 -0.3701  0.3412
  872MOL0     H17662  11.141   3.716   9.362  0.3216 -1.5601  0.6949
  872MOL0     H17663  11.380   3.705   9.286 -1.4026  0.7979  0.9042
  872MOL0     H17664  11.292   3.568   9.209  2.9222 -0.8041  0.9082
  872MOL0     H17665  11.250   3.747   9.019 -0.4667 -4.6495  0.6579
  872MOL0     H17666  11.348   3.853   9.120 -2.9191  0.0315 -0.2109
  872MOL0     H17667  11.453   3.598   8.967 -3.0530 -0.1656  1.7102
  872MOL0     H17668  11.552   3.672   9.094 -0.2167  1.3683  0.9741
  872MOL0     H17669  11.442   3.824   8.852 -0.3464  1.1357  0.3130
  872MOL0     H17670  11.548   3.888   8.978  1.4011 -1.2122  1.4418
  872MOL0     H17671  11.575   3.679   8.653 -0.4697 -0.1157  0.2473
  872MOL0     H17672  11.816   3.519   8.576 -0.4443  0.7452 -1.9658
  872MOL0     H17673  11.802   3.666   8.487  1.9973  0.7252 -1.1795
  872MOL0     H17674  12.028   3.589   8.464 -0.9764  1.2852 -0.8875
  872MOL0     H17675  12.048   3.725   8.581  1.0709 -0.6322 -2.2832
  872MOL0     H17676  12.046   3.424   8.637  0.4503  0.0277 -0.3526
  872MOL0     H17677  12.023   3.554   8.758 -2.6189 -1.1661 -1.9542
  872MOL0     H17678  12.280   3.539   8.588 -0.2617  0.0547  0.0006
  872MOL0     H17679  12.252   3.455   8.741 -0.0362  1.2471  0.1232
  872MOL0     H17680  12.137   3.688   9.000 -0.2180  0.1701 -0.9995
  872MOL0     H17681  12.254   3.723   9.197  0.1048 -0.0586  0.8727
  872MOL0     H17682  12.846   3.820   9.298 -0.2866 -0.9452  0.1992
  872MOL0     H17683  13.012   3.803   9.474 -1.3575  1.9707 -1.9464
  872MOL0     H17684  13.199   3.675   9.578  1.3005 -1.1495  0.6380
  872MOL0     H17685  13.086   3.784   9.675  1.3231 -0.0191  3.2851
  872MOL0     H17686  13.260   3.566   9.796 -1.7160 -1.4935 -0.7445
  872MOL0     H17687  13.307   3.734   9.774 -0.8858  1.3975 -2.9106
  872MOL0     H17688  13.170   3.819   9.936 -0.0503  0.2916 -1.5419
  872MOL0     H17689  13.046   3.693   9.930  0.0233  1.2517 -1.6820
  872MOL0     H17690  13.327   3.705  10.062  1.8621 -2.6642 -0.8601
  872MOL0     H17691  13.249   3.548  10.032  3.5218  0.3392 -1.6182
  872MOL0     H17692  13.054   3.689  10.157  0.3815 -0.1948 -1.1839
  872MOL0     H17693  13.195   3.782  10.205  0.2449 -0.4801  0.3095
  872MOL0     H17694  13.156   3.479  10.252  2.0355 -0.9207 -2.7260
  872MOL0     H17695  13.309   3.570  10.293 -0.5385 -1.4384  1.5289
  872MOL0     H17696  13.031   3.648  10.392  0.2364 -1.8826 -1.2122
  872MOL0     H17697  13.190   3.711  10.444  2.9116 -0.2482 -3.4528
  872MOL0     H17698  13.069   3.544  10.593  0.2836  2.5235 -0.3743
  872MOL0     H17699  13.111   3.415  10.481  1.6412 -1.5592  2.0630
  872MOL0     H17700  12.817   3.428   9.591  1.2901 -0.3966 -0.0256
  872MOL0     H17701  12.670   3.450   9.416 -2.4463  1.3449  3.4258
  872MOL0     H17702  12.624   3.641   8.988 -0.1112 -0.5009  1.7255
  872MOL0     H17703  12.514   3.631   8.786 -1.4979 -2.1685 -1.5452
  872MOL0     H17704  10.586   3.769   9.069  3.9626 -0.4329  0.2569
  872MOL0     H17705  10.358   3.718   8.967 -2.1020 -0.6402  0.8794
  872MOL0     H17706  10.071   3.566   8.619  0.0817  0.5381  1.9192
  872MOL0     H17707   9.878   3.437   8.500 -1.4639 -1.0427  0.2254
  872MOL0     H17708   9.612   3.442   8.602 -2.2191  0.2903  0.6853
  872MOL0     H17709   9.583   3.328   8.736  1.9757  0.5149  1.2124
  872MOL0     H17710   9.405   3.293   8.584 -1.0203 -0.5537 -1.4033
  872MOL0     H17711   9.529   3.155   8.563 -1.1856  0.0422  0.1822
  872MOL0     H17712   9.417   3.230   8.353  0.4055 -0.2984  0.7818
  872MOL0     H17713   9.590   3.228   8.346 -0.5584  0.2350 -2.0019
  872MOL0     H17714   9.460   3.498   8.425  1.2425  0.8764 -1.0265
  872MOL0     H17715   9.606   3.472   8.341  0.2795 -0.4103 -0.4081
  872MOL0     H17716   9.330   3.492   8.021  2.5223  1.8556 -0.3680
  872MOL0     H17717   9.800   3.226   8.845 -0.1942 -0.7734 -0.7769
  872MOL0     H17718  10.085   3.246   9.031  0.1952  0.9067  1.1639
  872MOL0     H17719  10.032   3.403   9.060  4.6332 -0.5115 -0.4521
  872MOL0     H17720   9.911   3.262   9.064  1.9109 -0.3983  1.4251
  873MOL0     O17721   6.046   7.005   1.503 -0.2935  0.4781  0.1938
  873MOL0     C17722   6.002   6.950   1.603 -0.0036 -0.4542  0.8123
  873MOL0     O17723   6.077   6.943   1.715 -0.3399  0.7346 -0.1652
  873MOL0     C17724   6.219   6.952   1.701  0.4225 -0.5755 -0.0541
  873MOL0     C17725   6.294   7.030   1.793  0.2290  0.1006 -1.4031
  873MOL0     C17726   6.431   7.036   1.790  0.7313  0.2488  0.7105
  873MOL0     C17727   6.500   6.981   1.681  0.0320 -0.5887 -0.1127
  873MOL0     O17728   6.637   6.984   1.669 -0.3524 -0.1978  1.0223
  873MOL0     C17729   6.714   7.064   1.750 -0.4069 -0.5594 -0.0606
  873MOL0     C17730   6.865   7.039   1.728  0.3459 -0.7701  0.0443
  873MOL0     C17731   6.956   7.121   1.821 -0.1448  0.2123 -0.1993
  873MOL0     C17732   6.971   7.268   1.779 -0.1190  1.0053 -0.2001
  873MOL0     C17733   7.062   7.356   1.875 -0.1519  0.8641  0.1543
  873MOL0     C17734   7.199   7.374   1.817 -1.0813 -0.0452  0.1044
  873MOL0     C17735   7.285   7.453   1.908  0.7976 -0.2881  0.0258
  873MOL0     C17736   7.421   7.469   1.857  0.0460 -0.3244  0.7851
  873MOL0     N17737   7.506   7.521   1.961 -0.0557  0.3583 -1.0743
  873MOL0     C17738   7.507   7.650   2.010 -0.3928  0.6263 -0.7238
  873MOL0     C17739   7.563   7.648   2.140 -0.0576 -0.1962  0.5646
  873MOL0     C17740   7.556   7.769   2.239 -0.9618  0.4589 -0.1267
  873MOL0     C17741   7.557   7.903   2.159  0.7556  0.7789 -0.6820
  873MOL0     C17742   7.618   8.025   2.240 -0.5724  0.7469  0.0383
  873MOL0     C17743   7.524   8.066   2.345  0.7309 -0.5594 -0.2460
  873MOL0     O17744   7.413   8.121   2.279 -0.3851  0.2013  0.3976
  873MOL0     C17745   7.289   8.110   2.330  1.3269  0.5972 -0.1301
  873MOL0     C17746   7.193   8.187   2.262 -0.2088 -0.1808  1.0419
  873MOL0     C17747   7.061   8.174   2.276  0.1375  0.8519  0.2762
  873MOL0     C17748   7.011   8.083   2.368 -1.1913  0.7893 -0.2468
  873MOL0     C17749   6.870   8.070   2.395 -0.1630  0.1567 -0.3439
  873MOL0     O17750   6.781   8.114   2.302  0.8164 -0.6413  0.0833
  873MOL0     C17751   6.643   8.091   2.335 -1.0897 -0.5652 -0.2774
  873MOL0     C17752   6.577   8.126   2.450  0.5651 -0.3044 -0.3680
  873MOL0     C17753   6.444   8.099   2.473 -0.3077 -0.3040  0.3224
  873MOL0     C17754   6.366   8.051   2.365  0.1596  0.2905 -0.8862
  873MOL0     O17755   6.234   8.023   2.360  0.2178 -0.4435  0.1809
  873MOL0     C17756   6.159   8.059   2.475  0.0228  0.3429 -0.1897
  873MOL0     C17757   6.003   8.028   2.458  0.3199 -0.6596 -0.5252
  873MOL0     C17758   5.984   7.879   2.446  0.2220  0.0658 -0.3790
  873MOL0     C17759   6.017   7.794   2.567  0.4268 -0.6900  0.5549
  873MOL0     C17760   5.915   7.810   2.676 -0.2343  0.8066  0.6057
  873MOL0     C17761   5.769   7.771   2.644  0.8900 -0.5882 -0.1133
  873MOL0     C17762   5.689   7.898   2.616 -0.3345 -0.1722  0.2808
  873MOL0     C17763   5.540   7.882   2.622  0.5515  0.6956 -0.2228
  873MOL0    Cl17764   5.486   7.725   2.547  0.1297 -0.1854  0.1280
  873MOL0     C17765   6.427   8.012   2.249  0.4226  0.2796  0.2642
  873MOL0     C17766   6.565   8.038   2.237 -0.1638  0.1155 -0.2668
  873MOL0     O17767   6.846   8.016   2.502 -0.2475  0.4549 -0.7223
  873MOL0     C17768   7.106   7.999   2.438 -0.7555 -0.2098  0.7421
  873MOL0     C17769   7.245   8.016   2.423 -1.0259 -0.0779  0.3347
  873MOL0     N17770   7.613   7.516   2.153 -0.3868 -0.4458 -0.2914
  873MOL0     N17771   7.584   7.450   2.045 -0.2126 -0.5721 -0.0862
  873MOL0     C17772   6.432   6.897   1.592  0.6519 -0.3013 -0.4535
  873MOL0     C17773   6.292   6.875   1.602 -0.7250  0.3670 -0.4542
  873MOL0     C17774   5.856   6.902   1.616 -0.1251 -0.5271 -0.5250
  873MOL0     C17775   5.823   6.829   1.731 -0.2471 -0.1112  0.8511
  873MOL0     C17776   5.698   6.774   1.753  0.5826  0.5279  0.4755
  873MOL0     C17777   5.594   6.798   1.654  0.9388  0.4614  0.1873
  873MOL0     O17778   5.461   6.753   1.668 -0.0882  0.3697 -0.2144
  873MOL0     C17779   5.454   6.611   1.634 -0.1187  0.4260 -0.6903
  873MOL0     C17780   5.369   6.546   1.749  0.8804 -0.3805 -0.7674
  873MOL0     C17781   5.225   6.599   1.730  0.1655 -0.4530 -0.5116
  873MOL0     C17782   5.155   6.588   1.862 -0.3477  0.8526  0.3581
  873MOL0     C17783   5.154   6.442   1.897 -0.4576 -0.5608  0.5629
  873MOL0     C17784   5.142   6.325   1.932  0.5159  0.1194  0.1366
  873MOL0     C17785   5.627   6.865   1.546 -0.3239  0.0522 -0.2811
  873MOL0     C17786   5.751   6.923   1.527  0.6621  0.1324  0.1058
  873MOL0     C17787   5.769   7.001   1.403 -1.1279 -0.2655  0.4877
  873MOL0     H17788   6.233   7.078   1.869  0.0597 -0.3913 -1.2251
  873MOL0     H17789   6.483   7.077   1.876 -1.0174  0.2424  1.8053
  873MOL0     H17790   6.692   7.165   1.715 -2.7845 -1.5756 -1.7428
  873MOL0     H17791   6.686   7.057   1.856  1.0161  4.0231  0.8244
  873MOL0     H17792   6.892   7.046   1.622 -0.2964 -3.3567 -0.3591
  873MOL0     H17793   6.895   6.937   1.751  3.3866 -0.2928 -1.2302
  873MOL0     H17794   7.058   7.082   1.831 -0.3110  0.0570  1.1445
  873MOL0     H17795   6.912   7.116   1.921  1.0195 -1.2984  0.2807
  873MOL0     H17796   7.004   7.275   1.675 -0.1453 -0.6302 -0.3409
  873MOL0     H17797   6.870   7.311   1.781 -0.5729 -0.0468  1.0555
  873MOL0     H17798   7.007   7.450   1.880  0.3435  1.3473 -2.2415
  873MOL0     H17799   7.078   7.325   1.979  0.3958 -0.7458 -0.3771
  873MOL0     H17800   7.235   7.272   1.802  0.4906  0.8690 -3.4575
  873MOL0     H17801   7.186   7.413   1.715  0.4001 -0.0540 -0.1036
  873MOL0     H17802   7.294   7.400   2.003 -0.9011  0.1361  0.4584
  873MOL0     H17803   7.232   7.546   1.929  1.8244  0.4435 -0.5148
  873MOL0     H17804   7.460   7.374   1.819  0.7276  0.6794 -1.1252
  873MOL0     H17805   7.421   7.531   1.768 -0.0449  0.7122  1.4941
  873MOL0     H17806   7.453   7.729   1.960 -0.9362  0.0784 -1.0170
  873MOL0     H17807   7.465   7.754   2.299 -1.6197 -1.5583 -1.5110
  873MOL0     H17808   7.650   7.768   2.294 -0.9380  3.0098 -0.0283
  873MOL0     H17809   7.613   7.902   2.066  1.3033 -0.8988 -0.3720
  873MOL0     H17810   7.454   7.931   2.137  0.2801 -2.5156 -3.4231
  873MOL0     H17811   7.621   8.106   2.166 -0.0574 -0.4446 -1.2789
  873MOL0     H17812   7.719   8.000   2.271 -0.9634  1.5798  2.1323
  873MOL0     H17813   7.572   8.140   2.410  0.8754 -1.1185  0.2941
  873MOL0     H17814   7.496   7.977   2.403  0.2444  0.1075  0.5660
  873MOL0     H17815   7.216   8.253   2.179 -2.7025 -1.4309 -0.7553
  873MOL0     H17816   6.988   8.233   2.221 -0.9330 -0.3527  0.3457
  873MOL0     H17817   6.633   8.181   2.525  0.1931  2.5670 -2.0342
  873MOL0     H17818   6.402   8.131   2.567 -4.5222  1.1681 -1.7859
  873MOL0     H17819   6.191   8.003   2.564 -2.0658 -0.9706 -0.2071
  873MOL0     H17820   6.170   8.166   2.499 -0.5320  0.9549 -2.4772
  873MOL0     H17821   5.956   8.072   2.547  1.8535  1.8849 -0.8943
  873MOL0     H17822   5.946   8.074   2.377 -2.7827 -1.1249  1.2051
  873MOL0     H17823   5.880   7.863   2.419 -1.3187  4.0431  2.2477
  873MOL0     H17824   6.042   7.854   2.356 -0.6385  0.5196 -1.0743
  873MOL0     H17825   6.121   7.813   2.594  0.2783  0.3974  0.3766
  873MOL0     H17826   6.016   7.690   2.531  1.4078 -0.6152  0.2885
  873MOL0     H17827   5.930   7.904   2.732  1.6765 -0.1920  1.8878
  873MOL0     H17828   5.938   7.729   2.745 -2.1565 -0.8110 -0.5625
  873MOL0     H17829   5.769   7.705   2.556  0.6094  1.9768 -2.1767
  873MOL0     H17830   5.727   7.723   2.732 -2.8113  0.8524 -0.9207
  873MOL0     H17831   5.708   7.939   2.516 -1.1513  0.9436  0.5577
  873MOL0     H17832   5.709   7.980   2.686  0.8439 -0.1286 -0.0758
  873MOL0     H17833   5.514   7.888   2.728  0.8915  0.9498 -0.1500
  873MOL0     H17834   5.479   7.956   2.569  0.0370  1.4064  1.3271
  873MOL0     H17835   6.360   7.955   2.186  2.0163 -0.7224 -0.5964
  873MOL0     H17836   6.615   8.024   2.141  1.8337  1.5101  0.4898
  873MOL0     H17837   7.068   7.932   2.514  1.5483  0.1258  2.2778
  873MOL0     H17838   7.312   7.955   2.482  0.5081  1.9068  0.7794
  873MOL0     H17839   6.480   6.830   1.521  0.5339 -1.8453  0.8650
  873MOL0     H17840   6.243   6.826   1.519  1.0053  1.9600 -2.5225
  873MOL0     H17841   5.899   6.800   1.802 -1.3584  0.6195  2.3941
  873MOL0     H17842   5.670   6.709   1.835 -2.4940 -0.9629 -1.5608
  873MOL0     H17843   5.552   6.563   1.624 -1.3806 -2.0095 -2.1957
  873MOL0     H17844   5.407   6.600   1.536 -0.3402  0.5381 -0.5973
  873MOL0     H17845   5.413   6.586   1.841 -1.7000  3.6543 -1.0070
  873MOL0     H17846   5.367   6.437   1.739 -0.1598 -0.5886  1.1971
  873MOL0     H17847   5.177   6.538   1.653 -2.7348 -0.1765  0.9688
  873MOL0     H17848   5.226   6.708   1.717  0.5276  0.8485  6.5290
  873MOL0     H17849   5.205   6.648   1.938 -2.1842  2.3469  0.4766
  873MOL0     H17850   5.049   6.615   1.868 -0.8145 -1.0061  1.0574
  873MOL0     H17851   5.134   6.229   1.980 -1.3202  0.6957  1.0559
  873MOL0     H17852   5.558   6.882   1.464  2.0397 -0.3823 -2.5197
  873MOL0     H17853   5.687   6.978   1.334  0.2013 -2.6586 -0.3990
  873MOL0     H17854   5.761   7.108   1.428  2.3290  0.5447 -1.1917
  873MOL0     H17855   5.858   6.986   1.341 -2.7208  2.2438 -2.7413
  874MOL0     O17856   4.456   9.851   6.594 -0.2446 -0.1384  0.3947
  874MOL0     C17857   4.494   9.883   6.707 -0.1377 -0.0375  0.4505
  874MOL0     O17858   4.614   9.860   6.753 -0.1440 -0.2732  0.4899
  874MOL0     C17859   4.727   9.843   6.675  0.8824  0.4308 -0.4607
  874MOL0     C17860   4.734   9.891   6.543 -0.2788  0.3545  0.0056
  874MOL0     C17861   4.854   9.881   6.474 -0.3865  0.4550  0.1892
  874MOL0     C17862   4.973   9.847   6.540  0.2874 -1.0606 -0.2297
  874MOL0     O17863   5.098   9.855   6.481 -0.1603  0.5547 -0.5517
  874MOL0     C17864   5.119   9.950   6.374  0.9690  0.1551 -0.7244
  874MOL0     C17865   5.265   9.968   6.318  0.5982 -0.0641  0.4311
  874MOL0     C17866   5.318   9.852   6.238 -0.4296 -0.4103 -0.6143
  874MOL0     C17867   5.470   9.851   6.243  0.2460  0.2145 -0.5369
  874MOL0     C17868   5.519   9.712   6.200  0.3713  0.2317  0.3610
  874MOL0     C17869   5.666   9.718   6.167  0.5773  0.3942  0.6742
  874MOL0     C17870   5.762   9.715   6.284  0.1903 -0.0006  0.2988
  874MOL0     C17871   5.781   9.573   6.341 -1.0809 -0.0012  0.0721
  874MOL0     N17872   5.843   9.479   6.251 -1.0558 -0.1085 -0.2101
  874MOL0     C17873   5.785   9.363   6.211 -0.3022  0.7098 -0.0641
  874MOL0     C17874   5.866   9.320   6.111 -0.1350  0.3859 -0.4777
  874MOL0     C17875   5.836   9.184   6.053  0.7504  0.4113 -0.0488
  874MOL0     C17876   5.896   9.072   6.135 -0.2900 -0.0801 -0.3272
  874MOL0     C17877   5.883   8.932   6.060  0.1163 -1.0986  1.1228
  874MOL0     C17878   6.019   8.876   6.014  0.0868 -0.4507 -0.7330
  874MOL0     O17879   6.093   8.860   6.135  0.1887  0.3959 -0.4238
  874MOL0     C17880   6.223   8.817   6.121  0.0900  0.9665 -0.6260
  874MOL0     C17881   6.317   8.861   6.220  0.2128  0.3275 -0.2007
  874MOL0     C17882   6.448   8.825   6.216  0.4756 -0.4832  0.9897
  874MOL0     C17883   6.495   8.744   6.111 -0.0169  0.7222  0.1608
  874MOL0     C17884   6.637   8.694   6.105 -0.4080 -0.1270  0.2461
  874MOL0     O17885   6.672   8.612   6.000 -0.2679 -0.7618  0.8619
  874MOL0     C17886   6.801   8.567   6.003  0.7166 -0.2511  0.5612
  874MOL0     C17887   6.829   8.440   6.056 -0.1011 -0.0230  0.2311
  874MOL0     C17888   6.960   8.384   6.057  0.3588 -0.0635 -0.2964
  874MOL0     C17889   7.068   8.464   6.009 -0.2907 -0.1376  1.1878
  874MOL0     O17890   7.199   8.430   6.008 -0.0573 -0.1152  0.5792
  874MOL0     C17891   7.239   8.308   6.078  0.9362 -0.2514  0.1056
  874MOL0     C17892   7.390   8.301   6.069  0.0300 -0.2508 -0.4409
  874MOL0     C17893   7.437   8.255   5.930  0.5353 -0.0372  0.1447
  874MOL0     C17894   7.579   8.217   5.948 -0.1915 -0.7547  0.1698
  874MOL0     C17895   7.639   8.161   5.814 -0.2886 -0.0738  0.0401
  874MOL0     C17896   7.795   8.135   5.832  0.0244  0.1379 -0.5070
  874MOL0     C17897   7.848   8.041   5.719  0.5831  0.2550  0.2730
  874MOL0     C17898   7.999   8.022   5.747  0.1620  0.3592 -0.1635
  874MOL0    Cl17899   8.068   7.912   5.620  0.1941  0.5621 -0.2315
  874MOL0     C17900   7.035   8.594   5.948 -0.4556  0.4713  1.0120
  874MOL0     C17901   6.901   8.639   5.943 -0.6211 -0.3571  0.2367
  874MOL0     O17902   6.714   8.741   6.189  0.0172  0.5643  0.0806
  874MOL0     C17903   6.403   8.704   6.010  0.6735  0.6524  0.1085
  874MOL0     C17904   6.266   8.737   6.014 -0.2249 -0.4537  0.3245
  874MOL0     N17905   5.975   9.408   6.092  0.6839  0.3548 -0.2113
  874MOL0     N17906   5.959   9.495   6.185 -0.3312 -0.2990  0.1714
  874MOL0     C17907   4.955   9.796   6.663  0.0033  0.8447 -0.2981
  874MOL0     C17908   4.834   9.789   6.733  0.1775  0.9382  0.3213
  874MOL0     C17909   4.386   9.940   6.795 -1.3267 -0.5639 -0.2500
  874MOL0     C17910   4.413   9.938   6.936 -0.1837 -0.6656 -0.1090
  874MOL0     C17911   4.322   9.985   7.026  0.8410  0.1176 -0.2671
  874MOL0     C17912   4.199  10.040   6.977 -0.6448 -0.0420 -0.3144
  874MOL0     O17913   4.114  10.085   7.078 -0.5964  0.3166  0.4521
  874MOL0     C17914   4.015  10.178   7.034  0.4370 -0.3232  0.2601
  874MOL0     C17915   3.934  10.246   7.145  0.4919  0.2922  0.6696
  874MOL0     C17916   3.870  10.147   7.241 -0.1761 -0.7398 -0.1075
  874MOL0     C17917   3.772  10.053   7.181  0.4881  0.8748 -0.8058
  874MOL0     C17918   3.654  10.115   7.125 -0.0544 -0.0971  0.4620
  874MOL0     C17919   3.552  10.171   7.088 -0.9656  0.0226  0.7347
  874MOL0     C17920   4.168  10.042   6.841 -0.2196 -0.0590 -0.7534
  874MOL0     C17921   4.259   9.993   6.751  0.3908  0.1528 -0.5374
  874MOL0     C17922   4.226  10.002   6.606 -0.1630 -0.5034  0.3112
  874MOL0     H17923   4.642   9.923   6.495  0.5365 -0.7321 -2.4105
  874MOL0     H17924   4.851   9.909   6.370 -3.7197 -0.3276 -0.0608
  874MOL0     H17925   5.061   9.917   6.288  0.9363  1.3918 -1.1988
  874MOL0     H17926   5.093  10.053   6.402  2.2699  0.6128 -1.1399
  874MOL0     H17927   5.329   9.993   6.403 -0.0902 -0.4173  1.0713
  874MOL0     H17928   5.276  10.052   6.250 -4.1360 -0.3162 -1.0272
  874MOL0     H17929   5.282   9.859   6.135 -0.3410  0.9594 -0.5732
  874MOL0     H17930   5.275   9.761   6.279 -0.4743  0.6447  1.8486
  874MOL0     H17931   5.517   9.930   6.183 -1.2644  2.2300  0.7945
  874MOL0     H17932   5.507   9.876   6.342 -0.8982  0.2131 -0.0893
  874MOL0     H17933   5.498   9.634   6.274  0.4055 -2.3104 -2.1550
  874MOL0     H17934   5.464   9.690   6.109  2.0697 -0.6649 -0.4975
  874MOL0     H17935   5.686   9.634   6.100  1.5077  2.1051 -1.3166
  874MOL0     H17936   5.690   9.808   6.110  1.3799  0.6506  1.3997
  874MOL0     H17937   5.732   9.788   6.361  1.2955 -0.6374  1.3646
  874MOL0     H17938   5.859   9.758   6.257  2.2714 -5.2203 -1.6899
  874MOL0     H17939   5.839   9.589   6.433 -0.5543 -1.1034 -0.0504
  874MOL0     H17940   5.685   9.532   6.372 -1.3763  0.2717 -0.4728
  874MOL0     H17941   5.690   9.319   6.237  0.2135 -0.1346  0.4159
  874MOL0     H17942   5.728   9.175   6.060  0.4601  3.6560  1.6530
  874MOL0     H17943   5.876   9.186   5.951  2.8479 -0.4672  0.7017
  874MOL0     H17944   6.001   9.101   6.144 -0.2559 -0.3657  0.1875
  874MOL0     H17945   5.863   9.059   6.238  0.1758  1.0152 -0.0245
  874MOL0     H17946   5.815   8.944   5.975  0.9401  0.2028  0.6184
  874MOL0     H17947   5.839   8.861   6.130 -2.7540  1.4014  2.0557
  874MOL0     H17948   6.058   8.953   5.947 -2.0016  2.4290  1.1503
  874MOL0     H17949   6.010   8.785   5.953 -1.4477  1.3996 -3.4914
  874MOL0     H17950   6.275   8.932   6.291 -0.4913 -1.1829  0.9519
  874MOL0     H17951   6.498   8.866   6.304  0.6247  0.8567  0.3112
  874MOL0     H17952   6.737   8.385   6.070 -0.8020  1.7656  3.5937
  874MOL0     H17953   6.973   8.286   6.101  0.6246  0.4955  0.9125
  874MOL0     H17954   7.224   8.311   6.186  1.0194  1.2106  0.0946
  874MOL0     H17955   7.194   8.214   6.045  1.4093 -1.4134  2.5227
  874MOL0     H17956   7.434   8.396   6.099  1.3288 -1.2463  0.9205
  874MOL0     H17957   7.414   8.217   6.135  1.1235  0.3402 -0.0821
  874MOL0     H17958   7.376   8.173   5.892  0.2651  0.7454 -1.1661
  874MOL0     H17959   7.435   8.327   5.849 -1.7190 -0.9244 -0.6726
  874MOL0     H17960   7.599   8.142   6.026 -1.3029 -1.8510 -0.5531
  874MOL0     H17961   7.636   8.307   5.972 -0.9222 -0.6388  1.6144
  874MOL0     H17962   7.627   8.222   5.724 -1.6380 -1.7356 -0.9732
  874MOL0     H17963   7.590   8.064   5.805  0.9930 -1.1044  3.0889
  874MOL0     H17964   7.841   8.235   5.829 -0.3014  0.2711 -1.2346
  874MOL0     H17965   7.810   8.082   5.926  1.2942 -2.9014 -2.2847
  874MOL0     H17966   7.831   8.071   5.615  1.6613 -2.6721 -0.8676
  874MOL0     H17967   7.793   7.947   5.728  1.6852 -0.4811 -0.4468
  874MOL0     H17968   8.064   8.110   5.748  1.9710 -0.9127  0.0862
  874MOL0     H17969   8.003   7.974   5.845  2.8652 -1.3750 -1.0156
  874MOL0     H17970   7.108   8.665   5.910 -2.8647  1.2961 -2.6399
  874MOL0     H17971   6.887   8.738   5.900 -1.3328  0.7351  2.7694
  874MOL0     H17972   6.436   8.640   5.930  1.3129  0.8356  0.2240
  874MOL0     H17973   6.204   8.696   5.935  2.5672 -2.5232 -0.9375
  874MOL0     H17974   5.051   9.764   6.703 -1.2745 -0.9695  1.5858
  874MOL0     H17975   4.824   9.738   6.828 -2.0797 -0.8813 -0.7738
  874MOL0     H17976   4.514   9.914   6.968  0.6427  3.2412  0.7919
  874MOL0     H17977   4.350   9.986   7.130 -1.0549  2.3044  0.3014
  874MOL0     H17978   3.947  10.120   6.970 -0.0415 -1.0773  1.4018
  874MOL0     H17979   4.066  10.253   6.974 -2.3544  1.1610 -0.4267
  874MOL0     H17980   3.853  10.307   7.103  0.2563 -0.5129 -0.0770
  874MOL0     H17981   3.996  10.321   7.195  1.3917 -0.2526  0.3956
  874MOL0     H17982   3.817  10.203   7.319 -1.2337 -0.5998 -0.8890
  874MOL0     H17983   3.953  10.088   7.279  0.9478  1.4524  1.0450
  874MOL0     H17984   3.823   9.995   7.104  0.0850  0.7524 -0.9872
  874MOL0     H17985   3.735   9.994   7.266 -0.9852  1.2253 -1.1657
  874MOL0     H17986   3.455  10.207   7.061 -1.7888 -0.5527  2.7118
  874MOL0     H17987   4.066  10.058   6.806 -1.2272  0.5302  2.1407
  874MOL0     H17988   4.187   9.909   6.564  0.7023 -0.7664  0.0652
  874MOL0     H17989   4.150  10.081   6.606 -0.9449 -1.2446  0.6522
  874MOL0     H17990   4.314  10.036   6.551  0.6084  1.6960  2.6799
  875MOL0     O17991   6.481   3.494   5.898 -0.0590  0.7282 -0.7324
  875MOL0     C17992   6.532   3.544   5.802  0.2481  0.0186 -0.1839
  875MOL0     O17993   6.666   3.555   5.780 -0.1173  0.6029 -0.3341
  875MOL0     C17994   6.760   3.487   5.856  0.0189  0.1437 -0.3000
  875MOL0     C17995   6.762   3.481   5.996 -0.6566  0.3186  0.7872
  875MOL0     C17996   6.874   3.436   6.065  0.6703  0.1106  0.1726
  875MOL0     C17997   6.982   3.386   5.995 -0.7407  0.5383  0.3310
  875MOL0     O17998   7.085   3.339   6.068 -0.1826 -0.0236 -1.2896
  875MOL0     C17999   7.220   3.383   6.033  0.2605  0.1978 -0.0955
  875MOL0     C18000   7.326   3.321   6.117  0.2569  0.1422 -0.3892
  875MOL0     C18001   7.466   3.377   6.077  1.1033 -0.4855 -0.4572
  875MOL0     C18002   7.583   3.283   6.101 -1.1154  0.8276 -0.6750
  875MOL0     C18003   7.715   3.359   6.111 -0.0148  0.2312 -0.0200
  875MOL0     C18004   7.826   3.254   6.135  0.5249  0.3359 -0.1179
  875MOL0     C18005   7.905   3.218   6.020 -0.5171 -0.6479 -0.1415
  875MOL0     C18006   7.842   3.112   5.927  0.0542  1.0889  0.2132
  875MOL0     N18007   7.940   3.063   5.831 -0.0833  0.0512  0.6523
  875MOL0     C18008   8.050   2.989   5.870 -0.7066 -0.7906 -0.3058
  875MOL0     C18009   8.134   2.974   5.766  0.8031 -0.0782 -0.8769
  875MOL0     C18010   8.263   2.900   5.756 -0.7477  0.2758  0.3820
  875MOL0     C18011   8.341   2.891   5.892  0.6122 -0.1816 -0.1472
  875MOL0     C18012   8.488   2.858   5.876  0.6324 -0.8243 -0.2912
  875MOL0     C18013   8.576   2.884   5.991  0.1237 -0.2185 -0.3425
  875MOL0     O18014   8.709   2.878   5.943  0.2505  0.0259 -0.2102
  875MOL0     C18015   8.815   2.865   6.029  0.0431  0.1821 -1.0021
  875MOL0     C18016   8.800   2.834   6.166  0.3636  0.5385 -0.1749
  875MOL0     C18017   8.917   2.819   6.245 -0.1084 -0.2469  0.0796
  875MOL0     C18018   9.038   2.835   6.191 -0.0588 -0.1717 -0.3707
  875MOL0     C18019   9.163   2.823   6.274  0.5610 -0.4539  1.1214
  875MOL0     O18020   9.280   2.874   6.221 -0.3383  0.5756 -0.0167
  875MOL0     C18021   9.397   2.872   6.295  0.4719  0.0202  0.3690
  875MOL0     C18022   9.414   2.943   6.416 -0.6418  0.3797  0.2040
  875MOL0     C18023   9.537   2.961   6.478 -0.1843  0.9030 -0.2617
  875MOL0     C18024   9.645   2.889   6.432  0.0903 -0.0936 -0.1601
  875MOL0     O18025   9.762   2.882   6.503  0.0662 -0.0792  0.1962
  875MOL0     C18026   9.872   2.918   6.423 -0.5505 -0.2220 -0.3274
  875MOL0     C18027   9.976   2.959   6.525  0.0437 -0.7700  0.2937
  875MOL0     C18028  10.118   2.974   6.461 -0.4797 -0.4826 -0.9004
  875MOL0     C18029  10.214   2.918   6.563 -0.1687 -0.3357  1.1961
  875MOL0     C18030  10.349   2.985   6.532 -0.0474  0.4796  0.1877
  875MOL0     C18031  10.416   2.953   6.398  0.5445  0.1584  0.3036
  875MOL0     C18032  10.550   3.028   6.383 -0.2876  0.0806 -0.4541
  875MOL0     C18033  10.656   2.951   6.454 -0.6329  0.7218 -0.3978
  875MOL0    Cl18034  10.821   2.989   6.389 -0.1498  0.3543 -0.1174
  875MOL0     C18035   9.629   2.822   6.309 -0.6120  0.2401 -0.3634
  875MOL0     C18036   9.515   2.827   6.241  0.5537  0.3671 -0.7501
  875MOL0     O18037   9.156   2.778   6.388 -0.2597  0.6839  0.8831
  875MOL0     C18038   9.052   2.872   6.059  0.0073 -0.5556  0.0010
  875MOL0     C18039   8.940   2.886   5.974  0.2949  0.8654  0.2940
  875MOL0     N18040   8.073   3.057   5.664 -0.5268  0.4983 -0.5384
  875MOL0     N18041   7.972   3.112   5.706 -0.2653 -0.7684  0.1088
  875MOL0     C18042   6.980   3.375   5.857  0.7084 -0.1270 -0.3561
  875MOL0     C18043   6.867   3.439   5.788 -0.2940  0.1679 -0.8384
  875MOL0     C18044   6.447   3.620   5.707  0.0728 -0.2091 -0.4946
  875MOL0     C18045   6.505   3.638   5.585  0.1159 -0.4541 -0.0381
  875MOL0     C18046   6.422   3.703   5.492  0.4976 -0.1653 -0.0221
  875MOL0     C18047   6.286   3.744   5.511  0.0785 -0.1230 -0.1770
  875MOL0     O18048   6.225   3.812   5.414  0.0697  0.6288  0.2704
  875MOL0     C18049   6.122   3.904   5.460  0.6642 -0.6369  0.4159
  875MOL0     C18050   6.047   3.973   5.342  0.2470  0.4496  0.0897
  875MOL0     C18051   6.068   3.903   5.206 -0.4918 -0.3117  1.3213
  875MOL0     C18052   5.960   3.963   5.112  0.0395  0.2915  0.0027
  875MOL0     C18053   5.993   4.099   5.067 -0.6322 -0.1231  0.4335
  875MOL0     C18054   6.025   4.203   5.014  0.7356  0.7856  0.4834
  875MOL0     C18055   6.234   3.698   5.631 -0.5778  0.5977  0.0941
  875MOL0     C18056   6.307   3.638   5.729  0.7745  0.1794  0.6336
  875MOL0     C18057   6.236   3.613   5.850 -0.8159  0.2057 -0.5441
  875MOL0     H18058   6.676   3.530   6.042 -2.7995 -0.7919 -1.7526
  875MOL0     H18059   6.881   3.448   6.172  1.0252  0.2778  0.1288
  875MOL0     H18060   7.228   3.360   5.926 -1.1736  1.4674 -0.5122
  875MOL0     H18061   7.235   3.489   6.054  1.7731  0.0497 -0.3254
  875MOL0     H18062   7.324   3.213   6.099 -0.9003 -0.4266  2.5656
  875MOL0     H18063   7.297   3.330   6.222  1.8660 -1.0934  0.2105
  875MOL0     H18064   7.488   3.464   6.140 -0.6293 -1.5000  1.6763
  875MOL0     H18065   7.473   3.412   5.973  1.1614  2.1433  0.3499
  875MOL0     H18066   7.571   3.222   6.191  0.5462 -0.3841 -1.2297
  875MOL0     H18067   7.587   3.209   6.020  0.4618  2.2270 -1.9476
  875MOL0     H18068   7.734   3.414   6.019  2.0273 -0.8895 -0.3373
  875MOL0     H18069   7.720   3.430   6.194  2.5486 -0.9717  0.9649
  875MOL0     H18070   7.894   3.282   6.215  1.0769 -0.5274 -0.2703
  875MOL0     H18071   7.791   3.159   6.176 -1.8087 -0.0387 -2.6219
  875MOL0     H18072   8.006   3.180   6.041 -0.7592 -0.5509  1.2778
  875MOL0     H18073   7.910   3.310   5.961  0.0650 -0.3054  0.4348
  875MOL0     H18074   7.807   3.023   5.980  0.9769  0.4120 -0.2983
  875MOL0     H18075   7.758   3.161   5.876 -0.4712 -0.5025 -0.5313
  875MOL0     H18076   8.044   2.946   5.970  2.5952  1.9989  1.2895
  875MOL0     H18077   8.255   2.798   5.718 -0.2845  0.6084 -0.6480
  875MOL0     H18078   8.332   2.958   5.693 -0.8959  0.7862  0.6888
  875MOL0     H18079   8.325   2.991   5.931 -0.6476 -0.9066  1.3161
  875MOL0     H18080   8.292   2.819   5.959  2.5582 -1.2091  0.2342
  875MOL0     H18081   8.537   2.920   5.800  0.2331  0.1462  0.2186
  875MOL0     H18082   8.496   2.758   5.835 -1.2209 -1.5687  1.0212
  875MOL0     H18083   8.557   2.804   6.063 -0.0049 -0.5768 -0.7678
  875MOL0     H18084   8.553   2.981   6.035  0.2700 -1.0554  1.6805
  875MOL0     H18085   8.705   2.830   6.218  0.2309 -1.2011 -0.4825
  875MOL0     H18086   8.904   2.804   6.352 -6.2372  0.9057 -0.1535
  875MOL0     H18087   9.323   2.980   6.464 -0.8489 -1.3517  1.2472
  875MOL0     H18088   9.545   3.031   6.560 -0.4782  0.7594 -0.1092
  875MOL0     H18089   9.903   2.827   6.371  0.1897  0.3113 -0.8251
  875MOL0     H18090   9.864   3.004   6.357  0.3191  2.6067  2.9713
  875MOL0     H18091   9.953   3.055   6.571 -1.7302 -0.6250 -0.7988
  875MOL0     H18092   9.984   2.884   6.604  0.2910 -1.5130 -0.4191
  875MOL0     H18093  10.124   2.912   6.370 -0.4824 -0.0415 -1.2048
  875MOL0     H18094  10.137   3.079   6.440  1.8724 -1.0341 -1.8959
  875MOL0     H18095  10.219   2.809   6.550 -2.3469 -0.3790  0.1850
  875MOL0     H18096  10.192   2.934   6.669  0.2459  4.4142  0.7651
  875MOL0     H18097  10.416   2.966   6.617  2.8456  0.1563 -2.0034
  875MOL0     H18098  10.331   3.092   6.538 -3.6711 -0.0718  1.5863
  875MOL0     H18099  10.432   2.845   6.386  1.3616  0.5359 -3.5516
  875MOL0     H18100  10.352   2.989   6.316  2.9679  3.2336 -0.4189
  875MOL0     H18101  10.543   3.124   6.434 -0.7899 -1.4267  2.5093
  875MOL0     H18102  10.572   3.036   6.276  1.9428 -2.3157 -0.2579
  875MOL0     H18103  10.655   2.972   6.561 -3.3074  0.2990 -0.2902
  875MOL0     H18104  10.646   2.843   6.441  1.5117  0.4715 -0.3649
  875MOL0     H18105   9.718   2.766   6.285 -0.7057 -2.1929  4.0015
  875MOL0     H18106   9.502   2.803   6.135 -1.8913 -2.2181  0.0137
  875MOL0     H18107   9.155   2.878   6.025  0.7643  1.1952  2.3096
  875MOL0     H18108   8.950   2.896   5.866 -4.1435  1.4775 -0.2398
  875MOL0     H18109   7.060   3.332   5.798 -0.2418 -2.0941 -0.2761
  875MOL0     H18110   6.883   3.442   5.681 -0.1557  2.1251 -0.7979
  875MOL0     H18111   6.603   3.599   5.560  0.3548 -0.2624  0.5827
  875MOL0     H18112   6.464   3.718   5.393  1.4947 -0.4451  0.3439
  875MOL0     H18113   6.149   3.985   5.529 -3.0227  1.6034 -0.4620
  875MOL0     H18114   6.040   3.851   5.509  1.2647  0.2583  2.5008
  875MOL0     H18115   6.099   4.068   5.326  0.4524  0.3444  0.1272
  875MOL0     H18116   5.944   3.990   5.375  0.2362 -1.6892  1.3353
  875MOL0     H18117   6.056   3.795   5.214  1.8196 -0.6937  0.4457
  875MOL0     H18118   6.170   3.908   5.167 -0.5622  1.1410  1.2487
  875MOL0     H18119   5.926   3.898   5.031  0.1575 -0.5055  0.5807
  875MOL0     H18120   5.870   3.973   5.174  0.4447 -2.3499  1.1282
  875MOL0     H18121   6.043   4.295   4.962 -0.4580  0.0185 -1.3923
  875MOL0     H18122   6.127   3.709   5.645 -0.9393 -3.6778  2.2105
  875MOL0     H18123   6.271   3.690   5.919 -2.2890  0.9366 -0.5725
  875MOL0     H18124   6.129   3.637   5.846 -1.0994 -1.0149 -0.4619
  875MOL0     H18125   6.247   3.511   5.887 -2.1532  0.3851  0.4071
  876MOL0     O18126   7.100  10.970   0.234 -0.3026  0.0587  0.8360
  876MOL0     C18127   7.162  10.869   0.274 -0.0103 -0.2232  1.1165
  876MOL0     O18128   7.285  10.828   0.221  0.3446  0.0122  0.7790
  876MOL0     C18129   7.333  10.885   0.104 -0.7558  0.0681  0.1120
  876MOL0     C18130   7.265  10.955  -0.002 -0.0453 -0.8179 -0.0065
  876MOL0     C18131   7.331  11.018  -0.111  0.0633  0.5499 -0.4693
  876MOL0     C18132   7.465  10.994  -0.130  0.1833  0.3391  0.0601
  876MOL0     O18133   7.523  11.017  -0.256  0.7244  0.0840  0.0405
  876MOL0     C18134   7.647  10.963  -0.299  0.7299  0.5947 -0.7719
  876MOL0     C18135   7.624  10.827  -0.374 -1.0100 -0.2670  0.4399
  876MOL0     C18136   7.757  10.759  -0.409 -0.5140 -0.2822 -0.1691
  876MOL0     C18137   7.810  10.785  -0.552  0.9897 -0.3382  0.4948
  876MOL0     C18138   7.865  10.915  -0.585 -1.1414 -0.2764 -0.1358
  876MOL0     C18139   7.959  10.903  -0.713  0.0977  0.4652  0.6005
  876MOL0     C18140   8.101  10.855  -0.682  0.0418  1.0317  0.7748
  876MOL0     C18141   8.189  10.862  -0.807  0.3565  0.2066  1.2757
  876MOL0     N18142   8.312  10.797  -0.784 -0.0642  0.6836  0.3816
  876MOL0     C18143   8.329  10.685  -0.702  1.1157  0.2737  0.5596
  876MOL0     C18144   8.464  10.656  -0.701  0.3670 -0.0624 -0.0784
  876MOL0     C18145   8.533  10.529  -0.643 -0.2192  0.4695 -0.4267
  876MOL0     C18146   8.676  10.508  -0.691 -0.0409 -0.4202  0.7777
  876MOL0     C18147   8.781  10.598  -0.633  0.2674 -0.1715  0.1909
  876MOL0     C18148   8.923  10.576  -0.693  0.0967  0.7696 -0.1370
  876MOL0     O18149   9.012  10.658  -0.614 -0.5127 -0.2838  0.1341
  876MOL0     C18150   9.146  10.654  -0.654  0.3739 -0.5529 -0.0977
  876MOL0     C18151   9.230  10.753  -0.603 -0.4708  0.2888  0.7024
  876MOL0     C18152   9.363  10.752  -0.633 -0.1360 -0.2850  0.4028
  876MOL0     C18153   9.417  10.670  -0.727  0.0488  0.3063 -0.6027
  876MOL0     C18154   9.559  10.668  -0.765 -0.6912  0.3964 -0.3156
  876MOL0     O18155   9.633  10.774  -0.719 -0.5503 -0.1531  0.1514
  876MOL0     C18156   9.774  10.765  -0.740  0.7789 -0.1859 -0.1793
  876MOL0     C18157   9.833  10.877  -0.784  0.6115 -0.8675  0.1871
  876MOL0     C18158   9.975  10.898  -0.803 -0.0830  0.6169  1.0337
  876MOL0     C18159  10.057  10.791  -0.802  0.2811  1.1064  0.4024
  876MOL0     O18160  10.192  10.806  -0.844 -0.6566  0.2916 -0.4631
  876MOL0     C18161  10.290  10.777  -0.741 -0.3580 -0.2379 -0.3481
  876MOL0     C18162  10.270  10.887  -0.629  1.3496  0.1921  0.8608
  876MOL0     C18163  10.385  10.877  -0.538 -0.6371 -0.3403  0.2259
  876MOL0     C18164  10.394  10.997  -0.440 -0.3596 -0.1369  0.9312
  876MOL0     C18165  10.503  10.961  -0.343 -0.6027  0.4638  0.6883
  876MOL0     C18166  10.502  11.062  -0.223  0.2882  0.0670 -0.2055
  876MOL0     C18167  10.613  11.016  -0.119 -0.9054  0.4176 -0.5807
  876MOL0     C18168  10.750  11.054  -0.184  1.3939 -0.7107  0.2075
  876MOL0    Cl18169  10.871  11.024  -0.067 -0.5596 -0.1360 -0.0760
  876MOL0     C18170   9.999  10.665  -0.767 -0.3624  0.3062  0.2901
  876MOL0     C18171   9.866  10.655  -0.735  0.7932 -0.0110  0.5178
  876MOL0     O18172   9.604  10.570  -0.816  0.0752  0.4904  0.7571
  876MOL0     C18173   9.332  10.573  -0.782 -0.5553  0.6176  0.5488
  876MOL0     C18174   9.201  10.565  -0.746 -0.3444  0.6371 -0.4447
  876MOL0     N18175   8.523  10.760  -0.778 -0.0073 -0.3011 -0.2248
  876MOL0     N18176   8.436  10.847  -0.818  0.1798 -0.7883  0.1545
  876MOL0     C18177   7.534  10.924  -0.028  0.1349 -0.0831 -0.2824
  876MOL0     C18178   7.469  10.870   0.078 -0.4936 -0.2344 -0.6750
  876MOL0     C18179   7.091  10.791   0.381  0.4125 -1.0410  0.3407
  876MOL0     C18180   6.951  10.770   0.389 -0.1022  0.2676  0.1357
  876MOL0     C18181   6.885  10.698   0.486 -0.8073  0.1848  1.2209
  876MOL0     C18182   6.957  10.644   0.587  0.9983  0.0076 -0.7948
  876MOL0     O18183   6.906  10.562   0.682  0.2426 -0.2049  0.2451
  876MOL0     C18184   6.765  10.538   0.684 -0.5408  0.1420  0.7265
  876MOL0     C18185   6.731  10.473   0.812 -0.1335  0.1750  0.0018
  876MOL0     C18186   6.784  10.330   0.833 -0.6737  0.4841  0.3227
  876MOL0     C18187   6.733  10.260   0.961  0.1491  0.4323  0.5192
  876MOL0     C18188   6.750  10.350   1.078 -1.1814  0.3522 -0.0343
  876MOL0     C18189   6.765  10.428   1.173 -0.4122  0.7018 -0.4817
  876MOL0     C18190   7.095  10.663   0.588  0.4569  0.0235 -0.6675
  876MOL0     C18191   7.160  10.724   0.486 -0.5618  0.2314  0.8914
  876MOL0     C18192   7.316  10.724   0.497 -0.1422  0.4497  0.3429
  876MOL0     H18193   7.156  10.958  -0.000 -0.0546  1.2040 -1.1944
  876MOL0     H18194   7.275  11.078  -0.182 -0.4967 -0.7656 -1.1730
  876MOL0     H18195   7.691  11.043  -0.359 -1.3448  2.1483 -0.3650
  876MOL0     H18196   7.706  10.948  -0.208 -2.4543 -3.4605  0.9348
  876MOL0     H18197   7.561  10.847  -0.461  0.5660  1.0114 -0.4876
  876MOL0     H18198   7.569  10.760  -0.309  1.3613 -3.3172 -0.4827
  876MOL0     H18199   7.745  10.651  -0.392 -1.0960 -0.6747 -2.6926
  876MOL0     H18200   7.834  10.783  -0.335 -0.8348 -0.9949  0.4125
  876MOL0     H18201   7.881  10.703  -0.557  1.5386 -0.0261  2.4617
  876MOL0     H18202   7.726  10.753  -0.614  2.2161 -3.6621  0.3799
  876MOL0     H18203   7.794  10.990  -0.619  0.5149  1.5701  0.2800
  876MOL0     H18204   7.920  10.938  -0.493 -0.4507  1.2592 -0.8854
  876MOL0     H18205   7.912  10.835  -0.785  0.3450  1.7494 -0.8154
  876MOL0     H18206   7.977  11.000  -0.760  0.6996  0.1162  0.0865
  876MOL0     H18207   8.092  10.756  -0.637  1.6747  1.7947  2.9193
  876MOL0     H18208   8.145  10.914  -0.602  0.3305  2.7660 -0.5999
  876MOL0     H18209   8.132  10.794  -0.871 -3.1457  2.2818  1.8814
  876MOL0     H18210   8.194  10.955  -0.865 -0.9160 -2.5651 -3.8996
  876MOL0     H18211   8.256  10.626  -0.647  1.0153 -1.8159 -1.6557
  876MOL0     H18212   8.523  10.548  -0.536 -2.0247  1.4930 -0.7347
  876MOL0     H18213   8.479  10.441  -0.679  1.2712 -0.0227 -1.5617
  876MOL0     H18214   8.714  10.406  -0.678 -0.1346 -0.8894 -1.9862
  876MOL0     H18215   8.677  10.522  -0.800  1.7823  0.4829  0.8745
  876MOL0     H18216   8.773  10.613  -0.525  0.3000 -0.5978  0.2576
  876MOL0     H18217   8.753  10.697  -0.668 -0.8892 -0.6288 -0.2305
  876MOL0     H18218   8.934  10.590  -0.801  5.0113 -0.7648 -0.1098
  876MOL0     H18219   8.940  10.470  -0.673 -0.1100  0.8883  0.6920
  876MOL0     H18220   9.187  10.831  -0.542 -1.1045  2.0844 -1.8470
  876MOL0     H18221   9.434  10.827  -0.601  2.5368 -1.4032 -2.3914
  876MOL0     H18222   9.782  10.971  -0.804  3.8495  0.4791 -2.9364
  876MOL0     H18223  10.019  10.991  -0.836 -3.6271  2.1149  0.0065
  876MOL0     H18224  10.266  10.680  -0.696 -2.0924 -0.8569 -2.3989
  876MOL0     H18225  10.394  10.785  -0.774  0.5335  2.1573  2.6552
  876MOL0     H18226  10.269  10.984  -0.678 -0.4351 -0.4977 -0.5950
  876MOL0     H18227  10.176  10.862  -0.579  0.4089 -1.4177 -1.5424
  876MOL0     H18228  10.380  10.779  -0.490  4.7679 -1.5728 -0.9949
  876MOL0     H18229  10.478  10.881  -0.596 -0.7911  2.7338  0.0779
  876MOL0     H18230  10.296  11.007  -0.392  0.4748 -0.1154  2.7009
  876MOL0     H18231  10.424  11.088  -0.492 -0.9294 -0.7641 -0.5705
  876MOL0     H18232  10.591  10.959  -0.408 -2.1866 -1.9686 -1.6065
  876MOL0     H18233  10.488  10.858  -0.307 -0.5336  0.0205 -0.4912
  876MOL0     H18234  10.524  11.164  -0.257  1.7343  0.2794  1.2184
  876MOL0     H18235  10.397  11.067  -0.193 -0.1457  0.5636 -1.6892
  876MOL0     H18236  10.611  10.908  -0.100 -0.6504  0.4377 -0.4353
  876MOL0     H18237  10.602  11.067  -0.022 -0.4896 -0.3928 -0.0971
  876MOL0     H18238  10.769  11.013  -0.284  1.2192 -0.6295  0.1407
  876MOL0     H18239  10.744  11.163  -0.197 -0.2361 -0.4724  2.3864
  876MOL0     H18240  10.066  10.580  -0.763  0.4748  0.9559  0.5898
  876MOL0     H18241   9.824  10.569  -0.684  1.3912  0.9702  2.7984
  876MOL0     H18242   9.361  10.497  -0.854 -1.7955 -0.3586  1.0543
  876MOL0     H18243   9.136  10.482  -0.774 -1.6177  1.1408  0.8927
  876MOL0     H18244   7.636  10.889  -0.041 -0.2880 -2.2175  1.5040
  876MOL0     H18245   7.520  10.811   0.154 -1.3578 -3.3578 -2.3293
  876MOL0     H18246   6.900  10.808   0.301  1.5404 -0.2483 -1.0939
  876MOL0     H18247   6.779  10.686   0.465 -0.5916 -0.8096  0.6645
  876MOL0     H18248   6.739  10.480   0.595  1.3352  0.7423 -0.2531
  876MOL0     H18249   6.718  10.637   0.679  3.3953  2.1354 -0.9609
  876MOL0     H18250   6.622  10.474   0.821 -0.1836 -1.2622 -0.2899
  876MOL0     H18251   6.774  10.542   0.886  1.8473  1.6172 -2.3285
  876MOL0     H18252   6.893  10.340   0.820 -0.8127 -0.2017 -1.8445
  876MOL0     H18253   6.752  10.265   0.751  2.8991 -1.9659  0.6530
  876MOL0     H18254   6.625  10.249   0.954  0.2708  0.1320 -1.4822
  876MOL0     H18255   6.773  10.158   0.971  0.4684  0.4758 -0.2289
  876MOL0     H18256   6.787  10.486   1.260  0.7621 -0.7347  0.2291
  876MOL0     H18257   7.152  10.619   0.669 -1.1416 -1.7117 -0.3997
  876MOL0     H18258   7.344  10.661   0.412  1.0252  0.6612  0.5613
  876MOL0     H18259   7.357  10.825   0.509 -3.0524  1.6781  0.8220
  876MOL0     H18260   7.354  10.675   0.586 -1.4950  2.0134  1.8578
  877MOL0     O18261  10.883  10.255   3.328 -0.1723  0.6754 -0.0818
  877MOL0     C18262  10.815  10.181   3.403  0.0197 -0.8245 -0.2287
  877MOL0     O18263  10.860  10.095   3.496 -0.3742  0.1229  0.2372
  877MOL0     C18264  11.001  10.084   3.517 -0.0638 -0.3408  0.4682
  877MOL0     C18265  11.085  10.002   3.434 -0.0608  0.4301 -0.0700
  877MOL0     C18266  11.222   9.993   3.461 -0.2961 -0.1838  0.3000
  877MOL0     C18267  11.287  10.079   3.559  0.4472 -1.0663  1.1161
  877MOL0     O18268  11.418  10.095   3.578 -0.4695 -0.2438  0.3625
  877MOL0     C18269  11.510  10.002   3.526 -0.2532  0.3296  0.0854
  877MOL0     C18270  11.581   9.952   3.647 -0.3953 -0.2565 -0.1071
  877MOL0     C18271  11.680  10.053   3.701  0.1487  0.4114 -0.1299
  877MOL0     C18272  11.756  10.009   3.831 -0.8662  0.2059 -0.7597
  877MOL0     C18273  11.886  10.085   3.871 -0.4999  0.1691 -0.3334
  877MOL0     C18274  11.863  10.231   3.864 -0.0979 -0.8224 -0.2748
  877MOL0     C18275  12.000  10.302   3.886  0.3185  0.2807  0.2328
  877MOL0     C18276  12.051  10.292   4.027  0.4228 -0.1875 -0.2248
  877MOL0     N18277  12.185  10.344   4.040  0.3461 -0.5324  0.7427
  877MOL0     C18278  12.218  10.459   4.110  0.5183 -0.3538  0.0610
  877MOL0     C18279  12.347  10.477   4.087 -0.2618  0.0459 -0.4714
  877MOL0     C18280  12.431  10.586   4.126 -0.4801  0.1223  0.7163
  877MOL0     C18281  12.498  10.555   4.259 -0.2726 -0.2427 -0.1655
  877MOL0     C18282  12.574  10.682   4.312  0.7219  0.8019  0.7510
  877MOL0     C18283  12.707  10.730   4.252  0.0195 -0.3264  0.2793
  877MOL0     O18284  12.811  10.634   4.267 -0.2889  0.4464 -0.5365
  877MOL0     C18285  12.938  10.673   4.238  0.8142  0.2108  0.0865
  877MOL0     C18286  13.036  10.599   4.299 -0.0770 -0.1071 -0.8133
  877MOL0     C18287  13.169  10.633   4.280 -0.0156 -0.2763 -0.5096
  877MOL0     C18288  13.203  10.734   4.184 -0.1773  0.2914  0.0316
  877MOL0     C18289  13.348  10.757   4.157 -0.0472 -0.1045  0.5557
  877MOL0     O18290  13.382  10.847   4.058  0.0512  0.0852  0.4254
  877MOL0     C18291  13.519  10.859   4.026  0.8444  0.3458 -0.1038
  877MOL0     C18292  13.547  10.863   3.888 -0.3543 -0.2155  0.0437
  877MOL0     C18293  13.684  10.895   3.853  0.6924 -0.4508  0.4820
  877MOL0     C18294  13.791  10.905   3.945  0.1460 -0.1185  0.5761
  877MOL0     O18295  13.923  10.908   3.906  0.1021 -0.2304  0.7834
  877MOL0     C18296  13.949  10.931   3.772 -0.2763  0.2553  0.1545
  877MOL0     C18297  14.089  10.909   3.728  0.4023  0.3824  0.0990
  877MOL0     C18298  14.185  10.996   3.801 -0.9480 -0.9124  0.1784
  877MOL0     C18299  14.319  10.973   3.729  1.5685  1.1903  0.2386
  877MOL0     C18300  14.414  11.084   3.744 -0.0063 -0.1485 -0.8134
  877MOL0     C18301  14.548  11.043   3.677  0.1866 -0.5279  0.3994
  877MOL0     C18302  14.629  10.927   3.733  0.4253  0.8550  0.2667
  877MOL0     C18303  14.705  10.962   3.867  1.1101  0.5233  0.1496
  877MOL0    Cl18304  14.840  11.077   3.835 -0.3466  0.2031  0.6061
  877MOL0     C18305  13.759  10.899   4.076 -0.3254  0.8451 -0.3593
  877MOL0     C18306  13.623  10.867   4.122 -0.4527  0.1956 -0.8056
  877MOL0     O18307  13.428  10.685   4.215 -0.4438 -0.4849  0.0068
  877MOL0     C18308  13.102  10.797   4.113 -0.4944 -0.2724  0.0768
  877MOL0     C18309  12.965  10.779   4.154  0.1736  0.1317 -0.2596
  877MOL0     N18310  12.392  10.369   4.022  0.3587  0.3477  0.4499
  877MOL0     N18311  12.297  10.295   3.983  0.3181 -0.2189  0.1467
  877MOL0     C18312  11.196  10.151   3.638 -0.6214 -0.3323  0.2840
  877MOL0     C18313  11.059  10.154   3.616 -0.1259 -1.3478 -0.0041
  877MOL0     C18314  10.672  10.171   3.374  0.1298 -0.1917  0.5916
  877MOL0     C18315  10.607  10.043   3.378  0.1743  0.5272  0.1710
  877MOL0     C18316  10.476  10.018   3.341  0.7400 -0.1396  0.1737
  877MOL0     C18317  10.403  10.135   3.293 -0.4505  0.1557 -0.1354
  877MOL0     O18318  10.267  10.130   3.261 -0.3550  0.6699  1.3570
  877MOL0     C18319  10.195  10.007   3.241 -1.2574 -0.6316 -0.5605
  877MOL0     C18320  10.070  10.066   3.174 -0.6837  0.5571  0.2353
  877MOL0     C18321   9.960   9.968   3.141 -0.5537 -0.2749 -0.1871
  877MOL0     C18322   9.985   9.896   3.008 -0.2359  0.2282 -0.0716
  877MOL0     C18323   9.884   9.801   2.974  0.2780  0.4126 -0.3325
  877MOL0     C18324   9.799   9.721   2.946 -0.5621 -1.0500 -0.4128
  877MOL0     C18325  10.467  10.261   3.273  0.0291 -0.0688  0.8024
  877MOL0     C18326  10.598  10.278   3.321 -0.3540  0.5762  0.6269
  877MOL0     C18327  10.653  10.415   3.314  1.3700 -0.0496 -0.4463
  877MOL0     H18328  11.034   9.959   3.349 -2.0200 -0.5727  1.5458
  877MOL0     H18329  11.283   9.939   3.390 -2.9523 -2.2125 -0.5840
  877MOL0     H18330  11.463   9.918   3.474 -1.0114  0.0003  1.2645
  877MOL0     H18331  11.581  10.053   3.460 -0.3442  1.3082  0.7274
  877MOL0     H18332  11.624   9.854   3.626 -1.2112 -0.5161 -0.6257
  877MOL0     H18333  11.509   9.923   3.724  0.2321 -0.0453  0.5694
  877MOL0     H18334  11.630  10.149   3.720  0.0540  0.5500 -1.0299
  877MOL0     H18335  11.757  10.061   3.625  2.9359 -1.7287  2.2415
  877MOL0     H18336  11.691  10.019   3.918  1.2235  0.4539  0.8510
  877MOL0     H18337  11.786   9.906   3.809  1.7426  1.1267 -1.8815
  877MOL0     H18338  11.928  10.060   3.969 -0.2324  1.1525 -0.1836
  877MOL0     H18339  11.960  10.057   3.796  0.2699  5.0326 -1.7575
  877MOL0     H18340  11.812  10.264   3.773  1.4496  2.5029 -0.1019
  877MOL0     H18341  11.798  10.261   3.947  1.7130  0.3022  0.8166
  877MOL0     H18342  11.993  10.407   3.855  1.1337 -0.5310 -3.1603
  877MOL0     H18343  12.073  10.262   3.814 -0.0122  0.8204 -0.4147
  877MOL0     H18344  11.988  10.358   4.087  1.7015 -0.2240  1.2327
  877MOL0     H18345  12.045  10.187   4.058 -0.9914 -0.1711 -0.4068
  877MOL0     H18346  12.152  10.517   4.175 -0.3956 -2.4877  1.1203
  877MOL0     H18347  12.505  10.603   4.048  0.1458 -3.0190  0.5015
  877MOL0     H18348  12.360  10.669   4.136 -4.5920 -2.6077 -2.4505
  877MOL0     H18349  12.425  10.537   4.338 -0.5807  0.0740 -0.3765
  877MOL0     H18350  12.559  10.467   4.237  0.4582  0.3972 -0.7618
  877MOL0     H18351  12.591  10.664   4.419  0.8852 -0.6639  0.4968
  877MOL0     H18352  12.491  10.753   4.310  0.0884  0.0637  0.3553
  877MOL0     H18353  12.736  10.826   4.296  0.6763  0.3247 -1.5027
  877MOL0     H18354  12.688  10.754   4.147 -0.1649  1.6921  0.7257
  877MOL0     H18355  13.004  10.516   4.360 -1.1577 -2.0109 -3.7398
  877MOL0     H18356  13.247  10.587   4.340 -1.4729 -0.4393  1.3483
  877MOL0     H18357  13.464  10.853   3.818  2.0072  1.4573 -3.2930
  877MOL0     H18358  13.701  10.905   3.747 -1.1030 -2.1212 -0.0086
  877MOL0     H18359  13.895  10.882   3.691  1.5934 -3.6219  1.0669
  877MOL0     H18360  13.919  11.037   3.772 -1.2649 -0.0158  0.5132
  877MOL0     H18361  14.111  10.804   3.746 -1.9854 -0.2224 -0.0864
  877MOL0     H18362  14.100  10.929   3.620 -3.9130 -0.3765 -0.6710
  877MOL0     H18363  14.168  11.104   3.805  1.7002 -0.4327  0.3344
  877MOL0     H18364  14.193  10.955   3.902 -0.1953  0.9310  0.9171
  877MOL0     H18365  14.305  10.942   3.625 -1.0960 -4.1236  1.7991
  877MOL0     H18366  14.364  10.885   3.776  0.2378 -0.7053 -1.7861
  877MOL0     H18367  14.433  11.107   3.849 -0.3450 -1.9504 -0.3366
  877MOL0     H18368  14.373  11.168   3.686  1.5606  1.3483  0.1424
  877MOL0     H18369  14.523  11.037   3.571  0.2762  2.4458  0.1223
  877MOL0     H18370  14.617  11.128   3.678 -1.8386  1.3325 -2.2314
  877MOL0     H18371  14.696  10.893   3.654 -0.6606 -1.4731  0.2839
  877MOL0     H18372  14.560  10.845   3.756  0.1620  0.4779 -1.7288
  877MOL0     H18373  14.632  11.000   3.938 -0.3027 -0.9303 -0.4630
  877MOL0     H18374  14.736  10.865   3.908 -0.7136 -1.0919 -2.0334
  877MOL0     H18375  13.833  10.905   4.154 -1.1088  0.5922  0.4169
  877MOL0     H18376  13.595  10.859   4.226 -2.7455  2.7336 -1.1299
  877MOL0     H18377  13.137  10.866   4.038  0.7156 -2.0924 -1.1083
  877MOL0     H18378  12.894  10.847   4.108 -0.8059 -0.9906 -0.4388
  877MOL0     H18379  11.235  10.218   3.714 -1.6971  1.1734 -0.4440
  877MOL0     H18380  10.999  10.219   3.679  0.5090  0.9525 -1.6527
  877MOL0     H18381  10.671   9.961   3.408  1.5083  1.5707  0.2953
  877MOL0     H18382  10.425   9.923   3.356  0.9932 -0.3939 -0.5365
  877MOL0     H18383  10.173   9.962   3.338 -2.2775 -0.3682 -0.6592
  877MOL0     H18384  10.243   9.935   3.174 -3.1786 -2.0707 -0.4582
  877MOL0     H18385  10.089  10.129   3.087 -1.3556  1.0381  0.4305
  877MOL0     H18386  10.029  10.133   3.250 -1.7288  1.9262 -1.4815
  877MOL0     H18387   9.873  10.030   3.114  0.5537  1.0755 -0.7695
  877MOL0     H18388   9.930   9.901   3.222 -0.7500  0.3301  0.2470
  877MOL0     H18389   9.973   9.969   2.928 -0.2278 -0.1646 -0.4339
  877MOL0     H18390  10.081   9.844   3.002 -1.5943 -2.3062 -2.0594
  877MOL0     H18391   9.720   9.649   2.935 -4.0826  2.1645  1.5710
  877MOL0     H18392  10.411  10.348   3.239  0.0141  0.7963  2.8905
  877MOL0     H18393  10.569  10.482   3.295 -0.1952 -2.1217 -1.3118
  877MOL0     H18394  10.717  10.441   3.400  2.3106  0.8822 -1.4030
  877MOL0     H18395  10.718  10.421   3.226  0.7727  2.1641 -0.7739
  878MOL0     O18396   1.661   2.342   5.993  0.2329  0.2506 -0.2720
  878MOL0     C18397   1.697   2.361   6.107 -0.0894  0.4204 -0.4641
  878MOL0     O18398   1.819   2.323   6.153 -0.0490  0.8940 -0.1296
  878MOL0     C18399   1.902   2.244   6.082  0.1798 -0.3801  0.7865
  878MOL0     C18400   2.040   2.272   6.112  0.6154  0.1861  0.4872
  878MOL0     C18401   2.147   2.191   6.056 -0.5491  0.3251  0.4380
  878MOL0     C18402   2.110   2.087   5.961  0.2026  0.1637 -1.3089
  878MOL0     O18403   2.202   2.007   5.902  0.6793  0.3753 -0.0473
  878MOL0     C18404   2.304   2.079   5.834 -0.3281 -0.2736  0.1981
  878MOL0     C18405   2.431   1.990   5.830  0.7996  0.6596 -0.4003
  878MOL0     C18406   2.534   2.022   5.723 -0.0234 -0.7085 -0.1610
  878MOL0     C18407   2.676   1.962   5.740  0.3856 -0.1795 -0.0060
  878MOL0     C18408   2.754   1.944   5.609 -0.9991 -0.1392 -0.2400
  878MOL0     C18409   2.900   1.901   5.642  0.4859 -0.1558 -0.2418
  878MOL0     C18410   2.983   1.875   5.515  0.6158  0.0615 -0.0526
  878MOL0     C18411   3.103   1.799   5.552  0.1441  0.6801  0.9266
  878MOL0     N18412   3.189   1.791   5.430  0.4558 -0.2354  0.1775
  878MOL0     C18413   3.229   1.682   5.358  0.3356  0.4016 -0.2003
  878MOL0     C18414   3.324   1.729   5.271  0.1962  0.4866 -0.1943
  878MOL0     C18415   3.410   1.644   5.173 -0.0118 -0.2209  0.8305
  878MOL0     C18416   3.561   1.652   5.210  0.0928 -0.0402 -0.5781
  878MOL0     C18417   3.648   1.595   5.101  0.1535 -0.4937  0.8675
  878MOL0     C18418   3.784   1.569   5.148  0.3052  0.5536 -0.0809
  878MOL0     O18419   3.858   1.509   5.038  0.2538  0.1896 -0.3644
  878MOL0     C18420   3.988   1.473   5.075  1.0453  0.3148 -0.1410
  878MOL0     C18421   4.072   1.553   5.153  0.3513  0.4151 -0.4204
  878MOL0     C18422   4.203   1.503   5.169  0.1564 -0.6287  0.0141
  878MOL0     C18423   4.245   1.385   5.107 -0.2756  0.4483  0.9604
  878MOL0     C18424   4.390   1.344   5.124 -0.0874 -0.0477  0.5248
  878MOL0     O18425   4.480   1.440   5.132 -0.5760  0.1504  0.1861
  878MOL0     C18426   4.609   1.408   5.132 -0.1388 -0.1190 -1.0660
  878MOL0     C18427   4.664   1.357   5.246 -0.5843  0.1846  0.3424
  878MOL0     C18428   4.809   1.345   5.244 -1.2410 -1.1579  0.2190
  878MOL0     C18429   4.888   1.342   5.121  0.1037  0.6796  0.8267
  878MOL0     O18430   5.012   1.297   5.123  0.1270  0.3239  0.7846
  878MOL0     C18431   5.107   1.385   5.056 -0.2470  0.4738 -0.3283
  878MOL0     C18432   5.243   1.315   5.060 -0.4456 -0.2280 -0.0205
  878MOL0     C18433   5.263   1.189   4.972  0.0843  0.4709 -0.0216
  878MOL0     C18434   5.402   1.122   4.971 -0.5546 -0.3129  0.5166
  878MOL0     C18435   5.423   1.036   4.849  0.0076  0.0380  0.6096
  878MOL0     C18436   5.549   0.946   4.862  0.1268  0.1915  0.1390
  878MOL0     C18437   5.548   0.848   4.739  0.2021 -0.7105 -0.8296
  878MOL0     C18438   5.682   0.769   4.753  0.1613  0.2039  0.6920
  878MOL0    Cl18439   5.700   0.639   4.621 -0.0077  0.4374  0.2009
  878MOL0     C18440   4.817   1.374   5.004  0.1829  0.8420 -0.6410
  878MOL0     C18441   4.682   1.405   5.012  1.0634  0.4083  0.2232
  878MOL0     O18442   4.415   1.222   5.123  0.0288 -1.0524 -0.1644
  878MOL0     C18443   4.169   1.311   5.024 -0.4260  0.2833  0.3922
  878MOL0     C18444   4.034   1.359   5.013 -0.9093 -0.4914  0.0925
  878MOL0     N18445   3.325   1.867   5.277  0.1735  0.8564 -0.0932
  878MOL0     N18446   3.242   1.906   5.371 -0.2613 -0.3240  0.5167
  878MOL0     C18447   1.984   2.048   5.943  0.1068 -0.7202  0.0998
  878MOL0     C18448   1.879   2.134   5.994 -0.3326 -1.1783 -0.8352
  878MOL0     C18449   1.599   2.415   6.201 -0.3629 -0.6831  0.8162
  878MOL0     C18450   1.622   2.390   6.339 -0.2000  0.1582 -0.6168
  878MOL0     C18451   1.534   2.439   6.430  0.9025  0.7083  0.1977
  878MOL0     C18452   1.410   2.492   6.392  0.0512 -0.1307 -0.2529
  878MOL0     O18453   1.329   2.538   6.493  0.0804 -0.0899  0.1044
  878MOL0     C18454   1.223   2.629   6.472 -0.4889 -0.1867  0.2918
  878MOL0     C18455   1.157   2.648   6.604 -0.3692  0.3343  0.4613
  878MOL0     C18456   1.047   2.746   6.601 -0.7905 -0.6231  0.2630
  878MOL0     C18457   0.967   2.760   6.730  0.1841 -0.0836 -0.2372
  878MOL0     C18458   0.824   2.787   6.702 -0.1877 -0.3902  0.1478
  878MOL0     C18459   0.705   2.791   6.669 -0.2376  0.0956 -0.8403
  878MOL0     C18460   1.378   2.514   6.254 -0.0105  0.6178 -0.9921
  878MOL0     C18461   1.471   2.472   6.162 -0.8861  0.0458  0.2452
  878MOL0     C18462   1.423   2.492   6.020 -0.5458  1.2299 -0.0784
  878MOL0     H18463   2.067   2.354   6.178 -0.2293  3.4086 -2.8666
  878MOL0     H18464   2.251   2.193   6.088  0.0840 -2.3064 -1.1103
  878MOL0     H18465   2.271   2.099   5.732 -1.7928  0.2056  0.7477
  878MOL0     H18466   2.324   2.174   5.884 -1.1272 -1.0808  2.1278
  878MOL0     H18467   2.394   1.887   5.820 -0.4984  1.0373  0.3763
  878MOL0     H18468   2.484   1.999   5.925 -0.0735 -0.2146  0.1877
  878MOL0     H18469   2.545   2.130   5.711  3.3603 -1.0583 -1.3895
  878MOL0     H18470   2.491   1.984   5.629 -1.5979 -2.4408  1.1777
  878MOL0     H18471   2.731   2.030   5.806  2.0975 -0.0335 -1.5071
  878MOL0     H18472   2.669   1.857   5.771  2.9615 -0.8976 -1.5216
  878MOL0     H18473   2.712   1.869   5.542 -1.6096  1.4272 -1.6850
  878MOL0     H18474   2.765   2.041   5.558  3.8029  0.3457  1.2220
  878MOL0     H18475   2.951   1.974   5.705 -0.0099 -1.7969  2.1769
  878MOL0     H18476   2.891   1.809   5.701  0.1941  0.8863  1.3889
  878MOL0     H18477   3.026   1.971   5.484  2.0395 -0.8527 -1.0093
  878MOL0     H18478   2.927   1.825   5.436 -2.3205  0.3521  1.7108
  878MOL0     H18479   3.169   1.827   5.634  0.1795  0.0958  1.1027
  878MOL0     H18480   3.074   1.694   5.565  0.2859  0.5954  0.5857
  878MOL0     H18481   3.217   1.578   5.386 -0.4280 -0.3373 -2.9291
  878MOL0     H18482   3.381   1.540   5.182  1.1786 -0.6237  0.2784
  878MOL0     H18483   3.403   1.686   5.072  0.3509 -0.2138  0.8065
  878MOL0     H18484   3.579   1.756   5.237 -0.6107 -0.7178  3.0705
  878MOL0     H18485   3.575   1.595   5.302 -0.6226  1.5950  0.6004
  878MOL0     H18486   3.644   1.659   5.013 -2.0964 -0.2489  1.1060
  878MOL0     H18487   3.603   1.501   5.069 -0.1673  0.0079 -0.1929
  878MOL0     H18488   3.799   1.517   5.244  0.4087  0.8977  0.0926
  878MOL0     H18489   3.836   1.662   5.172 -1.4339  0.9556  2.5657
  878MOL0     H18490   4.038   1.647   5.195 -0.0411  0.3801 -0.6530
  878MOL0     H18491   4.271   1.567   5.226  1.3880 -2.4038  0.6273
  878MOL0     H18492   4.599   1.346   5.332  1.1635  0.6348  1.7968
  878MOL0     H18493   4.868   1.318   5.330  0.8648 -1.8152 -1.3476
  878MOL0     H18494   5.083   1.408   4.952 -0.5253  0.8859 -0.1761
  878MOL0     H18495   5.109   1.482   5.108  1.6024  0.5203 -0.4266
  878MOL0     H18496   5.320   1.391   5.040 -1.9520  1.9281  1.7803
  878MOL0     H18497   5.267   1.291   5.164  1.4425  1.3842 -0.0212
  878MOL0     H18498   5.191   1.118   5.012  1.3960 -0.4689  0.7514
  878MOL0     H18499   5.219   1.201   4.873  0.4608 -1.8483 -0.5189
  878MOL0     H18500   5.421   1.055   5.056  2.3960 -1.3778 -0.8547
  878MOL0     H18501   5.474   1.204   4.970 -0.6133 -0.2070 -2.5024
  878MOL0     H18502   5.431   1.102   4.762 -2.9225 -0.2875  0.0061
  878MOL0     H18503   5.329   0.985   4.829 -0.0497  0.9065 -1.6343
  878MOL0     H18504   5.637   1.010   4.861  0.1902  0.1818  2.1887
  878MOL0     H18505   5.548   0.880   4.949  2.5336  1.9408  1.6108
  878MOL0     H18506   5.546   0.902   4.643 -0.5475  0.6840 -0.0615
  878MOL0     H18507   5.462   0.782   4.752  1.2571 -2.3214 -1.6795
  878MOL0     H18508   5.758   0.846   4.747 -1.2836  1.6289 -0.0046
  878MOL0     H18509   5.685   0.717   4.849 -0.3271 -0.5313  0.3243
  878MOL0     H18510   4.870   1.377   4.909 -0.3441  0.2296 -0.9630
  878MOL0     H18511   4.631   1.434   4.921  1.1611  2.3602  0.7513
  878MOL0     H18512   4.211   1.229   4.967 -0.4629  0.9365 -0.6039
  878MOL0     H18513   3.978   1.299   4.943 -0.4066  0.6140 -1.2978
  878MOL0     H18514   1.966   1.961   5.881  0.0275 -1.3499  0.9893
  878MOL0     H18515   1.775   2.116   5.970 -1.1531  1.7647  0.1118
  878MOL0     H18516   1.712   2.340   6.373 -0.7057 -0.3680 -0.0310
  878MOL0     H18517   1.561   2.419   6.534  2.1717  0.1159 -0.2222
  878MOL0     H18518   1.156   2.593   6.392 -1.5573  3.0586 -0.4571
  878MOL0     H18519   1.268   2.723   6.440  0.9674 -1.6360 -2.2743
  878MOL0     H18520   1.235   2.691   6.668  1.5026  0.6342 -1.8673
  878MOL0     H18521   1.127   2.548   6.637 -0.2821 -0.3309 -1.3979
  878MOL0     H18522   0.990   2.705   6.517  1.1473 -1.1739 -0.8614
  878MOL0     H18523   1.094   2.842   6.577  0.8556 -1.2604  0.7515
  878MOL0     H18524   0.972   2.670   6.792 -1.9643  0.1161  0.3125
  878MOL0     H18525   0.999   2.844   6.792 -1.8471  1.5811 -1.2857
  878MOL0     H18526   0.601   2.792   6.647 -1.3828 -0.5300  3.6965
  878MOL0     H18527   1.294   2.574   6.221 -0.4156 -0.6840 -2.4069
  878MOL0     H18528   1.322   2.532   6.010 -0.3113  1.9226  0.2441
  878MOL0     H18529   1.488   2.560   5.964  1.9831 -1.3863 -0.5464
  878MOL0     H18530   1.418   2.399   5.963  2.0182  0.4146  0.9087
  879MOL0     O18531   7.314   0.905   0.779 -0.0469 -0.1789 -0.4791
  879MOL0     C18532   7.249   0.804   0.742 -0.4144  1.2057  0.1225
  879MOL0     O18533   7.290   0.671   0.738 -0.0234  0.0768 -0.1493
  879MOL0     C18534   7.419   0.646   0.793 -0.2279 -0.4070  0.5652
  879MOL0     C18535   7.471   0.707   0.914 -0.2743  1.1494  0.6341
  879MOL0     C18536   7.603   0.670   0.964  0.6503  0.2938 -0.1476
  879MOL0     C18537   7.678   0.567   0.895 -0.1342  0.1852 -0.7554
  879MOL0     O18538   7.793   0.530   0.955  0.2645  0.1569  0.2980
  879MOL0     C18539   7.897   0.474   0.869  0.9164 -0.0816 -0.4570
  879MOL0     C18540   8.031   0.470   0.943 -0.1967 -0.3283  0.3225
  879MOL0     C18541   8.149   0.539   0.865  0.4298 -0.6721 -0.5506
  879MOL0     C18542   8.284   0.488   0.934 -0.5199 -0.7722  0.0082
  879MOL0     C18543   8.405   0.537   0.850  0.0415 -0.5482  0.3842
  879MOL0     C18544   8.538   0.540   0.926 -0.3022 -0.1200 -0.1856
  879MOL0     C18545   8.655   0.597   0.845 -0.2412 -0.1220  0.2555
  879MOL0     C18546   8.779   0.572   0.931  0.4688  0.2222  0.2987
  879MOL0     N18547   8.902   0.580   0.856  0.3042 -0.3928  0.4842
  879MOL0     C18548   9.024   0.605   0.919 -0.1733 -1.1185 -0.2865
  879MOL0     C18549   9.119   0.595   0.828  0.1589 -0.1330  0.2634
  879MOL0     C18550   9.267   0.606   0.855  0.7814  0.6276  0.2838
  879MOL0     C18551   9.343   0.520   0.754  0.9057  0.2525 -0.2255
  879MOL0     C18552   9.478   0.488   0.799  0.0095 -0.3656 -0.1533
  879MOL0     C18553   9.581   0.593   0.782  0.2907 -0.5967  0.3879
  879MOL0     O18554   9.715   0.556   0.836 -0.3002  0.1740 -0.3557
  879MOL0     C18555   9.820   0.637   0.818 -0.3745  0.5371 -0.1786
  879MOL0     C18556   9.930   0.622   0.897 -0.0091  0.6729  0.1703
  879MOL0     C18557  10.035   0.703   0.880  0.0787 -0.3315 -0.1515
  879MOL0     C18558  10.031   0.812   0.791 -0.8434 -0.0476 -0.0644
  879MOL0     C18559  10.147   0.899   0.745 -1.0075  0.3191 -0.4767
  879MOL0     O18560  10.260   0.903   0.826 -0.1205  0.7370 -0.1326
  879MOL0     C18561  10.371   0.965   0.783 -0.3469 -0.6164 -0.3174
  879MOL0     C18562  10.427   1.069   0.859  0.0425  0.0577 -0.8097
  879MOL0     C18563  10.541   1.139   0.819 -0.0478 -0.0725  0.5239
  879MOL0     C18564  10.607   1.112   0.701  0.5754 -1.0222  0.1850
  879MOL0     O18565  10.729   1.172   0.682 -0.4842  0.3264  0.1113
  879MOL0     C18566  10.829   1.087   0.618 -0.0869  0.2666  0.5791
  879MOL0     C18567  10.952   1.164   0.577 -0.5548  0.3542  0.2705
  879MOL0     C18568  11.021   1.242   0.691  0.1306 -0.0931  0.0214
  879MOL0     C18569  11.165   1.272   0.649 -0.0647  0.4490 -0.4822
  879MOL0     C18570  11.235   1.360   0.754  0.6319 -0.3732 -0.5867
  879MOL0     C18571  11.355   1.433   0.695 -0.1773  0.5479 -0.9261
  879MOL0     C18572  11.425   1.502   0.811 -0.7201 -0.6219  0.6640
  879MOL0     C18573  11.566   1.558   0.776  0.7941  0.1959  0.4511
  879MOL0    Cl18574  11.690   1.439   0.747  0.2490  0.0334  0.2902
  879MOL0     C18575  10.541   1.013   0.609 -0.2136  0.2816 -0.0371
  879MOL0     C18576  10.434   0.945   0.663 -0.0268  0.6767  0.4883
  879MOL0     O18577  10.135   0.965   0.648 -0.3796  0.3475  0.3901
  879MOL0     C18578   9.921   0.820   0.709 -0.1356 -0.7196 -0.1404
  879MOL0     C18579   9.814   0.738   0.721 -0.2248  0.1388 -0.1703
  879MOL0     N18580   9.055   0.552   0.711 -0.0826  0.0523  0.4917
  879MOL0     N18581   8.925   0.536   0.736  0.2085  1.1908  0.2948
  879MOL0     C18582   7.623   0.511   0.783  0.2186 -0.1110 -0.3287
  879MOL0     C18583   7.498   0.549   0.732 -0.8509  0.0257 -0.7350
  879MOL0     C18584   7.115   0.812   0.694  0.1145 -0.1349 -0.8786
  879MOL0     C18585   7.050   0.937   0.698 -0.2189  0.1659 -0.3963
  879MOL0     C18586   6.924   0.951   0.644 -1.5009 -0.0039  0.0626
  879MOL0     C18587   6.846   0.848   0.590  0.1336 -0.6906 -0.0356
  879MOL0     O18588   6.726   0.885   0.535  0.0486  0.1304 -0.9129
  879MOL0     C18589   6.629   0.789   0.498 -0.2428 -0.6183 -0.3183
  879MOL0     C18590   6.497   0.852   0.456 -0.3753  0.0871  0.1362
  879MOL0     C18591   6.400   0.748   0.413 -0.1510 -0.0963 -0.2941
  879MOL0     C18592   6.261   0.796   0.352  0.2682  0.5291 -0.7686
  879MOL0     C18593   6.263   0.837   0.213  0.9375  0.7169 -0.1966
  879MOL0     C18594   6.248   0.882   0.102  0.4870  0.2921 -0.3276
  879MOL0     C18595   6.901   0.724   0.581 -0.3012  0.0887 -0.7704
  879MOL0     C18596   7.035   0.705   0.633  0.6320 -0.2128 -1.1762
  879MOL0     C18597   7.079   0.561   0.616 -0.0007 -0.3532  0.0481
  879MOL0     H18598   7.407   0.778   0.966 -3.2352 -1.1222  0.4096
  879MOL0     H18599   7.635   0.716   1.057 -1.9323  1.1191  0.4183
  879MOL0     H18600   7.860   0.372   0.857  0.1860  0.0881  0.2469
  879MOL0     H18601   7.906   0.525   0.773  0.4521 -1.2006 -1.1106
  879MOL0     H18602   8.040   0.362   0.959 -1.4975 -0.6974 -1.1848
  879MOL0     H18603   8.026   0.516   1.042 -3.5253 -0.8144  0.5049
  879MOL0     H18604   8.138   0.647   0.868  0.9751 -0.6044  2.5590
  879MOL0     H18605   8.143   0.500   0.763  2.0515 -0.5972 -0.7103
  879MOL0     H18606   8.297   0.536   1.031  0.6635  4.2388 -2.2959
  879MOL0     H18607   8.297   0.380   0.946  3.5804 -0.2915  1.5596
  879MOL0     H18608   8.420   0.463   0.770  1.6226 -1.2515  1.2822
  879MOL0     H18609   8.390   0.640   0.817 -0.1527 -0.1635  1.6291
  879MOL0     H18610   8.528   0.589   1.024  0.4432  0.4322 -0.3741
  879MOL0     H18611   8.563   0.435   0.942  2.0027  0.1269 -1.7360
  879MOL0     H18612   8.647   0.696   0.799  0.6599 -2.3245 -5.5777
  879MOL0     H18613   8.663   0.538   0.752 -2.4416 -0.5010  0.2700
  879MOL0     H18614   8.779   0.653   1.005 -1.6963 -1.5674  2.4680
  879MOL0     H18615   8.773   0.482   0.994  1.0885  0.3602  0.5679
  879MOL0     H18616   9.042   0.619   1.025 -1.1556 -1.0147 -0.1173
  879MOL0     H18617   9.303   0.709   0.852  0.0227  0.9139  0.5294
  879MOL0     H18618   9.274   0.570   0.958 -0.7853  0.7879  0.4751
  879MOL0     H18619   9.287   0.427   0.741 -1.1832  1.4319 -0.1379
  879MOL0     H18620   9.343   0.570   0.656 -3.2429  0.8204 -0.1136
  879MOL0     H18621   9.507   0.397   0.746 -0.8471 -1.1469  0.6622
  879MOL0     H18622   9.481   0.466   0.906  1.9456  2.2656  0.4163
  879MOL0     H18623   9.544   0.693   0.809 -1.8133 -1.9121  2.7610
  879MOL0     H18624   9.597   0.611   0.675  2.3765  1.2169  0.9223
  879MOL0     H18625   9.934   0.535   0.962  0.7865  0.8352  0.3487
  879MOL0     H18626  10.122   0.690   0.945 -1.3998 -2.4723  1.5372
  879MOL0     H18627  10.377   1.081   0.954 -2.0921  2.4585 -2.1013
  879MOL0     H18628  10.588   1.205   0.891 -2.3118  3.1949 -0.7570
  879MOL0     H18629  10.848   1.002   0.685 -0.5614 -0.1477  0.1976
  879MOL0     H18630  10.793   1.032   0.530 -0.5414  0.2844  0.7555
  879MOL0     H18631  11.021   1.089   0.537 -3.5004 -1.2271 -2.2412
  879MOL0     H18632  10.913   1.239   0.507  0.5560  0.9916  0.3092
  879MOL0     H18633  10.962   1.332   0.711 -0.1240 -0.6115  1.7765
  879MOL0     H18634  11.020   1.194   0.790 -1.4233  0.9045  0.5376
  879MOL0     H18635  11.164   1.319   0.550  1.3123 -0.0573 -0.7574
  879MOL0     H18636  11.223   1.179   0.642 -1.1725 -0.3163  0.0237
  879MOL0     H18637  11.263   1.293   0.836 -3.3632 -3.3142 -1.2912
  879MOL0     H18638  11.167   1.431   0.802  2.1946  1.8385 -1.4870
  879MOL0     H18639  11.421   1.356   0.653 -0.1746 -0.7603  1.3090
  879MOL0     H18640  11.342   1.506   0.614 -0.9661  2.2717  0.6894
  879MOL0     H18641  11.441   1.434   0.895  1.1936 -2.1665 -0.8265
  879MOL0     H18642  11.368   1.587   0.848 -1.2061  1.3125 -3.8316
  879MOL0     H18643  11.556   1.629   0.693 -3.6139  2.4445  2.5869
  879MOL0     H18644  11.603   1.618   0.860 -1.4438  0.5507  1.2589
  879MOL0     H18645  10.570   0.970   0.513  2.6269 -0.9693  1.2609
  879MOL0     H18646  10.398   0.858   0.609  2.8060  0.0126 -0.5276
  879MOL0     H18647   9.910   0.897   0.634 -1.1093 -0.2353  0.4792
  879MOL0     H18648   9.737   0.779   0.657  1.2444  2.8674 -0.3703
  879MOL0     H18649   7.687   0.437   0.736 -0.2248 -0.4977 -0.3300
  879MOL0     H18650   7.474   0.499   0.639 -1.4166 -0.7237 -0.2053
  879MOL0     H18651   7.085   1.019   0.759 -1.3313  1.9086 -1.9872
  879MOL0     H18652   6.880   1.051   0.647 -0.5210  0.5678 -2.4852
  879MOL0     H18653   6.599   0.730   0.585 -2.2439  0.6935 -0.0487
  879MOL0     H18654   6.669   0.721   0.423 -1.3408 -1.5434 -0.0805
  879MOL0     H18655   6.512   0.928   0.379  3.7994  0.1442  0.7738
  879MOL0     H18656   6.459   0.898   0.548 -2.1113 -0.8497 -0.0674
  879MOL0     H18657   6.394   0.688   0.505  0.0009  1.5813  0.8547
  879MOL0     H18658   6.440   0.684   0.334 -2.4306 -1.2603 -0.5864
  879MOL0     H18659   6.194   0.710   0.360  0.6502  0.3887  2.6352
  879MOL0     H18660   6.207   0.864   0.419  1.0367 -0.3896  0.8682
  879MOL0     H18661   6.240   0.918   0.002 -1.1133  0.5612 -0.1301
  879MOL0     H18662   6.849   0.637   0.543  0.4903 -2.0065  2.5338
  879MOL0     H18663   7.002   0.506   0.562 -0.4668  0.2313  0.1061
  879MOL0     H18664   7.163   0.563   0.547 -0.3084  1.1399 -0.3209
  879MOL0     H18665   7.106   0.514   0.711  1.5635 -0.1648 -0.2716
  880MOL0     O18666  10.756   9.627   8.548 -0.1579  0.3308 -0.0534
  880MOL0     C18667  10.749   9.655   8.666 -0.6939 -0.5255  0.8418
  880MOL0     O18668  10.827   9.739   8.737  0.4663  0.4499 -0.2280
  880MOL0     C18669  10.928   9.810   8.676 -0.7407 -0.5675  0.2586
  880MOL0     C18670  10.927   9.944   8.679 -0.0423 -0.6805  0.2978
  880MOL0     C18671  11.026  10.017   8.615 -0.0200  0.8610  0.5085
  880MOL0     C18672  11.137   9.947   8.555 -0.0078  0.3332 -0.6786
  880MOL0     O18673  11.233  10.023   8.496 -0.3406  0.0648  0.2816
  880MOL0     C18674  11.288   9.972   8.373 -0.3913  0.0817 -0.1721
  880MOL0     C18675  11.423  10.037   8.331 -0.1312  0.3287  0.2657
  880MOL0     C18676  11.540  10.000   8.434 -0.2817  0.4284  0.4972
  880MOL0     C18677  11.675  10.023   8.372 -0.8845 -0.0321 -0.1401
  880MOL0     C18678  11.792  10.022   8.480  1.5307 -0.4941  0.2184
  880MOL0     C18679  11.932  10.041   8.418  0.1883  0.5522  0.4134
  880MOL0     C18680  12.040   9.996   8.515 -0.5092  0.2188  0.3290
  880MOL0     C18681  12.178  10.009   8.463 -0.3769  0.5655 -0.3046
  880MOL0     N18682  12.211  10.154   8.448  0.4305 -0.6680 -0.2718
  880MOL0     C18683  12.278  10.200   8.341 -0.1226 -0.1836  0.7602
  880MOL0     C18684  12.312  10.328   8.366 -0.0073 -0.5849 -0.6291
  880MOL0     C18685  12.394  10.421   8.286 -0.2200 -0.3438  0.3319
  880MOL0     C18686  12.540  10.394   8.298  0.0712 -0.5965  0.4672
  880MOL0     C18687  12.612  10.522   8.275 -0.5859  0.5858 -0.0490
  880MOL0     C18688  12.758  10.500   8.272 -0.5744  0.6338  0.4514
  880MOL0     O18689  12.831  10.626   8.271 -0.3810 -0.4694  0.3782
  880MOL0     C18690  12.968  10.619   8.255  0.0913  0.3786  0.1817
  880MOL0     C18691  13.042  10.501   8.232 -1.1116 -0.3931 -0.5329
  880MOL0     C18692  13.182  10.510   8.239 -0.3938  0.7005  0.0392
  880MOL0     C18693  13.245  10.630   8.262 -0.1459 -0.4915 -0.2208
  880MOL0     C18694  13.398  10.651   8.265 -0.1013  0.6270  0.5755
  880MOL0     O18695  13.476  10.557   8.201  0.4929  0.1429 -0.0349
  880MOL0     C18696  13.610  10.569   8.227 -1.0760  0.2546 -0.5112
  880MOL0     C18697  13.663  10.524   8.357 -0.0639 -0.3381  0.5103
  880MOL0     C18698  13.801  10.546   8.386 -0.1432 -0.8445 -0.6228
  880MOL0     C18699  13.882  10.612   8.299  0.2901 -0.3741  0.1062
  880MOL0     O18700  14.011  10.647   8.324  0.0574  1.3877 -0.0403
  880MOL0     C18701  14.099  10.531   8.349 -0.2960  0.3183 -0.6585
  880MOL0     C18702  14.248  10.558   8.332  0.1180 -0.0061 -0.1240
  880MOL0     C18703  14.334  10.433   8.337 -0.3890  0.8121  0.2534
  880MOL0     C18704  14.485  10.459   8.342 -0.6189 -0.0923 -0.2857
  880MOL0     C18705  14.580  10.338   8.376 -0.0903  0.7722  0.0790
  880MOL0     C18706  14.611  10.248   8.255 -0.4007  0.9209  0.0035
  880MOL0     C18707  14.701  10.126   8.290  0.0478  0.0748 -0.4352
  880MOL0     C18708  14.755  10.078   8.156 -0.1442  0.7033 -0.1976
  880MOL0    Cl18709  14.910   9.984   8.202 -0.2121  0.2357 -0.4740
  880MOL0     C18710  13.821  10.672   8.183 -0.1761 -0.1559  0.5293
  880MOL0     C18711  13.693  10.649   8.141  0.0449  0.2183  0.1402
  880MOL0     O18712  13.448  10.752   8.313  0.2954 -0.1428  0.7003
  880MOL0     C18713  13.168  10.741   8.287  0.0440 -0.1153 -0.4103
  880MOL0     C18714  13.033  10.737   8.280  0.1528 -1.0208  0.1159
  880MOL0     N18715  12.264  10.360   8.493  0.5848  0.5460 -0.3163
  880MOL0     N18716  12.213  10.252   8.537  0.2990  0.2171  0.3154
  880MOL0     C18717  11.144   9.815   8.572 -0.4789  0.9554  0.1399
  880MOL0     C18718  11.036   9.735   8.624 -0.0747 -0.2898  1.1580
  880MOL0     C18719  10.660   9.572   8.751 -0.0912  0.3766  0.0154
  880MOL0     C18720  10.671   9.585   8.891  0.5014  0.3990  0.0022
  880MOL0     C18721  10.584   9.534   8.985  0.4594  0.2577  0.1416
  880MOL0     C18722  10.480   9.455   8.940  0.2816 -0.5114  0.2901
  880MOL0     O18723  10.395   9.405   9.031  0.3571  0.3958 -0.2614
  880MOL0     C18724  10.275   9.482   9.040 -0.2820  0.4542  0.1275
  880MOL0     C18725  10.264   9.568   9.164 -0.2449  0.1469 -0.3836
  880MOL0     C18726  10.252   9.490   9.296 -0.6668 -0.8736  0.5392
  880MOL0     C18727  10.261   9.578   9.417 -0.2401  0.9262 -0.3984
  880MOL0     C18728  10.222   9.497   9.534  0.0923  0.3138 -0.2744
  880MOL0     C18729  10.212   9.421   9.628 -0.5618 -0.5472 -0.4628
  880MOL0     C18730  10.465   9.432   8.803  0.1085  0.0482  0.1869
  880MOL0     C18731  10.555   9.488   8.707  0.7283  0.4236 -0.2241
  880MOL0     C18732  10.513   9.479   8.560  0.6188  0.4827 -0.7207
  880MOL0     H18733  10.845  10.004   8.718  1.3049  1.0042  0.6508
  880MOL0     H18734  11.029  10.126   8.616  1.2900  0.8454  0.4410
  880MOL0     H18735  11.311   9.865   8.381  0.1155  0.2798  1.7123
  880MOL0     H18736  11.216   9.982   8.292  1.4954 -0.0641 -1.9394
  880MOL0     H18737  11.421  10.147   8.327  0.2997  0.3298 -0.0116
  880MOL0     H18738  11.449  10.003   8.230 -2.3078  1.1001 -0.6226
  880MOL0     H18739  11.528   9.896   8.465 -1.5325  0.6209  0.7202
  880MOL0     H18740  11.527  10.057   8.526 -0.1217 -1.9105  2.0568
  880MOL0     H18741  11.703   9.950   8.295  0.7120  1.7700 -1.3616
  880MOL0     H18742  11.676  10.122   8.327 -0.2573  0.6901  1.4022
  880MOL0     H18743  11.770  10.105   8.548  2.8118  1.9557 -2.1128
  880MOL0     H18744  11.789   9.929   8.536  0.7612 -0.8962 -0.4582
  880MOL0     H18745  11.948   9.981   8.328  2.3441  1.0791  0.3848
  880MOL0     H18746  11.939  10.148   8.398 -0.2618  0.0343 -3.2444
  880MOL0     H18747  12.022   9.892   8.542  0.1430  0.1015  0.3376
  880MOL0     H18748  12.037  10.060   8.603  0.0017 -0.3296  0.7567
  880MOL0     H18749  12.252   9.964   8.529  0.4742  1.7082 -0.4371
  880MOL0     H18750  12.186   9.960   8.365  1.0523  0.5188 -0.1873
  880MOL0     H18751  12.302  10.141   8.253  1.1694  0.5623  0.5781
  880MOL0     H18752  12.358  10.400   8.185 -1.1865 -0.3852  0.6737
  880MOL0     H18753  12.373  10.524   8.318  0.7443 -0.5007  1.5525
  880MOL0     H18754  12.571  10.346   8.391 -0.3291 -1.2969  0.2425
  880MOL0     H18755  12.559  10.317   8.223  0.0811 -0.0251 -0.1275
  880MOL0     H18756  12.591  10.588   8.360 -2.5695 -3.0830  2.6182
  880MOL0     H18757  12.571  10.562   8.182 -2.3874  1.6446  1.1387
  880MOL0     H18758  12.777  10.439   8.184  0.4930  2.9385 -1.0191
  880MOL0     H18759  12.792  10.449   8.363 -1.7258 -0.5971  0.2186
  880MOL0     H18760  12.999  10.404   8.211 -0.8749 -0.8842  1.1403
  880MOL0     H18761  13.234  10.421   8.207  0.6473  1.0214  0.8068
  880MOL0     H18762  13.601  10.465   8.423 -1.4277  0.5702  0.0748
  880MOL0     H18763  13.840  10.516   8.483  0.8088 -1.5832 -1.2112
  880MOL0     H18764  14.099  10.508   8.456  0.8500  1.1392 -0.4625
  880MOL0     H18765  14.070  10.439   8.299 -3.3823  0.5470  0.4915
  880MOL0     H18766  14.265  10.611   8.238  0.5188 -0.9757 -0.6180
  880MOL0     H18767  14.270  10.624   8.416 -3.2921  0.3821  0.6110
  880MOL0     H18768  14.309  10.381   8.429  2.2062 -3.3650 -1.1105
  880MOL0     H18769  14.308  10.366   8.255 -1.0816  0.4045  0.7989
  880MOL0     H18770  14.515  10.526   8.422  0.3067 -1.3111  0.4276
  880MOL0     H18771  14.511  10.496   8.242 -0.7613 -2.1113 -1.1248
  880MOL0     H18772  14.542  10.273   8.455  0.7115  0.2112  0.0164
  880MOL0     H18773  14.670  10.383   8.419  0.4730 -0.3432  0.1131
  880MOL0     H18774  14.519  10.210   8.212 -0.4948 -0.0465  1.0212
  880MOL0     H18775  14.656  10.308   8.175 -1.3309 -1.9199 -2.8430
  880MOL0     H18776  14.658  10.049   8.356 -0.8987  0.1624 -0.9276
  880MOL0     H18777  14.790  10.166   8.340 -1.4440  3.4963 -0.2201
  880MOL0     H18778  14.675  10.020   8.108  1.0432  0.4739 -2.0001
  880MOL0     H18779  14.782  10.159   8.087  0.4494  0.5786 -0.1148
  880MOL0     H18780  13.880  10.730   8.113 -1.3075  0.3156 -0.0558
  880MOL0     H18781  13.641  10.670   8.049 -1.1962 -0.8413  0.5792
  880MOL0     H18782  13.222  10.833   8.309  2.3471 -1.2158 -1.2560
  880MOL0     H18783  12.977  10.830   8.282  1.8410  0.2934 -3.8013
  880MOL0     H18784  11.236   9.769   8.535 -1.2348  0.8751 -1.7143
  880MOL0     H18785  11.033   9.627   8.615 -0.5794 -0.2289  0.6207
  880MOL0     H18786  10.751   9.648   8.929  0.6655  1.0053 -1.2777
  880MOL0     H18787  10.595   9.554   9.091 -3.3832  1.1017  0.5136
  880MOL0     H18788  10.198   9.404   9.035  2.6372 -2.6750 -0.3983
  880MOL0     H18789  10.259   9.545   8.953 -1.5876 -1.0247 -0.7664
  880MOL0     H18790  10.178   9.635   9.158  1.1711  2.0474 -0.5300
  880MOL0     H18791  10.348   9.638   9.170  1.2269 -1.6390  2.9454
  880MOL0     H18792  10.323   9.409   9.309  1.1231  0.8230  1.9862
  880MOL0     H18793  10.154   9.442   9.293  0.4115 -3.3416  2.0407
  880MOL0     H18794  10.365   9.608   9.436 -0.3175  1.8042 -1.3452
  880MOL0     H18795  10.198   9.667   9.412 -0.2035  1.0046  0.3439
  880MOL0     H18796  10.220   9.350   9.708 -0.2710 -0.4638 -0.4157
  880MOL0     H18797  10.374   9.381   8.774 -0.3243  1.7026 -1.5339
  880MOL0     H18798  10.410   9.442   8.557  0.9619 -1.6252  3.8687
  880MOL0     H18799  10.521   9.576   8.511 -1.9153  1.3620  0.4438
  880MOL0     H18800  10.577   9.409   8.506  0.8460  0.0776  0.0572
  881MOL0     O18801   6.658   6.284   7.353  0.4194 -0.3084 -0.2576
  881MOL0     C18802   6.707   6.395   7.386 -0.1610  0.6131 -0.7064
  881MOL0     O18803   6.834   6.430   7.378  0.3015 -0.5982  0.5625
  881MOL0     C18804   6.935   6.357   7.320  0.6687  0.2852  0.5022
  881MOL0     C18805   7.056   6.378   7.384  1.0406  0.4123  0.6503
  881MOL0     C18806   7.165   6.304   7.335 -0.5064 -0.0415  0.2672
  881MOL0     C18807   7.149   6.201   7.237  0.6348  0.1940 -0.6824
  881MOL0     O18808   7.254   6.122   7.192  0.3892 -0.4856 -0.6126
  881MOL0     C18809   7.373   6.193   7.171  0.0885  0.3993 -0.0735
  881MOL0     C18810   7.473   6.116   7.073 -0.1136  1.2894 -0.1546
  881MOL0     C18811   7.597   6.063   7.154 -0.8563  0.0449 -0.4436
  881MOL0     C18812   7.715   6.167   7.157  0.1481 -0.2556  0.6227
  881MOL0     C18813   7.822   6.133   7.268 -0.1457  0.3621  0.5582
  881MOL0     C18814   7.929   6.241   7.282  0.2136  0.5975  0.4072
  881MOL0     C18815   8.031   6.193   7.394  0.1059  0.4704  0.3102
  881MOL0     C18816   8.097   6.059   7.379 -0.5982 -0.3699  0.3625
  881MOL0     N18817   8.191   6.046   7.270  0.3109 -0.0388 -0.1074
  881MOL0     C18818   8.249   5.924   7.235 -0.2858 -0.4808  0.7712
  881MOL0     C18819   8.345   5.960   7.143 -0.3844 -0.3094  0.2955
  881MOL0     C18820   8.451   5.865   7.082  0.9731  0.4183 -0.1583
  881MOL0     C18821   8.553   5.795   7.186  0.7810 -1.7803 -0.0650
  881MOL0     C18822   8.596   5.916   7.280  0.1407 -1.1279 -0.0698
  881MOL0     C18823   8.711   5.880   7.380 -0.5704  0.1494 -0.2321
  881MOL0     O18824   8.848   5.887   7.318  0.9335  0.5315  0.3976
  881MOL0     C18825   8.953   5.884   7.409  0.4701  0.3019  0.5628
  881MOL0     C18826   9.021   6.001   7.420 -0.2848 -0.9374  0.1993
  881MOL0     C18827   9.122   6.009   7.518  0.1542 -0.0793  0.5694
  881MOL0     C18828   9.144   5.903   7.607 -0.0565 -0.0863 -0.1064
  881MOL0     C18829   9.246   5.915   7.716 -0.6708  0.2850  1.1478
  881MOL0     O18830   9.325   6.029   7.705 -0.7200  0.8411 -0.1970
  881MOL0     C18831   9.425   6.029   7.798 -0.2517 -0.3341  0.4212
  881MOL0     C18832   9.409   6.100   7.918 -0.4263 -0.4234  0.3906
  881MOL0     C18833   9.520   6.096   8.015 -0.2826 -0.4740  0.5892
  881MOL0     C18834   9.638   6.025   7.991 -0.2901 -0.8831  0.1627
  881MOL0     O18835   9.752   6.033   8.066  0.3070  0.5335 -0.7755
  881MOL0     C18836   9.742   6.104   8.194 -0.3516 -0.3103  0.5985
  881MOL0     C18837   9.856   6.049   8.277  0.2118  0.2110  0.5598
  881MOL0     C18838   9.831   5.910   8.334  0.7391 -0.5572 -0.1881
  881MOL0     C18839   9.966   5.852   8.386  0.1578  0.5633  0.4632
  881MOL0     C18840   9.951   5.730   8.477  0.2237 -0.9638  0.3024
  881MOL0     C18841  10.076   5.689   8.552  0.8183 -0.0201  0.3038
  881MOL0     C18842  10.120   5.794   8.649 -0.5229 -0.0990 -0.6459
  881MOL0     C18843  10.251   5.749   8.721  0.0760 -0.6290 -0.2955
  881MOL0    Cl18844  10.311   5.911   8.794 -0.2214  0.2192  0.0493
  881MOL0     C18845   9.648   5.962   7.865 -0.6534 -0.7158  0.1213
  881MOL0     C18846   9.542   5.953   7.780 -0.9305  0.5728 -0.2615
  881MOL0     O18847   9.272   5.817   7.786  1.2180  0.4523 -0.1415
  881MOL0     C18848   9.070   5.784   7.590  0.9656 -0.4033 -0.5025
  881MOL0     C18849   8.977   5.774   7.487  0.0084 -0.5316  0.4786
  881MOL0     N18850   8.356   6.100   7.140 -0.5242 -0.4763 -0.1760
  881MOL0     N18851   8.258   6.151   7.214  0.1002 -0.2255  0.4151
  881MOL0     C18852   7.027   6.188   7.172  0.0327  0.5599 -0.2345
  881MOL0     C18853   6.922   6.264   7.218  0.0158  0.5936 -0.2750
  881MOL0     C18854   6.610   6.499   7.438  0.7315 -0.4985 -0.9294
  881MOL0     C18855   6.471   6.488   7.400 -0.5775  0.0760 -0.6425
  881MOL0     C18856   6.382   6.588   7.441  0.3285  0.4091  0.0407
  881MOL0     C18857   6.414   6.693   7.523 -1.1619 -0.8820 -0.0915
  881MOL0     O18858   6.314   6.777   7.563 -0.8019  0.4013  0.1377
  881MOL0     C18859   6.359   6.896   7.618  0.4399 -0.3187  0.2864
  881MOL0     C18860   6.396   6.894   7.769 -0.2863 -0.5421  1.0956
  881MOL0     C18861   6.470   7.032   7.794  0.2167  0.2546 -0.5034
  881MOL0     C18862   6.525   7.070   7.933 -0.4250  0.0980  0.0094
  881MOL0     C18863   6.599   6.951   7.984 -0.7596  0.2031  0.7253
  881MOL0     C18864   6.659   6.850   8.014  0.6989  0.2039 -0.1144
  881MOL0     C18865   6.555   6.693   7.564 -0.3926  0.1712  0.6721
  881MOL0     C18866   6.650   6.595   7.530 -0.6780 -0.0173  0.7908
  881MOL0     C18867   6.796   6.612   7.582  0.6025  0.0977 -0.4193
  881MOL0     H18868   7.059   6.453   7.463  1.7134 -0.7140  1.7327
  881MOL0     H18869   7.263   6.332   7.374 -0.1228 -0.6282 -0.2645
  881MOL0     H18870   7.362   6.292   7.125  0.7393 -0.0300 -1.2044
  881MOL0     H18871   7.420   6.200   7.269  2.7786  0.3449 -1.2819
  881MOL0     H18872   7.515   6.183   6.997  2.5482 -0.1846 -0.0966
  881MOL0     H18873   7.426   6.026   7.031 -1.0265  0.0428  3.1966
  881MOL0     H18874   7.642   5.974   7.108  0.8028 -0.1256  1.3664
  881MOL0     H18875   7.570   6.039   7.257 -2.5040  0.4603 -0.7533
  881MOL0     H18876   7.755   6.162   7.056  0.6193 -1.4296  0.8549
  881MOL0     H18877   7.682   6.268   7.183  0.5303 -0.0031  0.1452
  881MOL0     H18878   7.775   6.133   7.367 -1.4944 -2.6716  0.0209
  881MOL0     H18879   7.857   6.031   7.248 -2.8502 -0.6228  0.4390
  881MOL0     H18880   7.970   6.245   7.181  0.4058 -1.9939  0.3100
  881MOL0     H18881   7.887   6.338   7.311  2.7501  1.9884 -0.2577
  881MOL0     H18882   7.989   6.214   7.493 -2.6410 -0.0197 -0.6792
  881MOL0     H18883   8.107   6.271   7.388  2.7741 -1.5499  3.8897
  881MOL0     H18884   8.147   6.033   7.473 -0.6661 -2.9923 -0.2555
  881MOL0     H18885   8.018   5.984   7.365 -1.5443  1.0927 -3.3207
  881MOL0     H18886   8.222   5.824   7.268 -2.7650  0.3129  1.3507
  881MOL0     H18887   8.400   5.785   7.027  0.3982 -0.8182  2.0430
  881MOL0     H18888   8.509   5.934   7.020 -0.1197 -0.5737 -2.4172
  881MOL0     H18889   8.502   5.720   7.249  1.6839 -2.3161  0.0380
  881MOL0     H18890   8.646   5.757   7.143  1.9464  0.5861  0.2467
  881MOL0     H18891   8.511   5.949   7.341 -0.9852  1.9114 -3.0289
  881MOL0     H18892   8.630   5.995   7.214  2.9218 -3.1227 -1.2127
  881MOL0     H18893   8.683   5.782   7.420 -0.9049 -0.0355 -0.8973
  881MOL0     H18894   8.708   5.945   7.468 -0.5007  0.1236 -0.2107
  881MOL0     H18895   8.997   6.088   7.359  2.7269 -1.6846 -2.3721
  881MOL0     H18896   9.187   6.096   7.520  2.0088 -1.1803 -2.7576
  881MOL0     H18897   9.334   6.162   7.966  1.5637 -0.9374  4.5978
  881MOL0     H18898   9.517   6.159   8.103 -0.3295 -0.7585  0.7918
  881MOL0     H18899   9.760   6.212   8.182 -1.0604 -0.0624  1.6393
  881MOL0     H18900   9.644   6.092   8.242  0.2607  1.2926  2.3590
  881MOL0     H18901   9.949   6.049   8.218 -0.3623  2.0059 -0.4288
  881MOL0     H18902   9.883   6.115   8.359  1.9957  4.3396 -2.9707
  881MOL0     H18903   9.770   5.933   8.422 -0.3152  1.8338 -1.4800
  881MOL0     H18904   9.775   5.841   8.270  0.7340  1.7531 -2.8529
  881MOL0     H18905  10.031   5.929   8.428  3.0862 -0.5373 -1.7007
  881MOL0     H18906  10.024   5.819   8.299 -0.6775 -0.4058  0.2620
  881MOL0     H18907   9.911   5.643   8.425 -3.6514 -0.0026  1.3762
  881MOL0     H18908   9.876   5.752   8.553 -2.1886 -1.5820 -1.7704
  881MOL0     H18909  10.067   5.592   8.600  0.1275 -0.9535 -1.5841
  881MOL0     H18910  10.160   5.672   8.484 -0.3546 -1.4952 -0.8358
  881MOL0     H18911  10.044   5.821   8.724 -1.0636  0.7026 -1.4532
  881MOL0     H18912  10.148   5.887   8.599 -0.5345 -0.3191 -1.0668
  881MOL0     H18913  10.231   5.670   8.794 -0.3983 -0.2813 -0.0426
  881MOL0     H18914  10.330   5.714   8.654  1.4237  2.2690 -0.3662
  881MOL0     H18915   9.737   5.901   7.852  0.6829  0.6942  2.0440
  881MOL0     H18916   9.547   5.893   7.690  0.8435 -0.1584  0.2653
  881MOL0     H18917   9.084   5.708   7.666 -0.5689 -0.0185  0.1964
  881MOL0     H18918   8.923   5.680   7.475  0.5131 -0.5321 -2.3341
  881MOL0     H18919   7.015   6.112   7.095 -2.2110 -0.2091  0.7959
  881MOL0     H18920   6.830   6.269   7.161 -0.1768  3.0464  0.1270
  881MOL0     H18921   6.439   6.413   7.328  0.0637  0.1382 -0.9941
  881MOL0     H18922   6.278   6.573   7.413  0.0541  0.4479  0.9846
  881MOL0     H18923   6.264   6.950   7.610  1.2836  1.1225 -0.3245
  881MOL0     H18924   6.439   6.939   7.557  1.4133 -2.5824 -0.1391
  881MOL0     H18925   6.457   6.805   7.783  1.5332  0.3732 -0.5358
  881MOL0     H18926   6.308   6.908   7.833 -1.2270 -0.1674 -0.2274
  881MOL0     H18927   6.400   7.107   7.757  1.2027  1.7237  0.4997
  881MOL0     H18928   6.559   7.031   7.729  1.2274  0.6920  0.8420
  881MOL0     H18929   6.596   7.152   7.917  1.5007 -1.1651  1.5541
  881MOL0     H18930   6.452   7.114   8.002  0.1092  2.3606 -0.8103
  881MOL0     H18931   6.701   6.757   8.048 -0.3959  0.0026  0.7107
  881MOL0     H18932   6.590   6.778   7.621 -0.1284 -0.7438  1.9203
  881MOL0     H18933   6.792   6.641   7.687  2.3607 -0.7277 -0.0903
  881MOL0     H18934   6.854   6.520   7.574  0.5799  0.2502 -5.1256
  881MOL0     H18935   6.861   6.680   7.525  2.4930 -2.0594 -0.9780
  882MOL0     O18936   9.007   3.002   3.378 -0.1181 -0.3145  0.5066
  882MOL0     C18937   8.941   3.084   3.324 -0.3348  0.2803  0.0259
  882MOL0     O18938   8.986   3.203   3.261 -0.1072  0.3027 -0.5413
  882MOL0     C18939   9.118   3.241   3.251  0.8195  0.4403 -0.2421
  882MOL0     C18940   9.229   3.162   3.266 -0.2945  0.1464  0.3562
  882MOL0     C18941   9.359   3.226   3.269  0.0393  0.8954 -0.2679
  882MOL0     C18942   9.373   3.364   3.254 -0.4365  0.4272  0.0476
  882MOL0     O18943   9.498   3.415   3.238  0.0662  0.5877 -0.5922
  882MOL0     C18944   9.605   3.331   3.178  0.5584 -0.4068 -0.0969
  882MOL0     C18945   9.707   3.409   3.103 -0.6835  0.4040  0.4332
  882MOL0     C18946   9.776   3.498   3.209  0.8491 -0.4718 -0.0263
  882MOL0     C18947   9.856   3.593   3.133  0.5734  0.5025 -0.0040
  882MOL0     C18948   9.915   3.709   3.216 -0.0845  0.5710 -0.6960
  882MOL0     C18949  10.005   3.653   3.334  0.6582 -0.5085  0.0674
  882MOL0     C18950  10.107   3.760   3.365  0.9068  0.2786  0.5722
  882MOL0     C18951  10.040   3.886   3.427 -0.1685 -0.0064  0.0127
  882MOL0     N18952   9.991   3.836   3.559 -0.0434 -0.1146  0.7538
  882MOL0     C18953  10.067   3.792   3.663 -0.3439 -0.2799  0.4613
  882MOL0     C18954   9.975   3.759   3.764  0.1315 -0.0470 -0.4074
  882MOL0     C18955  10.015   3.726   3.905  0.4366 -0.6886 -0.6818
  882MOL0     C18956  10.104   3.609   3.919  0.4050  0.0595  0.1823
  882MOL0     C18957  10.145   3.595   4.074 -0.1025  0.4662 -0.4941
  882MOL0     C18958  10.242   3.477   4.100 -0.0298 -0.3309  1.0416
  882MOL0     O18959  10.376   3.514   4.074  0.8043  1.1910 -0.5776
  882MOL0     C18960  10.455   3.565   4.173  0.0779 -0.7136 -0.5397
  882MOL0     C18961  10.589   3.576   4.150  0.0462 -0.1521 -0.1056
  882MOL0     C18962  10.683   3.625   4.247  0.3182  0.6536  0.0770
  882MOL0     C18963  10.634   3.655   4.374  0.0970 -0.1920  0.5027
  882MOL0     C18964  10.718   3.702   4.482  0.1054  0.0528  0.0959
  882MOL0     O18965  10.845   3.728   4.442  0.3059 -0.1407  0.7983
  882MOL0     C18966  10.917   3.813   4.523 -0.1907 -0.0598 -0.2572
  882MOL0     C18967  10.880   3.908   4.613  0.4621 -0.3619 -0.1863
  882MOL0     C18968  10.970   3.998   4.670 -0.8950  0.0891  0.1280
  882MOL0     C18969  11.107   3.993   4.642  0.3884  0.0256 -0.1642
  882MOL0     O18970  11.201   4.081   4.694 -0.0295  0.4533  0.4384
  882MOL0     C18971  11.176   4.144   4.821 -0.1653 -0.1741 -0.1055
  882MOL0     C18972  11.310   4.214   4.860  0.0156 -0.1771  0.0509
  882MOL0     C18973  11.361   4.322   4.765  0.6679 -0.4587 -1.1194
  882MOL0     C18974  11.447   4.428   4.840  0.9095 -0.0210 -0.4131
  882MOL0     C18975  11.474   4.549   4.739 -0.1631  0.1996  0.1334
  882MOL0     C18976  11.555   4.650   4.811 -0.2822  0.0387  0.7262
  882MOL0     C18977  11.558   4.773   4.735 -0.8549 -1.3372  0.1215
  882MOL0     C18978  11.660   4.878   4.784 -0.7175 -0.0931 -0.8761
  882MOL0    Cl18979  11.601   4.936   4.945  0.1168 -0.6692 -0.4683
  882MOL0     C18980  11.143   3.897   4.551 -0.1253  0.7061 -0.6725
  882MOL0     C18981  11.057   3.810   4.489 -0.8363  0.1619 -0.2859
  882MOL0     O18982  10.674   3.710   4.596 -0.1648 -0.2128  0.2115
  882MOL0     C18983  10.496   3.649   4.398 -0.2002  0.0911  1.2695
  882MOL0     C18984  10.407   3.604   4.297  0.9472 -0.4852  0.5186
  882MOL0     N18985   9.853   3.795   3.719  0.4070 -0.1707 -0.1141
  882MOL0     N18986   9.865   3.839   3.597  0.0586  0.6660  0.6627
  882MOL0     C18987   9.260   3.440   3.225 -0.0878  0.1274  0.8719
  882MOL0     C18988   9.132   3.381   3.239  0.2200  0.1094 -0.5388
  882MOL0     C18989   8.795   3.070   3.331  0.2805  0.2513  0.4087
  882MOL0     C18990   8.715   3.153   3.244  0.5136 -0.0029  0.1309
  882MOL0     C18991   8.580   3.133   3.234  0.1803 -0.0920  0.7369
  882MOL0     C18992   8.519   3.013   3.281  0.1843 -0.3747 -1.2167
  882MOL0     O18993   8.396   2.972   3.249  0.2474 -0.2326  0.2891
  882MOL0     C18994   8.349   2.997   3.113 -0.7177 -0.2016 -0.1256
  882MOL0     C18995   8.245   2.894   3.072 -0.5482  0.5166 -0.3325
  882MOL0     C18996   8.114   2.907   3.156 -0.5132 -0.0049 -0.3822
  882MOL0     C18997   7.989   2.823   3.112 -0.1380 -0.2684  0.4187
  882MOL0     C18998   8.017   2.685   3.124 -0.3221  0.6578  0.3540
  882MOL0     C18999   8.053   2.569   3.141  0.1809  0.3199  0.4312
  882MOL0     C19000   8.594   2.943   3.376 -0.1201 -0.5502 -0.8661
  882MOL0     C19001   8.731   2.970   3.406 -0.4990  0.3954 -0.2782
  882MOL0     C19002   8.795   2.867   3.494 -0.9005  0.7808 -0.0025
  882MOL0     H19003   9.215   3.055   3.278  0.3515  0.0634  0.4225
  882MOL0     H19004   9.445   3.161   3.259  0.1606  0.8102  1.2312
  882MOL0     H19005   9.653   3.273   3.257 -0.5334 -0.9383  0.2070
  882MOL0     H19006   9.560   3.261   3.107  0.9605  0.1875 -0.9448
  882MOL0     H19007   9.669   3.456   3.011 -0.6063  1.7977  1.0777
  882MOL0     H19008   9.777   3.331   3.072 -1.3281  0.1295 -0.3938
  882MOL0     H19009   9.846   3.441   3.270  0.0245 -0.3851  1.0236
  882MOL0     H19010   9.705   3.550   3.273 -0.3025 -1.5259 -0.4087
  882MOL0     H19011   9.941   3.544   3.085 -0.6409 -2.2777  0.5392
  882MOL0     H19012   9.795   3.638   3.054 -0.6811  0.6238  0.9879
  882MOL0     H19013   9.973   3.766   3.142  1.7442  0.9650  0.9711
  882MOL0     H19014   9.837   3.771   3.259  0.2060 -0.7729  1.9578
  882MOL0     H19015   9.937   3.633   3.417 -1.3389  0.4438 -1.2435
  882MOL0     H19016  10.056   3.561   3.304  0.6711 -0.7350  0.7794
  882MOL0     H19017  10.158   3.793   3.274  1.0004 -1.8310 -0.2007
  882MOL0     H19018  10.179   3.720   3.437 -0.0483 -2.3879  0.1471
  882MOL0     H19019  10.115   3.966   3.427 -1.8853  1.6944  0.0300
  882MOL0     H19020   9.957   3.931   3.372 -0.8653 -0.6709  0.5050
  882MOL0     H19021  10.175   3.795   3.653 -0.4372  0.4782 -0.4246
  882MOL0     H19022  10.069   3.810   3.949  1.9963 -0.8015 -2.2662
  882MOL0     H19023   9.921   3.703   3.956  0.0793 -1.6513 -1.7245
  882MOL0     H19024  10.037   3.536   3.872 -0.5580  0.1345  1.3797
  882MOL0     H19025  10.197   3.626   3.864  0.0968 -2.9464 -1.5331
  882MOL0     H19026  10.058   3.586   4.140  0.7611 -0.0735  0.5973
  882MOL0     H19027  10.190   3.690   4.105 -2.4276  2.0447 -1.6784
  882MOL0     H19028  10.223   3.389   4.037  1.3439 -0.5432  0.8918
  882MOL0     H19029  10.228   3.448   4.204 -0.3866  1.6512  1.5685
  882MOL0     H19030  10.612   3.552   4.047  0.5467  2.7530 -0.7636
  882MOL0     H19031  10.786   3.613   4.216 -1.0502 -1.2806 -4.6136
  882MOL0     H19032  10.776   3.921   4.641  0.1825  1.0608 -1.7195
  882MOL0     H19033  10.934   4.056   4.754 -1.5736 -2.4240  1.7096
  882MOL0     H19034  11.097   4.220   4.814  1.8020  1.9081 -1.0739
  882MOL0     H19035  11.156   4.072   4.901 -1.1144  3.3015  3.1221
  882MOL0     H19036  11.293   4.255   4.960  2.2240 -1.0018  0.8221
  882MOL0     H19037  11.388   4.140   4.878 -1.6119 -2.0506 -0.2953
  882MOL0     H19038  11.410   4.273   4.680 -0.9622 -0.2319 -2.2513
  882MOL0     H19039  11.276   4.375   4.720  0.2435 -0.7911 -0.7230
  882MOL0     H19040  11.535   4.383   4.886  0.0886 -0.2648  0.9707
  882MOL0     H19041  11.380   4.463   4.919  0.7535  1.5052 -1.1881
  882MOL0     H19042  11.376   4.590   4.711 -0.4898 -1.0115 -0.5792
  882MOL0     H19043  11.524   4.515   4.648  0.6600  1.6711  0.0101
  882MOL0     H19044  11.503   4.678   4.903 -1.9577  1.2490 -0.5328
  882MOL0     H19045  11.658   4.622   4.836  0.1592  0.6925 -0.2825
  882MOL0     H19046  11.464   4.828   4.739  2.5109  5.3736  1.8690
  882MOL0     H19047  11.571   4.751   4.628 -2.8490  2.7503 -1.1765
  882MOL0     H19048  11.753   4.822   4.797 -0.8420  0.0755  1.0790
  882MOL0     H19049  11.680   4.961   4.716  1.5320 -1.3210 -1.8192
  882MOL0     H19050  11.249   3.874   4.550 -0.3700 -0.4829 -0.6591
  882MOL0     H19051  11.091   3.732   4.421 -0.1268  1.3993 -1.3850
  882MOL0     H19052  10.463   3.686   4.495  1.1630  2.7494  0.8209
  882MOL0     H19053  10.301   3.592   4.315  0.5158 -0.7541 -1.8842
  882MOL0     H19054   9.260   3.548   3.210 -0.5364  0.0943  0.6031
  882MOL0     H19055   9.044   3.444   3.245 -0.1140 -0.1406 -2.1771
  882MOL0     H19056   8.757   3.233   3.184  1.4624 -0.4787  0.1463
  882MOL0     H19057   8.528   3.196   3.163 -1.6869 -2.1064  0.1827
  882MOL0     H19058   8.440   2.970   3.059 -0.7959 -2.7062  0.8596
  882MOL0     H19059   8.322   3.099   3.087  0.9158 -0.3373 -2.6832
  882MOL0     H19060   8.289   2.796   3.057 -0.1344  0.7957 -0.9847
  882MOL0     H19061   8.211   2.929   2.974 -1.6736  0.1329 -0.0954
  882MOL0     H19062   8.079   3.010   3.162  0.7846  0.5843 -2.1062
  882MOL0     H19063   8.140   2.885   3.260  2.5775  1.8934 -0.6178
  882MOL0     H19064   7.902   2.859   3.167  0.7588  1.7546  0.6253
  882MOL0     H19065   7.982   2.843   3.004  1.4355  0.3801  0.4005
  882MOL0     H19066   8.082   2.465   3.146  2.3964  0.8279 -0.5736
  882MOL0     H19067   8.540   2.857   3.417 -1.9479  0.8364 -0.2353
  882MOL0     H19068   8.719   2.797   3.530  0.3213 -0.2727  0.6123
  882MOL0     H19069   8.875   2.812   3.444  1.6061  2.6844  1.7000
  882MOL0     H19070   8.832   2.925   3.579 -1.7408  0.9445  0.2575
  883MOL0     O19071   8.149   9.494   6.937  0.3949  0.1038 -0.3911
  883MOL0     C19072   8.193   9.382   6.922  0.1993 -1.0368 -0.7699
  883MOL0     O19073   8.329   9.357   6.921  0.0983  0.0153 -0.5301
  883MOL0     C19074   8.428   9.443   6.954  0.1600  0.4792 -0.6709
  883MOL0     C19075   8.516   9.397   7.048 -0.4128  1.0237 -0.7443
  883MOL0     C19076   8.634   9.472   7.082  0.4423 -0.6806  0.1048
  883MOL0     C19077   8.669   9.588   7.008  0.2023  0.1120  0.4232
  883MOL0     O19078   8.789   9.648   7.041 -0.5559  0.6471 -0.4201
  883MOL0     C19079   8.878   9.696   6.939 -0.0201  0.7447  0.3462
  883MOL0     C19080   9.029   9.666   6.978  0.6603  0.4810  0.1555
  883MOL0     C19081   9.089   9.738   7.100  0.7731  0.1257 -0.5405
  883MOL0     C19082   9.151   9.865   7.055 -0.4915 -0.5841 -0.6352
  883MOL0     C19083   9.219   9.956   7.162  0.3414  0.1636  1.2069
  883MOL0     C19084   9.310  10.067   7.103  0.2750  0.4266 -0.2068
  883MOL0     C19085   9.439  10.104   7.174 -0.2888  0.5489 -0.3940
  883MOL0     C19086   9.543   9.989   7.152 -0.8804  0.1228  0.6255
  883MOL0     N19087   9.671  10.024   7.220  0.4537  0.4674 -1.0083
  883MOL0     C19088   9.700  10.020   7.350 -0.4411 -0.4935 -0.1085
  883MOL0     C19089   9.829  10.062   7.364 -0.0069  0.2636 -0.5557
  883MOL0     C19090   9.896  10.079   7.495 -0.0835 -0.4157 -0.2414
  883MOL0     C19091   9.868  10.214   7.556 -0.2479 -0.7581 -0.0258
  883MOL0     C19092   9.962  10.250   7.671 -0.1664 -0.0808  0.0343
  883MOL0     C19093  10.104  10.276   7.632 -0.3634 -0.1609  0.0076
  883MOL0     O19094  10.166  10.283   7.760 -0.1341 -0.2230  0.4221
  883MOL0     C19095  10.299  10.309   7.769  0.0545 -0.0585  0.1207
  883MOL0     C19096  10.389  10.333   7.662  0.5012  0.2917 -0.2253
  883MOL0     C19097  10.523  10.376   7.684 -1.1760 -0.6321 -0.5600
  883MOL0     C19098  10.571  10.414   7.811  0.6327 -0.7867  0.8469
  883MOL0     C19099  10.706  10.481   7.826 -0.2350 -0.5759  0.1611
  883MOL0     O19100  10.788  10.468   7.719 -0.5274 -0.1104  0.0831
  883MOL0     C19101  10.920  10.513   7.729 -0.1347  0.6019  1.0356
  883MOL0     C19102  11.021  10.420   7.746  0.9301 -0.9223  0.0412
  883MOL0     C19103  11.148  10.467   7.738  0.2449 -0.7163  0.3449
  883MOL0     C19104  11.184  10.598   7.700  0.1234 -1.0956 -0.3134
  883MOL0     O19105  11.311  10.651   7.695 -0.0519 -0.7533 -0.4982
  883MOL0     C19106  11.369  10.674   7.829  0.1940  0.5592 -0.3100
  883MOL0     C19107  11.516  10.660   7.802  0.6635  0.1855 -0.2221
  883MOL0     C19108  11.552  10.525   7.753 -0.8602 -0.5283 -0.4376
  883MOL0     C19109  11.703  10.511   7.747 -0.5757 -1.6763  0.5857
  883MOL0     C19110  11.783  10.624   7.663 -0.4399  0.4596 -0.7698
  883MOL0     C19111  11.724  10.638   7.527  0.5980  0.2604  0.4195
  883MOL0     C19112  11.821  10.722   7.431 -0.3814 -0.6006 -0.1096
  883MOL0     C19113  11.900  10.835   7.500  0.0649 -0.8931  0.1929
  883MOL0    Cl19114  11.990  10.922   7.379 -0.3019  0.3268  0.1795
  883MOL0     C19115  11.077  10.693   7.685 -0.7959 -0.1918 -0.1051
  883MOL0     C19116  10.945  10.646   7.707 -0.6500  0.1930 -0.0109
  883MOL0     O19117  10.737  10.513   7.940  0.6065  0.1388  0.2014
  883MOL0     C19118  10.481  10.386   7.913 -0.5928 -0.8678  0.2113
  883MOL0     C19119  10.355  10.335   7.894 -1.2879 -0.2997 -0.1501
  883MOL0     N19120   9.880  10.080   7.238  0.5087  0.2395 -0.4578
  883MOL0     N19121   9.783  10.066   7.154  0.0768 -0.5392  0.1742
  883MOL0     C19122   8.577   9.637   6.910  0.1089  0.2069 -0.3636
  883MOL0     C19123   8.466   9.559   6.885  0.0823 -0.0280  0.1369
  883MOL0     C19124   8.103   9.268   6.886 -0.1092 -0.5750 -0.6516
  883MOL0     C19125   8.167   9.149   6.854  0.1282 -0.5443 -0.6048
  883MOL0     C19126   8.094   9.041   6.830 -0.7881 -0.5447  0.1396
  883MOL0     C19127   7.960   9.039   6.850 -0.1622 -0.8907 -0.4310
  883MOL0     O19128   7.911   8.916   6.807 -0.2946  0.0877  0.1433
  883MOL0     C19129   7.798   8.873   6.880  0.3453 -0.0528  0.2740
  883MOL0     C19130   7.765   8.731   6.833 -0.1997 -0.7369 -0.2930
  883MOL0     C19131   7.643   8.668   6.905 -0.4316  0.1179  0.3436
  883MOL0     C19132   7.581   8.557   6.823  0.4951 -0.1489 -0.4230
  883MOL0     C19133   7.669   8.451   6.784 -0.3047  0.2238  0.3884
  883MOL0     C19134   7.746   8.366   6.736  0.1672  0.4881  0.5238
  883MOL0     C19135   7.886   9.155   6.881 -0.0100  0.5291  0.0503
  883MOL0     C19136   7.960   9.265   6.910 -0.3209 -0.0334 -0.4048
  883MOL0     C19137   7.873   9.392   6.941  0.0839 -0.1596  0.0026
  883MOL0     H19138   8.492   9.316   7.115  2.0279  0.9921  0.1729
  883MOL0     H19139   8.698   9.429   7.159  0.8057 -1.4146 -0.5848
  883MOL0     H19140   8.848   9.668   6.837  0.9085  1.8134 -0.2531
  883MOL0     H19141   8.862   9.804   6.936 -0.9932  0.6157 -2.1602
  883MOL0     H19142   9.088   9.675   6.886  1.6189 -0.5388  0.6453
  883MOL0     H19143   9.029   9.559   6.999 -0.7051  0.4129 -0.1022
  883MOL0     H19144   9.166   9.680   7.153 -0.2660 -0.1568  0.7081
  883MOL0     H19145   9.012   9.770   7.171 -0.0306 -0.7881 -0.9823
  883MOL0     H19146   9.235   9.838   6.990  0.2635 -2.2310  0.9263
  883MOL0     H19147   9.074   9.928   7.010 -1.3342 -0.9637  0.2319
  883MOL0     H19148   9.146  10.000   7.232  0.4433  1.7081  0.3722
  883MOL0     H19149   9.279   9.889   7.225  2.6566  2.1777  1.3003
  883MOL0     H19150   9.342  10.042   7.002 -0.4313  2.9902 -1.1662
  883MOL0     H19151   9.245  10.155   7.112 -0.9148 -0.5689  1.8807
  883MOL0     H19152   9.417  10.125   7.279 -2.4092  3.8684 -1.3635
  883MOL0     H19153   9.482  10.195   7.132  5.5005 -1.3226  0.4851
  883MOL0     H19154   9.497   9.892   7.178 -0.8608  0.2985  1.3475
  883MOL0     H19155   9.559   9.984   7.044 -0.7530 -0.1446  0.6553
  883MOL0     H19156   9.630  10.002   7.431 -0.5260 -3.6364 -0.7499
  883MOL0     H19157   9.850  10.001   7.556 -3.4640  1.0755 -0.6557
  883MOL0     H19158  10.002  10.055   7.482  0.1114 -0.2901  1.0437
  883MOL0     H19159   9.869  10.292   7.479  0.3558 -0.0549  0.6736
  883MOL0     H19160   9.767  10.217   7.599 -0.4108 -0.8668 -0.3924
  883MOL0     H19161   9.980  10.162   7.734  2.0793 -0.4166 -0.9818
  883MOL0     H19162   9.928  10.330   7.736 -2.4701 -1.9333  1.2606
  883MOL0     H19163  10.116  10.366   7.570 -0.6084 -0.8941 -1.1329
  883MOL0     H19164  10.152  10.201   7.568  1.8479  1.5849 -0.5087
  883MOL0     H19165  10.348  10.315   7.563 -0.5575 -0.2321  0.2776
  883MOL0     H19166  10.588  10.383   7.598  0.9203  0.6196  1.0192
  883MOL0     H19167  11.001  10.314   7.760 -1.2417 -0.4332  1.1337
  883MOL0     H19168  11.228  10.396   7.754 -0.1002 -1.3943 -0.8239
  883MOL0     H19169  11.351  10.774   7.870 -3.5731 -0.1444  0.0547
  883MOL0     H19170  11.333  10.601   7.901  1.0739 -1.3777 -1.7465
  883MOL0     H19171  11.556  10.730   7.729  0.6095  1.8911  1.3045
  883MOL0     H19172  11.570  10.681   7.895  0.8562 -1.2659  0.0228
  883MOL0     H19173  11.526  10.442   7.820  0.3155  0.3184  1.1323
  883MOL0     H19174  11.516  10.502   7.652  1.1075 -0.4707 -1.2031
  883MOL0     H19175  11.720  10.418   7.692 -1.4817  0.1443 -3.0752
  883MOL0     H19176  11.752  10.517   7.845 -1.0200  0.3791  0.7303
  883MOL0     H19177  11.888  10.593   7.654 -0.4382 -0.8714  2.2764
  883MOL0     H19178  11.781  10.719   7.716 -2.1200  1.6962 -2.8975
  883MOL0     H19179  11.713  10.540   7.479 -1.3014  1.2698 -1.3539
  883MOL0     H19180  11.626  10.686   7.533 -0.1365 -0.8384 -1.6953
  883MOL0     H19181  11.771  10.765   7.343  2.5717  1.7236 -0.8107
  883MOL0     H19182  11.904  10.658   7.400 -0.2940 -1.1142  1.1345
  883MOL0     H19183  11.840  10.917   7.540  2.9842  1.2464  0.5355
  883MOL0     H19184  11.953  10.805   7.590 -0.6697 -3.3113 -0.1148
  883MOL0     H19185  11.105  10.796   7.666 -0.4748 -0.1676  0.4520
  883MOL0     H19186  10.871  10.723   7.689 -1.0013 -0.4988 -1.7026
  883MOL0     H19187  10.514  10.386   8.017 -0.0978 -3.5935  0.1292
  883MOL0     H19188  10.292  10.309   7.979 -1.1414 -0.0204  0.0493
  883MOL0     H19189   8.597   9.737   6.873  0.1013  1.1469  2.0044
  883MOL0     H19190   8.396   9.575   6.804  0.8479 -0.0750 -0.5477
  883MOL0     H19191   8.274   9.135   6.842  0.6607  2.0129  0.4394
  883MOL0     H19192   8.131   8.946   6.793  0.8363  0.4377 -0.8541
  883MOL0     H19193   7.715   8.937   6.851 -0.2426 -1.1400 -0.5245
  883MOL0     H19194   7.822   8.874   6.987  1.6042 -0.2240  0.0084
  883MOL0     H19195   7.851   8.667   6.854 -0.1735 -1.1742 -1.6411
  883MOL0     H19196   7.735   8.732   6.728 -3.0445 -1.5932  0.4220
  883MOL0     H19197   7.564   8.742   6.917 -0.7119 -0.4524  2.3971
  883MOL0     H19198   7.670   8.630   7.004  2.8644  1.2921  0.0150
  883MOL0     H19199   7.503   8.510   6.884  2.1803 -0.9552  1.2233
  883MOL0     H19200   7.543   8.598   6.729  2.9146 -1.7569 -2.2112
  883MOL0     H19201   7.809   8.290   6.694 -0.8975 -0.8840  1.3537
  883MOL0     H19202   7.779   9.139   6.880  0.3883 -4.4205 -4.3670
  883MOL0     H19203   7.767   9.367   6.958  0.4505 -0.5172  2.0664
  883MOL0     H19204   7.908   9.436   7.035  1.4199  0.4005 -0.7418
  883MOL0     H19205   7.870   9.466   6.861  2.0929 -0.6616 -0.5911
  884MOL0     O19206   4.310   8.744   6.185  0.0227 -0.2761 -0.0845
  884MOL0     C19207   4.280   8.821   6.092  0.1626 -0.3892  0.0441
  884MOL0     O19208   4.149   8.860   6.064 -0.2826 -0.9783  0.7644
  884MOL0     C19209   4.047   8.811   6.135  0.2380 -0.0174 -0.9411
  884MOL0     C19210   3.956   8.729   6.069  0.2737 -0.2462  0.0968
  884MOL0     C19211   3.844   8.691   6.144 -0.0497  1.1748 -0.2470
  884MOL0     C19212   3.834   8.717   6.284 -0.3767 -0.4814  0.7535
  884MOL0     O19213   3.732   8.673   6.363  0.5299 -0.4988  0.2002
  884MOL0     C19214   3.611   8.607   6.315  0.7843 -0.3907  0.3471
  884MOL0     C19215   3.631   8.453   6.289  0.6188 -0.2063 -0.3254
  884MOL0     C19216   3.645   8.371   6.412 -1.1640 -0.1178  0.7199
  884MOL0     C19217   3.668   8.226   6.375 -0.2591 -0.1071 -0.2017
  884MOL0     C19218   3.700   8.123   6.497  0.4039  0.3632  0.7955
  884MOL0     C19219   3.820   8.154   6.576 -0.7510 -0.1695  0.4954
  884MOL0     C19220   3.850   8.048   6.685  0.6981 -0.0275 -0.4258
  884MOL0     C19221   3.975   8.085   6.768 -0.4307  0.3407  0.7203
  884MOL0     N19222   3.963   8.210   6.847 -0.5481 -0.0292 -0.0236
  884MOL0     C19223   3.910   8.235   6.974  0.1172 -0.7352  0.3847
  884MOL0     C19224   3.912   8.368   6.994  0.1877  0.7373  0.0413
  884MOL0     C19225   3.850   8.445   7.111 -0.0567 -0.6258  0.3663
  884MOL0     C19226   3.956   8.446   7.225  0.1950 -0.8864 -0.6595
  884MOL0     C19227   3.906   8.549   7.326  0.3475  0.4736 -0.1091
  884MOL0     C19228   3.982   8.538   7.457 -0.2557 -1.3865 -0.8690
  884MOL0     O19229   4.114   8.591   7.425  0.1850  0.1936 -0.0520
  884MOL0     C19230   4.199   8.593   7.533  0.5283 -0.2428 -0.4299
  884MOL0     C19231   4.334   8.605   7.496 -0.2789 -0.2209  0.5416
  884MOL0     C19232   4.443   8.598   7.586 -1.2173  0.2593  0.1589
  884MOL0     C19233   4.411   8.597   7.719  0.0915 -0.0335 -0.1004
  884MOL0     C19234   4.513   8.593   7.821 -0.2708 -0.1115  0.0276
  884MOL0     O19235   4.642   8.569   7.787  0.4146  0.1871 -0.2535
  884MOL0     C19236   4.734   8.564   7.891  0.2310 -0.1737 -0.0335
  884MOL0     C19237   4.783   8.441   7.937 -0.4024 -0.3770 -0.6817
  884MOL0     C19238   4.886   8.440   8.037  0.3870 -0.3428 -0.3606
  884MOL0     C19239   4.941   8.560   8.090 -1.1335  0.9172 -0.2607
  884MOL0     O19240   5.045   8.565   8.180  0.0532  0.0335 -0.1764
  884MOL0     C19241   5.112   8.440   8.211 -1.1631  0.4604  0.2247
  884MOL0     C19242   5.246   8.459   8.287  0.6629 -0.6343  0.6121
  884MOL0     C19243   5.229   8.499   8.437  0.7669 -0.3974 -0.5780
  884MOL0     C19244   5.357   8.572   8.485  0.1809 -0.4694 -0.4178
  884MOL0     C19245   5.333   8.598   8.639 -0.1463  0.4608  0.4411
  884MOL0     C19246   5.457   8.665   8.698 -0.4858 -0.1760 -0.4539
  884MOL0     C19247   5.555   8.556   8.738 -0.1837 -0.9691  0.2911
  884MOL0     C19248   5.693   8.624   8.775  0.3610 -0.3018 -0.4508
  884MOL0    Cl19249   5.781   8.657   8.624 -0.0030 -0.3431  0.0515
  884MOL0     C19250   4.891   8.676   8.037 -0.1282  0.1269 -0.3787
  884MOL0     C19251   4.793   8.678   7.941  0.8319  0.1363  0.5956
  884MOL0     O19252   4.472   8.620   7.937 -0.0510 -0.0728 -0.4340
  884MOL0     C19253   4.273   8.594   7.755 -0.6894 -0.0474 -0.5839
  884MOL0     C19254   4.174   8.596   7.666  0.3253  0.5344 -0.4651
  884MOL0     N19255   3.970   8.424   6.879  0.2433 -0.1895  0.3065
  884MOL0     N19256   3.989   8.328   6.789 -0.6925 -0.3640  0.0796
  884MOL0     C19257   3.937   8.788   6.347 -0.6006 -0.1752  0.1407
  884MOL0     C19258   4.046   8.841   6.276  0.5980  1.0962  0.1142
  884MOL0     C19259   4.393   8.848   5.991 -0.6546 -1.2234 -0.2217
  884MOL0     C19260   4.366   8.863   5.854  0.2083 -0.0192 -1.0223
  884MOL0     C19261   4.470   8.888   5.762  0.5994 -0.3068  0.0484
  884MOL0     C19262   4.597   8.897   5.803 -1.3398  0.5069 -0.6725
  884MOL0     O19263   4.713   8.911   5.731  0.2671 -0.4535  0.2578
  884MOL0     C19264   4.697   8.883   5.589 -0.4059 -0.3377  0.1373
  884MOL0     C19265   4.821   8.869   5.506 -0.6876 -0.2522  0.4082
  884MOL0     C19266   4.925   8.983   5.529 -0.1284  0.1040  0.3039
  884MOL0     C19267   5.065   8.965   5.455  1.0231 -0.6087  0.0352
  884MOL0     C19268   5.060   8.946   5.303  0.4880 -0.6736 -0.2652
  884MOL0     C19269   5.046   8.934   5.182  0.4063 -0.2249 -0.8214
  884MOL0     C19270   4.626   8.876   5.939 -0.0155  0.3491 -0.0560
  884MOL0     C19271   4.526   8.856   6.035 -0.2288 -0.3626 -0.4182
  884MOL0     C19272   4.564   8.855   6.187 -0.2013  0.2565 -0.3068
  884MOL0     H19273   3.963   8.693   5.967 -1.9946  1.4487 -0.7341
  884MOL0     H19274   3.781   8.620   6.092  0.6579 -0.9481  1.6342
  884MOL0     H19275   3.526   8.624   6.381 -0.7246 -2.0396 -1.0398
  884MOL0     H19276   3.588   8.648   6.216 -2.9984 -1.0703  0.7980
  884MOL0     H19277   3.721   8.441   6.229  1.8606  2.1896  0.9356
  884MOL0     H19278   3.543   8.415   6.235 -0.2617  1.0513  0.1591
  884MOL0     H19279   3.546   8.386   6.457 -2.7987 -1.4262 -2.2005
  884MOL0     H19280   3.733   8.411   6.463  0.4405  1.7336 -3.1029
  884MOL0     H19281   3.581   8.193   6.318  0.1194 -1.5455  0.0136
  884MOL0     H19282   3.752   8.225   6.305 -0.0088  3.5337 -0.1339
  884MOL0     H19283   3.616   8.114   6.566 -0.3961  2.5100  0.1786
  884MOL0     H19284   3.715   8.023   6.455  0.2225 -0.0487  1.6909
  884MOL0     H19285   3.902   8.167   6.505 -1.5791 -0.1867 -0.4787
  884MOL0     H19286   3.796   8.249   6.626 -1.5483  0.5820 -1.2092
  884MOL0     H19287   3.859   7.950   6.638 -1.4195  1.3361 -4.1378
  884MOL0     H19288   3.769   8.044   6.758  2.2602  0.2386  1.3823
  884MOL0     H19289   4.003   7.997   6.827  1.4104  0.2640 -0.2094
  884MOL0     H19290   4.052   8.100   6.693  0.6494  1.4478  2.0164
  884MOL0     H19291   3.859   8.158   7.031  0.4690 -1.9582 -0.8874
  884MOL0     H19292   3.814   8.542   7.076  2.1913 -0.5106 -1.9392
  884MOL0     H19293   3.762   8.393   7.151 -0.7418 -0.1598 -0.5057
  884MOL0     H19294   3.959   8.350   7.276  0.2479 -0.1215  0.8313
  884MOL0     H19295   4.054   8.484   7.195  0.7827 -0.3691  1.7024
  884MOL0     H19296   3.800   8.535   7.349  0.7639 -1.5100  0.7685
  884MOL0     H19297   3.918   8.647   7.279  0.2127 -0.1479 -1.4840
  884MOL0     H19298   3.994   8.437   7.497  2.0691 -0.1116  2.0751
  884MOL0     H19299   3.920   8.587   7.532 -1.0383 -1.2727 -1.5828
  884MOL0     H19300   4.353   8.604   7.390 -0.5552  0.0453  0.4874
  884MOL0     H19301   4.538   8.620   7.538 -1.7772  1.3757 -0.4687
  884MOL0     H19302   4.750   8.344   7.900 -0.4400 -0.7793  0.3736
  884MOL0     H19303   4.907   8.334   8.050 -2.0006 -0.8540 -0.2636
  884MOL0     H19304   5.052   8.380   8.281  2.1315 -1.1899  1.8698
  884MOL0     H19305   5.135   8.387   8.118 -4.5660  1.5502 -1.3856
  884MOL0     H19306   5.317   8.375   8.282  0.6920 -0.5205 -1.3605
  884MOL0     H19307   5.290   8.542   8.232 -0.9812  1.2121  1.9592
  884MOL0     H19308   5.138   8.558   8.452 -0.1545 -1.9961  0.3852
  884MOL0     H19309   5.218   8.406   8.493  4.1006 -2.5218 -3.0598
  884MOL0     H19310   5.369   8.668   8.434 -1.7357  0.3635  0.6003
  884MOL0     H19311   5.446   8.511   8.470  2.0240  2.2232 -1.0802
  884MOL0     H19312   5.299   8.508   8.692 -2.8145  0.9982 -0.2055
  884MOL0     H19313   5.255   8.670   8.666  0.6039  1.6233 -0.3932
  884MOL0     H19314   5.509   8.726   8.624  0.8899 -1.1939 -0.3714
  884MOL0     H19315   5.427   8.717   8.790 -2.5692 -2.6950  0.4161
  884MOL0     H19316   5.568   8.481   8.660  0.2000  1.2451 -1.8821
  884MOL0     H19317   5.521   8.497   8.824  2.4513 -1.1916  1.2543
  884MOL0     H19318   5.670   8.719   8.823 -2.0016  0.3179 -2.6463
  884MOL0     H19319   5.740   8.559   8.850 -0.8853  0.4265  1.0078
  884MOL0     H19320   4.916   8.776   8.071 -5.5594  1.9864 -0.9871
  884MOL0     H19321   4.768   8.774   7.896  2.0229  0.3834  0.4284
  884MOL0     H19322   4.254   8.583   7.862 -0.6206  3.1126 -0.1530
  884MOL0     H19323   4.072   8.580   7.701  0.0395 -1.2531 -1.9596
  884MOL0     H19324   3.924   8.810   6.453  0.9023  0.5804  0.1953
  884MOL0     H19325   4.113   8.912   6.324 -1.1803  3.5748 -0.8840
  884MOL0     H19326   4.263   8.859   5.820 -0.4617 -0.8739  0.9320
  884MOL0     H19327   4.441   8.895   5.658  2.2344 -1.4656 -0.5204
  884MOL0     H19328   4.634   8.962   5.546  1.2651  0.6528 -0.5972
  884MOL0     H19329   4.645   8.788   5.578 -0.4537 -0.4600  1.3053
  884MOL0     H19330   4.792   8.865   5.401 -1.2033  0.3093  0.5257
  884MOL0     H19331   4.862   8.772   5.534 -2.7503 -1.1094  0.6657
  884MOL0     H19332   4.932   8.995   5.637  1.1745 -1.4004  0.4161
  884MOL0     H19333   4.886   9.076   5.486  3.7852  2.2711  0.9219
  884MOL0     H19334   5.116   9.061   5.472 -0.8670  0.5496 -0.4902
  884MOL0     H19335   5.123   8.881   5.493 -0.0334 -1.0049  0.8356
  884MOL0     H19336   5.022   8.926   5.077 -1.2679 -0.3132 -0.4713
  884MOL0     H19337   4.729   8.882   5.973  0.1689 -1.7776 -0.1260
  884MOL0     H19338   4.587   8.753   6.218 -2.9306 -0.1393  0.6823
  884MOL0     H19339   4.656   8.912   6.207  2.0687 -2.8490 -1.1622
  884MOL0     H19340   4.488   8.897   6.254  1.5151  0.5827  1.5466
  885MOL0     O19341  10.159   9.512   6.554  0.1468 -0.1543  0.1324
  885MOL0     C19342  10.130   9.606   6.478  0.4881  0.8359 -0.0269
  885MOL0     O19343  10.191   9.729   6.468 -0.2186 -0.2593  0.3310
  885MOL0     C19344  10.286   9.771   6.558 -0.6521  0.6062  0.4832
  885MOL0     C19345  10.317   9.726   6.682 -0.3467  0.5452  0.0058
  885MOL0     C19346  10.393   9.800   6.768  0.4284  0.0230  0.0182
  885MOL0     C19347  10.459   9.914   6.733 -0.8061 -0.1683  0.5751
  885MOL0     O19348  10.558   9.968   6.812  0.1941 -0.0983 -0.4775
  885MOL0     C19349  10.583  10.106   6.819 -0.7024  0.2395  0.7800
  885MOL0     C19350  10.682  10.136   6.937  0.1957 -0.3416  0.0123
  885MOL0     C19351  10.823  10.092   6.898 -0.4876 -0.5565 -0.3575
  885MOL0     C19352  10.925  10.158   6.989 -0.4253  0.9691 -0.7009
  885MOL0     C19353  11.067  10.117   6.939  0.0598 -0.3046 -0.2474
  885MOL0     C19354  11.099  10.199   6.810 -0.0809  0.3218  0.9902
  885MOL0     C19355  11.252  10.174   6.762 -0.6735 -0.3845  0.4864
  885MOL0     C19356  11.360  10.240   6.856  0.5864 -0.4364  0.5735
  885MOL0     N19357  11.498  10.204   6.814  0.5213 -1.1040 -0.0011
  885MOL0     C19358  11.613  10.240   6.873  0.8557  0.2258  0.3515
  885MOL0     C19359  11.712  10.183   6.810 -0.3949 -0.2135  0.4894
  885MOL0     C19360  11.859  10.182   6.838  0.0541 -0.0061  0.4988
  885MOL0     C19361  11.937  10.222   6.719  0.4331 -0.2151  0.4329
  885MOL0     C19362  12.085  10.214   6.732 -0.0538  0.2823 -0.5182
  885MOL0     C19363  12.145  10.253   6.603  0.7978 -0.7455 -0.0884
  885MOL0     O19364  12.290  10.236   6.615  0.6095  0.6783  0.1716
  885MOL0     C19365  12.367  10.268   6.507 -0.3283 -0.4769  0.4397
  885MOL0     C19366  12.322  10.295   6.377  0.4063  0.4356 -0.3119
  885MOL0     C19367  12.406  10.316   6.262 -0.0540  0.8547 -0.5706
  885MOL0     C19368  12.550  10.325   6.300  0.2516  0.6841  0.7211
  885MOL0     C19369  12.652  10.358   6.204  0.7691 -0.0740 -0.2039
  885MOL0     O19370  12.603  10.435   6.109 -0.6584  0.0598 -0.1122
  885MOL0     C19371  12.690  10.465   6.005  0.0484 -0.4939 -0.3817
  885MOL0     C19372  12.764  10.586   6.006  0.0318 -0.0574  0.5409
  885MOL0     C19373  12.861  10.605   5.898  0.4715  0.1765 -0.6000
  885MOL0     C19374  12.870  10.513   5.791 -0.2485 -0.5067 -0.6451
  885MOL0     O19375  12.939  10.529   5.667 -0.0113  0.7659 -0.3215
  885MOL0     C19376  13.035  10.637   5.660 -0.5775  0.4317 -0.0438
  885MOL0     C19377  13.109  10.659   5.519 -0.2548  0.4977  0.0194
  885MOL0     C19378  13.163  10.520   5.467  0.2222  0.6508 -0.2471
  885MOL0     C19379  13.294  10.486   5.539  0.2161  0.7171  0.6408
  885MOL0     C19380  13.420  10.572   5.489  0.3461  1.1910 -0.1486
  885MOL0     C19381  13.450  10.542   5.348 -0.5695  0.1270  0.4602
  885MOL0     C19382  13.600  10.572   5.308  1.2363 -0.3395  0.1326
  885MOL0     C19383  13.635  10.488   5.183  0.0671  0.7023 -1.3545
  885MOL0    Cl19384  13.629  10.312   5.203  0.3284 -0.3705 -0.4289
  885MOL0     C19385  12.783  10.409   5.797 -0.0589 -0.5853 -0.9400
  885MOL0     C19386  12.700  10.373   5.904 -0.3811  0.0155 -0.1299
  885MOL0     O19387  12.765  10.323   6.221 -0.0508 -0.3846  0.1388
  885MOL0     C19388  12.593  10.280   6.427  0.4710  0.3369 -0.2718
  885MOL0     C19389  12.503  10.247   6.521 -0.5639  0.6163 -0.4164
  885MOL0     N19390  11.659  10.089   6.721  0.4509 -0.4583 -0.4029
  885MOL0     N19391  11.535  10.106   6.724  0.2748 -0.4019  0.3806
  885MOL0     C19392  10.434   9.969   6.606  0.2767  0.2402 -0.0713
  885MOL0     C19393  10.347   9.899   6.516 -0.5518 -0.7971 -0.7483
  885MOL0     C19394  10.012   9.594   6.391  0.9742 -0.5825  0.1766
  885MOL0     C19395   9.949   9.710   6.325 -0.7238  0.5820 -0.3004
  885MOL0     C19396   9.821   9.701   6.261  0.6195 -0.6337  0.2619
  885MOL0     C19397   9.761   9.580   6.245  0.0318  0.7692 -0.0750
  885MOL0     O19398   9.634   9.548   6.186 -0.0886 -0.4268 -0.5974
  885MOL0     C19399   9.565   9.641   6.113 -0.2193 -0.5062  0.0115
  885MOL0     C19400   9.434   9.591   6.063  0.0973 -0.6008  0.9421
  885MOL0     C19401   9.327   9.544   6.164  0.0723 -0.3836 -0.3604
  885MOL0     C19402   9.182   9.530   6.110  1.0709 -0.7287 -0.1163
  885MOL0     C19403   9.108   9.653   6.107  0.6108  0.6773 -0.2961
  885MOL0     C19404   9.048   9.751   6.071  0.3645  0.2870 -1.0990
  885MOL0     C19405   9.826   9.473   6.294  0.6537  0.2943  0.4429
  885MOL0     C19406   9.952   9.470   6.363 -0.2649 -0.6173 -0.4690
  885MOL0     C19407   9.993   9.330   6.414  0.2583 -0.2608 -0.1379
  885MOL0     H19408  10.275   9.631   6.715 -1.3463  0.4803 -1.3816
  885MOL0     H19409  10.419   9.754   6.863 -1.6534 -2.9397 -0.6996
  885MOL0     H19410  10.625  10.146   6.726  0.1212 -0.3963  0.8681
  885MOL0     H19411  10.486  10.154   6.831 -1.0207 -0.3448  0.6050
  885MOL0     H19412  10.653  10.092   7.033 -0.1388  0.8476  0.4824
  885MOL0     H19413  10.681  10.244   6.957 -1.7112 -0.3448  0.1666
  885MOL0     H19414  10.851  10.100   6.792  0.9478 -2.4639 -0.1718
  885MOL0     H19415  10.831   9.984   6.911  4.3088 -0.6137 -1.8400
  885MOL0     H19416  10.903  10.265   6.988 -2.0960  0.6491 -2.0608
  885MOL0     H19417  10.907  10.116   7.088  1.7306 -0.8473 -0.9729
  885MOL0     H19418  11.141  10.153   7.011  0.0702  4.1387 -2.1521
  885MOL0     H19419  11.072  10.009   6.920 -1.3378 -0.4904  0.3127
  885MOL0     H19420  11.031  10.185   6.726  0.1718  0.7403  0.7148
  885MOL0     H19421  11.090  10.302   6.844 -2.6331  0.6122 -0.3570
  885MOL0     H19422  11.265  10.198   6.656 -2.5375 -0.8830  0.1090
  885MOL0     H19423  11.270  10.066   6.755  3.8760  0.2986 -1.9680
  885MOL0     H19424  11.344  10.348   6.850  1.5934 -0.2276  1.3912
  885MOL0     H19425  11.351  10.215   6.962 -3.1983  1.4073  0.8503
  885MOL0     H19426  11.622  10.307   6.958  3.2927  0.1167  0.2351
  885MOL0     H19427  11.888  10.246   6.922 -0.1832 -0.6395  1.0738
  885MOL0     H19428  11.886  10.082   6.874 -0.7113 -0.5611 -0.4255
  885MOL0     H19429  11.909  10.158   6.634  1.3087 -1.8040  1.3039
  885MOL0     H19430  11.904  10.326   6.710  1.5511  0.4286  3.0303
  885MOL0     H19431  12.111  10.111   6.761  0.6786  0.8710  1.0435
  885MOL0     H19432  12.122  10.268   6.820  0.1819 -3.7838  2.1601
  885MOL0     H19433  12.121  10.357   6.579  0.7837 -0.9218 -0.8607
  885MOL0     H19434  12.111  10.181   6.528 -0.1582 -0.9921  0.5611
  885MOL0     H19435  12.217  10.302   6.350  1.2511  3.6322 -3.4753
  885MOL0     H19436  12.369  10.342   6.164 -3.2746  0.5045  0.4432
  885MOL0     H19437  12.750  10.659   6.084  0.7968  0.9867 -0.2609
  885MOL0     H19438  12.920  10.696   5.899 -0.6709  1.1530 -4.5164
  885MOL0     H19439  12.986  10.734   5.676 -0.8074  0.2829  0.1417
  885MOL0     H19440  13.107  10.628   5.742 -0.0326  2.0416 -0.3045
  885MOL0     H19441  13.042  10.701   5.443 -2.8811  0.6461  2.2789
  885MOL0     H19442  13.190  10.730   5.535  1.5401 -1.1333 -1.3018
  885MOL0     H19443  13.093  10.439   5.491  0.8691 -0.1620 -1.0225
  885MOL0     H19444  13.178  10.516   5.358  0.4634 -3.2980 -0.2151
  885MOL0     H19445  13.317  10.379   5.529  0.2595  0.7112  0.8028
  885MOL0     H19446  13.275  10.506   5.645 -1.1606  3.6148 -0.0516
  885MOL0     H19447  13.495  10.529   5.556 -2.3140 -2.8388  0.5908
  885MOL0     H19448  13.396  10.678   5.503 -1.9723  1.0930 -2.6546
  885MOL0     H19449  13.437  10.434   5.333  0.5025 -0.2664  2.1503
  885MOL0     H19450  13.384  10.603   5.285  1.3616  0.1409 -1.6620
  885MOL0     H19451  13.668  10.553   5.391  0.0456  3.3081  2.1483
  885MOL0     H19452  13.611  10.679   5.289 -2.7132  0.5796  2.0621
  885MOL0     H19453  13.561  10.519   5.109  1.2772  0.8189 -2.5587
  885MOL0     H19454  13.737  10.514   5.153  1.2080  0.1807  1.7441
  885MOL0     H19455  12.795  10.344   5.711 -0.8856 -0.7865 -0.9155
  885MOL0     H19456  12.639  10.283   5.898  2.5397 -2.2795  1.5961
  885MOL0     H19457  12.697  10.286   6.458 -0.1468  0.9180  1.8784
  885MOL0     H19458  12.533  10.218   6.621 -1.5642  1.4706  0.1505
  885MOL0     H19459  10.475  10.068   6.585  2.3580 -0.9157 -1.8270
  885MOL0     H19460  10.327   9.949   6.422 -0.2239 -0.1119 -0.4681
  885MOL0     H19461  10.000   9.805   6.334 -0.1157  0.3947 -1.5842
  885MOL0     H19462   9.774   9.792   6.224  2.0082  0.1419  0.3688
  885MOL0     H19463   9.631   9.671   6.031 -0.5747  0.2929  0.0071
  885MOL0     H19464   9.543   9.726   6.180  0.2595 -1.3322  1.2595
  885MOL0     H19465   9.457   9.511   5.993 -0.7280  0.6977 -0.8958
  885MOL0     H19466   9.392   9.671   6.001 -0.4020  0.8469  3.0248
  885MOL0     H19467   9.328   9.607   6.253  1.3321  1.1947 -1.4149
  885MOL0     H19468   9.347   9.441   6.194 -2.3667 -0.6438  0.5521
  885MOL0     H19469   9.180   9.491   6.008 -0.6188 -1.7020  0.2366
  885MOL0     H19470   9.122   9.458   6.167 -2.1657 -0.0739 -2.4374
  885MOL0     H19471   9.000   9.836   6.027  1.0923  0.4381 -1.6225
  885MOL0     H19472   9.782   9.377   6.268  1.9343  0.3914 -2.5286
  885MOL0     H19473  10.099   9.334   6.390  0.9298 -0.0985  2.5183
  885MOL0     H19474   9.975   9.299   6.518 -0.1821  0.2746 -0.0481
  885MOL0     H19475   9.950   9.254   6.349 -1.8954  1.7879 -1.2713
  886MOL0     O19476   1.804   7.264   3.713  0.3065  0.2717  0.0563
  886MOL0     C19477   1.774   7.188   3.625 -0.4040 -0.5460 -0.0866
  886MOL0     O19478   1.870   7.137   3.537 -0.3985  0.3342  0.1643
  886MOL0     C19479   1.995   7.186   3.528  0.2433 -0.0426  0.0500
  886MOL0     C19480   2.097   7.087   3.525 -1.2422 -0.4104  0.3035
  886MOL0     C19481   2.231   7.121   3.514  0.1656  0.1593 -0.3934
  886MOL0     C19482   2.262   7.253   3.487  0.3645  0.1206 -0.3099
  886MOL0     O19483   2.396   7.302   3.459  0.9522 -0.1053  0.0484
  886MOL0     C19484   2.508   7.221   3.498 -0.9996  0.2149 -0.5351
  886MOL0     C19485   2.552   7.141   3.368  0.5792  0.5498 -0.1655
  886MOL0     C19486   2.584   7.243   3.258  0.5872 -0.6681  0.0429
  886MOL0     C19487   2.616   7.171   3.125  0.7882 -0.1794  0.5787
  886MOL0     C19488   2.626   7.252   2.999 -1.2165 -0.7010  0.4216
  886MOL0     C19489   2.696   7.384   3.020  0.1328  0.4943 -0.7042
  886MOL0     C19490   2.838   7.361   3.077 -0.2362 -0.3378 -0.1000
  886MOL0     C19491   2.907   7.495   3.113  0.6159 -0.4146  0.3162
  886MOL0     N19492   3.054   7.486   3.136 -0.4785  0.9748 -0.7184
  886MOL0     C19493   3.128   7.365   3.159 -0.6479 -0.9555 -1.1314
  886MOL0     C19494   3.254   7.407   3.189 -0.2312 -0.1074  0.4543
  886MOL0     C19495   3.367   7.319   3.236  0.2492 -0.1458 -0.2321
  886MOL0     C19496   3.421   7.373   3.362  0.0436  0.5717 -0.2539
  886MOL0     C19497   3.499   7.272   3.450 -0.0951 -0.6164  0.0755
  886MOL0     C19498   3.598   7.335   3.548  0.2840  0.4355 -0.4945
  886MOL0     O19499   3.707   7.376   3.477 -0.2558 -0.2212 -0.6798
  886MOL0     C19500   3.810   7.430   3.545 -0.3717  0.0996  0.3599
  886MOL0     C19501   3.910   7.486   3.468  0.1388  0.2653 -0.2288
  886MOL0     C19502   4.027   7.534   3.528 -0.2438  1.0751  0.4984
  886MOL0     C19503   4.047   7.530   3.665 -0.0490 -0.5532 -0.1830
  886MOL0     C19504   4.180   7.568   3.711 -1.0278 -0.0251 -0.2040
  886MOL0     O19505   4.276   7.621   3.627  0.5718 -0.3472 -0.5924
  886MOL0     C19506   4.416   7.611   3.645  0.3237 -0.3143  0.0828
  886MOL0     C19507   4.487   7.732   3.645 -0.3684  0.7846  0.0633
  886MOL0     C19508   4.625   7.730   3.655 -0.3263 -0.3769 -0.0772
  886MOL0     C19509   4.700   7.612   3.662 -0.2291  0.0220  0.0207
  886MOL0     O19510   4.841   7.622   3.664 -0.5154 -0.0621 -0.1127
  886MOL0     C19511   4.906   7.525   3.592 -1.0702 -0.3831  0.6309
  886MOL0     C19512   5.060   7.544   3.603  0.0612  1.0770 -0.2090
  886MOL0     C19513   5.104   7.681   3.546 -0.2321 -0.9291 -0.4342
  886MOL0     C19514   5.249   7.687   3.507 -0.5326 -0.6503 -0.1716
  886MOL0     C19515   5.296   7.802   3.421  0.9656 -0.6523  0.0789
  886MOL0     C19516   5.448   7.820   3.415 -0.4912 -0.5946 -0.3345
  886MOL0     C19517   5.495   7.912   3.526  0.3856  0.2335 -0.1015
  886MOL0     C19518   5.651   7.909   3.541  0.2968 -0.2487  0.2630
  886MOL0    Cl19519   5.709   8.046   3.635  0.0746  0.2651  0.1383
  886MOL0     C19520   4.627   7.497   3.675 -0.0695  0.0293 -0.1611
  886MOL0     C19521   4.489   7.491   3.662  0.6964  0.6839 -0.0601
  886MOL0     O19522   4.206   7.536   3.827 -0.2018  0.0318  0.0468
  886MOL0     C19523   3.941   7.491   3.747  0.1709  0.5533 -0.9094
  886MOL0     C19524   3.827   7.431   3.685  0.6091 -0.7930  0.3970
  886MOL0     N19525   3.255   7.548   3.188  0.0689 -0.5049  0.4067
  886MOL0     N19526   3.139   7.589   3.155 -0.3204  1.1119  0.3078
  886MOL0     C19527   2.159   7.350   3.482 -0.3976  0.7574 -0.6346
  886MOL0     C19528   2.033   7.322   3.518  0.6304 -0.3016 -0.4398
  886MOL0     C19529   1.642   7.120   3.623  0.4109 -0.3428 -0.0437
  886MOL0     C19530   1.634   6.998   3.558 -0.4610  0.5921  0.0725
  886MOL0     C19531   1.513   6.915   3.570 -0.1521 -0.3574 -0.0458
  886MOL0     C19532   1.395   6.964   3.627 -0.5954 -0.1948 -0.6442
  886MOL0     O19533   1.272   6.891   3.631 -0.2123 -0.0004 -0.8071
  886MOL0     C19534   1.279   6.765   3.688  0.2929 -0.6060 -0.6478
  886MOL0     C19535   1.194   6.677   3.591 -0.0902 -0.5605  0.6364
  886MOL0     C19536   1.037   6.667   3.634 -0.1832 -0.2080 -0.3529
  886MOL0     C19537   0.950   6.600   3.540 -0.0822  0.3360  0.9331
  886MOL0     C19538   0.975   6.465   3.498  0.0549 -0.4375 -0.1302
  886MOL0     C19539   1.008   6.350   3.457 -0.0041 -0.4068  0.0333
  886MOL0     C19540   1.404   7.087   3.687  0.3034  0.3371  0.3698
  886MOL0     C19541   1.521   7.168   3.676  0.0350 -0.0026 -0.1360
  886MOL0     C19542   1.517   7.308   3.733  0.7292 -0.4644 -0.5272
  886MOL0     H19543   2.077   6.981   3.541 -5.5107 -0.3512 -2.8934
  886MOL0     H19544   2.304   7.042   3.501 -0.2746 -0.1295 -1.1953
  886MOL0     H19545   2.595   7.282   3.521  1.7522 -3.1413 -1.0782
  886MOL0     H19546   2.496   7.142   3.573 -1.2193  0.1286 -0.6596
  886MOL0     H19547   2.477   7.072   3.328  0.8899 -0.9460  1.6988
  886MOL0     H19548   2.641   7.087   3.402  0.0978 -1.8779 -2.4647
  886MOL0     H19549   2.670   7.305   3.286  0.3123 -0.4991  0.5326
  886MOL0     H19550   2.505   7.317   3.245  2.5968  1.7310  0.6326
  886MOL0     H19551   2.708   7.113   3.137  0.4396 -0.5453  1.5828
  886MOL0     H19552   2.544   7.094   3.095  1.1189  0.3245 -1.6609
  886MOL0     H19553   2.678   7.193   2.922 -1.1171 -0.6004  0.4107
  886MOL0     H19554   2.525   7.266   2.961 -0.8401  0.0917 -0.3422
  886MOL0     H19555   2.704   7.431   2.922 -2.3132  0.5505 -0.9244
  886MOL0     H19556   2.642   7.458   3.080  0.9252  0.7854 -0.3347
  886MOL0     H19557   2.899   7.319   2.996  1.1628  1.3521  0.0377
  886MOL0     H19558   2.839   7.289   3.160  1.5662 -1.4952 -1.0571
  886MOL0     H19559   2.890   7.572   3.037  1.2357 -1.1089 -0.5500
  886MOL0     H19560   2.865   7.530   3.207  1.8377 -0.0589  0.7473
  886MOL0     H19561   3.093   7.263   3.168 -0.5863 -0.9120 -0.3223
  886MOL0     H19562   3.326   7.221   3.263  1.2415 -0.1219  1.4926
  886MOL0     H19563   3.444   7.302   3.161 -0.5776 -4.1109 -0.3873
  886MOL0     H19564   3.478   7.462   3.333  1.7538 -0.0797  0.9520
  886MOL0     H19565   3.339   7.407   3.427 -0.9575 -1.2636 -0.4759
  886MOL0     H19566   3.556   7.204   3.386  5.2525  2.0028  1.5177
  886MOL0     H19567   3.425   7.215   3.508 -0.7066  2.2845  2.3658
  886MOL0     H19568   3.642   7.255   3.609  0.9839  0.5982 -0.7770
  886MOL0     H19569   3.559   7.418   3.609  0.4809 -0.2727  0.6339
  886MOL0     H19570   3.890   7.473   3.362 -1.6275 -1.5741  0.2687
  886MOL0     H19571   4.106   7.575   3.466  1.9288  1.0089  3.0288
  886MOL0     H19572   4.424   7.820   3.639 -1.4657  0.0506  0.6015
  886MOL0     H19573   4.687   7.818   3.651  2.3830 -2.1822 -0.3954
  886MOL0     H19574   4.892   7.424   3.632  1.0414 -0.8522  0.3153
  886MOL0     H19575   4.872   7.515   3.489 -0.7064  0.9112  0.3762
  886MOL0     H19576   5.089   7.536   3.708  1.0480  0.3910 -0.5122
  886MOL0     H19577   5.109   7.459   3.554  1.0674  1.1420  0.6519
  886MOL0     H19578   5.037   7.706   3.463  0.5416 -0.7941 -1.0350
  886MOL0     H19579   5.095   7.759   3.622 -1.3691 -0.3395 -1.1578
  886MOL0     H19580   5.285   7.596   3.458  0.9917  0.7131 -1.7392
  886MOL0     H19581   5.306   7.690   3.600  0.2879 -1.1064 -0.6426
  886MOL0     H19582   5.249   7.900   3.428 -0.3751 -1.2738  0.1577
  886MOL0     H19583   5.271   7.762   3.322 -1.5529  0.3684  0.2252
  886MOL0     H19584   5.496   7.722   3.423  4.1676  1.5836  3.1679
  886MOL0     H19585   5.480   7.866   3.321  2.1468 -0.7095  0.4246
  886MOL0     H19586   5.456   7.882   3.623  2.6055 -0.8894  0.5197
  886MOL0     H19587   5.458   8.014   3.514  0.3374  0.3833  1.1880
  886MOL0     H19588   5.677   7.818   3.596 -1.2057 -0.5954  0.4434
  886MOL0     H19589   5.691   7.911   3.440  2.0189  1.2674  0.9271
  886MOL0     H19590   4.675   7.400   3.682 -1.9274 -0.8860  0.6048
  886MOL0     H19591   4.427   7.402   3.665  0.9378  0.5407  0.7548
  886MOL0     H19592   3.959   7.496   3.854  2.0825 -4.0634 -0.7869
  886MOL0     H19593   3.749   7.392   3.750  2.2979  0.0848  3.1380
  886MOL0     H19594   2.180   7.454   3.459  1.0631  1.1512  2.0501
  886MOL0     H19595   1.953   7.396   3.527 -1.2995 -1.6256 -4.2174
  886MOL0     H19596   1.725   6.968   3.507 -1.3039  0.1776 -1.2261
  886MOL0     H19597   1.523   6.817   3.523 -1.2440 -1.1194  1.2438
  886MOL0     H19598   1.256   6.764   3.795  1.3669 -1.3532 -0.4033
  886MOL0     H19599   1.381   6.728   3.672  1.6579  3.0611 -1.3884
  886MOL0     H19600   1.241   6.578   3.586 -0.7528 -0.8409 -0.6025
  886MOL0     H19601   1.199   6.722   3.492  0.4456 -1.2583  0.3306
  886MOL0     H19602   0.999   6.769   3.646 -0.8324  0.1314 -4.0014
  886MOL0     H19603   1.022   6.609   3.725 -2.8375 -1.2171 -1.3473
  886MOL0     H19604   0.848   6.603   3.581 -1.1251  3.3908 -1.5092
  886MOL0     H19605   0.932   6.662   3.452 -3.9033 -0.6600  0.8311
  886MOL0     H19606   1.029   6.252   3.421  0.8342 -0.3433  0.3391
  886MOL0     H19607   1.326   7.123   3.753  1.1793  1.9018  0.5948
  886MOL0     H19608   1.416   7.336   3.763  1.1012  0.4796 -0.0888
  886MOL0     H19609   1.577   7.311   3.824  1.9196  2.1468 -1.2927
  886MOL0     H19610   1.558   7.387   3.668 -0.2895  0.0883 -0.5189
  887MOL0     O19611   0.310   8.927   1.099 -0.6744 -0.6972 -0.3386
  887MOL0     C19612   0.332   9.046   1.065  1.0001  0.5795 -0.3869
  887MOL0     O19613   0.419   9.135   1.128  0.3687 -0.2110 -0.0748
  887MOL0     C19614   0.482   9.108   1.245 -0.3451  0.2598 -0.5603
  887MOL0     C19615   0.598   9.184   1.271 -0.4397  0.6241  0.5724
  887MOL0     C19616   0.683   9.149   1.377 -0.8867 -0.6165  0.2840
  887MOL0     C19617   0.649   9.057   1.473  0.1574 -0.3512 -0.6119
  887MOL0     O19618   0.735   9.052   1.585  0.3475 -1.0203 -0.1481
  887MOL0     C19619   0.693   8.948   1.678  0.0245 -0.1128  0.9757
  887MOL0     C19620   0.784   8.949   1.800 -0.2115  0.0117 -0.0699
  887MOL0     C19621   0.933   8.887   1.776 -0.0087 -0.4783 -0.4753
  887MOL0     C19622   1.030   8.927   1.887  0.0357  0.3852 -0.3442
  887MOL0     C19623   1.166   8.873   1.860  0.0898  0.4936 -0.4183
  887MOL0     C19624   1.271   8.907   1.961  0.1008  0.0481  0.2504
  887MOL0     C19625   1.408   8.861   1.924 -0.1996 -0.0917 -0.2452
  887MOL0     C19626   1.511   8.913   2.028 -0.0447 -0.4616 -0.1525
  887MOL0     N19627   1.646   8.899   1.973  0.1399 -0.1106  0.3588
  887MOL0     C19628   1.737   8.797   1.991  0.3887 -0.0689 -0.2310
  887MOL0     C19629   1.844   8.823   1.905  0.6924 -1.2208 -0.3199
  887MOL0     C19630   1.969   8.733   1.894  0.4001  0.0450  0.3554
  887MOL0     C19631   2.088   8.801   1.841  0.9461  0.4920 -0.3370
  887MOL0     C19632   2.102   8.805   1.692 -0.7938  0.2400  0.2290
  887MOL0     C19633   2.238   8.852   1.653 -1.1038  0.1404 -1.0023
  887MOL0     O19634   2.270   8.815   1.527 -0.9561  0.2511  0.5855
  887MOL0     C19635   2.381   8.871   1.474 -0.5153 -0.5763 -0.2010
  887MOL0     C19636   2.379   8.956   1.359 -0.8394 -0.5156 -1.0623
  887MOL0     C19637   2.498   9.023   1.328  0.5744 -0.2237 -0.3021
  887MOL0     C19638   2.624   8.994   1.388 -0.1689  0.9494 -0.1955
  887MOL0     C19639   2.759   9.049   1.349  0.7973  0.1298  0.0417
  887MOL0     O19640   2.863   9.008   1.424 -0.1347  0.2037 -0.5600
  887MOL0     C19641   2.987   9.045   1.404 -0.4882 -0.3440 -0.1504
  887MOL0     C19642   3.019   9.181   1.388  0.1332 -0.3786 -0.2787
  887MOL0     C19643   3.150   9.232   1.385  1.3642  0.3532  0.0813
  887MOL0     C19644   3.253   9.144   1.418  0.3805 -0.0207  0.2199
  887MOL0     O19645   3.383   9.189   1.418 -0.0999 -0.1011  0.2110
  887MOL0     C19646   3.484   9.095   1.382  0.5006  0.1782 -0.3042
  887MOL0     C19647   3.612   9.176   1.338 -0.0538  0.4271 -1.0052
  887MOL0     C19648   3.676   9.251   1.449  0.1194  0.1145 -0.1762
  887MOL0     C19649   3.796   9.334   1.411  0.3904  0.4069 -0.2826
  887MOL0     C19650   3.856   9.423   1.520  1.0555 -0.2079 -0.6419
  887MOL0     C19651   4.003   9.459   1.497  0.2819  0.0843 -0.0879
  887MOL0     C19652   4.065   9.521   1.622  0.9351 -0.1528 -0.3591
  887MOL0     C19653   4.026   9.664   1.648  0.1449 -0.2760 -0.3945
  887MOL0    Cl19654   4.078   9.708   1.807  0.1015 -0.2301  0.1444
  887MOL0     C19655   3.216   9.005   1.447 -1.1157 -0.3861 -0.5703
  887MOL0     C19656   3.087   8.955   1.435  0.4985  0.5559  0.0829
  887MOL0     O19657   2.761   9.127   1.255  0.1124 -0.2146 -0.5695
  887MOL0     C19658   2.621   8.904   1.497  0.0509  0.5388  0.9461
  887MOL0     C19659   2.503   8.834   1.536  0.1065  0.4944 -0.9414
  887MOL0     N19660   1.819   8.944   1.837  0.1731  0.5955 -0.5798
  887MOL0     N19661   1.699   8.983   1.878  0.0207  0.3730 -0.0946
  887MOL0     C19662   0.520   9.004   1.460 -0.1192  0.9206  0.2413
  887MOL0     C19663   0.444   9.015   1.345 -0.3962  0.5879 -0.4444
  887MOL0     C19664   0.247   9.102   0.954  0.1397 -0.0296  0.2986
  887MOL0     C19665   0.244   9.243   0.940  0.0544 -0.6155  0.3532
  887MOL0     C19666   0.152   9.301   0.844  1.0070 -0.3434 -0.2107
  887MOL0     C19667   0.083   9.221   0.759  0.3790  0.2381 -0.7729
  887MOL0     O19668  -0.016   9.262   0.671  0.2322 -0.7052  1.0874
  887MOL0     C19669  -0.009   9.385   0.601 -0.6029 -0.2151 -0.9490
  887MOL0     C19670  -0.070   9.501   0.685 -0.1671 -0.0670  0.1485
  887MOL0     C19671  -0.214   9.485   0.723 -0.4215 -0.0282 -0.5309
  887MOL0     C19672  -0.293   9.470   0.593 -0.5892  0.6629  0.5233
  887MOL0     C19673  -0.437   9.474   0.590  0.4982  0.3147 -0.6151
  887MOL0     C19674  -0.556   9.443   0.590 -0.9274 -0.8515  0.7945
  887MOL0     C19675   0.091   9.082   0.772  1.1782 -0.5422  0.3796
  887MOL0     C19676   0.173   9.023   0.859 -0.8959 -0.4633 -0.3267
  887MOL0     C19677   0.166   8.869   0.870 -0.5083 -0.3582  0.9104
  887MOL0     H19678   0.622   9.267   1.206 -0.0952 -0.1744 -0.3448
  887MOL0     H19679   0.773   9.209   1.372 -0.4543 -1.2926 -0.2206
  887MOL0     H19680   0.589   8.962   1.709 -0.9691 -1.1202 -1.6232
  887MOL0     H19681   0.695   8.850   1.629  0.0798  1.6856 -2.9843
  887MOL0     H19682   0.734   8.899   1.884 -2.4933  2.9304  0.4998
  887MOL0     H19683   0.796   9.052   1.837  1.5877  0.1936 -1.0592
  887MOL0     H19684   0.974   8.926   1.682  2.5040 -0.3975  0.5766
  887MOL0     H19685   0.919   8.779   1.773 -0.1435 -0.5258  1.0669
  887MOL0     H19686   1.035   9.035   1.907 -0.1643 -0.0317  2.1788
  887MOL0     H19687   0.984   8.883   1.975 -0.3454  1.3446 -0.0430
  887MOL0     H19688   1.145   8.766   1.866 -1.6861  0.8958  1.7529
  887MOL0     H19689   1.211   8.909   1.767  1.2302  0.6695  0.1775
  887MOL0     H19690   1.274   9.016   1.971 -1.2416  0.6273 -3.9095
  887MOL0     H19691   1.251   8.863   2.059  1.0248  1.7446  1.2477
  887MOL0     H19692   1.435   8.910   1.830  1.2388  1.4974  0.9335
  887MOL0     H19693   1.417   8.755   1.900  4.0706  0.2459 -0.8621
  887MOL0     H19694   1.498   9.018   2.054  1.6258 -0.0011 -1.0153
  887MOL0     H19695   1.505   8.852   2.119 -3.2706  1.6750  1.2516
  887MOL0     H19696   1.737   8.710   2.056  2.0056  1.4446  1.9532
  887MOL0     H19697   1.984   8.706   1.999  0.7915  1.0166  0.5642
  887MOL0     H19698   1.947   8.643   1.837 -0.1236 -0.6431  1.6103
  887MOL0     H19699   2.100   8.898   1.891  2.3015 -0.8195  2.0451
  887MOL0     H19700   2.176   8.745   1.872  0.9896  0.4367 -0.5646
  887MOL0     H19701   2.022   8.866   1.648 -1.8255 -2.1640 -1.4936
  887MOL0     H19702   2.107   8.706   1.647  1.6148 -0.2125  1.3780
  887MOL0     H19703   2.316   8.811   1.719 -0.0677  4.0396  0.4988
  887MOL0     H19704   2.246   8.959   1.674 -0.2953 -0.2456  0.9274
  887MOL0     H19705   2.289   8.974   1.301  0.7060  0.8754 -3.1634
  887MOL0     H19706   2.497   9.086   1.240  1.7180 -0.6873 -0.6643
  887MOL0     H19707   2.938   9.253   1.377 -0.7996 -1.3336  0.2096
  887MOL0     H19708   3.168   9.338   1.369 -0.3146  0.6627  0.0511
  887MOL0     H19709   3.508   9.031   1.467  1.4281  0.1411 -0.5828
  887MOL0     H19710   3.451   9.034   1.297 -1.5141 -0.2695  0.7468
  887MOL0     H19711   3.686   9.106   1.299  0.3758 -0.2914  0.9715
  887MOL0     H19712   3.586   9.241   1.254  1.2221 -0.3345 -2.0192
  887MOL0     H19713   3.601   9.313   1.500  0.8640  0.0675  1.0120
  887MOL0     H19714   3.696   9.174   1.524  1.5420  0.6337  0.0039
  887MOL0     H19715   3.759   9.398   1.330 -0.9398  0.9831  0.7377
  887MOL0     H19716   3.871   9.263   1.374 -2.0421 -3.0965  0.9963
  887MOL0     H19717   3.838   9.380   1.619  1.8092  2.0493  0.5369
  887MOL0     H19718   3.802   9.518   1.514  1.4619  0.0651 -0.0341
  887MOL0     H19719   4.052   9.365   1.472  1.1162 -0.1288  2.0835
  887MOL0     H19720   4.009   9.528   1.413 -0.0340 -1.6128 -1.5529
  887MOL0     H19721   4.172   9.505   1.641  0.5557 -1.1232  1.0825
  887MOL0     H19722   4.015   9.481   1.710  0.2497 -0.7760 -1.0202
  887MOL0     H19723   4.066   9.734   1.574 -1.7247 -1.6028 -2.8135
  887MOL0     H19724   3.919   9.672   1.624  0.3912  1.0666 -1.1836
  887MOL0     H19725   3.289   8.930   1.478 -1.4997 -0.1516  0.9970
  887MOL0     H19726   3.061   8.850   1.445 -1.4826  1.1488  2.1050
  887MOL0     H19727   2.714   8.889   1.551  0.1597  1.4320  1.0270
  887MOL0     H19728   2.508   8.760   1.615 -0.3548  1.3725 -0.0721
  887MOL0     H19729   0.475   8.933   1.528 -2.2501  2.0291  0.1003
  887MOL0     H19730   0.353   8.956   1.331 -0.2857 -0.0171  1.1666
  887MOL0     H19731   0.299   9.317   0.996  0.7690 -0.4070 -0.5887
  887MOL0     H19732   0.136   9.407   0.834 -1.5545 -0.4218  1.8658
  887MOL0     H19733  -0.049   9.393   0.499 -0.2015  3.5973 -0.9459
  887MOL0     H19734   0.097   9.412   0.593 -0.3636 -1.1032 -0.8631
  887MOL0     H19735  -0.053   9.590   0.624 -1.4889  0.5558  0.6663
  887MOL0     H19736  -0.009   9.518   0.774  2.1340 -1.7165 -0.9842
  887MOL0     H19737  -0.248   9.578   0.769 -1.4006 -1.5629  2.1138
  887MOL0     H19738  -0.232   9.391   0.777 -1.1461  1.2845  1.6735
  887MOL0     H19739  -0.257   9.548   0.525 -0.6892  1.5714  1.4817
  887MOL0     H19740  -0.270   9.371   0.553 -1.5036  0.4481  0.5101
  887MOL0     H19741  -0.657   9.407   0.597 -0.6461 -1.7230  0.4539
  887MOL0     H19742   0.021   9.033   0.704 -0.7437  0.6589  1.4123
  887MOL0     H19743   0.138   8.837   0.971 -1.9031 -0.7637  0.4231
  887MOL0     H19744   0.096   8.823   0.800  2.2666 -0.2590 -2.2117
  887MOL0     H19745   0.261   8.831   0.832 -0.6661  0.2630 -0.1344
  888MOL0     O19746   2.561  10.069   8.186 -0.8014  0.2795 -0.2284
  888MOL0     C19747   2.507  10.071   8.076 -1.0423 -0.2961 -0.7861
  888MOL0     O19748   2.570  10.102   7.957 -0.2215  0.0767  0.3984
  888MOL0     C19749   2.690  10.169   7.955 -0.5606  0.0076 -0.0589
  888MOL0     C19750   2.790  10.114   7.863  1.0741  0.2882  0.0932
  888MOL0     C19751   2.912  10.172   7.851  0.1166 -0.0095  0.2603
  888MOL0     C19752   2.952  10.279   7.931  0.7729 -0.0460 -0.4186
  888MOL0     O19753   3.077  10.334   7.933 -0.1199  0.6828 -0.0252
  888MOL0     C19754   3.171  10.293   7.827 -0.2234 -0.6808  0.7941
  888MOL0     C19755   3.302  10.375   7.850 -0.5335 -0.7195  0.6417
  888MOL0     C19756   3.418  10.370   7.745 -0.1086  0.6531  0.0791
  888MOL0     C19757   3.542  10.456   7.789 -0.2982  0.3142  0.0032
  888MOL0     C19758   3.657  10.446   7.677  0.0626 -0.3592 -0.9765
  888MOL0     C19759   3.765  10.338   7.710 -0.2530 -0.2182  0.9286
  888MOL0     C19760   3.912  10.378   7.692 -0.3999 -0.7381  0.1552
  888MOL0     C19761   3.950  10.432   7.550 -0.0596  0.3394 -0.0593
  888MOL0     N19762   4.097  10.427   7.534  0.3159 -0.0171 -0.5139
  888MOL0     C19763   4.161  10.331   7.479  0.6206  1.4913  0.4514
  888MOL0     C19764   4.293  10.337   7.512  0.3808  0.6222  0.2510
  888MOL0     C19765   4.395  10.232   7.467 -0.1549  0.1853  0.6499
  888MOL0     C19766   4.391  10.198   7.322 -1.0795 -0.0388  0.0039
  888MOL0     C19767   4.440  10.328   7.241  0.1003  0.3825  0.3392
  888MOL0     C19768   4.453  10.322   7.089 -0.2511 -0.2987  0.4407
  888MOL0     O19769   4.552  10.227   7.060  0.0178 -0.8834 -0.1386
  888MOL0     C19770   4.670  10.258   7.002  0.2097 -0.1754 -0.8858
  888MOL0     C19771   4.717  10.165   6.912  0.4686  0.2054 -0.7079
  888MOL0     C19772   4.840  10.173   6.850 -0.2729  0.3775 -0.4307
  888MOL0     C19773   4.915  10.281   6.885 -0.5834  0.1281  0.1050
  888MOL0     C19774   5.043  10.309   6.812 -0.6533 -0.7465 -0.3620
  888MOL0     O19775   5.065  10.225   6.704  0.1682  0.0138  1.0736
  888MOL0     C19776   5.189  10.244   6.643 -0.0647 -0.1814 -0.4382
  888MOL0     C19777   5.294  10.178   6.700  0.1532 -0.7004 -0.3776
  888MOL0     C19778   5.408  10.161   6.638 -0.5161 -0.4663  1.0317
  888MOL0     C19779   5.424  10.237   6.514  0.7385  0.1168  0.9115
  888MOL0     O19780   5.529  10.221   6.428  0.6632  0.0439  0.0127
  888MOL0     C19781   5.637  10.128   6.459  0.4825 -0.0227  0.8862
  888MOL0     C19782   5.725  10.097   6.341  0.5354 -0.1587 -0.0192
  888MOL0     C19783   5.771  10.213   6.253 -0.0947  0.0539  0.1568
  888MOL0     C19784   5.854  10.308   6.334  0.1884 -0.5182  0.6764
  888MOL0     C19785   5.885  10.418   6.233  0.1560  0.1683  0.3706
  888MOL0     C19786   5.768  10.509   6.182 -0.4240  0.9298  0.5322
  888MOL0     C19787   5.837  10.627   6.114  0.3940  0.3290  0.0442
  888MOL0     C19788   5.734  10.717   6.045  0.8509  0.2286  0.0476
  888MOL0    Cl19789   5.620  10.804   6.153 -0.0342  0.1111 -0.1122
  888MOL0     C19790   5.323  10.323   6.474 -0.5677 -0.0682  1.0327
  888MOL0     C19791   5.194  10.324   6.528  0.3341  0.4232 -0.3947
  888MOL0     O19792   5.113  10.414   6.839  0.2807  0.2437 -0.6374
  888MOL0     C19793   4.869  10.376   6.978  0.2075  0.5437  0.1520
  888MOL0     C19794   4.740  10.372   7.027 -0.1556  0.7920  0.4991
  888MOL0     N19795   4.303  10.460   7.584  0.4452  0.3479  0.0042
  888MOL0     N19796   4.181  10.512   7.593 -0.2524  0.8624  0.4638
  888MOL0     C19797   2.851  10.334   8.010  1.0191  0.1317 -0.5767
  888MOL0     C19798   2.719  10.281   8.035 -0.0451  0.0706  0.2400
  888MOL0     C19799   2.365  10.021   8.070 -0.8437 -0.3036 -0.8042
  888MOL0     C19800   2.289  10.036   8.187  0.1464 -0.3302 -0.1573
  888MOL0     C19801   2.162   9.984   8.190  0.1677 -0.0468 -0.2961
  888MOL0     C19802   2.094   9.935   8.078 -0.0376 -0.5365  0.1662
  888MOL0     O19803   1.965   9.880   8.079  0.8351  0.0649  0.5935
  888MOL0     C19804   1.898   9.865   8.204  0.0738  0.3170  0.2845
  888MOL0     C19805   1.792   9.752   8.204 -0.2395  0.3474 -0.0789
  888MOL0     C19806   1.682   9.769   8.105 -0.9698 -0.1983 -0.3554
  888MOL0     C19807   1.614   9.636   8.062 -0.4280  0.1018 -0.3675
  888MOL0     C19808   1.562   9.541   8.169 -0.2042  0.2761  0.6482
  888MOL0     C19809   1.531   9.457   8.253  0.2042  0.2706  0.3287
  888MOL0     C19810   2.165   9.941   7.956  0.8495 -0.6645  0.0361
  888MOL0     C19811   2.299   9.973   7.951 -0.6050  1.0991 -0.3038
  888MOL0     C19812   2.371   9.934   7.822 -0.2331  0.1975 -0.8742
  888MOL0     H19813   2.764  10.019   7.818  1.4418  1.3574 -2.5401
  888MOL0     H19814   2.978  10.123   7.780 -2.2040 -0.6244 -1.5665
  888MOL0     H19815   3.209  10.191   7.829 -2.0401 -1.4784 -1.1253
  888MOL0     H19816   3.130  10.298   7.726  0.4727 -0.1492  0.5318
  888MOL0     H19817   3.328  10.338   7.950 -0.8583 -0.0180  0.9981
  888MOL0     H19818   3.278  10.482   7.861 -1.7140 -0.9601  0.5127
  888MOL0     H19819   3.383  10.417   7.653  1.5534  1.3155 -0.2480
  888MOL0     H19820   3.452  10.268   7.723  0.3885  0.4035  1.8144
  888MOL0     H19821   3.502  10.558   7.790  2.5351  1.5050  0.0673
  888MOL0     H19822   3.567  10.424   7.890 -2.6946  0.1643  0.6087
  888MOL0     H19823   3.607  10.417   7.584 -0.9763 -1.4779 -0.1098
  888MOL0     H19824   3.709  10.541   7.665 -1.1937  0.6712  1.2977
  888MOL0     H19825   3.744  10.299   7.810 -1.7426 -0.0560  0.7014
  888MOL0     H19826   3.752  10.251   7.645  0.7857 -0.1502  0.6181
  888MOL0     H19827   3.969  10.290   7.721 -2.0319 -1.2737  1.9434
  888MOL0     H19828   3.936  10.459   7.761  2.1578 -0.5116 -0.8916
  888MOL0     H19829   3.905  10.380   7.465  1.4794  0.0412 -0.7298
  888MOL0     H19830   3.912  10.534   7.539 -3.0133 -0.6532  0.1698
  888MOL0     H19831   4.122  10.241   7.432  3.5671 -1.0221  2.4642
  888MOL0     H19832   4.498  10.265   7.485  0.4174  0.5054 -2.5061
  888MOL0     H19833   4.370  10.141   7.522 -0.0921 -1.7175 -2.2553
  888MOL0     H19834   4.471  10.124   7.310  2.0444  2.7342  1.9273
  888MOL0     H19835   4.293  10.163   7.291  0.1216 -1.5125 -2.4151
  888MOL0     H19836   4.530  10.376   7.280 -0.8103  0.2177  2.8263
  888MOL0     H19837   4.355  10.397   7.252 -0.4559 -0.2095 -0.1450
  888MOL0     H19838   4.483  10.420   7.050 -0.4252 -0.9945 -1.5149
  888MOL0     H19839   4.356  10.289   7.050 -0.1288  0.6102 -0.6904
  888MOL0     H19840   4.667  10.071   6.889  1.6448 -0.3949 -0.8856
  888MOL0     H19841   4.878  10.104   6.775 -3.2263 -0.3973 -1.3474
  888MOL0     H19842   5.288  10.132   6.798 -0.7739 -1.9753 -1.0176
  888MOL0     H19843   5.489  10.096   6.669 -1.0516 -0.0820  3.5060
  888MOL0     H19844   5.698  10.181   6.532  0.2224  0.9154  0.4401
  888MOL0     H19845   5.596  10.037   6.505  2.5271 -0.5527  1.7889
  888MOL0     H19846   5.812  10.046   6.383  0.9882  0.1685 -0.5515
  888MOL0     H19847   5.669  10.020   6.287 -4.1052  2.1835  0.9916
  888MOL0     H19848   5.829  10.175   6.169 -0.4727 -0.6099  0.1916
  888MOL0     H19849   5.684  10.261   6.207  0.5436 -2.1993 -3.8172
  888MOL0     H19850   5.942  10.256   6.373  4.0356  2.1463 -3.5724
  888MOL0     H19851   5.800  10.341   6.424  2.4411 -0.2866  2.0002
  888MOL0     H19852   5.958  10.389   6.157 -1.1803  1.7362 -1.6475
  888MOL0     H19853   5.942  10.481   6.301 -1.9447  1.8174  0.7289
  888MOL0     H19854   5.694  10.466   6.114 -0.8561  1.9184  0.3452
  888MOL0     H19855   5.720  10.538   6.276 -0.9118 -1.1381  0.9601
  888MOL0     H19856   5.914  10.587   6.047  1.4801  1.2534  0.7033
  888MOL0     H19857   5.881  10.688   6.193  1.9255 -2.7620  1.7904
  888MOL0     H19858   5.786  10.781   5.973 -1.2148 -0.0493 -1.7920
  888MOL0     H19859   5.667  10.658   5.982 -0.4119  1.0294  0.5927
  888MOL0     H19860   5.331  10.370   6.376 -2.9751 -1.1252  0.2441
  888MOL0     H19861   5.107  10.377   6.492 -1.6696 -0.3633  2.8175
  888MOL0     H19862   4.941  10.452   7.008  1.2208 -0.2252 -0.2566
  888MOL0     H19863   4.700  10.462   7.071  0.9334  1.7841 -0.4383
  888MOL0     H19864   2.871  10.418   8.075 -4.3871 -0.0483  1.8236
  888MOL0     H19865   2.642  10.325   8.097  1.1009  2.3123  0.1810
  888MOL0     H19866   2.328  10.082   8.278 -0.6371 -1.6286  0.8689
  888MOL0     H19867   2.120   9.992   8.290  0.7320  1.9974 -0.1882
  888MOL0     H19868   1.854   9.962   8.227 -1.7013 -0.0175 -1.4654
  888MOL0     H19869   1.978   9.844   8.277 -1.2519  3.0297  2.6990
  888MOL0     H19870   1.741   9.754   8.301 -2.6155  2.5144 -1.2761
  888MOL0     H19871   1.846   9.658   8.191  0.0326  0.5746 -0.6252
  888MOL0     H19872   1.720   9.822   8.018 -1.5337  1.6921  0.4946
  888MOL0     H19873   1.621   9.849   8.150 -0.0476  0.7445 -0.7482
  888MOL0     H19874   1.529   9.655   7.996 -1.9327  4.0017  2.3675
  888MOL0     H19875   1.696   9.584   8.010 -0.5271  0.4606 -0.8872
  888MOL0     H19876   1.511   9.388   8.333  1.2264 -1.9315 -1.2242
  888MOL0     H19877   2.124   9.905   7.863  2.4243  1.2407 -1.4751
  888MOL0     H19878   2.444   9.852   7.825  0.2066  0.6144  0.2622
  888MOL0     H19879   2.291   9.903   7.754 -2.4621  0.4617  1.4999
  888MOL0     H19880   2.425  10.018   7.778  1.8961 -1.3904 -1.4812
  889MOL0     O19881   3.887   3.925   8.881 -0.8998  0.1734  0.4440
  889MOL0     C19882   3.825   3.986   8.795  0.0668  0.7158 -0.0570
  889MOL0     O19883   3.879   4.073   8.714  0.4687  0.6576  0.1238
  889MOL0     C19884   4.004   4.122   8.732 -0.2968 -0.5110 -0.0209
  889MOL0     C19885   4.071   4.168   8.611 -0.9031 -0.3951 -0.0778
  889MOL0     C19886   4.199   4.221   8.629 -0.7797  0.3807 -0.1255
  889MOL0     C19887   4.267   4.233   8.755  0.2407 -0.3950 -0.3461
  889MOL0     O19888   4.390   4.284   8.781 -0.3661 -0.0291 -0.2557
  889MOL0     C19889   4.472   4.283   8.668 -1.0982 -0.9216 -0.9032
  889MOL0     C19890   4.617   4.323   8.720  0.2144 -0.0364 -0.1715
  889MOL0     C19891   4.726   4.293   8.616 -0.6210 -0.3837  0.1542
  889MOL0     C19892   4.854   4.340   8.682  0.1932 -0.0656  0.2458
  889MOL0     C19893   4.969   4.263   8.614 -0.0566 -0.4046 -0.3592
  889MOL0     C19894   5.115   4.274   8.673  0.2664 -0.3283 -1.0781
  889MOL0     C19895   5.183   4.405   8.667 -0.2060 -0.5249  0.3719
  889MOL0     C19896   5.287   4.413   8.556 -0.1203  0.2601  0.1511
  889MOL0     N19897   5.329   4.545   8.517 -0.0115 -0.3716  0.2852
  889MOL0     C19898   5.447   4.604   8.549  0.3669 -0.3087 -0.1286
  889MOL0     C19899   5.450   4.728   8.485  0.4618 -0.6978 -0.3243
  889MOL0     C19900   5.556   4.828   8.512  0.0981 -0.1638 -0.5391
  889MOL0     C19901   5.669   4.810   8.407 -0.4990 -0.5156  0.2883
  889MOL0     C19902   5.734   4.670   8.414  0.3380 -0.3247  0.3564
  889MOL0     C19903   5.870   4.658   8.347 -0.3443 -0.0394  0.6978
  889MOL0     O19904   5.912   4.523   8.334 -0.5167  0.6063  0.0276
  889MOL0     C19905   6.042   4.499   8.308 -0.0622  0.1702  0.1320
  889MOL0     C19906   6.079   4.379   8.254  0.1027  0.7398  0.0110
  889MOL0     C19907   6.212   4.334   8.234  0.9911  0.4089  0.4012
  889MOL0     C19908   6.312   4.421   8.262 -0.1619 -0.6514  0.4584
  889MOL0     C19909   6.456   4.386   8.257 -0.2145  0.1704 -0.2858
  889MOL0     O19910   6.489   4.281   8.176 -0.3093  0.1024  0.5815
  889MOL0     C19911   6.626   4.257   8.165  1.1601  0.4912 -0.9180
  889MOL0     C19912   6.668   4.143   8.223 -1.0014 -0.4814 -0.3425
  889MOL0     C19913   6.807   4.110   8.214  0.3805  0.0972  0.9519
  889MOL0     C19914   6.897   4.188   8.150 -0.1753 -0.7037 -0.0268
  889MOL0     O19915   7.031   4.157   8.155 -0.3422  0.5211  0.2300
  889MOL0     C19916   7.110   4.176   8.033 -0.3219  0.5139 -0.5562
  889MOL0     C19917   7.191   4.052   7.990  0.1616  0.2106  0.2978
  889MOL0     C19918   7.253   3.988   8.105  0.0524 -0.1519  0.1725
  889MOL0     C19919   7.344   3.879   8.051 -0.9746  1.0902 -0.3753
  889MOL0     C19920   7.289   3.737   8.055  0.3990 -0.7082  0.3350
  889MOL0     C19921   7.358   3.642   7.960 -1.1435  0.1598  0.2403
  889MOL0     C19922   7.311   3.501   7.993  0.0672  0.4294 -0.0368
  889MOL0     C19923   7.333   3.399   7.880  0.5435 -0.5253 -0.0302
  889MOL0    Cl19924   7.508   3.364   7.897 -0.2565 -0.4462  0.6541
  889MOL0     C19925   6.848   4.303   8.088 -0.0441 -0.0244  0.0833
  889MOL0     C19926   6.715   4.341   8.101  0.0667  0.8790 -0.2274
  889MOL0     O19927   6.533   4.449   8.322 -0.3916  0.0245  0.0789
  889MOL0     C19928   6.283   4.544   8.318 -0.0125 -0.1518 -0.5557
  889MOL0     C19929   6.147   4.587   8.343 -0.0015  0.2961  0.0815
  889MOL0     N19930   5.328   4.743   8.422 -0.2257 -0.6915  0.7497
  889MOL0     N19931   5.257   4.633   8.448  0.3954  1.0326  0.4090
  889MOL0     C19932   4.185   4.205   8.865  0.7799  0.0532  0.3605
  889MOL0     C19933   4.059   4.154   8.856 -0.0749 -0.1487  0.4323
  889MOL0     C19934   3.685   3.946   8.774  0.3230 -0.4567  0.6828
  889MOL0     C19935   3.620   3.954   8.646 -0.2105 -0.1299  0.3696
  889MOL0     C19936   3.497   3.906   8.611  1.0770  1.0375  0.4368
  889MOL0     C19937   3.425   3.846   8.713 -0.6070  0.4370  0.2462
  889MOL0     O19938   3.304   3.787   8.705 -0.3225 -0.2322  0.0356
  889MOL0     C19939   3.287   3.678   8.620 -0.4989  0.4433  0.1768
  889MOL0     C19940   3.219   3.726   8.494  0.1696 -0.3098 -0.4055
  889MOL0     C19941   3.067   3.770   8.519 -0.3139 -0.2256 -0.2403
  889MOL0     C19942   3.065   3.912   8.579  0.0659 -0.0698 -0.8486
  889MOL0     C19943   2.925   3.948   8.568 -0.1956  0.2206 -0.3098
  889MOL0     C19944   2.808   3.999   8.569  0.0331  0.8515  0.1115
  889MOL0     C19945   3.467   3.849   8.844  0.3852 -0.5239 -0.7080
  889MOL0     C19946   3.593   3.893   8.876 -0.8175  0.3909 -0.2557
  889MOL0     C19947   3.638   3.879   9.021  0.4158  0.1103  0.0629
  889MOL0     H19948   4.030   4.179   8.511 -0.7252  3.5455  0.1308
  889MOL0     H19949   4.248   4.255   8.538  0.2040 -0.4059  0.0840
  889MOL0     H19950   4.482   4.183   8.624  0.0320 -2.8514  3.2757
  889MOL0     H19951   4.438   4.363   8.602  1.8071  3.5244  2.4576
  889MOL0     H19952   4.633   4.261   8.808  0.6823 -0.7368 -0.7471
  889MOL0     H19953   4.619   4.428   8.751  0.8921  0.0449 -0.4741
  889MOL0     H19954   4.715   4.350   8.523  2.2241  1.7125  0.9782
  889MOL0     H19955   4.744   4.188   8.590  2.8617  0.1982 -0.2261
  889MOL0     H19956   4.878   4.445   8.668 -0.2172 -0.0824 -0.6614
  889MOL0     H19957   4.851   4.313   8.788  1.2057 -0.8056  0.1044
  889MOL0     H19958   4.959   4.154   8.622 -0.8031 -0.2417  1.4754
  889MOL0     H19959   4.964   4.290   8.509  2.2892 -0.9809 -0.6864
  889MOL0     H19960   5.106   4.252   8.780  0.3809  1.7690 -0.5894
  889MOL0     H19961   5.185   4.206   8.624  0.0600 -0.2087 -1.5401
  889MOL0     H19962   5.231   4.431   8.762  1.6604 -1.5795 -0.2397
  889MOL0     H19963   5.110   4.484   8.650  0.3452  0.3318  1.8322
  889MOL0     H19964   5.377   4.371   8.602  1.0144  2.4934  0.1217
  889MOL0     H19965   5.254   4.363   8.465  0.7431  1.6507 -0.9791
  889MOL0     H19966   5.525   4.561   8.611 -0.4485  0.3390  1.3968
  889MOL0     H19967   5.519   4.931   8.523 -0.5941 -0.3542 -1.0945
  889MOL0     H19968   5.600   4.807   8.611 -0.6554  2.2371  0.3808
  889MOL0     H19969   5.630   4.839   8.309  1.7606  1.9935  0.0190
  889MOL0     H19970   5.752   4.879   8.423 -0.0984 -0.6382 -1.1555
  889MOL0     H19971   5.676   4.591   8.364  2.2824 -2.6603  1.5366
  889MOL0     H19972   5.752   4.637   8.517  2.7901  0.9992  0.4302
  889MOL0     H19973   5.927   4.704   8.428 -2.7028  0.6878  2.0349
  889MOL0     H19974   5.885   4.708   8.251  1.4282 -3.2249 -0.8376
  889MOL0     H19975   6.000   4.309   8.229  1.6411 -0.5676 -1.4299
  889MOL0     H19976   6.216   4.233   8.193 -2.1519  0.5091 -0.3711
  889MOL0     H19977   6.601   4.076   8.276  0.2505  0.1450  2.1458
  889MOL0     H19978   6.846   4.026   8.272  3.3312  1.8394  1.6882
  889MOL0     H19979   7.047   4.215   7.953 -0.5137  1.7719  0.1878
  889MOL0     H19980   7.187   4.251   8.048  0.6016 -0.4154 -0.5190
  889MOL0     H19981   7.120   3.980   7.950  1.6936 -1.6348  0.7822
  889MOL0     H19982   7.258   4.068   7.906 -0.1818 -3.4896 -0.8262
  889MOL0     H19983   7.318   4.058   8.160  2.1473 -1.4103 -0.5747
  889MOL0     H19984   7.181   3.949   8.177  2.0663 -0.1014  2.3647
  889MOL0     H19985   7.432   3.878   8.116  2.1984 -0.1305 -4.2920
  889MOL0     H19986   7.390   3.898   7.954  1.5416  2.9186  1.0561
  889MOL0     H19987   7.186   3.737   8.016  1.0571 -0.6965 -1.5036
  889MOL0     H19988   7.288   3.704   8.159 -2.0545 -0.5624  0.4134
  889MOL0     H19989   7.339   3.672   7.857 -1.2080  1.7880  0.6958
  889MOL0     H19990   7.465   3.657   7.976 -1.2423  1.5149 -0.2620
  889MOL0     H19991   7.201   3.500   7.993  0.0533 -1.1696 -0.1449
  889MOL0     H19992   7.339   3.460   8.090  0.9703 -0.7493 -0.7743
  889MOL0     H19993   7.270   3.312   7.903  1.2622 -0.8712  0.6986
  889MOL0     H19994   7.313   3.426   7.776  0.0109 -4.6098 -1.1477
  889MOL0     H19995   6.919   4.374   8.047 -1.0246  1.3986  0.7600
  889MOL0     H19996   6.678   4.436   8.062  3.6888  3.1676  1.4388
  889MOL0     H19997   6.361   4.612   8.351 -0.5457  2.1449 -3.5847
  889MOL0     H19998   6.141   4.675   8.406  0.2168 -2.1808  3.8700
  889MOL0     H19999   4.212   4.231   8.967  0.2709  1.2119  0.2055
  889MOL0     H20000   3.996   4.150   8.944 -1.5173 -0.1118 -0.5696
  889MOL0     H20001   3.685   3.988   8.565  1.0350 -3.0043  0.0522
  889MOL0     H20002   3.465   3.904   8.508 -0.7220 -1.7938  0.9226
  889MOL0     H20003   3.232   3.589   8.653 -0.3706 -0.7607 -2.6323
  889MOL0     H20004   3.385   3.634   8.598  0.9731  2.2155  2.6852
  889MOL0     H20005   3.220   3.649   8.416  1.2859 -1.1788  0.4202
  889MOL0     H20006   3.280   3.803   8.446  2.7336 -2.4437 -0.8039
  889MOL0     H20007   3.007   3.693   8.568  0.2699 -0.4265  0.1765
  889MOL0     H20008   3.033   3.773   8.415  0.2721  0.5112 -0.4202
  889MOL0     H20009   3.095   3.925   8.683  0.8604  2.1209 -1.3026
  889MOL0     H20010   3.133   3.982   8.529 -2.0024  2.4825 -0.3315
  889MOL0     H20011   2.712   4.042   8.554 -0.5506 -0.2587  0.5705
  889MOL0     H20012   3.409   3.806   8.925 -2.8544  0.3053 -2.4020
  889MOL0     H20013   3.707   3.794   9.022 -2.4501 -2.4098 -1.1529
  889MOL0     H20014   3.694   3.968   9.051  1.0609  0.5730 -2.3295
  889MOL0     H20015   3.558   3.848   9.089  2.8204 -2.7945  1.7943
  890MOL0     O20016   9.086   7.697   4.060 -0.0237  0.0781  0.3476
  890MOL0     C20017   9.023   7.639   3.968 -0.0623 -0.7957 -0.7219
  890MOL0     O20018   9.080   7.564   3.879 -0.0334  0.0258 -0.3078
  890MOL0     C20019   9.214   7.575   3.854  0.2583  0.4541  0.2888
  890MOL0     C20020   9.287   7.462   3.834  0.7858 -0.1437  0.5294
  890MOL0     C20021   9.432   7.471   3.815 -0.2972  0.5009  0.5848
  890MOL0     C20022   9.497   7.596   3.810  0.2237 -0.2197 -0.0031
  890MOL0     O20023   9.627   7.625   3.787 -0.0510  0.0379 -0.8835
  890MOL0     C20024   9.715   7.514   3.763 -0.2937  0.6579  0.1089
  890MOL0     C20025   9.761   7.469   3.906 -0.2292 -0.5479 -0.0786
  890MOL0     C20026   9.826   7.579   3.982 -0.0680 -0.5253  0.0052
  890MOL0     C20027   9.940   7.650   3.909 -0.0479  0.0983 -0.5095
  890MOL0     C20028  10.025   7.726   4.008  0.6395  0.0086  0.1050
  890MOL0     C20029   9.969   7.864   4.029  0.6543  0.3439  0.2831
  890MOL0     C20030  10.040   7.941   4.131  0.1454 -0.5946  0.2484
  890MOL0     C20031  10.084   8.070   4.075 -0.6280  0.0252  0.3196
  890MOL0     N20032  10.134   8.160   4.180 -0.2057 -0.1481 -0.7188
  890MOL0     C20033  10.241   8.130   4.258  0.2551 -0.1429  0.3667
  890MOL0     C20034  10.236   8.218   4.360 -0.6986 -0.1057 -0.4692
  890MOL0     C20035  10.334   8.226   4.466  0.0878 -0.4904  0.0064
  890MOL0     C20036  10.434   8.334   4.444  0.0827  0.2117  0.8469
  890MOL0     C20037  10.556   8.317   4.526 -0.3023 -0.2469  0.2047
  890MOL0     C20038  10.655   8.435   4.507 -0.6369  0.0441 -0.5715
  890MOL0     O20039  10.787   8.377   4.534 -0.1365  0.4839  0.3894
  890MOL0     C20040  10.891   8.465   4.526  0.7002 -0.7950  0.3302
  890MOL0     C20041  11.014   8.432   4.587  0.2721  0.4634  0.3615
  890MOL0     C20042  11.130   8.514   4.584 -0.3661 -0.4761  1.0590
  890MOL0     C20043  11.126   8.630   4.505 -0.4404  0.2585  0.0631
  890MOL0     C20044  11.250   8.715   4.496  0.2191 -0.1148  0.8830
  890MOL0     O20045  11.233   8.848   4.483 -0.1438 -0.1026 -0.2999
  890MOL0     C20046  11.339   8.937   4.492  0.1946  0.2714 -0.8587
  890MOL0     C20047  11.452   8.909   4.576  0.9563 -0.1139 -0.1207
  890MOL0     C20048  11.548   9.006   4.589  0.2661 -0.1647 -0.4810
  890MOL0     C20049  11.541   9.130   4.533 -0.1199  0.0680  0.6914
  890MOL0     O20050  11.658   9.205   4.530  0.8319 -0.0109 -0.6236
  890MOL0     C20051  11.624   9.340   4.564 -0.1804 -0.7083 -0.0605
  890MOL0     C20052  11.757   9.412   4.607 -0.1494  1.1063 -0.5584
  890MOL0     C20053  11.730   9.558   4.624  0.0609 -0.6323  0.1748
  890MOL0     C20054  11.839   9.617   4.717 -1.5891  0.0465  0.2124
  890MOL0     C20055  11.827   9.768   4.718 -0.0481 -0.0010 -0.1270
  890MOL0     C20056  11.867   9.831   4.859  0.0534  0.7578  0.4414
  890MOL0     C20057  11.832   9.985   4.877  0.2060  0.0379 -0.6555
  890MOL0     C20058  11.677  10.006   4.900 -0.2662 -0.3307 -0.4731
  890MOL0    Cl20059  11.633   9.900   5.036  0.6648  0.1922  0.1508
  890MOL0     C20060  11.431   9.159   4.451 -0.0646  0.5255 -0.2811
  890MOL0     C20061  11.320   9.061   4.444  0.2110 -0.8778 -0.1421
  890MOL0     O20062  11.356   8.654   4.490 -0.0535 -0.4304 -0.3660
  890MOL0     C20063  11.004   8.672   4.443  0.0465  0.1918 -0.2679
  890MOL0     C20064  10.891   8.590   4.456 -0.2455  0.5778  1.0521
  890MOL0     N20065  10.130   8.306   4.334 -0.2417 -0.0865  0.4512
  890MOL0     N20066  10.064   8.267   4.235 -0.1293 -0.0386 -0.4988
  890MOL0     C20067   9.417   7.716   3.809  0.2467 -0.3666 -0.0455
  890MOL0     C20068   9.279   7.707   3.843 -0.2666  0.8040  1.2086
  890MOL0     C20069   8.875   7.651   3.967 -0.2345  0.2099  0.2505
  890MOL0     C20070   8.804   7.535   4.005  0.6881 -0.0808  0.0990
  890MOL0     C20071   8.669   7.543   4.023 -0.8495 -0.0667  0.9897
  890MOL0     C20072   8.604   7.666   3.999  0.0504  0.5293  0.2758
  890MOL0     O20073   8.469   7.673   4.027  0.7139 -0.2185  0.5532
  890MOL0     C20074   8.390   7.787   3.973  0.3782  0.7896  0.0051
  890MOL0     C20075   8.249   7.748   4.019 -0.1689 -0.0456 -0.4225
  890MOL0     C20076   8.172   7.648   3.925  0.7278 -1.3395 -0.2528
  890MOL0     C20077   8.037   7.608   3.992 -0.2217 -0.1151 -0.7732
  890MOL0     C20078   7.943   7.546   3.894 -0.4855 -0.2442 -0.4704
  890MOL0     C20079   7.882   7.486   3.810  0.3540  0.5447  0.2158
  890MOL0     C20080   8.678   7.776   3.967 -0.9493 -1.1309  0.6420
  890MOL0     C20081   8.817   7.777   3.942  0.3020 -0.4138  0.1872
  890MOL0     C20082   8.898   7.897   3.904  0.4751 -0.0894 -0.6643
  890MOL0     H20083   9.253   7.359   3.839  3.6640 -1.5248 -3.0737
  890MOL0     H20084   9.487   7.378   3.803  3.2019  1.9685  3.4711
  890MOL0     H20085   9.672   7.428   3.711 -1.6494  0.9558  0.7170
  890MOL0     H20086   9.805   7.546   3.709 -1.0514 -0.0938 -1.6641
  890MOL0     H20087   9.831   7.387   3.890 -0.2606 -0.7889  0.9365
  890MOL0     H20088   9.681   7.429   3.969  1.7827  0.8353  3.7468
  890MOL0     H20089   9.861   7.541   4.078  1.2945 -1.4763 -0.8319
  890MOL0     H20090   9.740   7.646   3.992 -1.9633 -2.4663 -2.0166
  890MOL0     H20091  10.004   7.577   3.859  3.5790  3.5299 -1.3763
  890MOL0     H20092   9.889   7.716   3.838  2.8552  3.6568  0.3880
  890MOL0     H20093  10.042   7.663   4.095 -0.2366 -0.7210 -0.2293
  890MOL0     H20094  10.117   7.748   3.954 -0.6666  1.7796 -1.5772
  890MOL0     H20095   9.974   7.918   3.934 -3.0028 -0.0480 -0.2647
  890MOL0     H20096   9.866   7.857   4.064  1.0354 -0.2199  1.3676
  890MOL0     H20097  10.135   7.893   4.159  0.9968  0.2578 -1.0805
  890MOL0     H20098   9.972   7.950   4.217 -3.2290 -1.2445 -2.1534
  890MOL0     H20099  10.161   8.049   4.000 -1.1264 -0.1946 -0.1390
  890MOL0     H20100  10.007   8.125   4.020  0.5162  1.0138 -0.3627
  890MOL0     H20101  10.320   8.057   4.241 -0.3646 -1.4831  2.7805
  890MOL0     H20102  10.277   8.249   4.557  0.8560 -0.3657  0.4738
  890MOL0     H20103  10.380   8.128   4.481  0.8233 -0.2817 -0.7979
  890MOL0     H20104  10.459   8.333   4.338  0.3661  1.7675  0.8827
  890MOL0     H20105  10.389   8.431   4.465  1.6535  0.8868  1.2110
  890MOL0     H20106  10.599   8.216   4.519  2.2942  0.6483  1.7367
  890MOL0     H20107  10.539   8.325   4.634  0.2798 -1.9732  0.4555
  890MOL0     H20108  10.638   8.523   4.570  1.3268  0.5100 -0.6481
  890MOL0     H20109  10.650   8.484   4.409 -2.7517 -0.5736 -0.8241
  890MOL0     H20110  11.007   8.336   4.637 -2.6232  0.1045 -0.5600
  890MOL0     H20111  11.224   8.486   4.631 -0.6285 -2.3616  0.5239
  890MOL0     H20112  11.463   8.819   4.636 -0.3587 -1.4711 -1.7907
  890MOL0     H20113  11.639   8.995   4.646 -0.2673  0.3442  0.4881
  890MOL0     H20114  11.588   9.394   4.477  1.3077 -0.9932 -0.8930
  890MOL0     H20115  11.545   9.340   4.640 -1.6559  0.3177 -1.5199
  890MOL0     H20116  11.783   9.371   4.705 -0.1745 -2.5953 -1.9430
  890MOL0     H20117  11.842   9.383   4.545 -0.3827  1.1901 -0.9225
  890MOL0     H20118  11.720   9.599   4.523 -1.9841 -0.6539  0.3221
  890MOL0     H20119  11.634   9.571   4.675 -0.0189  1.5350 -0.4297
  890MOL0     H20120  11.940   9.587   4.689 -0.5431  0.8133  2.8937
  890MOL0     H20121  11.822   9.576   4.818 -2.8226  1.3592  0.5692
  890MOL0     H20122  11.722   9.788   4.695 -0.3289 -0.9350  0.3254
  890MOL0     H20123  11.891   9.821   4.647  1.9534 -1.1542  0.7259
  890MOL0     H20124  11.816   9.768   4.932  6.2931 -2.1859  3.0549
  890MOL0     H20125  11.973   9.809   4.876 -0.1652 -3.8803 -2.5006
  890MOL0     H20126  11.861  10.046   4.791  1.0573 -0.0616 -0.4474
  890MOL0     H20127  11.882  10.015   4.970 -0.6071 -1.2247  0.2207
  890MOL0     H20128  11.656  10.112   4.918 -2.2359 -0.6475 -0.7108
  890MOL0     H20129  11.622   9.976   4.811 -1.5964  0.3754  0.0808
  890MOL0     H20130  11.412   9.252   4.399 -2.6137  0.3526  0.1849
  890MOL0     H20131  11.231   9.086   4.388  0.4583 -0.1548 -0.2330
  890MOL0     H20132  10.990   8.764   4.387 -0.1337  1.1220  1.2406
  890MOL0     H20133  10.817   8.615   4.382  0.6794  0.6834  0.1485
  890MOL0     H20134   9.454   7.818   3.812 -1.7592  0.4492 -0.9946
  890MOL0     H20135   9.214   7.793   3.857 -2.2488 -0.6139  1.0433
  890MOL0     H20136   8.850   7.438   4.015 -3.6578 -2.3744  0.2565
  890MOL0     H20137   8.609   7.454   4.038  0.8687 -1.9851 -2.3364
  890MOL0     H20138   8.396   7.789   3.864  0.9789  0.4249  0.0262
  890MOL0     H20139   8.409   7.885   4.017  0.2165  1.8609 -2.1565
  890MOL0     H20140   8.200   7.843   4.041 -0.6696 -0.4627  0.2876
  890MOL0     H20141   8.261   7.697   4.115 -1.7784  3.4734  1.8225
  890MOL0     H20142   8.230   7.558   3.903  0.7534 -2.3088  3.1555
  890MOL0     H20143   8.143   7.691   3.828  1.4554  0.1182  0.1583
  890MOL0     H20144   8.037   7.529   4.067 -1.5988 -0.6732 -1.3279
  890MOL0     H20145   7.988   7.700   4.025  1.3695  1.3853 -2.3620
  890MOL0     H20146   7.819   7.415   3.759 -0.3554  0.2795  1.4249
  890MOL0     H20147   8.631   7.873   3.955  0.7985 -0.1952  1.1053
  890MOL0     H20148   8.997   7.890   3.949  1.8301 -1.1480 -3.5612
  890MOL0     H20149   8.931   7.902   3.800  5.4186 -1.6212  0.5912
  890MOL0     H20150   8.842   7.987   3.931 -0.0804 -0.2923 -1.1165
  891MOL0     O20151   0.193  11.262   0.692 -0.2380 -0.1068  0.0825
  891MOL0     C20152   0.160  11.368   0.642  0.2519  0.2786  0.4791
  891MOL0     O20153   0.035  11.427   0.651 -0.3447  0.1100  0.2321
  891MOL0     C20154  -0.072  11.342   0.670 -0.6292  0.8577 -0.1431
  891MOL0     C20155  -0.096  11.227   0.594 -0.4129 -0.2683  1.0532
  891MOL0     C20156  -0.213  11.154   0.612  0.2122 -0.1989 -0.5739
  891MOL0     C20157  -0.301  11.194   0.713  1.2094  0.3697 -0.6614
  891MOL0     O20158  -0.414  11.119   0.731  0.3262 -0.1806  0.6077
  891MOL0     C20159  -0.528  11.172   0.799 -0.1830 -0.1991  0.6345
  891MOL0     C20160  -0.637  11.066   0.791 -0.6944 -0.3776  0.2731
  891MOL0     C20161  -0.764  11.113   0.841  0.6091  0.0129  0.2645
  891MOL0     C20162  -0.886  11.033   0.806 -0.5853  0.6637  0.3915
  891MOL0     C20163  -1.019  11.080   0.870  0.2389 -0.1749  0.3766
  891MOL0     C20164  -1.140  11.009   0.821  0.3866  0.1599  0.2146
  891MOL0     C20165  -1.263  11.095   0.839  0.4802 -0.7356 -0.9494
  891MOL0     C20166  -1.390  11.039   0.790  0.6591  1.2643 -0.0092
  891MOL0     N20167  -1.501  11.127   0.847  0.2290  0.3077 -0.5189
  891MOL0     C20168  -1.525  11.242   0.776  0.9615  0.2761 -0.3597
  891MOL0     C20169  -1.597  11.320   0.860 -0.5276 -0.3565  0.2491
  891MOL0     C20170  -1.641  11.457   0.819  0.3227  0.1036 -0.7069
  891MOL0     C20171  -1.541  11.542   0.741  0.1462  0.3423  0.5128
  891MOL0     C20172  -1.414  11.575   0.814  0.5930  1.0491 -0.4346
  891MOL0     C20173  -1.301  11.628   0.724  0.4986 -0.0692 -0.0960
  891MOL0     O20174  -1.203  11.693   0.808  0.9883 -0.2536 -0.2386
  891MOL0     C20175  -1.085  11.740   0.762 -0.6541  0.0933  0.0424
  891MOL0     C20176  -1.039  11.727   0.630 -0.1077 -0.8004  0.0251
  891MOL0     C20177  -0.907  11.768   0.605  0.2440 -0.7083 -0.3364
  891MOL0     C20178  -0.826  11.822   0.699  0.2762  0.2513  0.1139
  891MOL0     C20179  -0.696  11.893   0.669  0.2200 -0.4210  0.4041
  891MOL0     O20180  -0.643  11.961   0.773  0.1781  0.5614 -0.2012
  891MOL0     C20181  -0.512  12.012   0.785 -1.1420 -0.0123  0.0868
  891MOL0     C20182  -0.479  12.091   0.890 -0.3797 -0.3484  0.2188
  891MOL0     C20183  -0.356  12.153   0.908 -0.3136  0.1239 -1.0083
  891MOL0     C20184  -0.250  12.115   0.823  1.3088 -0.2491 -1.0476
  891MOL0     O20185  -0.133  12.180   0.834  0.0082 -0.6863 -0.1552
  891MOL0     C20186  -0.017  12.091   0.816 -0.4945 -0.2320  0.6599
  891MOL0     C20187   0.110  12.170   0.819  0.3072  0.0717  0.5256
  891MOL0     C20188   0.120  12.293   0.734  0.1436  0.7231 -0.1663
  891MOL0     C20189   0.251  12.379   0.763 -0.1432  0.4942  0.5721
  891MOL0     C20190   0.376  12.310   0.700 -0.5274 -0.2998  0.2048
  891MOL0     C20191   0.502  12.404   0.686 -0.1444  0.6455  0.0795
  891MOL0     C20192   0.554  12.461   0.818  0.2162 -0.1280  0.1777
  891MOL0     C20193   0.679  12.542   0.803  0.1645 -0.3102 -0.4968
  891MOL0    Cl20194   0.803  12.409   0.788 -0.6897 -0.5218  0.3575
  891MOL0     C20195  -0.278  12.021   0.726  0.6662  0.7026  0.0016
  891MOL0     C20196  -0.408  11.968   0.700  0.1507  0.6956  0.0446
  891MOL0     O20197  -0.675  11.918   0.550 -0.3767  0.3277  0.1863
  891MOL0     C20198  -0.874  11.825   0.831  0.4606  0.4583 -0.0077
  891MOL0     C20199  -1.002  11.791   0.862  0.9088 -0.4374  0.3521
  891MOL0     N20200  -1.606  11.256   0.978 -0.1592  0.2351 -0.7747
  891MOL0     N20201  -1.550  11.137   0.977  0.2741 -0.1871  0.2393
  891MOL0     C20202  -0.262  11.300   0.804  0.6764  0.0875  0.3578
  891MOL0     C20203  -0.150  11.382   0.776  0.1535  0.2240  0.3631
  891MOL0     C20204   0.267  11.431   0.559 -0.1893  0.1998  0.4792
  891MOL0     C20205   0.396  11.407   0.591 -0.1888  0.3124  0.1047
  891MOL0     C20206   0.499  11.463   0.513  0.5575 -0.3797 -0.7384
  891MOL0     C20207   0.483  11.548   0.408  0.5714  0.7899 -0.2260
  891MOL0     O20208   0.602  11.579   0.343 -0.1560  0.2482  0.6539
  891MOL0     C20209   0.599  11.654   0.214  0.4362  0.2718 -0.0087
  891MOL0     C20210   0.536  11.578   0.091  0.3124  0.0297  0.1582
  891MOL0     C20211   0.571  11.430   0.088 -0.0158 -0.1268  0.3231
  891MOL0     C20212   0.521  11.361  -0.042  0.2263  0.4971  0.0392
  891MOL0     C20213   0.565  11.221  -0.047  0.8972 -0.3068 -0.2101
  891MOL0     C20214   0.592  11.104  -0.062  0.2422  0.5456  0.5548
  891MOL0     C20215   0.350  11.578   0.380 -0.1329 -0.3172 -0.6560
  891MOL0     C20216   0.247  11.516   0.448  0.8896  0.1941  0.3497
  891MOL0     C20217   0.107  11.553   0.401 -0.9556  0.4966 -0.2702
  891MOL0     H20218  -0.019  11.200   0.522  0.6152 -0.1307  2.0778
  891MOL0     H20219  -0.237  11.062   0.561  2.5600 -1.9134  1.2156
  891MOL0     H20220  -0.491  11.193   0.900 -0.6925  0.8444  0.6115
  891MOL0     H20221  -0.549  11.266   0.747  1.7028  0.2593  0.6301
  891MOL0     H20222  -0.609  10.979   0.851 -1.6522  0.1782  1.5835
  891MOL0     H20223  -0.645  11.033   0.687 -0.8974 -0.6323  0.3675
  891MOL0     H20224  -0.779  11.214   0.802  2.4145  1.0182  1.9603
  891MOL0     H20225  -0.755  11.123   0.949  1.2217  2.3678  0.0457
  891MOL0     H20226  -0.896  11.048   0.698  1.3760  0.8724  0.2015
  891MOL0     H20227  -0.865  10.928   0.824 -2.1213  0.5877  1.9872
  891MOL0     H20228  -1.008  11.075   0.979  0.8326  0.2355  0.3394
  891MOL0     H20229  -1.035  11.179   0.826 -1.7430 -0.3561  0.5796
  891MOL0     H20230  -1.132  10.982   0.716 -0.6212  0.4344  0.0642
  891MOL0     H20231  -1.154  10.916   0.877 -1.0302  0.5600  0.5521
  891MOL0     H20232  -1.249  11.190   0.786  0.7010 -0.1995  0.0440
  891MOL0     H20233  -1.259  11.115   0.947  1.5155  2.0292 -1.4197
  891MOL0     H20234  -1.398  11.044   0.681  1.3146 -1.7689 -0.2712
  891MOL0     H20235  -1.401  10.933   0.813 -0.6495  1.2095 -0.7887
  891MOL0     H20236  -1.497  11.256   0.672  0.1504  0.7861 -0.5244
  891MOL0     H20237  -1.731  11.446   0.757 -0.3102  0.0917  0.1890
  891MOL0     H20238  -1.669  11.518   0.906  4.1548  1.4471 -0.2318
  891MOL0     H20239  -1.514  11.489   0.649  2.3273  0.3960  1.0864
  891MOL0     H20240  -1.594  11.628   0.698  1.7439  1.4064  0.6004
  891MOL0     H20241  -1.384  11.480   0.860  0.8044  1.1944 -0.2697
  891MOL0     H20242  -1.431  11.640   0.900 -3.4432 -2.4339  1.7467
  891MOL0     H20243  -1.340  11.698   0.649 -2.6579  0.3823  1.7906
  891MOL0     H20244  -1.256  11.542   0.673 -0.4440  0.2308 -1.5035
  891MOL0     H20245  -1.101  11.692   0.549 -1.1918  2.0412 -0.5236
  891MOL0     H20246  -0.865  11.758   0.505  0.6702 -1.9347 -0.0574
  891MOL0     H20247  -0.556  12.109   0.964 -0.0072 -0.3414  0.6099
  891MOL0     H20248  -0.339  12.221   0.991  0.7517 -0.3477 -0.8201
  891MOL0     H20249  -0.013  12.033   0.909  0.1318  0.6431  1.1849
  891MOL0     H20250  -0.012  12.023   0.731  1.6335 -1.4650  1.6964
  891MOL0     H20251   0.118  12.198   0.925  1.1916  1.6473  0.0792
  891MOL0     H20252   0.197  12.106   0.804 -0.4726 -0.6023 -1.4242
  891MOL0     H20253   0.115  12.266   0.628 -0.7082  1.0601 -0.2206
  891MOL0     H20254   0.034  12.351   0.766 -0.1061 -0.6793  1.8802
  891MOL0     H20255   0.269  12.384   0.871 -0.0391 -1.5450  0.7060
  891MOL0     H20256   0.240  12.478   0.720 -2.3396 -0.2295 -0.6712
  891MOL0     H20257   0.344  12.273   0.602  1.2863  1.1668 -1.0148
  891MOL0     H20258   0.395  12.218   0.756  0.1176 -1.4660 -1.7993
  891MOL0     H20259   0.581  12.342   0.644 -1.3579 -1.1191  0.2998
  891MOL0     H20260   0.478  12.492   0.625 -0.3198  0.7166  0.2501
  891MOL0     H20261   0.574  12.386   0.896  0.5503 -3.9546 -3.2180
  891MOL0     H20262   0.476  12.519   0.868  0.4374 -0.3558  0.8014
  891MOL0     H20263   0.675  12.612   0.719 -0.1010 -1.4599 -1.4696
  891MOL0     H20264   0.702  12.599   0.894 -0.4573 -1.0556  0.1328
  891MOL0     H20265  -0.202  11.980   0.660 -0.2268 -0.3790 -0.3861
  891MOL0     H20266  -0.431  11.899   0.619 -2.7006  0.5324  0.8738
  891MOL0     H20267  -0.799  11.862   0.900  3.4278 -0.1480 -2.6692
  891MOL0     H20268  -1.034  11.807   0.964 -0.9624 -0.9438 -0.0980
  891MOL0     H20269  -0.319  11.335   0.889 -0.7066  1.3761 -1.0388
  891MOL0     H20270  -0.120  11.470   0.832  0.8499  1.6832 -2.1672
  891MOL0     H20271   0.424  11.348   0.678  2.3490  0.3035 -0.6181
  891MOL0     H20272   0.602  11.436   0.535  1.0328  1.1317 -1.0144
  891MOL0     H20273   0.700  11.690   0.190  1.5605 -0.9931  2.5256
  891MOL0     H20274   0.543  11.746   0.235  1.1405 -0.0897  4.2002
  891MOL0     H20275   0.569  11.626  -0.002  0.0715 -1.8857 -0.9597
  891MOL0     H20276   0.427  11.589   0.087  0.3337  0.2350  0.1195
  891MOL0     H20277   0.522  11.381   0.173  0.5865  0.4628  1.0258
  891MOL0     H20278   0.678  11.415   0.074  0.2567  1.5348  0.4549
  891MOL0     H20279   0.411  11.369  -0.043 -0.1975 -3.4319 -1.5725
  891MOL0     H20280   0.558  11.413  -0.131  2.5195 -0.1798  0.5378
  891MOL0     H20281   0.614  11.000  -0.078  3.6335  1.3666 -0.9120
  891MOL0     H20282   0.337  11.644   0.295  3.2378 -0.4358 -1.3682
  891MOL0     H20283   0.050  11.596   0.484 -1.7385 -1.5138  0.2939
  891MOL0     H20284   0.118  11.622   0.316 -1.3609  1.8185  0.7223
  891MOL0     H20285   0.049  11.464   0.374 -0.2638 -2.1731  5.4422
  892MOL0     O20286   7.934   1.398   9.754  0.4211  0.3007 -0.2278
  892MOL0     C20287   8.003   1.392   9.650  0.0088  0.3063  0.1203
  892MOL0     O20288   8.128   1.431   9.650 -0.3480  0.1622 -0.0022
  892MOL0     C20289   8.214   1.401   9.756  0.6289  0.0769 -0.2922
  892MOL0     C20290   8.324   1.480   9.789  0.0853 -0.0035  0.0607
  892MOL0     C20291   8.420   1.442   9.879 -0.3120 -0.2112  0.7676
  892MOL0     C20292   8.407   1.314   9.945  0.0304  0.1832 -0.8808
  892MOL0     O20293   8.508   1.280  10.033 -0.5638  0.0281 -0.5306
  892MOL0     C20294   8.513   1.150  10.100 -0.6037 -0.8487  0.6732
  892MOL0     C20295   8.664   1.115  10.141  0.1915  0.1781 -0.6677
  892MOL0     C20296   8.747   1.238  10.194  0.1117  0.0436  0.2670
  892MOL0     C20297   8.895   1.201  10.232 -0.3399 -0.4088  0.3760
  892MOL0     C20298   8.989   1.322  10.243 -0.1476  0.9254  0.3775
  892MOL0     C20299   9.133   1.267  10.265 -0.1299 -0.3529  0.1198
  892MOL0     C20300   9.231   1.370  10.328  0.3460 -0.1589  0.3249
  892MOL0     C20301   9.227   1.498  10.250 -0.2556  0.8021  0.4080
  892MOL0     N20302   9.350   1.574  10.276 -0.1299  0.2640 -0.0586
  892MOL0     C20303   9.408   1.593  10.394 -0.4789 -0.7409 -0.6349
  892MOL0     C20304   9.531   1.648  10.361 -0.3023  0.0498 -0.9887
  892MOL0     C20305   9.623   1.711  10.466 -0.2210  0.1864 -0.2544
  892MOL0     C20306   9.755   1.639  10.494  0.0352  0.3786 -1.3748
  892MOL0     C20307   9.854   1.651  10.376  0.3333  0.0393 -0.5026
  892MOL0     C20308   9.968   1.550  10.395 -0.5432  0.3545  0.4621
  892MOL0     O20309   9.909   1.418  10.405  0.8720  0.3621 -0.3928
  892MOL0     C20310  10.005   1.318  10.432  0.0007 -0.0951 -0.5361
  892MOL0     C20311  10.145   1.329  10.418  0.7042  0.4270  0.1180
  892MOL0     C20312  10.223   1.223  10.467 -0.0451 -0.3628  0.1396
  892MOL0     C20313  10.173   1.097  10.493 -0.0569  0.5444  0.5878
  892MOL0     C20314  10.264   0.986  10.533 -0.1078 -0.7873 -0.2950
  892MOL0     O20315  10.390   1.025  10.563 -0.2683 -0.1182  0.0058
  892MOL0     C20316  10.490   0.928  10.562  0.6208 -0.3616 -0.2018
  892MOL0     C20317  10.493   0.808  10.497 -0.0038 -0.2011 -0.5570
  892MOL0     C20318  10.609   0.729  10.496  0.3037  0.3054 -0.5694
  892MOL0     C20319  10.723   0.768  10.561 -0.3352  0.0783  0.8123
  892MOL0     O20320  10.838   0.701  10.554  0.2818  0.3512  0.5674
  892MOL0     C20321  10.841   0.595  10.652  0.4812 -0.5325  1.2502
  892MOL0     C20322  10.960   0.512  10.617  0.0794 -0.4286  0.5000
  892MOL0     C20323  11.098   0.580  10.641 -0.2806  0.4655  0.4873
  892MOL0     C20324  11.144   0.577  10.782  0.0550  0.0257 -0.1408
  892MOL0     C20325  11.292   0.594  10.796 -0.7202  0.8643  0.6229
  892MOL0     C20326  11.346   0.719  10.729  0.2142  0.2620  0.4085
  892MOL0     C20327  11.492   0.760  10.779 -0.4352  0.5242  0.9436
  892MOL0     C20328  11.610   0.656  10.735 -0.5546 -0.3686  0.0062
  892MOL0    Cl20329  11.769   0.735  10.778 -0.0845 -0.1998 -0.0158
  892MOL0     C20330  10.720   0.894  10.623 -0.4438  0.4505 -0.7765
  892MOL0     C20331  10.603   0.970  10.624 -0.3177 -0.2113 -0.0945
  892MOL0     O20332  10.221   0.874  10.546 -0.5151 -0.3728  0.5800
  892MOL0     C20333  10.041   1.083  10.479 -0.0807  1.4705  0.2421
  892MOL0     C20334   9.954   1.188  10.447 -1.2049 -0.0642  0.1475
  892MOL0     N20335   9.537   1.664  10.217 -0.2045 -0.8489  0.5551
  892MOL0     N20336   9.429   1.623  10.171  0.1811  0.3538  0.6843
  892MOL0     C20337   8.290   1.240   9.924  0.2472  0.8592  0.2043
  892MOL0     C20338   8.197   1.276   9.833  0.1640  0.0615  0.1494
  892MOL0     C20339   7.933   1.393   9.519  0.1025 -0.4517 -0.7070
  892MOL0     C20340   7.974   1.488   9.430  0.1715  0.4143  0.3062
  892MOL0     C20341   7.910   1.493   9.309  0.1077  0.6112  0.4439
  892MOL0     C20342   7.809   1.413   9.275  0.0647  0.2782  0.4001
  892MOL0     O20343   7.761   1.427   9.148 -0.2727  0.4325 -0.9108
  892MOL0     C20344   7.633   1.367   9.112  0.4504  0.0932  0.1343
  892MOL0     C20345   7.626   1.377   8.966  0.2056 -0.1192  0.7474
  892MOL0     C20346   7.490   1.349   8.900 -0.5495  0.2979 -0.0576
  892MOL0     C20347   7.424   1.481   8.861  0.3816  0.7805  0.5940
  892MOL0     C20348   7.309   1.442   8.777 -1.0443 -0.0324 -1.3892
  892MOL0     C20349   7.214   1.398   8.721 -0.8230  0.3777  0.6629
  892MOL0     C20350   7.747   1.330   9.369 -0.2546 -0.0390 -0.3925
  892MOL0     C20351   7.811   1.320   9.494 -0.6926  0.8718 -0.7552
  892MOL0     C20352   7.767   1.208   9.590  0.7779  0.4309  0.2548
  892MOL0     H20353   8.347   1.571   9.734  0.7921 -0.9739 -1.2841
  892MOL0     H20354   8.514   1.490   9.904  0.3339 -1.4170  0.7254
  892MOL0     H20355   8.462   1.159  10.196  2.3438 -1.4444  2.4120
  892MOL0     H20356   8.476   1.069  10.036 -1.8788  1.0201 -1.0776
  892MOL0     H20357   8.715   1.072  10.053  0.2223 -1.5383  0.1411
  892MOL0     H20358   8.649   1.043  10.222 -0.3479  1.7007  0.6161
  892MOL0     H20359   8.698   1.291  10.275 -0.9467 -2.5702  1.4503
  892MOL0     H20360   8.747   1.304  10.107  0.9202 -2.8428 -2.1073
  892MOL0     H20361   8.894   1.151  10.329  1.7293 -0.7482  0.2579
  892MOL0     H20362   8.939   1.120  10.173  1.2137  1.4304 -1.1298
  892MOL0     H20363   8.990   1.375  10.147 -0.4377 -0.2464 -0.2853
  892MOL0     H20364   8.960   1.403  10.311  4.9002  2.2200  1.4185
  892MOL0     H20365   9.116   1.182  10.332 -0.5132 -1.3199 -1.1431
  892MOL0     H20366   9.164   1.220  10.170  1.5122  1.8064 -0.4969
  892MOL0     H20367   9.328   1.321  10.319  1.1586  1.5420 -0.8167
  892MOL0     H20368   9.205   1.381  10.433  2.4999 -0.2631  0.9117
  892MOL0     H20369   9.223   1.473  10.144 -0.9151 -0.9445  0.8190
  892MOL0     H20370   9.135   1.557  10.264 -1.2318 -0.4994 -0.3067
  892MOL0     H20371   9.364   1.573  10.492 -2.2946  0.0427 -1.2474
  892MOL0     H20372   9.634   1.816  10.436 -1.7625  0.5110  0.2381
  892MOL0     H20373   9.573   1.716  10.563  0.8073  0.6995  0.2791
  892MOL0     H20374   9.793   1.673  10.591 -2.8771 -0.3585  0.1378
  892MOL0     H20375   9.724   1.535  10.507 -2.5830  1.2759  0.2735
  892MOL0     H20376   9.893   1.753  10.378  0.5981  0.0193 -2.7093
  892MOL0     H20377   9.803   1.640  10.280  0.7397 -0.5893 -0.6558
  892MOL0     H20378  10.018   1.574  10.490  0.2586  0.0381  0.1341
  892MOL0     H20379  10.034   1.562  10.308  0.0799  1.8522  1.1099
  892MOL0     H20380  10.184   1.425  10.387 -0.6035  1.8078  2.4480
  892MOL0     H20381  10.332   1.232  10.466  0.2494 -3.0256  0.4789
  892MOL0     H20382  10.407   0.763  10.448 -0.7919  0.0680  0.5450
  892MOL0     H20383  10.615   0.638  10.438  2.5459 -0.3048  0.5228
  892MOL0     H20384  10.851   0.643  10.750 -1.0183  0.0120  1.1616
  892MOL0     H20385  10.756   0.527  10.662  0.0919 -0.1939  0.2724
  892MOL0     H20386  10.965   0.417  10.670  0.3070 -0.2664  0.7749
  892MOL0     H20387  10.962   0.489  10.510 -0.7232 -1.2584  0.6552
  892MOL0     H20388  11.173   0.522  10.588 -3.0011 -2.3488 -0.6055
  892MOL0     H20389  11.094   0.686  10.612  0.4181  0.9339  1.9753
  892MOL0     H20390  11.124   0.479  10.827  0.2640  0.4350  0.8551
  892MOL0     H20391  11.083   0.644  10.843  1.3094  0.0684  1.1168
  892MOL0     H20392  11.345   0.505  10.759  0.1603  1.5892  0.0722
  892MOL0     H20393  11.304   0.610  10.903  2.8725  4.2297 -0.0386
  892MOL0     H20394  11.335   0.705  10.621  2.9556  0.4516  0.0355
  892MOL0     H20395  11.282   0.804  10.752  2.2919  1.7797  0.8238
  892MOL0     H20396  11.495   0.769  10.888 -0.1406 -0.9695  1.0862
  892MOL0     H20397  11.513   0.857  10.734 -1.4081  0.4338  0.2400
  892MOL0     H20398  11.601   0.553  10.772 -0.8434 -0.2028  0.4063
  892MOL0     H20399  11.607   0.646  10.627 -2.4570 -0.0723  0.0061
  892MOL0     H20400  10.815   0.930  10.662  0.5009 -2.0190 -0.6676
  892MOL0     H20401  10.602   1.065  10.677 -1.1604 -1.1414  1.6112
  892MOL0     H20402  10.002   0.983  10.496 -3.9147  2.3222 -2.1528
  892MOL0     H20403   9.848   1.163  10.449 -0.6581 -2.5770  0.9088
  892MOL0     H20404   8.281   1.146   9.977 -1.3547  1.7537  1.6189
  892MOL0     H20405   8.136   1.190   9.807  1.8127 -0.5784 -1.9304
  892MOL0     H20406   8.057   1.558   9.444  1.2364 -0.2046 -2.3453
  892MOL0     H20407   7.951   1.553   9.229 -3.0400  1.1233 -0.9258
  892MOL0     H20408   7.554   1.429   9.157 -3.2577 -3.4100 -0.9681
  892MOL0     H20409   7.625   1.263   9.142  0.1602 -0.2871 -1.2084
  892MOL0     H20410   7.687   1.299   8.919 -0.9429 -1.3660  1.2903
  892MOL0     H20411   7.672   1.471   8.932 -0.2051  0.1823  1.0205
  892MOL0     H20412   7.426   1.293   8.970  2.2204 -2.9093  0.1536
  892MOL0     H20413   7.510   1.297   8.806  1.3776  0.6479  0.1305
  892MOL0     H20414   7.397   1.545   8.946  2.5813 -0.6243  2.4613
  892MOL0     H20415   7.495   1.531   8.795 -0.0970 -0.2778 -0.7619
  892MOL0     H20416   7.129   1.349   8.678 -1.3778 -1.6556  3.7128
  892MOL0     H20417   7.665   1.260   9.352  0.3085 -0.5202 -1.1770
  892MOL0     H20418   7.697   1.139   9.542 -0.3342  0.8682  1.1826
  892MOL0     H20419   7.860   1.151   9.601  0.3456 -0.4811 -0.7186
  892MOL0     H20420   7.730   1.237   9.689  3.7095  1.6927  1.0997
  893MOL0     O20421   2.532   4.632   4.403 -0.2188 -0.1358  0.6489
  893MOL0     C20422   2.462   4.537   4.375 -0.3060  0.1011  0.8072
  893MOL0     O20423   2.495   4.442   4.280  0.0606 -0.0962 -0.4597
  893MOL0     C20424   2.618   4.455   4.222  0.6063 -0.8170  0.8237
  893MOL0     C20425   2.674   4.332   4.169 -0.3466  0.1123  0.3228
  893MOL0     C20426   2.798   4.332   4.096  0.0284  0.7930 -0.1523
  893MOL0     C20427   2.877   4.449   4.085 -0.2205 -0.1004 -0.4744
  893MOL0     O20428   2.999   4.462   4.028 -0.5896 -0.0940 -0.3906
  893MOL0     C20429   3.017   4.369   3.921  0.6874  0.6931  0.3336
  893MOL0     C20430   3.121   4.427   3.832  0.2771 -0.2888  0.2527
  893MOL0     C20431   3.270   4.435   3.896 -0.2195 -0.9549  0.4056
  893MOL0     C20432   3.370   4.498   3.796 -0.8087  0.9918 -0.1029
  893MOL0     C20433   3.510   4.474   3.859 -0.7868 -0.0931 -0.1001
  893MOL0     C20434   3.625   4.522   3.778  0.5255  0.0074 -0.2806
  893MOL0     C20435   3.764   4.496   3.847  0.0677  0.2657  0.2251
  893MOL0     C20436   3.884   4.552   3.766 -0.1943 -0.0815  1.3588
  893MOL0     N20437   4.005   4.533   3.849 -0.5861  0.3938  1.0324
  893MOL0     C20438   4.059   4.416   3.899  0.1919 -0.1524 -0.3749
  893MOL0     C20439   4.176   4.450   3.953  0.1179 -0.2367  0.2355
  893MOL0     C20440   4.282   4.361   3.998  0.8528 -1.1001 -0.0697
  893MOL0     C20441   4.421   4.418   3.990  1.1797 -0.0808 -0.3826
  893MOL0     C20442   4.521   4.328   4.054 -0.1513  0.2068  0.3418
  893MOL0     C20443   4.661   4.348   4.004  0.5817 -0.1307 -0.2173
  893MOL0     O20444   4.711   4.466   4.064 -0.5173 -0.9013 -0.1359
  893MOL0     C20445   4.846   4.487   4.066  0.0298 -0.4686  0.1301
  893MOL0     C20446   4.939   4.412   4.001 -0.0979 -0.1523 -0.0302
  893MOL0     C20447   5.074   4.454   3.997  0.9137 -0.0268  0.8734
  893MOL0     C20448   5.118   4.570   4.067 -0.1932 -0.7116  0.8455
  893MOL0     C20449   5.256   4.600   4.091 -0.2768 -0.2500  0.1881
  893MOL0     O20450   5.349   4.528   4.015 -0.2073  0.4835 -0.1157
  893MOL0     C20451   5.483   4.540   4.041  0.2688  1.0766  0.1619
  893MOL0     C20452   5.541   4.556   4.168  0.6820 -0.5740  0.2025
  893MOL0     C20453   5.686   4.560   4.189  0.6671  0.2929  0.1954
  893MOL0     C20454   5.770   4.542   4.079  0.4480  0.1234  0.3409
  893MOL0     O20455   5.905   4.555   4.091 -0.5468 -0.4848 -0.4402
  893MOL0     C20456   5.981   4.459   4.023 -0.2850  0.6200 -0.2397
  893MOL0     C20457   5.946   4.319   4.074 -1.1286 -0.2330 -0.0862
  893MOL0     C20458   5.872   4.234   3.978 -0.2501 -0.0075  1.0627
  893MOL0     C20459   5.948   4.210   3.851  0.3581  0.1621  0.4043
  893MOL0     C20460   5.877   4.107   3.768 -0.0462  0.4438 -0.7156
  893MOL0     C20461   5.973   4.029   3.674 -1.1044 -0.0976  0.1607
  893MOL0     C20462   5.901   3.922   3.598  0.5808  0.4755 -0.4515
  893MOL0     C20463   5.979   3.827   3.507  0.5286 -0.6516  0.8277
  893MOL0    Cl20464   6.101   3.734   3.593 -0.4375  0.4357  0.5884
  893MOL0     C20465   5.710   4.540   3.949 -0.9059 -0.1213 -0.2368
  893MOL0     C20466   5.570   4.527   3.933 -0.2483  0.5511  0.8674
  893MOL0     O20467   5.288   4.690   4.171  0.8104 -0.1888 -0.3031
  893MOL0     C20468   5.026   4.642   4.141 -0.7273  0.8584 -0.6625
  893MOL0     C20469   4.895   4.601   4.138 -1.0864 -0.2235  0.4492
  893MOL0     N20470   4.190   4.590   3.940  0.1310 -0.4532  0.1124
  893MOL0     N20471   4.090   4.636   3.877  0.7976  0.0312 -0.2303
  893MOL0     C20472   2.815   4.568   4.128 -0.8607  0.1202 -0.0607
  893MOL0     C20473   2.689   4.578   4.193 -0.4631 -0.3153 -0.1842
  893MOL0     C20474   2.332   4.524   4.439 -0.1963  0.6998 -0.2296
  893MOL0     C20475   2.271   4.644   4.487 -1.1396  0.9764  0.1078
  893MOL0     C20476   2.172   4.642   4.571  0.3868  0.1919 -0.4421
  893MOL0     C20477   2.115   4.520   4.603 -0.1917 -0.2849 -0.6522
  893MOL0     O20478   2.017   4.498   4.700 -0.2251 -0.0991  0.0436
  893MOL0     C20479   1.900   4.583   4.664 -0.0118  1.0415 -0.3780
  893MOL0     C20480   1.772   4.509   4.709  0.8665 -0.4136  0.3246
  893MOL0     C20481   1.729   4.543   4.853  0.1991 -0.7897  0.2672
  893MOL0     C20482   1.592   4.486   4.894  1.2137  0.2500  0.2705
  893MOL0     C20483   1.461   4.537   4.832  0.0572  0.2101 -0.3114
  893MOL0     C20484   1.366   4.576   4.775 -0.9097 -0.2239 -0.8604
  893MOL0     C20485   2.173   4.406   4.561  0.0337  0.3418 -1.0717
  893MOL0     C20486   2.284   4.398   4.483 -0.2928 -0.3998  0.8625
  893MOL0     C20487   2.325   4.261   4.442  0.1218  0.1139 -0.6560
  893MOL0     H20488   2.631   4.232   4.175  2.2920 -1.0155  2.8015
  893MOL0     H20489   2.827   4.235   4.056  1.7715  1.2454 -0.0498
  893MOL0     H20490   3.042   4.270   3.960  0.1416 -0.3010 -1.6772
  893MOL0     H20491   2.921   4.361   3.870  0.7734 -0.5958  0.3419
  893MOL0     H20492   3.084   4.528   3.812  0.1011 -0.1528  1.2011
  893MOL0     H20493   3.118   4.370   3.739  4.2848  1.4188 -1.1862
  893MOL0     H20494   3.293   4.332   3.926 -0.2344 -1.1441 -0.2344
  893MOL0     H20495   3.261   4.493   3.989 -4.1711 -1.6578  0.6420
  893MOL0     H20496   3.367   4.447   3.699  4.6561  2.7945 -1.5521
  893MOL0     H20497   3.357   4.607   3.791 -2.0585  0.9878  1.8171
  893MOL0     H20498   3.512   4.506   3.964 -1.8731 -1.0263  0.2260
  893MOL0     H20499   3.534   4.368   3.870  1.9950  0.5563  0.9693
  893MOL0     H20500   3.633   4.475   3.680  2.5844  0.7338 -0.5109
  893MOL0     H20501   3.620   4.630   3.765  5.7043  0.3055 -2.5358
  893MOL0     H20502   3.777   4.391   3.873 -0.7588  0.2006  0.3990
  893MOL0     H20503   3.760   4.551   3.942 -0.9837  0.1480  0.2565
  893MOL0     H20504   3.896   4.520   3.662 -2.4979 -0.7507  1.2446
  893MOL0     H20505   3.872   4.660   3.755  0.5346 -0.2330 -2.9707
  893MOL0     H20506   4.025   4.313   3.887 -0.9305  0.2137 -0.4888
  893MOL0     H20507   4.264   4.323   4.099  3.9197 -1.1914  0.5399
  893MOL0     H20508   4.275   4.270   3.937 -0.5066 -1.1792  0.1869
  893MOL0     H20509   4.443   4.446   3.887  1.4759  1.3550  0.0496
  893MOL0     H20510   4.411   4.510   4.048 -1.5545 -2.2194  2.8703
  893MOL0     H20511   4.498   4.223   4.035 -1.7051  0.5138  0.4005
  893MOL0     H20512   4.523   4.333   4.164 -1.8963 -0.2195  0.4219
  893MOL0     H20513   4.663   4.363   3.895  1.8004 -3.0005 -0.6881
  893MOL0     H20514   4.718   4.258   4.029 -1.4417 -1.3377  0.3464
  893MOL0     H20515   4.918   4.322   3.944 -3.1564  0.8235 -0.6770
  893MOL0     H20516   5.144   4.398   3.936 -3.1782 -3.6645 -0.9741
  893MOL0     H20517   5.475   4.557   4.254 -1.1936  1.3840 -1.1551
  893MOL0     H20518   5.735   4.572   4.285  0.5668 -0.9677  0.4129
  893MOL0     H20519   5.975   4.473   3.914 -2.5756  2.1939 -0.0005
  893MOL0     H20520   6.085   4.475   4.052 -1.0403  2.0905  1.9077
  893MOL0     H20521   6.045   4.278   4.095  1.2346  4.4659 -0.8039
  893MOL0     H20522   5.894   4.334   4.169  0.2183  1.5814  0.4338
  893MOL0     H20523   5.843   4.141   4.029  0.5284  0.8513  3.1943
  893MOL0     H20524   5.773   4.279   3.964  0.3275  0.7607 -0.6856
  893MOL0     H20525   6.052   4.181   3.871  0.8389  0.6696 -1.1943
  893MOL0     H20526   5.946   4.301   3.790  0.6275  0.6020  1.0459
  893MOL0     H20527   5.804   4.156   3.703  1.6920  2.1961 -1.4804
  893MOL0     H20528   5.825   4.034   3.829  4.4463 -0.8350  2.0792
  893MOL0     H20529   6.012   4.095   3.596  1.6609 -2.7953 -0.9242
  893MOL0     H20530   6.069   3.997   3.715  0.6975  2.4264 -1.7405
  893MOL0     H20531   5.810   3.956   3.548 -1.0591 -2.6869  0.1402
  893MOL0     H20532   5.863   3.853   3.674  2.0780 -2.0993 -1.9094
  893MOL0     H20533   5.918   3.750   3.458 -0.1240  0.6499 -0.4448
  893MOL0     H20534   6.022   3.890   3.429  0.7802 -0.4461  1.1309
  893MOL0     H20535   5.774   4.537   3.861 -0.9661 -0.6226 -0.2650
  893MOL0     H20536   5.535   4.501   3.833 -1.8450 -1.5674  1.8994
  893MOL0     H20537   5.059   4.719   4.210  2.1021 -0.5710 -0.2512
  893MOL0     H20538   4.821   4.659   4.192 -1.2847  0.1748 -0.2436
  893MOL0     H20539   2.857   4.665   4.106 -2.1193  0.2951 -1.9368
  893MOL0     H20540   2.655   4.679   4.212  0.4226  0.1576 -0.9962
  893MOL0     H20541   2.323   4.736   4.463 -1.0488  0.9598  0.2354
  893MOL0     H20542   2.134   4.739   4.600  1.2341  0.1251  0.9824
  893MOL0     H20543   1.887   4.596   4.556 -0.1872  1.2810 -0.3269
  893MOL0     H20544   1.915   4.682   4.706 -1.0684  1.1154 -0.1598
  893MOL0     H20545   1.777   4.401   4.691 -0.8576 -0.7550  1.6390
  893MOL0     H20546   1.693   4.546   4.644  1.0908 -1.1312 -0.3753
  893MOL0     H20547   1.728   4.652   4.848 -2.6080 -0.7912 -0.6774
  893MOL0     H20548   1.803   4.502   4.924  1.2948  2.5197  1.2462
  893MOL0     H20549   1.604   4.378   4.878 -1.8129 -0.0840 -0.4250
  893MOL0     H20550   1.581   4.501   5.002  0.4105  0.0883  0.2218
  893MOL0     H20551   1.286   4.627   4.726 -0.5192  1.3611  0.0996
  893MOL0     H20552   2.126   4.316   4.601  0.8309  0.1457 -0.5621
  893MOL0     H20553   2.389   4.255   4.353  2.0413  0.6368  0.6207
  893MOL0     H20554   2.374   4.215   4.528 -2.2023 -1.6995 -0.1898
  893MOL0     H20555   2.229   4.211   4.425 -1.2989  2.0191  1.2871
  894MOL0     O20556   0.167   8.620   3.877 -0.3234  0.3976  0.3838
  894MOL0     C20557   0.100   8.640   3.976  0.2167  0.4039 -0.7414
  894MOL0     O20558   0.131   8.746   4.065  0.3726  0.0773  0.1327
  894MOL0     C20559   0.268   8.778   4.094  0.1175  0.3483 -0.5169
  894MOL0     C20560   0.347   8.845   4.000 -0.6823 -0.2330  0.0338
  894MOL0     C20561   0.480   8.875   4.035  0.3239 -1.5345 -1.2531
  894MOL0     C20562   0.521   8.863   4.175 -0.1904  0.0483  0.4439
  894MOL0     O20563   0.647   8.891   4.233  0.2283 -0.2061 -0.3485
  894MOL0     C20564   0.765   8.847   4.171 -0.2467 -0.5873  0.2243
  894MOL0     C20565   0.865   8.818   4.276  0.0078 -0.0219  0.4221
  894MOL0     C20566   1.017   8.802   4.220 -0.7662  1.0644 -0.5310
  894MOL0     C20567   1.032   8.697   4.112 -1.1351  0.0297  0.3168
  894MOL0     C20568   1.177   8.644   4.097  0.4421  0.8182 -0.1260
  894MOL0     C20569   1.246   8.735   3.992 -0.9292 -0.4838 -0.2033
  894MOL0     C20570   1.389   8.700   3.965 -0.4879 -0.1791 -0.0408
  894MOL0     C20571   1.443   8.811   3.875 -0.5407  0.3654  0.3947
  894MOL0     N20572   1.567   8.769   3.804  0.2175  0.1778 -0.1964
  894MOL0     C20573   1.682   8.717   3.856 -0.1712  0.0170 -0.0113
  894MOL0     C20574   1.748   8.669   3.749 -1.0348 -0.4581  0.5488
  894MOL0     C20575   1.876   8.594   3.738  0.2242  0.1749  0.3848
  894MOL0     C20576   1.993   8.682   3.711 -0.1180 -0.4299  0.5031
  894MOL0     C20577   2.120   8.594   3.681  0.4982  0.6266 -0.5532
  894MOL0     C20578   2.247   8.677   3.648  0.0519 -0.3962  0.5289
  894MOL0     O20579   2.277   8.765   3.758  0.0115 -0.0962 -0.0610
  894MOL0     C20580   2.392   8.829   3.724 -0.2722 -1.3368 -0.3347
  894MOL0     C20581   2.508   8.773   3.770  0.0279  0.0881 -0.5494
  894MOL0     C20582   2.628   8.829   3.737  0.0266  0.2460  0.0200
  894MOL0     C20583   2.630   8.961   3.687 -1.0353 -0.3391 -0.1975
  894MOL0     C20584   2.765   9.018   3.658  0.0941  0.4549  0.7305
  894MOL0     O20585   2.874   8.972   3.729 -0.1783  0.1974  0.3027
  894MOL0     C20586   2.987   9.040   3.699  0.9010 -0.4220  0.8247
  894MOL0     C20587   3.083   8.975   3.623  0.2699  0.0392  0.0256
  894MOL0     C20588   3.207   9.033   3.595  0.4953 -0.2941  0.2932
  894MOL0     C20589   3.232   9.164   3.637 -0.4934  1.0675  0.0900
  894MOL0     O20590   3.354   9.221   3.610  0.5096 -0.2197  0.0207
  894MOL0     C20591   3.366   9.364   3.593  0.2064  0.1513  0.4139
  894MOL0     C20592   3.508   9.401   3.549 -0.2588  0.0657  0.0729
  894MOL0     C20593   3.514   9.554   3.553  0.3311  0.0628 -0.0732
  894MOL0     C20594   3.633   9.611   3.467  0.2409  0.0292  0.6047
  894MOL0     C20595   3.617   9.756   3.429 -0.5557 -0.9640  0.2422
  894MOL0     C20596   3.621   9.849   3.542  0.0495  0.0146 -0.0595
  894MOL0     C20597   3.600  10.003   3.508 -0.1621 -0.4713  0.0317
  894MOL0     C20598   3.692  10.056   3.406  0.1419  0.1217  0.2448
  894MOL0    Cl20599   3.861   9.996   3.428 -0.1678 -0.1257 -0.2244
  894MOL0     C20600   3.130   9.229   3.708  0.5833 -0.7340  0.0402
  894MOL0     C20601   3.014   9.171   3.741  0.3922  0.0227 -0.1780
  894MOL0     O20602   2.767   9.115   3.575  0.3609  0.5404 -0.2720
  894MOL0     C20603   2.515   9.030   3.646 -0.3617  0.5231  0.3266
  894MOL0     C20604   2.389   8.957   3.657 -0.1708  0.1913  0.5018
  894MOL0     N20605   1.673   8.691   3.632  0.1755 -0.1662 -0.7356
  894MOL0     N20606   1.562   8.753   3.668 -0.8287  0.0616  0.4005
  894MOL0     C20607   0.425   8.811   4.270  0.3568  0.0895 -0.5629
  894MOL0     C20608   0.302   8.762   4.225  0.3275 -0.2374  0.4603
  894MOL0     C20609  -0.019   8.559   4.001  0.2309  0.3650 -0.1316
  894MOL0     C20610  -0.081   8.560   4.125 -0.8513  0.4229 -0.4109
  894MOL0     C20611  -0.189   8.479   4.156  0.0054  0.0674 -0.1472
  894MOL0     C20612  -0.228   8.379   4.069 -0.0394  0.1294 -0.0156
  894MOL0     O20613  -0.326   8.288   4.097 -0.3007 -0.0401  0.3932
  894MOL0     C20614  -0.422   8.320   4.196  0.0488 -0.1762  0.1508
  894MOL0     C20615  -0.537   8.217   4.209  0.4625 -0.2146 -0.1178
  894MOL0     C20616  -0.614   8.218   4.070  0.1241 -0.1860  0.1124
  894MOL0     C20617  -0.759   8.160   4.073 -0.0301  0.3349 -0.9220
  894MOL0     C20618  -0.756   8.022   4.121  0.2841 -0.8105  0.2299
  894MOL0     C20619  -0.754   7.909   4.165 -0.3604  0.3640  0.6280
  894MOL0     C20620  -0.178   8.381   3.935 -0.0418 -0.1134 -0.1981
  894MOL0     C20621  -0.080   8.477   3.901  0.1225  0.0803  0.2310
  894MOL0     C20622  -0.048   8.484   3.746 -0.0749 -0.0850  0.1455
  894MOL0     H20623   0.321   8.865   3.896 -0.3184  1.6597  0.2696
  894MOL0     H20624   0.550   8.919   3.964  1.5961  1.8743  1.7613
  894MOL0     H20625   0.743   8.756   4.115  0.7308 -1.2955  0.9598
  894MOL0     H20626   0.789   8.929   4.102 -2.7733  0.1893  0.1520
  894MOL0     H20627   0.840   8.719   4.315  0.4273 -0.5411 -0.5981
  894MOL0     H20628   0.846   8.893   4.353  1.3955  0.2724  0.4920
  894MOL0     H20629   1.063   8.760   4.310 -1.3989  1.2027 -0.1333
  894MOL0     H20630   1.071   8.894   4.197  1.2914 -0.3162 -1.5139
  894MOL0     H20631   0.977   8.612   4.155 -0.9582  1.1371  2.9304
  894MOL0     H20632   0.998   8.722   4.011  2.5979 -1.9460 -1.6664
  894MOL0     H20633   1.222   8.649   4.197  0.9985  2.0888 -0.4192
  894MOL0     H20634   1.182   8.539   4.069 -2.6399 -0.2652  2.6520
  894MOL0     H20635   1.187   8.721   3.901 -3.2548 -1.2963  1.3295
  894MOL0     H20636   1.253   8.837   4.029  2.9012 -0.2821 -1.0829
  894MOL0     H20637   1.401   8.603   3.916  1.1288 -0.3602  0.6509
  894MOL0     H20638   1.440   8.698   4.062 -1.4514  1.4369  0.5350
  894MOL0     H20639   1.373   8.850   3.801  0.1109  0.6837 -0.0608
  894MOL0     H20640   1.469   8.888   3.949  0.0121 -0.8745  1.5433
  894MOL0     H20641   1.711   8.711   3.961 -0.1482 -4.4390 -0.1257
  894MOL0     H20642   1.908   8.544   3.830  2.3239  0.6882 -0.0208
  894MOL0     H20643   1.874   8.511   3.668  2.5701 -2.8289  3.5284
  894MOL0     H20644   1.959   8.738   3.624  0.0516 -1.1171 -0.0126
  894MOL0     H20645   2.012   8.752   3.793  1.1603  0.5872 -0.6218
  894MOL0     H20646   2.102   8.515   3.609 -1.9076 -0.9875  1.6108
  894MOL0     H20647   2.143   8.545   3.776  0.6868  0.4091 -0.7105
  894MOL0     H20648   2.227   8.730   3.555  2.4466 -0.0442  0.1378
  894MOL0     H20649   2.329   8.610   3.621 -1.1089 -1.9453  0.7429
  894MOL0     H20650   2.498   8.676   3.818 -3.0469  0.4192 -0.3487
  894MOL0     H20651   2.718   8.779   3.770  0.3316  0.0020 -1.1616
  894MOL0     H20652   3.061   8.871   3.598 -2.9524  0.8644 -1.1030
  894MOL0     H20653   3.278   8.970   3.542 -0.8408 -0.2919 -1.6257
  894MOL0     H20654   3.296   9.395   3.516  1.3480 -1.1277 -1.2086
  894MOL0     H20655   3.353   9.407   3.693 -2.4561  1.4010 -0.3840
  894MOL0     H20656   3.576   9.350   3.618 -0.2748  0.1735  0.1676
  894MOL0     H20657   3.526   9.351   3.453  0.4712  1.4410 -0.5206
  894MOL0     H20658   3.430   9.599   3.500  0.5966 -1.0198 -1.4752
  894MOL0     H20659   3.520   9.589   3.657  1.3431  0.1302 -0.1416
  894MOL0     H20660   3.645   9.552   3.376 -0.8650  0.6767  0.0202
  894MOL0     H20661   3.730   9.600   3.516  1.0985 -1.5178 -1.2973
  894MOL0     H20662   3.525   9.774   3.373 -0.7938  3.0004  1.6104
  894MOL0     H20663   3.704   9.766   3.363 -0.9131 -3.2546 -0.6939
  894MOL0     H20664   3.535   9.822   3.604  1.3798 -1.5169  1.1996
  894MOL0     H20665   3.716   9.834   3.595 -0.8503 -0.1026  1.5850
  894MOL0     H20666   3.622  10.056   3.602  0.1451 -1.2876  0.4258
  894MOL0     H20667   3.498  10.032   3.481  0.2603  1.7141  0.5736
  894MOL0     H20668   3.649  10.026   3.310  1.2238  2.4184 -1.0566
  894MOL0     H20669   3.699  10.165   3.402  3.1972  0.0218 -0.0438
  894MOL0     H20670   3.141   9.334   3.734 -0.2606 -0.6643  0.1376
  894MOL0     H20671   2.939   9.234   3.788  1.0773  0.6567  0.0827
  894MOL0     H20672   2.518   9.129   3.601 -2.2240  1.0755  1.3358
  894MOL0     H20673   2.295   9.007   3.639  0.0507  1.2785  2.1044
  894MOL0     H20674   0.451   8.817   4.376  1.3286 -0.5252 -0.7568
  894MOL0     H20675   0.228   8.725   4.294 -2.4258  1.2399 -1.5343
  894MOL0     H20676  -0.037   8.620   4.204  0.9351  0.7978 -1.6231
  894MOL0     H20677  -0.234   8.495   4.253 -3.0926 -3.1841 -0.8248
  894MOL0     H20678  -0.468   8.417   4.173 -2.5974 -1.0274  1.4723
  894MOL0     H20679  -0.374   8.321   4.295 -1.0886 -0.8508  0.7379
  894MOL0     H20680  -0.611   8.245   4.285  0.9036  0.4420  0.0773
  894MOL0     H20681  -0.507   8.118   4.245  1.2799 -0.6880 -1.9923
  894MOL0     H20682  -0.562   8.168   3.988  0.5415 -0.2394  0.4086
  894MOL0     H20683  -0.619   8.324   4.042 -0.1005  0.3744  2.1260
  894MOL0     H20684  -0.827   8.212   4.141 -1.4029 -1.2880 -0.9805
  894MOL0     H20685  -0.813   8.164   3.978  0.3795 -0.0848 -1.1793
  894MOL0     H20686  -0.755   7.813   4.211  1.1624  0.0507  0.0796
  894MOL0     H20687  -0.186   8.312   3.852  0.3432  0.1015 -0.4194
  894MOL0     H20688  -0.028   8.586   3.713  3.1886 -0.2219  1.3427
  894MOL0     H20689   0.051   8.442   3.727  1.0421  3.2820 -2.6186
  894MOL0     H20690  -0.121   8.433   3.681  1.8049 -0.9103 -1.4043
  895MOL0     O20691   1.330  10.722   2.664  0.2025 -0.1623 -0.1823
  895MOL0     C20692   1.259  10.679   2.574 -0.9514  0.9865  0.4496
  895MOL0     O20693   1.285  10.705   2.444 -0.0460  0.1282  1.0168
  895MOL0     C20694   1.405  10.763   2.408 -0.1724 -0.7952  0.4354
  895MOL0     C20695   1.414  10.904   2.370 -0.2777  0.8936 -0.9907
  895MOL0     C20696   1.527  10.962   2.329 -0.5714  0.1506 -0.1482
  895MOL0     C20697   1.645  10.888   2.309  0.8218  0.9198  0.2928
  895MOL0     O20698   1.766  10.940   2.272 -0.1473 -0.1540  0.2397
  895MOL0     C20699   1.783  11.084   2.267  0.5855 -0.4267  0.2301
  895MOL0     C20700   1.930  11.141   2.250 -0.7725 -0.2456  0.5808
  895MOL0     C20701   2.014  11.077   2.129  0.4182 -0.3055 -0.3672
  895MOL0     C20702   2.142  11.161   2.110  0.0184 -0.8705  0.1696
  895MOL0     C20703   2.221  11.100   1.995  0.1927 -0.4155  0.9005
  895MOL0     C20704   2.343  11.184   1.965 -0.2035 -0.3187 -0.0399
  895MOL0     C20705   2.420  11.142   1.840 -1.4145 -0.2065  0.0595
  895MOL0     C20706   2.555  11.210   1.839  0.3075  0.5260 -0.3764
  895MOL0     N20707   2.617  11.188   1.717 -0.0970  0.3258  1.2405
  895MOL0     C20708   2.650  11.073   1.654  0.3988 -0.3917 -0.6040
  895MOL0     C20709   2.739  11.113   1.562 -0.8309 -0.3429  0.1550
  895MOL0     C20710   2.817  11.021   1.469  0.1131 -0.7091  0.0510
  895MOL0     C20711   2.917  11.091   1.375  1.2089 -0.6039 -0.5146
  895MOL0     C20712   3.024  10.995   1.305 -0.5995 -0.9415  0.2089
  895MOL0     C20713   3.117  10.923   1.412 -0.5980  0.0839  0.3639
  895MOL0     O20714   3.234  10.874   1.337 -0.9207 -0.2167  0.3065
  895MOL0     C20715   3.348  10.947   1.326 -0.3503 -0.2955 -0.5686
  895MOL0     C20716   3.459  10.882   1.264 -0.6586 -0.6900  0.2424
  895MOL0     C20717   3.589  10.933   1.266 -0.4543  0.7282  0.9797
  895MOL0     C20718   3.608  11.062   1.312  0.8812 -0.0280  0.3430
  895MOL0     C20719   3.744  11.124   1.309  1.0329 -0.8586 -0.2184
  895MOL0     O20720   3.846  11.040   1.277  0.2660 -0.0692 -0.3166
  895MOL0     C20721   3.981  11.072   1.266 -0.2834  0.7098  0.0138
  895MOL0     C20722   4.034  11.195   1.234 -0.9847 -0.3764  0.4480
  895MOL0     C20723   4.167  11.216   1.207 -0.7983 -0.0784  0.3263
  895MOL0     C20724   4.247  11.105   1.194 -0.8761  0.5112 -0.5560
  895MOL0     O20725   4.378  11.128   1.156  0.2260 -0.3073  0.7066
  895MOL0     C20726   4.477  11.153   1.253 -0.4932 -0.5311  0.2898
  895MOL0     C20727   4.551  11.270   1.183  0.0948  0.4305 -0.1848
  895MOL0     C20728   4.668  11.324   1.270 -0.2078 -0.4134 -0.2079
  895MOL0     C20729   4.643  11.430   1.378  0.2961 -0.5136  0.1310
  895MOL0     C20730   4.776  11.487   1.440  0.3727 -0.3050  0.1565
  895MOL0     C20731   4.846  11.583   1.344 -0.4198  0.1180 -0.1299
  895MOL0     C20732   4.762  11.699   1.286  0.0455  0.2452 -0.5711
  895MOL0     C20733   4.710  11.659   1.147  0.2557 -0.4193 -0.7460
  895MOL0    Cl20734   4.678  11.793   1.031  0.4761 -0.0359  0.0227
  895MOL0     C20735   4.203  10.984   1.211 -0.6917 -0.1289 -0.0117
  895MOL0     C20736   4.074  10.970   1.250  0.9164  1.3923  0.7064
  895MOL0     O20737   3.762  11.244   1.342  0.5914 -0.3416  0.6048
  895MOL0     C20738   3.501  11.132   1.372 -0.1119 -0.1992 -0.5379
  895MOL0     C20739   3.376  11.075   1.379  0.1756  0.0370 -0.1675
  895MOL0     N20740   2.747  11.250   1.563  1.0708 -0.3849  0.0386
  895MOL0     N20741   2.679  11.293   1.660  0.1376 -0.5767 -0.1788
  895MOL0     C20742   1.635  10.754   2.354 -1.0980  0.2633  0.7125
  895MOL0     C20743   1.518  10.693   2.392  0.3715  0.3799 -0.2877
  895MOL0     C20744   1.143  10.591   2.610  0.0485 -0.7853 -0.4709
  895MOL0     C20745   1.033  10.595   2.517 -0.3601  0.3667 -0.2973
  895MOL0     C20746   0.912  10.525   2.544  0.3035 -0.1749  0.5073
  895MOL0     C20747   0.896  10.457   2.662 -0.1999  0.2992 -0.0643
  895MOL0     O20748   0.782  10.384   2.705  0.2150 -0.1552  0.1078
  895MOL0     C20749   0.678  10.363   2.609 -0.2323 -0.1979  0.9485
  895MOL0     C20750   0.625  10.224   2.611 -0.4061  0.0610 -0.1879
  895MOL0     C20751   0.609  10.153   2.749 -0.1451 -0.4500  0.4922
  895MOL0     C20752   0.524  10.232   2.848  0.7455 -0.6617  0.0400
  895MOL0     C20753   0.386  10.250   2.801  0.3848  0.0755  0.1743
  895MOL0     C20754   0.272  10.266   2.760  0.3059  0.7124  0.0635
  895MOL0     C20755   1.008  10.445   2.744  0.1827  0.2021 -0.7146
  895MOL0     C20756   1.128  10.504   2.722  0.6592  0.0170 -0.7029
  895MOL0     C20757   1.241  10.484   2.827 -0.4037 -0.3314  0.3697
  895MOL0     H20758   1.330  10.971   2.382 -1.1319 -0.1018 -1.2198
  895MOL0     H20759   1.522  11.069   2.311  0.4316  0.2675  0.1694
  895MOL0     H20760   1.716  11.117   2.187  1.2435  1.0084  0.2489
  895MOL0     H20761   1.741  11.120   2.361  0.8306  1.4650 -0.3495
  895MOL0     H20762   1.979  11.136   2.348 -1.3959  0.4636  0.9445
  895MOL0     H20763   1.927  11.245   2.218 -0.3309 -1.1879 -2.8607
  895MOL0     H20764   1.970  11.095   2.031  1.1647  1.0974 -0.4694
  895MOL0     H20765   2.038  10.974   2.158 -1.2146  0.2135  3.4381
  895MOL0     H20766   2.120  11.266   2.089  1.1872  0.2081  3.6103
  895MOL0     H20767   2.213  11.168   2.193  1.6712 -2.2640 -1.0527
  895MOL0     H20768   2.257  10.997   2.006 -0.0381 -1.1390 -3.1807
  895MOL0     H20769   2.150  11.100   1.912  0.9832  1.9112  0.1599
  895MOL0     H20770   2.323  11.292   1.957  0.5858 -0.0174  1.6795
  895MOL0     H20771   2.412  11.182   2.049 -1.2262  0.4284  0.8492
  895MOL0     H20772   2.368  11.180   1.752  0.2298 -2.2052 -1.8742
  895MOL0     H20773   2.413  11.032   1.839 -0.2558 -0.2851 -0.9066
  895MOL0     H20774   2.532  11.313   1.868 -0.5059 -0.1813  1.7295
  895MOL0     H20775   2.612  11.176   1.926 -2.8388  1.5570  2.2781
  895MOL0     H20776   2.620  10.971   1.677 -2.3842  0.2045 -1.2188
  895MOL0     H20777   2.875  10.951   1.529  1.5524 -0.7722 -1.3550
  895MOL0     H20778   2.746  10.971   1.403 -0.0586 -0.6783  0.2125
  895MOL0     H20779   2.860  11.145   1.299  2.1256  2.9089  1.0663
  895MOL0     H20780   2.968  11.173   1.427 -0.4665  0.3235 -0.2562
  895MOL0     H20781   3.083  11.066   1.246 -0.6470 -1.3582 -0.3519
  895MOL0     H20782   2.981  10.932   1.227 -0.0172 -0.9705 -0.0973
  895MOL0     H20783   3.068  10.839   1.461  0.3060 -0.4793  0.3233
  895MOL0     H20784   3.151  10.994   1.488  3.4143  1.8580 -2.6895
  895MOL0     H20785   3.456  10.777   1.237  2.7410 -0.4780 -1.4991
  895MOL0     H20786   3.674  10.893   1.211  0.5838  2.5211  1.2172
  895MOL0     H20787   3.977  11.288   1.237  1.4158  1.2087 -0.1682
  895MOL0     H20788   4.204  11.318   1.203  2.4489 -0.8934  3.6233
  895MOL0     H20789   4.446  11.178   1.355  1.0773 -0.0660  0.6728
  895MOL0     H20790   4.542  11.064   1.257 -2.7608 -2.2413  1.7332
  895MOL0     H20791   4.591  11.236   1.087 -1.3820 -0.1379 -0.6265
  895MOL0     H20792   4.483  11.354   1.165  1.1973  0.6795 -3.9775
  895MOL0     H20793   4.716  11.234   1.310  0.5591 -0.1706 -0.5491
  895MOL0     H20794   4.750  11.351   1.202  1.2620  0.1798  1.6841
  895MOL0     H20795   4.579  11.401   1.461  2.2500  2.3136  2.8833
  895MOL0     H20796   4.577  11.508   1.338 -1.4724 -1.8212  0.3765
  895MOL0     H20797   4.844  11.403   1.457  0.6335  0.2895  2.4387
  895MOL0     H20798   4.760  11.543   1.533 -0.3469 -0.2509  0.0099
  895MOL0     H20799   4.938  11.610   1.397  0.0236 -4.1739  1.7390
  895MOL0     H20800   4.892  11.526   1.263  2.7993  0.1897  1.4796
  895MOL0     H20801   4.825  11.787   1.272  1.0278  0.0102  1.9001
  895MOL0     H20802   4.684  11.733   1.355  1.9744  1.4516  1.1026
  895MOL0     H20803   4.784  11.595   1.099 -0.6840 -4.1626  2.3019
  895MOL0     H20804   4.619  11.598   1.153  1.7125 -2.5310  1.9551
  895MOL0     H20805   4.271  10.899   1.201 -0.3910 -0.2853  2.5172
  895MOL0     H20806   4.053  10.864   1.260  1.1450  1.3882  1.1906
  895MOL0     H20807   3.519  11.236   1.398 -0.1087  0.7314 -3.7908
  895MOL0     H20808   3.294  11.125   1.431 -0.0899  1.1481 -1.5665
  895MOL0     H20809   1.731  10.703   2.348 -0.5529  1.3460 -0.0909
  895MOL0     H20810   1.500  10.588   2.415 -3.2173  0.5596 -1.6865
  895MOL0     H20811   1.041  10.634   2.416  2.5698 -1.1456 -0.7591
  895MOL0     H20812   0.831  10.540   2.474 -0.9812  1.5373  2.2248
  895MOL0     H20813   0.710  10.384   2.507  2.3381 -1.3753  1.4343
  895MOL0     H20814   0.594  10.427   2.635 -0.5494 -1.5344  3.6105
  895MOL0     H20815   0.702  10.162   2.564 -1.2943 -1.0656 -0.1957
  895MOL0     H20816   0.535  10.218   2.549  1.0323 -1.1411 -2.2819
  895MOL0     H20817   0.713  10.146   2.784  0.8792 -0.9129 -2.3551
  895MOL0     H20818   0.571  10.051   2.739 -0.4328 -0.3539  0.6061
  895MOL0     H20819   0.523  10.176   2.942 -1.2001 -1.1809 -0.2505
  895MOL0     H20820   0.569  10.331   2.860  2.6220 -1.5077  0.4604
  895MOL0     H20821   0.185  10.272   2.698 -0.1401 -1.9860  0.3121
  895MOL0     H20822   0.993  10.393   2.839 -0.2627 -0.7016 -1.2649
  895MOL0     H20823   1.341  10.488   2.784  0.1244 -0.5496  1.5356
  895MOL0     H20824   1.235  10.567   2.897  2.0086  2.9402 -2.9262
  895MOL0     H20825   1.224  10.393   2.886 -1.2060 -0.4462 -0.0158
  896MOL0     O20826   2.318   5.725   0.325  0.0962 -0.1022  0.3586
  896MOL0     C20827   2.316   5.626   0.391  0.8480  0.3899 -0.0032
  896MOL0     O20828   2.435   5.574   0.449 -0.1183 -0.0395  0.7118
  896MOL0     C20829   2.551   5.633   0.423 -0.2024  0.7511  0.6589
  896MOL0     C20830   2.607   5.715   0.520  0.8543  0.0626  0.5636
  896MOL0     C20831   2.734   5.767   0.502 -0.1698 -0.0215  0.1389
  896MOL0     C20832   2.800   5.745   0.375 -0.9367 -0.2573 -0.8426
  896MOL0     O20833   2.914   5.814   0.349  0.5732 -0.1159 -0.1646
  896MOL0     C20834   2.973   5.900   0.453 -0.0399 -0.3144 -0.5225
  896MOL0     C20835   3.114   5.949   0.407 -0.0159  0.7168  0.8602
  896MOL0     C20836   3.168   6.049   0.496 -0.2270 -1.0410 -0.2460
  896MOL0     C20837   3.316   6.060   0.467  0.2355  0.5792 -1.2378
  896MOL0     C20838   3.364   6.186   0.520  0.2743  0.3213 -0.3557
  896MOL0     C20839   3.514   6.220   0.497 -0.7952  0.5686  0.5702
  896MOL0     C20840   3.562   6.342   0.560 -0.5092  0.3889  0.9639
  896MOL0     C20841   3.689   6.388   0.488  0.6516  0.9413 -0.4221
  896MOL0     N20842   3.811   6.296   0.494  0.5188  0.2180  0.5496
  896MOL0     C20843   3.917   6.308   0.580 -1.2235 -0.7672  0.9021
  896MOL0     C20844   4.000   6.212   0.552 -0.1780  0.6065 -0.3257
  896MOL0     C20845   4.123   6.179   0.633 -0.7470 -0.6702 -0.2374
  896MOL0     C20846   4.249   6.192   0.542 -0.2538  0.0235 -0.5213
  896MOL0     C20847   4.383   6.160   0.609  0.9824  0.3372 -0.4590
  896MOL0     C20848   4.484   6.134   0.498 -0.0330 -0.0745  0.3927
  896MOL0     O20849   4.602   6.090   0.563  0.5210 -0.5448 -0.5752
  896MOL0     C20850   4.709   6.071   0.480  0.6796 -0.0380  0.4694
  896MOL0     C20851   4.837   6.088   0.529  0.0325 -0.0134 -0.3730
  896MOL0     C20852   4.947   6.066   0.452 -0.2210 -0.3208 -0.5809
  896MOL0     C20853   4.943   6.020   0.323  0.1822 -0.2873 -0.0973
  896MOL0     C20854   5.062   5.989   0.255  0.7154 -0.7488 -0.0599
  896MOL0     O20855   5.181   6.040   0.306  0.3274  0.3498 -0.3472
  896MOL0     C20856   5.297   6.001   0.249 -0.2773  0.1480 -0.7677
  896MOL0     C20857   5.405   6.076   0.297  0.5434  0.1939  0.7140
  896MOL0     C20858   5.537   6.047   0.259 -0.5456 -0.1031 -0.1120
  896MOL0     C20859   5.568   5.945   0.168  1.5225  0.2338  0.2764
  896MOL0     O20860   5.705   5.924   0.147  1.0820  0.9894  0.2095
  896MOL0     C20861   5.753   5.842   0.038 -0.4365 -0.2594  0.8819
  896MOL0     C20862   5.902   5.859   0.022 -0.2407  0.4912 -0.1824
  896MOL0     C20863   5.971   5.761  -0.074  0.5261  0.0277  0.9551
  896MOL0     C20864   5.931   5.792  -0.224 -0.0247  0.4672  0.1884
  896MOL0     C20865   5.998   5.701  -0.326  0.7251  0.1781  0.0500
  896MOL0     C20866   6.150   5.713  -0.321 -0.1300 -0.8551  0.2979
  896MOL0     C20867   6.217   5.649  -0.449 -0.2303 -0.4327  0.3101
  896MOL0     C20868   6.372   5.665  -0.447  0.5658 -0.2705  0.5189
  896MOL0    Cl20869   6.446   5.601  -0.301 -0.0147 -0.1647  0.2564
  896MOL0     C20870   5.461   5.867   0.116  0.8225  0.5859  0.9810
  896MOL0     C20871   5.330   5.889   0.165  0.1845 -0.8447  0.9497
  896MOL0     O20872   5.046   5.927   0.156  0.4856  0.8899  0.5286
  896MOL0     C20873   4.817   6.005   0.270 -0.0918 -1.0641  0.8828
  896MOL0     C20874   4.699   6.038   0.344 -0.4563  0.4187 -0.0926
  896MOL0     N20875   3.947   6.131   0.464  0.4691  1.1131  0.2815
  896MOL0     N20876   3.836   6.184   0.424 -0.4291  0.0496  0.0185
  896MOL0     C20877   2.737   5.676   0.271 -0.5971 -0.3551  0.6601
  896MOL0     C20878   2.612   5.614   0.297  0.0772  0.6848  0.3435
  896MOL0     C20879   2.182   5.554   0.412  0.0473 -0.0322  0.1786
  896MOL0     C20880   2.084   5.571   0.309 -0.6372 -0.4088 -0.1818
  896MOL0     C20881   1.967   5.489   0.301 -0.2792 -0.0199 -0.0813
  896MOL0     C20882   1.941   5.411   0.408  0.5610 -0.2204 -1.2041
  896MOL0     O20883   1.818   5.346   0.405  0.0270 -0.1831  0.1494
  896MOL0     C20884   1.722   5.363   0.509 -0.7580 -0.3904 -0.1962
  896MOL0     C20885   1.584   5.320   0.463 -0.8718  0.3534 -0.0290
  896MOL0     C20886   1.534   5.432   0.358 -0.5050 -0.0851  0.4302
  896MOL0     C20887   1.389   5.411   0.297  0.5653  0.3902  0.0989
  896MOL0     C20888   1.301   5.355   0.390 -0.8716  0.0859  0.3355
  896MOL0     C20889   1.227   5.305   0.469  0.8305 -0.3063 -0.5720
  896MOL0     C20890   2.024   5.397   0.520  0.0681  0.3503 -0.2708
  896MOL0     C20891   2.148   5.465   0.516 -0.0003 -0.1456 -0.2249
  896MOL0     C20892   2.238   5.433   0.635  0.0366 -0.0149 -0.8138
  896MOL0     H20893   2.553   5.725   0.613  2.2201  2.3009  1.1949
  896MOL0     H20894   2.775   5.826   0.583 -1.0565 -0.4954  0.9726
  896MOL0     H20895   2.905   5.984   0.470 -0.4275 -0.1630 -2.5509
  896MOL0     H20896   2.988   5.846   0.547  2.3164 -0.0627 -0.7043
  896MOL0     H20897   3.094   6.009   0.317 -0.0113  0.0549  0.4154
  896MOL0     H20898   3.177   5.864   0.382  0.6468  2.1269 -2.7988
  896MOL0     H20899   3.144   6.015   0.597 -0.1313  0.6515  0.3737
  896MOL0     H20900   3.117   6.143   0.471 -0.5642 -1.5634 -1.6061
  896MOL0     H20901   3.375   5.980   0.512  1.3837  0.6167 -2.5829
  896MOL0     H20902   3.328   6.049   0.358  0.7763  2.1508 -1.3646
  896MOL0     H20903   3.305   6.267   0.477  1.4011  1.5191  0.2672
  896MOL0     H20904   3.357   6.182   0.629 -0.8397 -1.2440 -0.4480
  896MOL0     H20905   3.566   6.138   0.547  0.1647 -0.4637 -1.9521
  896MOL0     H20906   3.535   6.213   0.390  0.9601  0.6032  0.8779
  896MOL0     H20907   3.598   6.322   0.661  0.3603 -1.7314  0.2939
  896MOL0     H20908   3.484   6.418   0.550  1.8088  3.2457  2.9727
  896MOL0     H20909   3.655   6.392   0.385  2.2270  1.6685 -0.9498
  896MOL0     H20910   3.701   6.490   0.527  0.8003  0.3291  1.2125
  896MOL0     H20911   3.931   6.385   0.656 -0.4232 -0.2986  0.2947
  896MOL0     H20912   4.124   6.251   0.715  0.7081 -1.3934  0.4258
  896MOL0     H20913   4.122   6.077   0.673 -1.3778 -0.5141  0.1559
  896MOL0     H20914   4.237   6.114   0.466 -2.4814 -0.2765  0.0677
  896MOL0     H20915   4.254   6.295   0.503  0.4497  1.4739  3.0111
  896MOL0     H20916   4.355   6.069   0.664 -0.5225  1.3361  0.5100
  896MOL0     H20917   4.412   6.238   0.680  2.0112 -1.1830  0.8752
  896MOL0     H20918   4.497   6.229   0.446 -0.9636 -0.2987 -0.2848
  896MOL0     H20919   4.442   6.064   0.425 -1.3861  1.7210 -0.6319
  896MOL0     H20920   4.850   6.111   0.634  2.2000 -0.0333 -0.5998
  896MOL0     H20921   5.037   6.076   0.512 -0.9699 -0.2870  0.5691
  896MOL0     H20922   5.390   6.165   0.358  3.4827  1.0067  0.3976
  896MOL0     H20923   5.624   6.092   0.306  2.8707 -4.4210 -1.5981
  896MOL0     H20924   5.725   5.737   0.052 -0.5501  0.0607  3.8412
  896MOL0     H20925   5.722   5.874  -0.062 -0.1344 -1.9722  0.2093
  896MOL0     H20926   5.931   5.963   0.005 -0.6654  0.4419 -1.3443
  896MOL0     H20927   5.935   5.833   0.123  3.2667 -4.4705 -2.2303
  896MOL0     H20928   6.078   5.782  -0.066  0.4691  0.3107  0.9583
  896MOL0     H20929   5.963   5.656  -0.042 -0.7420 -0.5673 -1.1059
  896MOL0     H20930   5.969   5.893  -0.245  0.6234  0.4571  1.2120
  896MOL0     H20931   5.824   5.811  -0.237  0.3860  2.1383 -1.1863
  896MOL0     H20932   5.955   5.722  -0.425  1.5157 -0.6470 -0.4896
  896MOL0     H20933   5.974   5.596  -0.308 -0.1595  0.4640  0.5958
  896MOL0     H20934   6.180   5.818  -0.319  0.1845 -0.8866 -1.4224
  896MOL0     H20935   6.190   5.658  -0.235  2.8607 -1.1041 -1.0888
  896MOL0     H20936   6.181   5.699  -0.539 -0.2996  2.0614  1.6388
  896MOL0     H20937   6.189   5.543  -0.456  0.3851 -0.7708  2.2758
  896MOL0     H20938   6.410   5.610  -0.534 -0.0375  0.9448 -0.5404
  896MOL0     H20939   6.408   5.768  -0.457  0.5335 -0.4219 -1.5339
  896MOL0     H20940   5.494   5.792   0.044  3.1337  1.9443  0.5141
  896MOL0     H20941   5.260   5.818   0.121 -1.7213  0.7452  1.2902
  896MOL0     H20942   4.802   5.992   0.163  1.8137  2.8226 -0.0316
  896MOL0     H20943   4.615   6.021   0.278 -0.3818 -2.5979  0.4388
  896MOL0     H20944   2.793   5.668   0.178  0.8835  2.7694  1.1570
  896MOL0     H20945   2.570   5.554   0.216 -1.2611  1.5046  0.4077
  896MOL0     H20946   2.115   5.631   0.224  0.9264  0.1723  0.7446
  896MOL0     H20947   1.900   5.508   0.217 -0.9282 -0.2574  0.3754
  896MOL0     H20948   1.729   5.467   0.543  0.4735 -0.9542  1.3447
  896MOL0     H20949   1.741   5.309   0.602 -0.8414 -2.0980 -1.1320
  896MOL0     H20950   1.521   5.298   0.550 -1.3188  0.9283 -0.2056
  896MOL0     H20951   1.597   5.224   0.411 -0.7765  0.0204  0.5989
  896MOL0     H20952   1.602   5.450   0.274  2.5703  0.5005  2.8609
  896MOL0     H20953   1.526   5.526   0.414 -2.9389  0.4840 -0.7168
  896MOL0     H20954   1.347   5.503   0.255  0.1182  0.1725  0.0675
  896MOL0     H20955   1.394   5.340   0.214 -2.8469  1.8589 -1.5537
  896MOL0     H20956   1.163   5.267   0.546 -0.0649  0.6442 -0.8203
  896MOL0     H20957   2.000   5.326   0.599  1.0432  1.5023  1.1254
  896MOL0     H20958   2.340   5.471   0.620 -0.1257  1.2442  1.0578
  896MOL0     H20959   2.210   5.478   0.730  0.3100  2.6099 -1.8885
  896MOL0     H20960   2.239   5.326   0.657 -0.6260  0.6003  2.6780
  897MOL0     O20961  10.948   9.990   4.585  0.4690  1.0657  0.3014
  897MOL0     C20962  10.830  10.010   4.623 -0.9538  0.7093  0.4369
  897MOL0     O20963  10.801  10.068   4.745 -0.4832  0.1821  0.1859
  897MOL0     C20964  10.908  10.079   4.832 -0.1871  0.6556 -0.7987
  897MOL0     C20965  10.911  10.006   4.952 -1.0611  0.6603 -0.4867
  897MOL0     C20966  11.007  10.029   5.051  0.2725  0.1610 -0.2036
  897MOL0     C20967  11.094  10.138   5.049 -0.5736 -0.1334 -0.3607
  897MOL0     O20968  11.172  10.160   5.155 -0.0089  0.1755  0.1320
  897MOL0     C20969  11.312  10.120   5.120 -0.2387 -0.7053 -0.0494
  897MOL0     C20970  11.397  10.122   5.248 -1.3895  0.4535 -0.7393
  897MOL0     C20971  11.432  10.266   5.291  0.1760 -0.1628  0.4234
  897MOL0     C20972  11.558  10.281   5.377 -0.4197  0.6106  0.3473
  897MOL0     C20973  11.575  10.424   5.433  0.2424  0.1610 -0.5923
  897MOL0     C20974  11.694  10.445   5.524 -0.0428  0.3564 -0.4745
  897MOL0     C20975  11.705  10.593   5.561  0.4775 -1.1195 -0.3639
  897MOL0     C20976  11.839  10.621   5.624 -0.1569 -0.4647 -0.1369
  897MOL0     N20977  11.849  10.764   5.669  0.2918  0.0967  0.3045
  897MOL0     C20978  11.859  10.875   5.590  0.3206  0.0479 -0.6432
  897MOL0     C20979  11.814  10.971   5.676 -0.1928  0.0636  0.0368
  897MOL0     C20980  11.813  11.119   5.657 -0.0422 -0.5565  0.2148
  897MOL0     C20981  11.958  11.174   5.638 -0.4877  0.7920  0.2895
  897MOL0     C20982  12.034  11.147   5.768  0.5651 -0.7536  0.3628
  897MOL0     C20983  12.171  11.202   5.772  0.2286  0.5978 -0.2503
  897MOL0     O20984  12.265  11.124   5.693  0.1271 -0.2517  0.1337
  897MOL0     C20985  12.396  11.149   5.725 -0.0445  0.0457  0.4263
  897MOL0     C20986  12.445  11.282   5.709 -0.3792  0.0352 -0.4295
  897MOL0     C20987  12.585  11.299   5.721  0.6170 -0.1570 -0.0608
  897MOL0     C20988  12.670  11.194   5.750 -0.4849 -0.2526 -0.7979
  897MOL0     C20989  12.812  11.221   5.763 -0.5109 -0.5002 -0.6827
  897MOL0     O20990  12.858  11.347   5.736 -0.7053 -0.1147  0.3654
  897MOL0     C20991  12.984  11.380   5.779 -0.4627  0.0770  0.0016
  897MOL0     C20992  13.013  11.467   5.896 -0.6698  0.4817 -0.9117
  897MOL0     C20993  13.147  11.502   5.909 -1.3583 -0.3036  1.0456
  897MOL0     C20994  13.252  11.446   5.830 -0.0042 -0.1343  0.4474
  897MOL0     O20995  13.384  11.484   5.849 -0.3629 -0.0972  0.2358
  897MOL0     C20996  13.457  11.390   5.924 -0.7443 -0.0812  0.1532
  897MOL0     C20997  13.603  11.430   5.965  0.2237  0.2829 -1.1724
  897MOL0     C20998  13.710  11.330   5.988 -0.2399  1.1505  0.2387
  897MOL0     C20999  13.753  11.266   5.855  0.5365 -0.2294 -0.5643
  897MOL0     C21000  13.903  11.243   5.849 -1.0263  0.1455 -0.2682
  897MOL0     C21001  13.946  11.135   5.744  0.5437  0.8547 -0.0478
  897MOL0     C21002  14.094  11.110   5.745 -0.6844 -0.3932 -0.0680
  897MOL0     C21003  14.152  11.027   5.634  0.9805  0.6601  0.2004
  897MOL0    Cl21004  14.061  10.864   5.623 -0.2540  0.2688  0.0748
  897MOL0     C21005  13.212  11.359   5.730  0.0790 -0.7983  0.1821
  897MOL0     C21006  13.079  11.322   5.706 -0.3137 -0.2811  0.5095
  897MOL0     O21007  12.887  11.133   5.808  0.1155  0.3945 -0.3923
  897MOL0     C21008  12.622  11.066   5.767  0.5451 -0.0965  0.5571
  897MOL0     C21009  12.488  11.044   5.749 -0.2171  0.4546  1.4099
  897MOL0     N21010  11.788  10.915   5.801 -0.4136  0.3601  0.5261
  897MOL0     N21011  11.803  10.789   5.793 -0.2678  0.2480  0.2437
  897MOL0     C21012  11.093  10.215   4.929  0.0320  0.2520 -0.6200
  897MOL0     C21013  11.006  10.186   4.820 -0.2509  0.8658 -0.3006
  897MOL0     C21014  10.716   9.996   4.533  0.0172 -0.2106  0.2002
  897MOL0     C21015  10.608  10.072   4.537  0.3761 -0.4337  0.7074
  897MOL0     C21016  10.498  10.062   4.452  0.1132  0.3168  0.4931
  897MOL0     C21017  10.479   9.956   4.371 -0.0274 -0.0139  0.4598
  897MOL0     O21018  10.376   9.927   4.286  0.5198 -0.4720 -0.6570
  897MOL0     C21019  10.272  10.024   4.248 -0.3965  1.0345 -0.0201
  897MOL0     C21020  10.136   9.979   4.293  0.0191  0.4628 -1.1580
  897MOL0     C21021  10.038  10.091   4.268 -0.4130 -0.2543 -0.2812
  897MOL0     C21022   9.891  10.061   4.304 -0.1378  0.7443 -0.2134
  897MOL0     C21023   9.800  10.170   4.272  0.2517 -0.2364  0.5644
  897MOL0     C21024   9.719  10.266   4.253 -0.5853  0.5545  0.3535
  897MOL0     C21025  10.586   9.869   4.362 -0.1109 -0.6318 -0.7097
  897MOL0     C21026  10.703   9.890   4.445  0.0880  0.3849 -0.6213
  897MOL0     C21027  10.797   9.782   4.431  0.5987 -0.7759  0.8516
  897MOL0     H21028  10.837   9.927   4.966  0.8172 -0.6488  3.0800
  897MOL0     H21029  11.010   9.971   5.143 -2.6240  0.4309  0.1597
  897MOL0     H21030  11.314  10.022   5.070  1.3269 -0.2239 -0.9853
  897MOL0     H21031  11.342  10.189   5.041 -0.7615  1.4931  1.5846
  897MOL0     H21032  11.496  10.078   5.232 -0.3031  2.2475  0.6529
  897MOL0     H21033  11.346  10.075   5.332 -0.2713  1.1986  0.3860
  897MOL0     H21034  11.355  10.307   5.357  0.5105 -0.4441  0.9916
  897MOL0     H21035  11.439  10.339   5.209  3.7052  0.8499  1.4497
  897MOL0     H21036  11.553  10.215   5.465  1.2485  0.3756  0.3024
  897MOL0     H21037  11.647  10.261   5.317  0.1713  3.4402  0.1285
  897MOL0     H21038  11.578  10.496   5.351  1.7940  0.4326 -0.3378
  897MOL0     H21039  11.487  10.446   5.494  1.0113  0.5005  0.4162
  897MOL0     H21040  11.681  10.390   5.618  1.3958  0.9395  0.0899
  897MOL0     H21041  11.790  10.409   5.487 -0.2528 -1.2005  0.3932
  897MOL0     H21042  11.630  10.604   5.640  1.9311 -2.5482  1.3008
  897MOL0     H21043  11.690  10.655   5.472  1.0314  0.3798  0.5350
  897MOL0     H21044  11.860  10.555   5.709 -1.2000 -0.3153  0.2495
  897MOL0     H21045  11.918  10.611   5.549  2.0097  0.6862  1.8409
  897MOL0     H21046  11.905  10.876   5.492  0.6949  1.8602 -0.4795
  897MOL0     H21047  11.757  11.150   5.568 -1.3920 -1.7659  0.6167
  897MOL0     H21048  11.763  11.180   5.732 -1.0013 -0.1211 -0.7489
  897MOL0     H21049  12.008  11.119   5.558 -1.7038  0.1505 -0.0462
  897MOL0     H21050  11.973  11.278   5.607  1.4598  0.0120 -1.6205
  897MOL0     H21051  12.036  11.040   5.789  1.6182 -1.0719 -1.1383
  897MOL0     H21052  11.980  11.194   5.850 -0.3862 -0.0118 -0.6637
  897MOL0     H21053  12.210  11.214   5.874  0.3531  2.1478 -0.4489
  897MOL0     H21054  12.164  11.309   5.751 -3.6118 -0.1763 -4.4033
  897MOL0     H21055  12.380  11.363   5.677  3.0383  3.1816 -0.0881
  897MOL0     H21056  12.614  11.404   5.714  2.6325 -0.7399 -1.0861
  897MOL0     H21057  12.930  11.501   5.957 -1.6022 -1.6486 -0.9019
  897MOL0     H21058  13.178  11.588   5.967  0.0163 -0.8170  1.1084
  897MOL0     H21059  13.408  11.358   6.017  0.4089  0.7445  1.0849
  897MOL0     H21060  13.480  11.308   5.856  2.3331  1.0085 -0.2985
  897MOL0     H21061  13.644  11.493   5.886  2.1335  2.1905  1.1534
  897MOL0     H21062  13.601  11.503   6.046 -0.3728  0.1864 -1.0956
  897MOL0     H21063  13.804  11.364   6.031  1.6508 -1.9924 -1.0313
  897MOL0     H21064  13.685  11.251   6.061  2.2409  2.4710  2.6912
  897MOL0     H21065  13.714  11.323   5.770 -0.8840  0.7472  0.6924
  897MOL0     H21066  13.703  11.169   5.846 -0.7080  0.4123 -0.6967
  897MOL0     H21067  13.932  11.214   5.951  2.2826 -0.2906 -1.2000
  897MOL0     H21068  13.956  11.334   5.820 -1.8995  0.6180 -0.3952
  897MOL0     H21069  13.895  11.040   5.761 -1.1856  1.3606 -1.9847
  897MOL0     H21070  13.923  11.168   5.642  1.1879 -0.7472 -0.7368
  897MOL0     H21071  14.135  11.068   5.837 -0.1139 -1.1157 -0.6444
  897MOL0     H21072  14.131  11.212   5.730 -3.3946  0.6324 -0.4246
  897MOL0     H21073  14.125  11.084   5.544  0.9361  0.3090 -0.0107
  897MOL0     H21074  14.261  11.017   5.639  0.9490 -0.5401 -0.9096
  897MOL0     H21075  13.292  11.328   5.663  0.2003  1.2892 -0.7457
  897MOL0     H21076  13.058  11.250   5.627  0.1439 -1.0960  1.1125
  897MOL0     H21077  12.698  10.992   5.793  1.9634  0.8605 -0.6448
  897MOL0     H21078  12.452  10.942   5.759  2.8706 -1.1543 -1.6017
  897MOL0     H21079  11.159  10.299   4.909  0.7043 -0.2302 -0.4720
  897MOL0     H21080  11.013  10.243   4.728 -2.1798  1.8482  0.1262
  897MOL0     H21081  10.599  10.152   4.610 -1.5378  1.7547 -1.7135
  897MOL0     H21082  10.418  10.131   4.478 -3.4419 -2.9963 -0.7474
  897MOL0     H21083  10.280  10.040   4.140  3.8682  0.3169  0.0082
  897MOL0     H21084  10.294  10.125   4.285 -1.5624  0.8437  1.3076
  897MOL0     H21085  10.128   9.951   4.399 -0.5751 -4.1802 -2.2322
  897MOL0     H21086  10.107   9.891   4.235  0.3941  0.2057 -0.9631
  897MOL0     H21087  10.038  10.116   4.162 -0.2950  2.0657  0.2287
  897MOL0     H21088  10.075  10.174   4.328  0.4159 -0.9210  0.1573
  897MOL0     H21089   9.864   9.968   4.253 -1.1746 -0.1236  1.8246
  897MOL0     H21090   9.889  10.048   4.412  0.3894  1.7932 -0.0610
  897MOL0     H21091   9.648  10.346   4.255 -2.2882 -0.8936  0.6346
  897MOL0     H21092  10.577   9.789   4.289 -1.7442 -2.1823  1.0553
  897MOL0     H21093  10.888   9.816   4.381  1.0277 -2.3327  0.5293
  897MOL0     H21094  10.827   9.743   4.529  2.6907 -0.0133  0.5591
  897MOL0     H21095  10.763   9.699   4.368  0.6651  2.6480 -4.2479
  898MOL0     O21096   6.888   2.862  11.095 -0.4689  0.1172 -0.5275
  898MOL0     C21097   6.813   2.916  11.013  0.3083  0.4054  0.3405
  898MOL0     O21098   6.849   2.968  10.893 -0.3704  0.1809 -0.3635
  898MOL0     C21099   6.982   2.938  10.856 -0.7043  0.1115  0.8118
  898MOL0     C21100   7.101   2.980  10.911  0.6046 -0.4067 -0.7378
  898MOL0     C21101   7.226   2.961  10.851  0.9284 -0.6599  0.0009
  898MOL0     C21102   7.231   2.881  10.739  0.8973  0.1652 -0.1665
  898MOL0     O21103   7.337   2.839  10.669  0.3400 -0.1269  0.4174
  898MOL0     C21104   7.465   2.879  10.716  0.5168  0.4119 -0.4688
  898MOL0     C21105   7.567   2.827  10.614  0.1493  0.6536 -0.2407
  898MOL0     C21106   7.710   2.890  10.640 -0.4688  0.0965  0.0620
  898MOL0     C21107   7.766   2.841  10.778 -0.5639  0.4305  0.4375
  898MOL0     C21108   7.907   2.906  10.802 -0.5530 -0.0149  1.0337
  898MOL0     C21109   7.955   2.917  10.947  0.3668 -0.1407 -0.1494
  898MOL0     C21110   8.085   2.977  10.979  0.5820 -0.3423 -0.2035
  898MOL0     C21111   8.197   2.913  10.897 -0.5019  0.8970 -0.4774
  898MOL0     N21112   8.324   2.966  10.948 -0.0457  0.1875 -0.2919
  898MOL0     C21113   8.409   2.905  11.035  0.1771  0.3684  0.5646
  898MOL0     C21114   8.520   2.977  11.043 -0.3342 -0.0055 -0.7870
  898MOL0     C21115   8.623   2.971  11.148 -0.4610 -0.2671 -0.3356
  898MOL0     C21116   8.760   2.988  11.081 -0.9513 -0.3193  0.7120
  898MOL0     C21117   8.783   2.883  10.974  0.8061  1.0324  0.1056
  898MOL0     C21118   8.933   2.874  10.940  0.7713  0.2042 -0.6853
  898MOL0     O21119   8.987   2.988  10.868  0.4751  0.4926  0.0386
  898MOL0     C21120   9.122   3.002  10.866  0.1319 -0.0163  0.1578
  898MOL0     C21121   9.157   3.136  10.891 -0.4797  0.3269 -0.2517
  898MOL0     C21122   9.294   3.172  10.896  0.3599  0.8437 -0.2724
  898MOL0     C21123   9.395   3.087  10.867 -0.2536 -0.0911  0.2349
  898MOL0     C21124   9.535   3.138  10.879 -0.5410 -0.1233 -0.9756
  898MOL0     O21125   9.617   3.033  10.854  0.0081 -1.1389  0.0301
  898MOL0     C21126   9.746   3.023  10.891 -0.1160 -0.3016 -1.0905
  898MOL0     C21127   9.844   3.125  10.901 -0.1949 -0.0468  0.5836
  898MOL0     C21128   9.974   3.088  10.931 -0.7078  0.2637 -0.5366
  898MOL0     C21129  10.010   2.955  10.953  0.2830  0.8856 -0.2559
  898MOL0     O21130  10.136   2.913  10.977 -0.3550  1.0717 -0.3131
  898MOL0     C21131  10.220   2.985  11.068  2.0378 -0.2057 -0.4500
  898MOL0     C21132  10.327   2.901  11.147 -0.0406 -0.4568 -0.4881
  898MOL0     C21133  10.379   2.989  11.255 -0.9083 -0.0154  0.5629
  898MOL0     C21134  10.509   2.922  11.298  0.1616 -0.8038 -0.4114
  898MOL0     C21135  10.594   2.991  11.400 -0.0185 -0.5325  0.3383
  898MOL0     C21136  10.737   2.933  11.405  0.7009 -0.7242  0.0002
  898MOL0     C21137  10.828   3.012  11.502 -0.6074  0.1940  0.2758
  898MOL0     C21138  10.965   2.943  11.515 -0.1094 -0.0495  0.4159
  898MOL0    Cl21139  11.070   3.036  11.637  0.5023 -0.1862 -0.3199
  898MOL0     C21140   9.918   2.853  10.951  0.4305  0.2939 -0.2483
  898MOL0     C21141   9.785   2.887  10.920 -0.2244 -0.5637 -1.1895
  898MOL0     O21142   9.565   3.245  10.926  0.0133 -0.0984 -0.0065
  898MOL0     C21143   9.361   2.954  10.850  0.4242 -0.1975  0.3031
  898MOL0     C21144   9.230   2.910  10.850 -0.7121  0.4774 -0.0205
  898MOL0     N21145   8.511   3.081  10.958  0.3483  0.5227 -0.2989
  898MOL0     N21146   8.396   3.065  10.889 -0.5442  0.6418 -0.5871
  898MOL0     C21147   7.122   2.851  10.664 -0.1201 -0.4645  0.1241
  898MOL0     C21148   6.999   2.877  10.729  0.5681  0.6360 -0.8453
  898MOL0     C21149   6.674   2.925  11.044 -0.3501 -0.0917 -0.1187
  898MOL0     C21150   6.648   2.945  11.180  0.0020 -1.0357 -0.3035
  898MOL0     C21151   6.515   2.966  11.225 -0.1501  0.2608  0.5060
  898MOL0     C21152   6.408   2.960  11.131 -0.3246 -0.2841 -0.0029
  898MOL0     O21153   6.277   2.969  11.159  0.9437 -0.2926  0.3287
  898MOL0     C21154   6.233   3.043  11.269 -0.1910 -0.5745 -0.3998
  898MOL0     C21155   6.267   3.194  11.267  0.1122 -0.3093  1.3766
  898MOL0     C21156   6.243   3.267  11.400  0.3648 -0.6687 -0.0129
  898MOL0     C21157   6.098   3.266  11.456  0.1371 -0.8079 -0.7306
  898MOL0     C21158   6.001   3.326  11.361  0.1514 -0.6118 -0.0693
  898MOL0     C21159   5.938   3.380  11.269  0.4004  0.1402 -0.5186
  898MOL0     C21160   6.438   2.940  10.996  0.3112 -0.5677  0.9954
  898MOL0     C21161   6.565   2.934  10.949 -0.2268  0.4875 -0.0411
  898MOL0     C21162   6.578   2.911  10.796  0.1178 -0.8251  0.4258
  898MOL0     H21163   7.091   3.041  11.000  1.0726 -0.7728 -0.4293
  898MOL0     H21164   7.316   3.003  10.895  1.3510 -3.5787  2.3022
  898MOL0     H21165   7.474   2.988  10.706 -1.1012  0.5171 -1.1980
  898MOL0     H21166   7.491   2.848  10.817  1.9853  1.2412 -0.5601
  898MOL0     H21167   7.544   2.861  10.512  0.8462  4.0209  0.6059
  898MOL0     H21168   7.569   2.717  10.617  0.4111  0.6638  0.0410
  898MOL0     H21169   7.708   2.999  10.635  1.4679  0.1162 -1.4207
  898MOL0     H21170   7.783   2.854  10.567 -1.0428 -0.7868 -0.0891
  898MOL0     H21171   7.711   2.883  10.863  1.4287  2.3211  0.8906
  898MOL0     H21172   7.780   2.732  10.781 -0.5649  0.3876 -0.7285
  898MOL0     H21173   7.979   2.848  10.743 -2.1543 -0.3343 -0.6908
  898MOL0     H21174   7.900   3.005  10.756  0.4075 -0.0916  0.6858
  898MOL0     H21175   7.873   2.968  10.999  0.3314  1.1716 -1.4157
  898MOL0     H21176   7.964   2.814  10.983 -1.7558 -0.4941 -0.4813
  898MOL0     H21177   8.101   2.963  11.086 -0.2121 -1.1208 -0.1765
  898MOL0     H21178   8.076   3.084  10.960 -1.2980 -0.6645 -1.4234
  898MOL0     H21179   8.196   2.803  10.899 -0.6461  0.8034 -2.8590
  898MOL0     H21180   8.182   2.948  10.795  0.5311  0.9375 -0.6241
  898MOL0     H21181   8.382   2.821  11.098  0.4229 -0.4055 -0.3508
  898MOL0     H21182   8.604   3.057  11.212 -0.5943 -0.6682  0.1679
  898MOL0     H21183   8.610   2.879  11.206 -4.0240  1.3185  1.7199
  898MOL0     H21184   8.773   3.088  11.038 -0.5723 -0.6289  0.0813
  898MOL0     H21185   8.840   2.986  11.156  0.1529  0.7915 -0.3810
  898MOL0     H21186   8.727   2.918  10.887 -2.1446 -0.4869  1.2571
  898MOL0     H21187   8.744   2.786  11.005  3.2981 -0.4604 -1.0611
  898MOL0     H21188   8.946   2.786  10.875  3.1794 -0.2639  0.3410
  898MOL0     H21189   8.992   2.873  11.032  0.0027  0.6903 -0.1768
  898MOL0     H21190   9.091   3.222  10.905  1.2503  1.4032  2.0369
  898MOL0     H21191   9.303   3.280  10.906 -1.8717  1.2773 -2.1037
  898MOL0     H21192   9.814   3.225  10.872 -1.8926 -1.0554 -1.3555
  898MOL0     H21193  10.045   3.169  10.944  0.4629 -0.4703 -2.1159
  898MOL0     H21194  10.267   3.070  11.018  1.1163  1.5700  1.5240
  898MOL0     H21195  10.158   3.029  11.147  1.5491 -2.1254  0.2980
  898MOL0     H21196  10.274   2.815  11.188 -0.2649 -0.9999 -1.8454
  898MOL0     H21197  10.404   2.859  11.081  0.5835 -0.4822  0.2488
  898MOL0     H21198  10.396   3.089  11.214  0.7765 -0.7495 -0.6485
  898MOL0     H21199  10.308   2.991  11.338 -0.2978  2.0020  1.0946
  898MOL0     H21200  10.573   2.918  11.209 -0.1220 -0.8037 -0.6173
  898MOL0     H21201  10.496   2.818  11.327  0.7621 -0.7325  0.1315
  898MOL0     H21202  10.551   2.984  11.501 -0.2848  1.0915  0.3509
  898MOL0     H21203  10.600   3.098  11.379  0.8187 -0.9246 -1.6278
  898MOL0     H21204  10.719   2.830  11.437 -0.6181 -1.4222 -2.6113
  898MOL0     H21205  10.773   2.931  11.302  0.7388  3.4568 -0.2304
  898MOL0     H21206  10.771   3.008  11.595 -2.6150 -0.0443 -0.9112
  898MOL0     H21207  10.842   3.115  11.468  0.4026 -1.0368 -3.6506
  898MOL0     H21208  10.951   2.841  11.553 -0.9698  0.4220  1.4175
  898MOL0     H21209  11.005   2.927  11.415 -1.6609  0.2418 -0.2731
  898MOL0     H21210   9.950   2.750  10.961  1.8780  0.7288 -0.1493
  898MOL0     H21211   9.710   2.809  10.915 -2.0624  1.0112  0.0731
  898MOL0     H21212   9.437   2.880  10.826  0.1205 -0.4301  0.0580
  898MOL0     H21213   9.215   2.803  10.835  2.4989 -0.0406 -0.2494
  898MOL0     H21214   7.121   2.794  10.571 -2.3392  0.3545 -0.4125
  898MOL0     H21215   6.912   2.847  10.671  1.1754 -3.0509 -0.0757
  898MOL0     H21216   6.735   2.959  11.244 -0.1554  2.1178 -0.6398
  898MOL0     H21217   6.488   3.000  11.324 -1.7432  1.6174 -0.3423
  898MOL0     H21218   6.299   3.007  11.349  0.3281 -0.1876 -0.6453
  898MOL0     H21219   6.127   3.028  11.291 -0.5184  1.5642 -0.2981
  898MOL0     H21220   6.207   3.234  11.185 -1.6957 -0.1591  2.7148
  898MOL0     H21221   6.375   3.202  11.254 -0.0333 -0.2377  0.1036
  898MOL0     H21222   6.275   3.371  11.396 -1.5169 -0.0779 -3.9043
  898MOL0     H21223   6.306   3.225  11.480  0.1163  1.1119  1.1764
  898MOL0     H21224   6.065   3.171  11.499  0.9098 -0.7427  0.0447
  898MOL0     H21225   6.095   3.327  11.547 -4.2096  2.1852 -2.5408
  898MOL0     H21226   5.888   3.430  11.189 -1.5171  0.2862  0.7012
  898MOL0     H21227   6.350   2.931  10.932 -0.5516  1.2200  1.8705
  898MOL0     H21228   6.667   2.851  10.773  0.2660  0.4817 -2.9788
  898MOL0     H21229   6.485   2.865  10.762  1.2112 -1.7656 -1.5076
  898MOL0     H21230   6.592   3.007  10.744  1.6990  0.0304  2.3111
  899MOL0     O21231   3.685   2.069   6.109  0.0886 -0.0938 -0.0277
  899MOL0     C21232   3.646   1.950   6.123  0.0227  0.0859  0.4512
  899MOL0     O21233   3.714   1.833   6.100  0.1480 -0.4331  0.1765
  899MOL0     C21234   3.833   1.838   6.028 -0.8601 -0.5864 -0.0320
  899MOL0     C21235   3.843   1.882   5.890  0.0106 -0.3962 -0.2115
  899MOL0     C21236   3.959   1.886   5.821  0.4438 -0.7466 -0.6897
  899MOL0     C21237   4.077   1.823   5.871  0.0554 -0.4089  0.1455
  899MOL0     O21238   4.188   1.810   5.790  0.1149  0.4281  0.2350
  899MOL0     C21239   4.306   1.755   5.851 -0.0279  0.3930 -0.3976
  899MOL0     C21240   4.403   1.783   5.744 -0.8617 -0.6891  0.2219
  899MOL0     C21241   4.548   1.775   5.785 -0.4965 -0.8671 -0.6147
  899MOL0     C21242   4.636   1.809   5.663 -0.4334 -0.0515 -0.4918
  899MOL0     C21243   4.789   1.805   5.699  0.0694 -0.7722 -0.2820
  899MOL0     C21244   4.882   1.820   5.582  0.1720 -1.5300 -0.7293
  899MOL0     C21245   5.022   1.783   5.632  0.0312 -0.7666 -0.0812
  899MOL0     C21246   5.114   1.803   5.513 -0.1177  0.1010  0.3397
  899MOL0     N21247   5.245   1.747   5.529  1.0590 -0.3679  0.0353
  899MOL0     C21248   5.275   1.612   5.506  0.4179 -0.1807  0.5475
  899MOL0     C21249   5.413   1.604   5.520  0.2232 -0.1331 -0.8225
  899MOL0     C21250   5.492   1.473   5.507 -0.1672 -0.2946  0.2669
  899MOL0     C21251   5.636   1.493   5.506  0.1329  0.5283 -0.2313
  899MOL0     C21252   5.679   1.513   5.357  0.2878  0.2145 -0.1331
  899MOL0     C21253   5.820   1.566   5.340 -0.3426 -0.3215  0.2762
  899MOL0     O21254   5.927   1.474   5.385  0.0995  0.6827  0.0239
  899MOL0     C21255   6.045   1.535   5.365 -0.5237 -0.0737  0.4141
  899MOL0     C21256   6.114   1.506   5.249 -0.5993  0.2510  0.0364
  899MOL0     C21257   6.246   1.538   5.240 -0.5175  0.6462 -0.1821
  899MOL0     C21258   6.305   1.630   5.333 -0.8205  0.1806 -0.2512
  899MOL0     C21259   6.437   1.684   5.302 -0.7644  0.6369 -1.1426
  899MOL0     O21260   6.502   1.749   5.408  1.0461 -0.1545  0.1040
  899MOL0     C21261   6.612   1.818   5.383  0.5204 -0.3880  0.2993
  899MOL0     C21262   6.710   1.816   5.483  0.6612  0.2206  0.5720
  899MOL0     C21263   6.834   1.881   5.468 -1.0859 -0.5856  0.0493
  899MOL0     C21264   6.858   1.976   5.365  0.0555  0.3605 -0.7554
  899MOL0     O21265   6.970   2.051   5.369 -0.4296  0.3179  0.1082
  899MOL0     C21266   6.974   2.177   5.302  0.6749  0.4513 -0.3650
  899MOL0     C21267   7.119   2.234   5.321  0.0264 -1.5714  0.5394
  899MOL0     C21268   7.130   2.369   5.249 -0.0261 -0.2757 -0.0250
  899MOL0     C21269   7.263   2.435   5.256 -0.4181  1.1032  1.2164
  899MOL0     C21270   7.384   2.355   5.201 -0.2314  0.0857 -0.6829
  899MOL0     C21271   7.401   2.342   5.055  0.3021 -0.4068  0.6735
  899MOL0     C21272   7.425   2.472   4.977 -0.0928 -0.5514  0.8304
  899MOL0     C21273   7.462   2.456   4.829 -1.0084  0.6829 -0.1059
  899MOL0    Cl21274   7.353   2.346   4.749  0.3877 -0.5393 -0.0085
  899MOL0     C21275   6.760   1.982   5.261  0.2642  0.3061 -0.3667
  899MOL0     C21276   6.635   1.907   5.275 -1.0436  0.9050  0.0393
  899MOL0     O21277   6.475   1.673   5.190 -0.3600  1.0033  0.3087
  899MOL0     C21278   6.228   1.681   5.428  0.7814 -0.1454 -0.8469
  899MOL0     C21279   6.099   1.620   5.453  0.1616  0.3576 -0.1737
  899MOL0     N21280   5.457   1.729   5.563  0.5351 -0.2747 -0.5419
  899MOL0     N21281   5.358   1.813   5.547  0.0343  0.6033 -0.1634
  899MOL0     C21282   4.066   1.775   6.006  0.3881 -0.9893  0.3663
  899MOL0     C21283   3.949   1.782   6.078 -0.6664  0.1353  0.1740
  899MOL0     C21284   3.513   1.946   6.199  0.1716  0.3002 -0.0625
  899MOL0     C21285   3.436   2.059   6.191  0.3869 -0.0542 -0.1575
  899MOL0     C21286   3.321   2.070   6.270  0.0308 -0.0608 -0.4333
  899MOL0     C21287   3.276   1.966   6.353 -0.7231  0.1733 -0.2800
  899MOL0     O21288   3.175   1.964   6.447  0.2876  0.1590  0.1851
  899MOL0     C21289   3.137   2.093   6.495 -0.6898  0.4867 -0.8116
  899MOL0     C21290   3.014   2.081   6.587 -0.1262 -0.0172  0.4642
  899MOL0     C21291   2.903   2.012   6.515  0.6454 -0.0929 -0.4092
  899MOL0     C21292   2.773   2.035   6.591  0.4498 -0.0780  0.1295
  899MOL0     C21293   2.700   2.156   6.561  0.3813  0.1953 -0.0468
  899MOL0     C21294   2.660   2.264   6.527  0.7527 -0.5347 -0.8221
  899MOL0     C21295   3.351   1.850   6.352 -0.7708  0.9497 -0.3700
  899MOL0     C21296   3.471   1.840   6.275 -0.8260 -0.6171  0.4387
  899MOL0     C21297   3.544   1.707   6.292 -0.0064 -0.6285  0.0545
  899MOL0     H21298   3.756   1.929   5.846  0.0106 -0.7622 -0.6058
  899MOL0     H21299   3.970   1.942   5.729  4.6709  0.3668  0.2624
  899MOL0     H21300   4.341   1.792   5.948 -1.1305 -1.6240  0.8381
  899MOL0     H21301   4.294   1.648   5.870 -0.6991  0.4398 -0.5278
  899MOL0     H21302   4.394   1.885   5.706 -2.3857 -1.0344 -0.4071
  899MOL0     H21303   4.386   1.720   5.656 -1.1092 -1.1376  0.5821
  899MOL0     H21304   4.561   1.670   5.812 -1.1873 -0.5817  0.9156
  899MOL0     H21305   4.571   1.847   5.864 -4.4393 -0.0098 -0.0282
  899MOL0     H21306   4.619   1.732   5.587  1.8011 -0.8063 -0.2965
  899MOL0     H21307   4.610   1.909   5.628 -2.2195 -0.3537 -0.0945
  899MOL0     H21308   4.809   1.887   5.768 -0.4346 -0.2129 -0.7841
  899MOL0     H21309   4.812   1.713   5.753  0.8183  0.0990  0.9388
  899MOL0     H21310   4.862   1.765   5.490 -0.4279  3.2248 -3.7857
  899MOL0     H21311   4.871   1.921   5.541  1.3110 -1.8819 -1.9737
  899MOL0     H21312   5.023   1.681   5.671  0.5540 -0.0481  1.9009
  899MOL0     H21313   5.062   1.852   5.707  0.4260 -0.5680 -0.4695
  899MOL0     H21314   5.075   1.735   5.436  1.5907  0.5786 -1.0273
  899MOL0     H21315   5.129   1.905   5.478  1.8983  0.2548  1.4982
  899MOL0     H21316   5.208   1.534   5.470  1.2786 -0.6690 -0.0336
  899MOL0     H21317   5.466   1.413   5.595 -0.4009  2.1401  1.9602
  899MOL0     H21318   5.470   1.420   5.414 -0.5267  0.9955 -0.3998
  899MOL0     H21319   5.654   1.578   5.573  1.0622 -0.8983  1.4275
  899MOL0     H21320   5.685   1.401   5.536  1.1676  1.7658  2.1784
  899MOL0     H21321   5.613   1.586   5.309 -0.4242  0.7670  1.6186
  899MOL0     H21322   5.657   1.414   5.315 -2.7745  0.4159  0.7814
  899MOL0     H21323   5.828   1.660   5.394 -0.5885  0.1814 -0.5379
  899MOL0     H21324   5.838   1.591   5.235 -0.1606  0.5496  0.5095
  899MOL0     H21325   6.065   1.457   5.165  1.0394  1.7173 -1.9037
  899MOL0     H21326   6.297   1.507   5.150 -1.1991  0.9942 -0.6912
  899MOL0     H21327   6.685   1.745   5.561 -1.7189 -0.9763 -1.1699
  899MOL0     H21328   6.909   1.875   5.546  0.4004  0.2679 -1.2439
  899MOL0     H21329   6.946   2.176   5.196 -0.0222  0.2979 -0.1869
  899MOL0     H21330   6.904   2.245   5.354 -0.8059 -1.7890  0.7329
  899MOL0     H21331   7.161   2.244   5.422 -1.4085  0.0012  1.0279
  899MOL0     H21332   7.186   2.164   5.269 -0.8625 -2.3596  0.4223
  899MOL0     H21333   7.104   2.352   5.144 -2.4263 -2.2507  0.7838
  899MOL0     H21334   7.064   2.436   5.305  3.3880  2.0057  1.6095
  899MOL0     H21335   7.282   2.447   5.363  1.6465  0.8876  0.9053
  899MOL0     H21336   7.248   2.534   5.212  0.4496  0.2050 -1.2337
  899MOL0     H21337   7.378   2.254   5.241 -2.6484 -0.3436 -1.9043
  899MOL0     H21338   7.478   2.397   5.237 -1.0239  0.8726  0.5355
  899MOL0     H21339   7.494   2.287   5.038 -0.2926 -0.5912 -2.7307
  899MOL0     H21340   7.318   2.282   5.017  0.4068  0.5255 -1.1545
  899MOL0     H21341   7.502   2.523   5.037 -0.3231 -1.3177  1.8083
  899MOL0     H21342   7.345   2.546   4.980  2.1752  2.3599 -2.1585
  899MOL0     H21343   7.450   2.550   4.774  2.0594  1.2173 -0.0285
  899MOL0     H21344   7.566   2.425   4.815 -0.2258  1.1768  3.6821
  899MOL0     H21345   6.763   2.063   5.189  0.4042 -0.5993 -1.3929
  899MOL0     H21346   6.557   1.920   5.201  0.5401  1.0996 -1.6544
  899MOL0     H21347   6.262   1.759   5.495 -1.6240  0.7962 -0.6500
  899MOL0     H21348   6.059   1.658   5.547  0.2175  1.8264 -0.7156
  899MOL0     H21349   4.152   1.734   6.058  1.5708  0.7944 -0.1315
  899MOL0     H21350   3.942   1.745   6.180 -0.5091  0.6299  0.3646
  899MOL0     H21351   3.466   2.144   6.132  2.9023  1.1102  2.5487
  899MOL0     H21352   3.249   2.151   6.271 -2.0820 -1.7299  3.2504
  899MOL0     H21353   3.111   2.154   6.408  0.5797  1.1417 -0.7581
  899MOL0     H21354   3.215   2.137   6.558 -1.4156 -0.7731  1.0745
  899MOL0     H21355   2.997   2.179   6.632  4.7995  2.4562 -2.2519
  899MOL0     H21356   3.037   2.020   6.675 -2.1880  1.4050  2.0793
  899MOL0     H21357   2.915   1.904   6.512  1.3204 -0.0513  0.3580
  899MOL0     H21358   2.890   2.063   6.419  1.6649  1.3697  0.1877
  899MOL0     H21359   2.697   1.958   6.573  1.0617 -0.9075  1.0092
  899MOL0     H21360   2.781   2.041   6.699 -1.9758 -1.5621  0.4675
  899MOL0     H21361   2.625   2.363   6.505 -0.8747 -1.0288 -0.6077
  899MOL0     H21362   3.323   1.769   6.418 -0.9517 -0.2491 -1.8732
  899MOL0     H21363   3.491   1.652   6.370 -1.3748  1.3729  0.6289
  899MOL0     H21364   3.544   1.648   6.200 -1.6925  0.0526 -0.4120
  899MOL0     H21365   3.643   1.734   6.332  0.8056  0.0735 -2.2648
  900MOL0     O21366   4.024   0.533   2.080 -0.1049 -0.3118  0.2807
  900MOL0     C21367   4.023   0.441   1.996 -0.7158  0.4309 -0.5776
  900MOL0     O21368   4.075   0.453   1.870  0.0434 -0.4455 -0.4578
  900MOL0     C21369   4.136   0.565   1.828 -0.5673  0.0768  0.8261
  900MOL0     C21370   4.102   0.611   1.693 -0.5779 -0.7951 -0.3017
  900MOL0     C21371   4.163   0.725   1.638 -0.1175  0.1911  0.6999
  900MOL0     C21372   4.261   0.793   1.707 -0.0673  0.2327  0.1952
  900MOL0     O21373   4.326   0.901   1.652  0.1115  0.5911  0.5134
  900MOL0     C21374   4.466   0.886   1.637  0.4164 -0.1407  0.0759
  900MOL0     C21375   4.527   0.970   1.526 -0.0413 -0.0152  0.3798
  900MOL0     C21376   4.673   0.936   1.514  0.4591 -0.6105  0.1432
  900MOL0     C21377   4.748   1.026   1.414 -0.7428  0.0230  0.1629
  900MOL0     C21378   4.812   0.939   1.305 -0.1597 -0.7927  0.4125
  900MOL0     C21379   4.863   1.031   1.194  0.6368  0.1622  0.5659
  900MOL0     C21380   4.926   0.939   1.081  0.4378  0.2149 -0.0707
  900MOL0     C21381   5.038   0.850   1.123 -0.5657  0.1503  0.9029
  900MOL0     N21382   5.162   0.928   1.154  0.3658 -0.1112  0.7384
  900MOL0     C21383   5.194   0.978   1.277  0.0841 -0.0933  0.5762
  900MOL0     C21384   5.306   1.055   1.257  0.2077 -0.6109 -0.2193
  900MOL0     C21385   5.378   1.136   1.357  0.3734  0.3977 -1.2032
  900MOL0     C21386   5.525   1.130   1.356  0.3666 -0.0788  0.7550
  900MOL0     C21387   5.581   1.175   1.486 -0.2219 -0.0370  0.2037
  900MOL0     C21388   5.724   1.144   1.527  0.1969  0.2456  0.5602
  900MOL0     O21389   5.734   1.158   1.664 -0.3945 -0.0402 -0.1567
  900MOL0     C21390   5.824   1.076   1.731  0.2364 -0.6690 -0.3647
  900MOL0     C21391   5.789   1.046   1.864  0.5281 -0.4734  0.2635
  900MOL0     C21392   5.869   0.964   1.939 -0.0571 -0.9722 -0.5722
  900MOL0     C21393   5.998   0.916   1.895  0.0283  0.1859  0.4668
  900MOL0     C21394   6.065   0.813   1.966 -0.0878 -0.8878  0.7168
  900MOL0     O21395   6.179   0.756   1.908 -0.0142  0.1911 -0.6223
  900MOL0     C21396   6.284   0.709   1.984  0.3507 -0.8251  0.1268
  900MOL0     C21397   6.369   0.622   1.912 -0.8503 -0.2059 -0.4516
  900MOL0     C21398   6.482   0.559   1.979 -0.3261 -0.1196 -0.3754
  900MOL0     C21399   6.511   0.601   2.112 -0.3745 -0.9604  1.0885
  900MOL0     O21400   6.618   0.539   2.177 -0.8507  0.2286 -0.4519
  900MOL0     C21401   6.674   0.590   2.295 -0.4593  0.5038 -0.5509
  900MOL0     C21402   6.782   0.696   2.255  0.5207  0.0908  0.4249
  900MOL0     C21403   6.886   0.731   2.364  0.1522  0.4099 -0.4538
  900MOL0     C21404   6.982   0.851   2.321  0.7161 -0.3427  0.0576
  900MOL0     C21405   7.032   0.942   2.430  0.8690  0.3228  0.1921
  900MOL0     C21406   7.167   0.913   2.494  0.7392 -0.4431 -0.7003
  900MOL0     C21407   7.176   0.778   2.558  0.4180 -0.3809  0.7736
  900MOL0     C21408   7.287   0.690   2.491  1.1109  0.1971 -0.1302
  900MOL0    Cl21409   7.455   0.755   2.481  0.2921 -0.6442  0.0577
  900MOL0     C21410   6.428   0.694   2.180 -0.3633 -0.5001 -0.0313
  900MOL0     C21411   6.314   0.745   2.118 -0.3790 -0.0022  1.0001
  900MOL0     O21412   6.014   0.782   2.072 -0.0910 -0.3123  0.4942
  900MOL0     C21413   6.035   0.957   1.764 -0.7068 -0.1320 -0.4661
  900MOL0     C21414   5.954   1.042   1.694  0.3898  0.1933 -0.0848
  900MOL0     N21415   5.334   1.051   1.127  0.2104 -0.4655  0.0240
  900MOL0     N21416   5.258   0.968   1.064  0.2589  0.4162 -0.0395
  900MOL0     C21417   4.295   0.743   1.834  0.3767 -0.3361  0.1191
  900MOL0     C21418   4.232   0.633   1.896  0.5821  0.0489  1.0403
  900MOL0     C21419   3.966   0.306   2.040  0.0502 -0.4372 -0.1141
  900MOL0     C21420   4.001   0.201   1.955  0.9390  1.0763 -0.5896
  900MOL0     C21421   3.947   0.071   1.981 -0.2409  0.6856 -0.4397
  900MOL0     C21422   3.873   0.044   2.092 -0.5685  0.4656  0.6002
  900MOL0     O21423   3.825  -0.083   2.122  0.7530  0.7267  0.1419
  900MOL0     C21424   3.836  -0.129   2.256 -0.0695  1.2404 -0.7691
  900MOL0     C21425   3.850  -0.281   2.255 -0.1962  0.6619 -0.7595
  900MOL0     C21426   3.997  -0.327   2.231  0.0984 -0.3753 -0.5245
  900MOL0     C21427   4.076  -0.253   2.121  0.3698 -0.2839  1.0837
  900MOL0     C21428   4.206  -0.307   2.102  0.1191  0.2046 -0.1883
  900MOL0     C21429   4.314  -0.357   2.078 -0.0048 -0.2716 -0.0916
  900MOL0     C21430   3.844   0.149   2.179 -0.2658 -0.5371 -0.2686
  900MOL0     C21431   3.884   0.281   2.154 -0.1857 -0.2653 -0.2274
  900MOL0     C21432   3.828   0.393   2.238 -0.3626  0.6285 -0.2373
  900MOL0     H21433   4.042   0.552   1.624  1.6407 -0.7084 -2.4341
  900MOL0     H21434   4.130   0.744   1.537  3.0751  3.4077  0.0751
  900MOL0     H21435   4.505   0.921   1.733 -2.3890 -0.6693  1.5365
  900MOL0     H21436   4.497   0.785   1.610 -0.6595 -0.8932  1.4835
  900MOL0     H21437   4.509   1.073   1.561 -1.0778 -0.9525  2.8834
  900MOL0     H21438   4.478   0.957   1.430  3.3749  0.6874 -1.6189
  900MOL0     H21439   4.665   0.838   1.466 -1.2766  1.2006 -3.7044
  900MOL0     H21440   4.728   0.934   1.609  1.8458  2.0253 -0.4838
  900MOL0     H21441   4.665   1.077   1.363 -1.2981 -1.5728 -0.5873
  900MOL0     H21442   4.823   1.099   1.447  1.2400 -1.9137  0.1561
  900MOL0     H21443   4.890   0.876   1.349 -0.5280  0.4219  3.0001
  900MOL0     H21444   4.731   0.883   1.257 -1.3913  1.7908 -0.7514
  900MOL0     H21445   4.779   1.087   1.153  0.1559  0.8105  2.3548
  900MOL0     H21446   4.933   1.105   1.233 -0.1261  0.6482  1.0405
  900MOL0     H21447   4.956   1.010   1.003 -3.1543  2.4072  0.3226
  900MOL0     H21448   4.845   0.875   1.046 -0.3917  2.2842 -2.2469
  900MOL0     H21449   5.024   0.771   1.197  1.8695 -0.8907  0.3572
  900MOL0     H21450   5.072   0.801   1.031  0.6361  1.9527  0.3399
  900MOL0     H21451   5.128   0.961   1.362 -3.2682  0.7175 -1.6693
  900MOL0     H21452   5.344   1.237   1.332 -0.0004  0.6900  0.3629
  900MOL0     H21453   5.337   1.112   1.456 -0.8117  1.8408 -1.3116
  900MOL0     H21454   5.544   1.023   1.348  0.0862 -0.0454 -0.6488
  900MOL0     H21455   5.555   1.185   1.266  1.6633 -3.7411 -1.2548
  900MOL0     H21456   5.524   1.118   1.560 -0.2098  0.6398  0.7500
  900MOL0     H21457   5.567   1.283   1.499  0.3575 -0.1245  1.7787
  900MOL0     H21458   5.778   1.223   1.473 -1.6502 -0.2318 -2.2143
  900MOL0     H21459   5.757   1.047   1.490 -0.7817  0.4814 -1.0199
  900MOL0     H21460   5.699   1.083   1.913  0.4566  0.4770 -0.5684
  900MOL0     H21461   5.834   0.954   2.041  0.1467 -1.5653 -0.5613
  900MOL0     H21462   6.349   0.608   1.807 -1.5013 -0.5209 -0.2858
  900MOL0     H21463   6.540   0.489   1.920 -0.7009  0.1276 -1.0561
  900MOL0     H21464   6.606   0.629   2.371 -1.3621 -0.1048 -1.0334
  900MOL0     H21465   6.724   0.518   2.361 -0.7419  0.3887 -0.4599
  900MOL0     H21466   6.843   0.648   2.177  0.9052 -4.2780  3.0800
  900MOL0     H21467   6.736   0.787   2.216  1.9428  1.1296  1.0996
  900MOL0     H21468   6.840   0.746   2.462  1.6975 -1.7725  0.6937
  900MOL0     H21469   6.958   0.651   2.387 -0.0167  0.6611  1.0273
  900MOL0     H21470   6.920   0.914   2.256 -2.4644 -2.0892  1.1303
  900MOL0     H21471   7.062   0.817   2.254  0.4277  0.8075 -0.9138
  900MOL0     H21472   6.955   0.950   2.508  2.1289  0.0670  1.5287
  900MOL0     H21473   7.038   1.040   2.383  1.1860  0.9326  1.4656
  900MOL0     H21474   7.234   0.933   2.410  0.0605  1.1046 -0.9135
  900MOL0     H21475   7.198   0.985   2.571 -0.5612 -0.4363 -0.1598
  900MOL0     H21476   7.079   0.728   2.565 -1.3707  2.3607 -2.1816
  900MOL0     H21477   7.198   0.800   2.663 -2.1510 -1.1891  1.5476
  900MOL0     H21478   7.304   0.593   2.538  0.9991 -0.4684 -1.4243
  900MOL0     H21479   7.255   0.672   2.388  2.7344  2.7106 -1.1802
  900MOL0     H21480   6.452   0.739   2.275 -2.8594  2.8788 -0.8438
  900MOL0     H21481   6.260   0.817   2.178 -0.8964 -1.3100  2.1593
  900MOL0     H21482   6.131   0.926   1.723 -0.7187 -0.7054 -0.0891
  900MOL0     H21483   5.997   1.082   1.602 -0.3361  1.4270  0.0888
  900MOL0     H21484   4.384   0.780   1.883  0.2932  1.2317 -0.8584
  900MOL0     H21485   4.251   0.609   2.000  3.6716  1.0539  0.7955
  900MOL0     H21486   4.057   0.211   1.863  1.4726  0.6634 -0.3147
  900MOL0     H21487   3.974  -0.008   1.912  3.2711  2.0480 -0.8135
  900MOL0     H21488   3.744  -0.101   2.308  0.7854 -1.9564  2.9147
  900MOL0     H21489   3.920  -0.085   2.311 -1.6327 -0.0256  2.9371
  900MOL0     H21490   3.792  -0.306   2.165  1.0878  3.4816 -2.5112
  900MOL0     H21491   3.798  -0.337   2.334  0.3103 -2.6887 -2.6374
  900MOL0     H21492   3.998  -0.430   2.195 -0.7086 -0.9172  0.9395
  900MOL0     H21493   4.043  -0.331   2.330  1.2656 -1.9759 -1.0928
  900MOL0     H21494   4.022  -0.249   2.025  0.6528 -0.6828  0.9049
  900MOL0     H21495   4.093  -0.149   2.149 -2.2350  0.7006 -0.5358
  900MOL0     H21496   4.410  -0.400   2.058 -1.6931 -4.0574 -1.0265
  900MOL0     H21497   3.792   0.148   2.274 -2.6908 -0.9204 -1.5217
  900MOL0     H21498   3.906   0.441   2.298 -1.4050  0.1696  1.5519
  900MOL0     H21499   3.781   0.467   2.173 -1.3131  0.5760  0.3724
  900MOL0     H21500   3.758   0.360   2.315  1.0417 -2.6913 -0.2164
  901MOL0     O21501   8.533   8.778   0.058 -0.3221 -0.1911 -0.2956
  901MOL0     C21502   8.463   8.841  -0.016 -0.3709  0.6158  1.1884
  901MOL0     O21503   8.503   8.969  -0.070 -0.0478  0.0770 -0.3592
  901MOL0     C21504   8.639   8.999  -0.066  0.0209 -0.0854  0.0510
  901MOL0     C21505   8.707   8.961  -0.183 -0.0105 -0.1160 -0.0828
  901MOL0     C21506   8.843   8.994  -0.191  0.2583  0.6241 -0.2333
  901MOL0     C21507   8.908   9.040  -0.074  0.2576 -0.4145 -0.3267
  901MOL0     O21508   9.041   9.061  -0.070 -0.7981 -0.3159 -0.6628
  901MOL0     C21509   9.115   9.068  -0.194 -0.2398  0.6245 -0.3738
  901MOL0     C21510   9.094   9.198  -0.277 -0.1849 -0.5382  0.2166
  901MOL0     C21511   9.157   9.330  -0.225 -0.0955 -0.2054  0.0153
  901MOL0     C21512   9.306   9.335  -0.213  0.6088 -0.2099 -0.0919
  901MOL0     C21513   9.337   9.468  -0.133 -1.4320 -0.1706  0.6644
  901MOL0     C21514   9.485   9.482  -0.156  0.7259  0.2751  0.0982
  901MOL0     C21515   9.565   9.577  -0.062  0.9819  0.2499  0.0525
  901MOL0     C21516   9.710   9.530  -0.057  1.3932  0.6716 -0.6288
  901MOL0     N21517   9.785   9.610   0.042 -0.3467 -0.3911  0.0950
  901MOL0     C21518   9.813   9.595   0.181  0.4561  0.1167  0.3020
  901MOL0     C21519   9.899   9.696   0.205  0.9603 -0.8618  0.2312
  901MOL0     C21520   9.987   9.709   0.326 -0.4110 -0.1112  0.2467
  901MOL0     C21521  10.137   9.731   0.291  0.7596 -0.3289  0.1026
  901MOL0     C21522  10.178   9.592   0.228  0.2694 -0.0813  0.5432
  901MOL0     C21523  10.302   9.603   0.157 -0.9416  0.3216 -0.6452
  901MOL0     O21524  10.411   9.631   0.247  0.1613  1.0177 -0.1947
  901MOL0     C21525  10.537   9.636   0.205 -0.2998 -0.5954  0.0893
  901MOL0     C21526  10.639   9.600   0.294  0.0364 -0.4830 -0.4902
  901MOL0     C21527  10.775   9.597   0.253 -0.6628  0.4511  0.9507
  901MOL0     C21528  10.814   9.626   0.118  0.1968 -0.2441  0.1488
  901MOL0     C21529  10.946   9.615   0.063 -0.7986  0.8362  0.2359
  901MOL0     O21530  11.045   9.591   0.153  0.3134 -0.2568  1.0311
  901MOL0     C21531  11.180   9.605   0.120  0.9197 -0.8333  0.7561
  901MOL0     C21532  11.243   9.558   0.005  0.6333  0.0713 -0.8901
  901MOL0     C21533  11.377   9.573  -0.000 -0.7743 -0.1283  0.0942
  901MOL0     C21534  11.443   9.635   0.102  0.1407 -0.5522 -0.1424
  901MOL0     O21535  11.579   9.651   0.096  0.2624 -0.0260  0.3733
  901MOL0     C21536  11.671   9.542   0.064  0.5096  0.3177  0.2990
  901MOL0     C21537  11.660   9.426   0.164  0.0574  0.0027 -0.7417
  901MOL0     C21538  11.708   9.491   0.301 -0.2677  1.1241 -0.4438
  901MOL0     C21539  11.744   9.378   0.396 -0.3393  0.6303  0.3217
  901MOL0     C21540  11.776   9.428   0.537  0.5939 -0.1155  0.3495
  901MOL0     C21541  11.803   9.302   0.625 -0.2230  0.1478  0.1989
  901MOL0     C21542  11.814   9.343   0.772 -0.0198  0.9098  0.6139
  901MOL0     C21543  11.951   9.399   0.796  0.3405 -0.4049 -0.8028
  901MOL0    Cl21544  11.968   9.420   0.967  0.2301  0.5083 -0.1445
  901MOL0     C21545  11.382   9.681   0.211  0.2235 -0.3440 -0.4059
  901MOL0     C21546  11.244   9.675   0.218 -1.0223  0.2715 -0.5040
  901MOL0     O21547  10.961   9.637  -0.056  0.3173  1.1067 -0.8513
  901MOL0     C21548  10.701   9.669   0.032 -0.2816 -0.5596 -0.0101
  901MOL0     C21549  10.570   9.668   0.075  0.2850 -0.2308  0.2989
  901MOL0     N21550   9.900   9.785   0.099  0.3830  0.0324 -0.6262
  901MOL0     N21551   9.832   9.734   0.001 -0.5900 -0.9823 -0.6446
  901MOL0     C21552   8.842   9.070   0.044  0.5548 -0.5019  0.0375
  901MOL0     C21553   8.706   9.053   0.044  0.4844 -0.3710 -0.0306
  901MOL0     C21554   8.324   8.797  -0.024  0.6928 -0.1651 -0.2541
  901MOL0     C21555   8.238   8.865  -0.119 -0.1122  0.8643  0.0311
  901MOL0     C21556   8.102   8.840  -0.119  0.0138 -0.1679  0.1034
  901MOL0     C21557   8.046   8.748  -0.035  0.0102  0.3234  0.3940
  901MOL0     O21558   7.909   8.733  -0.050  0.2309  0.9861 -0.7179
  901MOL0     C21559   7.839   8.611  -0.014 -0.5309 -0.1282 -0.0300
  901MOL0     C21560   7.700   8.598  -0.075 -0.6334  0.3506  0.2961
  901MOL0     C21561   7.703   8.567  -0.220 -0.3955 -0.3264  0.8300
  901MOL0     C21562   7.579   8.613  -0.297 -0.1740  0.2517 -0.3236
  901MOL0     C21563   7.458   8.537  -0.262 -0.1949 -0.0069 -0.7602
  901MOL0     C21564   7.352   8.487  -0.223  0.4264  0.2774 -0.4539
  901MOL0     C21565   8.129   8.685   0.052 -0.1114  0.6382 -0.3109
  901MOL0     C21566   8.266   8.704   0.064  0.1857 -0.0743  0.2725
  901MOL0     C21567   8.335   8.623   0.171 -0.4706 -0.3650 -0.9513
  901MOL0     H21568   8.644   8.934  -0.268 -1.8225  0.7159  0.9602
  901MOL0     H21569   8.887   8.981  -0.289 -1.5956 -0.1203 -1.0135
  901MOL0     H21570   9.221   9.061  -0.166  0.3431  0.5520 -2.4388
  901MOL0     H21571   9.093   8.981  -0.255 -0.3655 -0.8654  1.7071
  901MOL0     H21572   8.988   9.221  -0.266  0.1037 -0.1764  3.0362
  901MOL0     H21573   9.131   9.190  -0.379 -0.2259  0.1916  0.1356
  901MOL0     H21574   9.122   9.345  -0.123  0.0997 -1.1112  0.2296
  901MOL0     H21575   9.115   9.412  -0.284 -0.2146  1.4061  2.2180
  901MOL0     H21576   9.355   9.250  -0.166  3.1324  1.0548 -0.2744
  901MOL0     H21577   9.350   9.338  -0.313  0.1940  1.3670 -0.2585
  901MOL0     H21578   9.275   9.552  -0.164 -1.2357 -0.6586 -1.1727
  901MOL0     H21579   9.317   9.447  -0.028  1.7176 -3.2878  0.8406
  901MOL0     H21580   9.531   9.382  -0.154 -0.7155 -0.5679 -2.8905
  901MOL0     H21581   9.506   9.520  -0.256 -0.4202 -1.4618 -0.8513
  901MOL0     H21582   9.526   9.582   0.041  1.6213  0.6140  0.2798
  901MOL0     H21583   9.563   9.674  -0.111 -2.9440  0.9087  1.0934
  901MOL0     H21584   9.714   9.426  -0.025 -2.3342  0.7685  0.5737
  901MOL0     H21585   9.760   9.530  -0.155  2.2794 -1.1883 -0.2056
  901MOL0     H21586   9.781   9.516   0.249 -2.7365  2.5298  1.8915
  901MOL0     H21587   9.950   9.788   0.392  0.3735  0.6868 -0.2396
  901MOL0     H21588   9.983   9.613   0.379  1.1108 -0.8426 -0.8863
  901MOL0     H21589  10.159   9.816   0.225 -0.3224  0.1219  0.2985
  901MOL0     H21590  10.193   9.756   0.382 -0.0217 -0.2943  0.5787
  901MOL0     H21591  10.106   9.543   0.161 -0.5234  1.0679  0.5256
  901MOL0     H21592  10.194   9.523   0.311 -2.5194 -1.4067  0.1070
  901MOL0     H21593  10.285   9.688   0.089  0.2022 -0.9993 -2.6970
  901MOL0     H21594  10.322   9.516   0.093 -3.9401 -0.5953 -0.4906
  901MOL0     H21595  10.613   9.588   0.399  1.4582  0.4455  0.0067
  901MOL0     H21596  10.852   9.577   0.327 -1.4553 -1.4311  1.2976
  901MOL0     H21597  11.185   9.504  -0.070  0.7440 -1.2133 -0.0648
  901MOL0     H21598  11.420   9.537  -0.093  1.2812 -1.1254  1.3549
  901MOL0     H21599  11.657   9.504  -0.037  2.3714 -1.5824  0.6919
  901MOL0     H21600  11.770   9.590   0.069 -0.3096  2.1275 -0.1382
  901MOL0     H21601  11.556   9.394   0.166  0.0041  0.1998  0.2402
  901MOL0     H21602  11.732   9.348   0.137 -0.5145 -1.1096  0.7845
  901MOL0     H21603  11.787   9.565   0.289 -1.4317  3.1380  2.8368
  901MOL0     H21604  11.623   9.552   0.333 -0.4685  0.3329  0.6243
  901MOL0     H21605  11.829   9.326   0.351 -0.0290  0.0448  1.5317
  901MOL0     H21606  11.661   9.307   0.404 -1.6993  2.2759  1.5675
  901MOL0     H21607  11.699   9.497   0.573  1.7145  2.1270 -1.3107
  901MOL0     H21608  11.856   9.502   0.530 -0.5302  0.9741 -2.6215
  901MOL0     H21609  11.720   9.232   0.633 -1.3740  1.6001  1.7302
  901MOL0     H21610  11.899   9.257   0.595  0.0246  0.1862  0.9158
  901MOL0     H21611  11.803   9.258   0.840 -0.3111  1.6212  1.4714
  901MOL0     H21612  11.732   9.408   0.803 -0.8377  0.3465 -0.3018
  901MOL0     H21613  12.024   9.326   0.759  1.7979  2.1646 -3.3656
  901MOL0     H21614  11.958   9.489   0.735  0.4115 -0.9306 -1.5793
  901MOL0     H21615  11.429   9.726   0.299  0.2696  2.1628 -1.6239
  901MOL0     H21616  11.186   9.695   0.308  1.0453 -0.7077  1.1238
  901MOL0     H21617  10.710   9.688  -0.074 -2.1389  4.4370  0.4621
  901MOL0     H21618  10.502   9.690  -0.007  1.6702 -1.2960 -1.2013
  901MOL0     H21619   8.909   9.102   0.124  0.9155  0.9046 -0.7926
  901MOL0     H21620   8.652   9.071   0.136  0.8895 -0.0256  0.1426
  901MOL0     H21621   8.281   8.938  -0.187  0.1668 -0.6858 -1.5355
  901MOL0     H21622   8.035   8.892  -0.187  0.1364 -1.8689 -1.3911
  901MOL0     H21623   7.830   8.591   0.093 -0.3268 -0.9100 -0.1551
  901MOL0     H21624   7.899   8.530  -0.056 -0.1480 -0.5429  1.2755
  901MOL0     H21625   7.637   8.683  -0.047 -0.7709  0.1531  0.6054
  901MOL0     H21626   7.649   8.508  -0.037 -0.2997 -0.2959 -0.7427
  901MOL0     H21627   7.710   8.461  -0.247 -1.1608 -0.1073 -0.2932
  901MOL0     H21628   7.788   8.617  -0.267  0.4460 -0.0835  2.5518
  901MOL0     H21629   7.562   8.721  -0.295 -2.4979  0.0526 -3.0130
  901MOL0     H21630   7.596   8.592  -0.402  3.7720 -2.2923  0.6131
  901MOL0     H21631   7.267   8.443  -0.173 -0.3056  1.3615 -0.7024
  901MOL0     H21632   8.089   8.611   0.121  1.2581  1.0363  0.9481
  901MOL0     H21633   8.265   8.566   0.232  1.5127 -0.3960  1.4429
  901MOL0     H21634   8.403   8.553   0.123  1.0576 -0.1554  0.7990
  901MOL0     H21635   8.396   8.676   0.245 -1.2112  2.2126 -2.0415
  902MOL0     O21636  11.198   6.736  10.171  0.3203 -0.4932 -0.5552
  902MOL0     C21637  11.196   6.617  10.210  1.2082  0.3288 -0.2501
  902MOL0     O21638  11.289   6.555  10.284 -0.3926  0.3458  0.5517
  902MOL0     C21639  11.403   6.623  10.317  0.1001  0.2659  0.3157
  902MOL0     C21640  11.394   6.725  10.411  0.8535 -0.0179 -0.0176
  902MOL0     C21641  11.510   6.797  10.445  0.3065 -0.0118 -0.2494
  902MOL0     C21642  11.638   6.752  10.395  0.7411  0.1787 -0.0279
  902MOL0     O21643  11.741   6.830  10.441 -0.2211  0.0867  0.0007
  902MOL0     C21644  11.875   6.800  10.408 -0.1165  1.1160 -0.6551
  902MOL0     C21645  11.968   6.896  10.492 -0.3360  0.2391  0.5936
  902MOL0     C21646  12.121   6.899  10.462  0.0138  0.6615  0.6671
  902MOL0     C21647  12.203   6.918  10.594  0.4040 -0.4771 -0.1834
  902MOL0     C21648  12.355   6.939  10.557 -0.1846  0.2258  0.5400
  902MOL0     C21649  12.410   6.803  10.533  0.8010  0.3004 -0.4857
  902MOL0     C21650  12.484   6.758  10.665 -0.2558  0.0277  0.3129
  902MOL0     C21651  12.511   6.611  10.653  0.2387  0.3919 -0.3262
  902MOL0     N21652  12.581   6.562  10.777  0.2101  0.3190  0.2498
  902MOL0     C21653  12.714   6.555  10.790  0.0973  0.5336 -0.1458
  902MOL0     C21654  12.734   6.543  10.917 -0.5927 -0.1474  0.2870
  902MOL0     C21655  12.872   6.551  10.980 -0.1362  0.2070  0.3548
  902MOL0     C21656  12.927   6.408  10.992 -0.3084 -0.0287  0.6003
  902MOL0     C21657  13.079   6.401  10.980 -0.0204  0.1624  0.0573
  902MOL0     C21658  13.157   6.501  11.073 -0.2262 -0.2750  0.3762
  902MOL0     O21659  13.296   6.478  11.037 -0.4109 -0.1999  0.6615
  902MOL0     C21660  13.394   6.577  11.050  0.1709 -0.2957 -0.7612
  902MOL0     C21661  13.391   6.665  11.155  0.5317  0.1249  0.3019
  902MOL0     C21662  13.484   6.762  11.174  0.0845  1.1877 -0.5881
  902MOL0     C21663  13.581   6.785  11.071 -0.7884  0.2671  0.2412
  902MOL0     C21664  13.686   6.887  11.080  0.0380 -0.8563  0.7273
  902MOL0     O21665  13.770   6.907  10.969  0.6026 -0.0935  0.2425
  902MOL0     C21666  13.867   6.998  10.986 -0.1614 -0.6569 -1.6650
  902MOL0     C21667  13.895   7.096  10.895  0.0401 -0.0680  0.5693
  902MOL0     C21668  14.014   7.176  10.910 -0.0329 -0.3217 -0.3829
  902MOL0     C21669  14.099   7.162  11.024 -0.2809 -0.8007 -0.0339
  902MOL0     O21670  14.212   7.234  11.041  0.7985  0.0283 -0.0311
  902MOL0     C21671  14.195   7.376  11.033 -0.9254  0.5346  0.6536
  902MOL0     C21672  14.314   7.445  11.102  0.1358  1.3310  0.3647
  902MOL0     C21673  14.311   7.593  11.061  0.7641 -0.1831  0.7576
  902MOL0     C21674  14.450   7.665  11.089  0.3421  0.7226 -0.1818
  902MOL0     C21675  14.461   7.821  11.080  0.2013  0.6437 -0.6749
  902MOL0     C21676  14.459   7.876  10.934 -0.4760 -0.1624 -0.7080
  902MOL0     C21677  14.476   8.029  10.932 -0.5580  0.6665 -0.3711
  902MOL0     C21678  14.513   8.072  10.794 -0.1584 -0.8002  0.7749
  902MOL0    Cl21679  14.521   8.252  10.803  0.0860 -0.1520 -0.1705
  902MOL0     C21680  14.076   7.058  11.110 -0.8921 -0.5831 -0.3882
  902MOL0     C21681  13.966   6.981  11.092  0.2701  0.0859  0.6729
  902MOL0     O21682  13.696   6.949  11.187  0.1427 -0.5307  0.7486
  902MOL0     C21683  13.587   6.694  10.964 -0.3297 -1.0651 -0.5226
  902MOL0     C21684  13.490   6.594  10.951  0.0259  0.2887 -0.5223
  902MOL0     N21685  12.614   6.548  10.982 -1.2304  0.9187 -0.2022
  902MOL0     N21686  12.522   6.557  10.900  0.0575  0.9014  0.8265
  902MOL0     C21687  11.645   6.649  10.304 -0.0160 -0.5719  0.7590
  902MOL0     C21688  11.529   6.584  10.270  1.1454 -0.4389 -0.1559
  902MOL0     C21689  11.074   6.537  10.187  0.5783  0.4689  0.4746
  902MOL0     C21690  10.961   6.605  10.147 -0.7426 -0.0008  0.5623
  902MOL0     C21691  10.842   6.530  10.123 -0.1993  0.7549  0.3410
  902MOL0     C21692  10.843   6.390  10.131 -0.4450 -0.6964  0.0012
  902MOL0     O21693  10.721   6.325  10.124  0.2477  0.5034  0.1500
  902MOL0     C21694  10.706   6.199  10.181 -0.0978  1.0168  0.1202
  902MOL0     C21695  10.571   6.132  10.150  0.9487  0.1523  0.2312
  902MOL0     C21696  10.451   6.219  10.205  0.3619  0.1458 -1.1147
  902MOL0     C21697  10.313   6.174  10.159  0.4135  0.5293  0.5526
  902MOL0     C21698  10.216   6.273  10.206 -0.9325 -0.1714 -0.6348
  902MOL0     C21699  10.148   6.363  10.245 -0.7055 -0.2110 -0.2228
  902MOL0     C21700  10.966   6.325  10.159  0.3555  0.2595  0.1831
  902MOL0     C21701  11.080   6.395  10.172 -0.3808 -0.1241 -0.5636
  902MOL0     C21702  11.199   6.311  10.185  0.9957  0.5808  0.0553
  902MOL0     H21703  11.295   6.757  10.443  0.5698 -1.5156  0.6899
  902MOL0     H21704  11.501   6.876  10.519  1.2195  0.4479 -0.6198
  902MOL0     H21705  11.891   6.694  10.431 -0.3891  0.6914 -2.2358
  902MOL0     H21706  11.896   6.798  10.300  1.9723 -0.8069 -0.2961
  902MOL0     H21707  11.946   6.874  10.596 -0.7579 -0.7600  0.3022
  902MOL0     H21708  11.931   6.996  10.467  0.8875  0.6877  0.4563
  902MOL0     H21709  12.147   6.971  10.384 -2.1055 -0.2874 -1.0081
  902MOL0     H21710  12.142   6.800  10.421  3.2671  2.0952 -1.5674
  902MOL0     H21711  12.170   7.009  10.644 -0.0078 -0.5351 -0.3502
  902MOL0     H21712  12.190   6.830  10.657 -1.0705 -0.2765 -0.1797
  902MOL0     H21713  12.356   6.995  10.463  1.1829 -2.2208 -1.0093
  902MOL0     H21714  12.417   6.990  10.631 -0.2399  0.5522  0.3605
  902MOL0     H21715  12.325   6.738  10.512 -1.6894  3.0560  0.3393
  902MOL0     H21716  12.478   6.803  10.448  3.0036 -2.7871  1.0948
  902MOL0     H21717  12.438   6.780  10.762  1.9811  3.7471  0.7250
  902MOL0     H21718  12.583   6.803  10.667  2.0160 -4.3053 -0.8261
  902MOL0     H21719  12.420   6.552  10.644  1.1059 -0.9302 -0.6637
  902MOL0     H21720  12.567   6.595  10.560  1.3578 -0.5874  0.4971
  902MOL0     H21721  12.789   6.587  10.718 -1.0688  1.8290 -0.8418
  902MOL0     H21722  12.929   6.614  10.912  0.5635 -0.2204  0.5333
  902MOL0     H21723  12.881   6.611  11.071 -1.0314  3.3145 -1.4396
  902MOL0     H21724  12.893   6.356  11.082  0.3492 -1.5514 -0.0013
  902MOL0     H21725  12.891   6.347  10.908 -2.9887 -1.0993  2.3666
  902MOL0     H21726  13.099   6.431  10.877 -0.8025 -0.7751 -0.3774
  902MOL0     H21727  13.110   6.296  10.986 -1.4013 -0.2698 -0.0630
  902MOL0     H21728  13.138   6.477  11.178  0.5071  1.0643  0.8404
  902MOL0     H21729  13.129   6.603  11.048  0.6948  0.3545  1.7819
  902MOL0     H21730  13.321   6.637  11.233  1.9647 -3.1778  0.5676
  902MOL0     H21731  13.471   6.831  11.257  0.7761  2.3820 -1.4392
  902MOL0     H21732  13.835   7.108  10.805 -0.5397 -1.5423  0.7380
  902MOL0     H21733  14.027   7.254  10.836 -5.1373 -1.4532 -2.8992
  902MOL0     H21734  14.200   7.395  10.926 -2.9584  0.6898  0.5627
  902MOL0     H21735  14.096   7.404  11.070 -1.6112 -1.0264  0.0563
  902MOL0     H21736  14.302   7.437  11.211 -0.1978  2.2257  0.4017
  902MOL0     H21737  14.402   7.384  11.079 -0.7716 -0.6468  1.7546
  902MOL0     H21738  14.278   7.597  10.957  0.5662  3.1272  0.8544
  902MOL0     H21739  14.232   7.654  11.105 -0.4158 -2.1874  1.5499
  902MOL0     H21740  14.530   7.624  11.026 -1.6679 -1.4218 -1.4960
  902MOL0     H21741  14.473   7.635  11.191  0.4285  0.4163 -0.2880
  902MOL0     H21742  14.543   7.867  11.137 -0.6152  0.6071  0.5832
  902MOL0     H21743  14.365   7.863  11.113 -1.0501 -3.0954  0.9364
  902MOL0     H21744  14.545   7.827  10.887  1.4424  1.0325  1.3510
  902MOL0     H21745  14.361   7.846  10.897 -1.3852 -1.5866  2.5726
  902MOL0     H21746  14.555   8.066  10.998 -0.4485 -0.0435 -0.0954
  902MOL0     H21747  14.385   8.079  10.967 -1.9928 -2.1626  0.3227
  902MOL0     H21748  14.619   8.046  10.788  0.4949  1.3957  1.9879
  902MOL0     H21749  14.446   8.033  10.717 -0.2553  3.4139 -1.5827
  902MOL0     H21750  14.149   7.032  11.186 -0.1948  0.1010 -0.8125
  902MOL0     H21751  13.951   6.892  11.153 -0.8488 -0.3832 -0.2412
  902MOL0     H21752  13.664   6.713  10.889 -0.9124  0.1650 -0.8336
  902MOL0     H21753  13.489   6.533  10.862 -0.7885 -1.0192  0.3414
  902MOL0     H21754  11.738   6.615  10.261 -1.5883 -3.2292 -0.7968
  902MOL0     H21755  11.537   6.494  10.211 -0.1395 -1.5269  1.2378
  902MOL0     H21756  10.967   6.713  10.150  2.7845 -0.0646  0.5117
  902MOL0     H21757  10.750   6.572  10.082  1.5887  2.1053 -2.6283
  902MOL0     H21758  10.714   6.210  10.289 -1.0446 -1.4417  0.5145
  902MOL0     H21759  10.788   6.135  10.148 -0.7611 -0.0065  0.3822
  902MOL0     H21760  10.568   6.031  10.192 -1.8280  0.0761  0.0240
  902MOL0     H21761  10.569   6.114  10.043  0.4098  5.0831 -0.8478
  902MOL0     H21762  10.470   6.322  10.175 -1.9660  0.6520 -1.0220
  902MOL0     H21763  10.456   6.213  10.314  2.6518  2.6990 -0.9825
  902MOL0     H21764  10.315   6.169  10.050 -1.3021  0.5421  0.4860
  902MOL0     H21765  10.300   6.073  10.201  2.8982 -1.5692 -3.1332
  902MOL0     H21766  10.075   6.433  10.282  0.0441  0.4252  0.0893
  902MOL0     H21767  10.972   6.217  10.164  3.7609  0.3736  4.5329
  902MOL0     H21768  11.186   6.210  10.144 -0.8884  0.7025  0.2240
  902MOL0     H21769  11.278   6.353  10.123 -0.1902  0.6251 -1.4882
  902MOL0     H21770  11.230   6.300  10.289  3.1846 -2.7606 -0.8102
  903MOL0     O21771  10.337   1.936   7.031  0.2124 -0.5628  0.2036
  903MOL0     C21772  10.251   1.868   6.982 -0.2832  0.1765 -0.8386
  903MOL0     O21773  10.216   1.747   7.029  1.0406  0.3581  0.8350
  903MOL0     C21774  10.299   1.675   7.115  0.5244  0.7855 -0.8216
  903MOL0     C21775  10.435   1.655   7.096 -0.1206  0.1253  0.6640
  903MOL0     C21776  10.504   1.569   7.179 -0.3517  0.4444  0.3171
  903MOL0     C21777  10.443   1.511   7.289 -0.0814 -0.0504  0.1332
  903MOL0     O21778  10.540   1.440   7.369  0.4978 -0.1794  0.1425
  903MOL0     C21779  10.490   1.387   7.491 -0.0529 -0.8658 -0.4712
  903MOL0     C21780  10.423   1.254   7.457  0.5354  0.2213 -0.2000
  903MOL0     C21781  10.310   1.222   7.559  0.7194  0.4380 -0.6973
  903MOL0     C21782  10.269   1.076   7.541  0.4114 -1.6056 -0.4887
  903MOL0     C21783  10.126   1.053   7.613 -0.6983 -0.2498 -0.7044
  903MOL0     C21784  10.090   0.911   7.651 -0.0686 -0.9496 -0.5791
  903MOL0     C21785  10.047   0.821   7.530 -0.3033  0.6702  0.6773
  903MOL0     C21786   9.978   0.691   7.574  0.0348 -0.0104  0.5719
  903MOL0     N21787   9.846   0.714   7.644 -0.1248 -0.4421 -0.3812
  903MOL0     C21788   9.824   0.725   7.782  0.2029 -0.6105  0.1381
  903MOL0     C21789   9.689   0.710   7.788 -0.2710 -0.6709  0.6654
  903MOL0     C21790   9.593   0.710   7.909 -0.2225  0.0543  0.1697
  903MOL0     C21791   9.662   0.733   8.040 -0.0835  0.2124 -0.3523
  903MOL0     C21792   9.690   0.890   8.065 -0.1903 -0.1190  0.2971
  903MOL0     C21793   9.758   0.913   8.194  0.6591  0.1342 -0.2623
  903MOL0     O21794   9.866   0.826   8.216  0.5315  0.6374  0.0993
  903MOL0     C21795   9.989   0.860   8.171  0.0766 -0.1189  0.3954
  903MOL0     C21796  10.025   0.962   8.078  0.1760  0.6525  0.4049
  903MOL0     C21797  10.156   0.969   8.035  0.2949 -0.4236 -0.1727
  903MOL0     C21798  10.261   0.888   8.079 -0.6841  0.1598  0.9197
  903MOL0     C21799  10.401   0.892   8.030  0.5062  0.0085 -0.3840
  903MOL0     O21800  10.421   0.951   7.915 -0.2197 -0.2568 -0.1838
  903MOL0     C21801  10.551   0.968   7.861  0.3791 -0.0156 -0.1422
  903MOL0     C21802  10.586   1.082   7.794 -0.8874 -0.5854  0.2968
  903MOL0     C21803  10.724   1.094   7.744  0.5562 -0.7315 -0.1541
  903MOL0     C21804  10.808   0.979   7.747 -0.4985  0.5258 -0.5065
  903MOL0     O21805  10.937   0.976   7.699  0.6310 -0.3519  0.1901
  903MOL0     C21806  10.998   1.095   7.645  0.1279 -1.1819 -0.2123
  903MOL0     C21807  11.139   1.069   7.622  0.5262 -0.1750  0.4280
  903MOL0     C21808  11.225   1.047   7.752  0.6684 -0.1286  0.1805
  903MOL0     C21809  11.355   0.993   7.699  0.4763 -0.1024 -0.9739
  903MOL0     C21810  11.476   1.022   7.790  0.0978  0.6413  1.0001
  903MOL0     C21811  11.460   0.996   7.946  0.6218 -0.2955 -0.6965
  903MOL0     C21812  11.426   0.851   7.994  0.9055  0.6556  0.8965
  903MOL0     C21813  11.526   0.746   7.978 -0.3570  0.0408  0.1819
  903MOL0    Cl21814  11.660   0.750   8.102 -0.0245  0.1667 -0.0536
  903MOL0     C21815  10.761   0.863   7.811  0.4190 -0.0307  0.4029
  903MOL0     C21816  10.637   0.862   7.865 -0.0770 -0.3658 -0.1250
  903MOL0     O21817  10.493   0.847   8.105 -0.1066 -0.9398  0.8634
  903MOL0     C21818  10.228   0.795   8.172  0.0952  0.2597 -0.3753
  903MOL0     C21819  10.093   0.777   8.216 -0.4496 -0.1000 -0.6877
  903MOL0     N21820   9.631   0.702   7.661  0.1182 -0.2472 -0.0511
  903MOL0     N21821   9.727   0.696   7.577 -0.2085 -0.6930 -0.8909
  903MOL0     C21822  10.303   1.532   7.303  1.2736 -0.0361  0.1116
  903MOL0     C21823  10.233   1.620   7.219  0.0386  0.2314 -0.3367
  903MOL0     C21824  10.158   1.924   6.885  0.4373  0.3054  0.6592
  903MOL0     C21825  10.020   1.901   6.891  0.3242  1.0929  0.7152
  903MOL0     C21826   9.933   1.958   6.807 -0.3796  0.8124 -0.6428
  903MOL0     C21827   9.968   2.031   6.698 -0.4697  0.1744  0.7617
  903MOL0     O21828   9.864   2.081   6.623 -0.4310 -0.0908  0.2126
  903MOL0     C21829   9.881   2.098   6.480  0.2215  0.3270  0.6929
  903MOL0     C21830   9.886   1.953   6.416  1.5861 -0.2886  0.5577
  903MOL0     C21831   9.761   1.858   6.431 -0.2419 -0.8919 -0.0707
  903MOL0     C21832   9.644   1.935   6.366  0.9638  0.4733 -0.0040
  903MOL0     C21833   9.558   1.834   6.313 -0.3376 -0.5060  0.0146
  903MOL0     C21834   9.488   1.754   6.257  0.1296  0.0005 -0.1603
  903MOL0     C21835  10.107   2.058   6.681  0.0949 -0.1741  0.3780
  903MOL0     C21836  10.197   2.009   6.774  0.5327  0.2651 -0.2884
  903MOL0     C21837  10.344   2.048   6.752  0.3130 -0.4605  0.6626
  903MOL0     H21838  10.471   1.717   7.014 -0.2666  0.3583  0.7736
  903MOL0     H21839  10.612   1.555   7.184 -0.1522  1.3297 -0.9214
  903MOL0     H21840  10.569   1.366   7.564 -2.0126 -1.2239  1.6805
  903MOL0     H21841  10.420   1.461   7.533  0.7882 -1.9426  3.1891
  903MOL0     H21842  10.498   1.175   7.448  0.6645  0.4704 -1.5569
  903MOL0     H21843  10.375   1.256   7.359  1.3161  1.5308 -0.5880
  903MOL0     H21844  10.222   1.284   7.541 -1.8093 -1.6539  3.1750
  903MOL0     H21845  10.337   1.233   7.665 -2.4078  0.9644  0.1428
  903MOL0     H21846  10.249   1.066   7.434  0.4192 -0.3795 -0.6210
  903MOL0     H21847  10.356   1.015   7.569  1.0701 -0.7962 -0.7500
  903MOL0     H21848  10.117   1.128   7.692  1.6107  1.2508 -1.7660
  903MOL0     H21849  10.052   1.088   7.541 -0.7608  0.8430 -0.1370
  903MOL0     H21850  10.173   0.861   7.702  0.3809  1.0233  0.7391
  903MOL0     H21851  10.015   0.924   7.729  2.5110  0.6390  1.8499
  903MOL0     H21852  10.132   0.791   7.468 -0.6798 -1.6415  1.1585
  903MOL0     H21853   9.978   0.866   7.459 -2.1243 -2.3065  0.3567
  903MOL0     H21854   9.966   0.627   7.486  2.3365 -0.7372  0.7202
  903MOL0     H21855  10.041   0.643   7.649  0.1195 -1.1047 -0.1744
  903MOL0     H21856   9.890   0.743   7.866 -2.5101 -0.1233  2.3047
  903MOL0     H21857   9.524   0.794   7.892 -2.0942 -1.4730 -0.1429
  903MOL0     H21858   9.537   0.616   7.907  2.0023 -1.3368 -0.6549
  903MOL0     H21859   9.594   0.688   8.114 -1.9831  0.6010 -1.7815
  903MOL0     H21860   9.755   0.677   8.056  0.2273  1.2948  2.2059
  903MOL0     H21861   9.603   0.954   8.081 -0.3058  0.2646 -1.6813
  903MOL0     H21862   9.740   0.938   7.980  0.7316 -0.9552  0.3492
  903MOL0     H21863   9.682   0.894   8.270 -0.0716 -1.7282 -1.3986
  903MOL0     H21864   9.790   1.017   8.206  3.0490 -0.2125 -2.6641
  903MOL0     H21865   9.956   1.022   8.019  0.0647  1.2814  1.1540
  903MOL0     H21866  10.186   1.042   7.960  1.0284  0.6112  1.0902
  903MOL0     H21867  10.514   1.163   7.794 -1.8344 -1.3595 -1.3627
  903MOL0     H21868  10.760   1.187   7.699  2.1671 -1.7960 -1.1591
  903MOL0     H21869  10.956   1.124   7.549  0.5871  0.4900  0.0651
  903MOL0     H21870  10.985   1.182   7.710 -0.9732  1.4379 -3.6680
  903MOL0     H21871  11.155   0.982   7.558  3.6174  1.0102 -0.5664
  903MOL0     H21872  11.186   1.156   7.576  0.4798  1.4913  3.2964
  903MOL0     H21873  11.247   1.142   7.800 -0.2174  1.7256 -2.8428
  903MOL0     H21874  11.177   0.968   7.811  3.1309 -2.9515 -1.2860
  903MOL0     H21875  11.368   1.019   7.594  0.9425 -1.1336 -1.1833
  903MOL0     H21876  11.348   0.884   7.702  1.0754 -0.2422 -3.2624
  903MOL0     H21877  11.514   1.125   7.792  1.1379  0.2613  1.3556
  903MOL0     H21878  11.559   0.962   7.753  0.8223  1.9968  0.3489
  903MOL0     H21879  11.556   1.019   7.993  1.3612 -1.1569 -1.7221
  903MOL0     H21880  11.384   1.062   7.989  1.3530  0.4350 -0.4894
  903MOL0     H21881  11.339   0.824   7.935  1.6894  2.2920 -1.1138
  903MOL0     H21882  11.399   0.859   8.100  0.5823  2.0410  0.7226
  903MOL0     H21883  11.461   0.658   7.987  0.8567 -0.6796  2.7640
  903MOL0     H21884  11.570   0.751   7.878 -0.3582 -1.6472  0.0550
  903MOL0     H21885  10.818   0.770   7.820 -2.7578 -2.0104  1.8049
  903MOL0     H21886  10.621   0.767   7.914 -0.6919 -0.2624 -0.1137
  903MOL0     H21887  10.305   0.729   8.211  1.3536  1.1413 -1.2667
  903MOL0     H21888  10.067   0.699   8.287  1.0762  1.7863  2.1289
  903MOL0     H21889  10.242   1.480   7.376  1.1244 -0.0857 -0.0477
  903MOL0     H21890  10.131   1.646   7.243 -0.9100 -3.4260  0.1409
  903MOL0     H21891   9.981   1.834   6.967 -2.1126  1.1011 -0.4120
  903MOL0     H21892   9.826   1.940   6.815 -0.5463  1.7750 -0.6128
  903MOL0     H21893   9.978   2.140   6.450  0.0161 -0.7167 -1.6705
  903MOL0     H21894   9.794   2.155   6.446  1.1085  2.4338  1.7626
  903MOL0     H21895   9.971   1.901   6.460 -0.3932 -2.5943  1.8725
  903MOL0     H21896   9.905   1.967   6.309 -2.2983  2.7564  0.0200
  903MOL0     H21897   9.742   1.837   6.537 -0.2946  1.1919  0.3887
  903MOL0     H21898   9.785   1.772   6.368 -1.4633 -2.7800  1.9264
  903MOL0     H21899   9.596   2.009   6.431 -0.4336 -0.5185  0.1393
  903MOL0     H21900   9.683   1.987   6.278 -0.5822 -0.3723 -1.2365
  903MOL0     H21901   9.424   1.691   6.198  0.6902 -1.9725  1.2411
  903MOL0     H21902  10.136   2.123   6.599 -1.4759  0.2104  0.1040
  903MOL0     H21903  10.367   2.101   6.659 -0.6515 -1.0014  0.0971
  903MOL0     H21904  10.369   2.116   6.834 -0.1159 -0.6832  0.9827
  903MOL0     H21905  10.414   1.965   6.744  2.1955  1.0757  0.3781
  904MOL0     O21906   1.837   0.238   1.718  0.3250 -0.0011  0.0106
  904MOL0     C21907   1.825   0.127   1.758  0.7951  0.1556  0.3840
  904MOL0     O21908   1.925   0.038   1.740 -0.2306 -0.6374  0.3329
  904MOL0     C21909   2.054   0.094   1.729  0.0896 -0.7376  0.4100
  904MOL0     C21910   2.111   0.154   1.844  0.0849 -0.1296  0.3414
  904MOL0     C21911   2.240   0.216   1.832 -0.7276  0.4202 -0.1350
  904MOL0     C21912   2.318   0.202   1.715 -0.2976 -0.9695  0.1560
  904MOL0     O21913   2.437   0.264   1.686  0.3170  0.1643  0.0771
  904MOL0     C21914   2.514   0.322   1.790 -0.5640  0.4465 -0.3587
  904MOL0     C21915   2.648   0.340   1.717  0.3855  0.4662 -0.0661
  904MOL0     C21916   2.749   0.393   1.806 -0.0402  0.5878  0.3733
  904MOL0     C21917   2.880   0.380   1.715  0.5053 -0.4759  0.1748
  904MOL0     C21918   3.007   0.405   1.807  0.6402  0.5089 -0.2191
  904MOL0     C21919   3.120   0.446   1.715  0.2895  0.7428 -0.0235
  904MOL0     C21920   3.117   0.586   1.647  0.3623  0.6329  0.1249
  904MOL0     C21921   3.251   0.656   1.619  0.4879  0.8378  0.4199
  904MOL0     N21922   3.225   0.774   1.535  0.8282 -0.3887  0.3273
  904MOL0     C21923   3.150   0.881   1.578 -0.1685  1.1586 -0.1158
  904MOL0     C21924   3.142   0.966   1.467  0.0979 -0.9868  0.6874
  904MOL0     C21925   3.063   1.091   1.435  0.4672 -0.2816 -0.3696
  904MOL0     C21926   3.014   1.100   1.292  0.2650 -0.0867  0.1917
  904MOL0     C21927   2.947   1.232   1.264 -0.2052  0.3034 -0.4536
  904MOL0     C21928   2.854   1.286   1.377 -0.1582 -0.1449 -0.3759
  904MOL0     O21929   2.745   1.189   1.385 -0.5174  0.5740 -0.3826
  904MOL0     C21930   2.650   1.193   1.483 -0.0640  0.0588  0.3442
  904MOL0     C21931   2.554   1.096   1.471  0.2373  1.0221 -0.1280
  904MOL0     C21932   2.449   1.081   1.562  0.5737  0.4127 -0.8374
  904MOL0     C21933   2.424   1.181   1.655  0.2511  0.1666  0.4146
  904MOL0     C21934   2.293   1.185   1.731 -0.1983  0.4238  0.3694
  904MOL0     O21935   2.210   1.081   1.710 -0.5615  0.3246  0.2540
  904MOL0     C21936   2.087   1.079   1.764 -0.2492 -0.9112  0.4159
  904MOL0     C21937   2.050   1.054   1.898  0.1363  0.4150 -0.0127
  904MOL0     C21938   1.910   1.069   1.946 -0.3607 -0.7098  0.1327
  904MOL0     C21939   1.815   1.106   1.847  0.5710  0.4828 -0.3055
  904MOL0     O21940   1.684   1.108   1.884  0.5764  0.3194  0.1400
  904MOL0     C21941   1.576   1.184   1.820 -0.1930 -0.2902  0.4787
  904MOL0     C21942   1.439   1.138   1.872 -0.1266  0.1600  0.2103
  904MOL0     C21943   1.315   1.215   1.816 -0.3704  0.5403 -0.2828
  904MOL0     C21944   1.270   1.157   1.686  0.4977  0.5923 -0.1615
  904MOL0     C21945   1.150   1.235   1.628 -0.0471  0.2532 -0.5168
  904MOL0     C21946   1.021   1.242   1.719  0.8068 -0.9663 -0.0162
  904MOL0     C21947   0.916   1.321   1.641  0.4607  0.8466 -0.4144
  904MOL0     C21948   0.790   1.330   1.733  0.4155 -0.4556  0.8155
  904MOL0    Cl21949   0.651   1.421   1.654  0.5500  0.5709 -0.0490
  904MOL0     C21950   1.858   1.137   1.717 -0.3403  0.4473  0.0174
  904MOL0     C21951   1.992   1.127   1.678  0.0139 -0.3057  0.6077
  904MOL0     O21952   2.276   1.283   1.799  0.1094 -0.9869 -0.3544
  904MOL0     C21953   2.514   1.287   1.668 -0.1100 -0.5164 -0.1111
  904MOL0     C21954   2.627   1.296   1.577  0.1657 -0.4310 -0.3259
  904MOL0     N21955   3.216   0.901   1.366 -0.5074  0.2752 -0.9496
  904MOL0     N21956   3.258   0.785   1.406  0.2793 -0.3225 -0.0999
  904MOL0     C21957   2.268   0.113   1.610  0.0189 -0.5965 -0.4680
  904MOL0     C21958   2.133   0.069   1.615  0.0491 -0.1003 -0.7588
  904MOL0     C21959   1.691   0.073   1.810 -0.8089 -0.2249 -0.0170
  904MOL0     C21960   1.677  -0.066   1.825  0.1933  1.0865  0.2884
  904MOL0     C21961   1.564  -0.120   1.873  0.0073  0.2721  0.5949
  904MOL0     C21962   1.455  -0.041   1.899  0.9634 -0.2595 -0.1663
  904MOL0     O21963   1.334  -0.097   1.930 -0.2917  0.3589  0.4854
  904MOL0     C21964   1.208  -0.038   1.967 -0.5605 -0.9181 -1.2719
  904MOL0     C21965   1.115  -0.109   2.065 -0.9641  0.6904 -0.0388
  904MOL0     C21966   1.102  -0.269   2.048  0.6016  0.2829 -0.4923
  904MOL0     C21967   0.990  -0.336   2.138 -0.3907 -0.1633 -0.3062
  904MOL0     C21968   1.014  -0.330   2.286 -0.4505 -0.3331  0.4310
  904MOL0     C21969   1.047  -0.320   2.401  0.3508  0.9737 -0.8324
  904MOL0     C21970   1.462   0.097   1.878  0.2085 -0.1322  0.4131
  904MOL0     C21971   1.582   0.155   1.838 -0.4281  0.6005  0.3718
  904MOL0     C21972   1.579   0.306   1.815  1.2244 -0.1102  0.0086
  904MOL0     H21973   2.050   0.164   1.933 -1.5836 -3.0178 -0.3494
  904MOL0     H21974   2.274   0.278   1.915 -0.3122 -1.3096  1.0307
  904MOL0     H21975   2.479   0.420   1.825 -1.8061  0.0059 -0.3174
  904MOL0     H21976   2.523   0.248   1.870 -1.1847  0.1708 -0.5405
  904MOL0     H21977   2.638   0.402   1.628  0.4364 -1.1094 -1.2102
  904MOL0     H21978   2.672   0.237   1.690 -0.2585 -1.0450  4.2657
  904MOL0     H21979   2.763   0.329   1.894  1.5843  1.1543  0.5673
  904MOL0     H21980   2.734   0.498   1.835 -1.9905  0.5554 -0.4241
  904MOL0     H21981   2.896   0.285   1.663  0.6211  1.4013 -3.5092
  904MOL0     H21982   2.860   0.454   1.637  1.2298  0.3835  0.7894
  904MOL0     H21983   2.989   0.500   1.860 -0.4585  1.1564 -1.6650
  904MOL0     H21984   3.021   0.317   1.869 -0.5902 -0.0643 -0.7264
  904MOL0     H21985   3.210   0.435   1.776 -0.5414 -2.8906  0.7761
  904MOL0     H21986   3.121   0.370   1.636  2.5841  0.2266  0.4275
  904MOL0     H21987   3.065   0.660   1.707 -0.7041  3.7475 -4.1464
  904MOL0     H21988   3.067   0.573   1.550 -0.7462 -0.3696  0.8066
  904MOL0     H21989   3.300   0.691   1.710 -0.0520  1.1660  0.5882
  904MOL0     H21990   3.317   0.587   1.566  1.5134  2.0278  0.0766
  904MOL0     H21991   3.090   0.888   1.669  0.5527  0.5934  0.4106
  904MOL0     H21992   2.982   1.089   1.507 -0.7259  0.0295 -1.6559
  904MOL0     H21993   3.127   1.175   1.464  2.6884 -2.4657  1.5036
  904MOL0     H21994   3.097   1.088   1.222  1.5286  2.0348  1.2464
  904MOL0     H21995   2.941   1.020   1.275 -0.5332  0.5600  0.5159
  904MOL0     H21996   2.891   1.230   1.170 -3.2198  1.4583  1.1827
  904MOL0     H21997   3.031   1.301   1.253  3.9197 -3.8936  1.2604
  904MOL0     H21998   2.818   1.388   1.361 -0.3282 -0.1165  0.1742
  904MOL0     H21999   2.899   1.293   1.476 -1.4017 -0.0900  0.2120
  904MOL0     H22000   2.562   1.025   1.390 -3.2212 -0.9536  1.0727
  904MOL0     H22001   2.392   0.989   1.557  1.3987 -0.0615 -2.5422
  904MOL0     H22002   2.129   1.019   1.965 -1.1699 -0.6983  1.0002
  904MOL0     H22003   1.882   1.062   2.051 -0.7835  1.2689  0.1994
  904MOL0     H22004   1.595   1.292   1.824 -1.7510  0.1115 -1.5544
  904MOL0     H22005   1.564   1.161   1.714 -0.6161 -1.5043  0.7758
  904MOL0     H22006   1.434   1.029   1.868  1.0741  0.0043  2.0942
  904MOL0     H22007   1.449   1.161   1.978  1.0631 -0.4313  0.2360
  904MOL0     H22008   1.239   1.189   1.891  0.4884  1.6672  1.0425
  904MOL0     H22009   1.323   1.323   1.805  1.0266  0.4993  0.1248
  904MOL0     H22010   1.233   1.056   1.706  2.2842 -0.3347 -1.3081
  904MOL0     H22011   1.349   1.147   1.612  0.9745  2.8263 -0.0282
  904MOL0     H22012   1.126   1.185   1.534 -0.3180  1.5434 -1.1590
  904MOL0     H22013   1.182   1.338   1.605 -2.3852  1.1842  0.1356
  904MOL0     H22014   0.983   1.145   1.752 -0.8979 -0.6789 -1.0528
  904MOL0     H22015   1.038   1.294   1.814  1.3258  0.0604 -0.6514
  904MOL0     H22016   0.889   1.273   1.547 -2.1375  1.7395 -0.2033
  904MOL0     H22017   0.943   1.425   1.621  2.9151  0.6818  1.4235
  904MOL0     H22018   0.764   1.231   1.772  1.3900 -0.9780  0.1811
  904MOL0     H22019   0.826   1.391   1.816  0.4093  3.5026 -1.8336
  904MOL0     H22020   1.787   1.172   1.643  0.5746  1.1441 -0.5454
  904MOL0     H22021   2.022   1.164   1.581 -1.6773  3.0096  1.2066
  904MOL0     H22022   2.495   1.376   1.727 -0.9590 -1.6703  1.4456
  904MOL0     H22023   2.693   1.382   1.591 -0.6950  0.7449 -2.9328
  904MOL0     H22024   2.325   0.090   1.521 -3.0874 -0.5624 -2.6263
  904MOL0     H22025   2.071   0.023   1.538 -2.2404  0.9281  0.3647
  904MOL0     H22026   1.763  -0.131   1.812  1.1931  1.8690  2.5366
  904MOL0     H22027   1.557  -0.228   1.886 -2.4151 -0.0594 -2.3284
  904MOL0     H22028   1.152  -0.017   1.875 -2.5308 -2.2667 -0.4595
  904MOL0     H22029   1.222   0.059   2.015 -0.5483 -0.8133 -1.4849
  904MOL0     H22030   1.014  -0.067   2.074 -0.1823  2.3957  1.3848
  904MOL0     H22031   1.151  -0.087   2.166 -0.7979  1.7633 -0.3258
  904MOL0     H22032   1.203  -0.308   2.063  1.0694  2.3012  2.3367
  904MOL0     H22033   1.077  -0.289   1.943 -0.0656 -1.0578 -0.0882
  904MOL0     H22034   0.894  -0.285   2.120  0.1642  1.1236  0.2434
  904MOL0     H22035   0.978  -0.443   2.119 -1.5421 -0.3538  1.2981
  904MOL0     H22036   1.054  -0.310   2.507  0.0972 -0.1881 -0.6883
  904MOL0     H22037   1.385   0.173   1.888 -0.1221 -0.5473  1.0417
  904MOL0     H22038   1.475   0.338   1.810  1.0328 -0.8375 -1.0212
  904MOL0     H22039   1.632   0.355   1.897 -0.9651 -0.4445  1.6898
  904MOL0     H22040   1.627   0.332   1.720  2.6525 -3.7303 -0.4276
  905MOL0     O22041   5.572   9.433   3.362  0.3246  0.3587  0.2643
  905MOL0     C22042   5.550   9.550   3.372  0.0301 -0.4210 -0.6997
  905MOL0     O22043   5.646   9.644   3.374 -0.1537  0.4891 -0.3112
  905MOL0     C22044   5.776   9.596   3.382  0.1877  0.4610  0.7851
  905MOL0     C22045   5.861   9.614   3.273  0.3298 -0.3726  0.7916
  905MOL0     C22046   6.003   9.598   3.277  0.1172  0.6063  0.2503
  905MOL0     C22047   6.059   9.546   3.387 -0.1993  0.0367  0.0966
  905MOL0     O22048   6.195   9.535   3.391 -0.2080 -0.5203  0.3903
  905MOL0     C22049   6.271   9.480   3.493 -0.1294  0.4564  0.1161
  905MOL0     C22050   6.413   9.426   3.451  0.0545 -0.1327  0.1803
  905MOL0     C22051   6.506   9.419   3.569 -0.0512  0.0358 -0.1804
  905MOL0     C22052   6.457   9.341   3.691  0.1154 -0.4905  0.1431
  905MOL0     C22053   6.579   9.283   3.762  0.3721 -0.2315  0.0335
  905MOL0     C22054   6.637   9.154   3.703 -0.4080 -0.5753 -0.1177
  905MOL0     C22055   6.754   9.108   3.794  0.6991 -0.8378 -0.1086
  905MOL0     C22056   6.856   9.017   3.720 -0.5312 -0.1635 -0.2122
  905MOL0     N22057   7.000   9.041   3.759 -0.7955  0.3307 -0.1477
  905MOL0     C22058   7.035   9.021   3.887  0.5466 -0.6882  0.1470
  905MOL0     C22059   7.166   8.985   3.881 -0.4176  0.3452 -0.7056
  905MOL0     C22060   7.243   8.937   3.994 -0.9787 -0.7582  0.2168
  905MOL0     C22061   7.236   9.034   4.111  0.5078  0.7404  0.2520
  905MOL0     C22062   7.294   8.974   4.235  0.2251  0.7570 -0.1051
  905MOL0     C22063   7.430   8.901   4.228  0.4452 -0.2232  1.3566
  905MOL0     O22064   7.523   9.006   4.220 -0.7514 -0.6370  0.8570
  905MOL0     C22065   7.659   8.965   4.205 -0.1349  0.4889  0.3410
  905MOL0     C22066   7.699   8.851   4.134  0.1019  0.2866 -0.0920
  905MOL0     C22067   7.837   8.823   4.132 -0.1561 -0.5941 -0.5885
  905MOL0     C22068   7.935   8.892   4.209  0.1173 -0.3038 -0.6053
  905MOL0     C22069   8.084   8.859   4.195  0.2236 -0.3539  0.2602
  905MOL0     O22070   8.172   8.944   4.260  0.0135  0.2426  0.3369
  905MOL0     C22071   8.310   8.919   4.244  0.2452  0.7117 -0.3057
  905MOL0     C22072   8.356   8.931   4.115 -0.2367 -1.1550 -0.7557
  905MOL0     C22073   8.494   8.912   4.082 -0.7546  0.1924 -0.8093
  905MOL0     C22074   8.586   8.883   4.186 -0.2000  0.0681 -0.6169
  905MOL0     O22075   8.719   8.869   4.172  0.1158 -0.1502 -0.4682
  905MOL0     C22076   8.789   8.961   4.083 -0.6668 -0.2252 -0.2480
  905MOL0     C22077   8.944   8.964   4.105  0.1830 -0.0290  0.4400
  905MOL0     C22078   9.017   9.065   4.014 -0.1960  0.9234  0.2928
  905MOL0     C22079   9.030   9.012   3.865 -0.6405  0.9013  0.3105
  905MOL0     C22080   9.146   9.082   3.803 -0.1702  0.4260  0.9800
  905MOL0     C22081   9.289   9.015   3.834 -0.0406  0.8167 -0.9356
  905MOL0     C22082   9.384   9.085   3.736  0.1370  0.3170 -0.9870
  905MOL0     C22083   9.531   9.060   3.775  0.6789  0.8011 -0.2703
  905MOL0    Cl22084   9.652   9.115   3.659 -0.0647  0.1424 -0.3327
  905MOL0     C22085   8.539   8.869   4.320  0.4118 -0.1257  0.5614
  905MOL0     C22086   8.394   8.887   4.348 -1.1063 -0.2254  0.3655
  905MOL0     O22087   8.119   8.768   4.119  0.8683  0.3275  0.5218
  905MOL0     C22088   7.884   9.001   4.291  0.6012  0.0112  1.5765
  905MOL0     C22089   7.748   9.037   4.273  0.1123 -0.1535  0.1942
  905MOL0     N22090   7.203   8.999   3.748  0.1412 -0.7678 -0.1542
  905MOL0     N22091   7.097   9.010   3.677 -0.3794 -0.7199  0.7984
  905MOL0     C22092   5.970   9.500   3.488 -0.4305 -0.8650  0.2504
  905MOL0     C22093   5.833   9.526   3.485 -0.4555  0.1443  0.4368
  905MOL0     C22094   5.405   9.580   3.363 -0.1527  0.6430 -0.5556
  905MOL0     C22095   5.372   9.707   3.318  0.7077  0.1463 -0.1380
  905MOL0     C22096   5.238   9.746   3.328  0.2670 -0.1504 -0.3802
  905MOL0     C22097   5.138   9.661   3.376 -0.2551 -0.1415  1.1285
  905MOL0     O22098   5.009   9.698   3.369 -0.1682  0.4254  0.2936
  905MOL0     C22099   4.967   9.797   3.462 -0.2882 -0.2642  0.3647
  905MOL0     C22100   4.821   9.777   3.489  0.5757  0.4353 -0.8536
  905MOL0     C22101   4.790   9.628   3.536 -0.7523 -0.5159  0.6434
  905MOL0     C22102   4.656   9.605   3.606  0.3107  0.3767  0.2057
  905MOL0     C22103   4.645   9.690   3.726 -0.0374  0.2587  0.5797
  905MOL0     C22104   4.625   9.762   3.825  0.2428 -0.3222 -0.1074
  905MOL0     C22105   5.172   9.536   3.414  0.3593 -0.1418  0.1985
  905MOL0     C22106   5.303   9.494   3.409  0.3631  0.2827 -0.1915
  905MOL0     C22107   5.333   9.360   3.471  0.4099 -0.9207  0.0820
  905MOL0     H22108   5.810   9.676   3.199  2.2306  0.5401  0.1834
  905MOL0     H22109   6.063   9.636   3.195  0.4999  0.3615  0.4169
  905MOL0     H22110   6.284   9.548   3.577 -0.2396  0.9002 -0.2239
  905MOL0     H22111   6.223   9.393   3.538 -1.6555  1.3951  0.3537
  905MOL0     H22112   6.452   9.498   3.379 -1.0298 -1.7896 -2.2270
  905MOL0     H22113   6.393   9.326   3.412 -1.6865  0.0664  0.4744
  905MOL0     H22114   6.524   9.521   3.604 -0.7077  0.1057 -0.0221
  905MOL0     H22115   6.600   9.372   3.541 -0.8388 -1.2281 -0.7760
  905MOL0     H22116   6.393   9.408   3.749 -4.8376 -2.5770 -2.2354
  905MOL0     H22117   6.389   9.258   3.669  2.3089 -2.5196  0.5652
  905MOL0     H22118   6.659   9.359   3.762 -0.1885  0.5016  3.0719
  905MOL0     H22119   6.552   9.277   3.868 -3.5348  0.4917 -0.7588
  905MOL0     H22120   6.555   9.082   3.700 -1.2749  0.3921  0.0616
  905MOL0     H22121   6.677   9.159   3.601  2.4475  2.0774  0.9584
  905MOL0     H22122   6.698   9.051   3.868 -1.3358 -0.2744 -1.1149
  905MOL0     H22123   6.797   9.194   3.846 -1.8273 -0.9414  2.3882
  905MOL0     H22124   6.832   8.912   3.740  0.1975 -0.0922  1.2066
  905MOL0     H22125   6.862   9.031   3.612 -0.8898 -0.0177 -0.2139
  905MOL0     H22126   6.966   9.011   3.969  0.9220  1.4787  0.7921
  905MOL0     H22127   7.204   8.839   4.024 -1.5216 -0.8916 -0.8732
  905MOL0     H22128   7.343   8.949   3.952 -0.5837 -0.2852  1.2486
  905MOL0     H22129   7.282   9.133   4.104 -0.9204  1.7120  3.0228
  905MOL0     H22130   7.129   9.050   4.130  0.0989 -1.5143  0.0550
  905MOL0     H22131   7.218   8.904   4.270  1.0956  0.7805  1.9357
  905MOL0     H22132   7.298   9.049   4.314 -1.8526  0.4676  0.3409
  905MOL0     H22133   7.446   8.834   4.143  1.7525  0.1122  1.3191
  905MOL0     H22134   7.445   8.847   4.321  0.6124  1.4765  2.3666
  905MOL0     H22135   7.616   8.803   4.084 -0.0839  0.0838  0.4061
  905MOL0     H22136   7.877   8.732   4.088  0.6846  1.1715 -3.7989
  905MOL0     H22137   8.302   8.951   4.023  0.9056 -0.6435 -1.3372
  905MOL0     H22138   8.518   8.923   3.977  0.5317 -0.2804 -0.5848
  905MOL0     H22139   8.775   8.932   3.978 -0.9300  2.6580 -1.1023
  905MOL0     H22140   8.742   9.059   4.094 -1.0083 -0.4169  0.0509
  905MOL0     H22141   8.951   8.976   4.213 -3.8438 -2.5053  1.2014
  905MOL0     H22142   8.972   8.862   4.078 -0.4608 -0.5214  1.5742
  905MOL0     H22143   8.963   9.160   4.016  0.0989  1.1256 -0.6916
  905MOL0     H22144   9.114   9.087   4.058 -0.4830  3.1054 -0.0383
  905MOL0     H22145   8.939   9.043   3.813 -1.7719  2.9438  3.2397
  905MOL0     H22146   9.052   8.906   3.879  0.7299  1.2707  1.1333
  905MOL0     H22147   9.149   9.189   3.826 -0.1678  0.6525 -0.0343
  905MOL0     H22148   9.138   9.066   3.696  0.9817  1.0533  0.7788
  905MOL0     H22149   9.313   9.035   3.939 -3.3850 -0.7676  0.2663
  905MOL0     H22150   9.299   8.907   3.820  0.9034  0.8449 -0.5628
  905MOL0     H22151   9.361   9.192   3.734  0.5962  0.5242  1.4090
  905MOL0     H22152   9.373   9.053   3.632  1.9164 -0.5473 -0.9331
  905MOL0     H22153   9.553   9.105   3.872 -1.5708  1.0511  0.1816
  905MOL0     H22154   9.549   8.952   3.781 -0.6553  0.5764 -0.0870
  905MOL0     H22155   8.605   8.844   4.402  1.1595 -1.7976 -0.4842
  905MOL0     H22156   8.344   8.872   4.443  0.9155  1.1635  1.7377
  905MOL0     H22157   7.957   9.058   4.348  1.8135  1.1275 -0.9294
  905MOL0     H22158   7.718   9.133   4.315  1.6217  1.8800 -2.9438
  905MOL0     H22159   6.010   9.446   3.573  1.1511 -0.3919 -0.1688
  905MOL0     H22160   5.771   9.507   3.572  0.4258 -0.6555  0.9089
  905MOL0     H22161   5.444   9.777   3.278 -0.5573  1.3888 -0.3510
  905MOL0     H22162   5.205   9.846   3.299  2.1190  0.6188 -0.0079
  905MOL0     H22163   4.976   9.902   3.432 -0.2174  0.1227  1.6828
  905MOL0     H22164   5.015   9.793   3.560 -0.4371 -1.2562  0.4112
  905MOL0     H22165   4.753   9.803   3.407 -0.1001 -0.1202 -0.4809
  905MOL0     H22166   4.800   9.835   3.579 -1.3563  0.8334 -1.4967
  905MOL0     H22167   4.865   9.602   3.611 -1.4672 -6.2440 -0.2088
  905MOL0     H22168   4.816   9.568   3.449  3.6174  1.5713  0.2168
  905MOL0     H22169   4.585   9.623   3.526  0.2017 -0.0866  0.1928
  905MOL0     H22170   4.654   9.504   3.649  0.0247  0.9365  1.5719
  905MOL0     H22171   4.596   9.814   3.914 -1.5635  0.3635 -1.0462
  905MOL0     H22172   5.091   9.468   3.439  0.1721 -0.4866 -1.2987
  905MOL0     H22173   5.399   9.367   3.558 -0.6724  2.1169  0.8051
  905MOL0     H22174   5.235   9.319   3.496  0.2857 -1.0493 -0.5937
  905MOL0     H22175   5.373   9.298   3.390  0.9045  0.1434 -0.5133
  906MOL0     O22176   0.050   5.031  10.329 -0.2143  0.1026 -0.2300
  906MOL0     C22177  -0.022   4.983  10.414  0.5843  0.2196  0.6853
  906MOL0     O22178   0.018   4.867  10.490  0.1621 -0.0236  0.1381
  906MOL0     C22179   0.143   4.824  10.459 -0.9608  0.5797 -0.3622
  906MOL0     C22180   0.162   4.711  10.386  0.1192  0.0561  0.4245
  906MOL0     C22181   0.295   4.669  10.353 -0.1998 -0.3847 -0.3984
  906MOL0     C22182   0.408   4.729  10.409 -0.2894 -1.1699  0.0316
  906MOL0     O22183   0.540   4.690  10.383  0.0739  0.0455 -0.3315
  906MOL0     C22184   0.645   4.753  10.458 -0.5501 -0.1978  0.4931
  906MOL0     C22185   0.784   4.686  10.438  0.3686 -0.0874  0.4370
  906MOL0     C22186   0.872   4.743  10.332 -0.3173 -0.7411 -0.2938
  906MOL0     C22187   0.991   4.659  10.316 -0.0691  0.8344 -0.4940
  906MOL0     C22188   1.079   4.705  10.195  0.8755  0.2338 -0.0121
  906MOL0     C22189   1.216   4.624  10.201 -0.2388  0.4029 -0.1174
  906MOL0     C22190   1.305   4.670  10.083 -0.3620 -0.2648 -0.0706
  906MOL0     C22191   1.442   4.598  10.072  0.5906 -0.1717  0.4869
  906MOL0     N22192   1.517   4.657   9.961  0.1343 -0.3501  0.3102
  906MOL0     C22193   1.503   4.632   9.828 -0.2650  0.2875 -0.3960
  906MOL0     C22194   1.591   4.710   9.769  0.1411  0.4137  0.3195
  906MOL0     C22195   1.642   4.722   9.633 -0.2519 -0.1041  0.4383
  906MOL0     C22196   1.600   4.594   9.554 -0.3539 -0.0252  0.0891
  906MOL0     C22197   1.655   4.606   9.410  0.7575  0.2478 -0.1453
  906MOL0     C22198   1.807   4.601   9.398  0.5164 -0.3508  0.2550
  906MOL0     O22199   1.843   4.738   9.418 -0.4336  0.3396  0.0047
  906MOL0     C22200   1.978   4.773   9.391 -0.3226 -0.8827  0.2635
  906MOL0     C22201   2.073   4.689   9.350  0.1961  0.4663 -0.9544
  906MOL0     C22202   2.202   4.730   9.333 -0.7132  0.3384  0.8012
  906MOL0     C22203   2.241   4.857   9.361 -0.1732 -0.3487  0.7467
  906MOL0     C22204   2.380   4.907   9.316 -1.2117  0.1075 -0.1490
  906MOL0     O22205   2.481   4.815   9.300  0.6632 -0.1942 -0.4387
  906MOL0     C22206   2.614   4.847   9.279 -0.7271  0.8365 -0.1194
  906MOL0     C22207   2.653   4.946   9.193 -0.3615 -0.3212 -0.2003
  906MOL0     C22208   2.788   4.980   9.181 -0.6017 -0.3697 -0.4470
  906MOL0     C22209   2.885   4.934   9.269  0.2587  0.2493 -0.8418
  906MOL0     O22210   3.014   4.980   9.264  0.0425 -0.8211  0.1369
  906MOL0     C22211   3.132   4.894   9.284  0.9454  0.0239 -0.1513
  906MOL0     C22212   3.250   4.988   9.279  0.4164  0.2277 -0.7122
  906MOL0     C22213   3.384   4.905   9.305  0.6437 -0.1264  0.3844
  906MOL0     C22214   3.506   5.001   9.292 -0.3262  0.0220 -0.0233
  906MOL0     C22215   3.645   4.945   9.313  0.3987 -0.4600  0.4415
  906MOL0     C22216   3.764   5.043   9.294 -0.6668 -0.8027 -0.2204
  906MOL0     C22217   3.884   5.001   9.364 -1.2639 -0.1472 -0.1484
  906MOL0     C22218   4.006   5.104   9.341  0.0394  0.6556  0.0701
  906MOL0    Cl22219   3.965   5.254   9.439  0.2744 -0.1929  0.2381
  906MOL0     C22220   2.840   4.831   9.351 -0.3198 -0.3817 -0.4126
  906MOL0     C22221   2.709   4.792   9.358 -0.9284 -0.1375 -0.2791
  906MOL0     O22222   2.393   5.029   9.301  0.8304  0.0264 -0.7692
  906MOL0     C22223   2.146   4.950   9.409 -0.2078  0.3969 -0.7711
  906MOL0     C22224   2.014   4.911   9.416 -0.0554  0.3187 -0.2774
  906MOL0     N22225   1.649   4.794   9.861  0.6160 -0.0849 -0.0369
  906MOL0     N22226   1.596   4.767   9.976 -0.2160 -0.0730  0.3182
  906MOL0     C22227   0.384   4.839  10.497  0.4035 -0.1203  0.4312
  906MOL0     C22228   0.253   4.880  10.520 -0.1533 -0.4160 -0.9765
  906MOL0     C22229  -0.166   5.038  10.432  0.8188  0.5697 -0.0692
  906MOL0     C22230  -0.241   4.977  10.535  0.0212 -0.0372  0.6736
  906MOL0     C22231  -0.377   5.014  10.551 -0.0334  0.0883 -0.0092
  906MOL0     C22232  -0.431   5.118  10.477  0.2219 -0.1555  0.2147
  906MOL0     O22233  -0.549   5.174  10.517 -0.5836 -0.4355 -0.2131
  906MOL0     C22234  -0.640   5.201  10.409 -0.3550 -0.0740 -0.0545
  906MOL0     C22235  -0.788   5.167  10.454  0.0684 -0.6152 -0.0047
  906MOL0     C22236  -0.816   5.020  10.424 -0.2661 -0.4945  0.9874
  906MOL0     C22237  -0.947   4.973  10.488 -0.3234 -0.3180  0.0866
  906MOL0     C22238  -1.054   5.043  10.418 -0.1390 -0.4937 -0.4940
  906MOL0     C22239  -1.157   5.075  10.352 -0.4989  0.5123 -0.6216
  906MOL0     C22240  -0.359   5.179  10.380 -0.2263  0.9343  0.5546
  906MOL0     C22241  -0.223   5.147  10.359 -0.3640  0.0428 -0.5540
  906MOL0     C22242  -0.150   5.230  10.264  0.2162  0.0073 -0.2436
  906MOL0     H22243   0.075   4.666  10.339 -0.7036  0.0897  1.8671
  906MOL0     H22244   0.307   4.587  10.282  0.3381  0.2787 -1.0899
  906MOL0     H22245   0.659   4.859  10.434  1.8912 -0.3062  1.1017
  906MOL0     H22246   0.621   4.742  10.564  1.6812 -0.9575  0.9903
  906MOL0     H22247   0.762   4.581  10.419  0.4204  0.5914 -4.8905
  906MOL0     H22248   0.843   4.684  10.530  2.3114  1.4736 -0.7047
  906MOL0     H22249   0.903   4.844  10.358 -1.1506  0.8268 -4.5615
  906MOL0     H22250   0.822   4.759  10.236 -1.3592 -0.0788  0.3332
  906MOL0     H22251   1.053   4.667  10.406  1.0915 -0.3388 -1.1435
  906MOL0     H22252   0.981   4.553  10.291  0.9501  0.8242 -0.9142
  906MOL0     H22253   1.017   4.683  10.107 -2.2928 -0.1890  2.1469
  906MOL0     H22254   1.087   4.814  10.188 -0.2451  0.2458 -1.7100
  906MOL0     H22255   1.270   4.643  10.295 -0.9643 -3.1596  1.1743
  906MOL0     H22256   1.195   4.517  10.198  1.2471  0.1110 -1.5948
  906MOL0     H22257   1.322   4.774  10.111  2.2843 -1.1607  2.0717
  906MOL0     H22258   1.251   4.667   9.987 -2.7773 -1.6217  1.2141
  906MOL0     H22259   1.502   4.608  10.163 -2.1858  0.0926  2.4004
  906MOL0     H22260   1.416   4.493  10.058  1.0547 -0.1311 -0.8224
  906MOL0     H22261   1.443   4.550   9.789 -2.4333 -0.3948  3.8175
  906MOL0     H22262   1.615   4.821   9.596  4.2100  1.7709  1.4460
  906MOL0     H22263   1.752   4.727   9.639 -0.1963  0.4338 -0.8899
  906MOL0     H22264   1.644   4.513   9.612  3.8847  1.8986 -0.0491
  906MOL0     H22265   1.491   4.584   9.551 -1.0660  4.7446  0.8874
  906MOL0     H22266   1.623   4.699   9.361 -0.0292 -0.4158 -0.9327
  906MOL0     H22267   1.607   4.526   9.353 -1.8778 -0.5878  3.0069
  906MOL0     H22268   1.828   4.561   9.298 -2.1497  3.1099 -1.9425
  906MOL0     H22269   1.857   4.540   9.474  1.7986  1.1278  0.6293
  906MOL0     H22270   2.054   4.583   9.335  4.3086 -0.5411 -0.3269
  906MOL0     H22271   2.273   4.664   9.283  0.1769  0.6601  1.5881
  906MOL0     H22272   2.577   4.997   9.135 -0.6134  1.5526  1.6255
  906MOL0     H22273   2.814   5.064   9.118  1.2576  1.2322  2.2330
  906MOL0     H22274   3.138   4.836   9.376  2.2126 -1.2482 -0.9806
  906MOL0     H22275   3.134   4.828   9.196  0.0980 -0.7804  0.4183
  906MOL0     H22276   3.254   5.024   9.176  0.1733 -0.2704 -0.8996
  906MOL0     H22277   3.228   5.076   9.340  4.1284  0.8581 -0.0850
  906MOL0     H22278   3.371   4.857   9.402 -0.4087 -2.6274 -0.9024
  906MOL0     H22279   3.394   4.828   9.228 -1.3654  0.6462 -0.7287
  906MOL0     H22280   3.496   5.081   9.366  0.0221 -0.8575  0.9960
  906MOL0     H22281   3.503   5.047   9.193 -3.2410 -0.0283 -0.0600
  906MOL0     H22282   3.646   4.854   9.252 -2.0440 -1.2548  1.4306
  906MOL0     H22283   3.653   4.906   9.415 -0.5479 -1.9082 -0.0066
  906MOL0     H22284   3.785   5.060   9.188 -0.6304 -0.0025 -0.0939
  906MOL0     H22285   3.735   5.145   9.323 -0.8094  0.0849 -3.1469
  906MOL0     H22286   3.911   4.902   9.326 -2.1458 -0.4711  0.0283
  906MOL0     H22287   3.869   4.978   9.470 -0.8512  0.1386 -0.0270
  906MOL0     H22288   4.097   5.057   9.379  0.0365 -0.8929 -1.6763
  906MOL0     H22289   4.018   5.119   9.234  0.7886 -0.4022 -0.0078
  906MOL0     H22290   2.913   4.777   9.410 -2.1444 -1.5995  0.8300
  906MOL0     H22291   2.676   4.710   9.420 -1.4812  1.4809  1.6878
  906MOL0     H22292   2.166   5.055   9.429  0.8137 -0.0002  0.4878
  906MOL0     H22293   1.941   4.990   9.432 -0.4570  0.0139 -0.5844
  906MOL0     H22294   0.462   4.898  10.543 -0.5858  3.5717 -2.1316
  906MOL0     H22295   0.227   4.971  10.573  1.8257  0.0787 -0.7571
  906MOL0     H22296  -0.201   4.893  10.590 -3.1556 -2.5777 -0.6234
  906MOL0     H22297  -0.429   4.977  10.638  2.2069 -1.4428  0.7746
  906MOL0     H22298  -0.616   5.143  10.320  2.2774  0.3352  0.3074
  906MOL0     H22299  -0.637   5.309  10.392 -1.3747  0.8140  4.1408
  906MOL0     H22300  -0.853   5.229  10.392  0.5469 -2.9816 -3.0843
  906MOL0     H22301  -0.791   5.181  10.563  0.1953 -1.3946  0.1077
  906MOL0     H22302  -0.731   4.964  10.465  0.6102 -0.5760 -0.8648
  906MOL0     H22303  -0.817   5.001  10.317 -5.5585 -0.5333  0.7898
  906MOL0     H22304  -0.956   4.866  10.467  2.5269 -0.3338 -1.5355
  906MOL0     H22305  -0.953   4.992  10.596  0.5816  0.9635 -0.0689
  906MOL0     H22306  -1.238   5.102  10.287 -0.6018  0.5508 -0.4767
  906MOL0     H22307  -0.397   5.258  10.317  1.6882  0.4403 -1.3240
  906MOL0     H22308  -0.200   5.325  10.243 -0.9732 -0.1001  1.8539
  906MOL0     H22309  -0.046   5.249  10.292 -0.1578  0.9119  0.5805
  906MOL0     H22310  -0.147   5.180  10.167  0.3168 -1.6259  0.5699
  907MOL0     O22311   9.953   6.900   7.911 -0.1260  0.2082  0.3420
  907MOL0     C22312   9.888   6.986   7.966 -0.0687 -0.2792  0.4085
  907MOL0     O22313   9.920   7.061   8.073  0.2291 -0.3343  0.2896
  907MOL0     C22314  10.030   7.015   8.141 -0.2768  0.6467 -0.2521
  907MOL0     C22315  10.156   6.990   8.095  0.4369  0.5480  0.7642
  907MOL0     C22316  10.254   6.938   8.173 -0.1273  0.2455 -0.2929
  907MOL0     C22317  10.225   6.904   8.309  0.6866 -0.2743 -0.5052
  907MOL0     O22318  10.325   6.856   8.393  0.1293 -0.4321  0.2337
  907MOL0     C22319  10.352   6.720   8.384  0.1365 -1.0027 -0.0433
  907MOL0     C22320  10.475   6.694   8.470 -0.3098  0.0860 -0.0922
  907MOL0     C22321  10.559   6.566   8.443 -0.1114  1.3894 -0.6717
  907MOL0     C22322  10.664   6.602   8.332  0.1698 -0.2942  0.3603
  907MOL0     C22323  10.784   6.685   8.389  0.3958  0.7039  0.2135
  907MOL0     C22324  10.899   6.677   8.292  0.0623 -0.2925 -0.6992
  907MOL0     C22325  10.868   6.749   8.162  0.6943 -1.4834  0.3885
  907MOL0     C22326  10.988   6.763   8.078  0.4509  0.0548  0.0772
  907MOL0     N22327  11.088   6.865   8.116  0.4577 -0.0965  0.4854
  907MOL0     C22328  11.192   6.909   8.032  0.8402  0.6392 -0.1387
  907MOL0     C22329  11.264   6.985   8.108 -0.1367  0.6708  0.8490
  907MOL0     C22330  11.391   7.054   8.057 -0.5117 -0.3337 -0.1623
  907MOL0     C22331  11.512   6.960   8.076  0.0750 -1.4947  0.3474
  907MOL0     C22332  11.508   6.840   7.992 -0.4787  0.3490 -0.6574
  907MOL0     C22333  11.632   6.766   7.991 -1.0157  1.1217  0.5867
  907MOL0     O22334  11.683   6.731   8.113 -0.2359 -0.1507  0.1287
  907MOL0     C22335  11.809   6.670   8.114 -0.4805  0.9733 -0.7053
  907MOL0     C22336  11.878   6.628   7.999 -0.6402  1.0482 -0.0970
  907MOL0     C22337  12.003   6.564   8.021  0.7825 -0.0338 -0.0398
  907MOL0     C22338  12.066   6.541   8.141 -0.4947 -1.1022 -0.1995
  907MOL0     C22339  12.181   6.457   8.168 -1.0757 -0.2788 -0.0384
  907MOL0     O22340  12.245   6.393   8.070  1.1050 -0.7286  0.2468
  907MOL0     C22341  12.366   6.330   8.098 -0.7361  0.7743  0.5407
  907MOL0     C22342  12.490   6.396   8.072  0.9944 -0.1256 -0.1340
  907MOL0     C22343  12.612   6.336   8.076 -0.5641 -0.1901  0.0190
  907MOL0     C22344  12.623   6.197   8.106  0.3246  0.4530  0.0954
  907MOL0     O22345  12.737   6.142   8.137 -0.3805  0.4129 -0.8214
  907MOL0     C22346  12.810   6.086   8.022 -0.0199  0.5083 -0.9328
  907MOL0     C22347  12.941   6.022   8.073  0.0804 -0.0935 -0.0359
  907MOL0     C22348  13.026   6.127   8.157  0.4950  0.1661 -0.6569
  907MOL0     C22349  13.056   6.264   8.093 -0.4846  0.4778  0.1816
  907MOL0     C22350  13.089   6.381   8.188  0.5288  0.5156  0.4799
  907MOL0     C22351  13.213   6.352   8.286 -1.6596  1.6121 -0.6230
  907MOL0     C22352  13.346   6.293   8.211  0.0006 -0.0762 -0.0373
  907MOL0     C22353  13.475   6.267   8.286 -0.2137 -0.1803 -0.2704
  907MOL0    Cl22354  13.604   6.239   8.165 -0.6483  0.6022 -0.5565
  907MOL0     C22355  12.505   6.132   8.132  0.0613  0.3802  0.2177
  907MOL0     C22356  12.378   6.195   8.125 -0.5674  0.4948  0.3387
  907MOL0     O22357  12.220   6.449   8.283  0.1158 -0.7244 -0.1712
  907MOL0     C22358  12.001   6.594   8.257  0.6408  0.1376  0.5221
  907MOL0     C22359  11.869   6.643   8.238 -0.0338 -0.1949  0.8377
  907MOL0     N22360  11.217   6.981   8.231  0.8652  1.0776  0.1102
  907MOL0     N22361  11.109   6.911   8.243  0.0910  0.5146  0.6439
  907MOL0     C22362  10.098   6.938   8.359  0.0570 -0.6399 -0.1045
  907MOL0     C22363  10.001   6.993   8.277 -0.3578  0.2831  0.2294
  907MOL0     C22364   9.750   6.988   7.916 -0.0999 -0.9255  0.9030
  907MOL0     C22365   9.723   6.968   7.779 -0.4156 -0.1206 -0.4522
  907MOL0     C22366   9.591   6.959   7.728  0.3026 -0.9351 -0.1735
  907MOL0     C22367   9.480   6.961   7.818  0.2658 -0.5281 -0.7686
  907MOL0     O22368   9.351   6.962   7.782 -0.7966 -0.6379 -0.6954
  907MOL0     C22369   9.328   7.015   7.650 -0.0145 -0.6093  0.0207
  907MOL0     C22370   9.172   7.041   7.637  0.3772 -1.2382 -0.5122
  907MOL0     C22371   9.091   6.912   7.633  0.1042  0.7587  0.5366
  907MOL0     C22372   8.937   6.947   7.639 -0.2666 -0.3908 -0.6284
  907MOL0     C22373   8.908   7.030   7.519 -0.2407  0.3881  0.0404
  907MOL0     C22374   8.891   7.099   7.416  0.8338  0.9083  0.3264
  907MOL0     C22375   9.511   6.987   7.953  0.1450 -0.1837  0.7308
  907MOL0     C22376   9.641   6.998   8.001 -0.0768  0.8296  0.5785
  907MOL0     C22377   9.659   6.984   8.150  0.1722  0.1495  0.4400
  907MOL0     H22378  10.182   7.026   7.996 -0.0022  2.2232  1.2288
  907MOL0     H22379  10.357   6.923   8.143  0.6529  0.4029  2.0823
  907MOL0     H22380  10.266   6.668   8.426 -0.6110  1.1881  1.2925
  907MOL0     H22381  10.368   6.690   8.280 -0.7014  1.2241 -0.8807
  907MOL0     H22382  10.422   6.685   8.565 -1.8315  0.7371 -0.8400
  907MOL0     H22383  10.538   6.782   8.459 -0.2836 -0.1887 -3.4114
  907MOL0     H22384  10.495   6.479   8.424  1.9636 -0.5692  0.7034
  907MOL0     H22385  10.607   6.526   8.533 -1.4662 -0.2644 -0.6422
  907MOL0     H22386  10.691   6.512   8.275 -0.8618 -0.0289 -0.5773
  907MOL0     H22387  10.622   6.678   8.266  1.5341  1.9493  1.9228
  907MOL0     H22388  10.756   6.787   8.417 -3.7162 -0.6696  1.8878
  907MOL0     H22389  10.815   6.632   8.479  0.0380  0.2389  0.0687
  907MOL0     H22390  10.986   6.723   8.338 -0.1484 -0.5804  0.0037
  907MOL0     H22391  10.935   6.575   8.276  3.0910  0.7397 -1.0287
  907MOL0     H22392  10.818   6.844   8.182 -1.7165 -2.4514 -0.5900
  907MOL0     H22393  10.792   6.695   8.105  0.8482 -1.9080  0.5796
  907MOL0     H22394  11.038   6.667   8.064 -0.2966 -0.0426 -2.2979
  907MOL0     H22395  10.950   6.782   7.977 -2.2118 -0.7734  0.8551
  907MOL0     H22396  11.202   6.888   7.926 -3.0626  0.5132 -0.6356
  907MOL0     H22397  11.394   7.055   7.947 -0.0126 -1.9514 -0.1792
  907MOL0     H22398  11.413   7.152   8.100  1.0217 -0.3627 -0.8154
  907MOL0     H22399  11.600   7.018   8.047 -0.0364 -1.9964 -1.0798
  907MOL0     H22400  11.498   6.939   8.182 -0.4221 -1.8690  0.2143
  907MOL0     H22401  11.480   6.869   7.890 -0.2537 -1.6299 -1.3292
  907MOL0     H22402  11.430   6.775   8.032 -1.0957  0.7538 -1.1694
  907MOL0     H22403  11.706   6.833   7.946 -1.1090  2.5645  2.4866
  907MOL0     H22404  11.613   6.682   7.923  1.5847  1.3264 -0.5051
  907MOL0     H22405  11.841   6.638   7.897  0.8278  0.8012 -0.6757
  907MOL0     H22406  12.050   6.519   7.935  0.3921 -0.8476  0.1610
  907MOL0     H22407  12.485   6.497   8.033  0.3420 -0.2883 -0.4880
  907MOL0     H22408  12.700   6.395   8.051 -2.0336  1.3847 -1.7631
  907MOL0     H22409  12.748   6.018   7.964 -2.6593  4.0975 -2.7102
  907MOL0     H22410  12.825   6.165   7.948  1.5933 -0.1426 -1.3494
  907MOL0     H22411  12.920   5.933   8.132  0.1990 -0.8726 -1.1383
  907MOL0     H22412  12.999   5.997   7.984 -1.9417  1.9690 -2.0476
  907MOL0     H22413  12.976   6.142   8.253  1.5425 -2.3865  0.3605
  907MOL0     H22414  13.121   6.084   8.188 -1.4436 -3.5333  0.7334
  907MOL0     H22415  12.979   6.293   8.022  2.4844  2.0147 -2.6895
  907MOL0     H22416  13.139   6.248   8.023  2.0907  0.7707  2.9357
  907MOL0     H22417  12.999   6.398   8.247  1.0039  2.1810  0.7804
  907MOL0     H22418  13.105   6.471   8.128  2.2977 -0.7127 -1.0325
  907MOL0     H22419  13.231   6.438   8.352  1.8386  0.4347  0.1629
  907MOL0     H22420  13.173   6.267   8.342 -0.8653 -1.6128 -4.5177
  907MOL0     H22421  13.357   6.358   8.123 -1.0473 -1.0750 -0.9423
  907MOL0     H22422  13.320   6.198   8.163 -0.2333 -0.9780  1.8044
  907MOL0     H22423  13.508   6.349   8.351 -1.5928 -1.0796  1.6585
  907MOL0     H22424  13.461   6.184   8.356 -0.7904 -0.3829 -0.6249
  907MOL0     H22425  12.534   6.030   8.154  0.9435  0.7909  1.0045
  907MOL0     H22426  12.290   6.133   8.142  0.9623 -1.1383  2.9630
  907MOL0     H22427  12.048   6.578   8.353  4.7319  0.2152 -1.2471
  907MOL0     H22428  11.808   6.678   8.320 -2.0447  0.8233 -1.0087
  907MOL0     H22429  10.072   6.927   8.464  1.7866 -0.3438  0.3959
  907MOL0     H22430   9.903   7.018   8.316  0.2878  2.2155  0.7204
  907MOL0     H22431   9.806   6.953   7.711  0.9779 -0.3604  1.2320
  907MOL0     H22432   9.583   6.945   7.621  2.2192  3.4660 -1.1350
  907MOL0     H22433   9.358   6.951   7.566 -0.3751  1.9299 -2.1779
  907MOL0     H22434   9.381   7.108   7.628  1.0052 -1.3752 -0.9108
  907MOL0     H22435   9.159   7.088   7.539 -1.6527 -3.3054 -1.3455
  907MOL0     H22436   9.138   7.111   7.715  3.5574 -1.0341  0.8219
  907MOL0     H22437   9.109   6.860   7.727 -2.9864  0.0063  0.8388
  907MOL0     H22438   9.114   6.853   7.544 -1.4726 -0.7466  1.0585
  907MOL0     H22439   8.876   6.857   7.623 -0.3520 -0.2826 -0.8951
  907MOL0     H22440   8.919   7.010   7.726 -1.0493  2.6119 -2.8076
  907MOL0     H22441   8.866   7.168   7.339  0.3893 -0.1708 -0.5264
  907MOL0     H22442   9.426   6.987   8.021 -1.6297  0.2064 -1.3865
  907MOL0     H22443   9.567   6.957   8.201  0.1633 -0.7821 -0.0438
  907MOL0     H22444   9.738   6.914   8.179  2.1701  1.8036 -0.6873
  907MOL0     H22445   9.702   7.077   8.189  3.2867 -1.0657  0.2527
  908MOL0     O22446   8.520   5.324   3.349 -0.2995  0.1670  0.1552
  908MOL0     C22447   8.461   5.227   3.393 -0.7489 -0.4582 -0.9347
  908MOL0     O22448   8.517   5.152   3.500  0.0860 -0.5217 -0.2226
  908MOL0     C22449   8.613   5.215   3.569  0.2715  0.1818 -0.3399
  908MOL0     C22450   8.723   5.127   3.594 -0.1568  0.0642  0.6153
  908MOL0     C22451   8.838   5.161   3.663 -1.0239 -1.7819  1.1875
  908MOL0     C22452   8.854   5.298   3.702 -0.4931 -0.2701 -0.7079
  908MOL0     O22453   8.977   5.343   3.750  0.8497 -0.3745  0.1074
  908MOL0     C22454   9.095   5.273   3.720 -0.1109 -0.1747 -0.1524
  908MOL0     C22455   9.219   5.353   3.757  0.1397  0.2804  0.7102
  908MOL0     C22456   9.230   5.376   3.908 -0.1199  0.2230  0.0723
  908MOL0     C22457   9.364   5.446   3.932  0.5499 -0.1128  0.0947
  908MOL0     C22458   9.409   5.437   4.075  0.1020 -0.0692 -0.3405
  908MOL0     C22459   9.544   5.508   4.086 -0.3375  0.4823  0.0659
  908MOL0     C22460   9.605   5.483   4.220  0.0845 -0.0679 -0.1984
  908MOL0     C22461   9.520   5.536   4.330 -0.3733  0.7738  0.9976
  908MOL0     N22462   9.601   5.536   4.453 -0.0363 -0.4452  0.9438
  908MOL0     C22463   9.571   5.616   4.560 -0.5090  0.2993 -0.0483
  908MOL0     C22464   9.629   5.547   4.669 -0.7940 -0.8381  0.0030
  908MOL0     C22465   9.619   5.578   4.819 -0.2800 -0.1310  1.0288
  908MOL0     C22466   9.767   5.578   4.871  0.9509 -0.4937 -0.3927
  908MOL0     C22467   9.856   5.689   4.808 -1.5566  0.2778  0.5710
  908MOL0     C22468   9.993   5.699   4.880 -0.3456 -0.4691 -0.4305
  908MOL0     O22469   9.987   5.771   4.999  0.7596  0.0050 -0.1695
  908MOL0     C22470  10.103   5.813   5.069 -0.0204  0.5350 -0.0710
  908MOL0     C22471  10.234   5.784   5.032 -0.5218  0.6536  0.1781
  908MOL0     C22472  10.343   5.838   5.107 -0.3360 -0.5498 -0.3600
  908MOL0     C22473  10.318   5.923   5.213  0.1816 -0.8420 -1.2265
  908MOL0     C22474  10.431   5.982   5.284  0.9157 -0.1630  0.1537
  908MOL0     O22475  10.547   5.909   5.299  0.1993  0.1613 -0.5975
  908MOL0     C22476  10.660   5.961   5.354 -0.7248 -0.2048  0.3448
  908MOL0     C22477  10.739   6.038   5.270  0.4496  0.8433 -0.7862
  908MOL0     C22478  10.862   6.091   5.332  0.4316 -0.1015  0.4219
  908MOL0     C22479  10.893   6.059   5.468 -0.3764  0.6356  0.1033
  908MOL0     O22480  11.004   6.093   5.527 -0.2676 -0.2560  0.1811
  908MOL0     C22481  11.026   6.100   5.671 -0.0447 -0.4205 -0.8337
  908MOL0     C22482  11.160   6.174   5.691 -0.5831  0.2104  0.1909
  908MOL0     C22483  11.132   6.320   5.646 -0.5319 -0.0708 -0.2105
  908MOL0     C22484  11.253   6.396   5.692 -0.2623 -1.3317 -0.5143
  908MOL0     C22485  11.224   6.464   5.829 -0.3654 -0.1970 -0.3908
  908MOL0     C22486  11.352   6.513   5.904 -0.7542  0.0190  0.3701
  908MOL0     C22487  11.314   6.527   6.054  0.9657 -0.1382 -1.0440
  908MOL0     C22488  11.206   6.630   6.074 -0.2679 -0.2722  0.1380
  908MOL0    Cl22489  11.260   6.794   6.020  0.0239 -0.2566 -0.7961
  908MOL0     C22490  10.813   5.970   5.541  0.1677  0.1346 -0.8375
  908MOL0     C22491  10.692   5.926   5.482  0.2173 -0.4812 -0.1097
  908MOL0     O22492  10.406   6.091   5.332 -0.3902 -0.6158 -0.2939
  908MOL0     C22493  10.188   5.946   5.258  0.2715  0.0602 -0.4166
  908MOL0     C22494  10.086   5.895   5.178 -0.4218 -0.1468  0.5654
  908MOL0     N22495   9.687   5.432   4.620 -0.1671  0.0315 -0.1295
  908MOL0     N22496   9.668   5.424   4.489  0.0965 -0.0912 -0.1599
  908MOL0     C22497   8.738   5.384   3.686 -0.0514  0.1182  0.5267
  908MOL0     C22498   8.620   5.339   3.624  0.4203 -0.6330  0.2957
  908MOL0     C22499   8.330   5.188   3.344 -0.8469  0.0920 -0.4856
  908MOL0     C22500   8.245   5.285   3.282  0.3889  0.2907 -0.0207
  908MOL0     C22501   8.119   5.267   3.237 -0.5127  0.2580 -0.1562
  908MOL0     C22502   8.066   5.139   3.250 -0.6289 -0.3048 -0.2425
  908MOL0     O22503   7.946   5.101   3.201 -0.3684 -0.1660  0.5728
  908MOL0     C22504   7.842   5.126   3.286 -0.6133  0.7649 -0.7314
  908MOL0     C22505   7.712   5.053   3.237 -0.1068  0.1548 -0.0284
  908MOL0     C22506   7.643   5.014   3.366  0.2601 -0.2325  0.2535
  908MOL0     C22507   7.532   4.905   3.351  0.0866  0.1666 -0.1578
  908MOL0     C22508   7.588   4.769   3.353  0.2071  0.0436 -0.7080
  908MOL0     C22509   7.649   4.665   3.353  0.5851  0.3695 -0.3552
  908MOL0     C22510   8.144   5.037   3.308  0.1776 -0.0232  0.3607
  908MOL0     C22511   8.275   5.061   3.354  0.0405 -0.1427  0.4197
  908MOL0     C22512   8.344   4.943   3.402  1.1564 -1.0712 -0.8920
  908MOL0     H22513   8.726   5.026   3.556  2.2044  0.1990  0.3225
  908MOL0     H22514   8.913   5.084   3.677 -1.2600 -2.1299  0.5967
  908MOL0     H22515   9.092   5.173   3.764 -4.6782 -0.3583 -0.4103
  908MOL0     H22516   9.103   5.264   3.611  0.2954 -0.5818 -0.0913
  908MOL0     H22517   9.206   5.453   3.714  1.0445 -0.0726 -0.4203
  908MOL0     H22518   9.311   5.313   3.714  0.2768  0.9489  0.3660
  908MOL0     H22519   9.228   5.283   3.966  1.9970  1.6420  2.6366
  908MOL0     H22520   9.152   5.443   3.944  0.3757  1.7335 -1.5378
  908MOL0     H22521   9.444   5.398   3.874  0.9903 -0.9739  1.3743
  908MOL0     H22522   9.357   5.553   3.911 -2.5322 -0.1540  0.4154
  908MOL0     H22523   9.324   5.482   4.127 -0.5899  2.4656 -3.3775
  908MOL0     H22524   9.425   5.334   4.108  0.8262 -0.0008 -0.4615
  908MOL0     H22525   9.615   5.479   4.008 -0.8587  1.9435 -0.9868
  908MOL0     H22526   9.534   5.615   4.065  3.3378  0.9654  0.0624
  908MOL0     H22527   9.702   5.534   4.221 -0.2210  0.5461 -0.6907
  908MOL0     H22528   9.623   5.376   4.233 -0.6124 -0.1004  0.6027
  908MOL0     H22529   9.476   5.635   4.316 -0.7837  0.5616  0.7296
  908MOL0     H22530   9.435   5.468   4.347 -1.0612  1.3578  0.0115
  908MOL0     H22531   9.506   5.703   4.563 -1.0946  0.0637 -3.1970
  908MOL0     H22532   9.561   5.669   4.834 -2.7071 -1.3860 -0.2526
  908MOL0     H22533   9.566   5.494   4.866 -1.0665 -1.6807 -2.3025
  908MOL0     H22534   9.759   5.595   4.978  0.2390 -1.3934 -0.2868
  908MOL0     H22535   9.817   5.482   4.854  1.6178 -0.9983  3.6320
  908MOL0     H22536   9.809   5.788   4.804 -0.5920  0.7453  0.6244
  908MOL0     H22537   9.872   5.656   4.704  0.8965 -0.0158  1.0027
  908MOL0     H22538  10.069   5.753   4.823  1.3571 -1.4448  0.7754
  908MOL0     H22539  10.041   5.601   4.893  0.4728  0.0562  0.7402
  908MOL0     H22540  10.251   5.728   4.941 -0.9055  0.9221 -0.0569
  908MOL0     H22541  10.448   5.828   5.083  0.3514 -0.8567  2.5260
  908MOL0     H22542  10.716   6.078   5.173  1.3006  0.3425 -1.2140
  908MOL0     H22543  10.922   6.153   5.266 -3.1423  2.9491 -0.2803
  908MOL0     H22544  10.946   6.158   5.719 -0.5106 -1.6860 -0.0310
  908MOL0     H22545  11.041   6.007   5.725 -1.3588  0.0518  0.4015
  908MOL0     H22546  11.207   6.168   5.789  0.3730  0.6068 -0.2246
  908MOL0     H22547  11.232   6.123   5.626 -0.9075 -1.9394  1.4358
  908MOL0     H22548  11.114   6.332   5.538  0.9616  4.0790 -0.1987
  908MOL0     H22549  11.041   6.370   5.682 -0.5370  2.1575 -2.9196
  908MOL0     H22550  11.290   6.462   5.613  2.0811 -2.1888 -0.2256
  908MOL0     H22551  11.341   6.334   5.712  1.0851 -0.0426 -2.1943
  908MOL0     H22552  11.173   6.381   5.877 -3.0085 -0.2261 -2.9787
  908MOL0     H22553  11.144   6.538   5.830  0.4193  0.6740 -0.0751
  908MOL0     H22554  11.431   6.440   5.884  1.0428  0.7274  3.9733
  908MOL0     H22555  11.373   6.613   5.864  2.6053 -0.5946  0.2734
  908MOL0     H22556  11.398   6.546   6.122  1.7807 -1.9614 -1.4718
  908MOL0     H22557  11.270   6.435   6.092  0.7213 -0.0205 -1.0429
  908MOL0     H22558  11.117   6.602   6.015 -0.1653  0.5364 -0.4178
  908MOL0     H22559  11.178   6.635   6.179 -2.1992  1.2943 -0.3879
  908MOL0     H22560  10.831   5.948   5.646 -0.7349  2.2630 -0.1813
  908MOL0     H22561  10.620   5.863   5.533 -0.3991  0.1641 -0.1673
  908MOL0     H22562  10.167   5.993   5.354 -2.5407  0.1913 -1.0042
  908MOL0     H22563   9.992   5.934   5.216 -0.5082  0.3542 -0.1533
  908MOL0     H22564   8.743   5.487   3.720  0.6850  0.4112 -0.4318
  908MOL0     H22565   8.535   5.405   3.605 -0.7032 -1.9039  0.7257
  908MOL0     H22566   8.287   5.382   3.258  1.5596  0.0417  0.9200
  908MOL0     H22567   8.067   5.340   3.176 -1.1184 -0.0706 -0.0506
  908MOL0     H22568   7.821   5.231   3.307 -2.3159  0.3691 -0.3238
  908MOL0     H22569   7.869   5.074   3.378 -1.8320 -2.2031 -1.9075
  908MOL0     H22570   7.756   4.961   3.197  0.2980 -1.6247  3.9704
  908MOL0     H22571   7.644   5.101   3.167 -1.2805  0.4513  1.2786
  908MOL0     H22572   7.598   5.104   3.410 -0.4571 -0.6494  0.3773
  908MOL0     H22573   7.710   4.982   3.446 -1.5738 -2.2951  1.0544
  908MOL0     H22574   7.458   4.921   3.430  0.1571 -0.1366 -0.0260
  908MOL0     H22575   7.479   4.923   3.257 -2.1677 -1.2934  0.7394
  908MOL0     H22576   7.713   4.581   3.371 -1.2076 -0.9763 -0.0423
  908MOL0     H22577   8.098   4.939   3.319  0.8144 -0.5562 -1.3426
  908MOL0     H22578   8.448   4.952   3.371  0.7868  0.2528 -1.8301
  908MOL0     H22579   8.329   4.917   3.508 -0.5647 -1.9087 -1.3040
  908MOL0     H22580   8.312   4.853   3.348 -1.2297 -0.5674 -0.4099
  909MOL0     O22581  10.648   7.065   5.609  1.3148  0.0016 -0.4009
  909MOL0     C22582  10.532   7.118   5.624  0.1341  0.6344 -0.0835
  909MOL0     O22583  10.504   7.251   5.590 -0.3067  0.2606  0.4046
  909MOL0     C22584  10.594   7.312   5.498 -0.3227 -0.2362 -0.6556
  909MOL0     C22585  10.632   7.260   5.381 -0.6861 -0.0621  0.3350
  909MOL0     C22586  10.739   7.319   5.310 -0.3488 -0.2687  0.3046
  909MOL0     C22587  10.800   7.436   5.349  0.1042 -0.3310 -0.1545
  909MOL0     O22588  10.893   7.502   5.269  0.4383 -0.0880  0.6163
  909MOL0     C22589  10.852   7.527   5.129  0.1005 -0.3722  0.0018
  909MOL0     C22590  10.887   7.657   5.082 -0.0453  0.1002  0.2599
  909MOL0     C22591  11.028   7.680   5.025  0.6206  0.0692  0.2752
  909MOL0     C22592  11.029   7.822   4.972  1.0384 -0.4484  0.4167
  909MOL0     C22593  11.172   7.858   4.912 -0.3197 -0.0235  1.5466
  909MOL0     C22594  11.177   8.005   4.865  0.1418 -0.7185 -0.3585
  909MOL0     C22595  11.283   8.034   4.759  0.6971  0.1956  0.5894
  909MOL0     C22596  11.265   8.172   4.710 -0.4258  0.2149 -0.2311
  909MOL0     N22597  11.291   8.283   4.802  0.3787  0.8742  0.0782
  909MOL0     C22598  11.395   8.375   4.804  0.1443  0.3214 -0.1372
  909MOL0     C22599  11.358   8.455   4.904 -0.1257  0.1276 -0.1214
  909MOL0     C22600  11.440   8.574   4.964  0.2169  0.2185  0.3652
  909MOL0     C22601  11.375   8.701   4.898  0.0945  0.2059 -0.5857
  909MOL0     C22602  11.418   8.834   4.961  0.4487 -0.0457  0.3704
  909MOL0     C22603  11.560   8.850   5.011  0.3319 -0.1812 -0.6887
  909MOL0     O22604  11.644   8.846   4.897  0.7691  0.5112  0.5053
  909MOL0     C22605  11.778   8.843   4.904 -0.2933 -0.1216 -0.0219
  909MOL0     C22606  11.844   8.879   5.024  0.4342 -0.6200  0.1408
  909MOL0     C22607  11.986   8.874   5.038 -0.3254  1.1831  0.6675
  909MOL0     C22608  12.068   8.840   4.920  0.9494 -1.1047  0.1712
  909MOL0     C22609  12.210   8.846   4.931 -0.0700 -0.2513 -0.8480
  909MOL0     O22610  12.275   8.784   4.831 -0.2075 -0.6724  0.6848
  909MOL0     C22611  12.407   8.795   4.832  1.0079  0.7259  0.6795
  909MOL0     C22612  12.485   8.681   4.851 -0.4917 -0.5900  0.4151
  909MOL0     C22613  12.624   8.689   4.863 -0.4206  0.4102 -0.3541
  909MOL0     C22614  12.687   8.809   4.847  0.3806  0.4765 -0.1040
  909MOL0     O22615  12.825   8.814   4.853 -0.2880  0.7839 -0.3703
  909MOL0     C22616  12.882   8.939   4.889 -0.1651 -0.0816 -0.0882
  909MOL0     C22617  13.034   8.928   4.908 -0.1652 -0.0009  0.2701
  909MOL0     C22618  13.114   8.896   4.781  0.8271  0.2360 -0.5582
  909MOL0     C22619  13.264   8.865   4.819  0.1184 -0.8670  0.1167
  909MOL0     C22620  13.345   8.877   4.690 -0.3679  0.4363 -0.1829
  909MOL0     C22621  13.493   8.884   4.729 -0.1154 -0.7744 -0.0189
  909MOL0     C22622  13.585   8.877   4.610  0.1360 -0.2377 -0.3305
  909MOL0     C22623  13.729   8.862   4.636 -0.3920 -0.2733 -0.5204
  909MOL0    Cl22624  13.775   8.972   4.771  0.8356 -0.0949 -0.4232
  909MOL0     C22625  12.609   8.917   4.812 -0.1837  0.0289  0.0382
  909MOL0     C22626  12.473   8.907   4.806 -0.1986  0.9469  0.3099
  909MOL0     O22627  12.263   8.912   5.021  0.6024  0.0412  0.1625
  909MOL0     C22628  12.000   8.813   4.799 -0.6403  0.3944  0.0132
  909MOL0     C22629  11.861   8.816   4.787 -0.2329  0.4084  0.6568
  909MOL0     N22630  11.235   8.424   4.953  0.0144  0.7260 -0.6680
  909MOL0     N22631  11.189   8.321   4.892  0.0739 -0.4766 -0.1766
  909MOL0     C22632  10.747   7.490   5.468  0.1679 -0.3103  0.7993
  909MOL0     C22633  10.648   7.427   5.538 -0.0841 -0.1488 -0.6792
  909MOL0     C22634  10.423   7.039   5.677  0.3930  0.0158 -0.3213
  909MOL0     C22635  10.331   7.118   5.742 -0.2685  0.4559 -0.1170
  909MOL0     C22636  10.214   7.057   5.792 -0.5155 -0.0404  0.6424
  909MOL0     C22637  10.205   6.920   5.773 -0.2611  1.0228 -0.6893
  909MOL0     O22638  10.087   6.863   5.822  0.4906  0.0352  0.6715
  909MOL0     C22639   9.975   6.856   5.737 -0.0230  0.0361  0.3340
  909MOL0     C22640   9.922   6.714   5.723  0.5503  0.4060 -0.2377
  909MOL0     C22641   9.887   6.639   5.858  0.3864  0.5843 -0.0977
  909MOL0     C22642   9.798   6.519   5.844  0.0951 -0.1150  0.0652
  909MOL0     C22643   9.667   6.552   5.791  0.4465  0.3525 -0.0911
  909MOL0     C22644   9.555   6.570   5.745  0.4598 -0.5432 -0.1802
  909MOL0     C22645  10.306   6.838   5.724 -0.5808  0.8539  0.4532
  909MOL0     C22646  10.418   6.895   5.667 -0.6353 -0.3675  0.3384
  909MOL0     C22647  10.521   6.810   5.602  0.6697  0.0857 -0.1004
  909MOL0     H22648  10.587   7.166   5.352 -1.1436 -0.1168  1.1814
  909MOL0     H22649  10.774   7.264   5.223 -0.0218  0.3861  0.0153
  909MOL0     H22650  10.916   7.455   5.076  2.4281  0.2991  1.7540
  909MOL0     H22651  10.747   7.513   5.103 -1.5000  4.1681  2.9625
  909MOL0     H22652  10.870   7.730   5.162  1.1591 -0.4763  1.0701
  909MOL0     H22653  10.812   7.677   5.004 -1.4877  1.4710  1.9136
  909MOL0     H22654  11.051   7.607   4.947 -0.5750  0.5460 -0.5497
  909MOL0     H22655  11.106   7.654   5.097  0.2235 -1.9591  0.0181
  909MOL0     H22656  10.950   7.842   4.898  0.8095  3.6984  1.5137
  909MOL0     H22657  11.001   7.896   5.047 -0.3280  3.2148 -3.2847
  909MOL0     H22658  11.240   7.835   4.995 -0.2912  0.2088  1.5885
  909MOL0     H22659  11.191   7.792   4.827 -1.9961  1.7425 -0.2945
  909MOL0     H22660  11.074   8.034   4.841  0.0262  0.6643  1.5258
  909MOL0     H22661  11.198   8.061   4.957  1.2958 -1.0539 -0.4063
  909MOL0     H22662  11.273   7.968   4.672  1.1565  0.2429  0.4970
  909MOL0     H22663  11.385   8.015   4.795  1.1316 -2.2341 -1.6613
  909MOL0     H22664  11.332   8.183   4.624 -3.5823  3.9805 -2.6122
  909MOL0     H22665  11.167   8.194   4.665 -1.7100 -1.5585  1.5191
  909MOL0     H22666  11.488   8.374   4.749  2.1227 -1.2869  2.9289
  909MOL0     H22667  11.424   8.579   5.072  0.7426  3.0461  0.3783
  909MOL0     H22668  11.548   8.569   4.948  0.5254  3.5840  0.6369
  909MOL0     H22669  11.391   8.694   4.790 -0.5826 -0.7999 -0.6388
  909MOL0     H22670  11.268   8.688   4.912  0.4590 -3.5152 -0.0419
  909MOL0     H22671  11.350   8.853   5.045 -1.2970 -1.9650 -0.5143
  909MOL0     H22672  11.417   8.921   4.896  0.0139  0.9179  1.6374
  909MOL0     H22673  11.582   8.764   5.074  2.4163  0.9760  0.2742
  909MOL0     H22674  11.562   8.938   5.076 -2.6100 -1.8815  1.9977
  909MOL0     H22675  11.783   8.917   5.105 -2.3636  1.8819 -2.8453
  909MOL0     H22676  12.043   8.899   5.127  4.1892  0.5161 -1.7551
  909MOL0     H22677  12.434   8.588   4.872 -0.3231 -0.5783  0.8934
  909MOL0     H22678  12.687   8.602   4.880  1.7412  1.6560 -1.4482
  909MOL0     H22679  12.872   9.012   4.809 -1.9363  1.4754  1.4723
  909MOL0     H22680  12.836   8.983   4.978  0.3546 -0.5465  0.4244
  909MOL0     H22681  13.072   9.017   4.960 -1.7496  0.3568  0.8686
  909MOL0     H22682  13.036   8.847   4.981 -3.6165 -0.3681  0.0840
  909MOL0     H22683  13.065   8.805   4.744 -0.7193  1.4083 -1.5099
  909MOL0     H22684  13.094   8.972   4.706 -1.1498 -0.6004 -0.9480
  909MOL0     H22685  13.267   8.766   4.865 -2.8663 -0.7546  0.7757
  909MOL0     H22686  13.297   8.935   4.896 -1.3996 -1.0547  0.9815
  909MOL0     H22687  13.325   8.967   4.631  0.5677  2.7792  2.7563
  909MOL0     H22688  13.311   8.785   4.642 -1.1025  0.5406  0.1193
  909MOL0     H22689  13.494   8.985   4.771  0.1208 -0.3631 -0.9877
  909MOL0     H22690  13.515   8.812   4.808 -2.9115  0.9208  2.5452
  909MOL0     H22691  13.580   8.968   4.550 -0.4405 -1.3215 -2.0033
  909MOL0     H22692  13.560   8.794   4.544 -1.7782  0.9196 -1.1430
  909MOL0     H22693  13.741   8.756   4.662 -2.4759  0.2282  3.2981
  909MOL0     H22694  13.789   8.883   4.547 -0.1989  0.2003 -0.2816
  909MOL0     H22695  12.629   9.022   4.798 -4.0088  0.5743 -2.9621
  909MOL0     H22696  12.420   8.999   4.781 -1.1167 -0.0379 -1.5864
  909MOL0     H22697  12.055   8.798   4.707 -3.3908 -1.8127 -1.3990
  909MOL0     H22698  11.817   8.790   4.692  3.4038  0.8748 -1.3423
  909MOL0     H22699  10.800   7.572   5.517 -0.0754 -0.9536  2.1965
  909MOL0     H22700  10.606   7.467   5.630 -0.2725 -0.8438 -0.4557
  909MOL0     H22701  10.335   7.227   5.744 -1.8642  0.5756 -1.1273
  909MOL0     H22702  10.128   7.116   5.824 -1.9263 -0.4642 -2.0506
  909MOL0     H22703   9.998   6.899   5.639 -3.3151  2.4050  0.4195
  909MOL0     H22704   9.907   6.926   5.787  0.0216  0.2094  0.1533
  909MOL0     H22705   9.991   6.655   5.662 -1.9318 -1.5564 -1.3525
  909MOL0     H22706   9.831   6.733   5.664 -1.1485  0.9027  2.3533
  909MOL0     H22707   9.830   6.706   5.923  1.2227  2.7813 -1.5048
  909MOL0     H22708   9.976   6.608   5.915  0.1700 -2.6505 -1.3207
  909MOL0     H22709   9.850   6.446   5.781  3.7510  0.9497  1.5893
  909MOL0     H22710   9.783   6.479   5.944  0.7745  2.4003  1.2581
  909MOL0     H22711   9.466   6.590   5.688 -0.2123  0.3961  1.1490
  909MOL0     H22712  10.282   6.733   5.728 -2.3029  1.2364  1.0022
  909MOL0     H22713  10.562   6.848   5.508 -0.9699  1.7057 -0.2077
  909MOL0     H22714  10.604   6.795   5.672 -0.9203  0.0294  1.8611
  909MOL0     H22715  10.470   6.716   5.578 -0.9050  0.6490  0.8646
  910MOL0     O22716   3.752   6.477   4.950  0.2494  0.4145 -0.3617
  910MOL0     C22717   3.808   6.581   4.934 -0.0762  0.2600 -0.2353
  910MOL0     O22718   3.936   6.610   4.964  0.3712  0.4252 -0.3512
  910MOL0     C22719   4.023   6.513   5.002 -0.4029  0.9309 -0.2486
  910MOL0     C22720   3.999   6.441   5.123  0.5810  0.2062 -0.0356
  910MOL0     C22721   4.085   6.333   5.153  0.1233  0.2150 -0.7937
  910MOL0     C22722   4.195   6.297   5.081 -0.8152 -0.7557  0.5427
  910MOL0     O22723   4.276   6.185   5.115  0.3488  0.2221  0.0338
  910MOL0     C22724   4.292   6.172   5.255  0.1485 -0.3771  0.5329
  910MOL0     C22725   4.404   6.076   5.271 -0.1351  0.5587 -0.0801
  910MOL0     C22726   4.547   6.134   5.259  0.5104  0.5808 -0.7214
  910MOL0     C22727   4.645   6.029   5.201 -0.1661 -0.6226 -0.1938
  910MOL0     C22728   4.787   6.066   5.228  0.5616 -0.5524  0.2675
  910MOL0     C22729   4.876   5.950   5.189  0.2800 -0.4574  0.8154
  910MOL0     C22730   5.021   5.988   5.200  0.2562  0.1625  0.4208
  910MOL0     C22731   5.114   5.880   5.225 -0.1627  0.6101  0.3927
  910MOL0     N22732   5.255   5.918   5.203 -0.2383  0.0450  0.6322
  910MOL0     C22733   5.319   5.921   5.082 -0.2256  0.5608  0.0113
  910MOL0     C22734   5.452   5.938   5.113 -0.6680  0.0176  0.5972
  910MOL0     C22735   5.570   5.942   5.032  0.3891 -0.8956  0.0777
  910MOL0     C22736   5.653   5.820   5.051 -0.8714  0.0668  0.0902
  910MOL0     C22737   5.739   5.794   4.925  0.4665  0.5788 -0.2396
  910MOL0     C22738   5.830   5.670   4.936 -0.1099  0.2305 -0.4595
  910MOL0     O22739   5.944   5.705   5.023 -0.5266 -0.3264  0.1797
  910MOL0     C22740   6.060   5.621   5.029 -0.0967 -0.5775 -0.6866
  910MOL0     C22741   6.061   5.489   4.977  0.0039 -0.3757  1.2690
  910MOL0     C22742   6.167   5.396   5.006  0.0034  0.5151  0.2421
  910MOL0     C22743   6.277   5.440   5.067 -0.3123 -0.4811  0.0383
  910MOL0     C22744   6.388   5.345   5.092  0.5317  0.4281 -0.2265
  910MOL0     O22745   6.388   5.222   5.019  0.4740 -0.6545 -1.0139
  910MOL0     C22746   6.500   5.145   5.036 -0.2229 -0.1356  0.5924
  910MOL0     C22747   6.600   5.165   4.944  0.1481 -0.3757  0.1620
  910MOL0     C22748   6.708   5.078   4.940 -0.3072  0.6024 -0.4626
  910MOL0     C22749   6.726   4.975   5.035  0.8562 -0.1612 -0.0230
  910MOL0     O22750   6.836   4.891   5.029  0.5953  0.1720 -0.5199
  910MOL0     C22751   6.949   4.917   4.945  0.7300  0.1405 -0.5465
  910MOL0     C22752   7.067   4.840   4.997 -0.6910 -0.0734 -0.3705
  910MOL0     C22753   7.197   4.892   4.927 -0.9370  0.2720  0.2003
  910MOL0     C22754   7.318   4.840   4.988 -0.3827 -0.4360  0.7651
  910MOL0     C22755   7.447   4.901   4.919 -0.5317  0.0459 -0.0318
  910MOL0     C22756   7.574   4.842   4.984 -0.2599 -0.1008  0.5967
  910MOL0     C22757   7.702   4.919   4.952  0.1870 -0.1009 -0.6778
  910MOL0     C22758   7.761   4.903   4.807  0.1551 -0.0333 -0.2062
  910MOL0    Cl22759   7.931   4.976   4.814  0.0435 -0.2901 -0.0949
  910MOL0     C22760   6.627   4.957   5.133 -0.6301  0.2955  0.8122
  910MOL0     C22761   6.522   5.048   5.132  0.3842 -0.1403 -0.6017
  910MOL0     O22762   6.481   5.382   5.169  0.4951 -0.4512 -0.1994
  910MOL0     C22763   6.281   5.573   5.121 -0.3349 -0.0335  0.2365
  910MOL0     C22764   6.174   5.665   5.097  0.1460 -0.3393 -0.8531
  910MOL0     N22765   5.454   5.959   5.248  0.8765 -0.9511 -0.4863
  910MOL0     N22766   5.336   5.946   5.304 -0.0811  0.0311 -0.5927
  910MOL0     C22767   4.218   6.369   4.965 -0.0826 -0.8500 -0.0455
  910MOL0     C22768   4.135   6.474   4.928 -0.3234  0.3741 -0.2623
  910MOL0     C22769   3.731   6.681   4.858 -0.3429  0.0629  0.0977
  910MOL0     C22770   3.767   6.728   4.729 -0.4810  0.0934 -0.7108
  910MOL0     C22771   3.695   6.832   4.670  0.0735 -0.2727  0.0868
  910MOL0     C22772   3.579   6.882   4.724  0.3274  0.6019 -0.1120
  910MOL0     O22773   3.500   6.954   4.637 -0.6691 -0.2973  0.1811
  910MOL0     C22774   3.372   7.001   4.689 -0.0278 -0.1034  0.1196
  910MOL0     C22775   3.383   7.115   4.793  0.3512  0.1734 -0.2354
  910MOL0     C22776   3.246   7.165   4.849 -0.1703  0.0554 -0.8912
  910MOL0     C22777   3.199   7.297   4.798 -0.1305 -0.2265  0.4705
  910MOL0     C22778   3.289   7.406   4.844  0.1844  0.0506  0.9456
  910MOL0     C22779   3.370   7.502   4.881  0.1605  0.5739  0.5006
  910MOL0     C22780   3.553   6.830   4.850  0.7158 -0.2240  0.1716
  910MOL0     C22781   3.618   6.733   4.915 -0.3083  0.1000  1.0423
  910MOL0     C22782   3.583   6.701   5.058  0.7606  0.2546  0.2573
  910MOL0     H22783   3.907   6.458   5.178  0.8945  1.3715  0.1531
  910MOL0     H22784   4.048   6.279   5.239 -2.1983 -1.5900 -2.7422
  910MOL0     H22785   4.315   6.271   5.295  1.5371  0.2443 -1.6206
  910MOL0     H22786   4.199   6.124   5.287 -0.0846 -0.8159 -0.7313
  910MOL0     H22787   4.396   5.989   5.204 -1.1590 -0.6203  1.4821
  910MOL0     H22788   4.385   6.037   5.372 -1.8596 -0.5497 -0.7920
  910MOL0     H22789   4.578   6.166   5.359  0.5407 -2.9159  0.5576
  910MOL0     H22790   4.537   6.218   5.191  0.1113  0.5375 -0.7140
  910MOL0     H22791   4.618   5.931   5.242 -1.3013 -0.1904  0.1279
  910MOL0     H22792   4.643   6.036   5.092  1.8700  1.9316 -0.1641
  910MOL0     H22793   4.810   6.160   5.176 -0.8451  0.2624  1.0547
  910MOL0     H22794   4.802   6.084   5.335  4.3044  2.1518 -0.4966
  910MOL0     H22795   4.856   5.868   5.258 -0.4349 -2.0579 -1.1989
  910MOL0     H22796   4.850   5.913   5.090 -0.3673  1.6135  0.1659
  910MOL0     H22797   5.030   6.042   5.295  1.0413 -0.2403  0.5774
  910MOL0     H22798   5.049   6.049   5.114 -0.7708  2.1860  1.4161
  910MOL0     H22799   5.114   5.817   5.314  0.7373  1.0291  0.7034
  910MOL0     H22800   5.093   5.810   5.144  2.8350 -0.3512  0.3217
  910MOL0     H22801   5.289   5.902   4.979 -1.2254  3.1133 -0.2430
  910MOL0     H22802   5.525   5.939   4.933 -1.7179 -0.6772  0.9645
  910MOL0     H22803   5.626   6.036   5.042 -1.0017 -0.0268  0.0036
  910MOL0     H22804   5.723   5.845   5.131 -0.2811  0.2335 -0.4731
  910MOL0     H22805   5.592   5.735   5.084 -0.1615 -0.6484 -0.3937
  910MOL0     H22806   5.787   5.882   4.882 -0.9454  0.9352 -1.1477
  910MOL0     H22807   5.662   5.779   4.849  1.2928  1.6658 -1.3185
  910MOL0     H22808   5.886   5.649   4.844 -0.1067 -0.5144 -0.2934
  910MOL0     H22809   5.768   5.588   4.974 -1.6586  0.4127 -2.4004
  910MOL0     H22810   5.974   5.449   4.926 -0.5594 -1.0583  2.6898
  910MOL0     H22811   6.163   5.300   4.956 -0.4544  1.9021 -2.6117
  910MOL0     H22812   6.589   5.229   4.857 -3.2714 -1.3345 -0.2501
  910MOL0     H22813   6.783   5.085   4.863 -0.0486  1.5555 -0.1367
  910MOL0     H22814   6.935   4.903   4.837 -0.6518 -0.4404 -0.3062
  910MOL0     H22815   6.970   5.022   4.966 -3.6165  0.7924  1.5074
  910MOL0     H22816   7.087   4.842   5.104  0.9623 -3.4924 -0.4978
  910MOL0     H22817   7.048   4.735   4.974 -1.6662 -0.0724  0.3969
  910MOL0     H22818   7.193   4.856   4.824  0.2678  1.9138 -0.4661
  910MOL0     H22819   7.198   5.001   4.926 -1.2583  0.3238 -2.6868
  910MOL0     H22820   7.331   4.732   4.978 -1.4558 -0.3929 -2.0196
  910MOL0     H22821   7.315   4.866   5.094  1.5393 -1.6372  1.1696
  910MOL0     H22822   7.465   5.009   4.923  2.9711 -0.2590 -2.5039
  910MOL0     H22823   7.448   4.859   4.817  2.7532  0.7165 -0.3915
  910MOL0     H22824   7.562   4.839   5.093 -1.1593  0.1118  0.5123
  910MOL0     H22825   7.580   4.737   4.954  0.8556  0.2925 -0.6809
  910MOL0     H22826   7.775   4.879   5.023 -1.0871 -2.8509 -0.7752
  910MOL0     H22827   7.676   5.023   4.972 -0.3859 -0.6858  1.8902
  910MOL0     H22828   7.775   4.798   4.778  1.6253 -0.1546  0.7702
  910MOL0     H22829   7.703   4.952   4.729 -0.1396  1.3626  0.8530
  910MOL0     H22830   6.642   4.878   5.206 -0.3251  0.1429  0.5839
  910MOL0     H22831   6.442   5.020   5.199  0.6791  0.4052 -0.0106
  910MOL0     H22832   6.368   5.614   5.170 -0.4721  1.4193 -0.6700
  910MOL0     H22833   6.173   5.766   5.137  1.7838 -0.7696  0.3837
  910MOL0     H22834   4.293   6.352   4.889  0.1942  1.0942 -0.2600
  910MOL0     H22835   4.153   6.521   4.832  0.4048 -1.4779 -1.0880
  910MOL0     H22836   3.848   6.690   4.669 -0.3163  0.8042 -0.9473
  910MOL0     H22837   3.732   6.863   4.573 -2.1402  2.0542 -0.1294
  910MOL0     H22838   3.322   6.913   4.730  1.6328 -2.3524 -2.3592
  910MOL0     H22839   3.302   7.019   4.607  0.3458 -1.6651 -0.5741
  910MOL0     H22840   3.435   7.203   4.752  0.8995  1.0638  2.1969
  910MOL0     H22841   3.433   7.082   4.884 -1.2419 -2.6568 -0.2835
  910MOL0     H22842   3.253   7.154   4.957 -2.9402 -0.0314 -0.6386
  910MOL0     H22843   3.167   7.092   4.826 -0.7645  0.2894  0.3256
  910MOL0     H22844   3.174   7.293   4.692 -1.6750  1.1985  0.7374
  910MOL0     H22845   3.099   7.316   4.838 -1.9036 -1.2076 -3.1219
  910MOL0     H22846   3.437   7.570   4.929  1.5800 -1.3334  1.3328
  910MOL0     H22847   3.458   6.867   4.887 -0.3948 -2.4700 -0.2159
  910MOL0     H22848   3.512   6.771   5.102  2.6448  2.0288  0.6370
  910MOL0     H22849   3.544   6.599   5.062 -0.4300  0.4553 -3.0035
  910MOL0     H22850   3.673   6.721   5.116  0.6276  1.6805 -0.0016
  911MOL0     O22851   3.783   4.216   1.987  0.2953  0.3840  0.5625
  911MOL0     C22852   3.809   4.332   2.019 -0.6397  0.1070  0.6256
  911MOL0     O22853   3.933   4.377   2.051 -0.1639  0.4900  0.3916
  911MOL0     C22854   4.030   4.280   2.055  0.1888 -0.1201 -0.1357
  911MOL0     C22855   4.019   4.181   2.151  0.5255  0.5580 -0.0673
  911MOL0     C22856   4.121   4.091   2.171  0.2265 -0.7787 -0.1768
  911MOL0     C22857   4.239   4.108   2.099 -0.4188 -0.4721 -0.2576
  911MOL0     O22858   4.358   4.033   2.121 -0.1418 -0.4731  0.0197
  911MOL0     C22859   4.343   3.892   2.153 -0.0880  0.0422  0.1422
  911MOL0     C22860   4.485   3.827   2.134  0.4294  0.1565  0.3185
  911MOL0     C22861   4.477   3.689   2.193 -0.4833 -0.0461 -0.5574
  911MOL0     C22862   4.613   3.627   2.176 -0.1187 -0.1532  0.6169
  911MOL0     C22863   4.614   3.485   2.215  0.4691  0.1376  0.2551
  911MOL0     C22864   4.754   3.432   2.236  0.5565 -0.1988 -0.1800
  911MOL0     C22865   4.749   3.283   2.253  0.4411 -0.2140 -0.0459
  911MOL0     C22866   4.739   3.204   2.119  0.2961  0.4924 -0.0279
  911MOL0     N22867   4.854   3.190   2.030  0.3861 -1.2317  0.2631
  911MOL0     C22868   4.879   3.275   1.929  0.6196  0.4574  0.8967
  911MOL0     C22869   5.008   3.242   1.881  0.7075  0.1338  0.1833
  911MOL0     C22870   5.096   3.318   1.776  0.5187  0.1493 -1.0388
  911MOL0     C22871   5.189   3.238   1.700  0.5068 -0.3781  0.3885
  911MOL0     C22872   5.311   3.207   1.766 -0.4876  0.2983 -0.5302
  911MOL0     C22873   5.424   3.140   1.688 -0.5169 -0.1630 -1.2714
  911MOL0     O22874   5.449   3.191   1.556 -0.7983  0.2677 -0.0475
  911MOL0     C22875   5.564   3.151   1.504  0.4023 -0.2721  0.7213
  911MOL0     C22876   5.657   3.042   1.547  0.8076 -0.2545  0.4102
  911MOL0     C22877   5.779   3.024   1.485 -0.9258  0.1340  1.4538
  911MOL0     C22878   5.816   3.105   1.383 -0.0273 -0.7311  0.2336
  911MOL0     C22879   5.940   3.064   1.312 -0.4821  0.6615  0.0752
  911MOL0     O22880   5.992   2.934   1.333 -0.2175 -0.6507  0.4058
  911MOL0     C22881   6.120   2.910   1.284  0.9178 -0.2441  0.0763
  911MOL0     C22882   6.126   2.847   1.162  0.1754  0.2948  0.6752
  911MOL0     C22883   6.252   2.811   1.110 -0.1026  0.1237  0.7081
  911MOL0     C22884   6.367   2.821   1.189 -0.2964 -0.4368 -0.4215
  911MOL0     O22885   6.493   2.790   1.145  0.1321  0.4806 -0.1197
  911MOL0     C22886   6.510   2.680   1.055  0.3312  0.7345  0.4058
  911MOL0     C22887   6.635   2.603   1.082  0.4121 -0.2060 -0.6905
  911MOL0     C22888   6.687   2.536   0.958  0.1283 -0.6620  0.2918
  911MOL0     C22889   6.826   2.468   0.971  0.0181  0.4609  0.1026
  911MOL0     C22890   6.871   2.414   0.836 -0.7375 -1.1206 -0.2100
  911MOL0     C22891   7.009   2.354   0.849  0.0957 -0.2123 -0.3750
  911MOL0     C22892   7.039   2.273   0.727 -0.6812  0.3740  0.2531
  911MOL0     C22893   7.163   2.180   0.730  0.1282 -0.7575  0.2643
  911MOL0    Cl22894   7.307   2.273   0.678 -0.1237  0.4731  0.3464
  911MOL0     C22895   6.357   2.897   1.309 -0.8935  0.1480 -0.5705
  911MOL0     C22896   6.231   2.934   1.359  0.1592  0.7710 -0.4701
  911MOL0     O22897   5.984   3.143   1.230 -0.6255  0.6324 -0.1777
  911MOL0     C22898   5.734   3.213   1.346  0.0444 -0.7064 -0.2309
  911MOL0     C22899   5.608   3.230   1.397  0.1186 -0.0276  0.3382
  911MOL0     N22900   5.052   3.132   1.966  0.0320  0.5025  0.2049
  911MOL0     N22901   4.960   3.109   2.054  0.3793  0.5440  0.1166
  911MOL0     C22902   4.249   4.206   2.002 -0.3133  0.0270  0.3355
  911MOL0     C22903   4.143   4.285   1.969  0.3011 -0.0148 -0.1208
  911MOL0     C22904   3.702   4.439   2.029 -0.4648  1.0830 -0.6247
  911MOL0     C22905   3.742   4.570   2.071  0.4394 -0.0599 -0.0187
  911MOL0     C22906   3.648   4.667   2.099 -1.1166  1.3867  0.8977
  911MOL0     C22907   3.504   4.644   2.082 -0.7771  0.2983 -0.6488
  911MOL0     O22908   3.407   4.727   2.118 -0.2932 -0.2340  0.2599
  911MOL0     C22909   3.425   4.838   2.211 -0.2843 -0.6249  0.1577
  911MOL0     C22910   3.430   4.782   2.351  0.1668 -0.1409 -0.3269
  911MOL0     C22911   3.296   4.733   2.401 -0.6217 -0.2252 -0.6377
  911MOL0     C22912   3.248   4.809   2.532 -0.4883  0.0298  0.2784
  911MOL0     C22913   3.338   4.794   2.643 -0.6475 -0.7493 -0.4497
  911MOL0     C22914   3.411   4.780   2.737  0.6035 -0.1000 -0.1631
  911MOL0     C22915   3.471   4.519   2.018  0.0147 -0.7249  0.0475
  911MOL0     C22916   3.567   4.420   1.995 -0.3081 -0.7991  0.5924
  911MOL0     C22917   3.497   4.301   1.932 -0.0172  0.6367  0.2243
  911MOL0     H22918   3.934   4.176   2.219  0.3993 -0.5374 -0.2926
  911MOL0     H22919   4.119   4.012   2.246  1.6600  0.5819  1.3598
  911MOL0     H22920   4.317   3.877   2.258  0.2410 -2.2928 -0.0488
  911MOL0     H22921   4.262   3.854   2.090  1.2424  2.4572 -3.3978
  911MOL0     H22922   4.562   3.892   2.176  1.9602 -0.4566 -1.3864
  911MOL0     H22923   4.487   3.818   2.025 -0.2817  1.8272  0.1475
  911MOL0     H22924   4.405   3.622   2.144  0.4234 -0.4768 -1.3437
  911MOL0     H22925   4.453   3.685   2.300  1.9236 -0.5128  0.0253
  911MOL0     H22926   4.641   3.639   2.071  0.3794 -1.3057  0.6062
  911MOL0     H22927   4.697   3.678   2.225  1.6581 -1.7593 -0.6163
  911MOL0     H22928   4.543   3.472   2.297  1.1502 -0.3947  0.7633
  911MOL0     H22929   4.575   3.438   2.125  1.8645  1.4225 -1.0842
  911MOL0     H22930   4.815   3.454   2.148  0.6148 -0.7338 -0.2739
  911MOL0     H22931   4.804   3.473   2.324 -0.4191  1.1432 -0.2149
  911MOL0     H22932   4.667   3.258   2.320 -0.6904  3.5065  0.2136
  911MOL0     H22933   4.839   3.257   2.311 -0.7757  1.1817  2.6622
  911MOL0     H22934   4.701   3.105   2.148 -1.2073  0.9440 -0.3671
  911MOL0     H22935   4.663   3.254   2.060 -0.6549  1.5798  2.0030
  911MOL0     H22936   4.807   3.344   1.886  1.2232  0.4863 -0.1033
  911MOL0     H22937   5.033   3.373   1.706 -0.2070 -0.4796 -0.8866
  911MOL0     H22938   5.153   3.402   1.817  1.0733  0.0648 -1.6103
  911MOL0     H22939   5.141   3.146   1.664  2.2070 -0.7002 -1.2317
  911MOL0     H22940   5.219   3.296   1.612  0.8777 -0.6700  0.3209
  911MOL0     H22941   5.281   3.144   1.850  1.4128 -1.3091 -0.9832
  911MOL0     H22942   5.354   3.294   1.816  0.2626 -0.9550  1.0786
  911MOL0     H22943   5.395   3.036   1.676 -3.7917  0.3072  1.0426
  911MOL0     H22944   5.520   3.148   1.740 -0.6931  0.2001 -0.9929
  911MOL0     H22945   5.620   2.971   1.619 -0.7758  0.8228  0.7091
  911MOL0     H22946   5.841   2.940   1.516  0.5563  0.4652 -0.4182
  911MOL0     H22947   6.041   2.838   1.094  0.2706  1.9722  0.2920
  911MOL0     H22948   6.247   2.766   1.011 -3.6953  2.2021 -0.2215
  911MOL0     H22949   6.430   2.606   1.048  0.3224  0.8027 -0.3163
  911MOL0     H22950   6.525   2.729   0.958  0.9991  1.2544  0.7576
  911MOL0     H22951   6.709   2.676   1.115 -0.3019  0.8034 -1.2509
  911MOL0     H22952   6.615   2.534   1.164 -2.7513 -0.0635 -1.2242
  911MOL0     H22953   6.614   2.466   0.914 -2.1670  2.0866 -0.5723
  911MOL0     H22954   6.704   2.614   0.883  1.1304 -0.1944  1.0025
  911MOL0     H22955   6.816   2.388   1.044  0.9895 -0.0130 -0.2700
  911MOL0     H22956   6.906   2.535   1.006  0.1190 -0.8948  2.6932
  911MOL0     H22957   6.867   2.497   0.766 -2.0421 -0.9370  0.0538
  911MOL0     H22958   6.797   2.340   0.804 -3.9766  0.6950  2.4602
  911MOL0     H22959   7.083   2.434   0.855  0.1558  0.1961 -4.2238
  911MOL0     H22960   7.023   2.291   0.937 -1.7807  0.4949  0.4924
  911MOL0     H22961   7.060   2.339   0.642  0.7649  1.0208  1.0902
  911MOL0     H22962   6.955   2.207   0.704 -0.1207  0.1475 -1.2614
  911MOL0     H22963   7.174   2.125   0.824 -1.7638 -1.6743  0.0209
  911MOL0     H22964   7.149   2.101   0.655 -1.0047  0.8097 -1.2578
  911MOL0     H22965   6.443   2.915   1.372 -0.9121 -1.7946  0.0501
  911MOL0     H22966   6.239   2.974   1.460  0.4055 -0.3659 -0.0303
  911MOL0     H22967   5.777   3.277   1.270  3.1194  0.9897  2.6479
  911MOL0     H22968   5.548   3.312   1.359  0.1184  0.1122  0.6398
  911MOL0     H22969   4.335   4.219   1.937 -0.9108  0.1717 -0.4304
  911MOL0     H22970   4.148   4.356   1.886 -0.9390 -4.3263 -4.3067
  911MOL0     H22971   3.848   4.594   2.074  0.8447 -1.5572 -1.4071
  911MOL0     H22972   3.688   4.764   2.128  1.6391  0.7369 -0.3578
  911MOL0     H22973   3.335   4.899   2.199  0.0341  0.0729  1.1799
  911MOL0     H22974   3.511   4.903   2.191 -0.6337 -0.6112 -1.4933
  911MOL0     H22975   3.472   4.858   2.417  0.5652 -0.5592 -0.0930
  911MOL0     H22976   3.511   4.709   2.347  1.5432  1.3730 -1.1668
  911MOL0     H22977   3.298   4.629   2.437  0.3123  1.0585  3.6860
  911MOL0     H22978   3.220   4.746   2.324 -0.7302  2.3602 -0.1695
  911MOL0     H22979   3.248   4.915   2.505 -0.6291 -0.3215 -1.1894
  911MOL0     H22980   3.156   4.771   2.576  0.9901  0.4296  4.1766
  911MOL0     H22981   3.478   4.759   2.818  1.8933 -1.3675 -1.5152
  911MOL0     H22982   3.372   4.494   1.982 -0.3487 -1.3989  1.4378
  911MOL0     H22983   3.412   4.310   1.864 -1.5414 -3.2542  1.3238
  911MOL0     H22984   3.574   4.240   1.883 -0.7918  1.1703 -1.7310
  911MOL0     H22985   3.456   4.235   2.009 -1.4437  2.8172  1.4301
  912MOL0     O22986   4.019   5.212   2.675 -0.1383 -0.7136 -0.9475
  912MOL0     C22987   3.958   5.132   2.745 -0.7432  0.3141  0.1107
  912MOL0     O22988   4.015   5.014   2.794 -0.8502 -0.3881  0.0195
  912MOL0     C22989   4.149   4.992   2.785  0.3516 -0.0513 -0.3607
  912MOL0     C22990   4.230   4.954   2.891  0.0005 -0.3080  0.3694
  912MOL0     C22991   4.373   4.936   2.879 -0.0247 -0.3484 -0.8283
  912MOL0     C22992   4.436   4.961   2.754  1.1514  1.0500 -0.6097
  912MOL0     O22993   4.569   4.954   2.751 -0.0496  0.1240 -0.2035
  912MOL0     C22994   4.627   4.959   2.630 -0.1236  0.0872  0.6631
  912MOL0     C22995   4.776   4.994   2.633  0.5646 -0.0524  0.5880
  912MOL0     C22996   4.861   4.867   2.675  0.7971 -0.4937 -0.3051
  912MOL0     C22997   5.016   4.905   2.679  0.4762 -0.3566 -0.0365
  912MOL0     C22998   5.088   4.771   2.715  0.7474 -0.1035  1.0731
  912MOL0     C22999   5.233   4.811   2.730  0.1217  0.0872  0.2991
  912MOL0     C23000   5.329   4.705   2.787  0.8336  0.5851 -0.2403
  912MOL0     C23001   5.469   4.754   2.743 -0.4333 -0.0524 -0.0339
  912MOL0     N23002   5.580   4.657   2.766 -0.2742  0.4141 -0.3357
  912MOL0     C23003   5.622   4.615   2.891  0.5440  0.1377  0.6948
  912MOL0     C23004   5.725   4.527   2.867 -0.0799 -0.3655  0.3880
  912MOL0     C23005   5.795   4.433   2.968 -0.0553 -0.3736 -0.5723
  912MOL0     C23006   5.917   4.510   3.033  0.0259 -0.1304  0.0197
  912MOL0     C23007   6.000   4.449   3.141 -1.2246 -0.2522  0.2274
  912MOL0     C23008   6.094   4.347   3.075  0.7027 -0.0688 -0.2414
  912MOL0     O23009   6.172   4.272   3.173 -0.4559 -0.7612 -0.6638
  912MOL0     C23010   6.310   4.244   3.165 -0.3488  0.6529  0.5034
  912MOL0     C23011   6.368   4.135   3.228  1.0576 -0.6840 -0.9345
  912MOL0     C23012   6.502   4.128   3.245 -0.9795  0.3532 -0.0337
  912MOL0     C23013   6.588   4.227   3.178 -0.1740 -0.2983 -0.5987
  912MOL0     C23014   6.736   4.222   3.191 -0.3407 -0.1413  0.8144
  912MOL0     O23015   6.804   4.291   3.092 -0.4234 -0.1121 -0.2979
  912MOL0     C23016   6.943   4.306   3.114 -1.0740 -0.6929 -0.0277
  912MOL0     C23017   7.030   4.268   3.010 -0.1010  0.1391  0.4138
  912MOL0     C23018   7.163   4.292   3.028  1.1020 -0.7328 -0.3810
  912MOL0     C23019   7.210   4.348   3.145 -0.2810 -0.9569  0.1421
  912MOL0     O23020   7.341   4.352   3.177 -0.6382 -0.4584  0.0205
  912MOL0     C23021   7.445   4.352   3.072  0.1452 -0.0593  0.1228
  912MOL0     C23022   7.594   4.346   3.112 -0.6036  0.2176  0.5062
  912MOL0     C23023   7.688   4.349   2.989  1.2532  0.6374 -0.0633
  912MOL0     C23024   7.827   4.373   3.052  0.5634  0.0215 -0.4391
  912MOL0     C23025   7.937   4.317   2.964  0.2562  0.3334 -0.6099
  912MOL0     C23026   8.078   4.353   2.999 -1.0562  0.1266  0.9774
  912MOL0     C23027   8.177   4.286   2.902  0.3985  0.4673 -0.3977
  912MOL0     C23028   8.324   4.300   2.940  0.2446  0.0482  0.0256
  912MOL0    Cl23029   8.355   4.200   3.087 -0.2189  0.4953 -0.1205
  912MOL0     C23030   7.127   4.396   3.236 -0.0678 -1.0325 -0.4146
  912MOL0     C23031   6.990   4.377   3.222  0.2992  0.2969  0.2276
  912MOL0     O23032   6.787   4.154   3.274  0.1351  0.7082 -0.1724
  912MOL0     C23033   6.530   4.337   3.110 -0.3416 -0.0253 -0.7248
  912MOL0     C23034   6.392   4.335   3.102 -0.0951  0.2125  0.1268
  912MOL0     N23035   5.744   4.526   2.735 -0.1170 -0.3373  0.2354
  912MOL0     N23036   5.656   4.601   2.676 -0.5603  0.0821 -0.2294
  912MOL0     C23037   4.352   4.997   2.645 -0.3815  0.3174  0.1019
  912MOL0     C23038   4.214   5.007   2.660 -1.2609 -0.4706  0.2598
  912MOL0     C23039   3.819   5.152   2.787  0.1879 -0.2777 -0.3690
  912MOL0     C23040   3.759   5.061   2.880  0.0766  0.1551  0.5494
  912MOL0     C23041   3.632   5.080   2.928  0.1962  0.0505  0.3360
  912MOL0     C23042   3.547   5.177   2.867  0.4654 -0.3816  0.3854
  912MOL0     O23043   3.418   5.208   2.905 -0.4007 -0.6337  0.6249
  912MOL0     C23044   3.361   5.142   3.022 -0.2956  0.5250  1.4801
  912MOL0     C23045   3.288   5.025   2.963 -0.2555 -0.3742  0.1043
  912MOL0     C23046   3.156   5.057   2.891  0.5329 -0.1497 -0.0007
  912MOL0     C23047   3.055   4.950   2.889 -0.0596  0.2832 -0.9181
  912MOL0     C23048   2.955   4.980   2.778 -1.4258  0.0592  0.4193
  912MOL0     C23049   2.893   5.016   2.684 -0.1394  1.0399 -0.2291
  912MOL0     C23050   3.604   5.259   2.769  0.3805  0.1092  0.5802
  912MOL0     C23051   3.736   5.251   2.724  0.1041  0.1660  0.2530
  912MOL0     C23052   3.775   5.339   2.612 -0.4728 -1.0158 -0.2737
  912MOL0     H23053   4.174   4.925   2.980 -2.9195  0.7716 -0.9916
  912MOL0     H23054   4.443   4.909   2.957 -3.4657  1.2396  3.1902
  912MOL0     H23055   4.588   4.870   2.581 -0.5938  0.0625  1.0703
  912MOL0     H23056   4.592   5.047   2.575  1.8470  0.3316 -0.3189
  912MOL0     H23057   4.797   5.068   2.711  1.6885 -1.0454  1.2667
  912MOL0     H23058   4.813   5.032   2.537 -0.2281 -0.4352  0.1264
  912MOL0     H23059   4.837   4.780   2.614 -2.1068  1.0641 -1.5926
  912MOL0     H23060   4.837   4.847   2.780  3.4625  0.5464  0.6100
  912MOL0     H23061   5.046   4.932   2.577 -2.7976  1.2155 -0.7029
  912MOL0     H23062   5.042   4.993   2.740  2.3202  0.2212 -1.5590
  912MOL0     H23063   5.050   4.732   2.810 -2.5745 -1.8444 -0.8122
  912MOL0     H23064   5.080   4.699   2.633  0.8192 -0.4926  1.4060
  912MOL0     H23065   5.269   4.830   2.629 -0.6771 -0.8642 -0.1877
  912MOL0     H23066   5.227   4.896   2.799  1.6767 -2.7298  4.2913
  912MOL0     H23067   5.296   4.608   2.751  0.9453 -0.4501  2.2612
  912MOL0     H23068   5.330   4.711   2.896  1.7372 -0.0902 -0.1994
  912MOL0     H23069   5.488   4.789   2.641  3.6252  2.3278  1.2898
  912MOL0     H23070   5.499   4.845   2.795 -0.5636  0.1055 -0.2333
  912MOL0     H23071   5.588   4.657   2.985  0.1031 -0.7656  0.9558
  912MOL0     H23072   5.722   4.398   3.041  0.5778  1.6788  1.1303
  912MOL0     H23073   5.837   4.345   2.918 -2.5865 -2.5730  0.8818
  912MOL0     H23074   5.986   4.527   2.950  0.1891 -0.2380  0.1305
  912MOL0     H23075   5.891   4.606   3.079  0.2043 -0.0331 -0.0805
  912MOL0     H23076   5.934   4.422   3.224 -2.2478 -0.3187 -0.6002
  912MOL0     H23077   6.066   4.530   3.173 -1.5581 -0.0354  0.3610
  912MOL0     H23078   6.156   4.393   2.997  3.4806 -0.6114  1.5059
  912MOL0     H23079   6.031   4.274   3.024 -0.3018  2.0464 -2.1638
  912MOL0     H23080   6.315   4.053   3.275  0.9699  0.5241  1.2175
  912MOL0     H23081   6.542   4.050   3.308 -1.2518  0.9313  0.8766
  912MOL0     H23082   7.002   4.223   2.915 -0.1531  2.1467 -0.5666
  912MOL0     H23083   7.231   4.249   2.955  2.3367  0.3986  0.0767
  912MOL0     H23084   7.425   4.258   3.020  2.8694 -0.9365  0.5441
  912MOL0     H23085   7.430   4.438   3.005 -0.1237 -1.2030 -1.3289
  912MOL0     H23086   7.609   4.443   3.159 -1.4263  1.3026 -1.3369
  912MOL0     H23087   7.606   4.262   3.180 -0.8238 -0.4206 -0.2232
  912MOL0     H23088   7.690   4.254   2.935 -1.8380  0.3891  0.0322
  912MOL0     H23089   7.649   4.424   2.919  3.8196  1.8594 -0.2824
  912MOL0     H23090   7.840   4.330   3.152  2.2754 -0.0640 -0.6732
  912MOL0     H23091   7.838   4.481   3.063  0.9804 -0.2043  1.8902
  912MOL0     H23092   7.919   4.343   2.859  0.2210  2.6970 -0.0596
  912MOL0     H23093   7.934   4.207   2.968 -1.1212  0.3885  2.4968
  912MOL0     H23094   8.103   4.460   2.999  1.6561 -0.4249  1.9420
  912MOL0     H23095   8.109   4.314   3.097  2.1348  1.8166  0.7923
  912MOL0     H23096   8.168   4.325   2.800  2.5377 -1.5681 -1.4954
  912MOL0     H23097   8.151   4.181   2.885 -1.5639  0.3904  2.5099
  912MOL0     H23098   8.385   4.261   2.859  0.4431  3.3151 -1.5506
  912MOL0     H23099   8.336   4.407   2.960  2.0679 -0.4020  1.6915
  912MOL0     H23100   7.171   4.441   3.324 -2.8167  2.0168 -0.3993
  912MOL0     H23101   6.928   4.410   3.305  1.0170 -2.0906  1.8133
  912MOL0     H23102   6.587   4.408   3.051  0.3807  0.1330  0.1497
  912MOL0     H23103   6.355   4.405   3.027 -0.4132 -1.0872 -0.9675
  912MOL0     H23104   4.391   5.012   2.544  0.2566 -1.7547 -0.0148
  912MOL0     H23105   4.145   5.025   2.578 -0.8131 -1.9766 -0.4817
  912MOL0     H23106   3.814   4.973   2.912  0.4782 -0.1804 -1.0099
  912MOL0     H23107   3.585   5.021   3.006 -1.1339  1.0826  0.3473
  912MOL0     H23108   3.294   5.211   3.075 -1.4449  1.1432 -0.6600
  912MOL0     H23109   3.442   5.102   3.085  1.8687 -0.0103 -1.4232
  912MOL0     H23110   3.270   4.952   3.042  0.2726 -1.1602 -0.4881
  912MOL0     H23111   3.351   4.966   2.897 -0.9691 -1.0314  0.0001
  912MOL0     H23112   3.197   5.073   2.790  3.4349  1.5821  1.3342
  912MOL0     H23113   3.111   5.149   2.930 -0.6008 -2.3889  4.5506
  912MOL0     H23114   3.101   4.852   2.879 -0.1899  0.1750 -0.4923
  912MOL0     H23115   3.002   4.943   2.985 -1.4476  1.5667 -1.5552
  912MOL0     H23116   2.842   5.051   2.597 -2.1138  1.8746  1.1788
  912MOL0     H23117   3.545   5.337   2.721  0.1388  0.2273  1.0533
  912MOL0     H23118   3.688   5.391   2.570  0.5580  0.5504 -0.5753
  912MOL0     H23119   3.836   5.421   2.650 -0.4580  0.3475 -2.9751
  912MOL0     H23120   3.839   5.292   2.537  1.3325 -0.7047  1.0196
  913MOL0     O23121  10.471   4.329   0.519 -0.2445  0.6762 -0.0493
  913MOL0     C23122  10.503   4.234   0.458 -0.1582 -0.3000 -0.3925
  913MOL0     O23123  10.413   4.163   0.388  0.7177 -0.5367 -0.1297
  913MOL0     C23124  10.283   4.200   0.374  0.5118  0.3600  0.7552
  913MOL0     C23125  10.255   4.324   0.317  0.5072  0.3828 -0.2946
  913MOL0     C23126  10.122   4.372   0.303  0.7973  0.0662 -0.0325
  913MOL0     C23127  10.017   4.289   0.355  0.5133 -0.4769  0.2552
  913MOL0     O23128   9.880   4.329   0.371 -0.2355  0.2732 -0.3968
  913MOL0     C23129   9.828   4.433   0.286 -0.0510 -0.0052 -0.9631
  913MOL0     C23130   9.778   4.543   0.383  0.6118  0.0022 -0.3838
  913MOL0     C23131   9.900   4.615   0.435 -0.5188 -0.3398 -0.2986
  913MOL0     C23132   9.852   4.713   0.545 -0.9011 -0.4126 -0.1387
  913MOL0     C23133   9.964   4.792   0.592 -0.6192 -0.9468  0.5741
  913MOL0     C23134   9.920   4.860   0.722 -0.1757  0.0940  0.9643
  913MOL0     C23135  10.041   4.937   0.789 -1.0738  0.5894 -0.2761
  913MOL0     C23136  10.051   5.083   0.756  0.9607 -0.7786 -0.4210
  913MOL0     N23137  10.116   5.115   0.619 -0.2799  1.0306 -0.4238
  913MOL0     C23138  10.251   5.123   0.590 -0.9911 -0.0970  0.5112
  913MOL0     C23139  10.249   5.154   0.457 -0.4919  0.7640 -0.2936
  913MOL0     C23140  10.367   5.182   0.374  1.2203  0.1784 -0.3468
  913MOL0     C23141  10.404   5.327   0.382 -0.6075  0.5554 -0.3107
  913MOL0     C23142  10.484   5.374   0.501 -0.1329  0.5023 -0.8598
  913MOL0     C23143  10.634   5.358   0.488  0.2161  0.7316  0.5690
  913MOL0     O23144  10.652   5.225   0.499 -0.4067 -0.6878 -0.2336
  913MOL0     C23145  10.780   5.176   0.519  0.0506  0.6964 -0.2069
  913MOL0     C23146  10.900   5.246   0.534 -0.0882  0.0859 -0.6614
  913MOL0     C23147  11.022   5.186   0.568 -0.0671 -0.3133  0.1918
  913MOL0     C23148  11.035   5.051   0.603 -0.1619  0.0811  0.4825
  913MOL0     C23149  11.171   5.006   0.651 -0.2140 -0.3481  0.4720
  913MOL0     O23150  11.169   4.883   0.710  0.6300  0.5041  0.2712
  913MOL0     C23151  11.280   4.828   0.765  0.5799 -0.0574  0.8524
  913MOL0     C23152  11.297   4.818   0.898 -0.2230 -0.1049  0.5232
  913MOL0     C23153  11.411   4.758   0.946 -0.0454  0.0258 -0.8198
  913MOL0     C23154  11.521   4.725   0.863  0.2605 -0.1281 -0.2146
  913MOL0     O23155  11.639   4.680   0.908 -0.4744  0.3563  0.8777
  913MOL0     C23156  11.714   4.768   0.991 -0.4155  0.2318  0.1942
  913MOL0     C23157  11.837   4.705   1.057  1.2580  0.0653  0.2116
  913MOL0     C23158  11.940   4.810   1.101  0.1099 -0.0675  0.9720
  913MOL0     C23159  12.019   4.754   1.216 -0.1805 -0.4053  0.1042
  913MOL0     C23160  12.126   4.858   1.262 -0.5448 -0.0742 -0.4905
  913MOL0     C23161  12.234   4.800   1.358  0.4149 -0.2896  0.1969
  913MOL0     C23162  12.328   4.906   1.411 -0.5065 -0.3662 -0.0251
  913MOL0     C23163  12.425   4.942   1.304 -0.5343  0.2286 -0.3216
  913MOL0    Cl23164  12.581   4.993   1.389  0.0349  0.3954  0.3292
  913MOL0     C23165  11.502   4.747   0.728 -1.1270  0.7335  0.1333
  913MOL0     C23166  11.385   4.809   0.679  0.5636 -0.5531  1.2036
  913MOL0     O23167  11.270   5.087   0.640 -0.5332 -0.0872 -0.1461
  913MOL0     C23168  10.918   4.972   0.590 -0.3924 -0.3141 -0.2077
  913MOL0     C23169  10.793   5.034   0.544 -0.2347 -0.5326 -0.8425
  913MOL0     N23170  10.119   5.165   0.415  0.0740  0.0514 -0.3687
  913MOL0     N23171  10.041   5.143   0.512 -0.5044  0.1495  0.2821
  913MOL0     C23172  10.049   4.167   0.409 -0.5652 -0.2065  0.0103
  913MOL0     C23173  10.184   4.119   0.423  0.9188  0.2515  0.0433
  913MOL0     C23174  10.636   4.169   0.475  0.3307 -0.1053 -0.0510
  913MOL0     C23175  10.712   4.211   0.578 -0.6074 -0.0185 -0.6033
  913MOL0     C23176  10.831   4.147   0.624  0.3738  0.2567  0.4502
  913MOL0     C23177  10.886   4.040   0.552  1.5581  0.1560  0.0578
  913MOL0     O23178  11.006   3.974   0.587 -0.2634 -0.3756  0.1522
  913MOL0     C23179  10.993   3.833   0.572  0.6086 -0.1596  0.5750
  913MOL0     C23180  11.105   3.761   0.650 -0.1605  0.2439 -1.1155
  913MOL0     C23181  11.239   3.759   0.577  0.0731 -0.7865  0.2817
  913MOL0     C23182  11.339   3.882   0.599  0.2168  0.2312 -0.4951
  913MOL0     C23183  11.476   3.847   0.552  0.2301  0.2892  0.2177
  913MOL0     C23184  11.575   3.826   0.483 -0.4317 -0.1913 -0.1168
  913MOL0     C23185  10.814   3.996   0.435  0.1456 -0.4486  0.5118
  913MOL0     C23186  10.691   4.057   0.390  0.1586  0.0301 -0.1035
  913MOL0     C23187  10.636   4.002   0.264  0.1811  0.4542  0.0561
  913MOL0     H23188  10.339   4.384   0.281  2.8648 -2.2555  0.4792
  913MOL0     H23189  10.106   4.464   0.248 -1.5616 -1.6139 -2.4584
  913MOL0     H23190   9.890   4.477   0.207 -2.6800  1.3605 -2.4137
  913MOL0     H23191   9.735   4.392   0.243 -0.8945  0.0415  0.7300
  913MOL0     H23192   9.713   4.491   0.454  2.0047 -4.4565 -2.0563
  913MOL0     H23193   9.717   4.611   0.324  0.9371  2.6830  2.0996
  913MOL0     H23194   9.948   4.674   0.355 -1.4699  2.2102  0.8899
  913MOL0     H23195   9.966   4.538   0.475 -1.4651 -1.0397 -0.0399
  913MOL0     H23196   9.769   4.777   0.513 -1.7127 -0.8161  1.0863
  913MOL0     H23197   9.812   4.661   0.633 -0.3127  0.8737  0.9200
  913MOL0     H23198  10.053   4.731   0.609 -0.4607 -0.7553  0.4407
  913MOL0     H23199  10.002   4.865   0.519  1.3046 -0.0103  2.4129
  913MOL0     H23200   9.831   4.923   0.710 -0.0944  0.7347  3.2371
  913MOL0     H23201   9.903   4.781   0.795  0.0069 -1.8646 -1.0213
  913MOL0     H23202  10.135   4.891   0.759 -1.8842 -1.2410 -0.1462
  913MOL0     H23203  10.025   4.933   0.897 -0.1666  1.6344 -0.0798
  913MOL0     H23204   9.948   5.118   0.746  1.3025  0.2351 -0.4913
  913MOL0     H23205  10.106   5.124   0.842 -0.0288 -1.9053  0.7910
  913MOL0     H23206  10.335   5.086   0.649  1.9670  1.5242 -2.3972
  913MOL0     H23207  10.448   5.115   0.401  0.5320 -0.6095 -0.2096
  913MOL0     H23208  10.348   5.162   0.268  0.5174 -0.6298 -0.0742
  913MOL0     H23209  10.449   5.360   0.288 -1.0067 -0.4292 -0.8600
  913MOL0     H23210  10.310   5.384   0.383 -1.0567  0.0026  3.3750
  913MOL0     H23211  10.444   5.338   0.596  0.0904 -0.5036 -1.1401
  913MOL0     H23212  10.460   5.480   0.515 -2.0933 -0.0328  0.2409
  913MOL0     H23213  10.679   5.422   0.564  0.6046  3.9059 -2.0864
  913MOL0     H23214  10.676   5.386   0.390 -1.4858 -1.4189 -0.8602
  913MOL0     H23215  10.904   5.354   0.523  0.2923  0.1842  0.3599
  913MOL0     H23216  11.108   5.251   0.569 -0.6038  0.4074  1.2625
  913MOL0     H23217  11.228   4.840   0.979  1.5987  1.6485  1.7158
  913MOL0     H23218  11.427   4.730   1.050  0.6300  1.5258 -0.4868
  913MOL0     H23219  11.759   4.846   0.929  1.9691 -0.8534  0.4566
  913MOL0     H23220  11.646   4.819   1.060 -2.8498 -0.7379 -1.3293
  913MOL0     H23221  11.806   4.650   1.147 -1.6356  0.5322 -0.3932
  913MOL0     H23222  11.886   4.644   0.982 -2.3818 -1.4290 -1.1894
  913MOL0     H23223  12.007   4.827   1.015 -0.2432 -4.8065 -0.5104
  913MOL0     H23224  11.899   4.908   1.128 -0.0114  0.4912 -1.0652
  913MOL0     H23225  12.069   4.666   1.174  0.9066 -0.5437  1.6201
  913MOL0     H23226  11.949   4.722   1.293 -2.6970  2.2305 -0.8999
  913MOL0     H23227  12.083   4.942   1.317 -0.5258 -0.4991  0.1877
  913MOL0     H23228  12.170   4.901   1.171 -0.8499  1.2159 -0.0465
  913MOL0     H23229  12.177   4.762   1.443 -0.3357  0.7497  0.1745
  913MOL0     H23230  12.276   4.714   1.305  0.5593  0.3414 -0.7232
  913MOL0     H23231  12.383   4.865   1.496 -0.6551 -0.6239 -0.0503
  913MOL0     H23232  12.280   4.998   1.444  1.3731  1.4374 -2.0435
  913MOL0     H23233  12.457   4.854   1.248  1.6070 -0.8153  2.2635
  913MOL0     H23234  12.387   5.019   1.237  1.7078  0.7055 -1.1360
  913MOL0     H23235  11.588   4.723   0.666 -2.3242  0.4822 -1.4845
  913MOL0     H23236  11.374   4.837   0.574  2.1281  0.1622  1.2043
  913MOL0     H23237  10.925   4.866   0.615  0.6698 -0.6649 -1.8348
  913MOL0     H23238  10.700   4.977   0.539 -1.4033  0.7059  3.1253
  913MOL0     H23239   9.971   4.104   0.450  0.3312  0.1697  2.4586
  913MOL0     H23240  10.222   4.028   0.469  2.0565  1.2649  1.2066
  913MOL0     H23241  10.667   4.286   0.642 -0.3987  0.5967 -1.1590
  913MOL0     H23242  10.887   4.190   0.706  1.2749 -0.1534  0.0609
  913MOL0     H23243  11.012   3.808   0.467 -2.1569  4.4586 -1.3656
  913MOL0     H23244  10.890   3.811   0.602 -1.1829  1.1000 -3.8560
  913MOL0     H23245  11.076   3.657   0.665  1.8810 -0.1332  0.6670
  913MOL0     H23246  11.120   3.802   0.750 -0.5644  0.1613 -1.0185
  913MOL0     H23247  11.222   3.743   0.470  1.5498 -0.2630 -0.0679
  913MOL0     H23248  11.291   3.673   0.619 -0.0917 -0.6011  0.8727
  913MOL0     H23249  11.299   3.960   0.533  0.0207 -2.2758 -3.6265
  913MOL0     H23250  11.337   3.910   0.704  3.4578  0.0974 -0.3174
  913MOL0     H23251  11.663   3.824   0.422 -0.0206 -0.3146  0.4631
  913MOL0     H23252  10.851   3.910   0.380  5.2853  0.9442  1.2556
  913MOL0     H23253  10.552   4.057   0.221  0.8597  1.1523 -0.4091
  913MOL0     H23254  10.719   4.008   0.193  0.3093 -1.5871 -0.0416
  913MOL0     H23255  10.623   3.893   0.271  4.6715 -0.1899  2.0605
  914MOL0     O23256   1.041  10.215   3.051 -0.6766  0.1699 -0.2796
  914MOL0     C23257   0.986  10.242   3.154 -0.6579  0.0820 -0.0134
  914MOL0     O23258   1.051  10.306   3.254 -0.4115  0.0860  0.2261
  914MOL0     C23259   1.173  10.336   3.226 -0.0657  0.9812  0.2679
  914MOL0     C23260   1.274  10.246   3.275 -0.3519 -0.1267  0.0942
  914MOL0     C23261   1.411  10.280   3.284  0.3616  0.4999  0.3046
  914MOL0     C23262   1.446  10.406   3.237  0.0619 -0.7885  0.0036
  914MOL0     O23263   1.578  10.453   3.230  0.4605 -0.3983  0.6289
  914MOL0     C23264   1.670  10.368   3.162 -0.4783  0.2486 -0.0958
  914MOL0     C23265   1.766  10.444   3.066 -0.0198  0.3606 -0.6269
  914MOL0     C23266   1.678  10.509   2.964  0.4526 -0.2979  0.1216
  914MOL0     C23267   1.773  10.578   2.868 -0.1562  0.0105 -0.4086
  914MOL0     C23268   1.701  10.654   2.760  0.4916 -0.0502  0.6129
  914MOL0     C23269   1.759  10.783   2.704  0.3052 -0.5812  0.1571
  914MOL0     C23270   1.877  10.765   2.625  0.1780 -0.6203 -0.0611
  914MOL0     C23271   1.931  10.898   2.572  0.1727  0.1775  0.6318
  914MOL0     N23272   2.037  10.882   2.475 -0.0244  0.7476  0.2073
  914MOL0     C23273   2.058  10.791   2.368 -0.2971  0.5185  0.2495
  914MOL0     C23274   2.182  10.837   2.316 -0.3259  0.6938  0.4713
  914MOL0     C23275   2.279  10.782   2.202  0.0541 -0.0095 -0.3890
  914MOL0     C23276   2.421  10.842   2.217  0.4701 -0.4310 -0.3992
  914MOL0     C23277   2.517  10.796   2.107  0.4263  0.6888  0.5149
  914MOL0     C23278   2.653  10.840   2.147 -0.6205  0.5017 -1.1263
  914MOL0     O23279   2.653  10.982   2.138  0.0755 -0.0757  0.3108
  914MOL0     C23280   2.770  11.050   2.155  0.3597  0.5067 -0.3015
  914MOL0     C23281   2.893  10.992   2.185  0.2914  0.4888  0.1180
  914MOL0     C23282   3.007  11.071   2.188 -0.1116  0.3973  0.0547
  914MOL0     C23283   3.005  11.212   2.173  0.6654 -0.8781  0.0456
  914MOL0     C23284   3.126  11.299   2.161  0.2607  0.6409 -0.0607
  914MOL0     O23285   3.111  11.418   2.107  0.8045  0.8397 -0.0018
  914MOL0     C23286   3.216  11.488   2.066  0.2483  0.7696  0.2032
  914MOL0     C23287   3.198  11.626   2.059 -0.3951  0.0682 -0.0695
  914MOL0     C23288   3.293  11.716   2.006  0.3808  0.5735 -0.4076
  914MOL0     C23289   3.410  11.663   1.951  0.1533  0.4524 -0.2952
  914MOL0     O23290   3.479  11.756   1.876  0.4378 -0.4543 -0.0338
  914MOL0     C23291   3.624  11.753   1.876  0.0307  0.3882  0.9140
  914MOL0     C23292   3.691  11.887   1.822 -0.2008 -0.5413  0.1447
  914MOL0     C23293   3.689  11.997   1.928  0.0376  0.2301 -0.1893
  914MOL0     C23294   3.755  12.134   1.893  0.5856 -0.4497  1.0018
  914MOL0     C23295   3.905  12.134   1.866  0.0888 -0.0399  0.8465
  914MOL0     C23296   3.973  12.264   1.907  0.0943  0.5852 -0.1662
  914MOL0     C23297   4.000  12.266   2.058  0.0894  0.4363 -0.1496
  914MOL0     C23298   4.108  12.362   2.101  0.2391  0.4645 -0.0208
  914MOL0    Cl23299   4.269  12.295   2.074 -0.1741  0.1444 -0.4497
  914MOL0     C23300   3.427  11.525   1.948 -0.9240 -0.0107  0.2926
  914MOL0     C23301   3.342  11.442   2.016 -0.6164 -1.0078  0.7131
  914MOL0     O23302   3.227  11.260   2.204 -0.7584 -0.1698 -0.3357
  914MOL0     C23303   2.876  11.261   2.149 -0.6467  0.0684  0.1613
  914MOL0     C23304   2.760  11.188   2.142 -0.9736  0.4381  1.0642
  914MOL0     N23305   2.220  10.952   2.382  0.1114 -0.6344 -0.2662
  914MOL0     N23306   2.137  10.964   2.487 -0.4438  0.1420  0.6904
  914MOL0     C23307   1.342  10.491   3.186 -0.3587  0.0560  0.0126
  914MOL0     C23308   1.213  10.458   3.182 -0.5782  0.2850 -0.0658
  914MOL0     C23309   0.850  10.194   3.174 -0.1406  0.6211  0.2715
  914MOL0     C23310   0.807  10.058   3.159 -0.1266 -1.1827 -0.4962
  914MOL0     C23311   0.669  10.026   3.165  0.3463 -0.2022 -0.2494
  914MOL0     C23312   0.573  10.129   3.191 -1.0844  0.4793  1.0595
  914MOL0     O23313   0.436  10.123   3.203 -0.2437 -0.0342 -0.1574
  914MOL0     C23314   0.368   9.994   3.171 -0.1580 -0.3500  0.4064
  914MOL0     C23315   0.220  10.024   3.141  0.0167  0.7434  0.2342
  914MOL0     C23316   0.144   9.890   3.090 -0.1443 -0.7002  0.0966
  914MOL0     C23317   0.215   9.783   3.011 -0.6462 -0.2177 -0.9399
  914MOL0     C23318   0.269   9.848   2.893  0.6388  0.1251  0.6433
  914MOL0     C23319   0.308   9.894   2.783 -0.0604 -0.0686 -0.2211
  914MOL0     C23320   0.618  10.256   3.210 -0.5101  1.0575 -0.7328
  914MOL0     C23321   0.753  10.295   3.198 -0.7003  0.3165 -0.0588
  914MOL0     C23322   0.789  10.439   3.225  0.8143 -0.4316 -0.5130
  914MOL0     H23323   1.246  10.154   3.324 -1.1837  0.4601  0.7464
  914MOL0     H23324   1.479  10.210   3.331 -0.0102 -0.2822 -0.2881
  914MOL0     H23325   1.723  10.309   3.237  0.3440  2.2480  0.9934
  914MOL0     H23326   1.613  10.293   3.106  3.2213 -2.2240 -0.9087
  914MOL0     H23327   1.833  10.375   3.015  1.2363  1.2340 -0.2083
  914MOL0     H23328   1.827  10.521   3.115 -0.9290  0.7420 -0.0603
  914MOL0     H23329   1.621  10.584   3.020  0.9038  0.2870 -0.1900
  914MOL0     H23330   1.621  10.435   2.907  0.4463  0.4700 -0.8975
  914MOL0     H23331   1.838  10.643   2.927  1.1776 -0.1191 -1.6897
  914MOL0     H23332   1.840  10.507   2.818 -0.9357 -0.8775 -0.2304
  914MOL0     H23333   1.678  10.584   2.679 -1.1836  0.9412  0.1868
  914MOL0     H23334   1.604  10.680   2.803  0.3110 -0.6942  0.6171
  914MOL0     H23335   1.679  10.820   2.641 -0.3224 -1.5725  0.3558
  914MOL0     H23336   1.784  10.848   2.789  2.2611 -0.5637 -0.3681
  914MOL0     H23337   1.858  10.695   2.544  2.0720 -1.3430  0.0629
  914MOL0     H23338   1.953  10.722   2.691  0.2983  2.3522  1.9520
  914MOL0     H23339   1.848  10.949   2.522  0.8330 -0.0367 -0.7434
  914MOL0     H23340   1.958  10.951   2.664  0.3699 -0.0759  0.7192
  914MOL0     H23341   2.001  10.705   2.335  0.0854  0.0208  0.8624
  914MOL0     H23342   2.275  10.673   2.210 -0.2682 -0.2061 -2.5857
  914MOL0     H23343   2.232  10.803   2.105  0.7933  4.7984  0.0519
  914MOL0     H23344   2.417  10.951   2.209 -0.1140 -0.2688  1.5244
  914MOL0     H23345   2.455  10.816   2.318 -3.9021 -0.8318  1.1605
  914MOL0     H23346   2.494  10.843   2.012  2.3600  0.4289 -0.1271
  914MOL0     H23347   2.511  10.687   2.097 -2.3609  0.6162  1.9236
  914MOL0     H23348   2.744  10.801   2.100 -0.0625 -1.4314  1.3500
  914MOL0     H23349   2.657  10.815   2.253 -0.5306 -0.4325 -1.3425
  914MOL0     H23350   2.905  10.885   2.199 -1.0295  0.1517 -1.0843
  914MOL0     H23351   3.101  11.024   2.217  0.3753  1.2117 -0.1751
  914MOL0     H23352   3.110  11.674   2.100 -0.8820 -1.1507  0.3678
  914MOL0     H23353   3.270  11.820   1.990  1.9112  0.8711 -0.7970
  914MOL0     H23354   3.664  11.730   1.976  0.9466 -0.8019  0.2987
  914MOL0     H23355   3.656  11.669   1.813  0.4181 -1.2317  3.1295
  914MOL0     H23356   3.798  11.880   1.798 -0.3260  0.2093 -0.6802
  914MOL0     H23357   3.628  11.913   1.737  0.2902  0.7408  0.1568
  914MOL0     H23358   3.586  12.010   1.963  0.5937 -0.1334  1.6703
  914MOL0     H23359   3.756  11.984   2.013 -0.8935  2.2313  0.9337
  914MOL0     H23360   3.736  12.204   1.974 -1.6327  1.6583 -1.1525
  914MOL0     H23361   3.703  12.186   1.812  1.5914 -2.0855 -0.7717
  914MOL0     H23362   3.901  12.130   1.757 -0.9701  0.8469  0.8356
  914MOL0     H23363   3.960  12.044   1.895 -0.4402 -0.7625 -0.3396
  914MOL0     H23364   4.067  12.276   1.853  0.0723  0.9006 -0.1398
  914MOL0     H23365   3.904  12.343   1.874 -0.4843 -0.6591 -2.0563
  914MOL0     H23366   4.039  12.167   2.083  0.6684  0.0955 -2.2716
  914MOL0     H23367   3.905  12.290   2.109 -0.7566  0.7452 -1.7939
  914MOL0     H23368   4.103  12.441   2.025  1.0565 -0.8136 -1.4652
  914MOL0     H23369   4.097  12.404   2.201  1.1946  1.4642 -0.3126
  914MOL0     H23370   3.506  11.484   1.886 -0.5368  2.1165 -0.7043
  914MOL0     H23371   3.365  11.336   2.015 -1.6138 -1.2546 -1.1267
  914MOL0     H23372   2.874  11.368   2.130 -1.0933 -0.2234 -1.6924
  914MOL0     H23373   2.666  11.244   2.135  0.1298  2.2079 -1.2174
  914MOL0     H23374   1.374  10.586   3.144  1.7575 -0.4310  0.4105
  914MOL0     H23375   1.131  10.517   3.142 -1.6450 -1.3354 -0.4123
  914MOL0     H23376   0.884   9.983   3.142 -0.1754 -1.7662  1.5156
  914MOL0     H23377   0.636   9.923   3.154 -4.5935  1.0130  0.7132
  914MOL0     H23378   0.377   9.938   3.265  1.0049 -0.9315 -0.0274
  914MOL0     H23379   0.415   9.932   3.094  0.2297 -0.8187  1.0109
  914MOL0     H23380   0.215  10.099   3.061  0.4311  0.8202  0.2774
  914MOL0     H23381   0.165  10.057   3.230 -1.5527 -2.2350  0.4984
  914MOL0     H23382   0.063   9.929   3.028  1.1079  0.9117 -0.6015
  914MOL0     H23383   0.097   9.839   3.174  0.7908  0.6579  1.4841
  914MOL0     H23384   0.297   9.740   3.070 -3.0155 -1.4094  1.7532
  914MOL0     H23385   0.149   9.698   2.991 -0.2670 -0.8100  0.2303
  914MOL0     H23386   0.338   9.947   2.695  1.4314 -0.4946  0.0078
  914MOL0     H23387   0.551  10.339   3.232  0.8751  1.3954  2.8906
  914MOL0     H23388   0.854  10.478   3.146  1.1259  1.3386  0.5462
  914MOL0     H23389   0.704  10.506   3.240  1.0865  0.1661 -1.5663
  914MOL0     H23390   0.858  10.446   3.310  1.2176 -0.5631 -0.8237
  915MOL0     O23391   2.013   6.860   4.451  0.3753  0.1747 -0.0895
  915MOL0     C23392   2.003   6.981   4.479  0.6167  0.8453  0.7892
  915MOL0     O23393   1.897   7.037   4.541  0.0036 -0.4979  0.5103
  915MOL0     C23394   1.789   6.957   4.552  0.1285  0.5128 -0.6944
  915MOL0     C23395   1.693   6.940   4.449  0.1026  0.8911  0.8189
  915MOL0     C23396   1.583   6.853   4.469 -0.9700  0.0164  0.9751
  915MOL0     C23397   1.565   6.791   4.588  1.1679 -0.6698  0.2102
  915MOL0     O23398   1.462   6.693   4.610  0.1508 -0.2568 -0.7043
  915MOL0     C23399   1.358   6.681   4.507  0.3187 -0.2547  0.3270
  915MOL0     C23400   1.273   6.570   4.564 -0.8997 -0.4970  0.5659
  915MOL0     C23401   1.173   6.498   4.460  0.5059  0.0445 -0.1196
  915MOL0     C23402   1.064   6.414   4.529 -1.1409  0.0167  0.5886
  915MOL0     C23403   0.944   6.482   4.597  0.1860 -0.0776  0.4683
  915MOL0     C23404   0.837   6.545   4.510  0.2308  0.0751 -0.5386
  915MOL0     C23405   0.770   6.463   4.408  0.4280  0.2180  0.7303
  915MOL0     C23406   0.673   6.350   4.462  0.4268 -0.1707  0.3766
  915MOL0     N23407   0.651   6.252   4.349  0.1730  0.2363  0.2965
  915MOL0     C23408   0.585   6.284   4.232  0.7830  0.8604 -0.3791
  915MOL0     C23409   0.571   6.166   4.167 -0.1541 -0.0162  0.0883
  915MOL0     C23410   0.492   6.154   4.044 -0.6671 -0.1057  0.1220
  915MOL0     C23411   0.588   6.099   3.932 -0.0222 -0.7325 -0.3551
  915MOL0     C23412   0.653   6.225   3.869  0.0447  0.1767 -1.4079
  915MOL0     C23413   0.792   6.242   3.924  0.1647 -0.6732 -0.7624
  915MOL0     O23414   0.873   6.317   3.836  0.0172 -0.4470 -0.3966
  915MOL0     C23415   0.974   6.388   3.899  0.2061 -0.4332 -0.2318
  915MOL0     C23416   0.964   6.458   4.020 -0.2430  0.3614 -0.0677
  915MOL0     C23417   1.074   6.526   4.067  0.0870 -0.7039 -0.3923
  915MOL0     C23418   1.188   6.532   3.993 -0.2450 -0.7934  0.4036
  915MOL0     C23419   1.312   6.604   4.045  0.3855  0.4633  1.2368
  915MOL0     O23420   1.407   6.626   3.954 -0.6903 -0.3161 -0.4746
  915MOL0     C23421   1.514   6.704   3.996  0.5424 -0.1102  0.1217
  915MOL0     C23422   1.588   6.674   4.111  0.4087  0.0066 -0.6650
  915MOL0     C23423   1.684   6.765   4.158  0.5942 -0.1891 -0.4206
  915MOL0     C23424   1.719   6.884   4.085 -0.2669  0.9976  0.0791
  915MOL0     O23425   1.829   6.948   4.134 -0.1916  0.0574  0.4803
  915MOL0     C23426   1.833   7.087   4.113  0.0222 -1.0149  0.7068
  915MOL0     C23427   1.960   7.112   4.038  0.9733  0.1100 -0.9013
  915MOL0     C23428   1.994   7.258   4.052 -0.2952  0.0924 -0.5055
  915MOL0     C23429   2.119   7.306   3.983  0.3460 -0.0514 -1.0997
  915MOL0     C23430   2.142   7.462   3.984 -0.2213 -0.1242 -0.0688
  915MOL0     C23431   2.062   7.542   4.083 -0.1413  0.0850 -0.0076
  915MOL0     C23432   2.133   7.669   4.131 -0.2149  0.4635 -0.7826
  915MOL0     C23433   2.144   7.772   4.025 -0.7227 -0.2019  0.6022
  915MOL0    Cl23434   2.289   7.757   3.919 -0.3742 -0.0396  0.4205
  915MOL0     C23435   1.649   6.903   3.966 -0.7291 -0.1198 -1.3455
  915MOL0     C23436   1.552   6.814   3.919  0.1517 -0.1085  0.5006
  915MOL0     O23437   1.307   6.634   4.167  0.3645  0.3628  0.3046
  915MOL0     C23438   1.202   6.457   3.871  0.8814  0.2009  0.3474
  915MOL0     C23439   1.096   6.376   3.829  0.3428 -0.2488 -0.0971
  915MOL0     N23440   0.626   6.067   4.249  0.0404  1.0822  0.0157
  915MOL0     N23441   0.660   6.117   4.363 -0.2557  0.8677  0.5779
  915MOL0     C23442   1.658   6.820   4.689 -0.6534 -0.2594 -0.3809
  915MOL0     C23443   1.772   6.895   4.671 -0.2998 -0.1996 -1.2531
  915MOL0     C23444   2.128   7.074   4.448 -0.1378  0.5236 -0.0554
  915MOL0     C23445   2.121   7.207   4.490  0.0657 -0.0516 -0.4592
  915MOL0     C23446   2.212   7.304   4.450  0.3144  0.3683  0.1498
  915MOL0     C23447   2.321   7.273   4.367 -0.1670  0.6674  0.6273
  915MOL0     O23448   2.399   7.373   4.329 -0.4353  0.3683 -0.2135
  915MOL0     C23449   2.472   7.363   4.206  0.1051  0.8083 -0.1556
  915MOL0     C23450   2.514   7.503   4.156  0.2886  0.1259  1.2240
  915MOL0     C23451   2.621   7.494   4.050  0.1304  0.7324  0.3120
  915MOL0     C23452   2.596   7.567   3.920 -0.0833  0.6113  0.6938
  915MOL0     C23453   2.496   7.495   3.843  0.5916 -0.0633 -0.4284
  915MOL0     C23454   2.429   7.425   3.777  0.3599 -0.0054 -0.6939
  915MOL0     C23455   2.337   7.139   4.328  0.0295 -0.0817 -0.0917
  915MOL0     C23456   2.238   7.043   4.361 -0.6634 -0.6975  0.5250
  915MOL0     C23457   2.251   6.905   4.303  0.3074  0.0180  0.4053
  915MOL0     H23458   1.712   6.999   4.359  1.9592 -2.5615 -1.2333
  915MOL0     H23459   1.518   6.835   4.384 -0.5080 -1.0045  0.8284
  915MOL0     H23460   1.293   6.767   4.491  1.1699  0.2734 -0.3828
  915MOL0     H23461   1.403   6.656   4.410 -1.3953 -3.2980  0.1549
  915MOL0     H23462   1.211   6.609   4.645 -1.5631  0.7127 -0.4912
  915MOL0     H23463   1.338   6.493   4.608 -0.5432 -0.0925  0.7445
  915MOL0     H23464   1.232   6.443   4.386  0.9386  3.4284 -2.5075
  915MOL0     H23465   1.130   6.578   4.398 -1.5233 -0.1222  1.0016
  915MOL0     H23466   1.030   6.332   4.464 -1.8904 -0.3200  1.3814
  915MOL0     H23467   1.130   6.359   4.597  2.5481  2.2415 -0.8915
  915MOL0     H23468   0.895   6.407   4.660 -0.7024  1.0459  1.1505
  915MOL0     H23469   0.992   6.552   4.667  1.5142 -1.5165  1.0520
  915MOL0     H23470   0.755   6.595   4.563  0.8566 -1.4870  2.0843
  915MOL0     H23471   0.886   6.632   4.465 -1.0018  2.5805  2.5843
  915MOL0     H23472   0.847   6.413   4.348 -2.3600 -3.4517 -0.1771
  915MOL0     H23473   0.705   6.529   4.350  0.7068 -1.7707 -2.0202
  915MOL0     H23474   0.718   6.289   4.541  1.8023  0.9055  0.4537
  915MOL0     H23475   0.579   6.395   4.494 -0.0283 -1.5388  1.0307
  915MOL0     H23476   0.560   6.380   4.188  0.9283  1.2216  0.3279
  915MOL0     H23477   0.418   6.075   4.056 -0.5008 -0.9723 -3.4334
  915MOL0     H23478   0.441   6.247   4.018  0.7898  1.3972  2.2718
  915MOL0     H23479   0.666   6.035   3.975  1.6939  1.4538 -0.0784
  915MOL0     H23480   0.527   6.054   3.853  0.2779  0.2370 -1.1528
  915MOL0     H23481   0.604   6.322   3.880  1.2261  0.7234 -0.7353
  915MOL0     H23482   0.660   6.195   3.764 -0.4076 -2.5146 -0.7339
  915MOL0     H23483   0.849   6.148   3.927 -0.7231 -1.3180 -2.5735
  915MOL0     H23484   0.783   6.286   4.024 -2.1154  2.9657 -2.3630
  915MOL0     H23485   0.868   6.454   4.071  0.3255 -0.7399  0.9766
  915MOL0     H23486   1.060   6.578   4.162 -1.1632 -2.4935  0.4516
  915MOL0     H23487   1.577   6.584   4.171  1.3448  1.2412  1.4601
  915MOL0     H23488   1.746   6.734   4.242 -1.4419  1.5673  1.8750
  915MOL0     H23489   1.751   7.126   4.053  0.7861 -0.5195 -0.0530
  915MOL0     H23490   1.831   7.136   4.211 -0.5973  1.6641 -0.5389
  915MOL0     H23491   2.035   7.053   4.092  0.2199 -0.0029  0.0557
  915MOL0     H23492   1.947   7.071   3.938 -1.5731 -2.9592  0.4839
  915MOL0     H23493   1.906   7.315   4.019  0.7077  1.6371 -0.6527
  915MOL0     H23494   2.002   7.286   4.157 -0.7779 -1.9694  0.1134
  915MOL0     H23495   2.116   7.263   3.883 -0.3774 -1.1795 -0.6132
  915MOL0     H23496   2.207   7.268   4.036  0.1145  0.1958 -0.5355
  915MOL0     H23497   2.125   7.507   3.886 -2.4048 -2.4288 -0.8443
  915MOL0     H23498   2.248   7.472   4.009  0.1681 -0.8783 -1.3508
  915MOL0     H23499   1.982   7.591   4.028 -0.2428  0.9721  0.9130
  915MOL0     H23500   2.028   7.489   4.172  3.2681  0.9854  2.0337
  915MOL0     H23501   2.226   7.659   4.187 -0.4980  3.1637  0.3260
  915MOL0     H23502   2.068   7.718   4.205 -0.4033 -1.5098  0.4362
  915MOL0     H23503   2.053   7.775   3.963  0.3876  4.0611 -1.2109
  915MOL0     H23504   2.145   7.870   4.074 -1.9236 -0.1051  0.4659
  915MOL0     H23505   1.671   6.988   3.902 -0.5978 -0.2823 -1.5193
  915MOL0     H23506   1.506   6.828   3.821  2.0310 -1.7689 -0.6952
  915MOL0     H23507   1.297   6.443   3.820  0.8447 -2.3388  0.8504
  915MOL0     H23508   1.109   6.299   3.754 -1.6469 -1.4604  0.7053
  915MOL0     H23509   1.630   6.781   4.786  0.1055 -0.5949 -0.2925
  915MOL0     H23510   1.845   6.912   4.749  0.8710  0.8773 -2.5326
  915MOL0     H23511   2.035   7.238   4.548  0.6496  0.9267 -0.1040
  915MOL0     H23512   2.187   7.404   4.481 -0.4734 -0.6589  3.0999
  915MOL0     H23513   2.404   7.324   4.130 -0.4205  1.7690 -0.1999
  915MOL0     H23514   2.550   7.286   4.215 -4.4612 -4.2014  2.2072
  915MOL0     H23515   2.543   7.567   4.239  3.3192 -0.4045  0.7152
  915MOL0     H23516   2.427   7.551   4.110  0.0435 -0.7169  0.7736
  915MOL0     H23517   2.642   7.391   4.021  0.2519  1.0714 -0.8663
  915MOL0     H23518   2.715   7.531   4.092  0.2291 -0.9125  1.6383
  915MOL0     H23519   2.564   7.667   3.949 -1.0908  1.1687 -1.9949
  915MOL0     H23520   2.687   7.563   3.860  1.7781 -0.4720  3.3987
  915MOL0     H23521   2.383   7.363   3.702  0.1003 -0.5762 -0.0695
  915MOL0     H23522   2.424   7.112   4.269 -0.4647  0.2110 -0.9806
  915MOL0     H23523   2.283   6.837   4.383 -1.8351  0.4842  1.7337
  915MOL0     H23524   2.149   6.877   4.275  0.8996 -4.2569  1.6846
  915MOL0     H23525   2.317   6.894   4.216 -2.0743 -3.5235 -1.1981
  916MOL0     O23526   1.113   7.286   7.849 -0.1855 -0.2243  0.2186
  916MOL0     C23527   1.092   7.237   7.956  0.3175  0.5195  0.0387
  916MOL0     O23528   1.191   7.183   8.041  0.2604  0.4313 -0.2366
  916MOL0     C23529   1.321   7.188   8.017  0.2573  0.3975  0.1678
  916MOL0     C23530   1.399   7.082   8.067 -0.6474  0.4774  0.1274
  916MOL0     C23531   1.538   7.072   8.046 -0.9375 -0.0352 -0.0764
  916MOL0     C23532   1.602   7.160   7.953  0.3409 -1.6859 -0.2226
  916MOL0     O23533   1.731   7.155   7.943  0.0237  1.0639  0.1003
  916MOL0     C23534   1.808   7.264   7.889 -0.8609 -0.3750 -0.3831
  916MOL0     C23535   1.948   7.205   7.875 -1.0356  0.3023  0.8722
  916MOL0     C23536   2.049   7.306   7.832  0.2928  0.7801  0.2079
  916MOL0     C23537   2.179   7.226   7.793 -0.0527  1.3206  0.0357
  916MOL0     C23538   2.294   7.308   7.739 -0.7977 -0.2889 -0.5112
  916MOL0     C23539   2.412   7.225   7.685  0.1981 -0.2196 -0.0920
  916MOL0     C23540   2.525   7.316   7.630  0.3951  0.2126 -0.6864
  916MOL0     C23541   2.661   7.253   7.662 -0.0051 -0.4113 -0.7736
  916MOL0     N23542   2.771   7.315   7.576 -0.4558  0.3419  0.4291
  916MOL0     C23543   2.794   7.287   7.439 -0.4584  0.1690 -1.1029
  916MOL0     C23544   2.911   7.351   7.417 -1.1273 -0.6691 -0.1086
  916MOL0     C23545   2.972   7.359   7.277 -0.1838 -0.1348  0.0368
  916MOL0     C23546   3.108   7.448   7.286  0.4528  0.4138  0.2220
  916MOL0     C23547   3.184   7.423   7.153 -1.1188 -0.1430 -0.2561
  916MOL0     C23548   3.272   7.544   7.113 -0.1488 -0.7205 -0.3189
  916MOL0     O23549   3.374   7.568   7.211 -0.1228 -0.2598 -0.2532
  916MOL0     C23550   3.496   7.609   7.165 -0.5985  0.4391 -0.1029
  916MOL0     C23551   3.610   7.527   7.165 -0.0207 -0.1365 -0.5122
  916MOL0     C23552   3.741   7.576   7.140  0.2231 -0.1097 -0.9247
  916MOL0     C23553   3.749   7.715   7.112 -0.6389 -0.1911  0.6019
  916MOL0     C23554   3.889   7.781   7.086 -0.4087  0.1490  0.2528
  916MOL0     O23555   3.989   7.694   7.085 -0.0147  0.0319  0.4736
  916MOL0     C23556   4.110   7.752   7.055 -0.7768 -0.1929 -0.0982
  916MOL0     C23557   4.161   7.765   6.924 -0.2494  0.5019  0.3480
  916MOL0     C23558   4.278   7.839   6.907  0.0370  0.8432  0.5088
  916MOL0     C23559   4.353   7.881   7.018 -0.5361  0.7393  0.1113
  916MOL0     O23560   4.476   7.938   6.992 -0.2441  0.0925 -0.7672
  916MOL0     C23561   4.529   8.042   7.080 -0.4323 -0.3659 -0.0088
  916MOL0     C23562   4.663   7.998   7.147 -0.5601  0.3001  0.3908
  916MOL0     C23563   4.792   8.010   7.058 -0.0933  0.3707  1.0160
  916MOL0     C23564   4.906   8.085   7.119 -0.6937 -1.0435 -0.4796
  916MOL0     C23565   5.040   8.053   7.053 -0.4793  0.4426 -0.3202
  916MOL0     C23566   5.168   8.126   7.106 -0.3876 -0.1921  0.1163
  916MOL0     C23567   5.199   8.104   7.253 -0.1019  0.5372  0.3290
  916MOL0     C23568   5.310   8.180   7.302 -0.8687  0.0561  0.3922
  916MOL0    Cl23569   5.462   8.097   7.260 -0.0216 -0.0335 -0.1804
  916MOL0     C23570   4.307   7.867   7.145 -0.3416 -0.0668 -0.1419
  916MOL0     C23571   4.186   7.792   7.163  0.3280  0.7137  0.0322
  916MOL0     O23572   3.897   7.898   7.056 -0.3781  0.5220 -0.1226
  916MOL0     C23573   3.635   7.795   7.104  1.0662  0.2192 -0.0055
  916MOL0     C23574   3.507   7.744   7.131 -0.2884 -0.4991 -0.0307
  916MOL0     N23575   2.953   7.408   7.530 -0.5103 -0.1170  0.1469
  916MOL0     N23576   2.881   7.377   7.626 -0.3088 -1.0575 -0.1320
  916MOL0     C23577   1.521   7.269   7.905  0.4381 -0.2045 -0.3908
  916MOL0     C23578   1.385   7.279   7.929  0.6549  0.1290 -0.7726
  916MOL0     C23579   0.948   7.230   7.997 -0.8608 -0.1519 -0.0578
  916MOL0     C23580   0.927   7.198   8.127  0.7017 -0.1499 -0.0716
  916MOL0     C23581   0.800   7.210   8.179 -0.2376  0.0113  0.8006
  916MOL0     C23582   0.688   7.253   8.102  1.1322 -0.3451 -0.4910
  916MOL0     O23583   0.571   7.288   8.163 -0.1932 -0.2185  0.5423
  916MOL0     C23584   0.495   7.172   8.198 -0.6489  1.2442  0.0361
  916MOL0     C23585   0.377   7.195   8.289 -0.1072 -0.4869  0.3103
  916MOL0     C23586   0.291   7.312   8.225  0.6045  0.1362 -0.2650
  916MOL0     C23587   0.159   7.326   8.300  0.4488  0.3963 -0.3982
  916MOL0     C23588   0.073   7.405   8.215  0.5647 -0.2071 -0.2192
  916MOL0     C23589  -0.005   7.454   8.142  0.2041  0.2871  0.2760
  916MOL0     C23590   0.703   7.259   7.965  0.8013 -0.3434  0.9034
  916MOL0     C23591   0.836   7.249   7.912  0.7528  0.4207 -1.0872
  916MOL0     C23592   0.849   7.273   7.762  0.3145 -0.2187  0.4536
  916MOL0     H23593   1.350   7.021   8.143  2.2731 -1.9452  0.2672
  916MOL0     H23594   1.593   7.004   8.110  0.7796  1.3769  0.0527
  916MOL0     H23595   1.774   7.307   7.794  1.0667  1.1007 -0.4766
  916MOL0     H23596   1.822   7.346   7.960  3.2777 -0.3936 -0.9435
  916MOL0     H23597   1.931   7.123   7.804  0.1376  0.3043  0.5758
  916MOL0     H23598   1.974   7.163   7.972 -1.1470 -1.3771  0.2052
  916MOL0     H23599   2.051   7.383   7.909 -1.7465  1.3993 -0.2881
  916MOL0     H23600   2.015   7.359   7.742  1.3868 -0.1216 -0.7771
  916MOL0     H23601   2.218   7.160   7.871 -1.6856 -0.2885 -0.4558
  916MOL0     H23602   2.140   7.167   7.710  0.1379  1.7800 -0.3817
  916MOL0     H23603   2.260   7.380   7.663 -0.2174  0.6005  0.0467
  916MOL0     H23604   2.342   7.367   7.818  3.4518 -0.2310 -2.8232
  916MOL0     H23605   2.453   7.172   7.771 -0.3363 -1.3685 -0.5148
  916MOL0     H23606   2.389   7.148   7.610 -0.7152  0.4690 -0.5288
  916MOL0     H23607   2.522   7.405   7.694 -0.7834 -0.3596  0.0774
  916MOL0     H23608   2.511   7.344   7.526  2.4773  0.9171 -0.8384
  916MOL0     H23609   2.684   7.288   7.763 -1.1715  0.1354 -0.6865
  916MOL0     H23610   2.652   7.145   7.646 -1.7862 -0.5259  0.6527
  916MOL0     H23611   2.724   7.226   7.383 -0.0007 -2.4536  0.9933
  916MOL0     H23612   3.000   7.256   7.255 -0.7617 -0.9411  2.6950
  916MOL0     H23613   2.895   7.391   7.206 -0.4931  2.3218  1.3577
  916MOL0     H23614   3.091   7.556   7.282  0.2121  0.3635 -3.5152
  916MOL0     H23615   3.169   7.411   7.369  1.4989  1.8554  0.1287
  916MOL0     H23616   3.120   7.400   7.067  0.3887  0.6396 -1.6345
  916MOL0     H23617   3.264   7.351   7.171  0.4439  1.3328 -0.9514
  916MOL0     H23618   3.211   7.632   7.094 -2.3016 -1.9004  0.7651
  916MOL0     H23619   3.325   7.510   7.024  0.6762  1.5073 -0.7427
  916MOL0     H23620   3.592   7.423   7.193 -0.6061  0.3403  1.0082
  916MOL0     H23621   3.822   7.507   7.161 -1.5195 -1.6822  1.0961
  916MOL0     H23622   4.107   7.720   6.841 -0.4431  1.4780 -0.0752
  916MOL0     H23623   4.322   7.872   6.814 -0.0409 -1.5244 -0.4484
  916MOL0     H23624   4.554   8.129   7.019  2.7534 -0.3492  1.1149
  916MOL0     H23625   4.465   8.078   7.162  1.3094 -0.9269  1.6846
  916MOL0     H23626   4.686   8.063   7.232  1.5539  2.5378 -1.7207
  916MOL0     H23627   4.658   7.896   7.187 -1.2151  0.5626  1.0052
  916MOL0     H23628   4.834   7.913   7.031 -1.1306 -0.3704  1.9770
  916MOL0     H23629   4.773   8.056   6.960  3.8926 -0.2713 -0.2462
  916MOL0     H23630   4.904   8.049   7.222 -2.5044 -0.1325 -0.1588
  916MOL0     H23631   4.883   8.192   7.118 -3.3488 -1.5613 -0.9459
  916MOL0     H23632   5.031   8.069   6.946 -2.0603 -2.0697 -0.6516
  916MOL0     H23633   5.057   7.946   7.072  2.1625  0.6536 -1.0511
  916MOL0     H23634   5.242   8.086   7.037 -1.6671  0.1163 -1.4900
  916MOL0     H23635   5.157   8.235   7.095 -1.7028  0.1596  3.6391
  916MOL0     H23636   5.202   7.998   7.281 -0.7857  0.6369  0.7909
  916MOL0     H23637   5.124   8.149   7.319  2.0428  0.4103  3.0152
  916MOL0     H23638   5.308   8.277   7.252  1.3763 -1.4962 -3.0724
  916MOL0     H23639   5.304   8.192   7.411 -2.4153  0.7753  0.2583
  916MOL0     H23640   4.368   7.907   7.225  0.5898 -0.1057 -0.8149
  916MOL0     H23641   4.154   7.777   7.265 -1.0640  0.4686 -0.4219
  916MOL0     H23642   3.641   7.900   7.076 -1.0034  0.6587  1.0346
  916MOL0     H23643   3.435   7.822   7.108  2.4224  1.9402 -0.7797
  916MOL0     H23644   1.568   7.334   7.832  1.1906  0.3258  0.5351
  916MOL0     H23645   1.330   7.345   7.862  0.0819 -0.2721 -0.6984
  916MOL0     H23646   1.007   7.161   8.190  1.4301 -2.2057 -2.0496
  916MOL0     H23647   0.784   7.183   8.283 -1.4472 -1.4933  0.2462
  916MOL0     H23648   0.553   7.091   8.244 -0.6944  1.6666  0.8484
  916MOL0     H23649   0.457   7.128   8.105 -0.6297 -0.0452  0.6197
  916MOL0     H23650   0.408   7.208   8.393  1.8609 -1.7292 -0.0713
  916MOL0     H23651   0.312   7.107   8.282 -1.4894  0.5265 -0.2616
  916MOL0     H23652   0.272   7.310   8.117 -0.1976  3.6560 -0.3350
  916MOL0     H23653   0.342   7.409   8.224 -1.1004  1.0791 -0.2196
  916MOL0     H23654   0.118   7.226   8.318 -1.4500  1.6292  3.1567
  916MOL0     H23655   0.169   7.362   8.403  0.9073  2.8050 -1.2232
  916MOL0     H23656  -0.076   7.487   8.069 -0.7415 -1.2251  0.4893
  916MOL0     H23657   0.616   7.293   7.908  1.0771 -2.7737 -1.1579
  916MOL0     H23658   0.922   7.352   7.741 -0.1245  0.3373  0.9893
  916MOL0     H23659   0.891   7.186   7.711  1.5669  0.0733  0.9612
  916MOL0     H23660   0.757   7.306   7.711 -0.9221 -1.6051  1.7026
  917MOL0     O23661   5.282   4.766   9.071  0.1130 -0.0200 -0.0633
  917MOL0     C23662   5.224   4.697   9.154  0.1465 -0.3058 -0.3783
  917MOL0     O23663   5.271   4.674   9.282  0.1603 -0.3031 -0.1194
  917MOL0     C23664   5.407   4.684   9.299  0.5408  0.6950  0.8420
  917MOL0     C23665   5.483   4.565   9.308  0.1052  0.2038 -0.3992
  917MOL0     C23666   5.622   4.576   9.324 -0.5058 -0.0734 -0.5900
  917MOL0     C23667   5.688   4.700   9.343  1.5121  1.6931 -0.7223
  917MOL0     O23668   5.822   4.716   9.379 -0.4256 -0.3714  0.0824
  917MOL0     C23669   5.913   4.616   9.338 -0.3045 -0.7146  0.3197
  917MOL0     C23670   5.929   4.608   9.184  0.2553  0.0721  0.1065
  917MOL0     C23671   5.999   4.724   9.125  1.1817  0.1333  0.0721
  917MOL0     C23672   5.953   4.744   8.977  0.2049 -0.1809  1.2124
  917MOL0     C23673   6.050   4.837   8.901  0.9551 -0.2899  0.9058
  917MOL0     C23674   6.013   4.850   8.747  0.1385 -0.7149  0.1202
  917MOL0     C23675   6.124   4.913   8.657  0.0079 -1.5536 -0.6076
  917MOL0     C23676   6.116   5.066   8.649 -0.4727 -0.2323 -0.4079
  917MOL0     N23677   6.239   5.130   8.606  0.0243  0.2967  0.2198
  917MOL0     C23678   6.344   5.165   8.690 -0.3414 -0.3935  0.0526
  917MOL0     C23679   6.413   5.246   8.613 -0.2726 -0.6013  0.0919
  917MOL0     C23680   6.525   5.329   8.666  0.0133  0.0277  0.1053
  917MOL0     C23681   6.655   5.302   8.593 -0.0700 -0.0503  0.6408
  917MOL0     C23682   6.770   5.377   8.673  0.5341  0.0516  0.0757
  917MOL0     C23683   6.921   5.338   8.640 -0.1508  0.5873 -0.3941
  917MOL0     O23684   7.010   5.423   8.715  0.0118  0.2075  0.0511
  917MOL0     C23685   7.148   5.412   8.713  0.6886  0.3566  0.1717
  917MOL0     C23686   7.226   5.415   8.833 -0.6192  0.0511 -1.0398
  917MOL0     C23687   7.361   5.404   8.830 -1.1275 -0.0298  0.3539
  917MOL0     C23688   7.426   5.390   8.708  0.1614 -0.3924 -0.3081
  917MOL0     C23689   7.573   5.394   8.707 -0.1851 -0.3575  0.5436
  917MOL0     O23690   7.639   5.407   8.831  0.6497 -0.8926  0.0003
  917MOL0     C23691   7.776   5.392   8.828 -0.7065 -0.2526  1.2095
  917MOL0     C23692   7.828   5.267   8.804  0.0825 -0.3469  0.2261
  917MOL0     C23693   7.966   5.245   8.802 -0.0583  0.0776 -0.4351
  917MOL0     C23694   8.050   5.344   8.845  0.0490  0.4426 -0.0581
  917MOL0     O23695   8.184   5.304   8.849  0.9558  1.0014 -0.9337
  917MOL0     C23696   8.262   5.365   8.745 -0.0902 -0.7041 -0.3529
  917MOL0     C23697   8.358   5.264   8.698  0.0017  0.2438  0.0063
  917MOL0     C23698   8.452   5.322   8.596 -0.0981 -0.0260 -0.6598
  917MOL0     C23699   8.566   5.224   8.575  0.1434 -0.7148  0.0636
  917MOL0     C23700   8.665   5.275   8.469 -0.2512 -0.1334 -1.0471
  917MOL0     C23701   8.804   5.196   8.473  0.5640  0.0113 -0.3186
  917MOL0     C23702   8.918   5.252   8.392 -1.1055  0.0354  0.7607
  917MOL0     C23703   8.980   5.382   8.444 -0.2510 -0.1630  1.2954
  917MOL0    Cl23704   9.072   5.454   8.307 -0.1302  0.2661 -0.1168
  917MOL0     C23705   8.005   5.465   8.869 -0.0119 -0.3602 -0.3461
  917MOL0     C23706   7.865   5.491   8.860  1.2436  0.0927  0.6915
  917MOL0     O23707   7.639   5.379   8.600  1.2686  0.1042 -0.3123
  917MOL0     C23708   7.354   5.384   8.586 -0.5198 -0.6572 -0.4640
  917MOL0     C23709   7.213   5.388   8.594  0.2750  0.1761  0.5431
  917MOL0     N23710   6.349   5.257   8.495 -0.7139  0.2445 -0.0552
  917MOL0     N23711   6.240   5.192   8.482 -0.0562 -0.1301  0.8161
  917MOL0     C23712   5.610   4.814   9.338  0.5910 -0.5106  0.3764
  917MOL0     C23713   5.468   4.810   9.314 -0.0783  0.4578  0.3525
  917MOL0     C23714   5.073   4.674   9.138  0.1618  0.6372  0.4265
  917MOL0     C23715   4.995   4.637   9.251  0.3301  0.7051  0.6302
  917MOL0     C23716   4.858   4.592   9.241 -0.7886 -0.6894 -0.5537
  917MOL0     C23717   4.798   4.595   9.110  0.3499  0.1844 -0.2727
  917MOL0     O23718   4.669   4.556   9.076  0.6700 -0.2233  0.3539
  917MOL0     C23719   4.583   4.517   9.177 -0.0602 -0.0748 -0.1866
  917MOL0     C23720   4.449   4.470   9.118 -0.3465  0.5662  0.0612
  917MOL0     C23721   4.365   4.596   9.091 -0.3567  0.0998  0.4116
  917MOL0     C23722   4.242   4.573   9.006 -0.4178  0.4693 -0.7020
  917MOL0     C23723   4.129   4.496   9.077  0.4013 -0.4472 -0.2522
  917MOL0     C23724   4.033   4.455   9.142 -0.0883  0.0913 -0.0168
  917MOL0     C23725   4.874   4.632   9.003  0.2419 -0.1541  0.2253
  917MOL0     C23726   5.014   4.671   9.015  0.0696  0.1623 -1.0552
  917MOL0     C23727   5.082   4.684   8.883 -0.8710 -0.1025  0.1060
  917MOL0     H23728   5.431   4.471   9.302  4.6359 -2.6248 -0.0455
  917MOL0     H23729   5.686   4.487   9.322  0.1280  0.3592 -2.8723
  917MOL0     H23730   6.013   4.630   9.381  0.0790  0.5961 -0.9341
  917MOL0     H23731   5.881   4.520   9.381  2.2339 -1.4586  0.7346
  917MOL0     H23732   5.829   4.603   9.140 -0.2345  1.8109  0.9233
  917MOL0     H23733   5.981   4.519   9.149  1.4336  0.7947 -0.0363
  917MOL0     H23734   6.106   4.702   9.129  1.5787  0.5057 -3.9836
  917MOL0     H23735   5.992   4.815   9.185  0.7657  0.4461 -0.4388
  917MOL0     H23736   5.961   4.649   8.924 -1.2069 -0.5215  1.5825
  917MOL0     H23737   5.849   4.776   8.967 -0.1537 -1.4541  0.7328
  917MOL0     H23738   6.048   4.938   8.944 -0.7294 -0.0004  0.2289
  917MOL0     H23739   6.152   4.799   8.903  0.9963 -0.1879  2.8331
  917MOL0     H23740   5.987   4.756   8.696 -1.0045 -0.7476  0.7406
  917MOL0     H23741   5.925   4.913   8.740 -0.0303 -0.5801  2.5771
  917MOL0     H23742   6.104   4.873   8.558 -2.4200 -2.4271  0.1728
  917MOL0     H23743   6.226   4.887   8.688  0.3697  0.3126 -0.0979
  917MOL0     H23744   6.046   5.098   8.571 -0.2542  1.6375  0.1149
  917MOL0     H23745   6.083   5.113   8.743 -1.2779  0.4215 -1.0024
  917MOL0     H23746   6.364   5.150   8.796 -0.6945 -1.0578  0.0331
  917MOL0     H23747   6.479   5.428   8.656 -3.4595 -1.4439  0.1970
  917MOL0     H23748   6.545   5.304   8.771 -2.3233 -0.0602  0.5895
  917MOL0     H23749   6.679   5.196   8.584 -0.1294  0.0002 -0.1531
  917MOL0     H23750   6.635   5.349   8.496 -2.1414  0.4712  1.2796
  917MOL0     H23751   6.745   5.355   8.777 -2.3226  0.5553 -0.4117
  917MOL0     H23752   6.754   5.483   8.650 -2.1791 -0.0806  1.0277
  917MOL0     H23753   6.932   5.363   8.534 -0.3984  1.1473 -0.2890
  917MOL0     H23754   6.944   5.233   8.658  0.9321  0.9306  0.3738
  917MOL0     H23755   7.170   5.418   8.926  2.6195 -1.7655  1.1231
  917MOL0     H23756   7.415   5.401   8.924 -2.6284  0.7607  1.2741
  917MOL0     H23757   7.759   5.188   8.777 -0.8465  1.1238 -2.0625
  917MOL0     H23758   8.008   5.151   8.767 -0.3373  0.3032 -1.4243
  917MOL0     H23759   8.197   5.401   8.665 -0.0433 -0.9947 -0.5249
  917MOL0     H23760   8.312   5.446   8.799  1.2254 -0.6093 -1.6498
  917MOL0     H23761   8.412   5.230   8.787  0.9234  1.6878  0.0296
  917MOL0     H23762   8.307   5.182   8.647 -1.6545  2.1623 -1.5893
  917MOL0     H23763   8.395   5.329   8.503  0.7693 -1.2590 -1.3124
  917MOL0     H23764   8.491   5.422   8.620  2.8509 -1.8772  3.3773
  917MOL0     H23765   8.528   5.124   8.552  1.4296 -1.0437 -0.6962
  917MOL0     H23766   8.615   5.208   8.671 -2.5694 -1.0202  1.4777
  917MOL0     H23767   8.689   5.379   8.494 -0.1028 -0.6752  1.3325
  917MOL0     H23768   8.623   5.268   8.369  1.6272  2.3399 -2.1138
  917MOL0     H23769   8.835   5.207   8.577 -0.8727  1.9184 -0.0328
  917MOL0     H23770   8.787   5.092   8.444 -1.4604  1.3949 -5.2607
  917MOL0     H23771   8.900   5.275   8.287  0.1930 -3.2602 -0.3129
  917MOL0     H23772   8.994   5.174   8.396 -1.5907 -0.4316  1.0805
  917MOL0     H23773   8.902   5.452   8.474 -0.7813 -1.3996  2.9310
  917MOL0     H23774   9.039   5.359   8.534 -0.2678 -2.0929  0.8563
  917MOL0     H23775   8.076   5.542   8.898 -1.4188  0.7518  0.2594
  917MOL0     H23776   7.832   5.588   8.895  1.3962  0.8883 -1.2167
  917MOL0     H23777   7.402   5.370   8.490 -1.9224  0.1658 -1.3270
  917MOL0     H23778   7.158   5.385   8.500  1.1274 -0.7374  0.0558
  917MOL0     H23779   5.654   4.913   9.331  0.1492 -0.3512 -0.2826
  917MOL0     H23780   5.415   4.904   9.307 -1.4983 -0.2801  0.6544
  917MOL0     H23781   5.029   4.650   9.353  0.5344  1.6899  0.4491
  917MOL0     H23782   4.798   4.579   9.330 -1.0484  0.2889 -0.5709
  917MOL0     H23783   4.559   4.595   9.249 -0.7776 -1.2237  0.8714
  917MOL0     H23784   4.635   4.439   9.233 -0.4756 -0.3964 -0.2438
  917MOL0     H23785   4.404   4.394   9.182 -0.2912  0.5468  0.0784
  917MOL0     H23786   4.462   4.422   9.021  2.0297 -1.2780  1.1671
  917MOL0     H23787   4.426   4.673   9.042  0.5004 -0.9974 -0.2782
  917MOL0     H23788   4.343   4.634   9.191  3.3283 -2.1391  2.2658
  917MOL0     H23789   4.191   4.667   8.981  0.8950  0.8669 -2.0086
  917MOL0     H23790   4.263   4.513   8.916  1.3809 -1.4441  0.8867
  917MOL0     H23791   3.949   4.419   9.198  0.5192  2.0008  2.2866
  917MOL0     H23792   4.832   4.616   8.904 -3.6802  3.1245  1.1269
  917MOL0     H23793   5.134   4.780   8.876 -0.9758 -0.0956 -0.6643
  917MOL0     H23794   5.155   4.605   8.865 -2.1385 -1.4910  0.8607
  917MOL0     H23795   5.011   4.688   8.800 -1.9883 -0.5946  1.0126
  918MOL0     O23796   0.899   3.796   4.913 -0.9623 -0.4360  0.1380
  918MOL0     C23797   0.953   3.837   4.814  0.0417 -0.6349  0.2846
  918MOL0     O23798   0.993   3.969   4.796 -1.3739 -0.2580  0.0770
  918MOL0     C23799   0.973   4.068   4.892  0.9855  0.6978  0.2564
  918MOL0     C23800   1.096   4.150   4.910 -0.1062 -0.0826 -0.5880
  918MOL0     C23801   1.090   4.241   5.012 -0.5727 -0.5031  0.2690
  918MOL0     C23802   0.975   4.272   5.087  0.0268  0.1586  0.3728
  918MOL0     O23803   0.973   4.364   5.191 -0.0944  0.9683  0.2096
  918MOL0     C23804   1.072   4.347   5.296  0.6905 -0.4920  0.4034
  918MOL0     C23805   1.033   4.419   5.421  0.1805 -0.1181  0.2535
  918MOL0     C23806   1.147   4.405   5.530  0.1155  0.1839 -0.3286
  918MOL0     C23807   1.281   4.463   5.497 -0.2901  0.1462 -0.9087
  918MOL0     C23808   1.378   4.470   5.622 -0.3618 -0.2703  0.1601
  918MOL0     C23809   1.422   4.323   5.667  0.7658  0.1651 -0.2696
  918MOL0     C23810   1.517   4.331   5.789  0.6603 -1.0699 -0.4831
  918MOL0     C23811   1.563   4.195   5.833  0.5787 -0.5986 -0.1606
  918MOL0     N23812   1.685   4.225   5.914  0.7026 -0.3802  0.1375
  918MOL0     C23813   1.674   4.267   6.044 -1.1386  0.7827  0.2741
  918MOL0     C23814   1.805   4.231   6.085  0.7505 -0.0605 -0.2251
  918MOL0     C23815   1.851   4.235   6.228  0.2409  0.1244 -0.1167
  918MOL0     C23816   1.983   4.305   6.239 -0.1687 -0.4924  0.3956
  918MOL0     C23817   1.964   4.441   6.299 -0.6496  0.4320 -0.5404
  918MOL0     C23818   2.091   4.528   6.319  0.0382 -0.5080  0.2614
  918MOL0     O23819   2.167   4.464   6.426  0.7922 -0.0436  0.5755
  918MOL0     C23820   2.302   4.480   6.444  0.4292  0.0766 -0.1170
  918MOL0     C23821   2.371   4.592   6.399  0.9506  0.5498  0.0609
  918MOL0     C23822   2.500   4.607   6.436 -0.9668  0.2874 -0.1953
  918MOL0     C23823   2.565   4.515   6.520  0.5367  0.2580 -0.6040
  918MOL0     C23824   2.693   4.536   6.555 -0.3253  0.4876  0.1766
  918MOL0     O23825   2.740   4.446   6.644 -0.4937  0.1069  0.0924
  918MOL0     C23826   2.873   4.462   6.675  1.3521  0.6913  0.0756
  918MOL0     C23827   2.975   4.496   6.579 -0.5054  0.5926  0.5151
  918MOL0     C23828   3.109   4.491   6.627  0.1157 -0.0686 -0.9164
  918MOL0     C23829   3.148   4.474   6.763 -0.0884  0.1210 -0.2642
  918MOL0     O23830   3.273   4.452   6.815  0.2850 -0.0289 -0.2730
  918MOL0     C23831   3.374   4.382   6.737  0.3251 -0.3782 -0.3659
  918MOL0     C23832   3.463   4.477   6.648 -0.1071 -0.3722  0.1696
  918MOL0     C23833   3.563   4.401   6.566 -0.0041  0.4917  0.0651
  918MOL0     C23834   3.614   4.480   6.447  0.3229  0.1107  0.1383
  918MOL0     C23835   3.740   4.411   6.383 -0.7506  0.0682  0.5886
  918MOL0     C23836   3.708   4.262   6.330  0.4212 -0.7386  0.7802
  918MOL0     C23837   3.586   4.266   6.238  0.1105  0.2174  0.1372
  918MOL0     C23838   3.566   4.131   6.164 -0.7662  0.0976  0.6953
  918MOL0    Cl23839   3.619   3.995   6.252  0.0946 -0.0311 -0.5907
  918MOL0     C23840   3.040   4.446   6.848 -0.7034  0.1487  0.1093
  918MOL0     C23841   2.909   4.435   6.804  0.3692  0.6965 -0.0677
  918MOL0     O23842   2.750   4.636   6.519  0.3308  0.2439  0.3067
  918MOL0     C23843   2.497   4.396   6.558 -0.3377 -0.0936 -0.3756
  918MOL0     C23844   2.360   4.384   6.528 -0.2218 -0.4302 -0.7935
  918MOL0     N23845   1.879   4.195   5.974  0.6815 -0.2764 -0.0680
  918MOL0     N23846   1.813   4.201   5.863 -0.0801 -0.3181  0.3426
  918MOL0     C23847   0.858   4.202   5.058  0.2485 -0.0414 -1.1085
  918MOL0     C23848   0.851   4.096   4.967 -0.3147  0.7298  0.6632
  918MOL0     C23849   0.990   3.743   4.708 -0.8055 -0.1165 -0.5783
  918MOL0     C23850   1.105   3.781   4.642 -1.4032 -0.7322  0.4790
  918MOL0     C23851   1.151   3.710   4.529  0.2103 -0.2245 -0.0741
  918MOL0     C23852   1.089   3.594   4.486 -0.4294  0.1534 -0.0018
  918MOL0     O23853   1.139   3.509   4.394 -0.0986 -0.4200  0.1304
  918MOL0     C23854   1.264   3.531   4.326 -0.0591 -0.2941  0.7966
  918MOL0     C23855   1.305   3.427   4.230 -0.7472  0.1777  0.0321
  918MOL0     C23856   1.202   3.421   4.118  0.3511 -0.5652 -0.4171
  918MOL0     C23857   1.230   3.306   4.021  0.1462 -1.0973 -0.1618
  918MOL0     C23858   1.354   3.322   3.939  0.2137  0.7756  0.0471
  918MOL0     C23859   1.456   3.319   3.868 -0.2122  0.5876  0.0268
  918MOL0     C23860   0.979   3.559   4.563 -0.2172 -0.0901 -0.4919
  918MOL0     C23861   0.924   3.628   4.672  0.0579  0.3614 -0.3273
  918MOL0     C23862   0.798   3.570   4.738  0.2601  0.2723 -0.4969
  918MOL0     H23863   1.195   4.138   4.868  0.8233  0.4124  1.3732
  918MOL0     H23864   1.182   4.294   5.034 -1.3235  1.5688 -1.1865
  918MOL0     H23865   1.068   4.241   5.322  1.3658 -0.2915  1.3696
  918MOL0     H23866   1.168   4.383   5.259  0.8719 -1.2892  0.0863
  918MOL0     H23867   0.942   4.370   5.457 -0.7243  2.6400  2.0851
  918MOL0     H23868   1.002   4.523   5.402  0.0482 -0.6072 -2.7277
  918MOL0     H23869   1.162   4.297   5.545  1.0151  0.2386 -0.7439
  918MOL0     H23870   1.115   4.449   5.625  1.3502 -1.2695  0.8326
  918MOL0     H23871   1.335   4.406   5.421 -0.3450 -0.1982 -0.6939
  918MOL0     H23872   1.260   4.562   5.456  0.0120  0.5197 -0.1846
  918MOL0     H23873   1.465   4.530   5.596 -1.7163  1.6726 -0.0784
  918MOL0     H23874   1.327   4.526   5.701  0.7863  1.7538 -0.4747
  918MOL0     H23875   1.332   4.273   5.704  1.4292  0.2554  1.5579
  918MOL0     H23876   1.471   4.271   5.584  2.1477 -3.4945  2.5715
  918MOL0     H23877   1.456   4.377   5.867 -0.6278  2.9650 -3.5044
  918MOL0     H23878   1.597   4.393   5.748 -0.0190  1.9619  2.3848
  918MOL0     H23879   1.483   4.161   5.900 -2.0543  2.5088 -1.4790
  918MOL0     H23880   1.581   4.125   5.751  0.4227  1.7063 -2.2719
  918MOL0     H23881   1.587   4.283   6.107 -0.6427 -1.5482  1.6491
  918MOL0     H23882   1.779   4.276   6.299  0.2020  2.3051 -1.3284
  918MOL0     H23883   1.870   4.130   6.254  1.5172 -0.0835 -1.7465
  918MOL0     H23884   2.062   4.251   6.292  1.8710 -0.1902 -2.1390
  918MOL0     H23885   2.022   4.316   6.138  0.7169  2.1650  0.9411
  918MOL0     H23886   1.921   4.433   6.399  0.2888 -1.0521 -0.2301
  918MOL0     H23887   1.893   4.499   6.239 -1.0145  2.1514  1.4458
  918MOL0     H23888   2.054   4.627   6.345  0.0658 -0.1799 -0.8970
  918MOL0     H23889   2.154   4.537   6.231 -1.0801  1.2736 -0.3958
  918MOL0     H23890   2.330   4.663   6.328  2.0236 -1.2939 -2.5328
  918MOL0     H23891   2.556   4.697   6.413 -1.1178  0.8984  1.6770
  918MOL0     H23892   2.955   4.534   6.479 -0.7434 -1.3242 -0.1925
  918MOL0     H23893   3.185   4.504   6.551 -0.2328  0.8607 -1.1130
  918MOL0     H23894   3.435   4.337   6.815  0.0229  2.3577  1.6199
  918MOL0     H23895   3.330   4.301   6.679  0.5103 -0.5695 -0.2372
  918MOL0     H23896   3.401   4.537   6.581 -0.1887 -0.1523  0.4414
  918MOL0     H23897   3.531   4.542   6.704  4.1523 -1.5321 -3.1311
  918MOL0     H23898   3.645   4.387   6.637 -0.6596 -1.1281  0.5355
  918MOL0     H23899   3.527   4.304   6.531  5.1169 -1.3261 -1.1762
  918MOL0     H23900   3.645   4.574   6.493 -0.3762 -0.7457  2.5211
  918MOL0     H23901   3.540   4.520   6.378 -0.0465 -2.6247 -1.1806
  918MOL0     H23902   3.827   4.410   6.450 -0.8664 -1.5936  0.7339
  918MOL0     H23903   3.779   4.473   6.302 -0.7267  0.3447  0.8075
  918MOL0     H23904   3.801   4.236   6.277 -0.8733  1.3950 -2.8755
  918MOL0     H23905   3.694   4.194   6.414 -2.7060 -0.1929  0.8045
  918MOL0     H23906   3.599   4.337   6.156  0.9031  0.2999  0.3317
  918MOL0     H23907   3.496   4.289   6.298 -0.5278  1.1462 -1.1307
  918MOL0     H23908   3.462   4.105   6.144 -0.3612 -0.0759 -1.5078
  918MOL0     H23909   3.609   4.138   6.063 -1.7983 -2.5814  0.0073
  918MOL0     H23910   3.066   4.419   6.950 -1.8956  0.5098  0.5211
  918MOL0     H23911   2.834   4.398   6.873  0.8452 -4.0239 -1.7072
  918MOL0     H23912   2.548   4.330   6.627 -3.7241  0.0764  2.5696
  918MOL0     H23913   2.300   4.297   6.553  1.0245 -1.8455 -2.4943
  918MOL0     H23914   0.773   4.225   5.122 -1.2438  3.2102 -3.9616
  918MOL0     H23915   0.756   4.054   4.935 -0.9639  2.9242 -0.4569
  918MOL0     H23916   1.157   3.870   4.675 -1.6555 -0.4024 -0.0002
  918MOL0     H23917   1.230   3.754   4.469 -0.7786  2.3069  0.3291
  918MOL0     H23918   1.344   3.527   4.400 -1.0608  0.7440  2.0114
  918MOL0     H23919   1.288   3.626   4.278  0.1544 -0.7725 -0.0510
  918MOL0     H23920   1.308   3.337   4.291  0.8211  1.1819  1.5528
  918MOL0     H23921   1.406   3.449   4.193 -0.4955  0.7452  1.0306
  918MOL0     H23922   1.198   3.519   4.069 -0.2742 -1.1793 -1.6429
  918MOL0     H23923   1.104   3.396   4.160  0.5097 -0.5080 -0.0032
  918MOL0     H23924   1.225   3.205   4.064  1.7287 -1.4902 -0.8084
  918MOL0     H23925   1.157   3.315   3.940  1.5700  0.0787 -1.3757
  918MOL0     H23926   1.543   3.305   3.807  2.1520 -2.5519  3.6763
  918MOL0     H23927   0.916   3.474   4.540 -0.3437  0.3552 -1.8930
  918MOL0     H23928   0.707   3.581   4.677 -1.2492  0.9402  1.7451
  918MOL0     H23929   0.802   3.463   4.757 -2.5783 -0.1224 -1.5396
  918MOL0     H23930   0.781   3.609   4.839  0.4824  1.2124 -0.8074
  919MOL0     O23931   8.680   8.158   9.724  1.1253 -0.5373 -0.0804
  919MOL0     C23932   8.626   8.086   9.631 -0.0220  0.4674 -0.7934
  919MOL0     O23933   8.689   8.018   9.533 -0.4091 -0.0266  0.8387
  919MOL0     C23934   8.824   8.049   9.514 -0.2209  0.2460  0.3368
  919MOL0     C23935   8.917   8.009   9.613 -0.6521 -0.4771 -0.1871
  919MOL0     C23936   9.049   8.056   9.605  0.0687  0.4570  0.4811
  919MOL0     C23937   9.088   8.133   9.498 -1.1869  0.5136  0.5705
  919MOL0     O23938   9.228   8.143   9.482  0.1379  0.1922 -0.4576
  919MOL0     C23939   9.289   8.157   9.359 -0.5158 -0.0640 -0.3910
  919MOL0     C23940   9.438   8.141   9.360  0.2121 -0.5596 -0.5510
  919MOL0     C23941   9.504   8.169   9.225 -0.3230  0.1950 -0.2234
  919MOL0     C23942   9.598   8.046   9.192  0.3116  1.1707 -0.2881
  919MOL0     C23943   9.654   8.037   9.056  0.0968 -0.0605 -0.1408
  919MOL0     C23944   9.764   8.141   9.030  0.8008  0.7265  0.8195
  919MOL0     C23945   9.811   8.137   8.887  0.7231  0.2406  0.0153
  919MOL0     C23946   9.922   8.234   8.848  0.1694  0.3173 -0.1104
  919MOL0     N23947  10.039   8.212   8.925  0.0241 -0.1016 -0.1846
  919MOL0     C23948  10.119   8.099   8.926 -0.9119  0.4141  0.1039
  919MOL0     C23949  10.206   8.115   9.023  0.8656 -0.2414 -0.2945
  919MOL0     C23950  10.306   8.011   9.060 -1.0703  0.2758  0.1770
  919MOL0     C23951  10.423   8.014   8.970  0.1881  0.5719  0.1574
  919MOL0     C23952  10.528   7.907   8.980 -0.9093 -0.1656  0.0449
  919MOL0     C23953  10.556   7.839   9.115 -0.3620  0.2599 -0.2239
  919MOL0     O23954  10.670   7.754   9.121 -0.3154  1.1771  0.0523
  919MOL0     C23955  10.789   7.808   9.098 -0.6294 -0.0701  0.7024
  919MOL0     C23956  10.890   7.716   9.053 -0.2718 -0.5505 -0.3400
  919MOL0     C23957  11.022   7.766   9.028  0.6010 -0.3000 -0.5260
  919MOL0     C23958  11.051   7.904   9.048  0.7759 -0.3725 -0.6257
  919MOL0     C23959  11.188   7.948   9.021 -0.3169  0.1582 -0.7536
  919MOL0     O23960  11.284   7.856   8.988  0.2089  0.3285 -0.0477
  919MOL0     C23961  11.408   7.894   8.958 -0.1589  0.0010 -0.1187
  919MOL0     C23962  11.508   7.880   9.053 -1.1548 -0.0649  0.1204
  919MOL0     C23963  11.647   7.910   9.025 -0.7690 -0.1564 -0.5388
  919MOL0     C23964  11.682   7.951   8.897 -0.5744  1.2849  0.5683
  919MOL0     O23965  11.809   7.974   8.866 -0.9295 -0.0345 -0.1609
  919MOL0     C23966  11.882   7.879   8.800 -0.3233 -0.1730 -0.3962
  919MOL0     C23967  12.031   7.874   8.822  0.5338  0.3420  0.7825
  919MOL0     C23968  12.093   7.995   8.757 -0.8723  0.5094 -0.4857
  919MOL0     C23969  12.231   8.013   8.813 -0.8133  0.2653 -0.0764
  919MOL0     C23970  12.279   8.146   8.756 -0.5574  0.4263 -0.0729
  919MOL0     C23971  12.429   8.179   8.796  0.7272 -0.7152 -0.2442
  919MOL0     C23972  12.479   8.315   8.731  0.2372 -0.6071  0.3517
  919MOL0     C23973  12.632   8.336   8.768 -0.5884  0.7173 -0.9522
  919MOL0    Cl23974  12.744   8.242   8.650 -0.2045  0.4027  0.3651
  919MOL0     C23975  11.581   7.967   8.805  0.8191 -0.6582  0.0932
  919MOL0     C23976  11.447   7.934   8.833  0.7192  0.0002  0.4298
  919MOL0     O23977  11.214   8.071   9.027  0.6824  1.5111 -0.1158
  919MOL0     C23978  10.951   7.993   9.095 -0.7875 -0.0427  0.9377
  919MOL0     C23979  10.821   7.941   9.122 -0.3239 -0.0536 -0.0363
  919MOL0     N23980  10.191   8.240   9.071 -0.0287 -0.3597 -0.1892
  919MOL0     N23981  10.094   8.300   9.011 -0.4068 -0.4465 -0.1772
  919MOL0     C23982   8.990   8.180   9.402  0.0509  0.2392 -0.1907
  919MOL0     C23983   8.861   8.141   9.420 -1.4063 -0.1744 -0.2781
  919MOL0     C23984   8.483   8.081   9.636  0.6861 -0.1636 -0.2624
  919MOL0     C23985   8.414   7.995   9.553 -0.0809  0.6741  0.2319
  919MOL0     C23986   8.276   7.976   9.545 -0.3986  0.3568 -0.1564
  919MOL0     C23987   8.193   8.037   9.633 -0.5418 -0.4312 -0.2107
  919MOL0     O23988   8.062   8.014   9.631  0.1544 -0.2069  0.5665
  919MOL0     C23989   7.973   8.061   9.731 -0.3710 -0.5069 -1.1652
  919MOL0     C23990   7.835   8.006   9.689  1.0229  0.6664  0.1623
  919MOL0     C23991   7.723   8.005   9.798  0.1855 -0.4384 -0.0121
  919MOL0     C23992   7.602   7.943   9.735  0.5534 -0.3675 -0.8470
  919MOL0     C23993   7.500   7.895   9.823 -0.4979  0.8902  0.5077
  919MOL0     C23994   7.418   7.830   9.891 -0.4981 -0.5848  0.5997
  919MOL0     C23995   8.258   8.126   9.729  0.1698  0.7944  0.1867
  919MOL0     C23996   8.398   8.155   9.721  1.1752 -0.1058  0.3423
  919MOL0     C23997   8.435   8.267   9.815  0.2159 -0.3467  0.1253
  919MOL0     H23998   8.897   7.936   9.691  2.7255  0.0165  1.3207
  919MOL0     H23999   9.110   8.014   9.685  0.5198  0.8951  0.3720
  919MOL0     H24000   9.260   8.073   9.295 -0.6398  0.0678 -0.5088
  919MOL0     H24001   9.257   8.247   9.304  0.0661  0.3049 -0.1363
  919MOL0     H24002   9.478   8.045   9.392  3.0041 -1.1135 -4.9368
  919MOL0     H24003   9.475   8.216   9.431 -0.3515  0.6978 -1.5436
  919MOL0     H24004   9.560   8.263   9.231 -1.1868  0.8377 -1.8380
  919MOL0     H24005   9.424   8.182   9.152 -0.7141  1.0618  0.3395
  919MOL0     H24006   9.678   8.039   9.267  1.9598 -1.4690 -2.1372
  919MOL0     H24007   9.532   7.960   9.204 -0.9644  2.0703 -0.6075
  919MOL0     H24008   9.719   7.950   9.064  1.9376  1.4213  2.3304
  919MOL0     H24009   9.583   8.027   8.973 -1.1454  0.4640  0.8299
  919MOL0     H24010   9.731   8.241   9.057  0.3514  1.2309 -1.4428
  919MOL0     H24011   9.845   8.108   9.096 -0.3457  1.1120  2.4703
  919MOL0     H24012   9.726   8.151   8.819 -0.9642  0.5131  2.0695
  919MOL0     H24013   9.851   8.039   8.861  0.7603  0.3967 -0.5244
  919MOL0     H24014   9.950   8.223   8.743 -0.1835  2.3183 -0.4481
  919MOL0     H24015   9.890   8.338   8.861  1.2287  0.5092  1.1660
  919MOL0     H24016  10.111   8.008   8.868  1.5749  1.0847 -1.4485
  919MOL0     H24017  10.333   8.020   9.165 -1.5891  2.9778  0.1479
  919MOL0     H24018  10.257   7.914   9.043 -3.2641  1.6111 -1.8591
  919MOL0     H24019  10.385   8.009   8.868 -1.9974 -2.6543  0.9670
  919MOL0     H24020  10.468   8.112   8.988  0.1052  0.5093  0.7313
  919MOL0     H24021  10.613   7.972   8.960 -1.5961  0.9387  0.6634
  919MOL0     H24022  10.514   7.833   8.900 -1.9838  0.4498 -0.3444
  919MOL0     H24023  10.477   7.766   9.135 -0.2915 -0.4876 -2.3817
  919MOL0     H24024  10.553   7.919   9.189 -3.9834  0.5536 -0.4792
  919MOL0     H24025  10.871   7.610   9.044  3.9630 -1.3688 -1.7902
  919MOL0     H24026  11.097   7.694   8.995  1.7327  0.5155  0.2030
  919MOL0     H24027  11.474   7.857   9.154  1.5084  1.8019  1.5712
  919MOL0     H24028  11.725   7.912   9.100 -1.2089  1.2795 -0.0827
  919MOL0     H24029  11.854   7.775   8.818  3.2765 -1.3667 -0.7951
  919MOL0     H24030  11.860   7.903   8.695 -3.8092  1.5405  0.5892
  919MOL0     H24031  12.039   7.880   8.931  0.9265 -0.0409  0.7799
  919MOL0     H24032  12.073   7.780   8.785  0.0604  0.7558 -0.8754
  919MOL0     H24033  12.110   7.969   8.652  2.0132  1.5962 -0.3931
  919MOL0     H24034  12.031   8.085   8.760 -2.1106 -0.2383 -2.0743
  919MOL0     H24035  12.295   7.927   8.793 -1.1638  0.3348 -1.6243
  919MOL0     H24036  12.223   8.021   8.922  2.1516  0.9948  0.1788
  919MOL0     H24037  12.214   8.226   8.791  0.3751  0.9649  0.4829
  919MOL0     H24038  12.277   8.143   8.646 -3.8360 -2.0754 -0.0852
  919MOL0     H24039  12.432   8.197   8.904 -1.3328  0.8477 -0.3786
  919MOL0     H24040  12.490   8.100   8.751 -1.4400 -1.1091 -2.7891
  919MOL0     H24041  12.420   8.398   8.771  2.4778  2.1016 -1.5549
  919MOL0     H24042  12.470   8.328   8.623  1.8146  0.8818  0.3572
  919MOL0     H24043  12.663   8.441   8.758  0.2810  0.3892 -1.9152
  919MOL0     H24044  12.635   8.304   8.872 -3.2598 -1.1108 -1.3495
  919MOL0     H24045  11.593   8.018   8.710  0.0284  0.9888  0.8228
  919MOL0     H24046  11.370   7.966   8.763  3.1355 -1.1212 -3.0529
  919MOL0     H24047  10.985   8.094   9.111  0.6396  0.0962 -2.2280
  919MOL0     H24048  10.742   8.011   9.149  0.3041  1.7390 -2.5137
  919MOL0     H24049   9.012   8.255   9.327  2.7710 -1.8552 -1.6746
  919MOL0     H24050   8.790   8.206   9.370  0.3334  2.8191  0.8586
  919MOL0     H24051   8.465   7.932   9.481 -2.8303 -2.2441  0.6028
  919MOL0     H24052   8.242   7.897   9.478  2.6342 -1.6783  0.4950
  919MOL0     H24053   7.967   8.170   9.743 -0.3634 -0.6637  0.4659
  919MOL0     H24054   8.002   8.026   9.830 -1.1309 -0.8264 -1.0471
  919MOL0     H24055   7.844   7.903   9.655 -3.1584 -0.1741  1.0937
  919MOL0     H24056   7.794   8.069   9.609  3.8571  0.5671 -1.5048
  919MOL0     H24057   7.681   8.098   9.837 -1.9518 -1.4200  0.1577
  919MOL0     H24058   7.760   7.938   9.877 -0.6863 -0.2718  0.5521
  919MOL0     H24059   7.558   8.026   9.680 -0.2916  1.3121  2.1504
  919MOL0     H24060   7.639   7.871   9.661  0.0644  1.6583 -3.1737
  919MOL0     H24061   7.349   7.775   9.952 -0.0309  1.1623  2.8230
  919MOL0     H24062   8.196   8.192   9.788 -1.1099  1.2133 -1.5485
  919MOL0     H24063   8.471   8.211   9.901  1.3843  2.0040  1.2647
  919MOL0     H24064   8.511   8.336   9.776 -0.0613 -0.1714 -0.1143
  919MOL0     H24065   8.350   8.331   9.842  2.2760  1.7984  1.9626
  920MOL0     O24066   4.151  10.381   2.076  0.8180  0.4438  0.0030
  920MOL0     C24067   4.154  10.257   2.088 -0.2609  0.0226  0.3556
  920MOL0     O24068   4.259  10.176   2.064 -0.1022  0.6994  0.7143
  920MOL0     C24069   4.385  10.221   2.016 -0.3982 -0.2208 -0.6359
  920MOL0     C24070   4.394  10.319   1.920 -0.5597  0.4444  0.3343
  920MOL0     C24071   4.512  10.383   1.887  0.8431 -0.7377  0.4569
  920MOL0     C24072   4.628  10.352   1.964  0.3053 -0.1680 -0.2278
  920MOL0     O24073   4.746  10.410   1.942  0.2848 -0.1767  0.2807
  920MOL0     C24074   4.738  10.547   1.901  0.1503 -1.0754  0.0331
  920MOL0     C24075   4.882  10.582   1.944  0.5096 -0.5062 -0.4943
  920MOL0     C24076   4.925  10.733   1.910 -0.3607 -0.5007  0.3926
  920MOL0     C24077   4.875  10.841   2.001  0.0054  0.4600 -0.7453
  920MOL0     C24078   4.961  10.968   1.978  0.1048  0.4211  0.0014
  920MOL0     C24079   4.954  11.025   1.836  0.2096 -0.1112  0.6176
  920MOL0     C24080   5.039  11.150   1.832  0.1891 -0.5965 -0.0086
  920MOL0     C24081   5.063  11.202   1.687 -0.5694  0.4984  0.5150
  920MOL0     N24082   5.121  11.338   1.692  0.6319  1.2626 -0.1844
  920MOL0     C24083   5.255  11.365   1.665 -0.0162  0.0767  0.0946
  920MOL0     C24084   5.269  11.499   1.686 -0.1957 -0.3150  0.0507
  920MOL0     C24085   5.408  11.567   1.676 -0.4534  0.0250 -0.0658
  920MOL0     C24086   5.458  11.635   1.802 -0.6329  0.1438  0.7016
  920MOL0     C24087   5.523  11.550   1.902  0.5321  0.3111  0.0335
  920MOL0     C24088   5.575  11.633   2.015  1.2956  0.0394 -0.5195
  920MOL0     O24089   5.591  11.563   2.138  0.4424 -0.1945  0.6155
  920MOL0     C24090   5.692  11.476   2.153 -1.0673 -0.3302 -0.0012
  920MOL0     C24091   5.697  11.397   2.264  0.2277  1.1290  0.0278
  920MOL0     C24092   5.802  11.310   2.277  0.2168 -0.0314  0.1932
  920MOL0     C24093   5.905  11.290   2.192 -0.5178  0.0651 -0.3047
  920MOL0     C24094   6.006  11.186   2.216  0.3872  0.3159  0.4295
  920MOL0     O24095   6.079  11.155   2.104  0.3525  0.5725  0.5026
  920MOL0     C24096   6.187  11.068   2.122  0.4056 -0.4345 -0.0563
  920MOL0     C24097   6.319  11.120   2.103 -0.1848 -0.1532  0.1566
  920MOL0     C24098   6.434  11.039   2.130 -0.8910  0.3107  0.3305
  920MOL0     C24099   6.419  10.897   2.154 -0.1722 -0.2066  0.3307
  920MOL0     O24100   6.523  10.808   2.162  0.3306  0.4105 -0.3746
  920MOL0     C24101   6.646  10.861   2.207 -0.9527  0.6305 -0.2250
  920MOL0     C24102   6.719  10.752   2.280  0.1080  0.7794  0.0383
  920MOL0     C24103   6.839  10.822   2.342 -0.5197  0.9638 -0.3947
  920MOL0     C24104   6.933  10.713   2.410 -0.0540 -0.3999 -0.4520
  920MOL0     C24105   7.035  10.787   2.493  0.1202  1.1200 -0.1905
  920MOL0     C24106   7.149  10.683   2.528 -0.4327 -0.1138  0.8747
  920MOL0     C24107   7.266  10.760   2.578 -0.6282  0.4688  0.2694
  920MOL0     C24108   7.386  10.667   2.605  0.3412  0.4038 -0.5883
  920MOL0    Cl24109   7.508  10.752   2.696  0.2488  0.2378 -0.3252
  920MOL0     C24110   6.278  10.854   2.166 -0.1939 -0.5012 -0.4639
  920MOL0     C24111   6.169  10.939   2.155  0.5910  0.3016  0.1310
  920MOL0     O24112   6.030  11.139   2.326  0.3036  0.3698 -0.7134
  920MOL0     C24113   5.900  11.367   2.075  0.4014 -0.2494  0.1368
  920MOL0     C24114   5.791  11.456   2.053 -0.0211 -0.3295  0.4573
  920MOL0     N24115   5.153  11.553   1.719 -0.1336 -0.4993 -0.7589
  920MOL0     N24116   5.061  11.458   1.730 -0.3233  0.1928  0.0619
  920MOL0     C24117   4.619  10.254   2.063  0.0695 -0.0203  0.4298
  920MOL0     C24118   4.502  10.193   2.092 -0.3810 -0.3319 -0.3845
  920MOL0     C24119   4.026  10.190   2.134  0.5537  0.2145 -0.4201
  920MOL0     C24120   3.902  10.233   2.089  0.0510  1.1140  0.6452
  920MOL0     C24121   3.790  10.169   2.141  0.4644 -0.3697 -0.3985
  920MOL0     C24122   3.798  10.068   2.240  0.6946  0.3394 -0.1612
  920MOL0     O24123   3.689  10.001   2.286  0.6657  0.0684 -1.2734
  920MOL0     C24124   3.574   9.991   2.203 -0.2912 -0.7606 -0.0201
  920MOL0     C24125   3.483   9.884   2.253 -0.3824  0.3227  0.0918
  920MOL0     C24126   3.352   9.894   2.180 -0.2938 -0.1413 -0.4318
  920MOL0     C24127   3.262   9.775   2.225 -0.0578  0.3811 -0.4643
  920MOL0     C24128   3.319   9.643   2.176  0.3328  0.2924 -0.7109
  920MOL0     C24129   3.346   9.533   2.125  0.2277  0.0867 -0.0552
  920MOL0     C24130   3.922  10.025   2.279  0.1834  0.5500  0.0249
  920MOL0     C24131   4.034  10.094   2.235  0.1247  0.6271 -0.3064
  920MOL0     C24132   4.174  10.066   2.304  0.5784  0.0633  0.0405
  920MOL0     H24133   4.302  10.356   1.876 -0.9220  1.8624  2.1560
  920MOL0     H24134   4.505  10.436   1.793 -1.4309 -1.6943  0.0072
  920MOL0     H24135   4.725  10.552   1.792  1.4671 -0.2642 -0.1131
  920MOL0     H24136   4.665  10.611   1.951  0.2631 -2.5120  2.1469
  920MOL0     H24137   4.947  10.508   1.896 -0.2485 -0.6596 -1.3017
  920MOL0     H24138   4.891  10.568   2.052  0.4722 -1.9095 -0.6630
  920MOL0     H24139   4.887  10.761   1.812 -1.0351  2.2653  1.3704
  920MOL0     H24140   5.034  10.732   1.897 -0.2212 -0.8829  1.4390
  920MOL0     H24141   4.770  10.863   1.980 -1.0127 -2.4222  0.6965
  920MOL0     H24142   4.890  10.814   2.106 -1.7595  2.9109  0.2348
  920MOL0     H24143   4.932  11.045   2.049 -0.7471 -0.4289  0.5905
  920MOL0     H24144   5.067  10.943   1.991 -0.4144 -1.6609  0.6544
  920MOL0     H24145   5.002  10.960   1.762  2.2530 -0.9052  2.5279
  920MOL0     H24146   4.848  11.035   1.811  0.1460 -0.3677  0.7779
  920MOL0     H24147   5.136  11.122   1.875  0.3272 -0.0173  0.0634
  920MOL0     H24148   4.998  11.229   1.895  2.5743 -0.3269  1.3530
  920MOL0     H24149   5.116  11.132   1.621 -1.7745 -1.0365  1.1105
  920MOL0     H24150   4.965  11.219   1.644 -1.1914 -0.5896  1.4455
  920MOL0     H24151   5.336  11.299   1.638  0.2790  0.7101 -0.6200
  920MOL0     H24152   5.490  11.515   1.627 -0.0781  1.1626 -0.6643
  920MOL0     H24153   5.390  11.646   1.603 -0.4003 -1.5746 -1.8870
  920MOL0     H24154   5.541  11.697   1.767 -0.4132 -1.1948 -1.3454
  920MOL0     H24155   5.371  11.689   1.842 -2.4015 -1.6588 -0.4906
  920MOL0     H24156   5.611  11.511   1.850 -0.6912  0.2195 -2.0594
  920MOL0     H24157   5.455  11.471   1.936  0.6888 -0.0185 -0.4139
  920MOL0     H24158   5.498  11.708   2.032  2.3485  0.6914  1.7565
  920MOL0     H24159   5.659  11.690   1.975  0.6277  1.7541  0.4240
  920MOL0     H24160   5.618  11.411   2.338 -0.4192  1.1093 -0.6539
  920MOL0     H24161   5.793  11.261   2.374  2.4108 -2.0932 -0.5409
  920MOL0     H24162   6.326  11.225   2.078 -0.8848 -0.2325 -0.3986
  920MOL0     H24163   6.533  11.083   2.122  0.1733 -1.7620  1.1972
  920MOL0     H24164   6.698  10.912   2.125 -0.3552  0.5250  0.0861
  920MOL0     H24165   6.625  10.935   2.285 -0.5059  0.2028  0.3101
  920MOL0     H24166   6.666  10.697   2.358  1.3810  0.1675  0.5087
  920MOL0     H24167   6.761  10.680   2.208 -1.4011  0.1929 -0.2859
  920MOL0     H24168   6.890  10.887   2.270 -1.5277  1.7906 -0.3779
  920MOL0     H24169   6.812  10.887   2.425  1.2943  1.3225 -0.0395
  920MOL0     H24170   6.982  10.658   2.329 -0.4790 -2.5130  0.6678
  920MOL0     H24171   6.872  10.647   2.472 -1.3328 -0.0507 -1.2980
  920MOL0     H24172   6.989  10.833   2.581  0.9063  1.5617 -0.0054
  920MOL0     H24173   7.080  10.866   2.433 -0.3635  1.3508 -0.2549
  920MOL0     H24174   7.105  10.614   2.601 -2.7639 -0.2611 -0.5621
  920MOL0     H24175   7.177  10.626   2.439 -0.9145 -0.3432  0.8622
  920MOL0     H24176   7.223  10.802   2.670 -0.2439  1.8621 -0.1484
  920MOL0     H24177   7.292  10.838   2.505  0.5679 -0.6215 -0.5277
  920MOL0     H24178   7.354  10.584   2.669 -0.5954  1.6681  0.6450
  920MOL0     H24179   7.435  10.629   2.515 -0.4171 -2.0217 -0.0651
  920MOL0     H24180   6.256  10.751   2.190  2.9944 -1.7522 -2.3220
  920MOL0     H24181   6.069  10.897   2.153  1.6162 -2.3689 -2.7284
  920MOL0     H24182   5.979  11.353   2.003 -2.0034 -2.5661 -2.2727
  920MOL0     H24183   5.791  11.515   1.962  0.1547 -0.6643  0.2384
  920MOL0     H24184   4.709  10.240   2.123  0.9891  0.2222 -0.8503
  920MOL0     H24185   4.499  10.120   2.173 -0.0908 -0.9203 -0.9015
  920MOL0     H24186   3.896  10.291   1.998 -1.0701 -2.5127 -1.7967
  920MOL0     H24187   3.690  10.197   2.109  1.1630  1.3590 -1.1553
  920MOL0     H24188   3.608   9.960   2.104  2.7605  0.5012  0.5156
  920MOL0     H24189   3.519  10.086   2.197 -0.2386 -0.8049 -1.5130
  920MOL0     H24190   3.482   9.893   2.362  3.9454  1.6694  0.2121
  920MOL0     H24191   3.537   9.792   2.227  2.0035  1.2976  1.2206
  920MOL0     H24192   3.377   9.881   2.075  0.9103 -2.1109  0.0536
  920MOL0     H24193   3.301   9.988   2.205 -1.2866  0.4501 -4.1487
  920MOL0     H24194   3.251   9.772   2.333  3.1340  1.6011  0.0099
  920MOL0     H24195   3.168   9.789   2.170 -0.3311  2.0707  0.3905
  920MOL0     H24196   3.365   9.452   2.058 -1.1285 -0.0618 -0.2897
  920MOL0     H24197   3.930   9.950   2.357 -0.3613  0.6965  0.2199
  920MOL0     H24198   4.227   9.991   2.245 -0.0735 -1.0189  0.8104
  920MOL0     H24199   4.237  10.153   2.326 -0.3821  0.5388  1.0209
  920MOL0     H24200   4.155  10.025   2.404 -1.6694 -1.1839 -0.8508
  921MOL0     O24201   6.939  11.168   7.765 -0.8244  0.3497 -0.2423
  921MOL0     C24202   6.841  11.202   7.699  0.7692 -0.0691  0.1229
  921MOL0     O24203   6.834  11.205   7.563  0.0838 -0.1341  1.1857
  921MOL0     C24204   6.946  11.178   7.484 -0.4991 -0.6898 -0.5128
  921MOL0     C24205   6.973  11.278   7.392 -0.1232 -0.5961  0.6377
  921MOL0     C24206   7.085  11.266   7.303 -0.1200  0.1819  0.3331
  921MOL0     C24207   7.168  11.153   7.318 -0.0456  0.5103  0.2378
  921MOL0     O24208   7.267  11.139   7.224 -0.3194  0.0976 -0.6441
  921MOL0     C24209   7.363  11.039   7.242 -1.2299  0.2264 -0.0149
  921MOL0     C24210   7.493  11.055   7.158 -0.0252 -0.3838  1.1796
  921MOL0     C24211   7.454  11.069   7.013  0.2274  0.2696 -0.1758
  921MOL0     C24212   7.472  10.932   6.934  1.4584 -0.8912  0.2911
  921MOL0     C24213   7.396  10.927   6.792 -0.6012 -0.9178  0.2002
  921MOL0     C24214   7.480  10.844   6.682 -0.2310 -0.1572 -0.0351
  921MOL0     C24215   7.448  10.875   6.538 -0.0906  0.3882  0.9650
  921MOL0     C24216   7.295  10.881   6.512 -0.2504 -0.1252 -0.0994
  921MOL0     N24217   7.259  10.896   6.367 -1.0846  0.3017 -0.4306
  921MOL0     C24218   7.349  10.942   6.264  0.2045  0.1166  0.3028
  921MOL0     C24219   7.277  10.917   6.157  0.0554 -0.2667  0.6901
  921MOL0     C24220   7.345  10.926   6.018 -0.5824 -0.0873  0.7923
  921MOL0     C24221   7.431  11.051   5.993  0.4023  0.3156 -0.6228
  921MOL0     C24222   7.510  11.050   5.860  0.4036 -0.5144 -0.3035
  921MOL0     C24223   7.617  10.948   5.840 -0.2579  0.5493 -0.1086
  921MOL0     O24224   7.727  10.969   5.922 -0.1007 -0.1714 -0.8702
  921MOL0     C24225   7.843  10.901   5.901  0.0346 -0.2742  0.6289
  921MOL0     C24226   7.863  10.812   5.794 -0.4983 -0.1288 -0.0684
  921MOL0     C24227   7.987  10.753   5.780 -0.5816  0.5824 -0.2058
  921MOL0     C24228   8.090  10.781   5.877 -0.3712 -0.0943  0.1820
  921MOL0     C24229   8.222  10.721   5.869  0.3379  0.4148  0.6270
  921MOL0     O24230   8.318  10.773   5.942  0.2502 -0.1414 -0.2309
  921MOL0     C24231   8.441  10.716   5.941  0.0809 -0.0781 -0.5595
  921MOL0     C24232   8.493  10.594   5.896 -0.1319 -0.0179 -0.2948
  921MOL0     C24233   8.627  10.547   5.905  0.4782  0.2917  0.1305
  921MOL0     C24234   8.717  10.634   5.956  0.6853  0.0436 -0.1514
  921MOL0     O24235   8.852  10.613   5.941 -0.4143  0.0384 -0.0943
  921MOL0     C24236   8.909  10.490   6.002 -0.4924  0.3595 -0.3132
  921MOL0     C24237   9.048  10.504   6.070 -0.4370 -0.1124 -0.0819
  921MOL0     C24238   9.164  10.512   5.973  0.0873  0.3893  0.5829
  921MOL0     C24239   9.297  10.524   6.048  0.5817 -0.0575 -0.2039
  921MOL0     C24240   9.421  10.495   5.959 -0.1335  0.1317 -1.6961
  921MOL0     C24241   9.441  10.595   5.836 -1.0951  0.5872 -0.2374
  921MOL0     C24242   9.575  10.564   5.752  0.3022  0.3571 -0.9343
  921MOL0     C24243   9.583  10.656   5.634  0.4178  0.1658  0.1708
  921MOL0    Cl24244   9.723  10.595   5.551 -0.3277  0.1648  0.7008
  921MOL0     C24245   8.680  10.759   6.000  0.1828 -0.7139 -0.4011
  921MOL0     C24246   8.541  10.802   5.988  0.0471  0.2306  1.0861
  921MOL0     O24247   8.228  10.622   5.799 -0.2850  0.2234 -0.0778
  921MOL0     C24248   8.066  10.861   5.984 -0.4984 -0.4100 -0.3470
  921MOL0     C24249   7.940  10.926   5.992  0.6991 -0.0245  0.2354
  921MOL0     N24250   7.148  10.873   6.185  1.1387 -0.2968  0.6359
  921MOL0     N24251   7.135  10.880   6.312  0.4367  0.0596 -0.0883
  921MOL0     C24252   7.136  11.044   7.407  0.2285  0.1178 -0.5783
  921MOL0     C24253   7.016  11.061   7.488 -0.1070  0.3399 -0.2522
  921MOL0     C24254   6.711  11.230   7.772  0.8976 -0.2168  0.4369
  921MOL0     C24255   6.591  11.245   7.701 -0.0000 -0.2423 -0.3521
  921MOL0     C24256   6.470  11.271   7.771 -0.5844 -0.1596  0.8251
  921MOL0     C24257   6.472  11.301   7.908  0.1599 -0.0037  0.1604
  921MOL0     O24258   6.345  11.338   7.960  0.7554  0.1961  1.2464
  921MOL0     C24259   6.335  11.420   8.076 -0.2166 -0.5224 -0.6677
  921MOL0     C24260   6.235  11.537   8.043 -0.0428 -0.2478  0.5721
  921MOL0     C24261   6.093  11.484   8.025  1.1554 -0.2325 -1.0845
  921MOL0     C24262   6.022  11.546   7.902  0.0575  0.0655 -0.1825
  921MOL0     C24263   6.007  11.691   7.934  0.0275 -0.0549  0.1415
  921MOL0     C24264   6.013  11.813   7.937 -0.3519 -0.4385 -0.7512
  921MOL0     C24265   6.583  11.288   7.980 -0.1662  0.0162 -0.5664
  921MOL0     C24266   6.702  11.260   7.917 -0.0623 -0.1025  0.0725
  921MOL0     C24267   6.827  11.246   8.006 -0.0485 -0.8606 -0.4373
  921MOL0     H24268   6.901  11.360   7.391  1.7044  1.0912  1.3682
  921MOL0     H24269   7.085  11.336   7.220 -0.3506 -1.3179 -0.9749
  921MOL0     H24270   7.391  11.027   7.347 -2.0466 -0.6816  0.1188
  921MOL0     H24271   7.315  10.945   7.212 -1.0473 -0.3064  1.2998
  921MOL0     H24272   7.569  10.979   7.179  1.6136  0.4778 -1.2955
  921MOL0     H24273   7.536  11.150   7.191 -1.2238  1.1019 -1.2451
  921MOL0     H24274   7.514  11.150   6.971  1.1306  0.0775  0.7052
  921MOL0     H24275   7.346  11.083   7.002 -0.4501 -2.8037  1.3105
  921MOL0     H24276   7.577  10.904   6.922  1.4686 -0.6954 -0.1007
  921MOL0     H24277   7.426  10.858   6.999 -0.9226  1.3825  1.3824
  921MOL0     H24278   7.301  10.874   6.804  0.2722 -2.8975 -1.0755
  921MOL0     H24279   7.370  11.028   6.759 -0.1788 -1.3737 -1.6143
  921MOL0     H24280   7.588  10.864   6.689  0.0099 -1.0327 -0.9559
  921MOL0     H24281   7.455  10.739   6.699  2.5014 -0.7978  0.6118
  921MOL0     H24282   7.492  10.807   6.464 -1.3800 -1.0337  1.4376
  921MOL0     H24283   7.475  10.978   6.516  2.1140 -0.3443 -0.0396
  921MOL0     H24284   7.246  10.790   6.549  0.2415 -1.0346 -1.6300
  921MOL0     H24285   7.251  10.967   6.565 -0.7131 -0.9359  0.8756
  921MOL0     H24286   7.454  10.968   6.267  1.1011 -2.7002 -2.0428
  921MOL0     H24287   7.411  10.839   6.010  0.8065  0.9681  0.4194
  921MOL0     H24288   7.271  10.918   5.938  1.5370  0.3532 -1.3222
  921MOL0     H24289   7.376  11.146   5.994 -1.1448 -0.4760 -2.9832
  921MOL0     H24290   7.513  11.048   6.066 -0.4263  0.9435  0.3581
  921MOL0     H24291   7.562  11.145   5.849 -3.0016  1.6933  0.8348
  921MOL0     H24292   7.434  11.042   5.782  1.2007 -0.7517 -1.0622
  921MOL0     H24293   7.647  10.962   5.736  1.3233 -0.1982  0.2145
  921MOL0     H24294   7.578  10.847   5.853  2.4866 -0.5265  0.4155
  921MOL0     H24295   7.783  10.794   5.723  1.2240 -1.0629 -1.8564
  921MOL0     H24296   8.003  10.691   5.692 -1.7514  0.5461 -0.4136
  921MOL0     H24297   8.429  10.516   5.856 -0.9050  0.8288 -0.7411
  921MOL0     H24298   8.650  10.447   5.869 -0.6083  0.2355 -0.4425
  921MOL0     H24299   8.837  10.451   6.074 -0.0836  2.3563  1.2848
  921MOL0     H24300   8.910  10.408   5.930 -0.5197 -1.7166  1.9332
  921MOL0     H24301   9.043  10.593   6.134 -1.1119 -0.7635  0.8067
  921MOL0     H24302   9.069  10.415   6.130 -0.9015 -2.9087 -3.7159
  921MOL0     H24303   9.167  10.419   5.917 -2.0675  0.4353  0.3231
  921MOL0     H24304   9.157  10.598   5.905 -1.1316  2.3608  3.0090
  921MOL0     H24305   9.301  10.452   6.131 -0.3387 -0.1984 -0.2759
  921MOL0     H24306   9.292  10.628   6.083 -2.6505  0.2125 -1.1952
  921MOL0     H24307   9.427  10.396   5.914  0.3653  0.8877 -3.3971
  921MOL0     H24308   9.505  10.510   6.027 -0.3424 -1.2327 -1.1041
  921MOL0     H24309   9.362  10.596   5.760  1.2267 -2.3394 -2.9579
  921MOL0     H24310   9.446  10.689   5.891 -2.5217 -0.2105  1.3556
  921MOL0     H24311   9.569  10.458   5.723 -2.6761 -0.2519  1.3164
  921MOL0     H24312   9.655  10.575   5.827  0.5921 -1.9233 -0.8286
  921MOL0     H24313   9.490  10.656   5.577 -2.1482 -3.1944  3.7890
  921MOL0     H24314   9.601  10.758   5.668 -0.1941  1.1959 -2.3836
  921MOL0     H24315   8.756  10.829   6.030  0.7860 -1.1057 -0.9868
  921MOL0     H24316   8.505  10.902   6.012 -2.4620 -0.9488  2.6566
  921MOL0     H24317   8.138  10.890   6.060 -2.9495  0.0096  1.9982
  921MOL0     H24318   7.916  11.005   6.063 -3.5515 -1.8518  1.1286
  921MOL0     H24319   7.198  10.955   7.410 -0.1514 -0.2997 -3.1610
  921MOL0     H24320   6.985  10.986   7.560 -1.4649  1.6849  0.6091
  921MOL0     H24321   6.587  11.209   7.598  0.6014  0.2232 -0.5455
  921MOL0     H24322   6.368  11.264   7.733  0.6633 -1.1345 -2.7916
  921MOL0     H24323   6.425  11.471   8.114 -1.6307  0.1038  2.1042
  921MOL0     H24324   6.311  11.356   8.161  3.1827  0.1208  0.9709
  921MOL0     H24325   6.278  11.593   7.960  0.9606 -0.8362  0.6800
  921MOL0     H24326   6.241  11.617   8.117  1.8549  1.8474 -1.6929
  921MOL0     H24327   6.033  11.495   8.115  1.1674 -1.8135 -0.8411
  921MOL0     H24328   6.103  11.377   8.004  2.8324 -0.4020  0.3238
  921MOL0     H24329   6.087  11.535   7.815 -0.7796 -0.0989 -0.7993
  921MOL0     H24330   5.918  11.522   7.879 -0.9482  2.1573  1.8323
  921MOL0     H24331   6.002  11.920   7.934 -3.1835 -0.6854 -1.5606
  921MOL0     H24332   6.583  11.298   8.088 -0.3993 -0.8685 -0.4766
  921MOL0     H24333   6.868  11.145   8.011  0.3746 -0.7036 -0.7437
  921MOL0     H24334   6.903  11.316   7.972  0.1070 -0.7827  0.0679
  921MOL0     H24335   6.800  11.278   8.107  0.4791  2.2905 -1.1896
  922MOL0     O24336   0.942   1.601   8.418 -0.2202 -1.0433  0.3364
  922MOL0     C24337   0.983   1.497   8.359 -0.3964 -1.3760 -1.1986
  922MOL0     O24338   1.087   1.423   8.393  0.7927  0.1205  0.4220
  922MOL0     C24339   1.165   1.453   8.507 -0.1900  0.4239  0.2560
  922MOL0     C24340   1.212   1.580   8.542  0.2254  0.5019  0.2533
  922MOL0     C24341   1.296   1.601   8.658 -0.0457 -0.1570 -0.0848
  922MOL0     C24342   1.333   1.501   8.743  0.0531 -0.6323 -0.1855
  922MOL0     O24343   1.410   1.537   8.854 -0.3350 -0.8036  0.8629
  922MOL0     C24344   1.474   1.431   8.923  0.3609 -1.3124  0.8118
  922MOL0     C24345   1.559   1.518   9.018  0.6893  0.1608 -0.0227
  922MOL0     C24346   1.668   1.425   9.087 -0.0835 -0.6107 -0.6804
  922MOL0     C24347   1.696   1.493   9.225  0.2766  0.2613 -0.7649
  922MOL0     C24348   1.769   1.409   9.327 -0.1647 -0.1565 -0.1527
  922MOL0     C24349   1.822   1.485   9.450 -0.0478 -0.2365  0.7322
  922MOL0     C24350   1.843   1.378   9.559 -0.1110 -0.4281 -1.1377
  922MOL0     C24351   1.919   1.423   9.684 -0.3428  0.5963 -0.1281
  922MOL0     N24352   2.060   1.463   9.666  0.2427  1.1564 -0.1612
  922MOL0     C24353   2.109   1.573   9.594  0.4821  0.2707 -0.2461
  922MOL0     C24354   2.243   1.552   9.587 -0.1180  0.7860  1.2953
  922MOL0     C24355   2.341   1.628   9.514 -0.7369 -0.4205 -0.3964
  922MOL0     C24356   2.276   1.723   9.411  0.2254 -0.4418 -0.1729
  922MOL0     C24357   2.231   1.642   9.288 -0.2903 -0.1293 -0.0179
  922MOL0     C24358   2.157   1.734   9.183 -0.2279  0.5519  0.2644
  922MOL0     O24359   2.023   1.756   9.235 -0.5253  0.2501 -0.4649
  922MOL0     C24360   1.933   1.813   9.154 -0.1105  0.2794  0.6473
  922MOL0     C24361   1.877   1.935   9.185 -0.5607  0.3302  0.6006
  922MOL0     C24362   1.768   1.990   9.107 -0.9242  0.2669 -0.9399
  922MOL0     C24363   1.725   1.922   8.997 -0.5315  0.6334 -0.2978
  922MOL0     C24364   1.612   1.973   8.929  0.2833 -0.4548  0.1532
  922MOL0     O24365   1.568   1.910   8.810 -0.0196  0.1695  0.2569
  922MOL0     C24366   1.439   1.921   8.762 -0.2255 -0.4104 -0.6387
  922MOL0     C24367   1.422   1.952   8.628  0.7409 -0.0768 -0.3184
  922MOL0     C24368   1.292   1.976   8.580 -0.3240  0.0091  0.2724
  922MOL0     C24369   1.179   1.964   8.652 -0.7122 -0.3967 -0.1622
  922MOL0     O24370   1.065   2.001   8.599 -0.6053 -0.7143 -0.0791
  922MOL0     C24371   0.967   2.061   8.686 -0.6885 -0.2892  0.8163
  922MOL0     C24372   0.845   2.107   8.595 -0.6781  0.1079 -0.4480
  922MOL0     C24373   0.770   1.986   8.528 -0.4769  0.1276  0.2827
  922MOL0     C24374   0.639   2.033   8.464 -0.8083  0.8718 -0.1959
  922MOL0     C24375   0.587   1.920   8.380  0.2129  1.2351  0.0210
  922MOL0     C24376   0.453   1.963   8.316 -0.6246 -0.3816  0.4316
  922MOL0     C24377   0.366   1.862   8.234  0.1182  0.1519  0.0721
  922MOL0     C24378   0.275   1.947   8.137 -0.4388 -0.9841  0.4557
  922MOL0    Cl24379   0.143   1.839   8.075 -0.0573  0.0373 -0.2139
  922MOL0     C24380   1.195   1.932   8.791  0.2987 -0.1780  0.1247
  922MOL0     C24381   1.326   1.907   8.841  0.0576 -0.3385 -0.4520
  922MOL0     O24382   1.553   2.064   8.985  0.0365  0.2635  0.2331
  922MOL0     C24383   1.775   1.798   8.967 -1.0265 -0.5126  0.4142
  922MOL0     C24384   1.879   1.743   9.046  0.6612 -1.2128 -0.3695
  922MOL0     N24385   2.283   1.448   9.668  0.5730  0.9537  0.0530
  922MOL0     N24386   2.167   1.390   9.701  0.2206  0.7550  0.0193
  922MOL0     C24387   1.279   1.376   8.717  0.3494 -0.1527 -0.3867
  922MOL0     C24388   1.200   1.353   8.596 -0.5676 -0.4660  0.3626
  922MOL0     C24389   0.907   1.454   8.235 -0.7437  0.8934  0.4315
  922MOL0     C24390   0.928   1.320   8.198  0.0079 -0.1194  0.4581
  922MOL0     C24391   0.854   1.259   8.100 -0.2892  0.3176 -0.0041
  922MOL0     C24392   0.748   1.332   8.044  1.0123  0.4182 -1.0915
  922MOL0     O24393   0.672   1.263   7.953 -0.8660  0.1833  0.0726
  922MOL0     C24394   0.558   1.181   7.994  0.7923 -0.7520  0.6442
  922MOL0     C24395   0.590   1.038   8.015  0.4561 -0.2090 -0.6291
  922MOL0     C24396   0.655   0.980   7.883  0.4910  0.8895 -0.7013
  922MOL0     C24397   0.703   0.836   7.907  0.0682  0.1099  0.0726
  922MOL0     C24398   0.796   0.803   7.798  0.6423  0.5830 -0.1213
  922MOL0     C24399   0.870   0.773   7.710 -0.0538 -0.9454 -0.3682
  922MOL0     C24400   0.722   1.459   8.076  0.2017 -0.2602 -0.1392
  922MOL0     C24401   0.805   1.522   8.168 -0.4941  0.3057 -0.6985
  922MOL0     C24402   0.763   1.666   8.193  0.2827 -0.1894  0.4589
  922MOL0     H24403   1.201   1.668   8.481  3.1101  0.6676 -0.1209
  922MOL0     H24404   1.345   1.697   8.672 -1.4994  0.4778  0.9556
  922MOL0     H24405   1.404   1.359   8.968  0.4305 -1.4037  0.7759
  922MOL0     H24406   1.541   1.378   8.854  1.0239  2.4467 -1.7238
  922MOL0     H24407   1.491   1.565   9.089  1.0491  0.8796 -0.1453
  922MOL0     H24408   1.616   1.582   8.950  0.3588 -0.8017 -1.2555
  922MOL0     H24409   1.755   1.412   9.023 -0.6923 -2.5122 -1.1850
  922MOL0     H24410   1.624   1.329   9.112  0.9158 -1.4943 -2.1949
  922MOL0     H24411   1.744   1.587   9.197 -0.8874  0.9286 -0.5755
  922MOL0     H24412   1.600   1.519   9.271 -0.3737 -0.6630 -1.5458
  922MOL0     H24413   1.703   1.332   9.367  0.9372 -1.4630 -0.7455
  922MOL0     H24414   1.851   1.354   9.280 -0.3666  1.7847 -3.0766
  922MOL0     H24415   1.914   1.531   9.413 -2.3352  0.2298 -5.6897
  922MOL0     H24416   1.754   1.563   9.485 -0.6503 -0.4870  0.1330
  922MOL0     H24417   1.896   1.292   9.518  1.8985  0.6640 -0.9455
  922MOL0     H24418   1.742   1.354   9.594  0.4760  0.1855  1.1277
  922MOL0     H24419   1.864   1.497   9.742  1.3254  0.7772  1.3021
  922MOL0     H24420   1.930   1.343   9.758 -0.8889  1.6512  1.1376
  922MOL0     H24421   2.064   1.663   9.552 -1.0552  0.5792  1.9116
  922MOL0     H24422   2.395   1.688   9.588 -1.9908  2.8380 -1.9331
  922MOL0     H24423   2.410   1.559   9.464 -0.0278  1.8860 -2.8504
  922MOL0     H24424   2.188   1.778   9.446 -0.9550 -2.1364 -0.3571
  922MOL0     H24425   2.347   1.800   9.379  2.3675 -1.1611  2.5195
  922MOL0     H24426   2.167   1.556   9.310 -1.0794 -0.0059 -1.6500
  922MOL0     H24427   2.330   1.619   9.247 -0.4314  0.1122 -0.5010
  922MOL0     H24428   2.157   1.674   9.091  1.6734  1.8580 -0.6625
  922MOL0     H24429   2.211   1.827   9.167 -0.5946  0.5570 -1.1168
  922MOL0     H24430   1.909   1.988   9.274 -1.3888 -0.3654  1.3387
  922MOL0     H24431   1.723   2.080   9.148 -1.0759  0.0147 -0.5477
  922MOL0     H24432   1.512   1.947   8.567  0.7573  1.5344 -0.4755
  922MOL0     H24433   1.274   2.006   8.477 -0.0217 -0.7764 -0.0224
  922MOL0     H24434   0.923   1.991   8.758 -1.7917 -0.9849 -0.4804
  922MOL0     H24435   1.014   2.150   8.731  0.1949  0.5587 -1.6359
  922MOL0     H24436   0.763   2.157   8.648 -2.3266 -2.3807 -0.4754
  922MOL0     H24437   0.891   2.170   8.519  4.7588  0.2026  2.4084
  922MOL0     H24438   0.838   1.948   8.451 -1.2070 -0.8307  0.1023
  922MOL0     H24439   0.756   1.904   8.599  1.8705 -1.0420 -0.4937
  922MOL0     H24440   0.649   2.123   8.402  0.5687  1.0789  0.2821
  922MOL0     H24441   0.570   2.072   8.539 -2.8198 -0.4460 -1.2542
  922MOL0     H24442   0.573   1.827   8.436 -1.4674  0.5870 -1.3752
  922MOL0     H24443   0.654   1.896   8.297  0.7662  1.7032  0.3297
  922MOL0     H24444   0.384   2.000   8.393 -4.4118 -0.3858 -2.6164
  922MOL0     H24445   0.484   2.043   8.249  0.6916 -1.4260 -0.2512
  922MOL0     H24446   0.304   1.802   8.302  1.1659  1.2327  2.0867
  922MOL0     H24447   0.426   1.789   8.179  0.9233  0.0232  1.0828
  922MOL0     H24448   0.240   2.040   8.182 -0.1204 -1.7778  2.4230
  922MOL0     H24449   0.349   1.963   8.058  0.0104 -2.0478  0.6424
  922MOL0     H24450   1.114   1.919   8.861  0.0608 -1.7744 -0.4122
  922MOL0     H24451   1.337   1.876   8.945  2.6114 -0.5144 -0.7196
  922MOL0     H24452   1.735   1.739   8.885  0.6366 -1.6159  0.3574
  922MOL0     H24453   1.939   1.659   9.011  1.5166 -0.8665  0.2198
  922MOL0     H24454   1.318   1.294   8.776  1.2015 -0.4294 -1.3065
  922MOL0     H24455   1.161   1.256   8.565 -1.6095  0.0485  0.0272
  922MOL0     H24456   1.000   1.258   8.252 -0.9919 -1.1788  0.6052
  922MOL0     H24457   0.861   1.156   8.068 -2.6585 -0.2583  1.1409
  922MOL0     H24458   0.480   1.184   7.917  0.1783 -1.0311  1.2434
  922MOL0     H24459   0.520   1.232   8.083  1.8106  1.3429 -0.0691
  922MOL0     H24460   0.506   0.974   8.046 -0.8703  0.8178 -1.9923
  922MOL0     H24461   0.650   1.038   8.106  0.3987  0.0800 -0.5888
  922MOL0     H24462   0.737   1.045   7.851  1.9955 -0.5265  0.1181
  922MOL0     H24463   0.580   0.977   7.803 -1.9801 -4.0448  1.3559
  922MOL0     H24464   0.762   0.829   7.999  1.3605 -2.3477 -0.8637
  922MOL0     H24465   0.617   0.769   7.908 -1.1402  1.6176  0.9409
  922MOL0     H24466   0.922   0.748   7.620  0.1826  0.1822 -0.5527
  922MOL0     H24467   0.638   1.515   8.034  0.9671  1.0415  0.0007
  922MOL0     H24468   0.852   1.726   8.211 -0.3173  3.3169 -5.4392
  922MOL0     H24469   0.721   1.712   8.102  1.0869 -0.6312 -0.1499
  922MOL0     H24470   0.693   1.657   8.276 -0.3260  3.7822  0.5936
  923MOL0     O24471   7.359   2.049   7.824  1.0640 -0.0200 -0.1653
  923MOL0     C24472   7.268   1.995   7.894  0.3988 -0.7501  0.3858
  923MOL0     O24473   7.295   1.930   8.006  0.0659  0.7387 -0.8588
  923MOL0     C24474   7.421   1.918   8.045  0.0558  0.8709  0.2646
  923MOL0     C24475   7.467   1.959   8.165 -0.2935 -0.5858  0.1966
  923MOL0     C24476   7.597   1.943   8.195  0.0365 -0.9452  0.5988
  923MOL0     C24477   7.684   1.876   8.101  0.2590 -0.9150 -0.3296
  923MOL0     O24478   7.820   1.858   8.124 -0.3469 -0.8699  0.2437
  923MOL0     C24479   7.873   1.842   8.261  0.4476 -0.3823 -0.8421
  923MOL0     C24480   8.025   1.792   8.255 -0.8286  0.2243 -0.5267
  923MOL0     C24481   8.070   1.776   8.396 -0.7689  0.4231 -0.4486
  923MOL0     C24482   8.222   1.749   8.401 -0.5384 -0.1996 -0.5063
  923MOL0     C24483   8.281   1.757   8.547 -0.0725 -0.0274  0.5201
  923MOL0     C24484   8.431   1.723   8.563 -0.7221 -0.8391  0.5416
  923MOL0     C24485   8.492   1.758   8.696  1.5302 -0.7923 -0.4300
  923MOL0     C24486   8.638   1.715   8.703  0.7482 -1.2724 -0.6725
  923MOL0     N24487   8.704   1.763   8.826 -0.3659 -1.2329 -0.1559
  923MOL0     C24488   8.764   1.887   8.860  0.3699 -0.0879  0.1339
  923MOL0     C24489   8.795   1.872   8.991 -0.9002  0.7121  0.0065
  923MOL0     C24490   8.873   1.958   9.082  0.0132 -0.2863 -0.5381
  923MOL0     C24491   8.981   1.878   9.158  0.8308  0.0931  0.1952
  923MOL0     C24492   9.062   1.961   9.260 -0.9701 -0.7297 -0.3439
  923MOL0     C24493   9.189   1.889   9.312  0.1581  0.4422 -0.2581
  923MOL0     O24494   9.242   1.961   9.425  0.1784  0.3635 -0.2036
  923MOL0     C24495   9.372   1.943   9.462  0.4633  0.0530  0.4710
  923MOL0     C24496   9.461   1.842   9.414  0.5369  0.7425  0.8261
  923MOL0     C24497   9.582   1.817   9.470 -0.1190  0.4666 -0.4353
  923MOL0     C24498   9.646   1.912   9.547  0.2747  0.2883  0.1612
  923MOL0     C24499   9.790   1.891   9.576 -0.9211  0.2731  0.4968
  923MOL0     O24500   9.853   1.768   9.547  0.3738 -0.1387 -0.5585
  923MOL0     C24501   9.985   1.771   9.557 -0.9130  0.5399 -0.4929
  923MOL0     C24502  10.069   1.763   9.441  0.2562 -0.3900  0.3050
  923MOL0     C24503  10.208   1.757   9.454 -0.3556  0.1036  0.0007
  923MOL0     C24504  10.271   1.756   9.580 -1.3466  0.0913  0.2564
  923MOL0     O24505  10.406   1.772   9.598 -0.3522 -0.3172 -0.1035
  923MOL0     C24506  10.494   1.707   9.501 -0.2476  0.7049  0.2677
  923MOL0     C24507  10.513   1.556   9.542  0.7285 -0.7696 -0.5242
  923MOL0     C24508  10.587   1.479   9.433 -0.8377  0.8215 -0.5653
  923MOL0     C24509  10.693   1.387   9.491 -0.1724 -0.9611 -0.3037
  923MOL0     C24510  10.817   1.473   9.517 -0.4297 -0.3589  0.8483
  923MOL0     C24511  10.936   1.379   9.549 -0.9115  0.4170  0.0545
  923MOL0     C24512  11.059   1.470   9.583  0.0808 -0.0874 -0.1374
  923MOL0     C24513  11.171   1.395   9.662  0.2248  0.0181 -0.2086
  923MOL0    Cl24514  11.258   1.291   9.550  0.0103  0.3667  0.1654
  923MOL0     C24515  10.189   1.766   9.694  0.0244  0.4292  0.1067
  923MOL0     C24516  10.050   1.780   9.681 -0.2274  0.1529  0.3133
  923MOL0     O24517   9.851   1.995   9.610  1.0894  0.1736  0.6400
  923MOL0     C24518   9.572   2.024   9.578 -0.2800 -0.1016 -0.1215
  923MOL0     C24519   9.432   2.037   9.545  0.2969 -0.2604 -0.8538
  923MOL0     N24520   8.757   1.741   9.035  0.6477 -0.9170 -0.6016
  923MOL0     N24521   8.713   1.684   8.935 -0.2780  0.7344 -0.0998
  923MOL0     C24522   7.636   1.824   7.982 -0.1445  0.2492 -0.3597
  923MOL0     C24523   7.510   1.858   7.951  0.4466 -0.1098  0.3276
  923MOL0     C24524   7.122   2.017   7.854  0.1516  0.4604  0.4568
  923MOL0     C24525   7.028   2.007   7.957  0.1928 -0.7556 -0.2618
  923MOL0     C24526   6.891   2.024   7.933  0.0418 -0.6189  0.9327
  923MOL0     C24527   6.846   2.017   7.796  0.1889  0.2203  0.2470
  923MOL0     O24528   6.722   2.026   7.738 -0.1167 -0.0705  0.0478
  923MOL0     C24529   6.605   2.068   7.818 -0.3902 -0.0352 -0.2924
  923MOL0     C24530   6.474   2.028   7.746 -0.2292  0.0913  0.0921
  923MOL0     C24531   6.466   2.102   7.605  0.5998 -0.1950 -0.0335
  923MOL0     C24532   6.370   2.012   7.531 -0.3926  0.3664  0.0351
  923MOL0     C24533   6.320   2.081   7.420  0.4561 -0.0972  0.1758
  923MOL0     C24534   6.259   2.147   7.335  0.2850 -0.2792 -0.3877
  923MOL0     C24535   6.950   2.009   7.697  0.2030 -0.0041  0.5782
  923MOL0     C24536   7.083   2.015   7.719 -0.2570 -0.4294 -0.1790
  923MOL0     C24537   7.177   2.014   7.602  0.1995 -0.6038 -0.4107
  923MOL0     H24538   7.403   2.019   8.228  2.0820  1.7613  0.5667
  923MOL0     H24539   7.636   1.989   8.285  0.0760  0.1012  0.0621
  923MOL0     H24540   7.879   1.940   8.311 -1.4313 -0.9875  0.6929
  923MOL0     H24541   7.816   1.772   8.322  2.0998 -1.0473  0.0039
  923MOL0     H24542   8.073   1.875   8.204 -1.5818  0.8101 -0.2917
  923MOL0     H24543   8.049   1.704   8.195  2.5031  0.5185  0.1668
  923MOL0     H24544   8.022   1.693   8.448 -0.2085  2.2480  3.3649
  923MOL0     H24545   8.060   1.870   8.451  1.8036  1.3776 -1.4778
  923MOL0     H24546   8.241   1.645   8.372  0.1078 -0.9198  2.1800
  923MOL0     H24547   8.279   1.815   8.335  2.1142 -2.8834 -1.1474
  923MOL0     H24548   8.270   1.857   8.588  0.9545  0.0759  0.5894
  923MOL0     H24549   8.221   1.692   8.611  1.2573 -1.5157  0.3331
  923MOL0     H24550   8.449   1.615   8.551 -0.0385 -0.4677 -2.6712
  923MOL0     H24551   8.488   1.771   8.482  0.6431 -2.2261  0.6234
  923MOL0     H24552   8.424   1.707   8.766  1.5625 -1.0606 -0.5906
  923MOL0     H24553   8.489   1.866   8.711  3.0765 -0.9963  1.9262
  923MOL0     H24554   8.638   1.606   8.706  1.2031 -1.2727 -0.5838
  923MOL0     H24555   8.696   1.746   8.615  1.8577 -0.4461  0.3134
  923MOL0     H24556   8.787   1.968   8.791  0.3871 -0.9632 -0.9143
  923MOL0     H24557   8.923   2.033   9.020  0.6165 -0.9986 -0.9253
  923MOL0     H24558   8.803   2.011   9.147  1.1070  0.3539  0.1530
  923MOL0     H24559   8.936   1.800   9.220  0.5059  0.9488  1.0791
  923MOL0     H24560   9.043   1.831   9.081  0.5770  0.1935 -0.0728
  923MOL0     H24561   8.983   1.988   9.332 -2.1244  1.0133 -2.1452
  923MOL0     H24562   9.104   2.048   9.209 -1.1556 -0.8141 -0.6399
  923MOL0     H24563   9.262   1.864   9.235  0.4630 -0.9379  0.4549
  923MOL0     H24564   9.164   1.785   9.334 -1.3614  0.2213 -2.6076
  923MOL0     H24565   9.412   1.770   9.350  1.9590  2.0914 -1.9220
  923MOL0     H24566   9.627   1.721   9.446 -0.9145  0.6947 -3.2067
  923MOL0     H24567  10.016   1.759   9.347  2.2323 -0.2314 -0.8662
  923MOL0     H24568  10.261   1.757   9.359 -0.6842 -0.7375 -0.1970
  923MOL0     H24569  10.470   1.711   9.394  0.0438  2.6587  0.2280
  923MOL0     H24570  10.594   1.751   9.504 -0.4081  1.3968 -2.1143
  923MOL0     H24571  10.566   1.548   9.637 -0.8779 -0.3596  0.4550
  923MOL0     H24572  10.409   1.525   9.553  0.6497 -0.1140  0.8023
  923MOL0     H24573  10.516   1.415   9.379  0.4554 -1.8322  0.7077
  923MOL0     H24574  10.632   1.538   9.353 -1.5207 -0.5602 -2.0363
  923MOL0     H24575  10.712   1.305   9.421 -0.2857 -1.5357  0.3264
  923MOL0     H24576  10.668   1.341   9.587  0.5261  0.6145  0.6725
  923MOL0     H24577  10.804   1.537   9.604 -0.4708 -1.0990  1.3996
  923MOL0     H24578  10.834   1.536   9.429 -2.9376 -0.9721 -0.1964
  923MOL0     H24579  10.912   1.313   9.633  1.8816 -0.3912  0.2953
  923MOL0     H24580  10.947   1.302   9.473 -1.7340  0.1298  0.2099
  923MOL0     H24581  11.028   1.562   9.633 -1.4074  0.1492 -1.3911
  923MOL0     H24582  11.096   1.515   9.491 -0.1430  6.0645  2.3568
  923MOL0     H24583  11.237   1.466   9.714  0.1572 -0.6478  0.8234
  923MOL0     H24584  11.120   1.326   9.730 -3.7210  2.6856 -0.1729
  923MOL0     H24585  10.228   1.777   9.795  0.2829 -1.2107  0.2230
  923MOL0     H24586   9.987   1.775   9.769 -0.8188  0.5622 -0.0780
  923MOL0     H24587   9.626   2.086   9.649 -1.3952 -1.1262  1.7004
  923MOL0     H24588   9.376   2.122   9.582  1.5314 -0.0773  0.7006
  923MOL0     H24589   7.689   1.776   7.901 -0.9015  0.4405 -0.9844
  923MOL0     H24590   7.481   1.825   7.852 -2.3566  0.0750  1.0189
  923MOL0     H24591   7.064   2.019   8.059  3.5936  0.8802 -1.4893
  923MOL0     H24592   6.816   2.033   8.012 -2.3824  1.5433 -1.4117
  923MOL0     H24593   6.614   2.177   7.818 -0.1820 -0.0497 -0.7540
  923MOL0     H24594   6.601   2.030   7.921 -0.1782 -0.4439 -0.4329
  923MOL0     H24595   6.393   2.051   7.815  1.5454  2.9278  1.4149
  923MOL0     H24596   6.482   1.920   7.733  2.0881  0.2570 -0.3202
  923MOL0     H24597   6.562   2.108   7.553 -0.6208  0.7628 -2.3211
  923MOL0     H24598   6.431   2.205   7.617  3.9599  1.0083  0.3383
  923MOL0     H24599   6.424   1.922   7.500 -0.6219  0.9169 -2.1143
  923MOL0     H24600   6.278   1.984   7.583  0.0059  0.4222  0.7821
  923MOL0     H24601   6.195   2.209   7.275  0.6761  1.4940  0.9751
  923MOL0     H24602   6.919   2.014   7.593  4.0890  2.1598 -0.6891
  923MOL0     H24603   7.236   2.105   7.612  0.6120 -1.0416  1.6285
  923MOL0     H24604   7.243   1.927   7.597  2.5050  1.1325 -3.4516
  923MOL0     H24605   7.115   2.013   7.512  1.3123  0.6451 -1.2196
  924MOL0     O24606   2.007   8.760   0.213 -0.1856 -0.1117 -0.4489
  924MOL0     C24607   2.039   8.799   0.326  0.3079  0.1321  0.0168
  924MOL0     O24608   2.161   8.863   0.359  0.0354  0.0858 -0.8803
  924MOL0     C24609   2.227   8.933   0.262  0.0121  0.0196  0.7115
  924MOL0     C24610   2.159   9.031   0.179  0.3022 -0.6536  0.8166
  924MOL0     C24611   2.241   9.102   0.085 -0.5528 -0.3040  0.1035
  924MOL0     C24612   2.376   9.084   0.074 -0.0661  0.6350  0.5021
  924MOL0     O24613   2.456   9.158  -0.004 -0.0267  0.1320  0.3587
  924MOL0     C24614   2.431   9.298  -0.032 -0.2262  0.9063  0.4863
  924MOL0     C24615   2.523   9.367  -0.129  0.4682  0.1380  0.2082
  924MOL0     C24616   2.669   9.369  -0.089 -0.0223 -0.0065  0.1047
  924MOL0     C24617   2.757   9.443  -0.188 -0.4655 -0.1346 -0.5103
  924MOL0     C24618   2.912   9.439  -0.151  0.1065  0.5101 -0.5238
  924MOL0     C24619   3.000   9.450  -0.265  0.5333 -0.3852 -0.2383
  924MOL0     C24620   3.154   9.461  -0.232  0.6814 -0.4451  1.0223
  924MOL0     C24621   3.240   9.343  -0.189  0.5962 -0.3463  0.7353
  924MOL0     N24622   3.371   9.385  -0.159 -0.2616 -0.1002 -0.1543
  924MOL0     C24623   3.410   9.425  -0.035 -0.1728  0.2292 -0.2499
  924MOL0     C24624   3.538   9.450  -0.049 -0.0913  0.7263  0.1897
  924MOL0     C24625   3.602   9.532   0.060  0.2795  0.1803  0.2189
  924MOL0     C24626   3.754   9.499   0.063  0.5125 -0.2506  0.1732
  924MOL0     C24627   3.836   9.550  -0.048  0.6377 -0.8934  0.7046
  924MOL0     C24628   3.987   9.559  -0.010  0.0834 -1.3069  0.0088
  924MOL0     O24629   4.044   9.450   0.058  0.2272 -0.2696 -0.5127
  924MOL0     C24630   4.182   9.452   0.088 -0.5370  0.0459 -0.1908
  924MOL0     C24631   4.276   9.544   0.036  0.0043 -0.9491  0.5545
  924MOL0     C24632   4.407   9.525   0.077 -0.5959 -0.5724  0.1085
  924MOL0     C24633   4.444   9.414   0.161  0.6387 -0.3556  0.2918
  924MOL0     C24634   4.585   9.373   0.184  0.1762 -2.0055 -0.2169
  924MOL0     O24635   4.673   9.475   0.195  0.5541 -0.5250  0.4654
  924MOL0     C24636   4.807   9.457   0.187 -0.0885 -0.3035 -0.8579
  924MOL0     C24637   4.871   9.378   0.099 -0.0230  0.1452  0.2644
  924MOL0     C24638   5.010   9.364   0.104  0.0137 -0.2063  0.1652
  924MOL0     C24639   5.087   9.425   0.202 -0.0838  0.2151  0.3726
  924MOL0     O24640   5.228   9.419   0.215 -0.1484 -0.3917 -0.2387
  924MOL0     C24641   5.307   9.339   0.134  0.1019 -0.1386 -0.4378
  924MOL0     C24642   5.332   9.416   0.005  0.1571  0.1009 -0.5870
  924MOL0     C24643   5.456   9.343  -0.056  0.3545 -0.2596  0.2439
  924MOL0     C24644   5.588   9.375   0.003 -0.8492 -0.8463 -0.7384
  924MOL0     C24645   5.697   9.301  -0.073 -0.3963 -0.0902  0.8075
  924MOL0     C24646   5.837   9.332  -0.022 -0.3717 -0.0435 -0.1586
  924MOL0     C24647   5.956   9.290  -0.106 -0.3957  0.3193  0.2073
  924MOL0     C24648   6.091   9.342  -0.067  0.3587 -0.1924 -0.0709
  924MOL0    Cl24649   6.220   9.265  -0.152 -0.1749 -0.3653 -0.5553
  924MOL0     C24650   5.025   9.519   0.282  0.3949 -0.1157 -0.2862
  924MOL0     C24651   4.885   9.531   0.279  0.8478  0.3274 -0.3915
  924MOL0     O24652   4.609   9.253   0.196 -0.1443 -0.2078  0.6374
  924MOL0     C24653   4.340   9.335   0.217 -0.1500 -0.3465  0.1971
  924MOL0     C24654   4.215   9.354   0.175  0.1756  0.2277 -0.2553
  924MOL0     N24655   3.578   9.411  -0.178  0.1644 -0.1590  0.9703
  924MOL0     N24656   3.476   9.371  -0.248  0.6363  0.2070  0.2602
  924MOL0     C24657   2.439   8.983   0.149 -0.2262 -0.6446  0.4918
  924MOL0     C24658   2.363   8.906   0.234 -0.3351  0.0573 -0.1211
  924MOL0     C24659   1.934   8.784   0.430 -0.2034 -0.4326  0.3488
  924MOL0     C24660   1.931   8.883   0.523 -0.2669 -0.7445 -0.6752
  924MOL0     C24661   1.832   8.883   0.622 -0.2193  0.6253 -0.1800
  924MOL0     C24662   1.734   8.784   0.632  0.3526  0.0053  0.7140
  924MOL0     O24663   1.628   8.781   0.718 -0.0631 -0.2770 -0.3823
  924MOL0     C24664   1.644   8.853   0.846 -0.1626  1.0224  0.6497
  924MOL0     C24665   1.713   8.763   0.951 -0.0198  0.4331 -0.1819
  924MOL0     C24666   1.736   8.826   1.094  0.1316 -0.2854  0.8571
  924MOL0     C24667   1.808   8.745   1.189  0.1576  0.0497 -0.4849
  924MOL0     C24668   1.952   8.754   1.182 -0.2700  0.3493 -0.2005
  924MOL0     C24669   2.071   8.773   1.163 -0.3285 -0.6838 -0.8166
  924MOL0     C24670   1.735   8.679   0.532  0.4338 -0.0736 -0.3140
  924MOL0     C24671   1.834   8.678   0.430  0.0785  0.7096  0.3177
  924MOL0     C24672   1.838   8.555   0.341  0.6896 -0.3737  0.6681
  924MOL0     H24673   2.054   9.036   0.206 -0.2515 -2.4260 -0.7608
  924MOL0     H24674   2.204   9.179   0.018 -0.0400 -1.5538 -1.7114
  924MOL0     H24675   2.328   9.295  -0.068  0.0337 -2.4216 -0.2428
  924MOL0     H24676   2.423   9.348   0.065 -1.7010 -0.3922  1.0855
  924MOL0     H24677   2.493   9.472  -0.136  2.0768  0.5807 -0.6644
  924MOL0     H24678   2.506   9.319  -0.226 -3.2302  0.0323  0.7747
  924MOL0     H24679   2.697   9.264  -0.094 -0.6904 -0.3524  2.3272
  924MOL0     H24680   2.676   9.402   0.016  0.7081 -1.5211  0.5700
  924MOL0     H24681   2.742   9.414  -0.292  0.9275 -0.7582 -0.5570
  924MOL0     H24682   2.740   9.551  -0.181  1.6779  0.1679  3.8512
  924MOL0     H24683   2.936   9.516  -0.077  3.4642  0.3567 -1.2965
  924MOL0     H24684   2.921   9.334  -0.124  0.7090  0.6068 -0.3242
  924MOL0     H24685   2.987   9.363  -0.329 -2.9614 -1.1552  1.2720
  924MOL0     H24686   2.981   9.543  -0.321 -1.3535 -0.1996  0.6382
  924MOL0     H24687   3.157   9.544  -0.161 -1.1194 -0.4425  1.1388
  924MOL0     H24688   3.202   9.502  -0.322  3.2919 -1.9711  1.6226
  924MOL0     H24689   3.195   9.278  -0.112 -1.2299 -1.5016 -1.2012
  924MOL0     H24690   3.246   9.269  -0.269 -0.0030  0.7429 -0.3497
  924MOL0     H24691   3.339   9.430   0.047 -0.5314  0.3442 -0.5669
  924MOL0     H24692   3.587   9.639   0.045 -0.1301  0.2632  1.1771
  924MOL0     H24693   3.548   9.507   0.152 -1.1836 -0.8140 -0.8540
  924MOL0     H24694   3.793   9.532   0.160 -0.5931 -2.0437  1.2801
  924MOL0     H24695   3.761   9.390   0.057 -1.7545 -0.3654 -2.4581
  924MOL0     H24696   3.807   9.654  -0.067  0.6454 -0.7910  1.2335
  924MOL0     H24697   3.809   9.498  -0.140  1.6480 -0.7467  0.3120
  924MOL0     H24698   4.004   9.642   0.059  0.7655 -1.3977 -0.0431
  924MOL0     H24699   4.043   9.576  -0.102 -0.6642  1.9748  0.0429
  924MOL0     H24700   4.247   9.621  -0.036 -0.0999 -0.1536  1.4323
  924MOL0     H24701   4.484   9.593   0.043 -2.8086  1.6609 -0.7644
  924MOL0     H24702   4.817   9.325   0.021  2.7325 -0.4890 -1.3793
  924MOL0     H24703   5.073   9.299   0.045  1.6281  0.0436  1.5221
  924MOL0     H24704   5.401   9.316   0.186  2.8115  0.0817 -4.7829
  924MOL0     H24705   5.258   9.242   0.123  0.7140 -0.7188  1.4318
  924MOL0     H24706   5.249   9.403  -0.064 -1.6917 -2.2694  1.8657
  924MOL0     H24707   5.346   9.523   0.023 -2.3798  0.1884  1.4578
  924MOL0     H24708   5.448   9.234  -0.057  2.2961 -0.4290  0.3422
  924MOL0     H24709   5.454   9.372  -0.162 -2.5012  1.5256  0.6682
  924MOL0     H24710   5.601   9.351   0.109 -0.3841 -0.2214 -0.6512
  924MOL0     H24711   5.598   9.484  -0.005 -1.9238 -0.8816 -4.8178
  924MOL0     H24712   5.694   9.319  -0.180 -1.0990 -2.9904  0.2478
  924MOL0     H24713   5.681   9.192  -0.069  1.0026 -0.4229 -1.2484
  924MOL0     H24714   5.838   9.440  -0.010 -0.4306 -0.0653  0.0622
  924MOL0     H24715   5.858   9.298   0.080  0.3704  0.7976 -0.0222
  924MOL0     H24716   5.922   9.323  -0.205 -1.2901  0.0329  0.4161
  924MOL0     H24717   5.958   9.181  -0.118 -2.6633  0.0697  1.6359
  924MOL0     H24718   6.092   9.451  -0.080 -1.6959 -0.1704 -0.3251
  924MOL0     H24719   6.110   9.319   0.039 -1.9304  0.4088  0.5311
  924MOL0     H24720   5.088   9.581   0.344 -0.5684  0.0403  0.5622
  924MOL0     H24721   4.836   9.602   0.344 -1.9556 -0.9071 -0.9719
  924MOL0     H24722   4.365   9.268   0.298 -1.6342  0.1319  1.1020
  924MOL0     H24723   4.132   9.293   0.207 -0.0007  0.7438  0.2877
  924MOL0     H24724   2.545   8.974   0.126 -0.1382  2.9912 -1.2707
  924MOL0     H24725   2.416   8.834   0.296 -1.8228 -0.3909  0.6714
  924MOL0     H24726   2.010   8.956   0.538 -1.3365 -0.0613  2.2837
  924MOL0     H24727   1.820   8.972   0.683 -1.3442  0.6916 -0.4674
  924MOL0     H24728   1.546   8.873   0.890  0.7374 -0.2076  3.4476
  924MOL0     H24729   1.683   8.954   0.834 -0.1417  0.8581 -0.9158
  924MOL0     H24730   1.809   8.731   0.908 -0.9692 -2.7990 -0.1419
  924MOL0     H24731   1.645   8.680   0.970 -0.5486  0.7279 -0.7624
  924MOL0     H24732   1.636   8.841   1.136  0.7475  1.1058  1.8848
  924MOL0     H24733   1.776   8.927   1.085  1.8461 -1.0370 -0.6134
  924MOL0     H24734   1.768   8.774   1.286  3.5698 -1.9069  1.7088
  924MOL0     H24735   1.781   8.640   1.178  3.5025 -0.8449 -1.4878
  924MOL0     H24736   2.174   8.798   1.147 -0.1438 -0.5541  0.4432
  924MOL0     H24737   1.655   8.606   0.535 -1.9331  2.3656  1.2141
  924MOL0     H24738   1.791   8.579   0.245 -1.0888  0.8576  1.7965
  924MOL0     H24739   1.943   8.523   0.338  0.4417 -1.1903  0.7409
  924MOL0     H24740   1.788   8.465   0.377  0.0167 -1.0932 -1.8336
  925MOL0     O24741   1.817   9.572   5.953  0.2068  0.1079  0.2848
  925MOL0     C24742   1.762   9.611   6.058  0.1031 -0.9257 -0.7959
  925MOL0     O24743   1.631   9.626   6.076  0.7505  0.5597  0.2844
  925MOL0     C24744   1.536   9.635   5.978 -0.7430  0.0064  0.5445
  925MOL0     C24745   1.545   9.560   5.855 -0.3606 -0.4448 -0.4369
  925MOL0     C24746   1.455   9.584   5.751  0.4646 -0.1437 -0.3343
  925MOL0     C24747   1.352   9.678   5.765  0.0428 -0.3718 -0.6685
  925MOL0     O24748   1.258   9.710   5.672 -0.4889  0.7671  0.0341
  925MOL0     C24749   1.233   9.601   5.578 -0.4833 -0.9258  0.3395
  925MOL0     C24750   1.100   9.621   5.497  0.0789 -0.2327 -0.8953
  925MOL0     C24751   1.096   9.517   5.384 -0.8084 -0.9124 -0.4495
  925MOL0     C24752   1.187   9.560   5.266  0.1034  0.6255  0.0097
  925MOL0     C24753   1.166   9.455   5.140  0.0589 -0.1915  0.5351
  925MOL0     C24754   1.257   9.497   5.020  0.0834  0.2569 -0.1840
  925MOL0     C24755   1.269   9.389   4.922  0.2234  0.5007  0.6817
  925MOL0     C24756   1.338   9.426   4.796 -1.0400  0.2701  0.6158
  925MOL0     N24757   1.338   9.313   4.707 -0.7997  0.6759 -0.1461
  925MOL0     C24758   1.448   9.253   4.660 -0.1692  0.7200  0.9943
  925MOL0     C24759   1.393   9.166   4.567  0.1745 -1.1427  0.4486
  925MOL0     C24760   1.447   9.066   4.477  0.1458  0.5889 -0.1305
  925MOL0     C24761   1.410   9.101   4.333 -0.6569  0.2377  0.6396
  925MOL0     C24762   1.475   9.010   4.229 -0.8801 -0.4808 -0.8628
  925MOL0     C24763   1.616   9.056   4.202  0.3757 -0.3980  0.1529
  925MOL0     O24764   1.690   8.982   4.098  0.2645 -0.8821 -0.0257
  925MOL0     C24765   1.818   9.042   4.070 -0.0047  0.9802  0.1586
  925MOL0     C24766   1.882   9.144   4.141  0.4899 -0.0886 -0.5544
  925MOL0     C24767   2.018   9.178   4.112 -0.1666  0.3899 -0.6304
  925MOL0     C24768   2.095   9.121   4.012 -0.1058  0.0104  0.6895
  925MOL0     C24769   2.225   9.182   3.976  0.2764  0.1224  0.9067
  925MOL0     O24770   2.292   9.244   4.070 -0.9874  0.1682 -0.4277
  925MOL0     C24771   2.421   9.286   4.032 -0.5132 -0.7678  0.4736
  925MOL0     C24772   2.517   9.189   4.012 -0.4314  0.3409  0.4327
  925MOL0     C24773   2.652   9.225   3.991 -0.0468 -0.4509 -0.8565
  925MOL0     C24774   2.692   9.362   4.002  0.2914  0.3542  0.2657
  925MOL0     O24775   2.825   9.390   3.990 -0.4575 -0.0225  0.2971
  925MOL0     C24776   2.891   9.478   4.076  0.0807 -0.4492 -0.0437
  925MOL0     C24777   3.048   9.494   4.051  0.1728  0.2549  0.4840
  925MOL0     C24778   3.079   9.567   3.923  0.2898 -1.4156  0.7523
  925MOL0     C24779   3.002   9.699   3.904  0.6948  0.5492  0.1251
  925MOL0     C24780   3.072   9.804   3.816  0.0350  0.4466 -0.7819
  925MOL0     C24781   3.089   9.744   3.681  0.8847  0.8603 -0.0282
  925MOL0     C24782   3.170   9.845   3.592  0.0309 -0.3098 -0.4281
  925MOL0     C24783   3.082   9.968   3.543  0.0185 -0.2769 -0.4071
  925MOL0    Cl24784   3.182  10.103   3.461 -0.1572  0.1445  0.1405
  925MOL0     C24785   2.595   9.460   4.026 -0.1200  0.3518 -0.3406
  925MOL0     C24786   2.456   9.419   4.033 -0.3570 -0.2465  0.0257
  925MOL0     O24787   2.246   9.191   3.854  0.1990  0.4557  0.2463
  925MOL0     C24788   2.027   9.020   3.943 -0.2702 -0.6765 -0.4621
  925MOL0     C24789   1.898   8.981   3.968  0.7483 -0.7159  0.1742
  925MOL0     N24790   1.255   9.179   4.572 -0.0509  0.5434  0.6240
  925MOL0     N24791   1.225   9.270   4.655 -0.2132  0.0425  0.2264
  925MOL0     C24792   1.348   9.750   5.885 -0.2952 -0.4920  1.0168
  925MOL0     C24793   1.444   9.740   5.985 -0.6753  0.0737 -1.4565
  925MOL0     C24794   1.845   9.654   6.176  0.1563  0.6465 -0.6586
  925MOL0     C24795   1.777   9.652   6.301 -0.0259  0.1653 -0.3811
  925MOL0     C24796   1.851   9.650   6.422  0.5486 -0.1955  0.6140
  925MOL0     C24797   1.990   9.659   6.412 -0.5408  1.0672  0.1386
  925MOL0     O24798   2.076   9.647   6.523  0.1154  0.5166  0.2050
  925MOL0     C24799   2.014   9.631   6.654  0.4223 -0.0465 -0.8027
  925MOL0     C24800   2.113   9.631   6.766  0.0351  0.9862  0.3733
  925MOL0     C24801   2.191   9.499   6.746  0.1386 -0.6589 -0.1614
  925MOL0     C24802   2.236   9.440   6.880 -0.5776  0.2376  0.3540
  925MOL0     C24803   2.116   9.372   6.926 -0.2853 -0.8056  0.0952
  925MOL0     C24804   2.021   9.313   6.972 -0.5663 -0.4125 -0.4516
  925MOL0     C24805   2.055   9.669   6.287 -0.1017  0.2504 -0.0894
  925MOL0     C24806   1.985   9.681   6.168 -0.4611 -0.4534  0.2170
  925MOL0     C24807   2.059   9.708   6.037  0.5799 -0.0210  0.3117
  925MOL0     H24808   1.617   9.479   5.843 -0.1934 -0.8370  2.4285
  925MOL0     H24809   1.473   9.531   5.658 -0.0240  0.4782 -0.7886
  925MOL0     H24810   1.316   9.597   5.507  0.7882  0.9848  1.6125
  925MOL0     H24811   1.226   9.508   5.634  1.5224 -1.0665  0.4416
  925MOL0     H24812   1.098   9.721   5.454  0.7590 -0.1328 -0.7193
  925MOL0     H24813   1.017   9.604   5.566  1.8046  0.0329  1.3618
  925MOL0     H24814   0.992   9.500   5.355 -0.5335 -0.8878 -1.4754
  925MOL0     H24815   1.130   9.423   5.428 -1.1240 -0.1930  1.4373
  925MOL0     H24816   1.150   9.655   5.226 -1.1724 -0.4556 -1.5135
  925MOL0     H24817   1.290   9.565   5.303 -0.9080  4.0406  3.0043
  925MOL0     H24818   1.173   9.348   5.158 -1.1637 -0.5184 -0.7753
  925MOL0     H24819   1.066   9.473   5.100  0.2784 -0.4571 -0.1299
  925MOL0     H24820   1.201   9.581   4.977 -1.8173 -0.6166  0.4499
  925MOL0     H24821   1.354   9.529   5.057  0.0050 -1.8123  2.1088
  925MOL0     H24822   1.165   9.371   4.895  0.2493  0.5462  0.5493
  925MOL0     H24823   1.303   9.291   4.957 -1.2207 -0.9209 -1.6368
  925MOL0     H24824   1.285   9.513   4.756 -1.7330  0.6775  2.2975
  925MOL0     H24825   1.436   9.467   4.823 -0.8450  0.7720 -0.7915
  925MOL0     H24826   1.555   9.258   4.678  0.0018  0.5373  0.0513
  925MOL0     H24827   1.554   9.050   4.491 -0.0850  0.7497  2.2011
  925MOL0     H24828   1.409   8.968   4.506  1.5860 -1.2080 -3.7161
  925MOL0     H24829   1.301   9.110   4.325 -0.6584  1.1376  1.4841
  925MOL0     H24830   1.448   9.200   4.308 -0.7221  0.0002 -0.4464
  925MOL0     H24831   1.418   9.016   4.136  0.0682 -1.2724 -1.5249
  925MOL0     H24832   1.471   8.907   4.266  2.3583 -0.8979 -1.3394
  925MOL0     H24833   1.674   9.065   4.295  0.6865 -1.1123  0.0321
  925MOL0     H24834   1.608   9.158   4.162 -0.0747 -1.3686 -2.4298
  925MOL0     H24835   1.835   9.200   4.220  2.0758 -1.0631  1.1533
  925MOL0     H24836   2.069   9.252   4.173 -1.2678 -0.9816  2.1308
  925MOL0     H24837   2.500   9.082   4.003 -0.1244  0.1212  2.1139
  925MOL0     H24838   2.739   9.163   3.976  2.5041  2.6982 -0.2018
  925MOL0     H24839   2.840   9.574   4.072  0.2380 -0.3273  0.6367
  925MOL0     H24840   2.888   9.441   4.179  3.9223  4.1695  2.1235
  925MOL0     H24841   3.095   9.548   4.133  1.5234 -0.0287 -0.0827
  925MOL0     H24842   3.090   9.394   4.059 -1.1264 -0.2027  1.9602
  925MOL0     H24843   3.186   9.590   3.924  0.3829 -1.6380 -0.9013
  925MOL0     H24844   3.063   9.507   3.832 -1.9667 -0.3889  0.4041
  925MOL0     H24845   2.995   9.756   3.997 -1.4856  0.5512  0.0073
  925MOL0     H24846   2.896   9.682   3.881  0.7495  1.2526 -0.7322
  925MOL0     H24847   3.171   9.820   3.860  0.0545 -0.0240 -0.6460
  925MOL0     H24848   3.021   9.900   3.821 -0.3837  0.2991 -1.9195
  925MOL0     H24849   3.155   9.656   3.682  0.2039  0.3408  0.2622
  925MOL0     H24850   2.990   9.714   3.647  1.3330  0.4034 -0.9555
  925MOL0     H24851   3.225   9.805   3.507  2.4054  0.8917  0.4371
  925MOL0     H24852   3.245   9.879   3.664  0.6137  2.7012 -2.3138
  925MOL0     H24853   3.006   9.918   3.481  0.1921 -1.7140  0.4959
  925MOL0     H24854   3.032  10.012   3.630 -1.6302 -1.8322 -0.5059
  925MOL0     H24855   2.630   9.561   4.042  3.1203 -1.1603  4.1340
  925MOL0     H24856   2.379   9.494   4.050  0.8965  1.1122 -0.0990
  925MOL0     H24857   2.087   8.978   3.863  1.4525 -1.8047  1.3386
  925MOL0     H24858   1.862   8.901   3.904 -2.5178 -1.4968  2.7258
  925MOL0     H24859   1.261   9.813   5.897 -1.1817 -1.0109 -1.8586
  925MOL0     H24860   1.448   9.800   6.075 -0.2506 -0.8358 -0.8496
  925MOL0     H24861   1.671   9.629   6.306  0.5005 -2.1769  2.0723
  925MOL0     H24862   1.809   9.639   6.521  2.4580 -1.1907  1.3640
  925MOL0     H24863   1.949   9.544   6.656 -0.3578  0.5442  0.9513
  925MOL0     H24864   1.951   9.718   6.674 -2.7542 -2.3913  0.1228
  925MOL0     H24865   2.071   9.637   6.866  1.3268 -0.1251  1.0190
  925MOL0     H24866   2.185   9.714   6.759  2.4402 -1.1169 -2.2799
  925MOL0     H24867   2.282   9.528   6.692 -1.0751  0.6323 -1.6072
  925MOL0     H24868   2.134   9.421   6.695 -2.1573  0.6088  0.3751
  925MOL0     H24869   2.307   9.359   6.862  0.9188  1.1271  1.9852
  925MOL0     H24870   2.291   9.505   6.948 -0.1820 -0.9272  1.1842
  925MOL0     H24871   1.933   9.256   6.993 -0.8249 -0.1146 -0.7342
  925MOL0     H24872   2.163   9.670   6.286 -0.0788  1.7747  0.4979
  925MOL0     H24873   1.996   9.765   5.968 -0.0581 -0.6508  0.3666
  925MOL0     H24874   2.150   9.768   6.049  0.1391  0.2839  2.5351
  925MOL0     H24875   2.091   9.617   5.985  1.6702  2.0159 -2.9282
  926MOL0     O24876   0.631   5.312   6.312  0.3587  0.0087  0.1815
  926MOL0     C24877   0.643   5.196   6.354 -0.3059 -0.3908 -0.8847
  926MOL0     O24878   0.744   5.150   6.418  0.2109 -0.5072 -0.4225
  926MOL0     C24879   0.860   5.216   6.416 -0.2363 -0.4966  0.2172
  926MOL0     C24880   0.935   5.231   6.299 -0.2239  0.4592 -0.2288
  926MOL0     C24881   1.046   5.311   6.298 -0.4147 -0.1642  0.3496
  926MOL0     C24882   1.097   5.374   6.413  0.3066  1.2309  0.0346
  926MOL0     O24883   1.204   5.455   6.403  0.3034  0.0040  0.2774
  926MOL0     C24884   1.238   5.536   6.516 -0.2321 -0.1751 -0.5024
  926MOL0     C24885   1.332   5.643   6.464 -0.0479  0.2502  0.2835
  926MOL0     C24886   1.467   5.653   6.543  1.0701 -0.6091 -0.2894
  926MOL0     C24887   1.563   5.740   6.467 -0.9779 -0.1089 -0.5609
  926MOL0     C24888   1.690   5.759   6.557  0.3209  0.9087  0.0908
  926MOL0     C24889   1.763   5.879   6.502 -0.1179 -0.0250  0.2454
  926MOL0     C24890   1.829   5.856   6.365  0.0067  0.3510  0.3658
  926MOL0     C24891   1.911   5.976   6.323  0.1050 -0.4391  0.0894
  926MOL0     N24892   2.023   6.014   6.404 -0.9398  0.1145  0.4062
  926MOL0     C24893   2.024   6.098   6.506  0.4386 -0.4263 -0.4161
  926MOL0     C24894   2.148   6.091   6.562  0.5864 -0.2591 -0.8986
  926MOL0     C24895   2.182   6.179   6.682 -0.0278 -0.8001 -0.3864
  926MOL0     C24896   2.256   6.108   6.797  0.1373  0.2709 -1.1880
  926MOL0     C24897   2.402   6.084   6.765 -0.6485 -0.2797  0.1230
  926MOL0     C24898   2.489   6.211   6.738  0.0324 -0.5086 -0.0827
  926MOL0     O24899   2.631   6.177   6.753  0.1567  0.0073  0.1901
  926MOL0     C24900   2.719   6.272   6.701 -0.3180  0.0410  0.7728
  926MOL0     C24901   2.689   6.384   6.621  0.0209 -0.5984  0.5046
  926MOL0     C24902   2.788   6.474   6.575 -0.5101  0.2640  0.8134
  926MOL0     C24903   2.923   6.455   6.605  0.7988  0.4781  1.0762
  926MOL0     C24904   3.015   6.561   6.556  0.3596  0.0294  0.2298
  926MOL0     O24905   2.989   6.646   6.451  0.1614 -0.0616  0.3755
  926MOL0     C24906   3.061   6.760   6.436  0.4498 -0.1602  0.9322
  926MOL0     C24907   3.094   6.834   6.547 -0.0833  0.0509 -0.4403
  926MOL0     C24908   3.169   6.949   6.534  0.0847  0.4177 -0.6295
  926MOL0     C24909   3.218   6.982   6.406  0.1176  0.6310  0.1195
  926MOL0     O24910   3.297   7.086   6.374  0.3127 -1.0348 -0.0831
  926MOL0     C24911   3.280   7.219   6.432  0.0489 -0.2687 -0.2243
  926MOL0     C24912   3.406   7.299   6.438  0.3849 -0.1053 -0.3291
  926MOL0     C24913   3.476   7.325   6.305 -0.2819  1.0909  0.5894
  926MOL0     C24914   3.614   7.378   6.339 -0.2079  0.3478  0.4177
  926MOL0     C24915   3.714   7.398   6.219  0.4405  0.7040  0.9145
  926MOL0     C24916   3.732   7.273   6.124  0.3932 -0.5984 -0.6153
  926MOL0     C24917   3.828   7.292   6.014  0.2522 -0.6543  0.4267
  926MOL0     C24918   3.970   7.289   6.061 -0.1690  0.4009 -0.6531
  926MOL0    Cl24919   4.067   7.400   5.954 -0.1362  0.3805 -0.0591
  926MOL0     C24920   3.193   6.901   6.301  0.8053  0.0761  0.7411
  926MOL0     C24921   3.118   6.794   6.319  0.4710 -0.3679 -0.3234
  926MOL0     O24922   3.126   6.555   6.610  0.8200  0.1529 -0.4090
  926MOL0     C24923   2.956   6.342   6.682 -0.9445  0.4276 -0.0083
  926MOL0     C24924   2.852   6.257   6.729  0.1819 -0.6474 -0.0385
  926MOL0     N24925   2.226   6.004   6.482  0.4270  1.4821 -0.2866
  926MOL0     N24926   2.151   5.961   6.382 -0.6259 -0.4663 -0.9406
  926MOL0     C24927   1.035   5.342   6.532  0.2657 -0.0491 -0.4521
  926MOL0     C24928   0.911   5.276   6.537 -0.0154  0.1499 -0.0206
  926MOL0     C24929   0.528   5.103   6.335 -0.4974 -0.2479 -0.1281
  926MOL0     C24930   0.524   4.991   6.406  0.2558  0.0995  0.0111
  926MOL0     C24931   0.419   4.897   6.384 -0.0447 -0.7331 -0.4328
  926MOL0     C24932   0.320   4.923   6.294 -0.4931  0.5916  0.5202
  926MOL0     O24933   0.215   4.832   6.261 -0.5968 -0.3262  0.0092
  926MOL0     C24934   0.243   4.695   6.283 -0.4509 -0.0845  0.1853
  926MOL0     C24935   0.111   4.618   6.251 -0.3087 -0.7430 -0.1393
  926MOL0     C24936   0.117   4.473   6.293 -0.6846 -0.0594 -0.3854
  926MOL0     C24937  -0.023   4.400   6.312 -0.4050  0.1606  0.2354
  926MOL0     C24938  -0.078   4.378   6.174 -0.8611  0.2540 -0.4409
  926MOL0     C24939  -0.123   4.383   6.059  0.6273 -0.5252  0.1090
  926MOL0     C24940   0.307   5.043   6.226  0.1017  0.0165  0.5261
  926MOL0     C24941   0.416   5.136   6.243 -0.8863 -0.6347 -0.1858
  926MOL0     C24942   0.400   5.260   6.165  0.1373 -0.0037  0.9740
  926MOL0     H24943   0.899   5.179   6.211 -2.0095 -1.7301  1.6802
  926MOL0     H24944   1.100   5.325   6.205  1.3023  0.7554  1.4180
  926MOL0     H24945   1.157   5.588   6.568  0.8771  0.5643  0.5516
  926MOL0     H24946   1.289   5.475   6.592  0.0261  1.4809  0.7258
  926MOL0     H24947   1.286   5.742   6.465 -1.3925 -0.3075  2.8918
  926MOL0     H24948   1.358   5.615   6.361 -1.3320 -0.3430  0.1017
  926MOL0     H24949   1.505   5.553   6.568 -0.8307 -1.0765  1.0128
  926MOL0     H24950   1.425   5.695   6.636  0.6497 -0.5601 -0.4972
  926MOL0     H24951   1.587   5.694   6.370 -0.6312 -0.7800 -0.1618
  926MOL0     H24952   1.521   5.839   6.448  1.3262  0.9520 -0.4877
  926MOL0     H24953   1.658   5.782   6.659 -1.4576 -0.5999 -0.0680
  926MOL0     H24954   1.763   5.680   6.578  0.5248  1.1885  0.4554
  926MOL0     H24955   1.699   5.967   6.513  2.2046  1.7934  0.1498
  926MOL0     H24956   1.850   5.892   6.568  0.4968 -0.0931 -0.5267
  926MOL0     H24957   1.756   5.843   6.285  1.5842 -0.4387 -1.0000
  926MOL0     H24958   1.895   5.769   6.369 -0.3141  0.1373  2.6916
  926MOL0     H24959   1.949   5.952   6.223  3.1335  0.1271  1.0050
  926MOL0     H24960   1.845   6.063   6.322  0.2155 -0.3391 -1.8042
  926MOL0     H24961   1.932   6.152   6.528 -0.5095 -2.2314  0.2713
  926MOL0     H24962   2.233   6.272   6.655 -1.8857  0.5058  0.3966
  926MOL0     H24963   2.087   6.221   6.716 -0.7547 -1.3627 -1.6413
  926MOL0     H24964   2.256   6.172   6.885  2.9667  0.6878 -1.4060
  926MOL0     H24965   2.209   6.013   6.825  2.4782 -0.8721 -0.9442
  926MOL0     H24966   2.408   6.009   6.686  0.7626 -1.3057  1.1570
  926MOL0     H24967   2.454   6.024   6.840  5.0305  1.6855 -1.6499
  926MOL0     H24968   2.458   6.289   6.808 -1.8032 -1.6118  0.4094
  926MOL0     H24969   2.464   6.254   6.641 -3.4325  4.0356  2.4081
  926MOL0     H24970   2.591   6.411   6.584  1.1967  1.6453 -1.3055
  926MOL0     H24971   2.766   6.563   6.517  0.7781 -0.9804 -1.7663
  926MOL0     H24972   3.051   6.818   6.645  0.4040 -2.8811 -0.6255
  926MOL0     H24973   3.188   7.012   6.620 -1.8017  1.3343 -0.8385
  926MOL0     H24974   3.205   7.278   6.379 -0.6299 -0.1745  0.8184
  926MOL0     H24975   3.243   7.213   6.535 -1.9719 -0.8016 -0.9446
  926MOL0     H24976   3.388   7.391   6.494  2.6795 -0.8600  1.8209
  926MOL0     H24977   3.471   7.244   6.506 -0.4614  0.6993  1.1945
  926MOL0     H24978   3.480   7.232   6.246  1.1501  1.4490  0.0881
  926MOL0     H24979   3.434   7.401   6.238  2.9474  2.3204 -0.2158
  926MOL0     H24980   3.665   7.303   6.401 -0.8545  1.4461  2.3321
  926MOL0     H24981   3.608   7.478   6.381  0.4815 -0.4234  2.5124
  926MOL0     H24982   3.807   7.418   6.275 -0.3484  1.2546  2.0828
  926MOL0     H24983   3.684   7.489   6.166 -2.2990 -1.0612 -0.7799
  926MOL0     H24984   3.761   7.191   6.191 -0.5352 -0.1234  0.4044
  926MOL0     H24985   3.631   7.253   6.087  0.3364  0.0325 -0.8008
  926MOL0     H24986   3.803   7.388   5.968  0.1602 -0.5004  0.7927
  926MOL0     H24987   3.813   7.211   5.943 -2.3241  0.9892 -1.0863
  926MOL0     H24988   3.980   7.335   6.159  0.9687  0.0099 -0.5736
  926MOL0     H24989   4.013   7.189   6.070 -0.1077  0.5584  1.1958
  926MOL0     H24990   3.225   6.931   6.202 -2.3247  2.6516  0.3562
  926MOL0     H24991   3.092   6.720   6.244 -1.7513  0.3211 -0.3096
  926MOL0     H24992   3.057   6.324   6.717 -0.8462 -0.7132 -0.8273
  926MOL0     H24993   2.878   6.176   6.795 -0.0420 -0.2707  0.5194
  926MOL0     H24994   1.075   5.370   6.629  1.5199 -0.4659 -0.8272
  926MOL0     H24995   0.863   5.253   6.632  2.3448 -1.8007  0.7949
  926MOL0     H24996   0.594   4.966   6.485 -0.5779 -0.3763  0.6058
  926MOL0     H24997   0.426   4.801   6.433  0.8025 -1.0088 -1.0714
  926MOL0     H24998   0.271   4.676   6.388  3.1513 -0.2188 -0.6646
  926MOL0     H24999   0.332   4.657   6.232  0.5553  0.0628  1.7451
  926MOL0     H25000   0.089   4.627   6.145 -1.6555  0.2681  0.1958
  926MOL0     H25001   0.030   4.666   6.308  0.1367  3.6939 -2.7645
  926MOL0     H25002   0.166   4.476   6.391 -2.5689  2.2269  0.5808
  926MOL0     H25003   0.185   4.411   6.234  1.7464 -0.4857  2.5494
  926MOL0     H25004  -0.020   4.306   6.369  1.1005  1.6020  2.6989
  926MOL0     H25005  -0.102   4.455   6.365 -2.7413 -0.4663 -2.3642
  926MOL0     H25006  -0.176   4.376   5.965  1.2552 -1.6956 -0.1788
  926MOL0     H25007   0.219   5.058   6.164 -1.6886 -2.2365  2.3507
  926MOL0     H25008   0.493   5.296   6.118 -1.8345 -2.0494 -5.5437
  926MOL0     H25009   0.336   5.242   6.078 -1.3458 -1.3179  2.2877
  926MOL0     H25010   0.347   5.336   6.224 -0.8827  0.8430 -0.9487
  927MOL0     O25011   3.100   1.079   8.083  0.3668  0.0084  0.0824
  927MOL0     C25012   2.981   1.058   8.101  0.1269 -0.1049  0.3342
  927MOL0     O25013   2.892   1.028   8.004 -0.1446 -0.8376  0.3799
  927MOL0     C25014   2.935   1.026   7.874  0.5978 -1.0406 -1.1173
  927MOL0     C25015   2.920   0.913   7.794  0.0196  0.7213  0.6540
  927MOL0     C25016   2.964   0.915   7.657 -0.4611  0.2218 -0.0181
  927MOL0     C25017   3.010   1.031   7.597 -0.2132  0.7956 -0.5338
  927MOL0     O25018   3.057   1.031   7.470 -0.5783  0.0551  0.6426
  927MOL0     C25019   3.093   0.921   7.381  0.8021  0.0334 -0.1985
  927MOL0     C25020   3.112   0.954   7.237 -0.4966  0.4474 -0.5576
  927MOL0     C25021   3.221   1.061   7.223 -0.0816 -0.3472 -0.0836
  927MOL0     C25022   3.292   1.051   7.083 -0.2057 -0.1271  0.2609
  927MOL0     C25023   3.353   1.191   7.047 -0.0896  0.5176  0.6535
  927MOL0     C25024   3.393   1.196   6.896 -0.5772  0.2250  0.5327
  927MOL0     C25025   3.466   1.324   6.861  0.5457 -0.3108  1.4173
  927MOL0     C25026   3.456   1.335   6.702 -0.4111 -0.0030  0.2185
  927MOL0     N25027   3.535   1.442   6.642  0.3068 -0.2831  0.6233
  927MOL0     C25028   3.578   1.557   6.705  0.3061  0.4943  0.4534
  927MOL0     C25029   3.680   1.601   6.631 -0.1230 -0.4322  0.1130
  927MOL0     C25030   3.753   1.726   6.673  0.8921  0.0217  0.2305
  927MOL0     C25031   3.879   1.700   6.745  0.0514 -0.1297  0.0556
  927MOL0     C25032   3.883   1.591   6.851 -0.0799  0.8268 -0.2216
  927MOL0     C25033   4.005   1.596   6.944  0.3083 -0.3565 -0.9217
  927MOL0     O25034   4.120   1.569   6.865 -0.0414 -0.1425 -0.0240
  927MOL0     C25035   4.227   1.530   6.947 -0.1243 -0.3940 -0.3535
  927MOL0     C25036   4.315   1.439   6.884  0.3566  0.0092 -0.5584
  927MOL0     C25037   4.415   1.375   6.953 -0.5413  0.9438  0.3789
  927MOL0     C25038   4.458   1.420   7.081  0.4863 -0.2171  0.4335
  927MOL0     C25039   4.582   1.378   7.153  0.1736  0.2778  0.5984
  927MOL0     O25040   4.681   1.333   7.072  0.2769 -0.4832  0.1277
  927MOL0     C25041   4.793   1.259   7.105 -0.5347 -0.5821 -0.1583
  927MOL0     C25042   4.858   1.265   7.232  0.1618 -0.3575  1.0619
  927MOL0     C25043   4.952   1.163   7.268 -0.1609  0.3005 -0.4796
  927MOL0     C25044   4.983   1.067   7.174  0.3000  0.6406  0.5414
  927MOL0     O25045   5.058   0.953   7.199  0.1602 -0.7783 -0.5478
  927MOL0     C25046   5.066   0.903   7.335 -0.0442 -0.1379  0.3072
  927MOL0     C25047   5.146   0.773   7.337 -0.2351 -0.1289  0.9446
  927MOL0     C25048   5.151   0.697   7.470  0.8636  0.1484 -1.3352
  927MOL0     C25049   5.216   0.561   7.470  0.1001  0.3869 -0.6443
  927MOL0     C25050   5.224   0.485   7.614  0.3007 -0.7865 -0.1321
  927MOL0     C25051   5.302   0.355   7.596  0.1049  0.8208  0.6965
  927MOL0     C25052   5.322   0.304   7.740  0.2733 -0.7057 -0.0874
  927MOL0     C25053   5.405   0.184   7.767 -0.3185 -0.0548  0.2408
  927MOL0    Cl25054   5.579   0.207   7.719  0.0330 -0.0401  0.1344
  927MOL0     C25055   4.921   1.065   7.045 -0.4478  0.0400  0.2970
  927MOL0     C25056   4.829   1.164   7.019 -0.5094  1.2166 -0.4002
  927MOL0     O25057   4.583   1.379   7.279  0.3644 -0.5488  0.6746
  927MOL0     C25058   4.378   1.518   7.144  0.3458  0.2144 -0.7198
  927MOL0     C25059   4.257   1.569   7.083  0.5036  0.3148  0.0532
  927MOL0     N25060   3.693   1.523   6.518  0.5276 -0.0268 -0.0115
  927MOL0     N25061   3.617   1.421   6.537 -0.1740  0.6644 -0.1117
  927MOL0     C25062   3.019   1.148   7.682  0.3615  0.5309  0.1824
  927MOL0     C25063   2.982   1.148   7.821 -0.6824  0.8614 -0.2083
  927MOL0     C25064   2.917   1.062   8.240  0.0160  0.1920  0.2017
  927MOL0     C25065   2.777   1.043   8.247  0.1941  0.8001  0.1458
  927MOL0     C25066   2.715   1.014   8.370  0.2672  0.3983  1.1287
  927MOL0     C25067   2.784   1.011   8.487  0.6391  0.3580  0.3434
  927MOL0     O25068   2.706   0.984   8.600 -0.3891  0.1400  0.4301
  927MOL0     C25069   2.772   1.018   8.727 -0.2462  0.5507  0.1482
  927MOL0     C25070   2.812   1.166   8.746  1.3692 -0.0214 -0.0822
  927MOL0     C25071   2.851   1.171   8.894  0.0415 -0.2910  0.8160
  927MOL0     C25072   2.932   1.299   8.908 -0.2330  0.3717  1.2171
  927MOL0     C25073   2.942   1.331   9.051 -0.0982 -0.0412  0.1210
  927MOL0     C25074   2.946   1.365   9.166 -0.1214 -0.2583  0.0888
  927MOL0     C25075   2.922   1.041   8.475 -0.0677  0.7299 -0.4854
  927MOL0     C25076   2.993   1.065   8.360 -0.3200 -0.2702 -0.8822
  927MOL0     C25077   3.142   1.103   8.385 -0.1079  0.0339  0.1832
  927MOL0     H25078   2.885   0.822   7.840  0.0168  0.4489  0.1202
  927MOL0     H25079   2.969   0.827   7.593 -0.9720  0.2466 -0.0955
  927MOL0     H25080   3.185   0.874   7.416  0.2945 -0.7989  0.0353
  927MOL0     H25081   3.013   0.846   7.384 -0.7502  1.6308  1.4918
  927MOL0     H25082   3.017   0.978   7.189 -0.8002 -1.6641 -1.0934
  927MOL0     H25083   3.157   0.873   7.179  1.7305  0.0221  1.5944
  927MOL0     H25084   3.292   1.050   7.305  0.2301 -0.5859 -0.3848
  927MOL0     H25085   3.169   1.157   7.229 -1.5167 -1.0227 -0.9509
  927MOL0     H25086   3.362   0.967   7.078 -0.9718 -0.7129 -3.4855
  927MOL0     H25087   3.213   1.036   7.008 -0.1332  0.7739 -0.0100
  927MOL0     H25088   3.282   1.268   7.079 -1.7004 -1.0346  0.9576
  927MOL0     H25089   3.443   1.193   7.109  0.6746  0.7854 -0.4418
  927MOL0     H25090   3.452   1.106   6.874  1.9140  1.6954  0.7712
  927MOL0     H25091   3.306   1.189   6.831  0.7444  1.7625 -1.5033
  927MOL0     H25092   3.570   1.333   6.895  0.8525  2.6176  0.0106
  927MOL0     H25093   3.411   1.408   6.903  2.4745  2.2216 -0.8008
  927MOL0     H25094   3.500   1.239   6.673  1.3249  1.1592 -1.2484
  927MOL0     H25095   3.352   1.357   6.676 -0.4720  2.1927  1.9931
  927MOL0     H25096   3.535   1.594   6.798 -0.2399 -0.0591  0.4329
  927MOL0     H25097   3.778   1.797   6.593  2.2764  1.5648  1.9633
  927MOL0     H25098   3.683   1.789   6.728  0.6237 -1.9679  2.3066
  927MOL0     H25099   3.952   1.674   6.667 -0.7969 -0.1560 -0.7397
  927MOL0     H25100   3.922   1.786   6.796  2.2765 -2.1185  1.7898
  927MOL0     H25101   3.878   1.494   6.801 -0.0827  1.0162 -0.5950
  927MOL0     H25102   3.792   1.600   6.911  0.8343  0.8675  1.2030
  927MOL0     H25103   3.990   1.527   7.028  1.4442 -0.3710 -0.7131
  927MOL0     H25104   4.007   1.695   6.991 -0.3841 -1.3430  1.3479
  927MOL0     H25105   4.285   1.410   6.784 -2.2398 -0.2461  0.2109
  927MOL0     H25106   4.470   1.294   6.904 -0.3188  1.4509 -0.2207
  927MOL0     H25107   4.816   1.330   7.308 -2.6837 -0.5942 -0.1718
  927MOL0     H25108   4.983   1.154   7.372 -1.2338  1.0466 -0.0738
  927MOL0     H25109   5.116   0.977   7.399 -2.8618 -0.1968  2.8005
  927MOL0     H25110   4.967   0.868   7.367 -0.6055 -0.8166 -2.0039
  927MOL0     H25111   5.117   0.704   7.257  2.1919 -1.3579  1.0205
  927MOL0     H25112   5.250   0.799   7.312  0.1433 -2.4897 -0.2595
  927MOL0     H25113   5.217   0.753   7.538  0.4750 -0.0019 -0.8258
  927MOL0     H25114   5.048   0.690   7.508  1.1813  0.0457 -0.4658
  927MOL0     H25115   5.317   0.564   7.427  1.2772 -0.2535  1.8665
  927MOL0     H25116   5.156   0.499   7.403  3.3193  0.1274 -3.5695
  927MOL0     H25117   5.119   0.464   7.635 -0.0446 -0.1047 -1.0569
  927MOL0     H25118   5.257   0.551   7.695  3.3823  1.0409 -2.6406
  927MOL0     H25119   5.235   0.281   7.551 -0.4959  1.1271  1.0894
  927MOL0     H25120   5.393   0.380   7.541  0.8038  2.5615  2.5262
  927MOL0     H25121   5.219   0.296   7.778  0.8188 -1.1522  1.3664
  927MOL0     H25122   5.360   0.377   7.812  0.3909 -0.7106 -0.1440
  927MOL0     H25123   5.397   0.165   7.874 -1.3839 -0.2670  0.1344
  927MOL0     H25124   5.364   0.109   7.699 -0.8457  1.4300 -1.1449
  927MOL0     H25125   4.926   0.990   6.967 -0.7022  0.4608 -0.1327
  927MOL0     H25126   4.782   1.171   6.921  0.1986  1.6526 -0.7240
  927MOL0     H25127   4.410   1.557   7.240 -0.3562 -1.6914  0.3467
  927MOL0     H25128   4.214   1.656   7.131  1.6183  1.6205 -1.2108
  927MOL0     H25129   3.050   1.239   7.633 -0.1438  0.5232 -0.1637
  927MOL0     H25130   2.983   1.234   7.888 -0.9280  1.0258 -0.4106
  927MOL0     H25131   2.720   1.046   8.155  0.8242 -1.5840 -0.3746
  927MOL0     H25132   2.608   1.001   8.377  0.4409 -2.0222  0.2449
  927MOL0     H25133   2.860   0.953   8.738 -0.9062 -0.3994 -0.1337
  927MOL0     H25134   2.699   0.989   8.803 -0.7180 -3.2283 -1.5374
  927MOL0     H25135   2.726   1.230   8.723  0.9431 -0.6347 -0.2250
  927MOL0     H25136   2.898   1.196   8.685  4.2305  0.1176  3.6693
  927MOL0     H25137   2.905   1.080   8.920  0.5938 -1.0175 -2.4487
  927MOL0     H25138   2.765   1.181   8.961  0.0362  2.4035  0.5154
  927MOL0     H25139   3.036   1.281   8.881 -0.8384  0.9202 -1.9047
  927MOL0     H25140   2.880   1.387   8.866 -0.1176  0.5667  1.4776
  927MOL0     H25141   2.952   1.416   9.261  1.4722  0.7930 -0.5440
  927MOL0     H25142   2.974   1.042   8.570 -0.3281 -0.4376 -0.3171
  927MOL0     H25143   3.186   1.049   8.469  0.8866  1.8889  0.9213
  927MOL0     H25144   3.203   1.088   8.296 -2.2514  0.7882 -1.5062
  927MOL0     H25145   3.146   1.210   8.409 -2.8789  0.8582 -2.4585
  928MOL0     O25146   9.356   1.526   1.594  0.3950  0.5451  0.3430
  928MOL0     C25147   9.379   1.404   1.608  0.0377 -0.3692  0.0929
  928MOL0     O25148   9.291   1.298   1.591  0.0950  0.1313 -0.1039
  928MOL0     C25149   9.174   1.311   1.519  0.0409  0.3885  0.5211
  928MOL0     C25150   9.083   1.213   1.546 -0.0773  0.6664 -0.1274
  928MOL0     C25151   8.950   1.217   1.498 -0.8878  0.3240  0.0293
  928MOL0     C25152   8.917   1.318   1.405 -0.4816  0.4050  0.1761
  928MOL0     O25153   8.802   1.323   1.339 -0.6793 -0.6411 -0.3166
  928MOL0     C25154   8.675   1.324   1.411  0.3800  0.1060  0.1000
  928MOL0     C25155   8.610   1.454   1.367  0.7587  0.1029  0.0503
  928MOL0     C25156   8.465   1.472   1.422  0.2713  1.3244 -0.0317
  928MOL0     C25157   8.388   1.588   1.362 -0.2828  0.4114  0.8179
  928MOL0     C25158   8.263   1.610   1.443  0.0103 -0.5297  0.7240
  928MOL0     C25159   8.153   1.697   1.358  0.2512  0.6619 -0.2667
  928MOL0     C25160   8.189   1.838   1.336 -0.3831 -0.2932 -0.1627
  928MOL0     C25161   8.075   1.903   1.252 -0.0580  0.4911  0.2384
  928MOL0     N25162   8.107   2.041   1.248 -0.1007 -0.6155  0.2668
  928MOL0     C25163   8.109   2.134   1.353 -0.3319 -0.0151  0.2162
  928MOL0     C25164   8.151   2.255   1.299  1.2475  0.6190  0.6247
  928MOL0     C25165   8.170   2.370   1.390  0.6525  0.2365  0.6012
  928MOL0     C25166   8.295   2.365   1.478 -0.8364  0.2388  0.4477
  928MOL0     C25167   8.427   2.413   1.414  0.5491 -0.0250 -0.4381
  928MOL0     C25168   8.539   2.424   1.514 -0.8873  0.1037 -0.0203
  928MOL0     O25169   8.602   2.309   1.559 -0.0980 -0.2392  0.4200
  928MOL0     C25170   8.730   2.315   1.612 -0.5988  0.1138 -0.0773
  928MOL0     C25171   8.796   2.191   1.655  0.4037 -0.1024  1.0318
  928MOL0     C25172   8.917   2.184   1.708 -0.1529 -0.4985  0.0706
  928MOL0     C25173   8.992   2.300   1.740  0.9837  0.3326  0.0231
  928MOL0     C25174   9.123   2.292   1.795 -0.1366 -0.5238 -1.2596
  928MOL0     O25175   9.182   2.405   1.845 -0.0731  0.0772  0.2547
  928MOL0     C25176   9.305   2.399   1.903 -0.1502 -0.1339  0.4326
  928MOL0     C25177   9.388   2.500   1.852 -0.7991  0.2065 -0.7593
  928MOL0     C25178   9.522   2.524   1.911 -0.5592  0.3339  0.3589
  928MOL0     C25179   9.564   2.439   2.016  0.4788 -1.1120 -0.3657
  928MOL0     O25180   9.686   2.454   2.078 -0.3186  0.0166 -0.3873
  928MOL0     C25181   9.705   2.424   2.210 -0.5771  0.1060 -0.5159
  928MOL0     C25182   9.841   2.476   2.237  0.0879 -0.2887  0.7752
  928MOL0     C25183   9.890   2.450   2.375 -0.0774  0.2758  0.3056
  928MOL0     C25184   9.861   2.577   2.465  0.0024 -0.1848 -0.6996
  928MOL0     C25185   9.896   2.553   2.612  0.4399 -1.1127 -0.7019
  928MOL0     C25186  10.040   2.512   2.639  0.5604  0.3053 -0.3310
  928MOL0     C25187  10.081   2.532   2.788  0.2852 -0.1163  0.7429
  928MOL0     C25188  10.058   2.680   2.835 -0.3439 -0.0925 -0.3489
  928MOL0    Cl25189  10.137   2.725   2.986  0.2949 -0.3212 -0.0918
  928MOL0     C25190   9.469   2.343   2.060 -0.4718 -0.1642 -0.3591
  928MOL0     C25191   9.342   2.323   2.006 -0.9999  0.4094 -1.3262
  928MOL0     O25192   9.177   2.182   1.797 -0.2413 -0.2077  0.0906
  928MOL0     C25193   8.934   2.419   1.696  1.0901 -0.7342 -0.7014
  928MOL0     C25194   8.803   2.432   1.646 -0.0001  0.3951  0.1435
  928MOL0     N25195   8.180   2.235   1.165  0.2653  0.1275 -0.5576
  928MOL0     N25196   8.156   2.110   1.139 -0.0206 -0.4778  0.2506
  928MOL0     C25197   9.010   1.422   1.378  1.9482  0.0156 -0.5478
  928MOL0     C25198   9.136   1.418   1.438 -0.5066  0.5185  0.1956
  928MOL0     C25199   9.515   1.382   1.661  0.4214  1.1270  0.1182
  928MOL0     C25200   9.612   1.481   1.670 -1.1711 -0.3775 -0.2222
  928MOL0     C25201   9.731   1.471   1.742  0.1967 -0.4684  0.2352
  928MOL0     C25202   9.757   1.356   1.818 -0.4384 -0.2468  0.5172
  928MOL0     O25203   9.873   1.367   1.891 -0.0622  0.5637 -0.3333
  928MOL0     C25204   9.900   1.247   1.975 -0.1801  0.4296 -0.4204
  928MOL0     C25205  10.010   1.267   2.070  0.8108 -0.0544 -0.3169
  928MOL0     C25206  10.136   1.300   1.993  0.7503  0.1863  0.1464
  928MOL0     C25207  10.247   1.372   2.071 -0.0490 -0.2916 -0.0395
  928MOL0     C25208  10.305   1.279   2.171  0.2362  0.0006 -0.2687
  928MOL0     C25209  10.359   1.197   2.238 -0.3090  0.1454 -0.2746
  928MOL0     C25210   9.673   1.247   1.794 -0.0143  0.0377 -0.0993
  928MOL0     C25211   9.556   1.256   1.722  0.1103  0.4204  0.8321
  928MOL0     C25212   9.471   1.128   1.738  1.2575 -0.2562  0.2714
  928MOL0     H25213   9.102   1.133   1.617 -2.4245 -1.2442 -1.5212
  928MOL0     H25214   8.869   1.154   1.532 -0.4627 -0.0865  0.2834
  928MOL0     H25215   8.612   1.235   1.395  1.8846 -0.8648 -0.6280
  928MOL0     H25216   8.685   1.322   1.520 -1.2319  0.9549  0.2926
  928MOL0     H25217   8.604   1.455   1.257 -1.8118  1.7465  0.1312
  928MOL0     H25218   8.682   1.529   1.400 -0.8220  1.4331  0.5720
  928MOL0     H25219   8.455   1.468   1.531  0.3987  0.9967 -0.0301
  928MOL0     H25220   8.409   1.386   1.386  0.8771  0.8763  0.0898
  928MOL0     H25221   8.450   1.677   1.350  1.1102 -0.6577 -0.3685
  928MOL0     H25222   8.360   1.564   1.259  0.2545 -0.5397  0.8747
  928MOL0     H25223   8.221   1.520   1.490 -1.0805  0.0831  0.9343
  928MOL0     H25224   8.281   1.682   1.524 -0.3176  2.8863 -2.0174
  928MOL0     H25225   8.138   1.639   1.267  0.1062 -1.6892  1.1702
  928MOL0     H25226   8.057   1.689   1.410 -1.5967  0.2529 -3.4823
  928MOL0     H25227   8.283   1.852   1.281  0.3536 -1.5952  0.7160
  928MOL0     H25228   8.192   1.889   1.433 -1.5171 -0.5767  0.0368
  928MOL0     H25229   8.059   1.856   1.154  1.0047  0.3904  0.1035
  928MOL0     H25230   7.981   1.894   1.308  1.1797  2.0984  2.7512
  928MOL0     H25231   8.100   2.110   1.459 -0.6107 -0.1244  0.1675
  928MOL0     H25232   8.162   2.464   1.335 -4.2859 -0.6326 -0.6378
  928MOL0     H25233   8.084   2.371   1.458  0.1426 -0.9634  0.0115
  928MOL0     H25234   8.279   2.428   1.565  1.9254 -0.6844  1.7524
  928MOL0     H25235   8.301   2.260   1.510 -0.9789  0.2292  0.4429
  928MOL0     H25236   8.410   2.507   1.359 -1.2779 -0.5546 -0.8616
  928MOL0     H25237   8.466   2.339   1.343 -1.7399 -0.6192 -1.1893
  928MOL0     H25238   8.502   2.486   1.596 -1.2736 -1.3753  0.9591
  928MOL0     H25239   8.612   2.471   1.448  0.2232 -2.9164 -1.1102
  928MOL0     H25240   8.736   2.101   1.663  0.6236 -0.3529 -0.0704
  928MOL0     H25241   8.947   2.089   1.751  1.9218 -0.5186 -1.2760
  928MOL0     H25242   9.356   2.570   1.776 -1.9254  1.6404  0.9622
  928MOL0     H25243   9.590   2.608   1.898  2.0310 -1.5603  0.8707
  928MOL0     H25244   9.634   2.472   2.279  1.5759  4.1945 -0.8531
  928MOL0     H25245   9.707   2.318   2.236  1.1783  0.0031 -0.9954
  928MOL0     H25246   9.906   2.411   2.179  1.4230 -0.1842  2.0889
  928MOL0     H25247   9.847   2.582   2.212 -1.0858 -0.8143 -2.0955
  928MOL0     H25248   9.850   2.359   2.419 -0.7872  0.8526  0.8856
  928MOL0     H25249   9.998   2.435   2.371 -0.1062  0.2244 -0.6173
  928MOL0     H25250   9.754   2.601   2.461  0.2245  1.0029 -0.0478
  928MOL0     H25251   9.916   2.668   2.439  1.1324  0.7020  3.8839
  928MOL0     H25252   9.829   2.479   2.657  1.4976 -0.0689  2.9545
  928MOL0     H25253   9.871   2.650   2.658  0.2336 -1.1668 -0.6969
  928MOL0     H25254  10.031   2.405   2.618 -1.2983  0.5563 -0.9855
  928MOL0     H25255  10.105   2.570   2.572  0.6706 -1.8063 -2.1794
  928MOL0     H25256  10.185   2.513   2.815 -0.2561 -0.3406  2.8491
  928MOL0     H25257  10.014   2.473   2.852 -1.4680  0.4618 -0.4795
  928MOL0     H25258  10.093   2.755   2.763  0.6625  0.9097  1.1401
  928MOL0     H25259   9.950   2.697   2.844 -0.3112 -0.9786  3.2038
  928MOL0     H25260   9.492   2.275   2.142 -0.6138 -1.4920 -1.3816
  928MOL0     H25261   9.261   2.261   2.043 -1.0419 -0.0728 -2.1965
  928MOL0     H25262   8.991   2.507   1.728  1.2886 -1.7954  2.1883
  928MOL0     H25263   8.754   2.527   1.629  0.8434  0.8351  0.1358
  928MOL0     H25264   8.985   1.493   1.300 -1.1412 -0.5526 -0.1968
  928MOL0     H25265   9.200   1.504   1.420 -0.0343  0.8129  2.8278
  928MOL0     H25266   9.592   1.565   1.605 -1.9014  1.4906  2.2578
  928MOL0     H25267   9.801   1.554   1.743 -0.9532  0.5548  2.4048
  928MOL0     H25268   9.918   1.166   1.903  1.8146  0.6024 -0.1563
  928MOL0     H25269   9.812   1.218   2.033 -0.0050 -2.3707 -1.3707
  928MOL0     H25270  10.024   1.175   2.127 -0.2031  1.2115  2.1890
  928MOL0     H25271   9.977   1.354   2.129 -0.0981 -1.0123  0.6262
  928MOL0     H25272  10.099   1.368   1.916 -4.1949 -1.1004  1.0283
  928MOL0     H25273  10.186   1.219   1.938  0.6858  1.3832 -1.7432
  928MOL0     H25274  10.322   1.399   1.996  0.3192 -1.8392 -0.2573
  928MOL0     H25275  10.207   1.461   2.119  2.5370  1.0326 -0.1743
  928MOL0     H25276  10.414   1.119   2.286  2.1195  0.3655 -2.4337
  928MOL0     H25277   9.707   1.155   1.840  0.2192 -0.8389 -1.9081
  928MOL0     H25278   9.416   1.100   1.648  0.5758 -1.0663  0.9205
  928MOL0     H25279   9.531   1.038   1.755 -0.2255 -0.9610  2.2335
  928MOL0     H25280   9.402   1.132   1.823  2.2412  0.4153  1.0500
  929MOL0     O25281  10.639   8.992   8.181 -0.2502  0.0523  0.1223
  929MOL0     C25282  10.547   8.921   8.228  1.2632 -1.9011 -0.2431
  929MOL0     O25283  10.527   8.891   8.362 -0.0897  0.2943  0.1859
  929MOL0     C25284  10.621   8.951   8.448  0.5764  0.0630 -0.6218
  929MOL0     C25285  10.578   9.052   8.539  0.1617 -0.2408  0.8633
  929MOL0     C25286  10.657   9.126   8.624  0.4811 -0.5919  1.1189
  929MOL0     C25287  10.794   9.095   8.625  0.0127  0.3591 -0.1923
  929MOL0     O25288  10.869   9.169   8.708 -0.2611  0.0071 -0.3886
  929MOL0     C25289  10.896   9.133   8.846 -0.0085 -0.4904 -0.7151
  929MOL0     C25290  11.026   9.045   8.870  0.3718  0.4859  0.2464
  929MOL0     C25291  11.156   9.107   8.864 -0.1245  0.5924  0.4415
  929MOL0     C25292  11.177   9.170   8.721 -0.0703 -0.9053  0.1658
  929MOL0     C25293  11.327   9.201   8.707  0.2904 -0.7461 -0.3595
  929MOL0     C25294  11.412   9.077   8.674  0.1953 -0.0919 -0.0151
  929MOL0     C25295  11.554   9.120   8.647 -0.3887 -0.2262  0.7922
  929MOL0     C25296  11.650   9.139   8.764  0.4891  0.4093 -0.2555
  929MOL0     N25297  11.677   9.030   8.859 -0.3872  0.1657  0.3804
  929MOL0     C25298  11.799   8.969   8.853 -0.1106  0.0343  0.2418
  929MOL0     C25299  11.803   8.892   8.962  0.8294  0.2010  0.2408
  929MOL0     C25300  11.902   8.796   9.007 -0.6102  0.4501 -0.8271
  929MOL0     C25301  11.991   8.862   9.109 -0.1284  0.0275  0.0010
  929MOL0     C25302  12.105   8.765   9.164  0.4986 -0.3287  0.7255
  929MOL0     C25303  12.202   8.839   9.239 -0.6431  0.5951 -0.1527
  929MOL0     O25304  12.313   8.748   9.264 -0.0153 -0.1658 -0.0217
  929MOL0     C25305  12.433   8.795   9.321  0.4118  0.0467 -0.4465
  929MOL0     C25306  12.445   8.907   9.402  0.8860  0.2566  0.6854
  929MOL0     C25307  12.570   8.938   9.451 -0.4806  0.1190 -0.8730
  929MOL0     C25308  12.686   8.853   9.440  0.7854  0.1498  0.3029
  929MOL0     C25309  12.815   8.894   9.495  0.0669  0.4677 -0.5277
  929MOL0     O25310  12.833   9.029   9.521  0.1446 -0.0491 -0.3886
  929MOL0     C25311  12.960   9.080   9.549 -0.2913  0.4996 -0.1138
  929MOL0     C25312  12.962   9.194   9.622  0.2451 -0.9493  0.4401
  929MOL0     C25313  13.086   9.262   9.646  0.1176 -0.6838 -0.0418
  929MOL0     C25314  13.203   9.208   9.604  0.1591  1.4888  0.4847
  929MOL0     O25315  13.323   9.268   9.647 -0.1771 -0.0117  0.2851
  929MOL0     C25316  13.433   9.182   9.687  0.1749 -0.6597 -0.4723
  929MOL0     C25317  13.552   9.268   9.729  0.0414  0.4195  0.1538
  929MOL0     C25318  13.665   9.190   9.790  0.4146 -1.2414  1.3076
  929MOL0     C25319  13.780   9.296   9.828  0.7080  0.2144 -0.1524
  929MOL0     C25320  13.870   9.322   9.709  1.3740 -0.4177 -0.5297
  929MOL0     C25321  13.974   9.419   9.762 -0.5892 -0.3488 -0.1295
  929MOL0     C25322  14.119   9.388   9.703  0.4157 -0.2547 -0.4220
  929MOL0     C25323  14.193   9.523   9.726  0.2896  0.6185  0.3325
  929MOL0    Cl25324  14.345   9.532   9.637 -0.2904 -0.1583 -0.0030
  929MOL0     C25325  13.202   9.082   9.539 -0.8189  0.4043  0.4497
  929MOL0     C25326  13.081   9.023   9.508  0.9598  0.5080  0.5762
  929MOL0     O25327  12.898   8.801   9.518  0.1694  1.0172  0.2438
  929MOL0     C25328  12.664   8.741   9.360 -0.5058  0.2160  0.7491
  929MOL0     C25329  12.541   8.712   9.301 -0.1766  1.0457  0.2145
  929MOL0     N25330  11.688   8.920   9.037 -0.0477  0.5338  0.3821
  929MOL0     N25331  11.617   9.004   8.974  0.0164 -0.4134 -0.0269
  929MOL0     C25332  10.837   8.983   8.541  0.3555 -0.6855 -0.3780
  929MOL0     C25333  10.757   8.922   8.446  0.7211 -0.2185 -0.4361
  929MOL0     C25334  10.452   8.854   8.142  0.7341  0.7412  0.0472
  929MOL0     C25335  10.315   8.865   8.180  0.1594 -0.3708  0.0364
  929MOL0     C25336  10.219   8.775   8.124 -0.5897 -0.2809 -0.4323
  929MOL0     C25337  10.255   8.673   8.028  0.6220 -1.0147  0.2046
  929MOL0     O25338  10.158   8.581   7.996  0.4095  0.3158  0.4848
  929MOL0     C25339  10.199   8.473   7.908  0.1810 -0.0534  0.6743
  929MOL0     C25340  10.089   8.380   7.869 -0.2289  0.0254 -0.2628
  929MOL0     C25341  10.113   8.320   7.727 -0.1904 -0.3153  0.0648
  929MOL0     C25342  10.010   8.210   7.700 -0.7086 -0.1421  0.2356
  929MOL0     C25343  10.000   8.175   7.563  0.5167  0.0797 -0.3707
  929MOL0     C25344   9.968   8.143   7.450 -0.4370  0.1810  0.0479
  929MOL0     C25345  10.391   8.682   7.981  0.5448 -0.1616  0.4566
  929MOL0     C25346  10.493   8.765   8.039 -0.6717  1.2627 -0.4835
  929MOL0     C25347  10.643   8.743   8.006 -0.7027  0.2501  0.3273
  929MOL0     H25348  10.470   9.067   8.543  0.0912 -0.6410  0.5275
  929MOL0     H25349  10.618   9.202   8.691 -0.9608 -0.5056  0.2317
  929MOL0     H25350  10.898   9.224   8.907  1.3076 -0.3682 -0.9098
  929MOL0     H25351  10.815   9.064   8.873 -0.9486  0.3450 -1.3146
  929MOL0     H25352  11.019   8.977   8.784  0.8431  0.8340 -0.0675
  929MOL0     H25353  11.016   8.991   8.965 -2.0308 -1.1116 -0.7905
  929MOL0     H25354  11.236   9.035   8.881 -1.5454 -1.0768  0.2830
  929MOL0     H25355  11.168   9.180   8.944 -1.2946  0.8170  0.4257
  929MOL0     H25356  11.153   9.105   8.637 -1.8703 -2.3901  1.7313
  929MOL0     H25357  11.113   9.258   8.714 -0.1951 -1.0878 -1.2528
  929MOL0     H25358  11.331   9.273   8.625 -3.4962 -1.6675 -1.5483
  929MOL0     H25359  11.365   9.238   8.802 -2.5926  0.2929  0.4900
  929MOL0     H25360  11.407   9.012   8.762  0.0041  0.4345  0.3679
  929MOL0     H25361  11.372   9.030   8.583  1.7227 -1.4833 -0.0265
  929MOL0     H25362  11.548   9.212   8.587  0.8545 -1.1584 -0.8464
  929MOL0     H25363  11.600   9.044   8.583  3.0334  2.1650  0.0524
  929MOL0     H25364  11.746   9.172   8.722  2.9278  1.0176  4.9052
  929MOL0     H25365  11.608   9.218   8.828 -0.1201  1.2008 -1.6008
  929MOL0     H25366  11.879   8.979   8.780 -1.7911  2.0842 -1.4688
  929MOL0     H25367  11.849   8.711   9.051 -1.0543 -0.0355 -2.2347
  929MOL0     H25368  11.967   8.762   8.926 -2.3101  0.3821 -2.2087
  929MOL0     H25369  12.050   8.939   9.058  2.0247 -1.7200 -0.3023
  929MOL0     H25370  11.930   8.905   9.189 -2.4279 -2.5235 -0.2672
  929MOL0     H25371  12.160   8.718   9.083  0.1948  1.5130 -0.6142
  929MOL0     H25372  12.064   8.680   9.218  0.6898  1.0613  3.2510
  929MOL0     H25373  12.166   8.867   9.339 -1.5260  1.3311 -0.6638
  929MOL0     H25374  12.238   8.923   9.179  3.3385 -0.5506  0.3438
  929MOL0     H25375  12.366   8.980   9.418 -0.3735 -0.7830 -0.5309
  929MOL0     H25376  12.583   9.024   9.517  0.9472  0.4083 -1.4922
  929MOL0     H25377  12.870   9.228   9.667  0.3820  1.7280 -1.1010
  929MOL0     H25378  13.090   9.358   9.697 -1.4107 -0.9590  0.6427
  929MOL0     H25379  13.396   9.122   9.771  2.1551  0.5786  1.3991
  929MOL0     H25380  13.449   9.120   9.598 -4.9007  1.0719 -3.0152
  929MOL0     H25381  13.599   9.321   9.646  0.5403  0.7356  0.6278
  929MOL0     H25382  13.512   9.340   9.801 -0.4341  0.7205 -0.4011
  929MOL0     H25383  13.630   9.132   9.876  1.6450  3.2147  5.2025
  929MOL0     H25384  13.698   9.122   9.710 -0.6613 -0.0299 -0.2437
  929MOL0     H25385  13.838   9.258   9.912 -0.1752  0.9440  0.8007
  929MOL0     H25386  13.732   9.390   9.856  2.2498  0.8932  0.2758
  929MOL0     H25387  13.824   9.351   9.614  4.0999 -1.2182 -2.2145
  929MOL0     H25388  13.909   9.224   9.681 -1.2196 -1.0748 -2.2441
  929MOL0     H25389  13.942   9.521   9.740  1.3603  0.9008  2.3737
  929MOL0     H25390  13.968   9.404   9.870  0.1854 -0.1207 -0.0466
  929MOL0     H25391  14.095   9.368   9.598 -4.9636 -0.7496  0.6179
  929MOL0     H25392  14.168   9.297   9.738  0.5008  0.3725  1.1604
  929MOL0     H25393  14.132   9.607   9.690 -1.2866 -0.0987  1.2593
  929MOL0     H25394  14.217   9.524   9.833  1.0198 -1.8869  0.2546
  929MOL0     H25395  13.291   9.033   9.500 -1.1828 -0.4269  0.6446
  929MOL0     H25396  13.087   8.935   9.445 -0.2386  1.4902 -0.9882
  929MOL0     H25397  12.747   8.670   9.354 -0.7180 -0.0297  0.6987
  929MOL0     H25398  12.526   8.620   9.245  1.0912  1.5767 -1.0295
  929MOL0     H25399  10.939   8.948   8.551  1.3811  2.2008  0.4673
  929MOL0     H25400  10.788   8.836   8.389 -0.1120 -0.3851 -0.6472
  929MOL0     H25401  10.286   8.944   8.249 -0.1131  1.8531 -2.4555
  929MOL0     H25402  10.117   8.791   8.158  0.0609 -2.8224  3.3084
  929MOL0     H25403  10.283   8.417   7.949  0.2586  0.3491  1.0672
  929MOL0     H25404  10.238   8.525   7.820  0.0407  0.2196  0.7710
  929MOL0     H25405   9.986   8.419   7.874 -0.7607 -1.3587  0.0053
  929MOL0     H25406  10.094   8.298   7.941 -4.1678 -3.0311 -2.9459
  929MOL0     H25407  10.212   8.273   7.721  0.0229  0.2207 -0.7860
  929MOL0     H25408  10.105   8.404   7.657  0.9537  2.0244  2.4979
  929MOL0     H25409  10.053   8.124   7.753 -1.0020 -0.1824  0.4149
  929MOL0     H25410   9.913   8.246   7.735 -1.0915 -0.3006 -0.6454
  929MOL0     H25411   9.939   8.103   7.355 -0.4282  3.0684 -1.2545
  929MOL0     H25412  10.416   8.605   7.908 -0.5352 -0.0829 -0.0117
  929MOL0     H25413  10.685   8.662   8.065  2.7528 -0.1514 -2.3653
  929MOL0     H25414  10.653   8.703   7.905 -1.1483  0.7944  0.0565
  929MOL0     H25415  10.693   8.840   8.010  2.6326 -1.3607  0.6658
  930MOL0     O25416  10.777   9.101   0.049  0.3233  0.9427 -0.3375
  930MOL0     C25417  10.857   9.199   0.047  0.0314  0.2162 -0.1953
  930MOL0     O25418  10.836   9.305  -0.030 -0.0827  1.0912  0.1009
  930MOL0     C25419  10.722   9.299  -0.106 -0.5793 -0.7624  0.0647
  930MOL0     C25420  10.745   9.266  -0.241  0.5441 -0.2613 -0.2048
  930MOL0     C25421  10.637   9.257  -0.322  0.4565 -0.5536 -0.7815
  930MOL0     C25422  10.509   9.296  -0.278  0.4537  0.0140 -0.1436
  930MOL0     O25423  10.399   9.285  -0.361 -0.5133 -0.0555 -0.8652
  930MOL0     C25424  10.380   9.168  -0.437 -0.4091  0.3809  0.2753
  930MOL0     C25425  10.233   9.173  -0.471  0.4396 -0.1267  0.2936
  930MOL0     C25426  10.176   9.055  -0.545 -0.2986  0.7879 -0.3496
  930MOL0     C25427  10.038   9.066  -0.601 -0.3798 -0.5001 -0.0245
  930MOL0     C25428  10.019   8.968  -0.716  0.2378  0.8177 -0.1596
  930MOL0     C25429   9.895   9.015  -0.797 -0.3557  0.0379  0.1336
  930MOL0     C25430   9.884   8.957  -0.935 -0.2517 -0.2578  0.1696
  930MOL0     C25431   9.773   9.033  -1.026 -0.1924 -0.1852  0.6555
  930MOL0     N25432   9.812   9.162  -1.083 -0.2844 -0.1150  0.1849
  930MOL0     C25433   9.913   9.164  -1.173 -0.7173 -0.2106  0.3767
  930MOL0     C25434   9.918   9.292  -1.214 -0.1150  0.0262 -0.1744
  930MOL0     C25435  10.009   9.339  -1.327 -0.0209  0.6350 -0.5045
  930MOL0     C25436  10.147   9.378  -1.280 -0.3998  0.1635  0.1863
  930MOL0     C25437  10.146   9.496  -1.183 -0.4784  0.0967  0.0955
  930MOL0     C25438  10.289   9.499  -1.123  1.3440  0.1685 -0.2728
  930MOL0     O25439  10.386   9.568  -1.210  0.3737  0.0116 -0.0730
  930MOL0     C25440  10.520   9.552  -1.179 -0.1243  0.1264 -0.1530
  930MOL0     C25441  10.567   9.480  -1.072 -1.0756  0.1178 -0.2022
  930MOL0     C25442  10.705   9.475  -1.042  0.2512 -0.2596 -0.6002
  930MOL0     C25443  10.788   9.554  -1.128 -0.4025 -0.1106  0.5601
  930MOL0     C25444  10.937   9.551  -1.104  0.2683  0.2717  0.0303
  930MOL0     O25445  11.010   9.631  -1.185  0.2664  0.4758 -0.7296
  930MOL0     C25446  11.144   9.638  -1.165 -0.0602  0.0117 -0.1601
  930MOL0     C25447  11.213   9.755  -1.143 -0.1596 -0.4865  0.2241
  930MOL0     C25448  11.353   9.746  -1.128  0.2821  0.1825 -0.2263
  930MOL0     C25449  11.429   9.627  -1.144 -0.1472 -0.0059 -0.1309
  930MOL0     O25450  11.565   9.620  -1.123 -0.3178 -0.1288 -0.5085
  930MOL0     C25451  11.644   9.739  -1.110  0.7089  0.1417  0.3575
  930MOL0     C25452  11.789   9.720  -1.143  0.0922 -0.3078  0.7801
  930MOL0     C25453  11.845   9.610  -1.059 -0.3173  0.2903  0.3349
  930MOL0     C25454  11.985   9.572  -1.106 -0.4729 -0.4722 -1.0747
  930MOL0     C25455  12.022   9.449  -1.030  0.3170  0.1927 -0.0731
  930MOL0     C25456  12.158   9.389  -1.070  0.7066 -0.2054  0.6527
  930MOL0     C25457  12.177   9.237  -1.080  0.4652  0.0179 -0.4118
  930MOL0     C25458  12.311   9.201  -1.138  0.2795  0.5810  0.9959
  930MOL0    Cl25459  12.443   9.231  -1.021  0.4491 -0.0714  0.0582
  930MOL0     C25460  11.359   9.512  -1.161  0.2403  1.0306  0.3119
  930MOL0     C25461  11.217   9.518  -1.180 -0.3353  0.4374 -0.0202
  930MOL0     O25462  10.985   9.492  -1.001 -0.1758 -0.1053  0.0435
  930MOL0     C25463  10.738   9.622  -1.237  0.2145 -0.9876  0.0581
  930MOL0     C25464  10.601   9.621  -1.263 -0.8108 -0.8624  0.2261
  930MOL0     N25465   9.827   9.362  -1.145  0.3219  0.2844 -0.5477
  930MOL0     N25466   9.768   9.289  -1.060  0.2662 -1.0586 -0.0306
  930MOL0     C25467  10.494   9.338  -0.144 -0.1457 -0.1429 -0.8740
  930MOL0     C25468  10.602   9.337  -0.059 -1.0513 -0.7803 -0.6920
  930MOL0     C25469  10.981   9.194   0.123  0.2679  0.8563 -0.0104
  930MOL0     C25470  11.096   9.240   0.064  0.0627 -0.1819 -0.3485
  930MOL0     C25471  11.221   9.233   0.129  0.0520  0.1447  0.5971
  930MOL0     C25472  11.224   9.185   0.259 -0.8005  0.3923 -0.3123
  930MOL0     O25473  11.350   9.173   0.328  1.1243 -0.2029  0.1454
  930MOL0     C25474  11.369   9.048   0.386  0.0351  0.4310 -0.5183
  930MOL0     C25475  11.517   9.010   0.413 -1.3543  0.1968  0.5155
  930MOL0     C25476  11.610   9.016   0.281  0.0607  0.5074  0.0953
  930MOL0     C25477  11.739   8.938   0.289 -0.3643 -0.6855 -0.0408
  930MOL0     C25478  11.820   8.981   0.400 -0.5684  0.6712 -0.1995
  930MOL0     C25479  11.887   9.012   0.496  0.0468 -0.2210 -0.0523
  930MOL0     C25480  11.111   9.143   0.329  0.2547 -0.3753 -0.2309
  930MOL0     C25481  10.982   9.150   0.262 -0.4237 -0.0773 -0.4363
  930MOL0     C25482  10.864   9.097   0.332  0.2147  0.1367 -0.5047
  930MOL0     H25483  10.843   9.233  -0.274  0.6011 -0.1659 -0.1310
  930MOL0     H25484  10.660   9.231  -0.425  0.6221 -0.0815 -0.8654
  930MOL0     H25485  10.443   9.182  -0.525  0.6683 -2.4005  0.5089
  930MOL0     H25486  10.411   9.073  -0.394 -0.8085  0.2127  0.2020
  930MOL0     H25487  10.210   9.264  -0.527 -1.2574 -1.3013 -1.0350
  930MOL0     H25488  10.179   9.179  -0.376 -0.5633 -1.3513 -0.1623
  930MOL0     H25489  10.185   8.965  -0.483  1.3277  1.3116  0.2395
  930MOL0     H25490  10.241   9.041  -0.632 -1.6969 -0.9686 -1.1637
  930MOL0     H25491   9.964   9.051  -0.522  0.8494  0.6785  1.4169
  930MOL0     H25492  10.025   9.170  -0.632  0.4137  1.3630  4.9983
  930MOL0     H25493  10.113   8.952  -0.769 -0.0300 -0.7042 -0.2246
  930MOL0     H25494   9.998   8.868  -0.677 -1.5526  1.3004  0.2187
  930MOL0     H25495   9.801   9.001  -0.743  0.0329 -0.4175  0.7051
  930MOL0     H25496   9.902   9.124  -0.809 -1.1487 -0.0999 -2.0811
  930MOL0     H25497   9.859   8.851  -0.924 -1.3443 -0.2053 -1.4530
  930MOL0     H25498   9.976   8.966  -0.993 -1.3631 -1.3772 -1.9463
  930MOL0     H25499   9.768   8.963  -1.109  2.5152  0.2393  0.0514
  930MOL0     H25500   9.672   9.042  -0.983 -3.1428 -1.9860 -4.8684
  930MOL0     H25501   9.970   9.083  -1.217 -1.3780  0.5314 -2.0229
  930MOL0     H25502  10.009   9.256  -1.398  0.0263  0.6672 -0.5426
  930MOL0     H25503   9.953   9.421  -1.373  0.0250 -0.0394 -1.7976
  930MOL0     H25504  10.196   9.284  -1.256  0.2540  0.2938 -0.6210
  930MOL0     H25505  10.191   9.416  -1.372 -0.8482 -0.2418 -0.2015
  930MOL0     H25506  10.066   9.489  -1.109  1.9500  1.1348  3.0918
  930MOL0     H25507  10.129   9.596  -1.224 -1.5021  0.7239  1.9133
  930MOL0     H25508  10.320   9.397  -1.098  0.7351 -0.1070 -0.6050
  930MOL0     H25509  10.282   9.552  -1.027 -1.7774  1.5784 -1.1438
  930MOL0     H25510  10.500   9.442  -0.996  1.0495  1.4193  2.4864
  930MOL0     H25511  10.750   9.429  -0.954  2.0407  0.4691 -1.0805
  930MOL0     H25512  11.165   9.851  -1.133  0.9167 -0.0052  0.9749
  930MOL0     H25513  11.409   9.834  -1.098  1.9074 -1.6868  2.7676
  930MOL0     H25514  11.605   9.823  -1.170  0.8883  0.7215  1.0440
  930MOL0     H25515  11.626   9.763  -1.005 -2.7539  0.7169 -0.2161
  930MOL0     H25516  11.808   9.712  -1.250  1.5373 -2.5027  1.1287
  930MOL0     H25517  11.841   9.812  -1.118  0.6036 -0.6185  0.8882
  930MOL0     H25518  11.844   9.642  -0.955  0.3158  0.8078  0.1852
  930MOL0     H25519  11.789   9.517  -1.066 -0.3402  0.1878  1.7031
  930MOL0     H25520  12.055   9.653  -1.084 -0.9073 -1.0528  3.4390
  930MOL0     H25521  11.967   9.541  -1.209 -1.7423 -3.6496 -0.0274
  930MOL0     H25522  11.949   9.373  -1.060  1.0299 -0.6789  0.3564
  930MOL0     H25523  12.021   9.458  -0.921  2.0073 -1.8227  0.1737
  930MOL0     H25524  12.178   9.433  -1.168  0.6887 -1.6061 -0.0130
  930MOL0     H25525  12.236   9.434  -1.007  0.6049 -3.8892  3.7886
  930MOL0     H25526  12.100   9.198  -1.148 -0.8442 -0.8100  1.4414
  930MOL0     H25527  12.159   9.183  -0.987  0.9963 -0.3306 -0.5062
  930MOL0     H25528  12.307   9.096  -1.165 -1.5355  1.0321 -0.6475
  930MOL0     H25529  12.330   9.262  -1.227  2.3081 -0.7110  0.4759
  930MOL0     H25530  11.416   9.421  -1.176  0.7024  1.4111 -0.3238
  930MOL0     H25531  11.162   9.432  -1.217 -0.3722 -0.1285  1.2867
  930MOL0     H25532  10.802   9.687  -1.297 -0.8081 -0.9148 -0.9835
  930MOL0     H25533  10.559   9.689  -1.337 -0.2432 -1.7053 -0.8956
  930MOL0     H25534  10.402   9.380  -0.105 -0.0334  0.8075 -1.5994
  930MOL0     H25535  10.597   9.361   0.047 -0.5543 -1.5388 -0.4906
  930MOL0     H25536  11.088   9.274  -0.039 -2.2540  0.8147  0.0905
  930MOL0     H25537  11.314   9.270   0.086  1.5059  0.6893  3.9072
  930MOL0     H25538  11.328   8.969   0.322 -1.5434  0.4885  0.3629
  930MOL0     H25539  11.306   9.037   0.475 -2.0860 -1.3001 -2.1119
  930MOL0     H25540  11.521   8.920   0.475 -2.1586  0.5764  1.1342
  930MOL0     H25541  11.556   9.090   0.476 -1.9874 -0.2806  1.5345
  930MOL0     H25542  11.622   9.119   0.246 -0.5107 -0.0512 -1.9071
  930MOL0     H25543  11.552   8.969   0.201  1.4096  0.1698 -0.7218
  930MOL0     H25544  11.724   8.830   0.297 -0.6488 -0.7531 -1.2495
  930MOL0     H25545  11.800   8.955   0.200 -2.1065 -0.3499 -1.2265
  930MOL0     H25546  11.962   9.032   0.571  1.8654  1.1979 -2.1334
  930MOL0     H25547  11.128   9.110   0.431  0.3482 -0.6894 -0.3470
  930MOL0     H25548  10.877   9.092   0.440 -2.7829  3.3585  0.1938
  930MOL0     H25549  10.787   9.175   0.320 -1.5677 -1.7240 -1.8472
  930MOL0     H25550  10.826   9.002   0.294  0.9104 -0.4904  0.3505
  931MOL0     O25551   3.033   3.574   3.396 -0.2357  0.3380  0.3144
  931MOL0     C25552   2.982   3.625   3.297  0.1615 -0.1449 -0.3647
  931MOL0     O25553   3.042   3.635   3.176  0.2142  0.4053  0.6449
  931MOL0     C25554   3.169   3.594   3.166  0.0681 -0.0015 -0.9676
  931MOL0     C25555   3.269   3.641   3.254  0.4099 -0.7769  0.0989
  931MOL0     C25556   3.401   3.599   3.244 -0.6114 -0.1644 -0.1378
  931MOL0     C25557   3.437   3.506   3.138 -0.0220 -0.2749  0.3557
  931MOL0     O25558   3.565   3.462   3.125 -0.8198 -0.3741  0.3995
  931MOL0     C25559   3.672   3.519   3.199  0.3300  0.8658 -0.2094
  931MOL0     C25560   3.803   3.442   3.155  0.5028  0.6559 -1.0835
  931MOL0     C25561   3.842   3.415   3.012  0.4156  0.3519 -0.7193
  931MOL0     C25562   3.780   3.296   2.952  0.0034  0.7265  0.0785
  931MOL0     C25563   3.833   3.161   3.000 -0.6820 -0.2956 -0.4915
  931MOL0     C25564   3.955   3.109   2.935  0.1766  0.4797 -1.1496
  931MOL0     C25565   3.979   2.966   2.994 -0.2178  1.1151  0.2024
  931MOL0     C25566   4.065   2.889   2.895 -0.1583 -0.0293  0.0626
  931MOL0     N25567   4.205   2.932   2.920  0.4179 -0.3525 -0.3260
  931MOL0     C25568   4.289   3.010   2.838  0.0826 -0.5631  0.2014
  931MOL0     C25569   4.403   3.019   2.908 -0.1821 -0.4482  0.2969
  931MOL0     C25570   4.521   3.084   2.845 -0.4652 -0.1262  0.1680
  931MOL0     C25571   4.603   2.975   2.767 -0.5977 -0.3134 -0.2950
  931MOL0     C25572   4.581   2.971   2.616 -0.0300  0.2730 -1.0780
  931MOL0     C25573   4.654   2.848   2.564 -0.9587  1.0851  0.9001
  931MOL0     O25574   4.689   2.864   2.423  1.3893 -1.5297  0.2807
  931MOL0     C25575   4.758   2.772   2.362  0.4565  0.0511  0.2451
  931MOL0     C25576   4.785   2.641   2.404  0.1932  0.1549  0.2322
  931MOL0     C25577   4.857   2.544   2.331 -0.4919 -0.2772 -0.9185
  931MOL0     C25578   4.908   2.585   2.208  0.0345  0.3433  0.9285
  931MOL0     C25579   5.004   2.490   2.136  0.4810  0.3785  0.5443
  931MOL0     O25580   5.078   2.545   2.038  0.1655  0.0857  0.2523
  931MOL0     C25581   5.170   2.469   1.979 -0.4166  0.1064  0.1287
  931MOL0     C25582   5.156   2.450   1.847  0.1700  0.5018 -0.4597
  931MOL0     C25583   5.250   2.370   1.779 -0.1225 -0.9116 -0.0293
  931MOL0     C25584   5.350   2.302   1.843  0.4244 -0.0006 -0.1132
  931MOL0     O25585   5.433   2.231   1.764 -0.5327  0.5744 -0.6356
  931MOL0     C25586   5.513   2.131   1.832 -0.2669  0.0006  1.2734
  931MOL0     C25587   5.590   2.020   1.750  0.5677 -0.7140  0.1474
  931MOL0     C25588   5.495   1.913   1.710  0.2025  0.4111 -0.0564
  931MOL0     C25589   5.585   1.791   1.684  0.6776 -0.0713  0.4877
  931MOL0     C25590   5.518   1.675   1.602  0.3677 -0.6755  1.0051
  931MOL0     C25591   5.413   1.603   1.681  0.9284 -0.1727 -0.1883
  931MOL0     C25592   5.335   1.506   1.591  0.3822 -0.8151 -0.2573
  931MOL0     C25593   5.216   1.442   1.661  1.4145  0.7735  1.0978
  931MOL0    Cl25594   5.117   1.336   1.541 -0.4463 -0.1497 -0.0131
  931MOL0     C25595   5.367   2.328   1.980  1.2290  0.5393 -0.6697
  931MOL0     C25596   5.282   2.420   2.049  0.1775 -0.0254  0.7811
  931MOL0     O25597   5.016   2.381   2.184 -0.1152  0.2857 -0.0249
  931MOL0     C25598   4.869   2.712   2.156 -0.1829 -0.1885 -0.0409
  931MOL0     C25599   4.797   2.799   2.232  0.3806 -0.5977 -0.5295
  931MOL0     N25600   4.395   2.937   3.011 -0.1543  0.2406 -0.4263
  931MOL0     N25601   4.271   2.896   3.026 -0.0093 -1.2645  0.1678
  931MOL0     C25602   3.336   3.468   3.040 -0.7140  0.0795 -0.5206
  931MOL0     C25603   3.205   3.517   3.055 -0.2462 -0.4584 -0.2103
  931MOL0     C25604   2.853   3.691   3.312  0.7026 -0.1986  0.2461
  931MOL0     C25605   2.824   3.794   3.214  0.0286  0.1898  0.4159
  931MOL0     C25606   2.714   3.873   3.234  0.1876  0.4163 -0.2008
  931MOL0     C25607   2.628   3.854   3.344  0.1112 -0.2769 -0.7431
  931MOL0     O25608   2.517   3.936   3.367 -0.6274 -0.1594 -0.0029
  931MOL0     C25609   2.512   4.078   3.326  0.4378  0.4864  0.0337
  931MOL0     C25610   2.412   4.132   3.420  0.4631  0.8115 -0.7679
  931MOL0     C25611   2.276   4.085   3.388  0.6913  0.1405 -1.2180
  931MOL0     C25612   2.153   4.174   3.420  0.4004  0.3975 -0.0895
  931MOL0     C25613   2.025   4.088   3.410 -0.7982  0.3238 -0.0141
  931MOL0     C25614   1.933   4.019   3.394 -0.1235  0.9787 -0.6532
  931MOL0     C25615   2.643   3.753   3.430 -0.5890 -0.1921  0.2774
  931MOL0     C25616   2.760   3.672   3.415  0.5702  0.0183  0.2681
  931MOL0     C25617   2.790   3.569   3.525 -0.2376  0.0008 -0.7316
  931MOL0     H25618   3.248   3.702   3.341 -1.3298  0.5731 -1.1909
  931MOL0     H25619   3.476   3.628   3.317 -0.1416  0.5220 -0.8667
  931MOL0     H25620   3.685   3.623   3.168  2.0065  0.8282  0.2489
  931MOL0     H25621   3.654   3.507   3.306  0.5266  0.6430 -0.1990
  931MOL0     H25622   3.804   3.349   3.212  0.6736  1.2020 -0.1790
  931MOL0     H25623   3.893   3.487   3.199 -0.4225  0.7429  0.8021
  931MOL0     H25624   3.949   3.392   3.013  0.1870 -0.9726  1.6285
  931MOL0     H25625   3.829   3.508   2.956  3.4805  2.2150  1.3487
  931MOL0     H25626   3.672   3.305   2.965  0.0606  0.1808  1.0600
  931MOL0     H25627   3.798   3.300   2.844 -1.8002  2.8241 -0.2349
  931MOL0     H25628   3.845   3.163   3.108  0.2483 -1.5265 -0.5457
  931MOL0     H25629   3.759   3.083   2.978 -1.0595  0.3628 -1.6676
  931MOL0     H25630   3.933   3.103   2.828 -5.2653 -1.4735 -0.2346
  931MOL0     H25631   4.039   3.175   2.959  0.7495 -0.5630 -0.2293
  931MOL0     H25632   3.893   2.905   3.020 -0.1676 -0.6852 -3.3215
  931MOL0     H25633   4.032   2.989   3.087 -2.2358 -0.5953  1.8550
  931MOL0     H25634   4.050   2.782   2.911  0.2700 -0.5346 -2.3841
  931MOL0     H25635   4.036   2.911   2.791 -0.1112  0.2522  0.1087
  931MOL0     H25636   4.272   3.045   2.736 -1.7882  0.5071  0.8364
  931MOL0     H25637   4.490   3.165   2.779 -1.4864  1.1923  2.1448
  931MOL0     H25638   4.580   3.133   2.922  0.4699  0.9736 -1.2122
  931MOL0     H25639   4.707   3.009   2.779 -0.1730 -1.7797  0.4060
  931MOL0     H25640   4.596   2.874   2.808 -0.8545 -0.6245 -1.0841
  931MOL0     H25641   4.633   3.054   2.566  2.1603 -1.9185 -2.6782
  931MOL0     H25642   4.473   2.966   2.602  0.0954 -1.8978 -1.5386
  931MOL0     H25643   4.592   2.760   2.580  0.6641 -0.7059 -1.8731
  931MOL0     H25644   4.745   2.818   2.616 -1.3219 -0.5525  0.6549
  931MOL0     H25645   4.735   2.613   2.496 -3.2610  0.6587 -1.3230
  931MOL0     H25646   4.864   2.438   2.350 -2.4017 -0.8845 -3.1088
  931MOL0     H25647   5.067   2.485   1.797  0.2029  0.3804 -0.6036
  931MOL0     H25648   5.236   2.359   1.672 -0.7208  3.6734 -0.6154
  931MOL0     H25649   5.578   2.177   1.907  1.8863 -2.4691  1.0792
  931MOL0     H25650   5.445   2.067   1.890 -1.2996  0.2775  0.4019
  931MOL0     H25651   5.628   2.065   1.657  1.3036  1.5220  1.4561
  931MOL0     H25652   5.669   1.983   1.815  2.7361 -0.6419 -2.2820
  931MOL0     H25653   5.411   1.902   1.780 -1.0826 -0.9755 -1.7154
  931MOL0     H25654   5.457   1.944   1.612  0.4934  0.1751 -0.2434
  931MOL0     H25655   5.626   1.742   1.773  1.8991 -4.9235 -2.3286
  931MOL0     H25656   5.675   1.820   1.630 -0.6889  2.0144 -0.7607
  931MOL0     H25657   5.595   1.603   1.573  0.3718 -1.2271  2.3292
  931MOL0     H25658   5.475   1.718   1.511 -2.5337 -1.2533  2.0111
  931MOL0     H25659   5.448   1.558   1.774 -4.1279 -0.1002  2.0446
  931MOL0     H25660   5.344   1.679   1.721  1.0625 -0.9120  1.5264
  931MOL0     H25661   5.399   1.423   1.561 -2.0442 -2.2166 -1.9384
  931MOL0     H25662   5.299   1.559   1.503  3.3817  1.4418 -0.2909
  931MOL0     H25663   5.245   1.393   1.754  1.6099  2.3728  1.9196
  931MOL0     H25664   5.150   1.519   1.702  2.3805  0.4498  3.4014
  931MOL0     H25665   5.452   2.296   2.039  1.7579  2.6378 -0.1981
  931MOL0     H25666   5.298   2.438   2.155  0.4587  1.3779  0.5093
  931MOL0     H25667   4.901   2.752   2.060 -0.5469  0.5821  0.1459
  931MOL0     H25668   4.772   2.901   2.207  0.9960 -0.6950 -1.6354
  931MOL0     H25669   3.344   3.396   2.959 -2.1851 -1.1605  0.3805
  931MOL0     H25670   3.119   3.477   3.001  0.5714 -3.5312  0.5963
  931MOL0     H25671   2.876   3.797   3.118 -1.0838 -1.4848 -0.3046
  931MOL0     H25672   2.685   3.961   3.177 -0.9758  0.0398 -0.2279
  931MOL0     H25673   2.490   4.088   3.219 -0.2032 -1.6592 -0.0867
  931MOL0     H25674   2.607   4.124   3.352  0.0475  0.3761  1.7480
  931MOL0     H25675   2.418   4.241   3.412  2.9553  0.6028 -3.1910
  931MOL0     H25676   2.442   4.107   3.522  0.5265 -2.5524 -1.4823
  931MOL0     H25677   2.260   3.990   3.439 -0.4469 -0.0111 -1.8050
  931MOL0     H25678   2.268   4.067   3.280  1.9808  1.5593 -1.5918
  931MOL0     H25679   2.160   4.236   3.510 -1.7230 -0.0592  0.4446
  931MOL0     H25680   2.142   4.251   3.343 -1.5363  0.7161  0.4539
  931MOL0     H25681   1.846   3.957   3.385 -0.0977  0.3124  2.6460
  931MOL0     H25682   2.575   3.734   3.513  1.0393 -4.9445  0.8698
  931MOL0     H25683   2.703   3.571   3.591  0.9831 -2.6188  1.1425
  931MOL0     H25684   2.821   3.473   3.484  3.7606 -0.0624  1.8606
  931MOL0     H25685   2.872   3.598   3.591 -0.0934 -1.3546 -0.2919
  932MOL0     O25686   9.482  11.052   8.652  0.1133  0.3394  0.7186
  932MOL0     C25687   9.504  10.948   8.593 -0.2343  0.7854  0.7457
  932MOL0     O25688   9.617  10.904   8.533 -0.6467 -0.1037  0.2816
  932MOL0     C25689   9.715  10.998   8.536  0.1436  0.8240 -0.5471
  932MOL0     C25690   9.804  10.995   8.647  0.3408 -0.2651  0.3511
  932MOL0     C25691   9.915  11.080   8.648 -0.1516  0.5947  0.3692
  932MOL0     C25692   9.947  11.162   8.540 -0.0146 -0.8856  0.4350
  932MOL0     O25693  10.048  11.250   8.553 -0.6646  0.8339  0.3293
  932MOL0     C25694  10.051  11.367   8.472  0.2575  0.2876 -0.2473
  932MOL0     C25695  10.171  11.358   8.380  0.0831 -0.6961  0.2403
  932MOL0     C25696  10.190  11.498   8.309  0.6687  0.4332 -0.6209
  932MOL0     C25697  10.322  11.483   8.232 -0.6952  0.2099  0.1738
  932MOL0     C25698  10.404  11.620   8.226  0.1215  0.5099 -0.3122
  932MOL0     C25699  10.510  11.624   8.118  0.1016 -0.3552  0.3905
  932MOL0     C25700  10.584  11.755   8.102 -0.7763  0.0319 -0.5888
  932MOL0     C25701  10.712  11.746   8.180 -0.5578  0.4394 -0.3476
  932MOL0     N25702  10.818  11.821   8.108  0.6950  0.4390  0.0421
  932MOL0     C25703  10.843  11.951   8.122 -0.2439  0.3012 -0.6924
  932MOL0     C25704  10.956  11.977   8.049 -0.8061  0.1433  0.2998
  932MOL0     C25705  11.034  12.113   8.036 -0.6948 -0.0504  0.2674
  932MOL0     C25706  10.993  12.199   8.158 -0.3798 -0.4552  0.5016
  932MOL0     C25707  11.103  12.309   8.184 -0.2936 -0.5007  0.2462
  932MOL0     C25708  11.098  12.384   8.316  0.5307 -0.2486  0.4517
  932MOL0     O25709  11.154  12.314   8.426  0.3877  0.2796  0.2393
  932MOL0     C25710  11.284  12.280   8.424  0.6876  0.4453  0.6134
  932MOL0     C25711  11.327  12.174   8.499 -0.2350  1.0546  0.4475
  932MOL0     C25712  11.474  12.136   8.505  0.2177 -0.5126 -0.4229
  932MOL0     C25713  11.566  12.202   8.429 -0.7544  0.2692 -0.5614
  932MOL0     C25714  11.714  12.188   8.452  1.1800  0.1316  0.9482
  932MOL0     O25715  11.794  12.272   8.384 -0.1823  0.0778  0.2852
  932MOL0     C25716  11.930  12.258   8.379  0.0031 -0.3152 -0.9166
  932MOL0     C25717  11.982  12.138   8.336 -0.3100 -0.1184 -0.5838
  932MOL0     C25718  12.128  12.130   8.336 -0.3532  1.3422  0.8294
  932MOL0     C25719  12.206  12.236   8.378  0.0648 -0.5141  0.1939
  932MOL0     O25720  12.339  12.217   8.381  0.3099  0.6020  0.1745
  932MOL0     C25721  12.425  12.308   8.440 -0.5012  0.3384 -0.9054
  932MOL0     C25722  12.539  12.232   8.506 -0.5082  0.2045  0.4602
  932MOL0     C25723  12.618  12.344   8.589 -0.2100 -0.1878 -0.2680
  932MOL0     C25724  12.728  12.281   8.662 -0.0342  0.1356  0.4528
  932MOL0     C25725  12.811  12.377   8.746  1.2520  0.5633  0.4458
  932MOL0     C25726  12.947  12.334   8.785 -0.7126  0.3101 -0.4892
  932MOL0     C25727  13.003  12.425   8.893 -0.6218  0.2544 -0.5234
  932MOL0     C25728  13.124  12.354   8.960 -0.4125  0.8853  0.2128
  932MOL0    Cl25729  13.080  12.201   9.040  0.2160 -0.0968 -0.0190
  932MOL0     C25730  12.147  12.358   8.403  0.8046  0.3119 -0.3955
  932MOL0     C25731  12.012  12.370   8.408 -0.5152 -0.2899 -0.2793
  932MOL0     O25732  11.757  12.096   8.522  0.2683  0.1652 -0.3579
  932MOL0     C25733  11.518  12.303   8.342 -1.3079  0.0734  0.0286
  932MOL0     C25734  11.382  12.341   8.342  0.8639 -0.3705  0.2672
  932MOL0     N25735  10.974  11.865   7.973 -0.0489 -0.2409  0.0653
  932MOL0     N25736  10.890  11.771   8.004  0.2715 -0.3395 -0.2508
  932MOL0     C25737   9.864  11.155   8.422  0.5525 -0.0988 -0.3077
  932MOL0     C25738   9.750  11.070   8.419 -0.3472  0.1711  0.1154
  932MOL0     C25739   9.382  10.871   8.575  0.3539 -0.2736  0.5203
  932MOL0     C25740   9.330  10.864   8.450  0.5068  0.7280 -0.0019
  932MOL0     C25741   9.206  10.805   8.417 -0.6217 -0.1125 -0.1928
  932MOL0     C25742   9.140  10.730   8.514  0.9867 -0.1468  0.0057
  932MOL0     O25743   9.013  10.670   8.507 -0.7597  0.4916 -0.0907
  932MOL0     C25744   8.957  10.654   8.376 -0.7157 -0.0840  0.0117
  932MOL0     C25745   9.017  10.530   8.308 -0.3355  0.4842  0.5482
  932MOL0     C25746   8.991  10.403   8.395 -0.4696 -0.0411 -0.9465
  932MOL0     C25747   8.848  10.358   8.411 -0.3745 -0.9337 -0.4333
  932MOL0     C25748   8.789  10.318   8.282  0.4132  0.0773 -0.7075
  932MOL0     C25749   8.750  10.255   8.187 -0.5337 -0.4720  0.2251
  932MOL0     C25750   9.187  10.753   8.651 -0.2469  0.3445  0.3251
  932MOL0     C25751   9.306  10.823   8.678  0.9190  0.4652  0.6435
  932MOL0     C25752   9.349  10.833   8.821  0.5867  0.1647 -0.8093
  932MOL0     H25753   9.777  10.918   8.719 -0.0194 -0.2372  0.2463
  932MOL0     H25754   9.975  11.081   8.738 -0.3405  0.9307  0.4948
  932MOL0     H25755   9.962  11.391   8.414 -0.4744  1.1965  1.1766
  932MOL0     H25756  10.053  11.446   8.548  0.2726 -2.3045  2.6567
  932MOL0     H25757  10.149  11.283   8.303  1.6123  0.6821 -1.6314
  932MOL0     H25758  10.264  11.337   8.434 -0.8210  0.6593  2.4516
  932MOL0     H25759  10.183  11.577   8.384 -0.8357 -0.8902  0.6932
  932MOL0     H25760  10.110  11.523   8.238 -1.3568 -1.5792  0.7985
  932MOL0     H25761  10.380  11.403   8.280 -1.1131 -0.2647 -0.1071
  932MOL0     H25762  10.298  11.458   8.128 -0.6068  0.6755  0.0434
  932MOL0     H25763  10.325  11.693   8.207 -1.3361 -0.9748 -0.2056
  932MOL0     H25764  10.452  11.640   8.323  1.6858 -1.0743 -0.7030
  932MOL0     H25765  10.578  11.540   8.131  1.8438  1.0912  1.1464
  932MOL0     H25766  10.462  11.626   8.020  1.1626  0.7901 -0.1451
  932MOL0     H25767  10.535  11.846   8.137 -0.1410  1.1853 -2.5198
  932MOL0     H25768  10.612  11.776   7.998  0.5569  1.8622  0.0875
  932MOL0     H25769  10.707  11.769   8.287  1.0445 -2.8945  0.5731
  932MOL0     H25770  10.741  11.641   8.183 -2.1569 -0.0837 -1.3691
  932MOL0     H25771  10.794  12.023   8.187  0.8710  0.5030 -0.0450
  932MOL0     H25772  11.139  12.086   8.050 -1.6992 -3.2418  2.7672
  932MOL0     H25773  11.016  12.161   7.939 -0.6061 -2.3958 -0.9751
  932MOL0     H25774  10.897  12.249   8.141 -0.2018  0.1916  1.3116
  932MOL0     H25775  10.985  12.146   8.254 -1.1677 -1.7024 -0.2361
  932MOL0     H25776  11.087  12.386   8.108 -0.7011 -0.5416  0.2871
  932MOL0     H25777  11.198  12.258   8.166  0.1332  1.0337 -2.2684
  932MOL0     H25778  10.993  12.405   8.339  0.0690  0.4589 -1.9809
  932MOL0     H25779  11.125  12.487   8.292  0.1649 -0.4003 -0.6781
  932MOL0     H25780  11.264  12.115   8.565  2.2194 -0.7355  1.3216
  932MOL0     H25781  11.512  12.053   8.563 -1.3064 -4.0262 -4.0307
  932MOL0     H25782  11.922  12.053   8.305 -1.4955  0.4849 -0.0442
  932MOL0     H25783  12.182  12.039   8.313 -0.8047  1.6040 -1.5578
  932MOL0     H25784  12.476  12.367   8.363  1.0273  0.4066  0.1258
  932MOL0     H25785  12.383  12.374   8.517 -0.1955 -0.9735  0.4371
  932MOL0     H25786  12.491  12.159   8.572 -2.1977  0.0832 -0.8207
  932MOL0     H25787  12.603  12.183   8.432  0.6563  1.1817  0.7838
  932MOL0     H25788  12.656  12.429   8.533 -1.0709  0.8022  0.5975
  932MOL0     H25789  12.560  12.389   8.670  1.5969  0.9274  0.4767
  932MOL0     H25790  12.793  12.242   8.583 -1.0310 -0.6450 -0.0020
  932MOL0     H25791  12.682  12.202   8.720  1.6076  0.0274  1.6846
  932MOL0     H25792  12.748  12.393   8.834  2.0253  0.1594  1.0906
  932MOL0     H25793  12.820  12.470   8.690  2.0948 -0.5965 -1.4293
  932MOL0     H25794  12.946  12.231   8.821  1.8629  0.5649  0.4718
  932MOL0     H25795  13.008  12.333   8.694  1.8372 -0.2994  1.1389
  932MOL0     H25796  12.939  12.444   8.980  2.2261  3.2081  1.1843
  932MOL0     H25797  13.027  12.527   8.861 -2.9116  1.4057  1.1337
  932MOL0     H25798  13.200  12.338   8.882 -0.0383  0.8353  0.5814
  932MOL0     H25799  13.178  12.414   9.034 -1.5890 -0.0647  1.9136
  932MOL0     H25800  12.203  12.449   8.420 -2.2724  2.2393  0.1814
  932MOL0     H25801  11.976  12.470   8.432  4.8697  2.1725 -1.1236
  932MOL0     H25802  11.594  12.364   8.293 -1.7874  0.3031 -0.4313
  932MOL0     H25803  11.365  12.436   8.292 -0.3914 -0.0180  1.3120
  932MOL0     H25804   9.888  11.207   8.330 -0.6675 -0.6744 -0.9707
  932MOL0     H25805   9.678  11.075   8.338 -0.6594  2.2109  0.4718
  932MOL0     H25806   9.393  10.891   8.365  0.5674 -0.8694 -0.4860
  932MOL0     H25807   9.178  10.809   8.312  3.1731 -0.2139 -1.3531
  932MOL0     H25808   8.968  10.738   8.307  1.6698  0.3804  0.8772
  932MOL0     H25809   8.848  10.646   8.386 -0.6677 -1.6801 -0.3964
  932MOL0     H25810   9.125  10.540   8.288 -0.3933  0.4163  0.1826
  932MOL0     H25811   8.970  10.514   8.210 -2.1858  0.6014  1.3833
  932MOL0     H25812   9.037  10.423   8.492 -0.9758 -2.1209 -0.2257
  932MOL0     H25813   9.035  10.319   8.340 -1.2772  0.5073 -2.4815
  932MOL0     H25814   8.850  10.270   8.477  0.9789  0.2684  1.2058
  932MOL0     H25815   8.786  10.437   8.456 -0.5417  0.4854 -2.9854
  932MOL0     H25816   8.705  10.199   8.108 -0.4173  0.3114 -0.4054
  932MOL0     H25817   9.131  10.692   8.721  1.6103 -1.0359  0.6805
  932MOL0     H25818   9.368  10.935   8.855  2.3902 -0.2582 -0.4769
  932MOL0     H25819   9.281  10.790   8.895  1.6592  0.2439  0.2562
  932MOL0     H25820   9.435  10.766   8.826  0.1732 -0.3766 -0.7978
  933MOL0     O25821  11.084  10.891   9.586  0.3053 -0.3605 -0.7319
  933MOL0     C25822  11.032  10.953   9.497  0.1677 -0.6879  0.1995
  933MOL0     O25823  11.100  11.058   9.432  0.6916 -0.0544  0.0101
  933MOL0     C25824  11.228  11.085   9.470 -0.0085 -0.2214 -0.1465
  933MOL0     C25825  11.254  11.211   9.518 -0.0656  0.2731 -0.5941
  933MOL0     C25826  11.375  11.254   9.556 -0.5319 -0.0102  0.2597
  933MOL0     C25827  11.488  11.176   9.541 -0.0738  0.5465  0.7511
  933MOL0     O25828  11.620  11.208   9.582 -0.2584 -0.4376  0.5492
  933MOL0     C25829  11.637  11.316   9.671  0.3027 -0.1313  0.2970
  933MOL0     C25830  11.780  11.374   9.657 -0.0980 -0.2167  0.0824
  933MOL0     C25831  11.887  11.275   9.723  0.6037  0.2891  0.8473
  933MOL0     C25832  11.991  11.349   9.800  0.2357  0.1433  0.3028
  933MOL0     C25833  12.099  11.262   9.854  0.5340  0.2382 -0.1466
  933MOL0     C25834  12.175  11.325   9.966  0.1232 -0.1634 -0.4481
  933MOL0     C25835  12.304  11.244   9.997  0.0469  0.3158 -0.4465
  933MOL0     C25836  12.418  11.237   9.899 -0.3678 -0.2382  0.4292
  933MOL0     N25837  12.528  11.153   9.958  0.7712  0.4067  0.8660
  933MOL0     C25838  12.619  11.201  10.045 -0.1240 -0.9681  0.6078
  933MOL0     C25839  12.713  11.098  10.061  0.2937  0.2918 -0.5862
  933MOL0     C25840  12.847  11.095  10.145  0.0517  0.5096 -0.0300
  933MOL0     C25841  12.969  11.123  10.046  0.7463  0.2000 -0.8588
  933MOL0     C25842  13.099  11.145  10.114 -0.6537  0.0833 -0.4543
  933MOL0     C25843  13.159  11.012  10.161 -0.5482 -0.3521  0.9141
  933MOL0     O25844  13.271  11.036  10.249 -1.2802  0.2882 -0.4194
  933MOL0     C25845  13.387  10.967  10.229 -0.2813 -0.0807  0.0444
  933MOL0     C25846  13.402  10.825  10.219 -0.5360  0.2210  0.1717
  933MOL0     C25847  13.528  10.768  10.211 -0.1125  0.6640 -0.5317
  933MOL0     C25848  13.643  10.841  10.237 -0.2349  0.3404  0.0132
  933MOL0     C25849  13.777  10.783  10.222 -0.2177  0.0967 -0.3750
  933MOL0     O25850  13.879  10.865  10.217 -0.8568  0.8253 -0.4478
  933MOL0     C25851  14.006  10.812  10.234 -0.5472  0.4615 -1.1460
  933MOL0     C25852  14.040  10.797  10.367  0.5480  0.3635  0.1271
  933MOL0     C25853  14.172  10.761  10.401  0.0845 -0.0028  0.1634
  933MOL0     C25854  14.269  10.745  10.300 -0.4361  0.0021  0.3041
  933MOL0     O25855  14.395  10.719  10.335  0.6005 -0.3602  0.0089
  933MOL0     C25856  14.506  10.774  10.254 -0.1332 -0.2684  0.0007
  933MOL0     C25857  14.622  10.791  10.347  0.5788  0.5920 -0.3307
  933MOL0     C25858  14.730  10.884  10.307  0.4408  0.1045  0.1064
  933MOL0     C25859  14.824  10.805  10.207  0.3801 -0.3131 -0.0568
  933MOL0     C25860  14.955  10.863  10.162  0.3319 -0.6503  0.1478
  933MOL0     C25861  14.951  11.006  10.120  0.3287  0.0203 -0.2838
  933MOL0     C25862  14.856  11.030   9.995 -0.2320 -0.6669 -0.0802
  933MOL0     C25863  14.888  11.176   9.930 -0.7528 -0.5269  0.2372
  933MOL0    Cl25864  14.789  11.225   9.794  0.2464  0.4826 -0.0884
  933MOL0     C25865  14.227  10.762  10.162 -0.0739  0.2280 -0.4417
  933MOL0     C25866  14.103  10.792  10.131  0.0717 -0.7597 -0.7725
  933MOL0     O25867  13.787  10.662  10.216  0.1006  0.3492 -0.5104
  933MOL0     C25868  13.627  10.977  10.257  0.4641 -0.3421  0.5679
  933MOL0     C25869  13.498  11.038  10.255 -0.4912 -0.0613 -0.6300
  933MOL0     N25870  12.665  10.998   9.976 -0.3940 -0.2824  0.5813
  933MOL0     N25871  12.553  11.027   9.921 -0.1913  0.8956  0.0065
  933MOL0     C25872  11.470  11.044   9.497 -0.5846  0.0823 -0.2585
  933MOL0     C25873  11.342  11.002   9.461  0.4865  0.2005  0.5204
  933MOL0     C25874  10.899  10.905   9.437  0.1119 -0.7765  0.3456
  933MOL0     C25875  10.859  10.978   9.325  0.8664 -0.8815 -0.1113
  933MOL0     C25876  10.734  10.951   9.275  0.4902  0.0500  0.9722
  933MOL0     C25877  10.658  10.851   9.330  0.0161  0.9866 -0.3851
  933MOL0     O25878  10.534  10.828   9.278 -0.1341 -0.3385  0.2548
  933MOL0     C25879  10.453  10.941   9.249  0.3431  1.3030  0.3647
  933MOL0     C25880  10.313  10.893   9.217  0.2489 -0.3107  0.7463
  933MOL0     C25881  10.307  10.838   9.069 -0.6067 -0.5302 -0.3006
  933MOL0     C25882  10.183  10.765   9.029 -0.0299 -0.9775 -0.1912
  933MOL0     C25883  10.166  10.639   9.107 -0.1098 -0.0612 -0.3926
  933MOL0     C25884  10.129  10.538   9.167 -0.4321 -0.5520 -0.6583
  933MOL0     C25885  10.702  10.769   9.432  0.3991 -1.1429  0.1410
  933MOL0     C25886  10.834  10.791   9.487  0.8654  0.0878 -0.0377
  933MOL0     C25887  10.887  10.678   9.574  0.6330 -0.0895  0.3492
  933MOL0     H25888  11.173  11.284   9.517 -1.0171 -0.7714 -0.7999
  933MOL0     H25889  11.379  11.359   9.583  1.6927 -0.1875  0.8403
  933MOL0     H25890  11.585  11.409   9.645  0.9575  0.3054  0.5255
  933MOL0     H25891  11.610  11.288   9.773 -0.6242 -0.6507 -0.0782
  933MOL0     H25892  11.779  11.469   9.711 -1.3818 -1.0100  1.5648
  933MOL0     H25893  11.807  11.383   9.551 -0.5884 -1.9813 -0.2302
  933MOL0     H25894  11.933  11.228   9.636 -2.0651 -1.1987  0.1039
  933MOL0     H25895  11.839  11.201   9.788  0.2570 -1.2044 -1.0091
  933MOL0     H25896  12.026  11.430   9.735 -1.8096  1.3189  0.5530
  933MOL0     H25897  11.942  11.407   9.878 -3.0091 -1.4818 -0.3528
  933MOL0     H25898  12.048  11.169   9.881 -1.3708  1.4461  0.6259
  933MOL0     H25899  12.165  11.229   9.772 -0.2804 -2.6718  0.2674
  933MOL0     H25900  12.218  11.420   9.933  0.1232 -1.4541 -4.6418
  933MOL0     H25901  12.108  11.337  10.052 -1.1941  0.8037 -1.5700
  933MOL0     H25902  12.289  11.141  10.031  1.1101  0.3774  0.2428
  933MOL0     H25903  12.345  11.302  10.080  4.0291 -0.7501 -1.4835
  933MOL0     H25904  12.366  11.200   9.810 -0.8625  4.0991 -1.3091
  933MOL0     H25905  12.461  11.337   9.892 -0.1207  0.0727  4.1620
  933MOL0     H25906  12.624  11.300  10.088 -0.5583 -1.3261  1.5011
  933MOL0     H25907  12.848  11.170  10.224  0.1382 -0.3371  0.7808
  933MOL0     H25908  12.858  10.995  10.187  2.0958  1.1008  0.9302
  933MOL0     H25909  12.981  11.035   9.982 -0.2935 -0.4470 -0.1803
  933MOL0     H25910  12.954  11.206   9.976  1.1815  1.5985  0.6419
  933MOL0     H25911  13.095  11.217  10.197 -2.0447 -0.7418  0.2351
  933MOL0     H25912  13.170  11.186  10.041 -2.4322 -0.9256 -2.8903
  933MOL0     H25913  13.192  10.961  10.070  0.3956  1.4876  0.1792
  933MOL0     H25914  13.087  10.957  10.222 -0.9844 -0.8738 -0.0415
  933MOL0     H25915  13.300  10.789  10.212 -0.3659 -0.3058  0.3329
  933MOL0     H25916  13.533  10.663  10.185  0.1804  0.3088  0.8571
  933MOL0     H25917  13.971  10.796  10.451  0.8752  0.9706  0.4083
  933MOL0     H25918  14.199  10.744  10.505 -0.7121 -3.6745 -0.0825
  933MOL0     H25919  14.535  10.710  10.170  0.6003 -0.9639  0.7659
  933MOL0     H25920  14.474  10.869  10.211  0.8546  0.3911  0.7122
  933MOL0     H25921  14.589  10.834  10.442  0.8747  1.4903 -0.6274
  933MOL0     H25922  14.661  10.691  10.368 -1.3805  0.1122  1.3521
  933MOL0     H25923  14.697  10.976  10.258 -1.6211 -0.7866 -0.2818
  933MOL0     H25924  14.791  10.915  10.392 -2.3191  3.7839  1.0147
  933MOL0     H25925  14.770  10.794  10.113  1.2873  1.0614 -0.7785
  933MOL0     H25926  14.845  10.706  10.248  0.9971 -0.9973 -1.9559
  933MOL0     H25927  14.987  10.817  10.068  1.3375  2.1483 -1.0074
  933MOL0     H25928  15.040  10.852  10.230 -0.7255  1.4127  1.9227
  933MOL0     H25929  14.917  11.066  10.205 -5.0412  0.0491 -2.0244
  933MOL0     H25930  15.056  11.026  10.099  0.2897 -0.8499 -1.3835
  933MOL0     H25931  14.753  11.036  10.032  0.3102 -2.0770  1.8469
  933MOL0     H25932  14.868  10.946   9.927  2.0564 -2.7037  2.6047
  933MOL0     H25933  14.874  11.255  10.004  0.7950 -0.6869  0.7507
  933MOL0     H25934  14.996  11.191   9.916 -0.6369 -0.1362  1.4242
  933MOL0     H25935  14.311  10.766  10.093  0.8171 -1.3646  0.4796
  933MOL0     H25936  14.074  10.832  10.034  2.1121 -0.1258 -1.1646
  933MOL0     H25937  13.717  11.029  10.289 -0.3669  1.8080 -0.3793
  933MOL0     H25938  13.479  11.140  10.286 -0.4182  0.7032 -2.9417
  933MOL0     H25939  11.557  10.980   9.490 -1.3703 -1.1856  1.0506
  933MOL0     H25940  11.319  10.902   9.424  1.5398 -0.4580  1.6070
  933MOL0     H25941  10.913  11.062   9.282  1.4175  0.2201  2.5434
  933MOL0     H25942  10.690  10.989   9.183  2.6229  0.5997  0.1238
  933MOL0     H25943  10.490  10.982   9.154 -0.6835 -3.3415 -2.4084
  933MOL0     H25944  10.456  11.013   9.330  0.1712  2.4527 -0.6249
  933MOL0     H25945  10.244  10.978   9.223 -0.2968 -0.5699 -1.1187
  933MOL0     H25946  10.273  10.811   9.276 -3.1950  0.4911 -0.2172
  933MOL0     H25947  10.390  10.769   9.051 -2.5079 -3.0623  0.0618
  933MOL0     H25948  10.313  10.928   9.006 -0.2496 -1.5129 -1.7273
  933MOL0     H25949  10.097  10.832   9.039 -0.6866 -1.4091 -2.4741
  933MOL0     H25950  10.191  10.742   8.923 -0.3023  1.8543 -0.9020
  933MOL0     H25951  10.095  10.450   9.218 -1.7829 -0.2284 -0.9522
  933MOL0     H25952  10.639  10.686   9.464  0.1407 -0.5414  1.2618
  933MOL0     H25953  10.984  10.661   9.526  1.7998  1.5031  1.9984
  933MOL0     H25954  10.900  10.703   9.680  1.1255  1.8885 -0.1330
  933MOL0     H25955  10.828  10.586   9.564 -2.2265  1.6311  0.3882
  934MOL0     O25956  10.204   4.638   7.544  0.3185 -0.5058 -0.1140
  934MOL0     C25957  10.119   4.640   7.634  0.5852  0.3667 -0.6403
  934MOL0     O25958  10.125   4.566   7.748 -0.2759  0.2273 -0.0491
  934MOL0     C25959  10.251   4.518   7.788  0.2266 -1.0350  0.8476
  934MOL0     C25960  10.258   4.388   7.846 -0.4682 -0.3994 -0.3908
  934MOL0     C25961  10.385   4.346   7.903  0.2914 -0.3148  0.1124
  934MOL0     C25962  10.496   4.427   7.898 -0.9671 -0.2994  1.0156
  934MOL0     O25963  10.601   4.353   7.941  0.1537 -0.6033  0.1227
  934MOL0     C25964  10.715   4.436   7.972  0.1909 -0.0781  0.1517
  934MOL0     C25965  10.836   4.358   8.026  0.5611  0.5000  1.2795
  934MOL0     C25966  10.919   4.301   7.906  1.0904 -0.2468  0.1645
  934MOL0     C25967  11.009   4.406   7.838 -0.1682 -0.0753  0.4216
  934MOL0     C25968  11.097   4.341   7.730 -1.0251 -0.2568 -0.5612
  934MOL0     C25969  11.207   4.437   7.684  0.2656  0.3786  0.7060
  934MOL0     C25970  11.306   4.378   7.577  1.3324 -0.4431  0.1791
  934MOL0     C25971  11.369   4.493   7.493  1.0433 -0.5880  0.1391
  934MOL0     N25972  11.421   4.444   7.371 -0.4945 -0.0975  0.5327
  934MOL0     C25973  11.535   4.492   7.306 -2.0136 -0.4485 -0.3995
  934MOL0     C25974  11.538   4.427   7.186 -0.1442 -0.4267  0.2192
  934MOL0     C25975  11.640   4.459   7.078  0.6281 -0.2704  0.5122
  934MOL0     C25976  11.683   4.604   7.060  0.3289 -0.2474  0.6040
  934MOL0     C25977  11.783   4.623   6.940 -0.5714 -0.2455  0.3739
  934MOL0     C25978  11.924   4.564   6.980  0.5653  0.0693 -0.6037
  934MOL0     O25979  11.922   4.428   6.973 -0.1533 -0.6554  0.1519
  934MOL0     C25980  12.036   4.362   6.978  0.5335  0.0646  0.2513
  934MOL0     C25981  12.161   4.407   7.043  0.5426  0.6368  0.1866
  934MOL0     C25982  12.271   4.326   7.042 -0.2066  0.4069 -0.6269
  934MOL0     C25983  12.268   4.190   6.999  1.1083 -0.1217  0.2522
  934MOL0     C25984  12.373   4.100   7.022 -0.3646 -0.3471  0.0060
  934MOL0     O25985  12.506   4.153   7.034  0.3944  0.7798 -0.3660
  934MOL0     C25986  12.613   4.062   7.037  0.3591  0.0062  0.3710
  934MOL0     C25987  12.714   4.109   7.120 -0.6765 -0.6293  0.4175
  934MOL0     C25988  12.827   4.028   7.138  0.9242 -0.1510  0.9482
  934MOL0     C25989  12.832   3.901   7.073 -0.3916 -0.6337  0.4758
  934MOL0     O25990  12.942   3.822   7.093 -0.0376  0.3678  0.4537
  934MOL0     C25991  13.070   3.879   7.090 -0.4235 -0.1111 -0.2877
  934MOL0     C25992  13.182   3.776   7.082  0.0821 -0.4020 -0.8003
  934MOL0     C25993  13.202   3.698   7.210  0.7683  0.6651 -0.1885
  934MOL0     C25994  13.295   3.585   7.188 -0.1984 -0.7812  0.1968
  934MOL0     C25995  13.340   3.507   7.310 -0.4588  0.4440  0.6958
  934MOL0     C25996  13.443   3.409   7.285  0.2885  0.6631  0.6289
  934MOL0     C25997  13.417   3.307   7.167 -0.3282  0.5940  0.8150
  934MOL0     C25998  13.517   3.197   7.184 -0.3999  0.4895  0.7663
  934MOL0    Cl25999  13.472   3.075   7.294  0.2997  0.0412  0.3987
  934MOL0     C26000  12.736   3.869   6.977  0.7681  1.0839 -0.4645
  934MOL0     C26001  12.621   3.943   6.966 -0.3571 -0.1797  0.5663
  934MOL0     O26002  12.348   3.979   7.023  0.6162  0.7730  0.9378
  934MOL0     C26003  12.155   4.158   6.930 -0.1026 -0.2057  0.5997
  934MOL0     C26004  12.037   4.234   6.917 -0.1219 -0.2655  0.1034
  934MOL0     N26005  11.429   4.345   7.176  0.1772 -0.0071  0.7126
  934MOL0     N26006  11.364   4.355   7.283  0.1784  0.2575 -0.0641
  934MOL0     C26007  10.488   4.560   7.839 -0.1508  0.6077 -0.3843
  934MOL0     C26008  10.363   4.602   7.787  0.0040  0.2659  0.4177
  934MOL0     C26009   9.985   4.689   7.597  1.1586  0.3937  0.4637
  934MOL0     C26010   9.869   4.607   7.620  0.0558 -0.8230 -0.0383
  934MOL0     C26011   9.738   4.647   7.592 -0.2039  0.8109  0.3240
  934MOL0     C26012   9.711   4.766   7.526  0.8325  0.1622 -0.1548
  934MOL0     O26013   9.579   4.789   7.505 -0.3107  0.3621  0.2804
  934MOL0     C26014   9.549   4.918   7.448 -0.3069  0.9798  0.1786
  934MOL0     C26015   9.400   4.931   7.416 -0.8258 -0.0128  0.3843
  934MOL0     C26016   9.316   4.875   7.538 -0.1369 -0.6835  0.6307
  934MOL0     C26017   9.167   4.892   7.522  0.3436 -1.1474 -0.0565
  934MOL0     C26018   9.093   4.935   7.650  0.7847 -0.1433  1.0035
  934MOL0     C26019   9.041   4.960   7.756 -0.4210 -0.0938 -0.4024
  934MOL0     C26020   9.819   4.847   7.494  0.7528 -0.3480 -0.4660
  934MOL0     C26021   9.949   4.809   7.528 -0.3582  0.4559  0.5491
  934MOL0     C26022  10.059   4.913   7.506  0.4213 -0.0261  0.3217
  934MOL0     H26023  10.173   4.321   7.848 -0.5511 -0.2901 -0.2775
  934MOL0     H26024  10.392   4.243   7.937 -1.2680 -0.4103  0.2137
  934MOL0     H26025  10.740   4.499   7.886 -0.5180 -2.5367 -1.9597
  934MOL0     H26026  10.675   4.499   8.053 -0.4246  0.7092 -0.7451
  934MOL0     H26027  10.802   4.266   8.074  2.7984 -1.0762  0.0319
  934MOL0     H26028  10.903   4.420   8.086  0.1160  1.5684  0.7014
  934MOL0     H26029  10.848   4.266   7.831 -0.6176  4.0481 -0.4867
  934MOL0     H26030  10.981   4.214   7.931  1.0251 -0.5793 -0.8103
  934MOL0     H26031  10.955   4.492   7.799  1.0218 -0.1803 -1.6140
  934MOL0     H26032  11.083   4.439   7.912  0.0709 -2.4282  1.3354
  934MOL0     H26033  11.134   4.248   7.775  0.3274 -0.3114 -1.7246
  934MOL0     H26034  11.033   4.312   7.646  0.9044 -0.5587 -1.9790
  934MOL0     H26035  11.150   4.521   7.642  0.8885  0.8791  0.8367
  934MOL0     H26036  11.268   4.463   7.772 -0.5839  1.0043  1.1295
  934MOL0     H26037  11.234   4.319   7.519 -0.7121  2.2157 -0.1981
  934MOL0     H26038  11.387   4.317   7.618  1.0284 -0.7713  0.3043
  934MOL0     H26039  11.293   4.564   7.460  2.0712  0.7139  0.5119
  934MOL0     H26040  11.441   4.549   7.553  0.6652 -1.5848  1.5654
  934MOL0     H26041  11.599   4.567   7.350 -0.5602 -1.6959 -0.3002
  934MOL0     H26042  11.727   4.397   7.101  0.8121 -0.3113 -0.2624
  934MOL0     H26043  11.612   4.413   6.983 -0.1964 -0.1794  0.7095
  934MOL0     H26044  11.599   4.669   7.035  1.2395  0.8544  0.2819
  934MOL0     H26045  11.731   4.651   7.147  3.9214  0.2606 -1.4159
  934MOL0     H26046  11.790   4.730   6.917 -3.8782 -0.3090 -1.6043
  934MOL0     H26047  11.762   4.574   6.844 -0.8861  1.7574 -0.6286
  934MOL0     H26048  11.950   4.597   7.081 -0.3616 -1.0688  0.0442
  934MOL0     H26049  12.006   4.593   6.914  3.7452  1.9881  3.7070
  934MOL0     H26050  12.156   4.508   7.084 -1.2145  1.7626 -2.4725
  934MOL0     H26051  12.360   4.370   7.087 -0.0465 -0.2666 -0.2780
  934MOL0     H26052  12.721   4.207   7.166 -0.7258  0.4357 -1.7261
  934MOL0     H26053  12.900   4.047   7.216  2.0596 -0.5974  0.0081
  934MOL0     H26054  13.072   3.947   7.004  0.1817 -1.4837 -1.3902
  934MOL0     H26055  13.092   3.938   7.180 -0.7812 -0.8912  0.3203
  934MOL0     H26056  13.171   3.711   6.994 -2.7174 -0.3294 -0.5826
  934MOL0     H26057  13.273   3.834   7.064  0.0569 -0.7167 -2.0532
  934MOL0     H26058  13.244   3.767   7.284  1.6216 -0.8603  0.8175
  934MOL0     H26059  13.106   3.666   7.251  0.4503  2.0869  0.2320
  934MOL0     H26060  13.387   3.622   7.141  0.4459 -0.1337  1.8797
  934MOL0     H26061  13.241   3.520   7.119 -2.0029 -0.6319  1.3873
  934MOL0     H26062  13.261   3.447   7.356  0.1567 -2.9680 -2.2272
  934MOL0     H26063  13.374   3.583   7.381  0.2978  2.2274 -1.4498
  934MOL0     H26064  13.542   3.454   7.276  1.3406 -1.7453 -0.8124
  934MOL0     H26065  13.442   3.347   7.375 -0.1873  0.2111  0.3203
  934MOL0     H26066  13.419   3.357   7.070  1.7851  0.3023  0.6675
  934MOL0     H26067  13.319   3.258   7.173  1.0515 -2.4045  0.2267
  934MOL0     H26068  13.541   3.168   7.081 -0.7101 -0.5204  0.9756
  934MOL0     H26069  13.615   3.236   7.215 -0.1388 -1.4849  2.6201
  934MOL0     H26070  12.748   3.778   6.920  1.3886  1.5627 -1.1094
  934MOL0     H26071  12.542   3.918   6.896 -1.8906  4.2889  0.4003
  934MOL0     H26072  12.164   4.061   6.883  1.0778  0.1822 -0.0155
  934MOL0     H26073  11.949   4.189   6.872 -0.2311  0.6097 -0.5934
  934MOL0     H26074  10.572   4.623   7.811 -0.4927  0.5354 -1.6608
  934MOL0     H26075  10.350   4.697   7.737  0.4027  0.3699  0.5032
  934MOL0     H26076   9.885   4.506   7.656  0.9365 -1.4689 -2.1024
  934MOL0     H26077   9.659   4.580   7.622  1.4365 -1.9260 -1.0913
  934MOL0     H26078   9.605   4.928   7.355  0.1344 -1.1086  0.1713
  934MOL0     H26079   9.584   4.994   7.518 -1.4081  0.4697  1.3213
  934MOL0     H26080   9.386   4.864   7.331  4.1476 -1.1395  0.1374
  934MOL0     H26081   9.374   5.034   7.393 -0.8901  0.4963  2.4846
  934MOL0     H26082   9.345   4.925   7.631  1.5567 -3.0222  1.4265
  934MOL0     H26083   9.342   4.770   7.545 -0.1591 -0.8053 -0.9157
  934MOL0     H26084   9.142   4.968   7.448  0.0706  1.4133  2.4938
  934MOL0     H26085   9.127   4.793   7.500  0.0033 -0.9413 -0.3533
  934MOL0     H26086   8.987   4.984   7.846 -1.3625  1.8462 -1.4192
  934MOL0     H26087   9.809   4.947   7.453  1.4691 -0.3839 -0.7347
  934MOL0     H26088  10.137   4.913   7.582  0.6577  0.6214  0.0848
  934MOL0     H26089  10.113   4.889   7.414 -2.8197 -2.5882 -1.1136
  934MOL0     H26090  10.023   5.016   7.502  2.4157  0.6936 -1.3299
  935MOL0     O26091   2.068  11.057   6.421  0.6668  0.9769 -0.1129
  935MOL0     C26092   2.005  11.150   6.479  0.0398  0.0915 -0.0871
  935MOL0     O26093   2.030  11.191   6.608  0.5371  0.5485 -0.1846
  935MOL0     C26094   2.142  11.144   6.670  0.1429  0.5151  0.3535
  935MOL0     C26095   2.132  11.021   6.735  0.0798 -0.4039 -0.1029
  935MOL0     C26096   2.238  10.959   6.799 -0.3120 -0.5621  0.1851
  935MOL0     C26097   2.366  11.027   6.817 -0.1959  0.6427 -0.4354
  935MOL0     O26098   2.453  10.965   6.900 -0.4720 -0.2472  0.2415
  935MOL0     C26099   2.558  11.057   6.961  0.6553 -0.7437 -0.2240
  935MOL0     C26100   2.687  11.053   6.884 -0.1572 -0.1443  0.2943
  935MOL0     C26101   2.817  11.029   6.971  0.0123 -0.8337 -0.2067
  935MOL0     C26102   2.946  11.061   6.891 -0.2147 -0.3998  0.1760
  935MOL0     C26103   2.983  10.974   6.771  0.2462  0.0711  0.4345
  935MOL0     C26104   3.113  11.025   6.710  0.2414  0.5608  0.3411
  935MOL0     C26105   3.169  10.930   6.603  0.5680 -0.4199 -0.3978
  935MOL0     C26106   3.311  10.947   6.566 -0.4292 -0.8614  1.0609
  935MOL0     N26107   3.335  11.077   6.507 -0.3295  0.4069  0.5809
  935MOL0     C26108   3.390  11.180   6.570 -0.1602 -0.2741  0.6530
  935MOL0     C26109   3.382  11.283   6.482 -0.2573 -0.7371  0.7911
  935MOL0     C26110   3.423  11.426   6.521 -0.1710 -0.4410 -0.2530
  935MOL0     C26111   3.565  11.446   6.568  0.0849 -0.3270 -0.4699
  935MOL0     C26112   3.658  11.450   6.450 -0.2794 -0.0068  0.6315
  935MOL0     C26113   3.795  11.470   6.500  0.7540  0.3765  0.1292
  935MOL0     O26114   3.843  11.350   6.551 -0.9089  0.3274 -0.2036
  935MOL0     C26115   3.975  11.327   6.563  0.4111 -0.6238  1.2631
  935MOL0     C26116   4.070  11.426   6.577 -1.0835 -0.3360 -0.3686
  935MOL0     C26117   4.205  11.402   6.603  0.0530 -0.6898  0.2250
  935MOL0     C26118   4.260  11.274   6.607  0.0872  0.8521  0.9707
  935MOL0     C26119   4.402  11.247   6.631 -0.3217  0.0172 -0.2912
  935MOL0     O26120   4.436  11.122   6.670 -0.1020  0.5976 -0.1466
  935MOL0     C26121   4.564  11.086   6.719 -0.3766  0.9206 -0.6497
  935MOL0     C26122   4.572  11.004   6.826 -0.4208  0.4491 -0.8163
  935MOL0     C26123   4.691  10.966   6.886 -0.4075 -0.4737 -0.0607
  935MOL0     C26124   4.818  11.013   6.832 -0.6368  0.4149 -0.2130
  935MOL0     O26125   4.943  10.965   6.866 -0.9057  0.2679 -0.1966
  935MOL0     C26126   4.975  10.893   6.982 -0.3683 -0.4312 -0.7210
  935MOL0     C26127   5.129  10.848   6.982 -0.0892 -0.3587 -0.2286
  935MOL0     C26128   5.174  10.784   6.855 -0.4063  0.2034 -0.1536
  935MOL0     C26129   5.319  10.717   6.875  0.1965 -0.7540 -0.0358
  935MOL0     C26130   5.356  10.630   6.746  0.4813 -0.0026 -0.0482
  935MOL0     C26131   5.401  10.701   6.612 -0.8372  0.1842  0.0727
  935MOL0     C26132   5.548  10.741   6.620 -0.9572 -0.6178 -0.3006
  935MOL0     C26133   5.596  10.782   6.482  0.7708 -0.8382 -0.5348
  935MOL0    Cl26134   5.762  10.852   6.475  0.1292  0.2652 -0.1443
  935MOL0     C26135   4.810  11.103   6.723  0.4432  0.7221  0.1819
  935MOL0     C26136   4.687  11.136   6.662  1.1724 -0.6865 -0.0996
  935MOL0     O26137   4.476  11.347   6.633  0.0538 -0.2845 -0.7832
  935MOL0     C26138   4.165  11.170   6.601 -0.2925 -0.1966 -0.6674
  935MOL0     C26139   4.026  11.196   6.582  0.7445 -0.7695  0.0937
  935MOL0     N26140   3.316  11.245   6.373  0.1338 -0.3724  0.0460
  935MOL0     N26141   3.287  11.115   6.382  0.0365 -0.4302 -0.4161
  935MOL0     C26142   2.374  11.153   6.757  0.1537  0.6392  0.6080
  935MOL0     C26143   2.268  11.206   6.672  0.0690  0.3242 -0.2483
  935MOL0     C26144   1.896  11.229   6.402 -0.4142 -0.0107 -0.7979
  935MOL0     C26145   1.823  11.323   6.475  0.4940 -0.1742 -0.1064
  935MOL0     C26146   1.721  11.407   6.411 -0.8299 -0.0262 -0.0590
  935MOL0     C26147   1.674  11.376   6.278 -0.1887 -0.1735 -0.7273
  935MOL0     O26148   1.578  11.449   6.209 -0.4172  0.0446 -0.2941
  935MOL0     C26149   1.449  11.399   6.218 -0.5721 -0.6746  0.3505
  935MOL0     C26150   1.427  11.303   6.100 -0.5534 -0.9429  1.2692
  935MOL0     C26151   1.306  11.216   6.127 -0.1424  0.0848 -0.5988
  935MOL0     C26152   1.338  11.066   6.136 -0.1680 -0.1768  0.8992
  935MOL0     C26153   1.407  11.030   6.261 -0.5445 -1.0616 -0.0731
  935MOL0     C26154   1.467  11.015   6.361  0.3630  0.0627 -1.2048
  935MOL0     C26155   1.744  11.277   6.212 -0.2126 -0.2299  0.0367
  935MOL0     C26156   1.859  11.211   6.265  0.0204  0.1800 -0.1822
  935MOL0     C26157   1.923  11.105   6.173 -0.4552 -0.0871 -0.3487
  935MOL0     H26158   2.032  10.980   6.729  0.1248 -0.4482 -0.5454
  935MOL0     H26159   2.230  10.860   6.841  0.6442 -0.4062  0.7895
  935MOL0     H26160   2.519  11.158   6.972 -1.6988 -1.5448 -0.6299
  935MOL0     H26161   2.564  11.018   7.063 -1.7143 -1.9468 -0.4941
  935MOL0     H26162   2.703  11.146   6.828 -2.0379  0.5018  0.7424
  935MOL0     H26163   2.685  10.967   6.816 -5.1754 -0.2863  0.2414
  935MOL0     H26164   2.816  10.927   7.011  1.2385 -0.9041 -0.3472
  935MOL0     H26165   2.811  11.101   7.054  1.6159  2.4966 -2.7458
  935MOL0     H26166   2.930  11.165   6.861 -1.0775 -0.4122  0.5609
  935MOL0     H26167   3.027  11.063   6.965  0.0660  0.2324 -0.1390
  935MOL0     H26168   2.997  10.872   6.807 -4.4720 -0.6539  0.8488
  935MOL0     H26169   2.898  10.981   6.703 -1.6058  2.2913  2.7635
  935MOL0     H26170   3.101  11.124   6.665  0.0639 -0.6637 -2.5845
  935MOL0     H26171   3.186  11.032   6.791  0.9858  1.9357 -0.4042
  935MOL0     H26172   3.106  10.951   6.517 -0.2303 -1.3066 -0.0374
  935MOL0     H26173   3.149  10.826   6.630  0.6714 -1.5841 -4.2784
  935MOL0     H26174   3.383  10.922   6.644  1.1546 -2.2546 -0.7531
  935MOL0     H26175   3.326  10.884   6.478 -2.1003 -3.5422  2.5410
  935MOL0     H26176   3.426  11.184   6.672 -0.9122 -0.4607  0.9340
  935MOL0     H26177   3.398  11.500   6.444  1.6535  1.8167  1.1875
  935MOL0     H26178   3.351  11.451   6.599  1.0243  0.7127  0.5091
  935MOL0     H26179   3.558  11.542   6.621  0.5859  1.0963 -2.8518
  935MOL0     H26180   3.601  11.369   6.637  2.1949 -0.3829 -1.5640
  935MOL0     H26181   3.626  11.529   6.382 -0.1034 -0.7035 -0.2880
  935MOL0     H26182   3.657  11.363   6.384 -2.5930 -0.3278  0.9897
  935MOL0     H26183   3.808  11.555   6.566  0.2924 -1.3275  2.5710
  935MOL0     H26184   3.850  11.506   6.413 -0.1633  0.8569 -0.2610
  935MOL0     H26185   4.054  11.532   6.566 -0.0166  0.0843  1.7372
  935MOL0     H26186   4.261  11.492   6.625  0.2746 -0.5166 -0.9852
  935MOL0     H26187   4.484  10.959   6.870 -1.8109  2.5260 -1.2722
  935MOL0     H26188   4.682  10.888   6.962 -4.3711  0.4206  0.6125
  935MOL0     H26189   4.958  10.956   7.070 -1.1198 -0.0167 -1.1511
  935MOL0     H26190   4.924  10.796   6.981  2.9729 -2.4141  1.0065
  935MOL0     H26191   5.195  10.933   6.999  1.1431 -1.1552 -0.8913
  935MOL0     H26192   5.136  10.780   7.068  0.3401  1.0070  0.8628
  935MOL0     H26193   5.104  10.704   6.828  0.7151 -1.1187  0.7000
  935MOL0     H26194   5.174  10.848   6.767  0.3159 -0.4148 -0.6226
  935MOL0     H26195   5.324  10.648   6.960 -0.9500 -2.2074 -1.0844
  935MOL0     H26196   5.389  10.801   6.878 -0.4778 -0.1410 -0.7920
  935MOL0     H26197   5.263  10.581   6.713 -2.0046  0.3447  5.3866
  935MOL0     H26198   5.430  10.554   6.770  0.4583 -0.0056  0.0141
  935MOL0     H26199   5.375  10.639   6.526 -2.5413  2.4395 -1.1564
  935MOL0     H26200   5.340  10.791   6.597 -2.9425 -0.9298  1.3983
  935MOL0     H26201   5.600  10.652   6.655 -1.0700  0.7818  4.0348
  935MOL0     H26202   5.563  10.825   6.689 -1.0136  1.2432 -2.4077
  935MOL0     H26203   5.590  10.691   6.422  1.1035 -1.0775 -0.2035
  935MOL0     H26204   5.523  10.856   6.447  0.4017 -0.4148  1.0590
  935MOL0     H26205   4.895  11.149   6.672  1.6928 -0.4172  1.1651
  935MOL0     H26206   4.678  11.207   6.581 -0.2580 -0.2994  0.3613
  935MOL0     H26207   4.193  11.065   6.603 -1.1509 -0.4432 -0.8319
  935MOL0     H26208   3.964  11.107   6.583  2.5314 -2.1129  2.4636
  935MOL0     H26209   2.462  11.211   6.783  0.5358  0.1335  0.4525
  935MOL0     H26210   2.268  11.302   6.622 -0.2013  0.4113 -0.0823
  935MOL0     H26211   1.839  11.314   6.582  1.4608 -3.3470 -0.4123
  935MOL0     H26212   1.668  11.489   6.457 -3.0676  0.6035 -3.4138
  935MOL0     H26213   1.372  11.477   6.218 -0.3970 -0.4574 -1.4886
  935MOL0     H26214   1.436  11.349   6.315 -1.0344  1.3592  1.4059
  935MOL0     H26215   1.515  11.243   6.074  0.7142  1.2690  0.1893
  935MOL0     H26216   1.418  11.367   6.012  3.2089 -2.1371 -0.1771
  935MOL0     H26217   1.231  11.229   6.049 -1.6912  2.9848  1.1874
  935MOL0     H26218   1.252  11.254   6.215  0.3959  1.8294 -0.9895
  935MOL0     H26219   1.244  11.010   6.125 -0.6766  0.7114  0.6128
  935MOL0     H26220   1.389  11.052   6.041  1.5506  0.7417  1.6479
  935MOL0     H26221   1.519  11.001   6.453  1.4272 -1.1893 -1.9636
  935MOL0     H26222   1.706  11.246   6.115 -1.9390  2.9370 -0.4344
  935MOL0     H26223   2.031  11.110   6.185 -0.7712  1.2953  3.1957
  935MOL0     H26224   1.888  11.006   6.202  0.8045 -0.6914 -0.8323
  935MOL0     H26225   1.897  11.123   6.068 -2.9202 -0.1487  0.1869
  936MOL0     O26226   7.015   0.894   6.871 -0.3392 -0.2896 -0.6735
  936MOL0     C26227   6.979   0.864   6.987  0.7497  0.3983  0.4249
  936MOL0     O26228   7.058   0.846   7.088 -0.9711  0.1069 -0.7820
  936MOL0     C26229   7.190   0.887   7.078  0.2092  0.7371 -1.0105
  936MOL0     C26230   7.230   1.001   7.137  0.2490 -0.3006  0.4681
  936MOL0     C26231   7.359   1.040   7.135 -0.3522 -0.1989  0.2826
  936MOL0     C26232   7.450   0.979   7.049  0.3325  0.2919  0.6652
  936MOL0     O26233   7.570   1.045   7.023 -0.1674  0.9395 -0.0361
  936MOL0     C26234   7.660   0.994   6.928 -0.5836 -0.7415  1.0393
  936MOL0     C26235   7.806   1.041   6.942  0.4833 -0.1871 -0.4771
  936MOL0     C26236   7.881   0.990   6.810 -0.4251 -0.4905 -0.2580
  936MOL0     C26237   8.037   1.012   6.817  0.7677  0.1917 -0.3915
  936MOL0     C26238   8.120   0.927   6.731 -0.6488 -0.3689  0.2338
  936MOL0     C26239   8.076   0.940   6.586  0.4242 -0.3566 -0.0317
  936MOL0     C26240   8.181   0.856   6.502  0.5133  0.6430  0.3855
  936MOL0     C26241   8.120   0.857   6.355 -0.4601 -1.4375  0.2106
  936MOL0     N26242   8.210   0.794   6.264 -1.3500  0.0817  1.3949
  936MOL0     C26243   8.283   0.863   6.166  0.1365 -1.1257 -0.0415
  936MOL0     C26244   8.369   0.763   6.123  0.0477 -0.3602 -0.3180
  936MOL0     C26245   8.458   0.767   5.999  0.0392 -0.3031 -0.1169
  936MOL0     C26246   8.494   0.616   5.959  0.0146  0.0924 -0.2683
  936MOL0     C26247   8.603   0.622   5.854  0.0563  0.0965  0.0481
  936MOL0     C26248   8.742   0.661   5.908 -0.6219 -0.3746 -0.9099
  936MOL0     O26249   8.837   0.715   5.815  0.0552 -0.5397  0.2043
  936MOL0     C26250   8.937   0.634   5.776  0.6113  0.7933  0.0648
  936MOL0     C26251   8.919   0.494   5.745  0.6981 -0.1351 -0.6212
  936MOL0     C26252   9.028   0.413   5.699  0.4832 -0.1140  0.3452
  936MOL0     C26253   9.156   0.474   5.699 -0.6310  0.1717 -0.0475
  936MOL0     C26254   9.275   0.394   5.648 -0.0171  0.1827 -0.4697
  936MOL0     O26255   9.394   0.437   5.706  0.1662  0.0202 -0.5908
  936MOL0     C26256   9.512   0.374   5.677  0.3373  0.2419  0.3610
  936MOL0     C26257   9.559   0.344   5.546 -0.3020 -0.0348 -0.5592
  936MOL0     C26258   9.686   0.282   5.521 -0.7709 -0.2088 -0.2184
  936MOL0     C26259   9.766   0.241   5.633  0.3339 -0.6551  0.2666
  936MOL0     O26260   9.889   0.184   5.616 -0.4785  0.6016 -0.1079
  936MOL0     C26261   9.933   0.152   5.488 -0.2436  0.2654  0.8961
  936MOL0     C26262  10.063   0.071   5.492  0.2542 -0.3256  0.3327
  936MOL0     C26263  10.184   0.150   5.547 -0.3876  0.2697 -0.2967
  936MOL0     C26264  10.215   0.127   5.694 -1.0064 -0.6047 -0.1889
  936MOL0     C26265  10.308   0.232   5.756 -0.1197 -0.5606  0.2594
  936MOL0     C26266  10.454   0.200   5.736  0.0420 -0.4948 -0.2830
  936MOL0     C26267  10.535   0.307   5.799 -1.0132 -0.4976  1.2388
  936MOL0     C26268  10.676   0.255   5.829  0.0115  0.2233  0.1539
  936MOL0    Cl26269  10.763   0.235   5.671  0.0568 -0.0935 -0.2231
  936MOL0     C26270   9.719   0.271   5.758 -0.9855  1.4919  0.9425
  936MOL0     C26271   9.602   0.330   5.784  1.0445  0.0404  0.0350
  936MOL0     O26272   9.261   0.297   5.567 -0.0203  0.0184  0.5294
  936MOL0     C26273   9.172   0.605   5.747  0.0701  1.1881 -0.1801
  936MOL0     C26274   9.063   0.689   5.779  0.4036 -0.0130  0.1361
  936MOL0     N26275   8.356   0.652   6.205  0.0887  1.0877  0.2206
  936MOL0     N26276   8.251   0.663   6.275  1.0668  0.0921  0.1651
  936MOL0     C26277   7.407   0.858   6.985  0.4541 -0.8185 -0.3350
  936MOL0     C26278   7.275   0.807   7.000 -0.3859  0.4089  0.1239
  936MOL0     C26279   6.830   0.841   7.006  0.2498  0.5861 -1.1341
  936MOL0     C26280   6.744   0.906   6.906  0.5135  0.3551  0.2027
  936MOL0     C26281   6.602   0.883   6.920 -0.4534  0.3514 -0.1420
  936MOL0     C26282   6.552   0.800   7.019  0.7504  0.2090 -0.2124
  936MOL0     O26283   6.413   0.798   7.035  0.0109 -0.0028  0.7686
  936MOL0     C26284   6.362   0.720   7.139 -0.2609  0.6451 -0.1383
  936MOL0     C26285   6.206   0.724   7.132 -0.1400 -0.6239 -0.5339
  936MOL0     C26286   6.141   0.617   7.227 -0.2420 -0.1830  0.3877
  936MOL0     C26287   5.996   0.654   7.269 -0.1100 -0.0136  0.4297
  936MOL0     C26288   5.899   0.628   7.163 -0.3103 -0.2715 -0.6690
  936MOL0     C26289   5.819   0.603   7.079 -0.1009 -0.5379  0.5181
  936MOL0     C26290   6.639   0.738   7.115 -0.2649 -0.2067 -0.2382
  936MOL0     C26291   6.778   0.752   7.105 -0.8097 -0.8144 -0.2447
  936MOL0     C26292   6.867   0.671   7.198  0.4597  0.1075  0.1342
  936MOL0     H26293   7.153   1.051   7.195 -2.6166 -1.4935 -2.0280
  936MOL0     H26294   7.396   1.122   7.196  0.5720  0.0631 -0.5941
  936MOL0     H26295   7.656   0.885   6.920 -1.9800 -0.5308 -2.5836
  936MOL0     H26296   7.628   1.022   6.828  0.9942 -0.6928  0.5188
  936MOL0     H26297   7.858   1.004   7.031  2.5073  0.6773 -1.2565
  936MOL0     H26298   7.810   1.150   6.941  1.1257  0.1272  4.9014
  936MOL0     H26299   7.850   1.047   6.722  3.5951  1.5451 -0.6171
  936MOL0     H26300   7.856   0.886   6.785  2.0767 -2.1541  3.1925
  936MOL0     H26301   8.051   1.119   6.803  1.9410  0.1146  0.0054
  936MOL0     H26302   8.071   0.988   6.919  2.1296  1.7613 -0.4286
  936MOL0     H26303   8.223   0.964   6.738 -1.0105  0.8411 -0.5701
  936MOL0     H26304   8.129   0.820   6.750  0.3653 -0.6938 -1.7961
  936MOL0     H26305   7.971   0.910   6.578 -0.1940  0.9326  2.1670
  936MOL0     H26306   8.087   1.047   6.563  3.2880 -0.1321  1.8765
  936MOL0     H26307   8.190   0.753   6.537 -1.1604  0.1131 -0.6463
  936MOL0     H26308   8.282   0.895   6.515  0.2691  0.9551  1.4095
  936MOL0     H26309   8.029   0.797   6.348 -1.0350 -0.3818 -3.3034
  936MOL0     H26310   8.086   0.953   6.316  2.1690 -0.8198 -0.8162
  936MOL0     H26311   8.262   0.967   6.144  2.2263 -0.7910 -0.6614
  936MOL0     H26312   8.411   0.826   5.920 -0.5276  0.8779  1.0486
  936MOL0     H26313   8.547   0.825   6.024 -0.5200  1.0141 -1.0479
  936MOL0     H26314   8.529   0.562   6.047  0.8854  0.5726 -0.3089
  936MOL0     H26315   8.412   0.556   5.918 -0.7356  1.0470 -0.1766
  936MOL0     H26316   8.569   0.694   5.778 -1.9215  1.6443  2.2758
  936MOL0     H26317   8.614   0.529   5.797 -1.6613  0.2939 -0.6752
  936MOL0     H26318   8.789   0.577   5.960  0.4629  1.3248  0.9911
  936MOL0     H26319   8.729   0.735   5.988  0.5950  0.3673 -1.3817
  936MOL0     H26320   8.823   0.444   5.749  2.3165 -3.4355  1.4618
  936MOL0     H26321   9.017   0.307   5.682 -2.2870 -0.0944  1.5446
  936MOL0     H26322   9.499   0.371   5.459  0.3513 -1.3322 -1.4445
  936MOL0     H26323   9.718   0.267   5.419  0.8327 -4.5035  0.6765
  936MOL0     H26324   9.860   0.093   5.433  0.2903 -0.5429  1.0394
  936MOL0     H26325   9.956   0.244   5.434 -2.2506 -0.3397 -1.1091
  936MOL0     H26326  10.057  -0.020   5.553  0.9108 -1.3966 -1.1372
  936MOL0     H26327  10.079   0.049   5.386  0.5531  0.8678  0.1180
  936MOL0     H26328  10.276   0.109   5.504 -1.5149 -4.3861  1.1332
  936MOL0     H26329  10.183   0.256   5.521  3.4190  0.0592 -2.0315
  936MOL0     H26330  10.266   0.029   5.696  0.2738  0.0361 -0.3135
  936MOL0     H26331  10.123   0.106   5.749  0.0797  0.2535  2.0694
  936MOL0     H26332  10.285   0.232   5.863 -0.6127  2.4344  0.2210
  936MOL0     H26333  10.291   0.332   5.715 -2.8472 -0.1573  2.1852
  936MOL0     H26334  10.475   0.107   5.790  1.5412  0.2502  0.4589
  936MOL0     H26335  10.482   0.207   5.631 -2.4492  0.8084 -0.9298
  936MOL0     H26336  10.482   0.344   5.887 -2.2439  1.7265 -0.3477
  936MOL0     H26337  10.552   0.394   5.734 -0.0014  0.7595  3.0961
  936MOL0     H26338  10.732   0.330   5.886  0.7245  0.8804 -1.3662
  936MOL0     H26339  10.661   0.164   5.887 -2.3038 -0.3714 -1.2626
  936MOL0     H26340   9.779   0.219   5.832  0.4269  0.7735 -0.6282
  936MOL0     H26341   9.560   0.329   5.884  0.4278  0.3326 -0.2159
  936MOL0     H26342   9.271   0.648   5.757  0.5112 -0.2260  2.5313
  936MOL0     H26343   9.070   0.797   5.789 -0.2894  0.3230 -2.2819
  936MOL0     H26344   7.480   0.792   6.939  0.6795 -0.2647 -0.7803
  936MOL0     H26345   7.237   0.721   6.947 -0.2042 -0.4180  1.3015
  936MOL0     H26346   6.770   0.964   6.818  0.1844 -0.5110 -0.4769
  936MOL0     H26347   6.534   0.940   6.857  0.0516  1.0397 -0.0817
  936MOL0     H26348   6.396   0.767   7.232  0.7798  0.2021 -0.2902
  936MOL0     H26349   6.404   0.620   7.129  1.3086  1.3414 -0.8885
  936MOL0     H26350   6.164   0.698   7.035 -2.0518 -0.2132  0.1276
  936MOL0     H26351   6.177   0.828   7.151  2.1109 -0.4877  3.2182
  936MOL0     H26352   6.200   0.617   7.319  1.6302 -0.4689 -0.7592
  936MOL0     H26353   6.154   0.519   7.180  3.6922  0.2585  0.1803
  936MOL0     H26354   5.954   0.598   7.354 -3.4266 -1.7202 -2.1023
  936MOL0     H26355   5.999   0.759   7.299  0.6695  0.4493 -1.1691
  936MOL0     H26356   5.738   0.582   7.013  0.1929 -1.1804  0.3597
  936MOL0     H26357   6.598   0.668   7.187 -3.6925 -1.5447 -3.1320
  936MOL0     H26358   6.944   0.621   7.139  2.2387  0.9624  1.6563
  936MOL0     H26359   6.910   0.734   7.276 -2.2678 -0.8695  2.6523
  936MOL0     H26360   6.803   0.599   7.250 -1.1199 -1.1927 -3.2796
  937MOL0     O26361   5.289   6.764   4.937  1.0986  0.5373  0.0645
  937MOL0     C26362   5.342   6.738   5.049 -0.1941  0.6034  0.2016
  937MOL0     O26363   5.472   6.693   5.054  0.2694  0.3985 -0.5531
  937MOL0     C26364   5.564   6.705   4.955  0.2442 -0.7685 -1.1319
  937MOL0     C26365   5.562   6.812   4.867  0.1309 -0.3375  0.4182
  937MOL0     C26366   5.667   6.825   4.774  0.4136 -0.0652 -0.0189
  937MOL0     C26367   5.774   6.736   4.764  0.2512  0.7677  0.2205
  937MOL0     O26368   5.872   6.774   4.687 -0.3040 -0.4484  0.1127
  937MOL0     C26369   6.001   6.718   4.722 -0.2335 -0.1563  0.9869
  937MOL0     C26370   6.098   6.794   4.631  0.2879 -0.2222  0.8911
  937MOL0     C26371   6.241   6.751   4.643 -0.0067  0.0665  0.0177
  937MOL0     C26372   6.288   6.688   4.513  0.0702 -0.2542  0.7850
  937MOL0     C26373   6.439   6.659   4.522 -0.3965 -0.7441 -0.2669
  937MOL0     C26374   6.488   6.607   4.393 -0.1517  0.1592 -0.5991
  937MOL0     C26375   6.632   6.558   4.386 -0.4256  0.5134  0.2941
  937MOL0     C26376   6.663   6.501   4.247 -0.1201 -0.8140  0.2291
  937MOL0     N26377   6.805   6.469   4.234  0.1187 -0.4842 -0.3055
  937MOL0     C26378   6.871   6.355   4.279  0.5210 -0.8874  0.6947
  937MOL0     C26379   6.986   6.351   4.212  1.1279 -0.2364  0.4568
  937MOL0     C26380   7.085   6.243   4.212 -0.1647 -0.5629  1.2914
  937MOL0     C26381   7.173   6.233   4.338 -0.4769  0.4715  0.0221
  937MOL0     C26382   7.300   6.301   4.320 -0.0233 -0.1951  0.4309
  937MOL0     C26383   7.381   6.294   4.448 -1.0042  0.5885  0.2156
  937MOL0     O26384   7.467   6.174   4.447 -0.1438 -1.0037  0.5732
  937MOL0     C26385   7.591   6.172   4.393  0.5052 -0.5038 -1.2932
  937MOL0     C26386   7.653   6.049   4.408  0.4007  0.1383 -0.0846
  937MOL0     C26387   7.791   6.031   4.373  0.1053  0.2755  0.7511
  937MOL0     C26388   7.850   6.139   4.298 -1.2647  0.1422 -0.2410
  937MOL0     C26389   7.994   6.124   4.257 -0.3447  0.3164 -0.9696
  937MOL0     O26390   8.043   6.215   4.168 -0.2052 -0.2846  0.3969
  937MOL0     C26391   8.180   6.221   4.148  0.0817  0.5636  0.4286
  937MOL0     C26392   8.251   6.109   4.098  0.0485 -0.1620  0.8847
  937MOL0     C26393   8.388   6.107   4.078 -1.1397 -0.9236 -0.0985
  937MOL0     C26394   8.458   6.227   4.114 -1.0041 -0.8158  0.2806
  937MOL0     O26395   8.596   6.217   4.096 -0.1263  0.1919 -0.1779
  937MOL0     C26396   8.667   6.341   4.109  0.2145  0.3148 -0.7480
  937MOL0     C26397   8.814   6.296   4.114 -0.3616 -0.1393  0.2358
  937MOL0     C26398   8.864   6.236   3.980 -0.3651 -0.0442 -0.3333
  937MOL0     C26399   9.004   6.175   3.979  0.1571  1.1798  0.1168
  937MOL0     C26400   9.109   6.289   3.976  1.0455  0.2022  1.0143
  937MOL0     C26401   9.244   6.223   3.991 -1.1692 -0.3028  0.8506
  937MOL0     C26402   9.366   6.319   3.987  0.5464 -0.7946 -0.2666
  937MOL0     C26403   9.491   6.258   4.031 -0.4111 -0.4887 -0.7889
  937MOL0    Cl26404   9.480   6.263   4.209 -0.0303  0.0795  0.2361
  937MOL0     C26405   8.392   6.346   4.156  0.1337  0.4613 -0.1829
  937MOL0     C26406   8.254   6.339   4.176  0.4775  0.3246  0.0535
  937MOL0     O26407   8.057   6.043   4.320 -0.6292 -0.3314 -0.0347
  937MOL0     C26408   7.784   6.256   4.284 -0.7894 -0.5022 -0.2729
  937MOL0     C26409   7.655   6.276   4.329  0.2014  0.1124  0.8461
  937MOL0     N26410   6.993   6.474   4.133  1.2225 -0.0605 -0.4567
  937MOL0     N26411   6.887   6.538   4.150  0.2279 -0.3873  0.7280
  937MOL0     C26412   5.768   6.630   4.860 -0.2088 -0.2485 -0.3505
  937MOL0     C26413   5.668   6.621   4.961 -0.7826  0.5309  0.4237
  937MOL0     C26414   5.262   6.753   5.172 -0.1037 -0.1069  0.6285
  937MOL0     C26415   5.330   6.752   5.298  0.1711  0.2150 -0.3100
  937MOL0     C26416   5.266   6.775   5.418  0.3627 -0.6997 -0.0867
  937MOL0     C26417   5.125   6.780   5.415 -0.2039 -0.2375 -0.0705
  937MOL0     O26418   5.062   6.799   5.534  0.4567 -0.3874  0.3476
  937MOL0     C26419   4.945   6.874   5.538 -0.0904 -0.3738 -0.4906
  937MOL0     C26420   4.908   6.890   5.683 -0.1565  0.5529 -0.5377
  937MOL0     C26421   4.753   6.893   5.706  0.3269 -0.0914 -0.1636
  937MOL0     C26422   4.704   6.953   5.838  0.3791  0.1399 -0.0485
  937MOL0     C26423   4.764   6.881   5.949 -0.0342 -0.0934  0.4985
  937MOL0     C26424   4.812   6.804   6.032 -0.5922 -0.2882 -0.0219
  937MOL0     C26425   5.053   6.788   5.295 -0.2031  0.3742  0.1399
  937MOL0     C26426   5.120   6.767   5.169 -0.0120 -0.5201 -0.4814
  937MOL0     C26427   5.018   6.762   5.054 -0.8230 -0.0698  0.3030
  937MOL0     H26428   5.473   6.874   4.861  0.9363  0.7023 -2.3235
  937MOL0     H26429   5.674   6.898   4.694  2.3184  0.1950  0.3273
  937MOL0     H26430   6.018   6.721   4.830 -2.8265 -3.5984  1.6674
  937MOL0     H26431   6.006   6.615   4.684 -0.3706 -0.1618  0.9833
  937MOL0     H26432   6.088   6.899   4.662 -3.6288 -0.5157  1.1204
  937MOL0     H26433   6.069   6.775   4.528 -0.2749 -3.7660  1.5916
  937MOL0     H26434   6.250   6.682   4.727  1.0330  0.1424 -0.0210
  937MOL0     H26435   6.294   6.845   4.662 -4.0536  2.5415  0.2086
  937MOL0     H26436   6.241   6.590   4.505  1.8724 -1.0483 -0.9817
  937MOL0     H26437   6.266   6.755   4.429 -3.5676 -0.5406  1.3830
  937MOL0     H26438   6.496   6.749   4.547 -0.5234 -0.7529  0.0657
  937MOL0     H26439   6.459   6.585   4.600  2.4574 -0.4948 -0.6593
  937MOL0     H26440   6.413   6.529   4.373 -1.7978  1.3865  0.4974
  937MOL0     H26441   6.476   6.693   4.326  0.9113  1.0667  0.3453
  937MOL0     H26442   6.638   6.475   4.457  0.8177 -0.2087 -0.6225
  937MOL0     H26443   6.695   6.646   4.404  1.7773 -0.4448 -1.9932
  937MOL0     H26444   6.597   6.415   4.228 -1.1449 -0.3115  1.3915
  937MOL0     H26445   6.637   6.581   4.178  0.6050 -1.0037 -0.2771
  937MOL0     H26446   6.835   6.294   4.361  0.9975 -0.5437  1.1712
  937MOL0     H26447   7.028   6.151   4.201 -0.9514 -0.4263  3.5326
  937MOL0     H26448   7.146   6.259   4.123 -2.3334  2.9917  0.2365
  937MOL0     H26449   7.115   6.265   4.425 -4.0719 -0.7205 -1.7254
  937MOL0     H26450   7.191   6.125   4.344  0.1595  0.5849  0.1493
  937MOL0     H26451   7.282   6.405   4.293 -0.5160 -0.5862 -0.8597
  937MOL0     H26452   7.363   6.251   4.246  1.9164  0.2581  1.6961
  937MOL0     H26453   7.309   6.275   4.527 -0.8725 -1.7366 -0.1316
  937MOL0     H26454   7.440   6.385   4.461  0.3756  0.0680 -1.7817
  937MOL0     H26455   7.604   5.969   4.461 -0.7668  1.6582  1.2293
  937MOL0     H26456   7.845   5.937   4.381 -3.8693 -2.3023  0.4937
  937MOL0     H26457   8.209   6.010   4.082  1.8816 -0.5960 -2.1426
  937MOL0     H26458   8.446   6.017   4.059  1.6153  0.7269 -0.0205
  937MOL0     H26459   8.658   6.403   4.019  0.7220 -2.4472 -2.8333
  937MOL0     H26460   8.639   6.398   4.198 -1.1283 -1.3579 -0.0422
  937MOL0     H26461   8.880   6.380   4.137 -1.1573  1.6093 -3.1160
  937MOL0     H26462   8.831   6.213   4.183 -0.1912 -1.2495 -1.0850
  937MOL0     H26463   8.791   6.164   3.942  1.8481 -2.4629 -0.2749
  937MOL0     H26464   8.862   6.322   3.913  0.8811 -0.8208 -1.4171
  937MOL0     H26465   9.019   6.114   3.890 -0.9813  0.4230  0.4216
  937MOL0     H26466   9.014   6.115   4.070  0.7230  1.0779 -0.0100
  937MOL0     H26467   9.091   6.368   4.049 -3.1228  0.9624 -0.5833
  937MOL0     H26468   9.112   6.339   3.879 -0.8631  1.3110  1.5023
  937MOL0     H26469   9.240   6.168   4.085 -1.2725 -0.7925  0.5619
  937MOL0     H26470   9.251   6.152   3.908 -1.6418 -1.3617  1.7051
  937MOL0     H26471   9.330   6.403   4.048 -1.1474  0.1079 -2.3769
  937MOL0     H26472   9.380   6.367   3.889 -1.6216 -0.9045 -0.6763
  937MOL0     H26473   9.496   6.155   3.995  0.0050 -1.7191  2.5105
  937MOL0     H26474   9.576   6.316   3.993  0.1838  0.0243  1.2346
  937MOL0     H26475   8.426   6.444   4.187 -2.5379  1.1380  0.8036
  937MOL0     H26476   8.212   6.436   4.202  0.6660 -0.2362  2.8215
  937MOL0     H26477   7.842   6.333   4.234  0.7360 -0.1773  1.8393
  937MOL0     H26478   7.603   6.372   4.330 -1.7030 -0.8727  0.7226
  937MOL0     H26479   5.847   6.555   4.857 -0.4550 -0.5108 -0.2193
  937MOL0     H26480   5.653   6.535   5.026  1.9008 -1.5828 -1.5311
  937MOL0     H26481   5.438   6.746   5.292  0.5107  2.7750  1.7316
  937MOL0     H26482   5.314   6.796   5.513 -0.0220  0.4394 -0.1294
  937MOL0     H26483   4.868   6.805   5.503 -1.5102  0.5005  0.7809
  937MOL0     H26484   4.946   6.967   5.482 -2.2572 -1.0085 -1.7018
  937MOL0     H26485   4.940   6.989   5.716  0.8483 -0.3701  1.4488
  937MOL0     H26486   4.959   6.812   5.741 -1.0336  1.4718  1.5816
  937MOL0     H26487   4.719   6.790   5.696 -0.4747  0.2149 -0.7289
  937MOL0     H26488   4.710   6.950   5.623  0.0110  0.0943  0.1240
  937MOL0     H26489   4.718   7.062   5.839 -2.3997  0.6132 -1.6403
  937MOL0     H26490   4.594   6.947   5.839  0.1593  2.0736 -2.4595
  937MOL0     H26491   4.849   6.734   6.103 -0.2876 -0.7553 -0.6293
  937MOL0     H26492   4.945   6.802   5.295 -0.4760 -1.0572 -2.5025
  937MOL0     H26493   4.921   6.738   5.099 -1.1605  1.9587  0.7425
  937MOL0     H26494   5.017   6.859   5.003 -0.8994 -0.9646 -1.4792
  937MOL0     H26495   5.050   6.680   4.989 -1.2262 -0.0695  0.0998
  938MOL0     O26496   2.535   7.203   4.751  0.4215 -0.3059 -0.0588
  938MOL0     C26497   2.479   7.308   4.727  0.1011  0.8074 -0.2407
  938MOL0     O26498   2.535   7.415   4.671  0.3253  0.0104 -0.1239
  938MOL0     C26499   2.663   7.420   4.609  1.2340  0.4945 -1.1471
  938MOL0     C26500   2.742   7.535   4.624  0.0006 -0.1991  0.0805
  938MOL0     C26501   2.867   7.549   4.565 -0.0857  0.1189  0.3546
  938MOL0     C26502   2.913   7.443   4.482 -0.3299 -0.4661 -0.3132
  938MOL0     O26503   3.026   7.439   4.414 -0.4651 -0.3721  0.2521
  938MOL0     C26504   3.122   7.544   4.435 -0.1713 -0.2008 -0.4651
  938MOL0     C26505   3.245   7.505   4.358  0.3134 -0.5162  0.1187
  938MOL0     C26506   3.316   7.388   4.431 -0.4834 -0.8068  0.8835
  938MOL0     C26507   3.459   7.377   4.389 -0.6973 -0.4384  1.3587
  938MOL0     C26508   3.542   7.298   4.484  0.7498  0.9911 -1.3864
  938MOL0     C26509   3.686   7.286   4.449  0.2303  0.3302  0.0961
  938MOL0     C26510   3.746   7.196   4.550 -0.0129  0.4998  0.3246
  938MOL0     C26511   3.889   7.160   4.518 -0.5658 -0.3977  0.2981
  938MOL0     N26512   3.949   7.070   4.620  0.8538  0.1566 -0.8551
  938MOL0     C26513   3.960   7.110   4.753 -0.0796 -0.1170 -0.1220
  938MOL0     C26514   4.007   7.005   4.821  0.0291 -0.3673  0.1042
  938MOL0     C26515   4.046   7.000   4.963  0.0341 -0.2889  0.2486
  938MOL0     C26516   4.194   6.984   4.980  0.2339  0.4507  0.4778
  938MOL0     C26517   4.264   7.116   4.945  0.0322 -0.3425  1.4554
  938MOL0     C26518   4.384   7.096   4.858 -0.5739 -0.0929  0.1437
  938MOL0     O26519   4.484   7.010   4.921 -0.6440  0.7064  0.4796
  938MOL0     C26520   4.568   6.936   4.834 -0.0287  1.1334  0.6307
  938MOL0     C26521   4.661   6.839   4.891  0.5712 -0.0431  0.6998
  938MOL0     C26522   4.748   6.764   4.805 -0.2988  0.7152  0.3321
  938MOL0     C26523   4.743   6.775   4.665 -0.3871 -0.1639 -0.0012
  938MOL0     C26524   4.823   6.689   4.568  0.5676 -0.0171  0.9934
  938MOL0     O26525   4.825   6.706   4.430 -0.3977  0.4231 -0.0951
  938MOL0     C26526   4.913   6.632   4.357  0.0276 -0.2508 -0.1023
  938MOL0     C26527   5.019   6.715   4.317 -0.6112  0.4534 -0.2649
  938MOL0     C26528   5.116   6.659   4.229  0.5220 -0.4278 -0.3365
  938MOL0     C26529   5.113   6.522   4.187 -0.0007 -0.4740 -0.0164
  938MOL0     O26530   5.212   6.469   4.102 -0.1178  0.0181  0.4530
  938MOL0     C26531   5.349   6.512   4.115  0.3914 -0.2886 -0.2715
  938MOL0     C26532   5.442   6.408   4.051 -0.7401  0.7331  0.3328
  938MOL0     C26533   5.594   6.433   4.080 -0.2266 -0.2047 -0.6109
  938MOL0     C26534   5.688   6.347   3.982 -1.3339 -0.0590 -0.2068
  938MOL0     C26535   5.832   6.356   4.026 -0.3399 -0.5180 -0.8252
  938MOL0     C26536   5.924   6.294   3.930  0.1480 -0.4280  0.5580
  938MOL0     C26537   6.070   6.292   3.968  0.6706 -0.5569 -0.5713
  938MOL0     C26538   6.104   6.182   4.068  0.0177  0.3785 -0.1225
  938MOL0    Cl26539   6.276   6.178   4.110 -0.0738 -0.7110  0.6787
  938MOL0     C26540   5.004   6.441   4.230  0.4634 -0.0215 -0.1581
  938MOL0     C26541   4.911   6.494   4.320  0.7460 -0.2093 -0.0075
  938MOL0     O26542   4.888   6.602   4.626 -0.2115 -0.4039  0.1623
  938MOL0     C26543   4.656   6.874   4.609  0.8357 -0.3218  0.4961
  938MOL0     C26544   4.575   6.951   4.691 -0.3219 -0.0779 -0.8873
  938MOL0     N26545   4.042   6.905   4.733  0.0051  0.3931 -0.6170
  938MOL0     N26546   4.005   6.942   4.614  0.0231 -0.6890 -0.4291
  938MOL0     C26547   2.832   7.332   4.471  0.1908  0.5573  0.7045
  938MOL0     C26548   2.709   7.314   4.528 -0.0470  0.0377 -0.0632
  938MOL0     C26549   2.340   7.334   4.774 -0.4791 -0.7875  0.6165
  938MOL0     C26550   2.292   7.465   4.780 -0.2279 -0.2361 -0.6429
  938MOL0     C26551   2.156   7.479   4.813 -0.5100  0.0436  0.4156
  938MOL0     C26552   2.071   7.379   4.838 -0.7415 -0.0919 -0.6480
  938MOL0     O26553   1.949   7.419   4.864  0.6417 -0.1105 -0.2657
  938MOL0     C26554   1.835   7.330   4.874  0.0368  0.5053 -0.2021
  938MOL0     C26555   1.700   7.386   4.819  0.2392  0.7126  0.5365
  938MOL0     C26556   1.594   7.271   4.830 -0.4518  0.2107  0.2468
  938MOL0     C26557   1.455   7.332   4.811 -0.7201  0.0551  1.0396
  938MOL0     C26558   1.355   7.229   4.803 -0.2310  0.4786 -0.3619
  938MOL0     C26559   1.278   7.141   4.778 -0.3239 -0.4568 -0.6822
  938MOL0     C26560   2.120   7.254   4.832 -0.1298  0.0313  0.1808
  938MOL0     C26561   2.253   7.222   4.796 -0.6088  0.1318 -0.9470
  938MOL0     C26562   2.292   7.070   4.798  0.9001  0.4219 -0.1755
  938MOL0     H26563   2.723   7.617   4.693  2.3555  0.3688  0.1308
  938MOL0     H26564   2.920   7.644   4.572 -0.4729  0.5982 -2.3847
  938MOL0     H26565   3.095   7.642   4.396  1.9993  0.8077  0.3789
  938MOL0     H26566   3.143   7.559   4.541  1.7070  0.2053 -0.8645
  938MOL0     H26567   3.311   7.592   4.361 -0.1026 -0.2114  3.2156
  938MOL0     H26568   3.221   7.473   4.256  0.8729  0.0000 -0.1799
  938MOL0     H26569   3.272   7.288   4.428 -0.6034 -0.8160 -3.5446
  938MOL0     H26570   3.315   7.407   4.538  1.1145 -1.3270  1.0075
  938MOL0     H26571   3.462   7.339   4.287  0.6853  3.8724 -0.4469
  938MOL0     H26572   3.509   7.474   4.388  0.4461 -0.9203  3.5762
  938MOL0     H26573   3.538   7.352   4.579 -1.1725  2.4133 -2.2061
  938MOL0     H26574   3.500   7.201   4.513  1.4985  0.7637 -1.0580
  938MOL0     H26575   3.681   7.233   4.354 -2.6507 -2.9864  1.8618
  938MOL0     H26576   3.743   7.379   4.439  0.2924  0.4514  1.4029
  938MOL0     H26577   3.681   7.109   4.559  0.6961  0.1129  1.9147
  938MOL0     H26578   3.746   7.250   4.645 -0.9019  0.2623  0.4608
  938MOL0     H26579   3.903   7.114   4.419  1.2005 -2.7693  1.5235
  938MOL0     H26580   3.951   7.249   4.506 -1.5118  0.1535 -0.6427
  938MOL0     H26581   3.925   7.207   4.788 -1.5820 -0.6971  0.0731
  938MOL0     H26582   4.027   7.100   5.004  2.1660  1.0437 -1.8035
  938MOL0     H26583   3.987   6.924   5.016 -0.7691  0.1927  0.0549
  938MOL0     H26584   4.225   6.955   5.081 -1.3774 -2.1796  0.2996
  938MOL0     H26585   4.223   6.901   4.916  1.3427 -0.9649  2.6878
  938MOL0     H26586   4.287   7.156   5.044 -1.6989 -1.2309  2.2549
  938MOL0     H26587   4.192   7.178   4.890  0.3199 -1.1386  0.1463
  938MOL0     H26588   4.428   7.194   4.838 -1.7085  0.5978  0.9595
  938MOL0     H26589   4.334   7.056   4.770 -1.7560 -1.1129  1.2372
  938MOL0     H26590   4.677   6.838   4.998 -0.6866  0.9254  0.9301
  938MOL0     H26591   4.810   6.693   4.859 -1.2117  0.9925  1.8124
  938MOL0     H26592   5.034   6.819   4.344  0.9059 -0.0015  0.7498
  938MOL0     H26593   5.200   6.721   4.198  0.0871  0.2017 -0.2629
  938MOL0     H26594   5.364   6.609   4.067  0.5889  0.6762  1.6537
  938MOL0     H26595   5.379   6.527   4.219  0.3877  0.9731 -0.4456
  938MOL0     H26596   5.418   6.306   4.082  3.2399  0.1432  2.0566
  938MOL0     H26597   5.424   6.417   3.944  1.0950  1.2114  0.0337
  938MOL0     H26598   5.622   6.538   4.073  1.8992 -0.7982 -2.0782
  938MOL0     H26599   5.614   6.407   4.185 -1.1183 -0.6069 -0.5297
  938MOL0     H26600   5.677   6.402   3.888  0.3863  3.5730  1.4996
  938MOL0     H26601   5.667   6.240   3.976  1.4540 -0.7189  0.4673
  938MOL0     H26602   5.842   6.305   4.123 -0.0139  2.1631  0.6371
  938MOL0     H26603   5.860   6.461   4.030  0.3777 -0.6369 -2.1647
  938MOL0     H26604   5.886   6.194   3.907 -1.6630  0.1690  0.7532
  938MOL0     H26605   5.925   6.357   3.840  1.2958  1.7114  1.9918
  938MOL0     H26606   6.107   6.389   4.003 -0.4040  0.0598 -1.1041
  938MOL0     H26607   6.125   6.278   3.875  0.6055  0.7846 -0.8216
  938MOL0     H26608   6.058   6.183   4.167  0.1949  1.9546 -0.0356
  938MOL0     H26609   6.069   6.090   4.020 -0.2816  1.0297 -1.1933
  938MOL0     H26610   4.970   6.351   4.180 -4.4736  1.1580  0.5817
  938MOL0     H26611   4.819   6.445   4.349  0.4137 -1.2943 -2.5947
  938MOL0     H26612   4.641   6.906   4.507 -0.5985 -0.4940  0.6200
  938MOL0     H26613   4.509   7.030   4.656 -2.2196  0.0440  2.5666
  938MOL0     H26614   2.870   7.249   4.413  1.5319  2.8605 -1.9576
  938MOL0     H26615   2.653   7.221   4.525  0.0583 -0.0729  1.1176
  938MOL0     H26616   2.358   7.548   4.757  1.6767 -2.2752 -3.1374
  938MOL0     H26617   2.130   7.584   4.823  3.5574  1.1222  1.5257
  938MOL0     H26618   1.814   7.304   4.978  1.7098  1.0435  0.2939
  938MOL0     H26619   1.856   7.238   4.820  0.6275 -0.3353  1.4229
  938MOL0     H26620   1.706   7.428   4.718 -0.3653 -1.5788 -0.5214
  938MOL0     H26621   1.661   7.471   4.875 -3.5340  0.3427 -1.2686
  938MOL0     H26622   1.610   7.231   4.931  0.4511  1.2998  0.5592
  938MOL0     H26623   1.622   7.188   4.764 -0.3978  0.2317  0.2420
  938MOL0     H26624   1.435   7.399   4.895 -0.7937 -1.2246  2.0773
  938MOL0     H26625   1.450   7.398   4.724  0.9725 -0.6932  0.3227
  938MOL0     H26626   1.221   7.052   4.764  1.0203 -1.5168  0.3916
  938MOL0     H26627   2.053   7.172   4.856  0.7202 -1.3395 -1.8286
  938MOL0     H26628   2.372   7.048   4.870 -0.0973 -2.6433  0.1458
  938MOL0     H26629   2.202   7.014   4.824  0.0157  1.6945 -0.3908
  938MOL0     H26630   2.309   7.044   4.693 -2.7349  1.6439 -1.2111
  939MOL0     O26631  10.650   6.814   7.470  0.8832 -0.0276 -0.3263
  939MOL0     C26632  10.635   6.912   7.547  0.0145  0.0171  0.7040
  939MOL0     O26633  10.735   6.971   7.618  0.3180  0.1666 -0.0099
  939MOL0     C26634  10.863   6.919   7.594 -0.2705 -0.3655 -0.1120
  939MOL0     C26635  10.917   6.837   7.687 -0.0909 -0.2739 -0.7122
  939MOL0     C26636  11.033   6.766   7.677 -0.1579  0.7183  0.1035
  939MOL0     C26637  11.112   6.794   7.561  0.4353  0.6796  0.1489
  939MOL0     O26638  11.231   6.733   7.538 -0.5136  0.4614  0.2158
  939MOL0     C26639  11.314   6.699   7.646  0.2484  0.1168 -1.4103
  939MOL0     C26640  11.425   6.607   7.600 -0.0482 -0.0620  0.3055
  939MOL0     C26641  11.374   6.477   7.546  0.2663  0.8212 -0.6060
  939MOL0     C26642  11.485   6.385   7.512 -0.6913 -0.5798 -0.0792
  939MOL0     C26643  11.453   6.277   7.399  0.0584 -0.5124  1.2436
  939MOL0     C26644  11.331   6.191   7.441 -0.3562  0.1637  0.0052
  939MOL0     C26645  11.367   6.096   7.562 -0.4386  0.0541  0.3019
  939MOL0     C26646  11.250   6.010   7.606 -0.2261 -1.2538  0.5687
  939MOL0     N26647  11.269   5.925   7.724 -0.6709  0.3596  0.2531
  939MOL0     C26648  11.312   5.956   7.855 -0.1933  0.3032  0.2415
  939MOL0     C26649  11.322   5.837   7.911  0.3996  0.6175  0.0713
  939MOL0     C26650  11.367   5.819   8.050 -0.4773  0.0500 -0.1306
  939MOL0     C26651  11.497   5.899   8.084  0.7626  0.3927  0.7504
  939MOL0     C26652  11.530   5.884   8.230 -0.7196  0.1026  0.1174
  939MOL0     C26653  11.683   5.890   8.270 -0.3764 -0.9613 -0.6313
  939MOL0     O26654  11.766   5.790   8.213 -0.0146 -0.0031 -0.2813
  939MOL0     C26655  11.902   5.814   8.225  0.0821  0.1778  0.1122
  939MOL0     C26656  11.989   5.728   8.153 -0.2827  0.4851 -0.5885
  939MOL0     C26657  12.130   5.742   8.154 -1.2621 -1.1823 -0.7652
  939MOL0     C26658  12.198   5.832   8.243 -0.0382 -0.3000  0.1280
  939MOL0     C26659  12.345   5.833   8.256  0.7719 -0.5928  0.1416
  939MOL0     O26660  12.401   5.888   8.367  0.0520  0.0300  0.4193
  939MOL0     C26661  12.542   5.880   8.385 -0.9723 -0.5439  0.3376
  939MOL0     C26662  12.622   5.995   8.410 -0.0144  0.0256  0.4604
  939MOL0     C26663  12.759   5.991   8.429 -0.8801 -0.7081  1.1828
  939MOL0     C26664  12.832   5.871   8.428 -0.5742 -0.0887  0.1176
  939MOL0     O26665  12.972   5.849   8.431 -0.1063 -0.5533 -0.1613
  939MOL0     C26666  13.053   5.943   8.500  0.9892  0.9223 -0.0632
  939MOL0     C26667  13.190   5.878   8.506 -0.0608 -0.3151 -0.1193
  939MOL0     C26668  13.264   5.899   8.372 -0.2829  0.0993 -0.1338
  939MOL0     C26669  13.406   5.847   8.384  0.3559 -0.3439  0.4673
  939MOL0     C26670  13.476   5.871   8.250  0.0188 -0.4375  0.6228
  939MOL0     C26671  13.626   5.847   8.263 -0.2522  1.0045  0.1188
  939MOL0     C26672  13.704   5.876   8.128  0.2224  0.4024 -0.1435
  939MOL0     C26673  13.851   5.826   8.140 -0.8798 -0.0356  0.4141
  939MOL0    Cl26674  13.936   5.891   8.286  0.2808 -0.2784  0.5023
  939MOL0     C26675  12.760   5.754   8.408 -0.0910  0.2649 -0.0497
  939MOL0     C26676  12.613   5.762   8.389 -0.1235  0.5184 -0.3117
  939MOL0     O26677  12.403   5.794   8.156 -0.4025 -0.1697 -0.3311
  939MOL0     C26678  12.107   5.908   8.319 -0.5704 -0.4441  0.8830
  939MOL0     C26679  11.968   5.904   8.316  0.0774  0.9953  1.5280
  939MOL0     N26680  11.283   5.736   7.822 -0.7473 -0.1192  0.1637
  939MOL0     N26681  11.267   5.786   7.703  0.2902 -1.0566  0.3502
  939MOL0     C26682  11.052   6.874   7.461  0.5576  0.0573 -0.2292
  939MOL0     C26683  10.931   6.942   7.477  0.5265  0.3559 -0.5639
  939MOL0     C26684  10.494   6.966   7.567 -0.5076  1.0241  0.0003
  939MOL0     C26685  10.472   7.039   7.686 -0.4395 -0.0812  0.2295
  939MOL0     C26686  10.356   7.107   7.726 -0.9472  0.3582 -0.0028
  939MOL0     C26687  10.251   7.094   7.633 -0.3771 -0.2356  0.4726
  939MOL0     O26688  10.121   7.137   7.645  0.0697 -0.0379  0.1769
  939MOL0     C26689  10.089   7.227   7.759 -0.7768  0.5183 -0.1696
  939MOL0     C26690   9.952   7.288   7.748 -0.5955 -0.0767 -0.9483
  939MOL0     C26691   9.941   7.417   7.829  0.6973  0.5647 -0.5690
  939MOL0     C26692   9.818   7.497   7.808 -0.1432 -1.3196  0.1580
  939MOL0     C26693   9.701   7.419   7.859  0.2725  0.5081  0.5274
  939MOL0     C26694   9.599   7.352   7.894 -0.2068  0.4437  0.2244
  939MOL0     C26695  10.264   7.015   7.517 -0.2272  0.0343  0.4596
  939MOL0     C26696  10.382   6.952   7.483  0.4896 -0.0280 -0.3365
  939MOL0     C26697  10.389   6.861   7.357  0.7638  0.0734 -0.2730
  939MOL0     H26698  10.846   6.831   7.768 -1.0436 -0.3774 -1.5350
  939MOL0     H26699  11.056   6.694   7.754 -1.3779  0.9567  0.7178
  939MOL0     H26700  11.350   6.790   7.695 -3.1658  0.7191  0.2554
  939MOL0     H26701  11.270   6.648   7.732  0.3675  3.9537  1.1498
  939MOL0     H26702  11.507   6.596   7.672 -0.3077  1.3107  0.8348
  939MOL0     H26703  11.466   6.659   7.513 -0.8041  1.0245  0.5929
  939MOL0     H26704  11.308   6.488   7.460  2.5658 -1.0990 -2.7734
  939MOL0     H26705  11.314   6.427   7.623 -1.0599  1.7122 -1.0136
  939MOL0     H26706  11.577   6.437   7.485 -0.7557 -1.6458 -2.6704
  939MOL0     H26707  11.505   6.328   7.603  3.1467  1.7463  0.7641
  939MOL0     H26708  11.422   6.332   7.310 -0.0919 -1.1068  0.9247
  939MOL0     H26709  11.545   6.218   7.388  0.0253 -0.5033  0.8944
  939MOL0     H26710  11.245   6.254   7.465 -1.2436 -1.6648  1.9463
  939MOL0     H26711  11.297   6.122   7.362  2.3796  0.1355 -1.2501
  939MOL0     H26712  11.405   6.155   7.646 -2.0390  1.9140 -0.1980
  939MOL0     H26713  11.445   6.034   7.516 -0.7181  0.4588 -0.7552
  939MOL0     H26714  11.163   6.076   7.614  0.9883  1.7130 -5.1871
  939MOL0     H26715  11.217   5.941   7.528  0.1529 -0.2611 -0.5083
  939MOL0     H26716  11.329   6.054   7.897 -0.0036  0.7871 -0.9179
  939MOL0     H26717  11.290   5.838   8.125 -1.0743 -1.4197 -0.3513
  939MOL0     H26718  11.385   5.713   8.070 -1.3538 -0.3396 -1.3744
  939MOL0     H26719  11.574   5.862   8.016 -0.1205  0.2795 -0.2243
  939MOL0     H26720  11.469   6.002   8.060 -1.4152 -0.5032 -0.9551
  939MOL0     H26721  11.507   5.782   8.263 -2.5664  0.2833 -0.5203
  939MOL0     H26722  11.475   5.957   8.290 -0.8508  1.6902 -1.8499
  939MOL0     H26723  11.686   5.882   8.379 -2.0501 -0.8212 -0.5600
  939MOL0     H26724  11.718   5.990   8.240  0.0910 -0.6425  0.8869
  939MOL0     H26725  11.943   5.652   8.091 -3.2619  2.1442 -0.5928
  939MOL0     H26726  12.187   5.671   8.096  2.5981  1.8201 -1.0398
  939MOL0     H26727  12.574   6.092   8.413  0.6653  0.4054 -0.4080
  939MOL0     H26728  12.819   6.079   8.447 -0.6053 -1.3967  4.0392
  939MOL0     H26729  13.053   6.043   8.457 -0.0410  1.5812  1.3748
  939MOL0     H26730  13.020   5.950   8.604 -1.2399 -1.2691 -0.5084
  939MOL0     H26731  13.244   5.934   8.582  1.7836 -0.5286 -1.1904
  939MOL0     H26732  13.178   5.777   8.545 -4.2635  0.7391  1.8867
  939MOL0     H26733  13.211   5.846   8.292 -0.8470 -0.2278  0.4477
  939MOL0     H26734  13.266   6.003   8.339 -2.0339 -0.2013 -1.3176
  939MOL0     H26735  13.408   5.739   8.404  3.6850 -0.6094 -0.6564
  939MOL0     H26736  13.456   5.912   8.455 -3.3687  2.0020  1.1950
  939MOL0     H26737  13.478   5.978   8.228  4.5229 -0.1974  1.3659
  939MOL0     H26738  13.432   5.804   8.176 -1.1975  0.1208  0.8012
  939MOL0     H26739  13.667   5.911   8.342 -1.3355  1.5472  0.2486
  939MOL0     H26740  13.643   5.742   8.288 -1.2280  0.8327  0.0751
  939MOL0     H26741  13.710   5.982   8.102  2.0208  0.7274  1.3917
  939MOL0     H26742  13.669   5.819   8.041 -0.2259 -1.3033  1.1027
  939MOL0     H26743  13.849   5.717   8.144  0.0014 -0.1944 -1.8509
  939MOL0     H26744  13.892   5.848   8.041  0.9056  0.1347  1.1522
  939MOL0     H26745  12.812   5.658   8.403 -1.6508 -0.5534 -2.1621
  939MOL0     H26746  12.557   5.668   8.389 -2.1703  1.6643  0.7502
  939MOL0     H26747  12.144   5.982   8.389  1.4003  0.3684 -0.9004
  939MOL0     H26748  11.902   5.972   8.369 -2.6076 -1.0112  1.0102
  939MOL0     H26749  11.117   6.888   7.375  1.7073 -1.6289  0.3212
  939MOL0     H26750  10.878   7.012   7.413 -0.9880  2.1899  2.5100
  939MOL0     H26751  10.549   7.034   7.762 -0.1483 -1.1268 -0.1157
  939MOL0     H26752  10.332   7.160   7.818  0.5617  0.5535  0.3075
  939MOL0     H26753  10.160   7.310   7.763  0.0691 -0.1978  0.0321
  939MOL0     H26754  10.095   7.179   7.857 -2.1022 -0.2075 -0.4275
  939MOL0     H26755   9.876   7.219   7.786 -0.8928  0.0426 -1.3116
  939MOL0     H26756   9.922   7.306   7.644  0.4433 -2.0058 -1.6241
  939MOL0     H26757  10.032   7.477   7.818  0.9823 -0.2095 -3.1113
  939MOL0     H26758   9.950   7.379   7.931  0.6731  0.7134 -0.5114
  939MOL0     H26759   9.815   7.581   7.879 -0.1438 -2.8566  2.0745
  939MOL0     H26760   9.806   7.533   7.706  1.2741 -0.5918  0.2270
  939MOL0     H26761   9.501   7.315   7.914 -0.7721  0.7804 -1.6971
  939MOL0     H26762  10.178   7.016   7.451 -0.6072 -0.5576  0.9389
  939MOL0     H26763  10.397   6.757   7.388  0.5789 -1.5286 -4.8722
  939MOL0     H26764  10.297   6.873   7.299  2.3054 -0.2978 -2.9660
  939MOL0     H26765  10.469   6.902   7.294 -0.0105  1.0987 -0.6152
  940MOL0     O26766   4.667   4.841   3.389  0.0729 -0.3241 -0.2962
  940MOL0     C26767   4.618   4.787   3.294  0.1742 -0.2871 -0.2082
  940MOL0     O26768   4.679   4.764   3.181  0.5292  0.2764 -0.7311
  940MOL0     C26769   4.800   4.818   3.161 -0.0951 -0.0456 -0.0767
  940MOL0     C26770   4.911   4.777   3.242  0.5353  0.5575 -0.0262
  940MOL0     C26771   5.035   4.835   3.228  0.0926  0.5258 -0.0784
  940MOL0     C26772   5.054   4.922   3.115  0.0336 -0.1456  0.0444
  940MOL0     O26773   5.173   4.972   3.078  0.4655 -1.1709 -0.1881
  940MOL0     C26774   5.291   4.935   3.144 -1.1095  0.0063  0.1701
  940MOL0     C26775   5.402   4.985   3.047 -0.4676 -0.3276  0.8699
  940MOL0     C26776   5.530   4.922   3.086 -0.2589  0.0607  0.2551
  940MOL0     C26777   5.649   4.985   3.008 -0.1961  0.2048  0.3495
  940MOL0     C26778   5.780   4.906   3.024 -0.4094  0.5993  0.0801
  940MOL0     C26779   5.900   4.965   2.957  0.5223  0.0553  0.8181
  940MOL0     C26780   6.005   4.851   2.944 -0.0535  1.0281 -0.0785
  940MOL0     C26781   6.146   4.881   2.903 -0.0974 -0.3689 -0.5313
  940MOL0     N26782   6.227   4.770   2.852  0.1906 -0.6097  0.1964
  940MOL0     C26783   6.339   4.781   2.778 -0.4371 -0.5714  0.0047
  940MOL0     C26784   6.391   4.654   2.769 -0.1755  0.1661  0.5362
  940MOL0     C26785   6.524   4.604   2.723  0.6786 -0.5582 -0.1363
  940MOL0     C26786   6.528   4.606   2.571 -0.3485 -0.0579 -0.0223
  940MOL0     C26787   6.655   4.532   2.517 -0.2543 -0.6373  0.5534
  940MOL0     C26788   6.683   4.386   2.558 -0.7070 -0.1245 -0.1051
  940MOL0     O26789   6.781   4.332   2.474  0.1283  1.1619 -0.4488
  940MOL0     C26790   6.912   4.330   2.513  0.5105  0.0440 -0.3241
  940MOL0     C26791   6.989   4.220   2.461  0.1522  0.3614 -0.1667
  940MOL0     C26792   7.126   4.212   2.487  0.0643 -0.7056  0.5663
  940MOL0     C26793   7.188   4.302   2.574  0.0184  0.4258 -0.1484
  940MOL0     C26794   7.330   4.279   2.613 -0.1034  0.7498  0.6987
  940MOL0     O26795   7.403   4.207   2.531 -0.4121 -0.5761  0.0741
  940MOL0     C26796   7.533   4.162   2.564  0.5800 -0.4523 -0.2567
  940MOL0     C26797   7.560   4.029   2.532  0.6961 -0.0617  0.3182
  940MOL0     C26798   7.688   3.975   2.560  0.2417 -0.4682  0.1780
  940MOL0     C26799   7.797   4.054   2.608  0.2878  0.1218 -0.1177
  940MOL0     O26800   7.923   4.009   2.629 -0.2844  0.1638  0.3511
  940MOL0     C26801   7.939   3.871   2.613  0.1815  0.0422  0.2313
  940MOL0     C26802   8.086   3.833   2.648 -0.9145 -0.4330 -0.2009
  940MOL0     C26803   8.195   3.932   2.614 -0.2462 -0.1695 -0.0644
  940MOL0     C26804   8.335   3.862   2.641  0.2683  0.1408  0.5895
  940MOL0     C26805   8.454   3.942   2.590 -0.6038 -0.4161  0.0017
  940MOL0     C26806   8.525   4.021   2.707 -0.3781  0.0486  0.1733
  940MOL0     C26807   8.607   3.940   2.814  0.4517  0.2306  0.5962
  940MOL0     C26808   8.669   4.025   2.921  0.2288 -0.2288  0.3280
  940MOL0    Cl26809   8.823   4.114   2.864 -0.5719  0.2150 -0.1271
  940MOL0     C26810   7.767   4.193   2.643 -0.4345  0.6798 -0.2460
  940MOL0     C26811   7.639   4.244   2.616 -0.3801  0.2349  0.1359
  940MOL0     O26812   7.367   4.328   2.718 -0.1581  0.5585  0.1384
  940MOL0     C26813   7.109   4.410   2.620 -0.3882 -0.1731  0.4502
  940MOL0     C26814   6.974   4.428   2.590 -0.9685  0.0635  0.7889
  940MOL0     N26815   6.291   4.571   2.821 -0.6298  0.3583 -0.2799
  940MOL0     N26816   6.202   4.642   2.887 -0.0047  0.2109  0.7485
  940MOL0     C26817   4.942   4.952   3.029 -0.8371 -0.9005 -0.3055
  940MOL0     C26818   4.817   4.893   3.051  0.7885  0.0664  0.2729
  940MOL0     C26819   4.470   4.743   3.306 -0.2699 -0.2717 -0.5206
  940MOL0     C26820   4.405   4.692   3.188 -0.2093 -1.0685 -0.1840
  940MOL0     C26821   4.277   4.640   3.195 -0.5466  0.2853 -0.4232
  940MOL0     C26822   4.192   4.662   3.305  0.7482  0.0177  0.8729
  940MOL0     O26823   4.067   4.610   3.287  0.0293  0.0794 -0.7717
  940MOL0     C26824   3.984   4.614   3.393 -0.3305 -0.1678 -0.0912
  940MOL0     C26825   3.840   4.574   3.361 -0.6921 -0.1082  0.2341
  940MOL0     C26826   3.814   4.428   3.322  0.8160  0.1968  0.1648
  940MOL0     C26827   3.672   4.404   3.275  0.7884 -0.0769 -0.5136
  940MOL0     C26828   3.575   4.438   3.383 -0.0142 -0.9163 -0.6879
  940MOL0     C26829   3.486   4.483   3.453 -0.0656  0.4935  0.1661
  940MOL0     C26830   4.251   4.721   3.419  0.6471 -0.5945  0.1676
  940MOL0     C26831   4.385   4.763   3.420 -0.7092  0.0078  0.3339
  940MOL0     C26832   4.439   4.808   3.554  0.4353 -0.2244  0.5291
  940MOL0     H26833   4.892   4.707   3.322  3.7753 -2.4526 -1.5997
  940MOL0     H26834   5.111   4.792   3.292  1.0938 -1.5570 -2.4559
  940MOL0     H26835   5.303   4.978   3.244  0.2518  1.1011 -0.4179
  940MOL0     H26836   5.300   4.827   3.131  1.1867  0.3187 -1.7109
  940MOL0     H26837   5.409   5.094   3.040 -1.9656 -0.3047 -1.7242
  940MOL0     H26838   5.381   4.952   2.945 -1.3086 -0.5653  1.1055
  940MOL0     H26839   5.532   4.813   3.088  0.0856  0.0539 -0.2305
  940MOL0     H26840   5.541   4.944   3.193  0.6004 -3.0068  0.8792
  940MOL0     H26841   5.623   4.997   2.902  2.2241  0.6612 -0.2535
  940MOL0     H26842   5.662   5.086   3.048 -1.2505 -0.3057  2.1267
  940MOL0     H26843   5.789   4.896   3.133 -1.5520  1.9152  0.3227
  940MOL0     H26844   5.768   4.809   2.975  0.8338  1.2897 -1.6874
  940MOL0     H26845   5.871   4.993   2.855  3.1308 -1.4563 -0.4503
  940MOL0     H26846   5.935   5.048   3.019  0.8137  0.3533  0.2585
  940MOL0     H26847   5.967   4.778   2.871  2.0723  0.1850 -0.3941
  940MOL0     H26848   6.017   4.803   3.041 -0.5016 -1.0320 -0.9927
  940MOL0     H26849   6.145   4.959   2.826 -0.2760 -0.6736 -0.8417
  940MOL0     H26850   6.207   4.930   2.979 -3.9863  1.6445  1.5758
  940MOL0     H26851   6.399   4.866   2.749  0.5593 -1.2449  0.0284
  940MOL0     H26852   6.602   4.672   2.759 -0.3125  0.4640  0.1582
  940MOL0     H26853   6.538   4.502   2.760 -1.1894 -0.5740  0.6507
  940MOL0     H26854   6.435   4.564   2.533 -2.0161  3.3910 -0.1261
  940MOL0     H26855   6.549   4.705   2.531  4.3888 -0.1431  1.6215
  940MOL0     H26856   6.746   4.585   2.547  1.5282 -2.4941 -1.2412
  940MOL0     H26857   6.646   4.547   2.409 -0.2300  0.5543  0.6995
  940MOL0     H26858   6.592   4.325   2.554 -0.2704 -0.8552  0.7322
  940MOL0     H26859   6.720   4.384   2.661  0.3396 -1.9597 -0.4778
  940MOL0     H26860   6.963   4.137   2.396 -0.1747  0.0428  0.3686
  940MOL0     H26861   7.178   4.131   2.436  0.0597 -0.7119  0.5714
  940MOL0     H26862   7.479   3.970   2.489  1.8872 -0.0381 -2.1114
  940MOL0     H26863   7.701   3.872   2.529 -2.5755 -0.2717 -2.1287
  940MOL0     H26864   7.872   3.821   2.683  2.0992  0.0188  2.1411
  940MOL0     H26865   7.910   3.843   2.511 -0.0293  0.3824  0.1960
  940MOL0     H26866   8.089   3.834   2.757  0.0137 -1.2599 -0.2008
  940MOL0     H26867   8.116   3.735   2.609  2.1271 -1.1501  3.3243
  940MOL0     H26868   8.188   3.964   2.509 -1.8398 -0.0285  0.0616
  940MOL0     H26869   8.193   4.015   2.685  0.7290  0.8476 -1.1823
  940MOL0     H26870   8.337   3.765   2.590 -0.0414 -0.6714  2.0605
  940MOL0     H26871   8.339   3.842   2.748 -1.0210  1.8955  0.9941
  940MOL0     H26872   8.425   4.013   2.513 -1.0632 -0.5632  0.0391
  940MOL0     H26873   8.532   3.882   2.542 -0.8132  0.8348 -2.0027
  940MOL0     H26874   8.588   4.104   2.674 -1.1098 -0.3037 -2.3253
  940MOL0     H26875   8.447   4.081   2.755 -1.0763 -0.0708 -0.7702
  940MOL0     H26876   8.690   3.895   2.758  0.1688  1.1878 -0.6355
  940MOL0     H26877   8.542   3.864   2.858 -0.6108  0.8094  0.0622
  940MOL0     H26878   8.610   4.102   2.971  0.9964 -0.1301  1.1097
  940MOL0     H26879   8.702   3.951   2.994  2.3598 -1.0567 -1.3555
  940MOL0     H26880   7.850   4.252   2.681  1.8381 -1.2153 -1.9456
  940MOL0     H26881   7.610   4.346   2.637 -0.5510 -0.3991  3.5357
  940MOL0     H26882   7.145   4.493   2.680  1.0492  0.0076 -0.6287
  940MOL0     H26883   6.924   4.516   2.630 -0.5812  0.8051 -0.2922
  940MOL0     H26884   4.954   5.017   2.943 -0.9688 -1.9138 -1.1167
  940MOL0     H26885   4.735   4.905   2.981  1.7434  1.5097 -0.6526
  940MOL0     H26886   4.465   4.668   3.101  1.6403  0.4122  0.6203
  940MOL0     H26887   4.250   4.581   3.108 -1.9479  1.0095 -0.5028
  940MOL0     H26888   3.980   4.716   3.433  2.3820  0.0874 -0.2876
  940MOL0     H26889   4.029   4.546   3.465 -0.7571 -1.2107 -0.7812
  940MOL0     H26890   3.799   4.639   3.283  0.7971 -1.5516 -1.8991
  940MOL0     H26891   3.785   4.583   3.455  3.7562  0.1416  3.1226
  940MOL0     H26892   3.827   4.349   3.396 -5.1344 -0.2580  1.1839
  940MOL0     H26893   3.875   4.405   3.234 -2.3153 -0.0780 -2.1048
  940MOL0     H26894   3.661   4.468   3.187  0.6636  0.4370 -0.1290
  940MOL0     H26895   3.656   4.301   3.243  0.2262 -0.1416 -0.0561
  940MOL0     H26896   3.415   4.551   3.496  0.1650  0.6670  0.2715
  940MOL0     H26897   4.188   4.733   3.506 -1.4247  0.9074 -1.4353
  940MOL0     H26898   4.366   4.783   3.632  2.0426 -1.8863  1.5961
  940MOL0     H26899   4.539   4.772   3.579  0.5555 -1.8094 -1.8884
  940MOL0     H26900   4.449   4.917   3.556 -0.5133 -0.1345  0.9755
  941MOL0     O26901   9.621   8.392   0.081  0.0458  0.8798 -0.1882
  941MOL0     C26902   9.603   8.382  -0.037 -0.2143  0.5798  0.8969
  941MOL0     O26903   9.694   8.336  -0.131  0.6252 -0.0769 -0.7235
  941MOL0     C26904   9.833   8.343  -0.112 -0.3341 -1.4983 -0.3807
  941MOL0     C26905   9.904   8.376   0.010 -1.1997 -0.1858 -0.3116
  941MOL0     C26906  10.044   8.384   0.010  0.3435 -0.1606 -0.4877
  941MOL0     C26907  10.112   8.355  -0.108 -0.3590  0.0960 -0.7056
  941MOL0     O26908  10.246   8.367  -0.132  0.0254 -0.0508  0.2873
  941MOL0     C26909  10.343   8.381  -0.025  0.4301  0.1351 -0.3874
  941MOL0     C26910  10.484   8.373  -0.084  0.3386 -0.2838 -0.6148
  941MOL0     C26911  10.598   8.369   0.018 -0.4734  0.2847 -0.6013
  941MOL0     C26912  10.664   8.508   0.037 -0.5557  0.0077  0.3998
  941MOL0     C26913  10.749   8.518   0.161 -0.2297  0.1986  0.5988
  941MOL0     C26914  10.795   8.662   0.197 -0.4971 -0.2463 -0.4656
  941MOL0     C26915  10.903   8.650   0.318  0.7071  0.5492  0.2140
  941MOL0     C26916  11.001   8.772   0.344  0.0461  0.3584 -0.6897
  941MOL0     N26917  11.111   8.737   0.430  0.3488 -0.4570 -0.2575
  941MOL0     C26918  11.099   8.682   0.553  0.3894 -0.4297 -0.6433
  941MOL0     C26919  11.226   8.667   0.605 -0.1608  0.4379  0.9704
  941MOL0     C26920  11.240   8.602   0.741  0.2674 -0.5471  0.2031
  941MOL0     C26921  11.232   8.445   0.729  0.3520 -0.0062  0.5033
  941MOL0     C26922  11.298   8.364   0.846  0.2736 -0.3734  0.2059
  941MOL0     C26923  11.448   8.388   0.863 -0.5852  0.3416  0.1618
  941MOL0     O26924  11.473   8.501   0.955  0.0881 -0.8981  0.8297
  941MOL0     C26925  11.598   8.518   1.016  0.4569  0.6266 -0.8433
  941MOL0     C26926  11.703   8.431   0.983  0.1298  0.8146  0.2251
  941MOL0     C26927  11.830   8.460   1.041 -0.3357  0.2324  0.6123
  941MOL0     C26928  11.862   8.560   1.131 -0.2375  0.0887 -0.2441
  941MOL0     C26929  11.988   8.583   1.195 -0.2038  0.0110  0.4862
  941MOL0     O26930  11.986   8.683   1.291 -0.1141 -0.2821 -0.3769
  941MOL0     C26931  12.109   8.719   1.338 -0.3712 -0.1410  0.0054
  941MOL0     C26932  12.196   8.639   1.404 -1.1823  0.0087 -0.7698
  941MOL0     C26933  12.322   8.678   1.456 -0.5370 -1.0948 -0.3259
  941MOL0     C26934  12.369   8.810   1.431  0.7721  0.2192  0.5390
  941MOL0     O26935  12.491   8.856   1.476  0.5246 -0.1238  0.4012
  941MOL0     C26936  12.516   8.999   1.480  0.9408  0.7628 -0.3869
  941MOL0     C26937  12.581   9.041   1.358  0.9411 -0.4261 -0.1153
  941MOL0     C26938  12.699   9.136   1.361 -0.4052  0.1474  0.4232
  941MOL0     C26939  12.831   9.061   1.414 -0.5550 -0.8043 -0.4728
  941MOL0     C26940  12.946   9.157   1.427 -0.1440  0.3061 -0.1683
  941MOL0     C26941  13.088   9.090   1.425  0.2659 -0.3140  0.0979
  941MOL0     C26942  13.196   9.195   1.435  0.5436 -0.1821 -0.2302
  941MOL0     C26943  13.335   9.139   1.414 -0.2227  0.0738 -0.3576
  941MOL0    Cl26944  13.358   9.132   1.228  0.1411  0.1375 -0.4589
  941MOL0     C26945  12.279   8.879   1.346  0.8504  0.5131 -0.0782
  941MOL0     C26946  12.155   8.843   1.300 -0.0453 -1.1097 -0.6216
  941MOL0     O26947  12.085   8.516   1.161  0.5105  0.3180 -0.1765
  941MOL0     C26948  11.754   8.631   1.162 -0.1671  0.8279 -0.6364
  941MOL0     C26949  11.628   8.614   1.109 -0.7472  0.4671 -0.8809
  941MOL0     N26950  11.319   8.710   0.502  0.5879  0.3743 -0.0607
  941MOL0     N26951  11.246   8.748   0.409  0.2006 -0.1941  1.1956
  941MOL0     C26952  10.043   8.338  -0.223 -0.2299  1.0302  1.1443
  941MOL0     C26953   9.907   8.327  -0.228 -0.1166  0.1324  0.0652
  941MOL0     C26954   9.469   8.405  -0.098 -0.1039 -0.0715 -0.2898
  941MOL0     C26955   9.368   8.402   0.002  1.7044  0.0520  0.2670
  941MOL0     C26956   9.238   8.443  -0.014  0.1380 -0.0700 -0.1940
  941MOL0     C26957   9.194   8.472  -0.140  0.5919  0.4984  0.6894
  941MOL0     O26958   9.059   8.512  -0.147 -0.2176  0.4479  0.3514
  941MOL0     C26959   9.001   8.545  -0.276 -0.3640  0.2591  0.1327
  941MOL0     C26960   8.853   8.520  -0.289  0.8700  0.3730 -0.4095
  941MOL0     C26961   8.770   8.612  -0.203 -0.1734 -0.0225 -0.0714
  941MOL0     C26962   8.623   8.559  -0.206 -0.0450 -0.0018  0.2919
  941MOL0     C26963   8.541   8.628  -0.301 -0.2861 -0.5944  1.6806
  941MOL0     C26964   8.478   8.669  -0.404 -0.3993  0.4315 -0.1903
  941MOL0     C26965   9.284   8.467  -0.254 -1.1476  0.0660  0.3970
  941MOL0     C26966   9.426   8.437  -0.226  0.2998 -0.1702  0.6293
  941MOL0     C26967   9.518   8.431  -0.338  0.3086  0.4513  0.0400
  941MOL0     H26968   9.856   8.394   0.106  0.1123 -1.0275  0.5528
  941MOL0     H26969  10.087   8.399   0.109 -0.9331 -3.0424  0.6246
  941MOL0     H26970  10.326   8.469   0.037  0.4514 -1.3905  1.8795
  941MOL0     H26971  10.327   8.295   0.041 -0.9828 -0.0193 -0.8840
  941MOL0     H26972  10.500   8.459  -0.149 -0.4248  0.1936 -0.1805
  941MOL0     H26973  10.488   8.280  -0.141  2.5433  0.2642 -1.4572
  941MOL0     H26974  10.671   8.292  -0.008 -0.5802 -0.2244  0.5582
  941MOL0     H26975  10.562   8.333   0.114  0.1679  0.8729 -0.1288
  941MOL0     H26976  10.729   8.533  -0.048 -1.4236  1.4011  0.1162
  941MOL0     H26977  10.592   8.590   0.040  1.4294  1.8988 -0.6011
  941MOL0     H26978  10.685   8.476   0.239 -2.7488 -1.9341 -2.3864
  941MOL0     H26979  10.837   8.454   0.152  1.3288  2.2237  0.7447
  941MOL0     H26980  10.845   8.702   0.108 -0.1489  2.0924  0.6851
  941MOL0     H26981  10.717   8.734   0.222 -0.0790 -0.3653  1.3568
  941MOL0     H26982  10.964   8.561   0.302 -1.3510 -1.4171  2.5976
  941MOL0     H26983  10.852   8.634   0.413 -1.1974  1.8690 -0.5242
  941MOL0     H26984  11.047   8.820   0.256  3.6857 -1.7548 -0.1533
  941MOL0     H26985  10.937   8.849   0.388 -1.5794 -0.4921 -1.4778
  941MOL0     H26986  11.010   8.661   0.611  0.0635  2.9203  0.2886
  941MOL0     H26987  11.337   8.630   0.782 -0.2542  2.6731 -0.4979
  941MOL0     H26988  11.166   8.636   0.814  0.9082 -5.0971  3.4062
  941MOL0     H26989  11.126   8.417   0.726  0.5630 -0.7586 -1.2470
  941MOL0     H26990  11.268   8.421   0.628 -2.2013  1.5057 -0.8808
  941MOL0     H26991  11.287   8.258   0.824  5.2549 -0.6949 -2.1062
  941MOL0     H26992  11.248   8.395   0.938  1.5415  1.4709  0.3574
  941MOL0     H26993  11.508   8.385   0.772 -0.8681 -3.8338 -0.0775
  941MOL0     H26994  11.480   8.294   0.909 -0.5464  0.6717  0.8151
  941MOL0     H26995  11.681   8.344   0.922 -1.2201 -1.3717  3.4980
  941MOL0     H26996  11.916   8.400   1.014  0.0681  0.2208  1.8704
  941MOL0     H26997  12.156   8.544   1.437 -0.9174  0.5171  1.1083
  941MOL0     H26998  12.365   8.600   1.518 -0.9729  1.0958  3.0114
  941MOL0     H26999  12.415   9.040   1.486  1.0328  0.7382  2.0287
  941MOL0     H27000  12.575   9.028   1.567 -0.7486  2.6017  0.2280
  941MOL0     H27001  12.610   8.949   1.306 -0.1040 -1.2688  0.7473
  941MOL0     H27002  12.499   9.083   1.299  1.9614  1.0868 -0.5010
  941MOL0     H27003  12.721   9.179   1.263 -0.0368 -0.7495  0.1033
  941MOL0     H27004  12.681   9.219   1.430 -0.1213  0.0037  0.6697
  941MOL0     H27005  12.861   8.984   1.343  2.0930  0.1139 -0.4621
  941MOL0     H27006  12.823   9.005   1.507  1.2517 -0.6983 -0.2164
  941MOL0     H27007  12.940   9.203   1.526  1.5585  1.3829 -0.5064
  941MOL0     H27008  12.943   9.236   1.352 -1.5587 -1.2620 -1.8608
  941MOL0     H27009  13.107   9.028   1.513  4.7260  1.9953  1.0355
  941MOL0     H27010  13.106   9.025   1.339  2.7297  0.3116  0.0726
  941MOL0     H27011  13.180   9.246   1.530 -2.1538  0.2453 -0.8465
  941MOL0     H27012  13.190   9.266   1.352 -1.7317 -3.1885 -2.8751
  941MOL0     H27013  13.415   9.207   1.447  1.3119  0.0794 -3.6922
  941MOL0     H27014  13.352   9.042   1.462 -1.4208  0.3539  0.6839
  941MOL0     H27015  12.319   8.975   1.315  0.5972  1.4530  2.2932
  941MOL0     H27016  12.103   8.906   1.229 -0.7388 -0.2428  0.6389
  941MOL0     H27017  11.768   8.697   1.247  2.6358  0.2068 -0.5211
  941MOL0     H27018  11.547   8.678   1.144  0.7855  1.3229  1.2956
  941MOL0     H27019  10.090   8.321  -0.319 -0.8611  0.5066  0.9187
  941MOL0     H27020   9.857   8.306  -0.322  0.8216 -1.8445 -0.0503
  941MOL0     H27021   9.387   8.371   0.104  1.1278 -1.4813 -0.0770
  941MOL0     H27022   9.157   8.440   0.059 -1.2755  0.4108 -1.6722
  941MOL0     H27023   9.044   8.493  -0.362 -0.4957 -1.0313  0.8212
  941MOL0     H27024   9.020   8.651  -0.293 -0.0407 -0.0658 -1.7319
  941MOL0     H27025   8.836   8.417  -0.257 -1.9289  1.9003  3.9899
  941MOL0     H27026   8.817   8.518  -0.393 -0.8699 -2.1026  0.1486
  941MOL0     H27027   8.770   8.718  -0.230 -2.6891 -0.2968 -1.4707
  941MOL0     H27028   8.791   8.599  -0.096 -1.0085  0.6182  0.1810
  941MOL0     H27029   8.621   8.451  -0.223 -1.4167 -0.0725  0.7877
  941MOL0     H27030   8.576   8.579  -0.110 -1.1792 -0.4949 -0.1392
  941MOL0     H27031   8.433   8.705  -0.494  0.3791  0.7530 -0.4574
  941MOL0     H27032   9.248   8.494  -0.352 -1.7967 -4.0415 -0.7154
  941MOL0     H27033   9.551   8.328  -0.348 -2.3392 -0.2829 -2.1527
  941MOL0     H27034   9.474   8.465  -0.432  0.0350 -0.3357 -0.1241
  941MOL0     H27035   9.595   8.507  -0.318 -0.9354  2.0018 -0.8798
  942MOL0     O27036   9.412   0.054   9.566 -0.4075 -0.2568  0.7309
  942MOL0     C27037   9.400   0.108   9.461  0.2059  0.4044  0.4303
  942MOL0     O27038   9.504   0.146   9.374 -0.2008 -0.0217  0.3308
  942MOL0     C27039   9.635   0.121   9.415  0.4562 -0.3389 -0.1011
  942MOL0     C27040   9.713   0.220   9.481  0.0326  0.4603 -0.6939
  942MOL0     C27041   9.849   0.189   9.506  0.6126 -0.1286  0.2547
  942MOL0     C27042   9.912   0.065   9.472  0.4592  0.2531  0.2203
  942MOL0     O27043  10.044   0.056   9.492  0.4330 -0.5802  0.6165
  942MOL0     C27044  10.110  -0.049   9.414  0.9605  0.4670  0.0822
  942MOL0     C27045  10.254  -0.017   9.411 -0.4729 -0.0284 -0.2964
  942MOL0     C27046  10.315  -0.005   9.550 -0.9378 -0.3468  0.1192
  942MOL0     C27047  10.446  -0.080   9.569  0.2823 -0.5757  0.7454
  942MOL0     C27048  10.525  -0.025   9.690 -0.4419  0.3112  0.1052
  942MOL0     C27049  10.672  -0.067   9.673 -0.5380  0.7489  0.0488
  942MOL0     C27050  10.750   0.016   9.768  0.3483 -1.5283  0.1132
  942MOL0     C27051  10.897  -0.045   9.780  0.7819 -0.7998  0.2787
  942MOL0     N27052  10.961   0.012   9.897  0.0707  0.5897  0.6279
  942MOL0     C27053  10.922  -0.005  10.032 -0.3442  1.0525  0.2937
  942MOL0     C27054  11.033   0.045  10.104  0.8131 -0.7932  0.1313
  942MOL0     C27055  11.054   0.041  10.248 -0.1859  0.4942 -0.2079
  942MOL0     C27056  11.182   0.114  10.289  0.6401 -0.0984  0.6707
  942MOL0     C27057  11.191   0.145  10.440 -0.5284 -0.0275  0.2146
  942MOL0     C27058  11.335   0.201  10.462  0.1077  0.2437  0.6552
  942MOL0     O27059  11.439   0.101  10.465  0.0710 -0.0154 -0.0780
  942MOL0     C27060  11.571   0.123  10.455  0.1684  0.3654  0.5829
  942MOL0     C27061  11.620   0.252  10.443 -0.0323 -0.2743 -0.5953
  942MOL0     C27062  11.760   0.274  10.426 -0.7053  0.0981  0.1286
  942MOL0     C27063  11.852   0.167  10.424  0.0040  0.0310  0.7102
  942MOL0     C27064  12.001   0.177  10.413 -0.4726 -0.8386  0.8285
  942MOL0     O27065  12.071   0.078  10.461  0.2371  0.2760  0.3649
  942MOL0     C27066  12.210   0.081  10.447  0.1476 -0.7604  0.1634
  942MOL0     C27067  12.270  -0.021  10.386 -0.1433  0.2982  1.0848
  942MOL0     C27068  12.415  -0.014  10.377  0.1135  0.3775 -0.4863
  942MOL0     C27069  12.495   0.097  10.415 -0.0763 -0.6086 -1.0892
  942MOL0     O27070  12.633   0.088  10.391  0.0342  0.4638  0.2019
  942MOL0     C27071  12.705   0.213  10.407 -0.2840  0.4439 -0.2027
  942MOL0     C27072  12.834   0.208  10.336 -0.0413  0.3516 -0.4513
  942MOL0     C27073  12.808   0.220  10.179 -0.6871 -0.5523 -0.6487
  942MOL0     C27074  12.927   0.200  10.091 -0.5825 -0.3839  0.7434
  942MOL0     C27075  12.897   0.237   9.941  0.4114  0.1336  0.7035
  942MOL0     C27076  12.871   0.390   9.924 -1.1447 -0.6915 -0.1529
  942MOL0     C27077  12.989   0.473   9.983  0.2291 -0.0901 -1.3122
  942MOL0     C27078  12.982   0.536  10.127 -0.4312 -0.0745 -0.2644
  942MOL0    Cl27079  12.827   0.603  10.150  0.2646  0.4005  0.3211
  942MOL0     C27080  12.430   0.197  10.491  0.3080 -0.2311  1.4013
  942MOL0     C27081  12.289   0.193  10.508 -0.3562 -0.0578 -0.2336
  942MOL0     O27082  12.043   0.277  10.345 -0.1558  0.3743  0.0397
  942MOL0     C27083  11.796   0.043  10.440 -0.3509 -0.3329  0.1437
  942MOL0     C27084  11.661   0.015  10.449  0.2528  0.2293 -0.5197
  942MOL0     N27085  11.134   0.084  10.012  0.6675 -0.0314 -0.4211
  942MOL0     N27086  11.087   0.055   9.894  0.0274 -0.5201 -0.6601
  942MOL0     C27087   9.824  -0.032   9.417 -0.0385 -0.3803 -0.1092
  942MOL0     C27088   9.685  -0.002   9.386 -0.6467 -0.1008 -0.3233
  942MOL0     C27089   9.267   0.133   9.402 -0.4466 -0.8973 -0.6063
  942MOL0     C27090   9.260   0.214   9.286  0.3744 -0.3750 -0.3086
  942MOL0     C27091   9.136   0.245   9.228  0.1508  1.2116  0.4624
  942MOL0     C27092   9.011   0.190   9.277 -0.3755  0.2588  0.2967
  942MOL0     O27093   8.904   0.208   9.196  0.0200 -0.3020  0.6733
  942MOL0     C27094   8.833   0.087   9.179 -0.2617 -0.1054 -0.2496
  942MOL0     C27095   8.733   0.108   9.074  0.0310  0.2273  0.0690
  942MOL0     C27096   8.630   0.223   9.118  0.5512  0.7744 -0.0749
  942MOL0     C27097   8.494   0.170   9.156 -0.5087  0.9402 -0.3690
  942MOL0     C27098   8.498   0.095   9.280 -0.4900  0.4252 -0.9301
  942MOL0     C27099   8.522   0.028   9.384  0.1689  0.0197 -0.3229
  942MOL0     C27100   9.018   0.120   9.390  0.0207  0.0234 -0.5013
  942MOL0     C27101   9.143   0.091   9.457 -0.0801  0.2831 -0.2562
  942MOL0     C27102   9.132  -0.006   9.571 -0.3426 -0.1630  0.3789
  942MOL0     H27103   9.666   0.315   9.504  2.1395  1.4477 -0.2643
  942MOL0     H27104   9.913   0.273   9.530 -0.4713  0.2734  1.9146
  942MOL0     H27105  10.094  -0.151   9.450  1.3630  0.3453 -0.0687
  942MOL0     H27106  10.085  -0.034   9.309  0.7476  1.5642  0.2775
  942MOL0     H27107  10.272   0.077   9.357  0.3655 -0.2676 -0.4366
  942MOL0     H27108  10.301  -0.098   9.356 -0.6406 -0.6700  0.4819
  942MOL0     H27109  10.243  -0.049   9.620 -0.7299  1.7420  1.7449
  942MOL0     H27110  10.315   0.103   9.571 -3.4051  0.2144 -2.2897
  942MOL0     H27111  10.421  -0.186   9.565  1.4319 -0.8558  0.7092
  942MOL0     H27112  10.505  -0.068   9.477 -2.5996 -0.5219 -1.2525
  942MOL0     H27113  10.516   0.084   9.686 -3.4613  0.3338  3.1689
  942MOL0     H27114  10.490  -0.057   9.789 -0.7037 -0.7383 -0.3180
  942MOL0     H27115  10.677  -0.174   9.691 -1.5984 -0.2363 -4.4699
  942MOL0     H27116  10.706  -0.049   9.571 -1.4224  0.2072 -0.3470
  942MOL0     H27117  10.697   0.025   9.863  0.4600  2.9045 -0.0766
  942MOL0     H27118  10.748   0.119   9.732 -4.2716 -1.0117  1.3266
  942MOL0     H27119  10.880  -0.153   9.780 -2.1956 -0.5479 -3.6851
  942MOL0     H27120  10.953  -0.024   9.689 -0.2212  0.3460 -0.1043
  942MOL0     H27121  10.839  -0.061  10.073 -1.3398  1.0396 -1.6331
  942MOL0     H27122  10.966   0.081  10.300 -0.5594 -0.4839 -0.0714
  942MOL0     H27123  11.068  -0.060  10.286  1.4102  0.8639  0.2509
  942MOL0     H27124  11.265   0.057  10.246 -1.6913 -1.8426 -1.8792
  942MOL0     H27125  11.180   0.207  10.231 -2.5272  1.4641  3.0259
  942MOL0     H27126  11.183   0.054  10.500  3.2614 -0.2020  0.7297
  942MOL0     H27127  11.123   0.223  10.475  1.2596  1.1076  1.3406
  942MOL0     H27128  11.332   0.249  10.561  0.3321  0.8552  0.3741
  942MOL0     H27129  11.355   0.277  10.386  0.5775  0.6508  1.1760
  942MOL0     H27130  11.562   0.343  10.454 -1.9523 -1.3547 -1.2480
  942MOL0     H27131  11.799   0.374  10.414  0.2380 -0.1578  0.9502
  942MOL0     H27132  12.223  -0.107  10.337 -0.7300  1.1430  0.1247
  942MOL0     H27133  12.461  -0.096  10.323  0.0085 -0.3698  0.5310
  942MOL0     H27134  12.642   0.293  10.367 -1.5832 -0.0788  0.7612
  942MOL0     H27135  12.733   0.237  10.510  3.2778  0.0358 -0.9149
  942MOL0     H27136  12.895   0.291  10.372 -1.4038  0.3717  1.9685
  942MOL0     H27137  12.888   0.116  10.360 -2.7645 -1.1159  0.4844
  942MOL0     H27138  12.738   0.137  10.164 -1.4103 -0.4719  1.9169
  942MOL0     H27139  12.765   0.320  10.172  2.2753  0.7637 -2.1300
  942MOL0     H27140  12.954   0.094  10.104 -1.8955 -0.9819 -1.1099
  942MOL0     H27141  13.021   0.252  10.113 -0.6657  0.4529 -0.7858
  942MOL0     H27142  12.805   0.192   9.903  1.3675  1.8552 -4.3414
  942MOL0     H27143  12.977   0.204   9.874  1.0020 -0.2724  1.5918
  942MOL0     H27144  12.880   0.417   9.819  2.3107  2.9420  0.8198
  942MOL0     H27145  12.768   0.413   9.954 -1.1579 -0.0571 -0.6621
  942MOL0     H27146  13.008   0.563   9.923  1.3923  2.2222  2.1751
  942MOL0     H27147  13.087   0.424   9.986 -0.2946 -1.2464  2.4324
  942MOL0     H27148  12.994   0.460  10.204 -0.0335  1.9946  1.8422
  942MOL0     H27149  13.058   0.611  10.154 -0.0607 -1.0103  1.3831
  942MOL0     H27150  12.486   0.282  10.529  0.9780  0.4205 -0.8429
  942MOL0     H27151  12.244   0.271  10.569  0.0542  1.6585 -2.0200
  942MOL0     H27152  11.863  -0.042  10.446  0.5594  0.2189 -1.6107
  942MOL0     H27153  11.615  -0.082  10.463 -1.5746  1.3121  1.5879
  942MOL0     H27154   9.851  -0.137   9.408 -1.0600 -0.9679  2.5057
  942MOL0     H27155   9.613  -0.077   9.357 -2.5619  1.5961 -0.2077
  942MOL0     H27156   9.344   0.250   9.229 -0.3290 -0.6470 -1.5424
  942MOL0     H27157   9.146   0.304   9.137  1.7646 -1.4163 -1.1795
  942MOL0     H27158   8.785   0.062   9.274  1.3769 -0.9147  0.3893
  942MOL0     H27159   8.890   0.006   9.132 -0.6509 -1.5633  1.6662
  942MOL0     H27160   8.681   0.012   9.059 -0.6081  0.3742  1.2486
  942MOL0     H27161   8.767   0.124   8.971 -1.4545  1.7043 -0.2276
  942MOL0     H27162   8.610   0.292   9.035 -1.1653  0.5876  0.1414
  942MOL0     H27163   8.671   0.278   9.202  3.7927 -0.2939 -0.8089
  942MOL0     H27164   8.428   0.257   9.160  1.4952  2.8199 -3.4563
  942MOL0     H27165   8.456   0.103   9.078 -1.8505  1.6880 -0.3754
  942MOL0     H27166   8.549  -0.030   9.470 -1.0969  0.3444  0.3189
  942MOL0     H27167   8.926   0.097   9.442  0.2238  0.3493  0.0114
  942MOL0     H27168   9.210  -0.082   9.565  1.2334  1.5330 -1.8925
  942MOL0     H27169   9.142   0.038   9.671  2.5782 -0.0329  0.0971
  942MOL0     H27170   9.034  -0.053   9.558 -0.8090  0.7373  0.5405
  943MOL0     O27171   9.101  10.985   4.203  0.2925  0.8514 -0.4481
  943MOL0     C27172   9.031  10.881   4.223  0.3966  0.0672  0.0910
  943MOL0     O27173   9.084  10.754   4.242  0.0070 -0.3104 -0.2525
  943MOL0     C27174   9.226  10.736   4.240 -0.1774  0.2256 -1.1414
  943MOL0     C27175   9.322  10.810   4.305 -0.0438  0.4121 -0.0713
  943MOL0     C27176   9.458  10.775   4.295  0.2771 -0.2169  0.3289
  943MOL0     C27177   9.498  10.656   4.224 -0.1366  0.4113  0.5545
  943MOL0     O27178   9.626  10.619   4.197 -1.0276 -0.7837  0.4371
  943MOL0     C27179   9.733  10.687   4.274  0.6892  0.0128 -0.1369
  943MOL0     C27180   9.863  10.613   4.255 -0.7183 -0.3097 -0.0403
  943MOL0     C27181   9.974  10.658   4.346 -0.2704  0.2712 -0.2480
  943MOL0     C27182  10.113  10.648   4.285  0.8992  0.6523  0.2529
  943MOL0     C27183  10.227  10.686   4.377 -0.3894 -0.3070  0.6450
  943MOL0     C27184  10.350  10.607   4.350 -0.3042 -0.0148  0.2125
  943MOL0     C27185  10.455  10.618   4.458 -0.3109 -0.4598  0.6112
  943MOL0     C27186  10.553  10.738   4.444  0.7181 -0.6545  0.3650
  943MOL0     N27187  10.676  10.725   4.527  0.6471 -0.9719 -0.3150
  943MOL0     C27188  10.689  10.789   4.648  0.6442 -0.2559  0.1839
  943MOL0     C27189  10.821  10.794   4.675 -0.4507 -0.8145  0.0893
  943MOL0     C27190  10.882  10.852   4.792 -0.0109  0.4321 -0.5085
  943MOL0     C27191  10.998  10.950   4.768 -0.7265  0.2669  0.0154
  943MOL0     C27192  11.127  10.894   4.696  0.2545  0.3723 -0.1570
  943MOL0     C27193  11.203  10.798   4.792  0.1216 -0.4278 -0.3041
  943MOL0     O27194  11.246  10.866   4.907  0.2914 -0.0589 -0.3979
  943MOL0     C27195  11.365  10.936   4.884 -0.1840  0.3937 -0.5255
  943MOL0     C27196  11.356  11.077   4.863  0.1390  0.2334  0.8682
  943MOL0     C27197  11.471  11.150   4.830 -0.5381  1.2186  0.9726
  943MOL0     C27198  11.592  11.082   4.817  0.2727 -0.2054 -0.4678
  943MOL0     C27199  11.717  11.157   4.805 -0.1379 -0.7125  0.4465
  943MOL0     O27200  11.829  11.084   4.757 -0.3985  0.5336  0.0089
  943MOL0     C27201  11.945  11.163   4.747 -0.1648  0.0347 -0.0016
  943MOL0     C27202  11.986  11.222   4.627  0.2641 -0.2280 -0.1728
  943MOL0     C27203  12.107  11.290   4.626  1.0906 -0.3051 -0.1873
  943MOL0     C27204  12.180  11.327   4.741  0.7297  0.6077  0.7716
  943MOL0     O27205  12.302  11.397   4.743 -0.3154  0.4419  0.0742
  943MOL0     C27206  12.357  11.445   4.622 -0.4881  0.7296  0.4594
  943MOL0     C27207  12.452  11.559   4.656 -0.3520 -0.9267  0.0269
  943MOL0     C27208  12.569  11.500   4.737 -0.3891 -1.2736  0.0372
  943MOL0     C27209  12.681  11.605   4.755  0.1805 -0.2880  0.6525
  943MOL0     C27210  12.794  11.581   4.855 -0.0451 -0.2368  0.3337
  943MOL0     C27211  12.849  11.431   4.850  0.1890 -0.0289 -0.1581
  943MOL0     C27212  12.973  11.421   4.950 -0.0533  0.4467  0.2152
  943MOL0     C27213  13.015  11.275   4.974  0.2080 -0.6279 -0.1280
  943MOL0    Cl27214  13.103  11.221   4.824 -0.3576  0.4967  0.0764
  943MOL0     C27215  12.129  11.280   4.863  1.0954  0.4441  0.1227
  943MOL0     C27216  12.015  11.193   4.865 -0.9360 -0.9658  0.5657
  943MOL0     O27217  11.720  11.274   4.841  0.2217 -0.1471  0.2089
  943MOL0     C27218  11.599  10.943   4.840 -0.6955 -0.0444 -0.5003
  943MOL0     C27219  11.490  10.871   4.867 -1.8057 -0.4103  0.2123
  943MOL0     N27220  10.883  10.734   4.573 -0.3452  0.8674  0.5471
  943MOL0     N27221  10.803  10.690   4.484  0.6890  0.3797 -0.2753
  943MOL0     C27222   9.397  10.575   4.163 -0.2808 -0.1311 -0.4639
  943MOL0     C27223   9.263  10.619   4.170  0.6235  0.9901  0.7084
  943MOL0     C27224   8.885  10.898   4.213 -0.3705  0.7459 -0.3179
  943MOL0     C27225   8.841  11.027   4.165 -0.4731 -0.2592 -0.1202
  943MOL0     C27226   8.705  11.053   4.154 -0.4107  0.4520 -0.3057
  943MOL0     C27227   8.607  10.959   4.196  0.5361  0.1544 -0.0165
  943MOL0     O27228   8.469  10.981   4.200 -0.1173 -0.2617 -0.2985
  943MOL0     C27229   8.417  10.974   4.071  0.0710  0.7889  0.3437
  943MOL0     C27230   8.279  10.901   4.069  0.1012  0.7274  0.1124
  943MOL0     C27231   8.172  10.992   4.135 -0.3501 -0.1523  0.4716
  943MOL0     C27232   8.041  10.911   4.143  0.7974 -0.3764 -0.6413
  943MOL0     C27233   7.933  10.997   4.200 -0.0529  1.0405  0.3786
  943MOL0     C27234   7.846  11.060   4.252 -0.0907 -0.1982  0.7486
  943MOL0     C27235   8.656  10.832   4.240  0.1727 -0.4199  0.6823
  943MOL0     C27236   8.789  10.798   4.243 -0.5612  0.0605  1.1338
  943MOL0     C27237   8.821  10.648   4.267  0.0352  0.8585 -0.4335
  943MOL0     H27238   9.312  10.896   4.370  3.3453 -0.6715  2.1583
  943MOL0     H27239   9.526  10.850   4.334  0.4895  0.5399 -1.4561
  943MOL0     H27240   9.740  10.788   4.231  1.0072 -0.3964 -1.0761
  943MOL0     H27241   9.703  10.692   4.379  0.9476  2.1440 -0.1178
  943MOL0     H27242   9.898  10.622   4.151  0.7691  3.3802  0.6247
  943MOL0     H27243   9.843  10.510   4.286 -0.1819 -0.2393  0.5685
  943MOL0     H27244   9.985  10.592   4.433 -0.7416 -1.8734 -1.7341
  943MOL0     H27245   9.954  10.758   4.384 -1.3987 -0.2582  0.6324
  943MOL0     H27246  10.119  10.544   4.254  2.1297  0.1664  1.9677
  943MOL0     H27247  10.118  10.712   4.196  0.5005  2.0588  1.1909
  943MOL0     H27248  10.239  10.794   4.367 -0.0190 -0.5622 -3.0095
  943MOL0     H27249  10.186  10.660   4.475 -1.0953 -2.6498 -0.1941
  943MOL0     H27250  10.318  10.502   4.345 -1.0416  0.2621 -1.4912
  943MOL0     H27251  10.381  10.628   4.247 -2.0230 -0.5284 -0.4581
  943MOL0     H27252  10.512  10.525   4.450 -2.1839 -1.8120  2.0265
  943MOL0     H27253  10.413  10.607   4.558 -2.3816  1.6192  0.0661
  943MOL0     H27254  10.581  10.749   4.339 -3.1185  0.2039 -0.7398
  943MOL0     H27255  10.505  10.831   4.479 -0.7272 -1.6372  1.0956
  943MOL0     H27256  10.616  10.840   4.710  2.4643  0.6720  1.6953
  943MOL0     H27257  10.818  10.905   4.864  2.0757  1.1812  0.8941
  943MOL0     H27258  10.910  10.759   4.843 -2.6841 -0.4400 -0.4864
  943MOL0     H27259  10.960  11.037   4.714  0.5968  0.7573 -0.1628
  943MOL0     H27260  11.021  10.983   4.870  2.9442  1.9002 -1.1706
  943MOL0     H27261  11.193  10.980   4.678 -0.7266  1.5177  1.3891
  943MOL0     H27262  11.108  10.846   4.600 -0.4296  1.0177 -0.3557
  943MOL0     H27263  11.294  10.761   4.744  1.8727 -0.4375  2.7265
  943MOL0     H27264  11.141  10.711   4.817  0.7221 -0.2287  2.1330
  943MOL0     H27265  11.259  11.127   4.858  1.1975  2.2762 -1.0220
  943MOL0     H27266  11.455  11.254   4.803 -2.2089  0.8014  0.2092
  943MOL0     H27267  11.937  11.206   4.531 -0.8296  0.2127  0.3100
  943MOL0     H27268  12.129  11.328   4.526 -1.3340 -0.0843 -0.7096
  943MOL0     H27269  12.399  11.363   4.564 -0.4336  1.1100 -0.0539
  943MOL0     H27270  12.286  11.469   4.542 -1.1124 -0.1924  0.7343
  943MOL0     H27271  12.485  11.598   4.560  1.2785 -0.6836  0.6448
  943MOL0     H27272  12.414  11.651   4.703 -1.1749 -0.5573 -1.3047
  943MOL0     H27273  12.535  11.455   4.830  0.4921 -1.0448  0.4895
  943MOL0     H27274  12.625  11.428   4.677  0.6300  1.1081 -2.0568
  943MOL0     H27275  12.641  11.704   4.777  2.0156  0.4532  0.8528
  943MOL0     H27276  12.732  11.602   4.659 -0.1058  0.4429  0.4696
  943MOL0     H27277  12.750  11.603   4.952 -1.1385  2.2468 -0.6557
  943MOL0     H27278  12.876  11.652   4.844 -0.5411  0.3111  0.1216
  943MOL0     H27279  12.763  11.364   4.865 -1.1899  0.6321 -3.9705
  943MOL0     H27280  12.884  11.420   4.747  1.0530  2.7724 -0.2195
  943MOL0     H27281  12.946  11.466   5.046  1.7282  1.1850  0.4133
  943MOL0     H27282  13.048  11.486   4.903  0.0985  0.6212  0.6842
  943MOL0     H27283  13.095  11.272   5.048  0.0196  2.1800  0.2832
  943MOL0     H27284  12.931  11.208   4.993 -1.5483  1.7635  1.0484
  943MOL0     H27285  12.177  11.291   4.959  1.7886 -0.6731 -0.0713
  943MOL0     H27286  11.968  11.153   4.954  1.7214 -1.7806  1.7015
  943MOL0     H27287  11.698  10.902   4.858 -1.0528 -1.2943 -1.2841
  943MOL0     H27288  11.493  10.762   4.867 -0.1586 -0.4033  1.1254
  943MOL0     H27289   9.424  10.488   4.103  4.7093  1.1125 -0.5061
  943MOL0     H27290   9.183  10.571   4.114  0.8762  1.5623 -0.1538
  943MOL0     H27291   8.910  11.110   4.155  0.0518 -0.2123  2.9655
  943MOL0     H27292   8.667  11.148   4.119  0.8114 -0.2217 -3.8971
  943MOL0     H27293   8.489  10.919   4.009  1.8503  2.5469  0.7428
  943MOL0     H27294   8.410  11.071   4.021 -1.0887 -0.4279 -2.0762
  943MOL0     H27295   8.288  10.805   4.120  0.5471  1.7078  1.9867
  943MOL0     H27296   8.247  10.882   3.967 -2.2603  3.1889  0.2802
  943MOL0     H27297   8.161  11.082   4.073 -2.5452 -0.8598 -0.2632
  943MOL0     H27298   8.202  11.028   4.234 -0.8542 -0.4156  0.7231
  943MOL0     H27299   8.022  10.889   4.038 -0.9162  0.4669 -0.5405
  943MOL0     H27300   8.056  10.825   4.208 -2.4495 -0.0449  0.7287
  943MOL0     H27301   7.778  11.135   4.287  2.1387  1.9319  0.7278
  943MOL0     H27302   8.575  10.767   4.272 -4.0374  3.4415 -0.8401
  943MOL0     H27303   8.733  10.584   4.260  0.8964 -0.3330 -0.7838
  943MOL0     H27304   8.894  10.606   4.197 -0.0547  1.1133 -0.6794
  943MOL0     H27305   8.876  10.639   4.361  1.5335  2.5655 -1.0755
  944MOL0     O27306   7.760   9.620  11.071  0.2810 -0.3404  0.5664
  944MOL0     C27307   7.790   9.550  11.169 -0.4284 -0.9702  0.5838
  944MOL0     O27308   7.921   9.519  11.205  0.4380 -0.1239 -0.2373
  944MOL0     C27309   8.024   9.564  11.131  0.5084  0.1376 -0.0298
  944MOL0     C27310   8.130   9.588  11.214 -0.2995  0.0283 -0.5761
  944MOL0     C27311   8.252   9.609  11.155 -0.5647 -0.1376  0.6114
  944MOL0     C27312   8.267   9.637  11.018 -0.3113  0.4398  0.0583
  944MOL0     O27313   8.387   9.664  10.958  0.0158  0.0906  0.1864
  944MOL0     C27314   8.436   9.545  10.896  0.2337  0.8600  0.3339
  944MOL0     C27315   8.547   9.576  10.793  0.4823 -0.0868 -0.7050
  944MOL0     C27316   8.687   9.526  10.838  0.3951 -0.1547  0.3809
  944MOL0     C27317   8.714   9.594  10.978 -0.8304  0.2032 -0.3708
  944MOL0     C27318   8.860   9.569  11.020 -1.3596  0.4411  0.4845
  944MOL0     C27319   8.904   9.611  11.155  0.1087  0.0115  0.0712
  944MOL0     C27320   8.875   9.759  11.189  0.3546  0.1676 -1.0384
  944MOL0     C27321   8.939   9.797  11.332 -0.2593  0.0572 -0.2600
  944MOL0     N27322   8.937   9.943  11.340 -0.3193  0.1152 -0.7463
  944MOL0     C27323   8.836  10.030  11.366 -0.5954  0.4615  0.1734
  944MOL0     C27324   8.894  10.153  11.382 -0.0666  0.4541 -0.2451
  944MOL0     C27325   8.836  10.283  11.420  0.3403 -0.2811 -0.7255
  944MOL0     C27326   8.928  10.401  11.363 -0.1046  0.1355  0.1338
  944MOL0     C27327   8.980  10.488  11.478  0.4708 -0.9413 -0.5571
  944MOL0     C27328   9.076  10.593  11.437 -0.6417  0.7967 -0.2236
  944MOL0     O27329   9.186  10.511  11.384 -0.4565  0.6756 -0.1702
  944MOL0     C27330   9.315  10.553  11.387 -0.1520 -0.2428  0.5633
  944MOL0     C27331   9.415  10.462  11.351 -0.1070 -0.7586 -0.1345
  944MOL0     C27332   9.548  10.502  11.369 -0.3321 -0.4967 -0.2530
  944MOL0     C27333   9.590  10.634  11.404 -0.1215  0.2853 -0.2135
  944MOL0     C27334   9.726  10.677  11.405  0.4174  0.6095 -0.1895
  944MOL0     O27335   9.737  10.796  11.464  0.7341  0.0356 -0.0790
  944MOL0     C27336   9.863  10.840  11.489 -0.1457  0.0389  0.3106
  944MOL0     C27337   9.957  10.868  11.388 -0.6184  0.2020 -0.1955
  944MOL0     C27338  10.074  10.938  11.415  0.3633 -0.2404  0.3093
  944MOL0     C27339  10.111  10.975  11.545  0.1786 -0.2298  0.3969
  944MOL0     O27340  10.227  11.050  11.558  0.1178 -0.3564  0.1783
  944MOL0     C27341  10.348  10.973  11.531 -0.1509 -0.3021 -0.5113
  944MOL0     C27342  10.445  10.993  11.650 -0.5032  0.3438  0.1254
  944MOL0     C27343  10.551  10.877  11.647  0.1423  0.6087  0.0537
  944MOL0     C27344  10.681  10.924  11.568 -0.0952 -0.2040 -0.3996
  944MOL0     C27345  10.792  10.818  11.597  0.6708 -0.2692 -0.3098
  944MOL0     C27346  10.925  10.855  11.522  0.0317 -0.1922 -1.0378
  944MOL0     C27347  11.034  10.773  11.589 -1.1533  0.2543 -0.7325
  944MOL0     C27348  11.172  10.814  11.545  0.1400 -0.4684  1.0319
  944MOL0    Cl27349  11.222  10.970  11.627  0.1068 -0.3109 -0.0825
  944MOL0     C27350  10.010  10.958  11.648 -0.8521  0.8110  0.6610
  944MOL0     C27351   9.891  10.883  11.619 -0.2716 -0.1040  0.3162
  944MOL0     O27352   9.817  10.602  11.359  0.0259 -0.5620 -0.2136
  944MOL0     C27353   9.478  10.721  11.435 -0.8295  0.6761  0.7528
  944MOL0     C27354   9.348  10.684  11.423  0.5673 -1.3783 -0.9023
  944MOL0     N27355   9.034  10.131  11.355  0.4425  0.2398  0.4104
  944MOL0     N27356   9.058  10.007  11.338 -0.0363  0.1448 -0.3708
  944MOL0     C27357   8.154   9.623  10.937  0.4127  0.8554 -0.3503
  944MOL0     C27358   8.032   9.571  10.990 -0.4020  0.7511 -0.0882
  944MOL0     C27359   7.671   9.500  11.245 -0.8474  0.3341  1.1199
  944MOL0     C27360   7.540   9.495  11.185 -0.6997  0.4763 -0.6480
  944MOL0     C27361   7.429   9.447  11.262  0.1611  0.0331  0.1242
  944MOL0     C27362   7.449   9.392  11.391  1.3363 -0.3028  0.3727
  944MOL0     O27363   7.338   9.329  11.454 -0.5797 -0.3622  0.4744
  944MOL0     C27364   7.208   9.323  11.386  0.0624  0.2437 -0.3337
  944MOL0     C27365   7.127   9.457  11.405  0.3434  0.2242  0.4000
  944MOL0     C27366   6.984   9.426  11.345 -0.5450  0.2228  0.9836
  944MOL0     C27367   6.880   9.410  11.458  0.3258  0.0587  0.0013
  944MOL0     C27368   6.916   9.298  11.545 -0.2568 -0.6336  0.3584
  944MOL0     C27369   6.944   9.205  11.620 -0.1199  0.2202  0.5891
  944MOL0     C27370   7.576   9.391  11.438 -0.4839  0.0999  0.0111
  944MOL0     C27371   7.682   9.444  11.373 -0.2645  0.7081  0.0301
  944MOL0     C27372   7.807   9.436  11.448 -0.3804 -0.4885 -0.3949
  944MOL0     H27373   8.122   9.573  11.321 -3.9595 -4.1002 -1.1400
  944MOL0     H27374   8.337   9.619  11.221  0.2469 -0.1779 -0.3969
  944MOL0     H27375   8.460   9.468  10.970 -0.5422 -0.3282 -0.6036
  944MOL0     H27376   8.348   9.509  10.841 -2.3230  4.1432  1.9647
  944MOL0     H27377   8.536   9.681  10.763 -4.3014 -0.8381 -2.3145
  944MOL0     H27378   8.533   9.502  10.713  1.8238 -1.7047  0.4739
  944MOL0     H27379   8.756   9.554  10.758 -2.0100  0.0121 -1.7537
  944MOL0     H27380   8.687   9.416  10.841 -0.0195 -0.2922 -2.3194
  944MOL0     H27381   8.694   9.701  10.982 -0.2601  0.2858  1.6620
  944MOL0     H27382   8.638   9.546  11.042  0.0167 -1.6523 -0.6947
  944MOL0     H27383   8.881   9.462  11.031 -1.0692  0.6160  1.7610
  944MOL0     H27384   8.931   9.615  10.952  0.1620 -2.9134 -0.4174
  944MOL0     H27385   8.852   9.552  11.230  2.8673 -0.6506  1.5978
  944MOL0     H27386   9.013   9.598  11.163  0.1309 -0.2742 -0.6710
  944MOL0     H27387   8.767   9.773  11.197  0.1421 -1.8004  0.4283
  944MOL0     H27388   8.917   9.822  11.111 -2.2380  3.4435 -0.0371
  944MOL0     H27389   8.882   9.756  11.416  2.4696  2.0331  2.7924
  944MOL0     H27390   9.044   9.768  11.340 -0.0747  1.1030  1.7535
  944MOL0     H27391   8.729  10.013  11.373 -0.7611  0.7684 -1.3595
  944MOL0     H27392   8.734  10.305  11.389 -0.6629  2.3296  3.4979
  944MOL0     H27393   8.842  10.276  11.530  2.3357 -0.2491 -0.7924
  944MOL0     H27394   9.004  10.373  11.290  0.5256  2.2670 -0.1110
  944MOL0     H27395   8.868  10.469  11.301  1.7168  0.5659 -1.2139
  944MOL0     H27396   9.034  10.427  11.552  1.9832  1.7658  0.7012
  944MOL0     H27397   8.896  10.538  11.528 -0.2649 -1.6841 -1.0171
  944MOL0     H27398   9.107  10.649  11.526  0.6883  0.1015 -0.2112
  944MOL0     H27399   9.049  10.660  11.354  3.0922  1.6429 -0.9675
  944MOL0     H27400   9.378  10.364  11.324  0.2045 -0.8367 -0.2813
  944MOL0     H27401   9.634  10.439  11.353 -0.7112 -1.0620 -0.0817
  944MOL0     H27402   9.938  10.836  11.287 -0.6439  0.4996 -0.2852
  944MOL0     H27403  10.138  10.957  11.329  0.2059  1.6079  0.5513
  944MOL0     H27404  10.324  10.867  11.529  2.3750 -0.9919  0.7769
  944MOL0     H27405  10.396  11.011  11.441  0.8464  1.1983  0.5907
  944MOL0     H27406  10.489  11.093  11.649  0.1207  0.2071  3.4580
  944MOL0     H27407  10.388  10.973  11.741 -0.2679  0.6136  0.3345
  944MOL0     H27408  10.588  10.849  11.746  3.0815 -0.1955 -1.1721
  944MOL0     H27409  10.515  10.786  11.599  0.5884  0.6674 -0.3985
  944MOL0     H27410  10.700  11.024  11.609 -0.4300 -0.8472  1.4132
  944MOL0     H27411  10.662  10.939  11.461  1.1012 -1.3160 -0.7979
  944MOL0     H27412  10.749  10.721  11.572  0.5184 -1.5598  4.0594
  944MOL0     H27413  10.804  10.817  11.706 -0.5334  0.4727 -0.1535
  944MOL0     H27414  10.918  10.841  11.414  1.0385 -1.1796 -0.9937
  944MOL0     H27415  10.935  10.963  11.535 -4.2094  0.3946 -1.3025
  944MOL0     H27416  11.014  10.666  11.573 -1.5211 -0.4708  3.3557
  944MOL0     H27417  11.022  10.795  11.695 -1.8246  1.6699 -1.0836
  944MOL0     H27418  11.241  10.732  11.567  0.2163 -0.8680 -0.5714
  944MOL0     H27419  11.172  10.833  11.437 -0.6192  0.5915  1.2030
  944MOL0     H27420  10.024  10.984  11.753  1.2190 -0.6415  0.8040
  944MOL0     H27421   9.815  10.871  11.695 -2.0851  1.6701 -1.1043
  944MOL0     H27422   9.492  10.828  11.449  0.7687  0.7753 -1.1884
  944MOL0     H27423   9.274  10.762  11.435  0.0811 -1.7525 -1.4162
  944MOL0     H27424   8.163   9.642  10.830 -0.3064 -2.4590 -1.0889
  944MOL0     H27425   7.951   9.556  10.919 -0.2965 -0.9139  0.1061
  944MOL0     H27426   7.528   9.545  11.089 -2.3466  0.4187 -0.4891
  944MOL0     H27427   7.330   9.446  11.216 -0.0169 -0.6018  0.5020
  944MOL0     H27428   7.152   9.246  11.440  0.0957  0.0065 -0.6386
  944MOL0     H27429   7.216   9.294  11.281 -1.1770 -2.2615  0.1971
  944MOL0     H27430   7.180   9.535  11.348  2.1387 -2.2473 -1.5424
  944MOL0     H27431   7.118   9.484  11.510  0.1105 -3.6489  1.5051
  944MOL0     H27432   6.983   9.333  11.288 -3.2368  0.1353  1.0649
  944MOL0     H27433   6.950   9.510  11.284  1.1679 -0.0993 -0.5259
  944MOL0     H27434   6.869   9.511  11.500 -1.8112 -1.1613  2.6903
  944MOL0     H27435   6.788   9.382  11.407 -0.0684  0.1535  0.6424
  944MOL0     H27436   6.979   9.127  11.684  3.1369  1.3713  0.4133
  944MOL0     H27437   7.581   9.358  11.541  0.9412  0.4817  0.0805
  944MOL0     H27438   7.864   9.352  11.407  3.0841  1.6192 -0.3210
  944MOL0     H27439   7.859   9.533  11.447 -0.8604 -0.1729  1.2000
  944MOL0     H27440   7.796   9.408  11.553  1.8583 -1.6948 -0.4119
  945MOL0     O27441  10.888   9.983   9.669  0.0247  0.1234  0.1547
  945MOL0     C27442  10.790   9.911   9.646 -1.0276 -0.0776  0.6005
  945MOL0     O27443  10.800   9.776   9.630 -0.7509 -0.7937  0.0217
  945MOL0     C27444  10.917   9.711   9.657 -0.0757 -0.2778 -0.8368
  945MOL0     C27445  10.949   9.611   9.565 -0.8500 -0.6795  0.1956
  945MOL0     C27446  11.069   9.529   9.579  0.2578 -0.4774  0.0072
  945MOL0     C27447  11.160   9.552   9.691  0.6920  0.5968 -0.0515
  945MOL0     O27448  11.273   9.484   9.714  0.1060  0.4952 -0.9061
  945MOL0     C27449  11.278   9.347   9.650  0.1153 -0.7976 -0.8112
  945MOL0     C27450  11.407   9.280   9.691 -0.0386  0.2790  0.4144
  945MOL0     C27451  11.403   9.254   9.843  0.4979 -0.1794  1.3450
  945MOL0     C27452  11.495   9.142   9.888  0.9201  0.2510  0.1058
  945MOL0     C27453  11.643   9.163   9.854  0.1820 -0.0298 -0.0489
  945MOL0     C27454  11.717   9.027   9.884  0.0670 -0.7940 -0.4203
  945MOL0     C27455  11.877   9.042   9.886  0.0797  1.2843 -0.2513
  945MOL0     C27456  11.934   9.054   9.749  0.4781 -0.7690 -0.0341
  945MOL0     N27457  12.072   9.005   9.739 -0.3810  0.3199  1.4286
  945MOL0     C27458  12.168   9.024   9.829 -0.4165  0.0381  0.1075
  945MOL0     C27459  12.284   8.985   9.771 -0.2163 -0.1142  0.1424
  945MOL0     C27460  12.420   8.988   9.839 -0.5108 -0.1627  0.1365
  945MOL0     C27461  12.430   8.912   9.977  0.2366  0.0861 -0.3665
  945MOL0     C27462  12.546   8.950  10.067 -0.0300  0.5786  0.4145
  945MOL0     C27463  12.682   8.940  10.000 -0.0498  0.3320  0.1871
  945MOL0     O27464  12.731   8.801  10.000  0.8323 -0.6005 -0.0769
  945MOL0     C27465  12.855   8.785   9.950  0.8836  0.4208 -0.8108
  945MOL0     C27466  12.919   8.671   9.987 -0.6440  0.5209  0.2533
  945MOL0     C27467  13.062   8.657   9.962 -0.2743 -0.1573  0.3696
  945MOL0     C27468  13.127   8.757   9.886 -0.3546  0.7643  1.0227
  945MOL0     C27469  13.265   8.730   9.827 -0.2113 -0.1293  0.0472
  945MOL0     O27470  13.304   8.811   9.728  0.2130  0.6396  0.7042
  945MOL0     C27471  13.438   8.801   9.690  0.8887  0.2613  0.6739
  945MOL0     C27472  13.469   8.778   9.557 -0.3222  0.0973 -0.1347
  945MOL0     C27473  13.601   8.785   9.511 -0.5369  0.1075  0.5654
  945MOL0     C27474  13.707   8.811   9.607  1.2086 -0.0462 -0.3563
  945MOL0     O27475  13.843   8.806   9.574 -0.6039 -0.3831  0.2467
  945MOL0     C27476  13.881   8.851   9.446  0.3928  0.6220 -0.5452
  945MOL0     C27477  14.033   8.855   9.437 -0.8346  0.3937 -0.5532
  945MOL0     C27478  14.099   8.718   9.432 -1.3951 -0.6950 -0.2080
  945MOL0     C27479  14.249   8.725   9.432 -0.2343  0.0864 -0.0487
  945MOL0     C27480  14.309   8.584   9.427 -1.3328  0.2314 -0.4137
  945MOL0     C27481  14.465   8.584   9.418  0.4135  0.2893 -0.6509
  945MOL0     C27482  14.523   8.440   9.395 -0.3396  0.2718 -0.8197
  945MOL0     C27483  14.581   8.433   9.260  0.5366  0.2131  0.2548
  945MOL0    Cl27484  14.629   8.260   9.230 -0.1137 -0.1308  0.1441
  945MOL0     C27485  13.671   8.834   9.741  0.3284  0.9157  0.3409
  945MOL0     C27486  13.539   8.833   9.781  0.3913  0.7000  0.0392
  945MOL0     O27487  13.342   8.654   9.884  0.7345  0.5647 -0.5388
  945MOL0     C27488  13.056   8.865   9.837  0.0060 -0.4303 -0.2824
  945MOL0     C27489  12.926   8.880   9.869  0.3022 -0.2468  0.0902
  945MOL0     N27490  12.257   8.958   9.643  0.2721  0.0565 -0.1395
  945MOL0     N27491  12.128   8.956   9.624 -0.0257 -0.0300 -0.4308
  945MOL0     C27492  11.122   9.655   9.780 -0.1558  0.3833  0.8458
  945MOL0     C27493  11.004   9.728   9.765  0.6207 -0.7882 -0.2678
  945MOL0     C27494  10.659   9.970   9.622  0.0893  0.5205 -0.3233
  945MOL0     C27495  10.654  10.106   9.598  0.3640 -0.2795 -0.4232
  945MOL0     C27496  10.539  10.185   9.616  0.3949 -0.2614  0.5987
  945MOL0     C27497  10.411  10.124   9.619  0.0735 -0.1561 -0.2216
  945MOL0     O27498  10.306  10.211   9.638 -0.3361  0.6052 -0.0052
  945MOL0     C27499  10.171  10.171   9.645  0.7358  0.5852  0.4712
  945MOL0     C27500  10.080  10.286   9.600 -1.0586 -0.0654 -0.0148
  945MOL0     C27501   9.936  10.257   9.630  0.2617 -0.1065 -0.4199
  945MOL0     C27502   9.849  10.383   9.618  0.3073 -0.9952  0.5455
  945MOL0     C27503   9.846  10.426   9.476  1.2527 -0.3754 -0.5781
  945MOL0     C27504   9.843  10.486   9.365 -0.2569  0.3324  0.0361
  945MOL0     C27505  10.409   9.983   9.626 -0.0878  0.4025 -0.5108
  945MOL0     C27506  10.529   9.909   9.624 -0.4969 -0.1338 -0.2452
  945MOL0     C27507  10.518   9.755   9.660  0.0304 -0.5729 -0.7614
  945MOL0     H27508  10.875   9.595   9.488 -1.1351 -0.9429  0.5227
  945MOL0     H27509  11.091   9.460   9.499 -0.7082 -0.8925  0.0803
  945MOL0     H27510  11.192   9.285   9.674  0.0070  0.2957  1.9812
  945MOL0     H27511  11.279   9.367   9.542 -3.3096  1.2536 -0.5974
  945MOL0     H27512  11.495   9.340   9.666  1.2491 -1.4756  0.5555
  945MOL0     H27513  11.404   9.183   9.640 -2.3691 -0.4340  1.7363
  945MOL0     H27514  11.299   9.227   9.863  0.2770 -0.0373  0.4247
  945MOL0     H27515  11.436   9.340   9.902  2.0959  0.5879 -0.5579
  945MOL0     H27516  11.484   9.136   9.997 -1.4188  1.8323  0.0277
  945MOL0     H27517  11.462   9.048   9.843 -0.6047 -0.2765  2.1526
  945MOL0     H27518  11.654   9.180   9.747 -0.8923  0.1979 -0.1351
  945MOL0     H27519  11.682   9.244   9.916 -2.3096  0.7191  0.6668
  945MOL0     H27520  11.696   8.996   9.987  0.6359  2.3649  0.7680
  945MOL0     H27521  11.686   8.943   9.822  0.2729 -0.4172 -1.0409
  945MOL0     H27522  11.914   8.945   9.921  2.3374  2.2260  0.0686
  945MOL0     H27523  11.904   9.118   9.959  1.5893 -0.5091  1.1514
  945MOL0     H27524  11.880   8.994   9.675 -0.6007  1.3276 -1.0356
  945MOL0     H27525  11.927   9.161   9.728 -0.5175 -0.6318  0.9225
  945MOL0     H27526  12.145   9.052   9.931  0.8969 -0.2128  0.4892
  945MOL0     H27527  12.502   8.946   9.780 -0.7031  2.0050 -1.8157
  945MOL0     H27528  12.448   9.092   9.856  0.6916 -0.7629  2.3676
  945MOL0     H27529  12.341   8.924  10.039  0.0064 -0.6029 -0.5434
  945MOL0     H27530  12.430   8.807   9.944  0.6596  0.5560 -1.9554
  945MOL0     H27531  12.548   8.890  10.158  0.8757  1.8276  1.2424
  945MOL0     H27532  12.535   9.053  10.101  0.5718  0.8425 -0.1489
  945MOL0     H27533  12.748   9.004  10.059  1.1244 -1.2371  0.6303
  945MOL0     H27534  12.667   8.987   9.902 -1.3085 -0.0930  0.1590
  945MOL0     H27535  12.863   8.602  10.050  0.7812  0.1926  1.1916
  945MOL0     H27536  13.113   8.570  10.002  1.3424  0.9424  0.7804
  945MOL0     H27537  13.387   8.761   9.488 -0.5880  1.3956 -0.1808
  945MOL0     H27538  13.639   8.762   9.412  1.4292 -0.4744  1.4065
  945MOL0     H27539  13.840   8.780   9.374 -0.4840  0.3249  0.2353
  945MOL0     H27540  13.828   8.947   9.446 -0.7756  0.3535  5.5360
  945MOL0     H27541  14.053   8.918   9.350  3.3367  0.7241  0.4064
  945MOL0     H27542  14.080   8.918   9.513 -0.1507 -0.2554 -0.4259
  945MOL0     H27543  14.065   8.670   9.524 -1.1817  1.2659  0.9270
  945MOL0     H27544  14.061   8.660   9.346  0.0640 -3.2133  0.7364
  945MOL0     H27545  14.286   8.783   9.516  2.1630  1.4673 -1.9128
  945MOL0     H27546  14.283   8.771   9.339 -2.9073 -2.0911 -2.3137
  945MOL0     H27547  14.270   8.540   9.335 -0.8863 -0.9348 -0.0700
  945MOL0     H27548  14.282   8.513   9.506  0.5804 -0.2465 -0.1355
  945MOL0     H27549  14.505   8.645   9.336 -0.4492  0.3287 -1.0474
  945MOL0     H27550  14.504   8.632   9.508 -2.9530  1.0827  0.5066
  945MOL0     H27551  14.443   8.366   9.406 -1.4502  1.5860  0.5387
  945MOL0     H27552  14.599   8.425   9.472  1.5528  1.0654 -2.4538
  945MOL0     H27553  14.492   8.448   9.198 -1.3560 -2.8771  1.9440
  945MOL0     H27554  14.667   8.498   9.247  0.6967  0.1721  1.0933
  945MOL0     H27555  13.753   8.851   9.809  0.9425  2.0280 -0.6350
  945MOL0     H27556  13.517   8.865   9.882  1.6418  0.2497  0.4824
  945MOL0     H27557  13.104   8.948   9.788 -1.5835  1.0535  0.5782
  945MOL0     H27558  12.875   8.965   9.824  2.3230 -0.2211 -2.3886
  945MOL0     H27559  11.190   9.692   9.856  0.8621  0.1232  0.0776
  945MOL0     H27560  10.956   9.793   9.837 -0.1617 -0.1385 -1.3398
  945MOL0     H27561  10.742  10.170   9.590  0.9321 -1.3109 -4.2693
  945MOL0     H27562  10.538  10.294   9.623  0.2890 -0.0854 -1.6090
  945MOL0     H27563  10.146  10.153   9.750 -0.8981  1.2330  0.2315
  945MOL0     H27564  10.147  10.091   9.574 -1.0690  0.4751  1.1422
  945MOL0     H27565  10.093  10.309   9.494  0.0842  0.2262  0.1750
  945MOL0     H27566  10.114  10.379   9.646  2.1234 -0.4327 -1.3470
  945MOL0     H27567   9.925  10.225   9.735 -3.3777  1.7371 -0.0862
  945MOL0     H27568   9.908  10.183   9.554 -0.2670  2.1960 -2.5718
  945MOL0     H27569   9.750  10.366   9.660  0.3290 -0.5908  0.7628
  945MOL0     H27570   9.902  10.457   9.678  1.7964 -2.2796  0.9093
  945MOL0     H27571   9.853  10.547   9.277 -2.4243  0.2251 -0.3375
  945MOL0     H27572  10.316   9.928   9.639 -0.1912  0.8792  1.0090
  945MOL0     H27573  10.589   9.731   9.740  1.5061  3.3649 -0.6755
  945MOL0     H27574  10.422   9.720   9.698 -0.5351 -0.8567 -2.3754
  945MOL0     H27575  10.542   9.694   9.572 -2.5490  0.2127 -2.1254
  946MOL0     O27576   7.080  10.898   3.342  0.3671 -0.1875  0.5673
  946MOL0     C27577   7.128  10.935   3.235 -0.1018 -0.2544 -1.3096
  946MOL0     O27578   7.257  10.950   3.217 -0.7421 -0.5831  0.6175
  946MOL0     C27579   7.340  10.936   3.322  0.1899 -0.7212  0.3081
  946MOL0     C27580   7.345  11.034   3.421  0.3764  0.0439  0.0788
  946MOL0     C27581   7.439  11.020   3.525  0.0970  0.1649  0.7052
  946MOL0     C27582   7.532  10.914   3.525  0.5575 -0.1211 -0.2720
  946MOL0     O27583   7.604  10.893   3.640  0.3246 -0.0938  0.0127
  946MOL0     C27584   7.692  10.789   3.635 -0.1500 -0.5934  0.8731
  946MOL0     C27585   7.760  10.785   3.770 -0.6303  0.0869 -0.8824
  946MOL0     C27586   7.683  10.753   3.907  0.2117 -0.2403 -0.0035
  946MOL0     C27587   7.545  10.670   3.908  0.1113 -1.2012  0.1185
  946MOL0     C27588   7.563  10.523   3.865  1.2326 -0.5959  0.5350
  946MOL0     C27589   7.444  10.432   3.909  0.8365 -0.2741 -0.2922
  946MOL0     C27590   7.450  10.381   4.053 -0.2079 -0.8307  0.0152
  946MOL0     C27591   7.314  10.337   4.110  0.0299  0.1814 -0.3278
  946MOL0     N27592   7.226  10.447   4.147 -0.0474 -0.5547  0.0620
  946MOL0     C27593   7.103  10.466   4.093  0.1479  0.9795  0.4277
  946MOL0     C27594   7.073  10.590   4.143  0.1833  0.2571 -0.4528
  946MOL0     C27595   6.955  10.674   4.120 -0.2909  0.3839 -0.1632
  946MOL0     C27596   6.853  10.642   4.223  0.3149 -0.3374  0.0863
  946MOL0     C27597   6.727  10.727   4.205 -0.7965 -0.2843  0.5876
  946MOL0     C27598   6.752  10.872   4.247  0.0437 -0.5824 -0.0764
  946MOL0     O27599   6.793  10.949   4.142  0.1081  0.5868 -0.2343
  946MOL0     C27600   6.820  11.079   4.182 -0.6039  0.4893 -0.7630
  946MOL0     C27601   6.937  11.100   4.259 -0.2434 -0.8238 -0.2591
  946MOL0     C27602   6.950  11.228   4.317  0.5891 -0.0150  0.7984
  946MOL0     C27603   6.852  11.333   4.293  0.2051 -0.1674 -0.3636
  946MOL0     C27604   6.865  11.465   4.364  0.3054  0.3176  0.3431
  946MOL0     O27605   6.984  11.479   4.427  0.3842 -0.7298  0.4743
  946MOL0     C27606   7.015  11.586   4.509 -0.2879  0.6671 -0.4231
  946MOL0     C27607   6.927  11.655   4.597 -0.7161 -1.1158 -0.5792
  946MOL0     C27608   6.975  11.750   4.681 -0.2153  0.4660 -0.0802
  946MOL0     C27609   7.114  11.768   4.693  0.2317 -0.3582  0.2797
  946MOL0     O27610   7.173  11.858   4.779 -0.2240  0.2531  0.1731
  946MOL0     C27611   7.124  11.990   4.760 -0.8119  0.4331  0.0545
  946MOL0     C27612   7.215  12.100   4.821 -0.1046 -0.0451 -0.0258
  946MOL0     C27613   7.362  12.102   4.770  0.4361  0.6420 -0.5132
  946MOL0     C27614   7.451  12.157   4.882 -0.9055  0.8259  0.0934
  946MOL0     C27615   7.598  12.174   4.844  0.1426 -1.0387 -0.1339
  946MOL0     C27616   7.633  12.299   4.753 -0.0039  0.2068  0.9295
  946MOL0     C27617   7.622  12.425   4.837  0.6851  0.6797  0.6038
  946MOL0     C27618   7.705  12.542   4.793 -0.3347  0.1803  0.1716
  946MOL0    Cl27619   7.873  12.520   4.813 -0.3237 -0.2623 -0.2828
  946MOL0     C27620   7.199  11.693   4.617  0.0341  0.4017  0.0057
  946MOL0     C27621   7.150  11.598   4.530 -0.3845 -0.1236 -0.2214
  946MOL0     O27622   6.773  11.555   4.354 -0.1499  1.2190 -0.2633
  946MOL0     C27623   6.740  11.304   4.216  0.3525  0.1821 -0.9141
  946MOL0     C27624   6.728  11.181   4.158 -1.0807 -0.8033 -0.3571
  946MOL0     N27625   7.175  10.639   4.225 -0.1524 -0.1032 -0.1850
  946MOL0     N27626   7.263  10.547   4.225 -0.1438  0.5677 -1.0107
  946MOL0     C27627   7.536  10.826   3.418 -0.9157 -0.2345  0.2667
  946MOL0     C27628   7.441  10.842   3.315  0.1358  0.4863  0.5931
  946MOL0     C27629   7.031  10.960   3.127  0.2043  0.6573 -0.3909
  946MOL0     C27630   6.930  11.059   3.135  0.1654 -0.9307  0.2507
  946MOL0     C27631   6.832  11.066   3.035  0.8495 -0.4305 -0.2582
  946MOL0     C27632   6.828  10.990   2.922 -0.8951 -0.1659  0.0367
  946MOL0     O27633   6.725  10.981   2.833  0.2653 -0.1583 -0.6870
  946MOL0     C27634   6.612  10.934   2.904  0.3798 -0.1990 -0.7839
  946MOL0     C27635   6.614  10.776   2.918 -0.8071 -0.5185  0.4663
  946MOL0     C27636   6.625  10.704   2.777  0.7691 -0.4748  0.1264
  946MOL0     C27637   6.638  10.547   2.788  0.2480 -0.8836  0.2953
  946MOL0     C27638   6.788  10.522   2.777 -0.0567 -0.0418 -0.1918
  946MOL0     C27639   6.908  10.513   2.762  0.0616  0.4539  0.0439
  946MOL0     C27640   6.934  10.905   2.907 -0.1562  0.2827 -0.0312
  946MOL0     C27641   7.035  10.886   3.007 -0.3462  0.0900 -0.9528
  946MOL0     C27642   7.140  10.782   2.978  0.7753  0.2131  1.0486
  946MOL0     H27643   7.284  11.124   3.428  2.8243  1.7396  1.7097
  946MOL0     H27644   7.448  11.089   3.609  1.7243 -1.0728  1.6195
  946MOL0     H27645   7.646  10.693   3.611 -0.8702  0.2585 -1.4266
  946MOL0     H27646   7.769  10.799   3.558  1.7686 -0.1116  2.7790
  946MOL0     H27647   7.802  10.885   3.786  0.7132 -0.5183 -0.5205
  946MOL0     H27648   7.850  10.724   3.762 -1.2241 -0.6843 -1.7806
  946MOL0     H27649   7.655  10.842   3.963  1.2750 -1.2208  2.2010
  946MOL0     H27650   7.757  10.696   3.964  1.0776 -0.8737 -1.6893
  946MOL0     H27651   7.504  10.668   4.009  0.3171 -0.7552  0.2111
  946MOL0     H27652   7.473  10.722   3.843  1.0427  0.9473  0.7129
  946MOL0     H27653   7.576  10.512   3.757  0.1315  1.5889  0.1270
  946MOL0     H27654   7.646  10.469   3.911  1.4620 -1.5001 -0.8882
  946MOL0     H27655   7.357  10.497   3.893  0.9891 -0.0599 -0.2654
  946MOL0     H27656   7.450  10.342   3.847  2.0949 -2.7000  3.0670
  946MOL0     H27657   7.509  10.451   4.113 -1.1468 -1.3167  1.5377
  946MOL0     H27658   7.512  10.291   4.051 -0.3672 -0.9547  0.6331
  946MOL0     H27659   7.259  10.274   4.039  0.4260 -0.2561 -0.2535
  946MOL0     H27660   7.337  10.286   4.204  2.1023  0.7875 -0.4601
  946MOL0     H27661   7.054  10.402   4.021  1.0864  2.4127 -1.5705
  946MOL0     H27662   6.983  10.780   4.130 -0.0041  0.5726 -2.4251
  946MOL0     H27663   6.917  10.663   4.018  0.0520  0.3810 -0.2919
  946MOL0     H27664   6.821  10.539   4.211 -3.0982  0.2071  3.0273
  946MOL0     H27665   6.894  10.660   4.323 -0.3335 -0.2428  0.3374
  946MOL0     H27666   6.657  10.670   4.267 -0.6856 -1.8147 -0.6173
  946MOL0     H27667   6.687  10.730   4.103 -1.2364 -0.3423  0.7558
  946MOL0     H27668   6.818  10.873   4.334  0.4012 -1.1820 -0.3389
  946MOL0     H27669   6.655  10.916   4.272 -0.9670 -2.3663 -0.6677
  946MOL0     H27670   6.996  11.012   4.285 -0.3613 -0.5134  1.1668
  946MOL0     H27671   7.043  11.243   4.372  0.4449  1.1612  0.7422
  946MOL0     H27672   6.822  11.625   4.598 -0.7300 -1.1410 -1.5508
  946MOL0     H27673   6.911  11.794   4.756  0.3099 -1.4823  1.6144
  946MOL0     H27674   7.105  12.020   4.656  0.1942 -2.8221 -1.1939
  946MOL0     H27675   7.030  12.003   4.815  0.6520 -2.8196  3.7292
  946MOL0     H27676   7.173  12.193   4.783 -1.9500  0.1278  2.2444
  946MOL0     H27677   7.209  12.113   4.929  1.4607  2.5128 -0.1774
  946MOL0     H27678   7.393  12.000   4.744 -2.1088  0.4695 -3.4260
  946MOL0     H27679   7.365  12.168   4.683  2.5958  1.2058 -0.0581
  946MOL0     H27680   7.443  12.093   4.971 -1.0770 -2.1330 -1.8868
  946MOL0     H27681   7.414  12.257   4.906 -1.0411  0.2568  2.5618
  946MOL0     H27682   7.625  12.082   4.792 -2.6779 -2.4543  0.6949
  946MOL0     H27683   7.660  12.179   4.934 -0.9341 -0.4140  0.5939
  946MOL0     H27684   7.739  12.289   4.726 -0.0678  0.6333  0.5181
  946MOL0     H27685   7.572  12.298   4.663  1.9299  0.1964 -0.4524
  946MOL0     H27686   7.653  12.394   4.937  1.6801  0.7011  0.3218
  946MOL0     H27687   7.522  12.460   4.863 -0.0166 -2.0328  1.8565
  946MOL0     H27688   7.685  12.564   4.688 -0.5832  2.8593  0.7009
  946MOL0     H27689   7.681  12.624   4.861  1.8608  1.0862 -0.0399
  946MOL0     H27690   7.305  11.688   4.639  0.0356  0.1285 -0.0616
  946MOL0     H27691   7.217  11.537   4.470  0.3646  0.7713 -0.3234
  946MOL0     H27692   6.669  11.385   4.200 -2.2659 -2.1500 -2.0456
  946MOL0     H27693   6.649  11.153   4.089 -0.6013 -0.3605 -1.0971
  946MOL0     H27694   7.593  10.736   3.399 -1.3791 -0.4951  0.0806
  946MOL0     H27695   7.427  10.772   3.233 -1.2963 -0.5248  1.6542
  946MOL0     H27696   6.937  11.126   3.220  3.6532 -2.0664  1.0168
  946MOL0     H27697   6.741  11.118   3.066  2.8713  1.2898  3.3564
  946MOL0     H27698   6.526  10.969   2.846  0.8879 -0.8886 -1.9957
  946MOL0     H27699   6.590  10.967   3.006  1.8193 -4.3250  1.0480
  946MOL0     H27700   6.523  10.749   2.972 -1.2361 -2.2896 -1.0279
  946MOL0     H27701   6.696  10.755   2.988 -0.7802  0.8488  0.8697
  946MOL0     H27702   6.699  10.745   2.707 -3.2424  2.4151 -2.9433
  946MOL0     H27703   6.529  10.720   2.728  0.1558 -4.1949 -0.1502
  946MOL0     H27704   6.597  10.507   2.881  0.1652 -1.0046  0.2076
  946MOL0     H27705   6.585  10.513   2.698  0.5688 -0.8003  0.0748
  946MOL0     H27706   7.015  10.510   2.749  0.0123 -1.2180 -0.2038
  946MOL0     H27707   6.945  10.853   2.812  1.7762  1.7716 -0.6976
  946MOL0     H27708   7.237  10.831   2.980  0.1731  1.5819 -0.4437
  946MOL0     H27709   7.131  10.698   3.048 -0.7924  0.2881  0.9701
  946MOL0     H27710   7.119  10.728   2.884 -0.2574 -0.6922  1.7683
  947MOL0     O27711  11.090  10.593   0.002  1.1349 -0.6035 -0.7423
  947MOL0     C27712  11.089  10.527  -0.101  0.7204  0.5812 -0.9351
  947MOL0     O27713  11.193  10.448  -0.140  0.1325  0.4191  0.4056
  947MOL0     C27714  11.308  10.451  -0.070 -0.2129  0.4481  0.1036
  947MOL0     C27715  11.425  10.460  -0.145 -0.3644 -0.6054 -0.5468
  947MOL0     C27716  11.545  10.493  -0.079  0.5174 -0.5683  0.3958
  947MOL0     C27717  11.559  10.488   0.056  0.0139  0.8880 -0.6714
  947MOL0     O27718  11.681  10.479   0.110 -0.1617  0.5169 -0.3301
  947MOL0     C27719  11.722  10.588   0.193 -0.3354 -0.2749  0.1680
  947MOL0     C27720  11.870  10.570   0.244  1.2567  0.1826  0.0336
  947MOL0     C27721  11.899  10.423   0.278  1.4867 -0.2941 -0.4141
  947MOL0     C27722  12.042  10.437   0.329  0.4364 -0.8579 -0.2268
  947MOL0     C27723  12.110  10.306   0.360 -0.3555  0.0395  0.5032
  947MOL0     C27724  12.154  10.235   0.229 -0.0050  0.4880 -0.5886
  947MOL0     C27725  12.228  10.105   0.266 -0.3125 -0.0725 -0.4381
  947MOL0     C27726  12.265  10.028   0.134  0.2799 -0.5530  1.1553
  947MOL0     N27727  12.394  10.076   0.082 -0.2987  0.1202 -0.6135
  947MOL0     C27728  12.423  10.185  -0.002 -0.1991  0.1705 -0.5194
  947MOL0     C27729  12.557  10.194  -0.007 -0.7578 -0.2391  1.5489
  947MOL0     C27730  12.636  10.282  -0.097  0.3141 -0.4413  0.1956
  947MOL0     C27731  12.705  10.397  -0.014  0.6072  0.0714  0.7405
  947MOL0     C27732  12.697  10.533  -0.095  0.5101 -0.1183 -0.0249
  947MOL0     C27733  12.804  10.538  -0.200  0.2595  0.0967  1.1770
  947MOL0     O27734  12.932  10.542  -0.127  0.6564 -0.0241 -0.0420
  947MOL0     C27735  13.046  10.571  -0.188  0.1646  0.2276  0.3456
  947MOL0     C27736  13.050  10.621  -0.321 -0.5254 -0.1876  0.0930
  947MOL0     C27737  13.168  10.664  -0.374  0.3256 -0.2723 -0.6545
  947MOL0     C27738  13.289  10.652  -0.307 -0.5540 -0.1254 -0.1587
  947MOL0     C27739  13.412  10.709  -0.368  0.8632  0.0156  0.2452
  947MOL0     O27740  13.387  10.807  -0.459 -0.9421 -0.5151 -1.1597
  947MOL0     C27741  13.480  10.873  -0.526 -0.2193 -0.4938  0.6536
  947MOL0     C27742  13.608  10.893  -0.478 -1.4578 -0.3964  0.6261
  947MOL0     C27743  13.706  10.976  -0.540 -0.9728 -0.2789  0.6093
  947MOL0     C27744  13.664  11.052  -0.658  0.2684 -0.2593  0.1957
  947MOL0     O27745  13.741  11.138  -0.737  0.0278 -0.2893 -0.4935
  947MOL0     C27746  13.876  11.165  -0.691 -0.4707  0.1139 -0.4339
  947MOL0     C27747  13.943  11.251  -0.796 -0.2802  0.2548 -0.2232
  947MOL0     C27748  14.082  11.290  -0.754  0.0253  0.0546 -0.2239
  947MOL0     C27749  14.092  11.364  -0.623 -0.2351 -0.8928  0.4986
  947MOL0     C27750  14.176  11.488  -0.626 -0.4924  0.0996  0.3930
  947MOL0     C27751  14.322  11.460  -0.643  0.0028 -0.7329 -0.2608
  947MOL0     C27752  14.414  11.589  -0.632 -0.1370  0.1079 -0.0873
  947MOL0     C27753  14.422  11.678  -0.760  0.1660 -0.4825 -0.4790
  947MOL0    Cl27754  14.562  11.782  -0.747  0.7200 -0.6845  0.1625
  947MOL0     C27755  13.532  11.033  -0.703  0.8571 -0.1005 -0.1186
  947MOL0     C27756  13.444  10.939  -0.645  0.4794 -0.7482  0.0773
  947MOL0     O27757  13.520  10.666  -0.318 -0.1292  1.1942  0.2790
  947MOL0     C27758  13.291  10.594  -0.174  0.3883  0.8173  0.8329
  947MOL0     C27759  13.166  10.552  -0.125  0.6737  0.2528  0.5679
  947MOL0     N27760  12.608  10.106   0.090  0.0260 -0.5406  0.2931
  947MOL0     N27761  12.511  10.034   0.135 -0.4137 -0.4207 -0.4208
  947MOL0     C27762  11.446  10.463   0.133 -0.3771  0.5449 -0.5928
  947MOL0     C27763  11.327  10.437   0.071 -0.4589  0.4804 -1.0040
  947MOL0     C27764  10.964  10.531  -0.185  0.6703 -0.0584 -0.2642
  947MOL0     C27765  10.864  10.623  -0.145  0.0138  0.4623  0.5846
  947MOL0     C27766  10.747  10.630  -0.214 -0.0261 -0.0890  0.5544
  947MOL0     C27767  10.729  10.553  -0.332 -0.0918  0.2108  0.3175
  947MOL0     O27768  10.619  10.574  -0.409  0.1984  0.1365 -0.5222
  947MOL0     C27769  10.624  10.591  -0.550 -0.3935  0.1882  0.7572
  947MOL0     C27770  10.508  10.511  -0.612 -0.6029  1.0540 -0.2626
  947MOL0     C27771  10.534  10.355  -0.609 -0.1714 -0.4476 -0.8718
  947MOL0     C27772  10.432  10.273  -0.688 -0.4332 -0.5924  0.0837
  947MOL0     C27773  10.293  10.311  -0.645  0.5789 -0.2832  0.0810
  947MOL0     C27774  10.180  10.354  -0.609  0.1762  0.9609  0.5135
  947MOL0     C27775  10.818  10.453  -0.366 -0.5118  0.5192 -0.1008
  947MOL0     C27776  10.935  10.440  -0.291 -0.2829 -0.4954 -0.2232
  947MOL0     C27777  11.034  10.335  -0.346  0.4639 -0.1185  0.1863
  947MOL0     H27778  11.425  10.465  -0.253  3.2656  1.2274 -0.6258
  947MOL0     H27779  11.628  10.517  -0.144 -2.2444  3.2779 -2.1629
  947MOL0     H27780  11.723  10.678   0.131 -1.6073  2.2357  3.5012
  947MOL0     H27781  11.659  10.610   0.280  2.1329  0.3455  1.8967
  947MOL0     H27782  11.894  10.639   0.325  0.1398 -0.2530  0.7557
  947MOL0     H27783  11.930  10.607   0.160 -1.3005  1.9759 -1.1424
  947MOL0     H27784  11.900  10.350   0.197 -0.1753 -1.8303  0.8595
  947MOL0     H27785  11.839  10.386   0.361 -1.0467  1.2815 -1.4404
  947MOL0     H27786  12.096  10.504   0.261  2.9230  0.2933  2.6625
  947MOL0     H27787  12.030  10.484   0.427  1.5761  1.2604 -1.0388
  947MOL0     H27788  12.196  10.328   0.424  0.2357  0.4636 -0.4182
  947MOL0     H27789  12.052  10.235   0.419  1.8746 -0.1895  2.5838
  947MOL0     H27790  12.068  10.197   0.174 -0.0290 -1.6855  0.8193
  947MOL0     H27791  12.222  10.301   0.174 -1.1730  1.6116 -0.7297
  947MOL0     H27792  12.164  10.041   0.328  2.0898 -0.0129  2.3304
  947MOL0     H27793  12.310  10.119   0.338 -1.6638  1.3059  0.9192
  947MOL0     H27794  12.276   9.923   0.163 -1.3228 -0.7711  1.0771
  947MOL0     H27795  12.179  10.040   0.067  0.0109 -1.1145  1.3958
  947MOL0     H27796  12.357  10.236  -0.071 -1.6506 -0.5917  0.2680
  947MOL0     H27797  12.719  10.224  -0.139  0.2921  0.4527 -1.1421
  947MOL0     H27798  12.569  10.324  -0.172  1.2334 -4.5104 -3.2874
  947MOL0     H27799  12.649  10.408   0.079 -1.7906 -0.2510 -0.5718
  947MOL0     H27800  12.804  10.366   0.019  0.9975  0.7393  0.2327
  947MOL0     H27801  12.719  10.618  -0.029 -5.5425 -0.0590  2.5829
  947MOL0     H27802  12.594  10.552  -0.126  0.7034 -1.5434 -1.6738
  947MOL0     H27803  12.794  10.629  -0.260  3.4444 -0.6529 -0.7507
  947MOL0     H27804  12.802  10.454  -0.270  2.8885  0.9330 -0.0392
  947MOL0     H27805  12.962  10.642  -0.380 -0.1495 -1.9333 -1.1578
  947MOL0     H27806  13.179  10.723  -0.465  0.0612 -0.9412 -1.1331
  947MOL0     H27807  13.654  10.839  -0.396  1.0676  0.8414  0.1199
  947MOL0     H27808  13.803  11.004  -0.498  2.0045 -0.0047 -5.3894
  947MOL0     H27809  13.868  11.208  -0.591  1.0300  1.3603 -0.8000
  947MOL0     H27810  13.933  11.072  -0.683 -1.0023 -0.1433  0.4828
  947MOL0     H27811  13.940  11.195  -0.890 -0.6478  1.7962 -1.1666
  947MOL0     H27812  13.885  11.340  -0.820 -1.5197 -0.5273 -0.1841
  947MOL0     H27813  14.141  11.198  -0.744 -1.2349 -0.6123  1.9530
  947MOL0     H27814  14.127  11.347  -0.836 -1.7486 -0.2753 -1.4865
  947MOL0     H27815  14.127  11.296  -0.545  1.9591 -1.1973 -0.6757
  947MOL0     H27816  13.994  11.401  -0.590 -0.0071  0.4603 -0.2594
  947MOL0     H27817  14.155  11.526  -0.525  0.0670  2.2418 -0.2592
  947MOL0     H27818  14.151  11.556  -0.708  2.5079 -0.5833 -1.2251
  947MOL0     H27819  14.348  11.402  -0.554 -1.0673 -0.8114  0.0165
  947MOL0     H27820  14.345  11.395  -0.727  1.6125 -0.8222  0.2222
  947MOL0     H27821  14.515  11.551  -0.614  0.2939  0.9916 -0.5573
  947MOL0     H27822  14.389  11.643  -0.540  1.0497 -2.6553  1.9979
  947MOL0     H27823  14.430  11.604  -0.840  1.2251 -0.8252 -0.0768
  947MOL0     H27824  14.330  11.734  -0.781  1.3283  1.8000  0.1851
  947MOL0     H27825  13.512  11.090  -0.792 -3.4244  0.8549  1.2571
  947MOL0     H27826  13.348  10.910  -0.686 -0.2978 -2.5098  2.8845
  947MOL0     H27827  13.381  10.577  -0.115  0.9510  2.0446  0.3764
  947MOL0     H27828  13.163  10.510  -0.026  0.0291 -1.6741 -0.2235
  947MOL0     H27829  11.445  10.457   0.242 -1.7400  3.0132 -0.4043
  947MOL0     H27830  11.238  10.421   0.132  0.0415 -1.7744 -0.7795
  947MOL0     H27831  10.886  10.690  -0.062  0.1519  0.7886  0.2874
  947MOL0     H27832  10.671  10.707  -0.199 -2.1641 -1.7496 -0.9880
  947MOL0     H27833  10.722  10.559  -0.586  0.2115 -0.4089  2.7596
  947MOL0     H27834  10.611  10.696  -0.577 -1.3271 -0.2426 -0.5655
  947MOL0     H27835  10.503  10.547  -0.715 -0.9814  4.5386  0.8559
  947MOL0     H27836  10.411  10.529  -0.565 -0.0807  0.1528  1.2169
  947MOL0     H27837  10.535  10.324  -0.504 -0.3586 -0.5696 -0.9043
  947MOL0     H27838  10.628  10.325  -0.656 -0.9859 -2.1627 -1.5228
  947MOL0     H27839  10.445  10.296  -0.794 -0.3029 -0.6327  0.0901
  947MOL0     H27840  10.451  10.166  -0.671  0.0532 -0.3469  1.2112
  947MOL0     H27841  10.084  10.382  -0.571 -2.2859 -4.7945 -0.2772
  947MOL0     H27842  10.799  10.398  -0.458  1.1945  1.1080 -0.8489
  947MOL0     H27843  11.110  10.379  -0.411  0.1407  2.9526  1.6947
  947MOL0     H27844  11.086  10.270  -0.275  0.1174 -1.2695 -0.5878
  947MOL0     H27845  10.985  10.257  -0.405  2.0353 -0.0531 -1.2777
  948MOL0     O27846   8.019  11.226   0.157 -0.6464 -0.4719 -0.4602
  948MOL0     C27847   7.928  11.196   0.085  0.8453 -0.0489  0.2905
  948MOL0     O27848   7.927  11.112  -0.026  0.4745  0.0172 -0.4337
  948MOL0     C27849   8.052  11.055  -0.080  0.9125 -0.0096 -0.1782
  948MOL0     C27850   8.155  11.000  -0.008 -0.4120 -0.1953 -0.0128
  948MOL0     C27851   8.267  10.945  -0.072 -0.4766 -1.4800  0.0761
  948MOL0     C27852   8.271  10.945  -0.220 -0.4667  0.2966  0.1767
  948MOL0     O27853   8.375  10.883  -0.281 -0.4557  0.4375 -0.3140
  948MOL0     C27854   8.427  10.928  -0.409  0.2608  0.3074  0.0269
  948MOL0     C27855   8.588  10.941  -0.411  0.6990 -0.1446 -0.4924
  948MOL0     C27856   8.664  10.839  -0.311 -0.2804  0.0090  0.1216
  948MOL0     C27857   8.745  10.904  -0.200 -0.4288  0.0305  0.4420
  948MOL0     C27858   8.830  10.800  -0.123 -0.1753  0.4507  0.1222
  948MOL0     C27859   8.941  10.744  -0.214 -0.3993 -0.3509 -0.6907
  948MOL0     C27860   9.075  10.821  -0.222  0.1649  0.0002  0.6198
  948MOL0     C27861   9.179  10.716  -0.254 -0.9857 -0.3419 -0.2952
  948MOL0     N27862   9.313  10.770  -0.285  0.1644  0.0955 -0.6372
  948MOL0     C27863   9.431  10.694  -0.270  0.3223 -0.2668 -0.0484
  948MOL0     C27864   9.532  10.779  -0.278 -0.2774 -0.6118 -0.1302
  948MOL0     C27865   9.672  10.740  -0.273 -0.7286 -0.4115  0.8553
  948MOL0     C27866   9.743  10.792  -0.396  0.2706  0.1654 -0.3110
  948MOL0     C27867   9.900  10.770  -0.400 -0.1428  0.1445  0.6525
  948MOL0     C27868   9.950  10.625  -0.363 -0.5438  0.6789  0.6600
  948MOL0     O27869  10.092  10.601  -0.406 -0.3445 -0.4069 -0.6675
  948MOL0     C27870  10.189  10.613  -0.305  0.1474 -0.4708 -0.1723
  948MOL0     C27871  10.245  10.495  -0.271  0.3305  0.2723 -1.0167
  948MOL0     C27872  10.332  10.483  -0.165 -0.9431  0.1609 -0.7161
  948MOL0     C27873  10.366  10.603  -0.097  0.9129 -0.4488  0.5006
  948MOL0     C27874  10.450  10.598   0.021  0.4231 -0.0184  0.2132
  948MOL0     O27875  10.458  10.478   0.086  0.4033 -0.1802  0.8276
  948MOL0     C27876  10.570  10.466   0.159  1.1534  0.6107 -0.0276
  948MOL0     C27877  10.693  10.437   0.095 -0.0171 -0.0587 -0.2462
  948MOL0     C27878  10.812  10.424   0.177  0.0614 -0.6323  0.3154
  948MOL0     C27879  10.803  10.440   0.314 -0.6769  0.4171 -0.0322
  948MOL0     O27880  10.914  10.430   0.383 -0.0083  0.5074 -0.1914
  948MOL0     C27881  10.925  10.364   0.511  0.7905  0.2879 -0.0890
  948MOL0     C27882  11.075  10.334   0.517 -0.4177 -0.7966  1.4093
  948MOL0     C27883  11.159  10.463   0.529  0.3667 -0.7603 -0.9545
  948MOL0     C27884  11.312  10.427   0.537 -0.4591  0.3541 -0.5207
  948MOL0     C27885  11.403  10.545   0.538 -1.0593  0.1264 -0.4219
  948MOL0     C27886  11.540  10.494   0.598  0.4659  1.3959 -0.5289
  948MOL0     C27887  11.599  10.367   0.532  0.4251  0.9643  0.2122
  948MOL0     C27888  11.715  10.314   0.610  1.0252 -0.4365 -0.0665
  948MOL0    Cl27889  11.792  10.167   0.555 -0.1877 -0.0503  0.0532
  948MOL0     C27890  10.676  10.457   0.370  0.1904 -0.6146 -0.2303
  948MOL0     C27891  10.560  10.475   0.299  1.1771  0.1088 -0.1159
  948MOL0     O27892  10.503  10.706   0.051  0.0259  0.4595 -0.7041
  948MOL0     C27893  10.304  10.725  -0.132  0.0560  0.5792  0.7599
  948MOL0     C27894  10.211  10.729  -0.235  0.3020 -0.6776 -0.0667
  948MOL0     N27895   9.478  10.906  -0.299  0.1582 -0.2818  1.0573
  948MOL0     N27896   9.348  10.900  -0.295  0.1506 -0.2098  0.3727
  948MOL0     C27897   8.167  11.002  -0.288  0.1491  0.0465 -0.1348
  948MOL0     C27898   8.056  11.057  -0.217 -0.8282 -0.1376  0.6913
  948MOL0     C27899   7.789  11.260   0.113 -0.4911 -0.2113 -0.4244
  948MOL0     C27900   7.691  11.243   0.017  0.0797  0.2612  0.6384
  948MOL0     C27901   7.557  11.283   0.022  0.2761  0.3764  0.4503
  948MOL0     C27902   7.528  11.364   0.134  0.6262  0.6259  0.6610
  948MOL0     O27903   7.404  11.425   0.147  0.4868  0.0861 -0.7596
  948MOL0     C27904   7.292  11.326   0.119  0.0897 -0.2700 -0.2350
  948MOL0     C27905   7.174  11.359   0.204  0.5173 -0.7320 -0.9664
  948MOL0     C27906   7.159  11.506   0.222 -0.2785 -0.7882  0.5793
  948MOL0     C27907   7.031  11.548   0.287  0.1410 -0.1069 -0.1851
  948MOL0     C27908   7.030  11.526   0.432 -0.4102 -0.5790  0.6333
  948MOL0     C27909   7.026  11.524   0.552 -0.3148 -1.0717 -0.7166
  948MOL0     C27910   7.626  11.391   0.224 -0.8150  0.0030 -0.7877
  948MOL0     C27911   7.753  11.333   0.222  0.0982  0.4161  0.2654
  948MOL0     C27912   7.842  11.372   0.336 -0.2066  0.0376  0.6873
  948MOL0     H27913   8.157  10.990   0.100  0.1857 -1.9155 -0.1489
  948MOL0     H27914   8.350  10.911  -0.011 -0.1959 -3.9746 -1.5521
  948MOL0     H27915   8.400  10.851  -0.481  1.4780  0.0867 -0.2171
  948MOL0     H27916   8.385  11.021  -0.448  1.5188  0.3669 -1.2786
  948MOL0     H27917   8.620  11.045  -0.395  2.6688 -0.6792 -0.7143
  948MOL0     H27918   8.621  10.931  -0.515  3.4694 -2.2759  0.4493
  948MOL0     H27919   8.733  10.778  -0.371  0.3089  0.1612  0.6383
  948MOL0     H27920   8.595  10.775  -0.256 -1.4967  2.7056  1.8885
  948MOL0     H27921   8.813  10.983  -0.234  1.1941 -1.0015  1.1750
  948MOL0     H27922   8.676  10.957  -0.134 -0.2618  2.3272 -1.0841
  948MOL0     H27923   8.865  10.838  -0.027  0.4083  1.9676 -0.6674
  948MOL0     H27924   8.755  10.723  -0.101 -0.3562  0.6208  0.1039
  948MOL0     H27925   8.969  10.648  -0.169 -0.1715  0.0067 -0.0457
  948MOL0     H27926   8.908  10.730  -0.317 -0.3172  1.6814 -1.0500
  948MOL0     H27927   9.102  10.868  -0.127 -0.7654  1.1035  0.3538
  948MOL0     H27928   9.073  10.902  -0.295 -1.4255  0.0272  0.6585
  948MOL0     H27929   9.184  10.653  -0.164  0.0646  0.1806  0.0314
  948MOL0     H27930   9.148  10.653  -0.338 -1.2687 -0.5784 -0.0178
  948MOL0     H27931   9.441  10.589  -0.243 -3.0526 -0.2686  1.7344
  948MOL0     H27932   9.720  10.791  -0.189 -1.5632 -0.9628  1.6851
  948MOL0     H27933   9.688  10.632  -0.278  1.9838 -0.0297 -1.1401
  948MOL0     H27934   9.703  10.749  -0.488  0.2585 -0.2213 -0.1306
  948MOL0     H27935   9.726  10.900  -0.392  0.6352  0.3148 -2.1833
  948MOL0     H27936   9.957  10.842  -0.340  0.3460  1.1583 -0.9334
  948MOL0     H27937   9.940  10.784  -0.501 -0.7221 -0.9802  0.2565
  948MOL0     H27938   9.892  10.564  -0.432  2.0529  0.2425 -1.2893
  948MOL0     H27939   9.929  10.589  -0.262  0.8260  1.8350  1.3906
  948MOL0     H27940  10.227  10.397  -0.314  1.4924 -0.9690  1.1378
  948MOL0     H27941  10.375  10.388  -0.137 -1.8032 -0.2521 -0.7802
  948MOL0     H27942  10.686  10.416  -0.011 -1.0801  0.8118 -0.3696
  948MOL0     H27943  10.906  10.432   0.123 -0.9648  2.9077 -1.3015
  948MOL0     H27944  10.878  10.418   0.593 -0.0863 -0.3116 -0.1794
  948MOL0     H27945  10.878  10.265   0.504 -2.9625  1.9438 -0.3463
  948MOL0     H27946  11.087  10.271   0.605  0.4351 -1.2632  0.9806
  948MOL0     H27947  11.088  10.279   0.422 -1.5780  0.4470  0.4977
  948MOL0     H27948  11.134  10.527   0.443 -2.4600  0.1145  0.3677
  948MOL0     H27949  11.131  10.524   0.615 -1.0032 -0.6247 -1.4566
  948MOL0     H27950  11.336  10.360   0.454  2.0071 -2.5288  2.2774
  948MOL0     H27951  11.335  10.363   0.623  0.0967  0.9821 -0.1951
  948MOL0     H27952  11.367  10.623   0.606  0.1511  1.0322 -0.7839
  948MOL0     H27953  11.412  10.596   0.442  0.2865  0.3283 -0.2168
  948MOL0     H27954  11.616  10.571   0.578  2.0880  0.5076  1.7542
  948MOL0     H27955  11.547  10.487   0.707  2.2799 -1.8737 -0.7169
  948MOL0     H27956  11.637  10.418   0.443 -1.4914  4.0815  1.0285
  948MOL0     H27957  11.527  10.292   0.501  1.4417 -0.1806  0.5565
  948MOL0     H27958  11.781  10.398   0.635 -1.7309  1.8390  0.1059
  948MOL0     H27959  11.673  10.279   0.705  2.4329 -1.2333  0.2904
  948MOL0     H27960  10.676  10.484   0.475  0.4786  2.3279 -0.9216
  948MOL0     H27961  10.472  10.515   0.349  0.3881  0.7294 -1.8983
  948MOL0     H27962  10.322  10.812  -0.069  2.1983  0.7246  0.0034
  948MOL0     H27963  10.151  10.818  -0.248  0.6216  0.3702  4.0692
  948MOL0     H27964   8.170  10.996  -0.396  2.4102  2.9041 -0.3747
  948MOL0     H27965   7.969  11.090  -0.274 -2.8883 -1.4877  2.8630
  948MOL0     H27966   7.702  11.180  -0.070  0.0097 -1.5153  1.8593
  948MOL0     H27967   7.482  11.273  -0.055  0.0205  4.2456  0.0348
  948MOL0     H27968   7.315  11.220   0.135 -1.2492 -0.5729 -0.2058
  948MOL0     H27969   7.259  11.341   0.016 -3.5665  0.1673  0.8655
  948MOL0     H27970   7.189  11.302   0.296 -1.5239  0.2360  0.0361
  948MOL0     H27971   7.081  11.325   0.158  1.0538 -0.8868 -1.9539
  948MOL0     H27972   7.165  11.549   0.122  1.0488 -1.2270  0.4434
  948MOL0     H27973   7.238  11.547   0.286 -1.2490  0.3586  1.0770
  948MOL0     H27974   7.006  11.654   0.280 -1.5268 -0.5410 -1.5553
  948MOL0     H27975   6.954  11.489   0.235  0.9110 -1.5135  0.2185
  948MOL0     H27976   6.996  11.524   0.655 -3.5389  0.6965 -1.5152
  948MOL0     H27977   7.598  11.456   0.307 -0.0370  0.2739 -0.7270
  948MOL0     H27978   7.844  11.292   0.410  0.1494 -0.2167  0.4059
  948MOL0     H27979   7.944  11.400   0.309 -0.6880  0.1499 -1.1844
  948MOL0     H27980   7.809  11.467   0.380 -1.1814  0.2607 -0.4629
  949MOL0     O27981   5.515   4.403  11.138  0.4300  0.6057 -0.5640
  949MOL0     C27982   5.458   4.293  11.138 -0.1303 -0.0485 -0.5218
  949MOL0     O27983   5.515   4.177  11.177  0.2516 -0.7548  0.1627
  949MOL0     C27984   5.644   4.184  11.212  0.0544 -0.1741 -0.3247
  949MOL0     C27985   5.748   4.204  11.123  0.2021 -0.4849 -0.5973
  949MOL0     C27986   5.886   4.183  11.169 -0.3254  0.0808 -0.3453
  949MOL0     C27987   5.906   4.159  11.309 -0.1328  0.0414  0.1340
  949MOL0     O27988   6.029   4.142  11.365 -0.1864 -0.2382  0.4773
  949MOL0     C27989   6.141   4.166  11.282  0.2154  0.1697 -0.2414
  949MOL0     C27990   6.264   4.151  11.370  0.2494 -0.2746 -0.0698
  949MOL0     C27991   6.392   4.187  11.298  0.2604 -0.5042 -1.0176
  949MOL0     C27992   6.486   4.264  11.388 -0.4062 -0.2241  0.1274
  949MOL0     C27993   6.617   4.294  11.310  0.3167  0.3280  0.1821
  949MOL0     C27994   6.600   4.414  11.210 -0.5836 -0.6288  1.1325
  949MOL0     C27995   6.735   4.470  11.160  0.0047  0.1567  0.1467
  949MOL0     C27996   6.815   4.560  11.256  0.1126 -0.4572 -0.0661
  949MOL0     N27997   6.959   4.592  11.225 -0.2351  0.1991 -0.3032
  949MOL0     C27998   7.019   4.589  11.100  0.3862  0.3890  0.9143
  949MOL0     C27999   7.155   4.619  11.117  0.1223  0.5676 -1.3466
  949MOL0     C28000   7.277   4.630  11.023 -0.5617 -0.0388 -0.0614
  949MOL0     C28001   7.315   4.776  10.984  0.5592  0.5144  0.5206
  949MOL0     C28002   7.404   4.857  11.086 -0.4353  0.5229 -0.1946
  949MOL0     C28003   7.557   4.811  11.092  0.7845  0.5041 -0.2924
  949MOL0     O28004   7.632   4.882  10.991  0.0080 -0.5306  0.0836
  949MOL0     C28005   7.766   4.888  10.991  0.8327  1.1312 -0.8393
  949MOL0     C28006   7.843   4.791  11.055  0.4001 -0.1105 -0.1411
  949MOL0     C28007   7.975   4.818  11.066 -0.2704 -0.2245 -0.0925
  949MOL0     C28008   8.038   4.927  10.996 -0.9671 -0.4348 -0.3996
  949MOL0     C28009   8.184   4.953  11.016  0.3841  0.0924 -0.6739
  949MOL0     O28010   8.256   4.852  11.070 -0.4082 -0.4693  0.1820
  949MOL0     C28011   8.382   4.878  11.117  0.9264  0.0769  0.7110
  949MOL0     C28012   8.488   4.896  11.027  0.3183 -1.0788  0.0858
  949MOL0     C28013   8.620   4.926  11.074  0.2807 -0.2227  0.4208
  949MOL0     C28014   8.643   4.930  11.211  0.0535 -0.0650 -0.4132
  949MOL0     O28015   8.771   4.960  11.254  0.3572  1.0662  0.0177
  949MOL0     C28016   8.811   4.935  11.382 -1.1406 -0.3556  0.8546
  949MOL0     C28017   8.961   4.939  11.392 -0.3693  0.5628  0.0150
  949MOL0     C28018   9.003   4.868  11.522  0.1027 -0.3602 -0.2289
  949MOL0     C28019   9.154   4.856  11.535 -0.8398  0.0328  0.1164
  949MOL0     C28020   9.198   4.780  11.658 -0.1768 -0.0539  0.1228
  949MOL0     C28021   9.356   4.760  11.656 -0.1803  0.7223 -0.1761
  949MOL0     C28022   9.418   4.670  11.770  0.1057 -0.0548  0.7449
  949MOL0     C28023   9.396   4.737  11.911  0.3129  0.4416 -0.9940
  949MOL0    Cl28024   9.471   4.899  11.916 -0.2208 -0.0086 -0.0947
  949MOL0     C28025   8.532   4.915  11.298 -0.3895 -0.1733 -0.4606
  949MOL0     C28026   8.399   4.887  11.252 -0.8815 -0.3215 -0.2370
  949MOL0     O28027   8.229   5.066  10.994  0.1882  0.4783  0.3395
  949MOL0     C28028   7.954   5.008  10.913 -0.2864 -0.7212  0.5200
  949MOL0     C28029   7.820   4.985  10.914  0.6246  0.2671  0.4922
  949MOL0     N28030   7.165   4.627  11.255 -0.4682 -0.4054  0.0061
  949MOL0     N28031   7.055   4.613  11.319  0.8446 -0.3831  0.4408
  949MOL0     C28032   5.800   4.144  11.396 -0.5088 -0.4219  0.0410
  949MOL0     C28033   5.674   4.154  11.345  0.0044  0.2384 -0.4477
  949MOL0     C28034   5.316   4.282  11.110  0.2860 -0.0351 -0.5810
  949MOL0     C28035   5.233   4.400  11.115 -0.5205 -1.1555  0.9183
  949MOL0     C28036   5.102   4.398  11.088  0.3147 -0.9465 -0.2832
  949MOL0     C28037   5.022   4.279  11.091 -0.4247  0.9832  0.4490
  949MOL0     O28038   4.888   4.288  11.078  0.2983 -0.5245  0.7218
  949MOL0     C28039   4.815   4.166  11.105  0.0121 -0.1976 -0.3817
  949MOL0     C28040   4.668   4.201  11.120  0.5218 -0.5384 -1.3499
  949MOL0     C28041   4.644   4.272  11.256 -0.0642 -0.0844  0.5364
  949MOL0     C28042   4.500   4.314  11.278  0.3638 -0.4370  0.1224
  949MOL0     C28043   4.402   4.200  11.292 -0.2207 -1.3397 -0.2506
  949MOL0     C28044   4.331   4.107  11.295  0.9216  0.5782  1.3008
  949MOL0     C28045   5.099   4.162  11.088 -1.3789  0.7026 -1.9033
  949MOL0     C28046   5.243   4.160  11.103 -0.0251  1.0533  0.1040
  949MOL0     C28047   5.307   4.025  11.105 -0.7212 -0.0506 -0.2487
  949MOL0     H28048   5.735   4.219  11.017 -1.2124 -0.8170 -0.4848
  949MOL0     H28049   5.968   4.188  11.098 -0.3740  0.6376 -0.3708
  949MOL0     H28050   6.139   4.082  11.212 -2.7318  0.7518 -1.0107
  949MOL0     H28051   6.131   4.260  11.226 -4.2755 -0.8711 -1.6573
  949MOL0     H28052   6.254   4.052  11.415 -3.1922  0.0811  0.1726
  949MOL0     H28053   6.265   4.221  11.454  1.1521  0.0841 -0.3589
  949MOL0     H28054   6.373   4.261  11.220 -0.1315  0.7067  0.1952
  949MOL0     H28055   6.433   4.098  11.250  0.7874 -0.0787 -1.3651
  949MOL0     H28056   6.437   4.356  11.421 -0.3333 -0.3190  0.5045
  949MOL0     H28057   6.512   4.205  11.476 -2.1012  1.3044  1.7452
  949MOL0     H28058   6.700   4.318  11.377  0.6145  3.4205 -1.1088
  949MOL0     H28059   6.654   4.213  11.246  2.0767  3.0338 -2.5329
  949MOL0     H28060   6.538   4.384  11.125  1.9594  2.8114 -2.3187
  949MOL0     H28061   6.561   4.505  11.258 -0.8314  0.1618 -0.4799
  949MOL0     H28062   6.707   4.527  11.070 -1.5025 -0.9520 -0.1321
  949MOL0     H28063   6.799   4.384  11.139  1.8594  0.9521  2.2227
  949MOL0     H28064   6.747   4.645  11.261 -0.8142 -0.9780 -2.4149
  949MOL0     H28065   6.814   4.506  11.351 -0.3857 -2.2403 -1.0294
  949MOL0     H28066   6.974   4.574  11.003  1.9472 -1.9650  0.4624
  949MOL0     H28067   7.370   4.586  11.059 -0.0251  0.6869 -0.5278
  949MOL0     H28068   7.244   4.578  10.933  1.6099  0.8975 -1.4854
  949MOL0     H28069   7.359   4.775  10.884 -0.5917 -0.6454 -0.0053
  949MOL0     H28070   7.217   4.820  10.967  0.6403  1.0924  1.4610
  949MOL0     H28071   7.357   4.859  11.184  2.3849  2.6980  1.2883
  949MOL0     H28072   7.393   4.953  11.034  0.5615  1.0132  0.4737
  949MOL0     H28073   7.570   4.705  11.071  2.7497  0.1383  2.3120
  949MOL0     H28074   7.584   4.837  11.195 -0.8080  1.0701  0.0195
  949MOL0     H28075   7.800   4.707  11.109 -1.3120  1.5247  1.1995
  949MOL0     H28076   8.019   4.755  11.142  0.3996  1.7052  1.1722
  949MOL0     H28077   8.459   4.884  10.923 -1.7023 -0.0206  0.4788
  949MOL0     H28078   8.697   4.949  11.002 -1.1937  1.0784 -0.7987
  949MOL0     H28079   8.774   5.020  11.440  1.0864  1.3473 -0.0302
  949MOL0     H28080   8.775   4.844  11.430 -1.0086 -1.6918 -1.4045
  949MOL0     H28081   9.000   4.886  11.305  0.1329  0.4305  0.3164
  949MOL0     H28082   8.996   5.042  11.380  1.0933 -0.0046 -0.7878
  949MOL0     H28083   8.971   4.932  11.605  2.8945 -0.0177  0.7092
  949MOL0     H28084   8.954   4.771  11.535  2.8404 -1.5311  2.6050
  949MOL0     H28085   9.191   4.960  11.537 -2.9299  0.8076  0.4984
  949MOL0     H28086   9.187   4.807  11.443  0.2119  0.8364  0.0367
  949MOL0     H28087   9.151   4.681  11.650 -1.5020  0.6553 -1.5716
  949MOL0     H28088   9.156   4.830  11.746 -1.4164 -3.8759  1.9189
  949MOL0     H28089   9.373   4.708  11.562 -0.6182 -2.1908  1.2300
  949MOL0     H28090   9.399   4.860  11.653 -0.4053  0.7936 -1.1841
  949MOL0     H28091   9.523   4.660  11.740 -0.3363 -1.4388 -0.4632
  949MOL0     H28092   9.378   4.568  11.769 -0.1625  0.0178 -1.9617
  949MOL0     H28093   9.289   4.739  11.933  1.0701  0.2612  3.6697
  949MOL0     H28094   9.435   4.686  12.000 -0.6762 -1.7811 -1.7576
  949MOL0     H28095   8.539   4.926  11.406 -0.9904 -0.4759 -0.3898
  949MOL0     H28096   8.313   4.876  11.317 -1.0204 -2.3284 -0.7129
  949MOL0     H28097   8.001   5.085  10.853  0.3677 -0.5100  1.2881
  949MOL0     H28098   7.753   5.048  10.855 -1.7207 -0.9109  1.7418
  949MOL0     H28099   5.806   4.116  11.501 -0.2294 -3.1125 -0.6086
  949MOL0     H28100   5.598   4.147  11.421  1.5147  1.0153  1.2176
  949MOL0     H28101   5.260   4.505  11.123 -4.1521  0.1087 -1.1107
  949MOL0     H28102   5.055   4.495  11.076  1.9434 -0.2013 -0.8694
  949MOL0     H28103   4.848   4.136  11.205 -2.8917 -2.0006  0.1288
  949MOL0     H28104   4.829   4.088  11.029  4.5743  1.1525 -1.2676
  949MOL0     H28105   4.618   4.105  11.134  0.8961 -0.3644  2.0130
  949MOL0     H28106   4.627   4.250  11.032  0.2872  0.5111 -0.6779
  949MOL0     H28107   4.710   4.360  11.256  0.2582 -0.2508 -2.0156
  949MOL0     H28108   4.681   4.202  11.332 -1.2533 -1.3556 -0.0194
  949MOL0     H28109   4.484   4.371  11.369  1.1981 -0.8835  0.5595
  949MOL0     H28110   4.462   4.369  11.192  0.1987  0.6127  0.8559
  949MOL0     H28111   4.266   4.021  11.298 -0.1166  1.3267  0.7891
  949MOL0     H28112   5.049   4.068  11.067 -1.5641  0.2457  0.3244
  949MOL0     H28113   5.243   3.937  11.091  1.3207 -1.9175  1.2651
  949MOL0     H28114   5.385   4.018  11.029  0.3592  0.1217  0.7938
  949MOL0     H28115   5.350   4.020  11.206 -2.3387  1.2553  0.5464
  950MOL0     O28116   3.170   5.425   9.193 -0.5950  0.4326  0.3615
  950MOL0     C28117   3.085   5.416   9.280  0.3873 -0.2369 -0.4466
  950MOL0     O28118   3.117   5.395   9.411  0.2294 -0.7093 -0.0811
  950MOL0     C28119   3.242   5.409   9.469 -0.3420 -0.2034 -0.1676
  950MOL0     C28120   3.362   5.376   9.401  0.4895  1.1374  0.2723
  950MOL0     C28121   3.486   5.413   9.457  0.0569  0.6726  0.4528
  950MOL0     C28122   3.490   5.464   9.585 -0.0829 -0.6558  0.2827
  950MOL0     O28123   3.597   5.511   9.664  0.3861 -0.1580 -0.4133
  950MOL0     C28124   3.728   5.515   9.614 -0.7006  0.1725 -0.2296
  950MOL0     C28125   3.811   5.618   9.688 -0.0866  0.9983  0.6393
  950MOL0     C28126   3.886   5.545   9.799 -0.8309 -0.2904  0.2613
  950MOL0     C28127   3.979   5.641   9.884  0.0239 -0.1440 -0.3949
  950MOL0     C28128   4.080   5.562   9.971 -0.2947  0.2986  0.6686
  950MOL0     C28129   4.170   5.649  10.056  0.1631  0.0309  0.3874
  950MOL0     C28130   4.259   5.743   9.988 -0.3062 -0.1085 -0.0515
  950MOL0     C28131   4.360   5.672   9.888  0.1916  0.4621 -0.5469
  950MOL0     N28132   4.420   5.549   9.947  0.0151  0.3633  0.8897
  950MOL0     C28133   4.416   5.424   9.896  0.4699  1.1597  0.2881
  950MOL0     C28134   4.502   5.347   9.965 -0.4024  0.6738 -0.0106
  950MOL0     C28135   4.531   5.205   9.954 -0.3044 -0.4411 -0.6088
  950MOL0     C28136   4.678   5.173   9.959 -0.1823 -0.7596 -0.3773
  950MOL0     C28137   4.698   5.028   9.975  0.5081 -0.4724 -0.0064
  950MOL0     C28138   4.845   4.986   9.984 -0.2061  0.0429  0.4794
  950MOL0     O28139   4.925   5.046  10.087  0.2517  0.1324  0.5010
  950MOL0     C28140   5.042   4.979  10.111  0.0895  0.4043 -0.0153
  950MOL0     C28141   5.102   5.002  10.236 -0.0529  0.0719 -0.0311
  950MOL0     C28142   5.224   4.949  10.278  0.7620  0.7581  0.1787
  950MOL0     C28143   5.282   4.859  10.185 -0.0844  0.6349 -0.1262
  950MOL0     C28144   5.412   4.799  10.228  0.4123  0.7953  0.3415
  950MOL0     O28145   5.424   4.761  10.357  0.0179  0.2707  0.0163
  950MOL0     C28146   5.536   4.688  10.386 -0.5732 -0.2565  0.2296
  950MOL0     C28147   5.670   4.741  10.399 -0.1680  0.5540  0.3088
  950MOL0     C28148   5.777   4.656  10.430  0.0787  0.0292 -0.5663
  950MOL0     C28149   5.760   4.514  10.447  0.0041 -0.3743 -0.4949
  950MOL0     O28150   5.864   4.433  10.483 -0.0057 -0.2572 -0.0444
  950MOL0     C28151   5.997   4.487  10.485  0.5803  0.6144 -0.3367
  950MOL0     C28152   6.104   4.384  10.521  0.2452 -0.7326 -0.4038
  950MOL0     C28153   6.246   4.446  10.516 -0.2887  0.0192 -0.0678
  950MOL0     C28154   6.343   4.342  10.572 -0.2819  0.2466 -0.1740
  950MOL0     C28155   6.495   4.385  10.556 -0.1228  0.0394  0.1717
  950MOL0     C28156   6.588   4.277  10.610 -0.0403 -0.3609  0.1061
  950MOL0     C28157   6.732   4.325  10.623  0.2010 -0.4156  0.4163
  950MOL0     C28158   6.759   4.393  10.752  0.3794 -0.1748 -0.3456
  950MOL0    Cl28159   6.939   4.424  10.769  0.6353 -0.1718 -0.0133
  950MOL0     C28160   5.638   4.467  10.439  0.3536  0.3624  0.1947
  950MOL0     C28161   5.527   4.547  10.409  0.1716 -0.0497 -0.1939
  950MOL0     O28162   5.507   4.803  10.148  0.7809  0.1226 -0.3201
  950MOL0     C28163   5.224   4.832  10.061  0.3660  0.3961 -0.0170
  950MOL0     C28164   5.106   4.889  10.020 -0.2666  0.1994  0.6207
  950MOL0     N28165   4.545   5.425  10.068  0.1844  0.1863 -0.3612
  950MOL0     N28166   4.501   5.551  10.055  0.5788  0.1929  0.1606
  950MOL0     C28167   3.371   5.480   9.654 -0.4827 -0.1689  0.7215
  950MOL0     C28168   3.248   5.459   9.593 -0.2636 -0.1479  0.0787
  950MOL0     C28169   2.943   5.431   9.244 -0.2225 -0.5325 -0.2053
  950MOL0     C28170   2.851   5.337   9.305  0.3430  0.1603 -0.3650
  950MOL0     C28171   2.717   5.343   9.286  0.5450 -0.6039  0.4046
  950MOL0     C28172   2.667   5.444   9.198 -0.6666  0.5363  0.2300
  950MOL0     O28173   2.534   5.454   9.156  0.1429 -0.5540  0.5447
  950MOL0     C28174   2.445   5.337   9.184  0.3428  0.0850 -0.4715
  950MOL0     C28175   2.385   5.347   9.329  0.1606  0.4218 -0.0248
  950MOL0     C28176   2.316   5.483   9.349  0.5551  0.5735 -0.4811
  950MOL0     C28177   2.246   5.505   9.477  0.4083  0.7551  0.4840
  950MOL0     C28178   2.153   5.396   9.497  1.0404 -0.5076 -0.4515
  950MOL0     C28179   2.080   5.309   9.524 -1.1517  0.6123  0.2153
  950MOL0     C28180   2.756   5.530   9.120 -0.7598 -0.1791  0.4980
  950MOL0     C28181   2.896   5.526   9.151  1.0345 -0.1784 -0.5886
  950MOL0     C28182   2.975   5.628   9.083 -0.0683 -0.6131 -0.4634
  950MOL0     H28183   3.361   5.336   9.301 -1.5044 -0.7857  0.9750
  950MOL0     H28184   3.571   5.402   9.390  1.2217  2.2673  1.5938
  950MOL0     H28185   3.788   5.423   9.616  1.2850  1.4121  0.8697
  950MOL0     H28186   3.718   5.551   9.511  0.3682  0.0428 -0.3947
  950MOL0     H28187   3.756   5.707   9.722 -2.0923  2.3649 -5.1280
  950MOL0     H28188   3.888   5.654   9.620 -0.2234 -2.7887 -1.7718
  950MOL0     H28189   3.960   5.476   9.760  0.0956 -0.0148  1.4570
  950MOL0     H28190   3.816   5.496   9.867 -1.6437  2.3299  1.4614
  950MOL0     H28191   4.036   5.705   9.817  2.6655  0.4274  2.1954
  950MOL0     H28192   3.917   5.716   9.936 -0.2571 -0.4951 -0.2120
  950MOL0     H28193   4.020   5.508  10.045 -0.7621  2.2949  1.8343
  950MOL0     H28194   4.137   5.501   9.901  0.9598  0.9928  1.0636
  950MOL0     H28195   4.103   5.715  10.112 -1.4345 -1.2620  0.0752
  950MOL0     H28196   4.223   5.581  10.124  1.5375  0.6926  0.0179
  950MOL0     H28197   4.305   5.805  10.065 -0.6559  1.3843 -0.9979
  950MOL0     H28198   4.202   5.810   9.923 -0.6168  0.2171  0.5502
  950MOL0     H28199   4.319   5.660   9.787  0.7032 -0.6669 -0.6347
  950MOL0     H28200   4.435   5.748   9.866  0.6148 -0.6520 -3.3567
  950MOL0     H28201   4.357   5.388   9.813 -2.2078 -1.1753  2.9436
  950MOL0     H28202   4.474   5.152  10.031 -1.9697  1.1899 -0.6304
  950MOL0     H28203   4.500   5.168   9.856 -0.3257  1.5252 -1.3830
  950MOL0     H28204   4.725   5.209   9.867  0.1013  1.0879  0.4440
  950MOL0     H28205   4.725   5.225  10.043 -1.8441  0.0533  0.0740
  950MOL0     H28206   4.655   4.971   9.892  0.5846  0.3293 -0.6088
  950MOL0     H28207   4.639   4.994  10.061 -2.1754  2.2477 -0.6151
  950MOL0     H28208   4.884   5.006   9.884 -1.2902  0.3088  0.0976
  950MOL0     H28209   4.833   4.877   9.993 -0.3895  0.1637  1.9599
  950MOL0     H28210   5.049   5.074  10.297 -0.1651 -1.3082  1.5556
  950MOL0     H28211   5.260   4.965  10.379 -0.8374  0.3642  0.8451
  950MOL0     H28212   5.689   4.846  10.379 -0.1548  0.1583 -2.1311
  950MOL0     H28213   5.874   4.703  10.444  0.7893 -0.9922 -1.8500
  950MOL0     H28214   6.023   4.517  10.383 -0.7325  2.3521 -0.2140
  950MOL0     H28215   5.991   4.566  10.561 -1.2251  0.2106 -0.0056
  950MOL0     H28216   6.090   4.354  10.625 -1.7590 -0.2013 -0.4741
  950MOL0     H28217   6.091   4.296  10.457 -0.2619 -2.1886  1.6366
  950MOL0     H28218   6.285   4.471  10.417  0.9784 -0.1000  0.3776
  950MOL0     H28219   6.246   4.535  10.580  3.4420  2.1359 -2.6301
  950MOL0     H28220   6.340   4.243  10.525  3.7879  1.2332 -3.0910
  950MOL0     H28221   6.323   4.345  10.680 -0.6471  0.7838 -0.2549
  950MOL0     H28222   6.506   4.471  10.623 -0.0299  0.0611  0.1268
  950MOL0     H28223   6.526   4.430  10.461 -1.6697  0.7963 -0.0056
  950MOL0     H28224   6.559   4.232  10.706  2.7353  1.4169  1.9186
  950MOL0     H28225   6.593   4.193  10.539  4.1437 -0.1195 -0.1464
  950MOL0     H28226   6.754   4.377  10.530 -1.5119 -1.6019 -0.7204
  950MOL0     H28227   6.793   4.234  10.627  1.6236  0.3640 -1.9695
  950MOL0     H28228   6.707   4.489  10.746  0.0835 -0.2983  0.2566
  950MOL0     H28229   6.725   4.332  10.836  0.7694 -2.1641 -1.5547
  950MOL0     H28230   5.621   4.361  10.453 -0.4321  0.5101  0.4230
  950MOL0     H28231   5.431   4.496  10.415  1.5193 -2.5799  1.0098
  950MOL0     H28232   5.274   4.770   9.987 -0.0081 -0.7648  0.6636
  950MOL0     H28233   5.058   4.866   9.926  0.5155  0.2844  0.1916
  950MOL0     H28234   3.371   5.537   9.747 -1.5429  1.4143 -0.1918
  950MOL0     H28235   3.148   5.483   9.627 -0.3107 -1.5797  1.0270
  950MOL0     H28236   2.879   5.265   9.381  0.7520  1.6171  0.9118
  950MOL0     H28237   2.649   5.284   9.347 -1.4828 -1.0398 -2.1179
  950MOL0     H28238   2.501   5.243   9.182 -0.0127 -0.1325 -0.3696
  950MOL0     H28239   2.366   5.322   9.110 -1.3097 -2.2196  1.6132
  950MOL0     H28240   2.456   5.325   9.409 -0.0828 -0.2160  0.0238
  950MOL0     H28241   2.313   5.265   9.337  0.6922 -0.0364  0.1486
  950MOL0     H28242   2.248   5.501   9.265 -1.5158 -0.0360  0.9868
  950MOL0     H28243   2.396   5.557   9.348  2.1394 -1.0748 -0.2311
  950MOL0     H28244   2.309   5.497   9.565 -2.7288 -2.1693  2.7051
  950MOL0     H28245   2.181   5.593   9.480 -2.9377 -1.5313  1.6814
  950MOL0     H28246   2.013   5.230   9.552  0.9553 -0.7851  1.5584
  950MOL0     H28247   2.721   5.589   9.036  2.8259  2.2626  0.5091
  950MOL0     H28248   2.913   5.681   9.010 -2.3536  0.7104  2.2360
  950MOL0     H28249   3.021   5.698   9.153  0.3688  0.9775 -2.2552
  950MOL0     H28250   3.061   5.579   9.037 -1.3621 -2.0848 -1.4216
  951MOL0     O28251   9.620   2.941   2.931 -0.0961 -1.1135  0.6544
  951MOL0     C28252   9.561   2.976   2.837  0.2592 -1.5224  0.2787
  951MOL0     O28253   9.623   3.054   2.737  0.6811 -0.3034 -0.2466
  951MOL0     C28254   9.739   3.120   2.771  0.5046 -0.3949 -0.8600
  951MOL0     C28255   9.851   3.067   2.830 -0.7678 -0.4983  0.5626
  951MOL0     C28256   9.971   3.146   2.844  0.4860  0.2838 -0.8027
  951MOL0     C28257   9.965   3.289   2.822 -0.5145  0.1679  0.5835
  951MOL0     O28258  10.063   3.371   2.868  0.2072 -0.5765 -0.0552
  951MOL0     C28259  10.085   3.508   2.817  0.5203  0.8145  0.8837
  951MOL0     C28260  10.224   3.560   2.839 -0.3802  0.9754 -0.2296
  951MOL0     C28261  10.242   3.692   2.762  0.7824  0.1476  1.4522
  951MOL0     C28262  10.338   3.783   2.822 -0.3686 -0.9526  0.3195
  951MOL0     C28263  10.355   3.893   2.724 -0.5809  0.1535 -0.3367
  951MOL0     C28264  10.414   4.021   2.783 -0.4010  0.5296 -0.8304
  951MOL0     C28265  10.547   3.996   2.857 -1.5738 -0.1926 -0.0728
  951MOL0     C28266  10.604   4.131   2.904  0.8812 -0.3793 -0.4790
  951MOL0     N28267  10.743   4.105   2.943  0.0347 -0.6684  1.0970
  951MOL0     C28268  10.806   4.156   3.049 -0.0850  0.2951 -0.3080
  951MOL0     C28269  10.932   4.112   3.045 -0.1008  1.1921  0.3109
  951MOL0     C28270  11.051   4.142   3.129 -0.3017 -0.7073  0.5274
  951MOL0     C28271  11.191   4.107   3.083 -0.3684 -0.2595  0.5952
  951MOL0     C28272  11.296   4.125   3.191  0.6445  0.0826  0.4676
  951MOL0     C28273  11.280   4.018   3.303 -1.2520 -0.3617  0.6692
  951MOL0     O28274  11.395   3.949   3.349  0.6437  0.8164  0.5214
  951MOL0     C28275  11.506   4.006   3.396 -0.7769 -0.2948 -0.0786
  951MOL0     C28276  11.621   3.937   3.388 -0.6144  0.4948  0.3627
  951MOL0     C28277  11.742   3.993   3.426 -0.1818 -0.2003  0.6726
  951MOL0     C28278  11.749   4.117   3.487  0.1026 -0.9967 -0.7029
  951MOL0     C28279  11.872   4.176   3.554  0.3310  0.0413  0.5649
  951MOL0     O28280  12.000   4.122   3.525  0.0238 -0.0172 -0.2051
  951MOL0     C28281  12.114   4.175   3.576 -0.1657  0.3279  0.1163
  951MOL0     C28282  12.224   4.101   3.606 -0.7822 -0.7645  0.2646
  951MOL0     C28283  12.340   4.164   3.655 -0.5223  0.1561  0.4696
  951MOL0     C28284  12.359   4.299   3.664  0.9338  0.3396  0.2133
  951MOL0     O28285  12.475   4.347   3.703  0.0445  0.3043 -0.2763
  951MOL0     C28286  12.495   4.476   3.758 -0.0591 -0.1983  0.4387
  951MOL0     C28287  12.642   4.506   3.789 -0.1745  0.6013  0.6198
  951MOL0     C28288  12.740   4.480   3.671  0.7400 -0.1570 -0.6291
  951MOL0     C28289  12.863   4.568   3.663 -0.7104  0.4538  0.2953
  951MOL0     C28290  12.954   4.527   3.545  0.3073  0.3886 -0.2497
  951MOL0     C28291  13.087   4.596   3.570  0.0663 -0.7101  0.4393
  951MOL0     C28292  13.162   4.596   3.445 -0.6200 -0.8815 -0.1782
  951MOL0     C28293  13.259   4.476   3.452  0.3302  0.0543  0.1509
  951MOL0    Cl28294  13.390   4.510   3.567 -0.4323  0.3807 -0.0904
  951MOL0     C28295  12.246   4.376   3.630  0.4266 -0.1915  0.3231
  951MOL0     C28296  12.127   4.314   3.576  0.4186  0.6460 -0.3463
  951MOL0     O28297  11.848   4.263   3.636 -0.8602  0.1033  1.0094
  951MOL0     C28298  11.629   4.195   3.492 -0.0102 -0.4660  0.0246
  951MOL0     C28299  11.511   4.137   3.451  0.8169 -0.1958  0.0994
  951MOL0     N28300  10.945   4.020   2.935  0.0342  0.0754 -0.4813
  951MOL0     N28301  10.834   4.033   2.871 -0.8774  0.2365  0.0659
  951MOL0     C28302   9.849   3.341   2.769 -0.2282  0.4503 -0.2549
  951MOL0     C28303   9.744   3.257   2.745  1.1059  0.2285  0.3533
  951MOL0     C28304   9.427   2.920   2.802  0.2233  0.3205 -0.5589
  951MOL0     C28305   9.393   2.904   2.666  0.5326  0.1509 -0.3706
  951MOL0     C28306   9.275   2.831   2.629 -0.6220  0.2790 -0.0075
  951MOL0     C28307   9.205   2.759   2.723 -1.1870 -0.4668 -0.1529
  951MOL0     O28308   9.101   2.695   2.675  0.1723  0.8004  0.0895
  951MOL0     C28309   9.046   2.583   2.746 -0.1447 -0.2119 -0.1523
  951MOL0     C28310   8.909   2.556   2.679 -0.0973  0.1378  0.8165
  951MOL0     C28311   8.835   2.454   2.753  0.1346  0.6581 -0.0882
  951MOL0     C28312   8.723   2.390   2.674 -0.1208 -0.8415 -0.4029
  951MOL0     C28313   8.631   2.322   2.764 -0.0434 -0.1852  0.3428
  951MOL0     C28314   8.575   2.250   2.843 -0.3419  0.3509 -0.1541
  951MOL0     C28315   9.243   2.770   2.861 -1.0309 -0.7519 -0.3288
  951MOL0     C28316   9.346   2.860   2.903  0.2458 -0.1829  0.7776
  951MOL0     C28317   9.363   2.869   3.048 -0.0780  0.0773  0.1905
  951MOL0     H28318   9.861   2.964   2.864  1.6724 -0.5126  0.0217
  951MOL0     H28319  10.057   3.103   2.895 -0.4575  0.0295  0.6086
  951MOL0     H28320  10.058   3.509   2.711 -2.7634  2.3369  1.6097
  951MOL0     H28321  10.009   3.566   2.868 -0.1274  1.3855 -0.6735
  951MOL0     H28322  10.304   3.486   2.827 -0.5859  0.8046 -0.5548
  951MOL0     H28323  10.208   3.583   2.945 -0.7011 -1.8262  0.4146
  951MOL0     H28324  10.143   3.738   2.758  0.5610 -0.3089 -2.2445
  951MOL0     H28325  10.272   3.668   2.659 -0.2594  0.8079  0.9788
  951MOL0     H28326  10.289   3.822   2.912  2.3697 -1.0637  1.9654
  951MOL0     H28327  10.435   3.750   2.859  0.1838  2.1996  2.0236
  951MOL0     H28328  10.428   3.862   2.648  0.5487  3.7995 -0.9418
  951MOL0     H28329  10.261   3.910   2.672 -0.1967  0.9130 -0.8030
  951MOL0     H28330  10.442   4.098   2.710  2.0148 -2.0397 -2.8711
  951MOL0     H28331  10.351   4.073   2.855  0.0534  0.2237 -0.2045
  951MOL0     H28332  10.614   3.940   2.790 -0.9026  0.8241 -0.2812
  951MOL0     H28333  10.530   3.930   2.943  1.2251  0.2710  0.9441
  951MOL0     H28334  10.598   4.210   2.828  1.2320  0.2940  0.1749
  951MOL0     H28335  10.537   4.164   2.984 -0.0784 -0.5032 -1.2258
  951MOL0     H28336  10.769   4.225   3.123  0.8009  0.5849 -0.1266
  951MOL0     H28337  11.055   4.251   3.140  0.7356 -0.8607  1.9335
  951MOL0     H28338  11.037   4.098   3.228 -2.4620 -0.3525  0.4216
  951MOL0     H28339  11.197   4.005   3.043 -1.7003 -0.3127  0.4878
  951MOL0     H28340  11.210   4.171   2.997 -2.7049  0.0857  0.2591
  951MOL0     H28341  11.304   4.224   3.236  0.8830  0.7903 -1.0447
  951MOL0     H28342  11.386   4.120   3.129  1.0339  2.7299  0.6935
  951MOL0     H28343  11.209   3.941   3.270  0.1175 -1.7604  0.8755
  951MOL0     H28344  11.230   4.063   3.389 -1.1828 -2.4629  1.8873
  951MOL0     H28345  11.617   3.841   3.336  0.2944  2.4120 -3.6300
  951MOL0     H28346  11.835   3.938   3.428  0.7500  0.9559 -3.1772
  951MOL0     H28347  12.208   3.995   3.588  2.6779 -1.2003 -0.8196
  951MOL0     H28348  12.411   4.091   3.692 -1.3412 -1.5292 -1.1307
  951MOL0     H28349  12.463   4.559   3.695  3.3993 -0.9255 -2.6120
  951MOL0     H28350  12.447   4.474   3.857  2.2014 -0.0770  1.6180
  951MOL0     H28351  12.652   4.610   3.821 -2.5600  1.7862 -2.1017
  951MOL0     H28352  12.678   4.436   3.865  1.5938  0.8860  0.0881
  951MOL0     H28353  12.757   4.372   3.668 -2.5069 -0.8005  0.3438
  951MOL0     H28354  12.677   4.497   3.582 -0.9203  0.8536  0.6640
  951MOL0     H28355  12.913   4.571   3.760 -0.5058 -3.1082  0.4424
  951MOL0     H28356  12.834   4.670   3.638  0.0320  0.9164  1.2750
  951MOL0     H28357  12.913   4.571   3.453  0.0676  2.8116  0.9348
  951MOL0     H28358  12.967   4.418   3.541 -0.2934  0.1928  1.9803
  951MOL0     H28359  13.068   4.700   3.596 -0.9507 -1.2108  1.8911
  951MOL0     H28360  13.137   4.545   3.653  2.3475 -1.4760 -1.3258
  951MOL0     H28361  13.230   4.682   3.439 -0.5258 -0.7183  2.1594
  951MOL0     H28362  13.096   4.600   3.358 -0.7162 -3.8198 -0.3571
  951MOL0     H28363  13.219   4.379   3.481  2.0486 -0.7410 -0.0111
  951MOL0     H28364  13.314   4.464   3.358  3.2800 -1.1721  1.8661
  951MOL0     H28365  12.246   4.484   3.637  0.1405 -0.3042  2.8564
  951MOL0     H28366  12.049   4.385   3.553  0.0210  0.6731  1.0308
  951MOL0     H28367  11.633   4.285   3.554  0.7631  1.0886 -2.1335
  951MOL0     H28368  11.420   4.191   3.473 -0.1430 -1.9084  0.5046
  951MOL0     H28369   9.850   3.449   2.751 -0.9023  0.2655 -1.5554
  951MOL0     H28370   9.652   3.296   2.701  1.4625 -0.6434 -1.2494
  951MOL0     H28371   9.450   2.944   2.583 -0.0310  0.5902 -0.5566
  951MOL0     H28372   9.235   2.821   2.529 -1.8366 -2.4122  0.6338
  951MOL0     H28373   9.023   2.604   2.851 -1.4201  1.0982 -0.6530
  951MOL0     H28374   9.105   2.492   2.760  1.6188  1.1553  2.0199
  951MOL0     H28375   8.937   2.510   2.584  0.2202  2.4617 -0.2947
  951MOL0     H28376   8.859   2.650   2.653  2.4749  1.1131 -1.0257
  951MOL0     H28377   8.800   2.496   2.847  0.8841  1.0397  0.0251
  951MOL0     H28378   8.907   2.376   2.778  1.8692  0.8925 -3.7244
  951MOL0     H28379   8.668   2.470   2.625 -0.0603 -0.1686  0.5979
  951MOL0     H28380   8.763   2.313   2.607  2.1835 -0.1644  0.1123
  951MOL0     H28381   8.514   2.180   2.897  0.8808  1.7637  3.3435
  951MOL0     H28382   9.183   2.721   2.938 -1.0242 -1.5462 -0.8187
  951MOL0     H28383   9.264   2.857   3.093 -0.4690  1.4356 -0.2712
  951MOL0     H28384   9.432   2.794   3.089  0.6745  0.0076 -1.1230
  951MOL0     H28385   9.401   2.964   3.087  2.7597 -1.0225  0.3643
  952MOL0     O28386   1.276   3.768  10.271 -0.6030  0.4970  0.0664
  952MOL0     C28387   1.241   3.878  10.318  0.1281 -0.5315  0.8391
  952MOL0     O28388   1.322   3.978  10.357  0.0019 -0.6913  0.1407
  952MOL0     C28389   1.457   3.984  10.334  0.1925 -0.4283  0.3464
  952MOL0     C28390   1.524   4.052  10.432  0.0632 -0.0344 -0.6490
  952MOL0     C28391   1.664   4.073  10.424 -0.4888 -0.3270 -1.0167
  952MOL0     C28392   1.732   4.034  10.311 -0.2709  0.1226 -0.0167
  952MOL0     O28393   1.866   4.047  10.282  0.2342  0.3201 -0.2934
  952MOL0     C28394   1.948   4.029  10.395  0.3023 -0.6564 -0.0087
  952MOL0     C28395   2.074   3.972  10.347  0.0287  1.6237 -0.1777
  952MOL0     C28396   2.159   3.906  10.453 -0.3356 -0.0173 -0.0428
  952MOL0     C28397   2.235   3.783  10.396 -0.8847  0.5867 -0.0300
  952MOL0     C28398   2.298   3.693  10.493 -0.8304  0.1356 -0.5431
  952MOL0     C28399   2.357   3.562  10.436  0.4894 -1.3403  0.1208
  952MOL0     C28400   2.483   3.580  10.364 -0.2726  0.8124 -0.0027
  952MOL0     C28401   2.602   3.556  10.452 -0.3172 -0.3788 -0.5658
  952MOL0     N28402   2.656   3.418  10.464  0.1746  0.3071 -0.9439
  952MOL0     C28403   2.594   3.301  10.505  0.6326 -0.2476  0.0105
  952MOL0     C28404   2.678   3.198  10.475 -0.0006 -0.1637  0.3032
  952MOL0     C28405   2.650   3.048  10.487 -0.2152  0.4947 -0.2760
  952MOL0     C28406   2.596   2.994  10.354  0.7542  0.4826  0.5082
  952MOL0     C28407   2.598   2.844  10.345  0.5373  0.2918  0.1599
  952MOL0     C28408   2.458   2.785  10.366  0.3638  0.1604  0.7859
  952MOL0     O28409   2.370   2.807  10.251 -0.3074  0.0739  0.1706
  952MOL0     C28410   2.249   2.748  10.258 -0.2344 -0.5192  0.5252
  952MOL0     C28411   2.163   2.770  10.152  0.2565  0.8720  0.3245
  952MOL0     C28412   2.027   2.732  10.158 -0.2190 -0.0739 -0.1989
  952MOL0     C28413   1.985   2.658  10.267 -0.3141 -0.2083 -0.2302
  952MOL0     C28414   1.852   2.598  10.271  0.2132 -0.0773 -0.8899
  952MOL0     O28415   1.796   2.583  10.154 -0.2291  0.0024 -0.2313
  952MOL0     C28416   1.683   2.505  10.132 -0.1714  0.4752  0.0162
  952MOL0     C28417   1.590   2.548  10.038  0.9380  0.0690  0.5228
  952MOL0     C28418   1.475   2.469  10.013  0.3291  0.0823 -0.3598
  952MOL0     C28419   1.457   2.340  10.066 -0.0004 -0.8451 -0.2991
  952MOL0     O28420   1.340   2.274  10.030  0.1666  0.0267  0.2366
  952MOL0     C28421   1.213   2.308  10.088 -0.2795 -0.2802 -0.8232
  952MOL0     C28422   1.226   2.297  10.241 -0.4188 -0.0453  0.3056
  952MOL0     C28423   1.254   2.153  10.290 -0.0085  0.2453  0.1816
  952MOL0     C28424   1.115   2.087  10.281  0.3960  0.3967  0.2645
  952MOL0     C28425   1.123   1.939  10.324 -0.3349 -0.9579  0.0495
  952MOL0     C28426   1.006   1.855  10.268 -1.1981 -0.1104  0.4245
  952MOL0     C28427   1.030   1.702  10.291  0.0915 -0.5924 -0.6226
  952MOL0     C28428   0.944   1.619  10.199  0.4515 -1.1978 -0.5905
  952MOL0    Cl28429   1.001   1.626  10.040  0.0866  0.3537  0.0279
  952MOL0     C28430   1.558   2.287  10.149 -0.5437 -0.3587 -0.3790
  952MOL0     C28431   1.666   2.372  10.190  0.2942  0.3582  0.3056
  952MOL0     O28432   1.797   2.584  10.375  0.0710  0.2876 -0.6787
  952MOL0     C28433   2.078   2.636  10.373 -0.4336 -0.3833  0.2231
  952MOL0     C28434   2.203   2.685  10.371 -1.0535  0.3487 -0.1330
  952MOL0     N28435   2.794   3.260  10.429  0.4767 -0.2930 -0.1183
  952MOL0     N28436   2.779   3.392  10.414 -0.6258 -0.3492 -0.4323
  952MOL0     C28437   1.657   3.974  10.204 -1.1141 -0.4219  0.0984
  952MOL0     C28438   1.523   3.941  10.218  0.0712  0.9263 -0.9303
  952MOL0     C28439   1.093   3.912  10.339 -0.8463  0.0165 -1.2762
  952MOL0     C28440   1.059   3.961  10.463 -0.6060  0.1121  0.1778
  952MOL0     C28441   0.924   3.988  10.490  0.4355  0.1165 -1.0532
  952MOL0     C28442   0.825   3.957  10.407  0.5033 -0.0794 -0.3200
  952MOL0     O28443   0.699   3.988  10.443  0.1607  0.2608  0.2801
  952MOL0     C28444   0.596   3.944  10.357  0.0866  0.4884 -0.4923
  952MOL0     C28445   0.460   3.935  10.443  0.1247 -0.1070 -0.2212
  952MOL0     C28446   0.327   3.878  10.388 -0.1095 -0.0067 -0.1320
  952MOL0     C28447   0.309   3.924  10.245  0.5492  0.0488 -0.1645
  952MOL0     C28448   0.309   4.068  10.219  0.3174  0.2730  0.5071
  952MOL0     C28449   0.340   4.182  10.186 -0.0124  0.0349 -0.1806
  952MOL0     C28450   0.864   3.895  10.282 -0.5697 -0.1597  0.6451
  952MOL0     C28451   1.000   3.879  10.240 -0.5526 -0.0184 -1.1423
  952MOL0     C28452   1.028   3.812  10.115  0.3857  0.8452  0.0459
  952MOL0     H28453   1.470   4.083  10.521  2.5968  1.6760  0.4019
  952MOL0     H28454   1.717   4.113  10.509  0.2366 -0.9035 -1.1917
  952MOL0     H28455   1.968   4.128  10.438 -0.5919 -1.2322  1.8538
  952MOL0     H28456   1.894   3.965  10.465  0.9228  0.0895  1.2037
  952MOL0     H28457   2.134   4.057  10.311  2.3599 -0.3901 -1.3157
  952MOL0     H28458   2.050   3.911  10.260 -1.7748  1.1179  0.6379
  952MOL0     H28459   2.096   3.873  10.537 -0.5700 -1.6136 -0.8176
  952MOL0     H28460   2.223   3.985  10.496 -0.5128 -0.2468  0.6535
  952MOL0     H28461   2.160   3.732  10.335  0.3005 -0.7015 -0.4729
  952MOL0     H28462   2.308   3.819  10.323 -1.7412  2.1666 -0.1546
  952MOL0     H28463   2.373   3.757  10.542  0.3399 -1.4197 -0.2130
  952MOL0     H28464   2.222   3.672  10.569  0.3375 -1.6316  0.2016
  952MOL0     H28465   2.353   3.491  10.520  0.9030  0.6057  1.8833
  952MOL0     H28466   2.286   3.526  10.362 -0.5106  3.1393 -1.3761
  952MOL0     H28467   2.484   3.686  10.338 -0.5707  0.8239  0.0230
  952MOL0     H28468   2.479   3.517  10.275  0.0040 -0.4339  0.8401
  952MOL0     H28469   2.687   3.615  10.418 -0.8249 -0.4633 -2.0950
  952MOL0     H28470   2.572   3.594  10.550  0.8781  0.1203 -0.3820
  952MOL0     H28471   2.490   3.300  10.537  0.6439 -2.0185  0.1000
  952MOL0     H28472   2.740   2.994  10.521 -0.7183 -0.1777  0.0150
  952MOL0     H28473   2.575   3.027  10.563 -0.3216 -0.2185 -0.5678
  952MOL0     H28474   2.494   3.031  10.336  0.1507 -2.1102 -2.0431
  952MOL0     H28475   2.660   3.037  10.277 -3.4423  5.5304 -0.7704
  952MOL0     H28476   2.671   2.808  10.418  0.3221  2.3371  1.4781
  952MOL0     H28477   2.626   2.797  10.251  1.5046  0.1896  0.4928
  952MOL0     H28478   2.420   2.826  10.459 -0.0023 -1.4383  1.3702
  952MOL0     H28479   2.482   2.679  10.375 -2.0019 -0.4758  0.1421
  952MOL0     H28480   2.204   2.828  10.069  2.3122  0.3254  0.8973
  952MOL0     H28481   1.964   2.740  10.069  1.6660 -0.5829 -1.6454
  952MOL0     H28482   1.596   2.649   9.999 -1.9772  1.2301  2.7645
  952MOL0     H28483   1.406   2.517   9.945  0.9173  0.7299 -0.5183
  952MOL0     H28484   1.182   2.411  10.067  0.3876  0.1338  0.2002
  952MOL0     H28485   1.138   2.237  10.050 -0.2957  0.1439 -1.6144
  952MOL0     H28486   1.298   2.374  10.270 -2.8642  3.1960 -1.4820
  952MOL0     H28487   1.129   2.338  10.272 -0.1745  0.9926 -0.2673
  952MOL0     H28488   1.339   2.109  10.237  1.3830  1.4741  1.3020
  952MOL0     H28489   1.276   2.150  10.397  1.6946  0.3635 -0.1357
  952MOL0     H28490   1.078   2.096  10.178  0.7997  0.5202  0.1277
  952MOL0     H28491   1.041   2.136  10.346 -0.8481 -2.5813  1.2615
  952MOL0     H28492   1.118   1.934  10.434 -2.1002  2.2988  0.2603
  952MOL0     H28493   1.219   1.905  10.285  0.5082 -1.0517  2.0830
  952MOL0     H28494   0.914   1.892  10.314 -0.1499 -0.0610  2.6220
  952MOL0     H28495   1.009   1.879  10.162 -1.3413 -1.5551  0.0664
  952MOL0     H28496   1.005   1.678  10.395  1.1522  0.4870 -0.1016
  952MOL0     H28497   1.136   1.683  10.271  1.2635  5.1282 -1.5948
  952MOL0     H28498   0.945   1.520  10.246 -0.0449  0.2896  2.7877
  952MOL0     H28499   0.840   1.654  10.203 -0.0038 -2.4419 -1.1043
  952MOL0     H28500   1.563   2.183  10.178  0.2565  0.2341  1.8014
  952MOL0     H28501   1.735   2.342  10.268  0.8698 -1.1222 -0.7430
  952MOL0     H28502   2.041   2.585  10.461  2.3058 -3.6049 -0.2829
  952MOL0     H28503   2.264   2.670  10.460 -1.4248 -1.0408 -0.0884
  952MOL0     H28504   1.716   3.950  10.116 -0.3618 -0.0976  0.4999
  952MOL0     H28505   1.465   3.886  10.144 -1.3367  0.4572  0.4692
  952MOL0     H28506   1.133   3.991  10.537  1.6789  1.9413 -2.6038
  952MOL0     H28507   0.902   4.021  10.591  1.6323 -1.1207 -0.3518
  952MOL0     H28508   0.615   3.841  10.326  1.9079  0.3269  1.0092
  952MOL0     H28509   0.594   4.004  10.265 -2.1861 -3.3843 -3.2750
  952MOL0     H28510   0.439   4.033  10.487  0.4767 -1.3337  2.8964
  952MOL0     H28511   0.490   3.867  10.523  0.1850 -1.4669 -1.3578
  952MOL0     H28512   0.244   3.903  10.454 -0.7411 -1.4343 -0.3564
  952MOL0     H28513   0.337   3.770  10.380 -0.9964  0.0504 -4.9016
  952MOL0     H28514   0.386   3.895  10.173 -1.7076 -1.1040 -2.3100
  952MOL0     H28515   0.221   3.877  10.199  0.4124  0.8337 -0.7261
  952MOL0     H28516   0.364   4.277  10.145  0.2977 -0.6245 -1.5642
  952MOL0     H28517   0.796   3.873  10.201 -0.3288 -0.2997  0.4806
  952MOL0     H28518   0.946   3.791  10.046  0.0544  0.5544  0.5286
  952MOL0     H28519   1.094   3.877  10.056 -0.0242 -0.4754 -1.9770
  952MOL0     H28520   1.070   3.715  10.142 -0.5920  0.6684  0.9715
  953MOL0     O28521  10.205   5.856   5.702  0.3122 -0.5487 -0.3433
  953MOL0     C28522  10.221   5.866   5.819 -0.5269 -0.3352 -0.6144
  953MOL0     O28523  10.150   5.800   5.910 -0.1313  0.2683 -0.1658
  953MOL0     C28524  10.102   5.679   5.878  0.6503  0.6563 -0.3410
  953MOL0     C28525   9.990   5.636   5.953 -0.1321  0.9518 -0.2197
  953MOL0     C28526   9.918   5.519   5.917 -0.1746  0.2055  0.2937
  953MOL0     C28527   9.955   5.439   5.807 -0.2112  0.3536 -0.4425
  953MOL0     O28528   9.871   5.333   5.767  0.1874 -0.3893 -0.8674
  953MOL0     C28529   9.859   5.290   5.635  0.3992  0.1745 -0.8076
  953MOL0     C28530   9.725   5.215   5.603 -0.3643 -0.3375 -0.5307
  953MOL0     C28531   9.715   5.084   5.674 -0.0708 -0.5689  0.5218
  953MOL0     C28532   9.587   5.003   5.646 -0.3168  0.0715 -0.2365
  953MOL0     C28533   9.458   5.081   5.695 -0.1774 -0.1552  0.2838
  953MOL0     C28534   9.331   5.005   5.663  0.4220 -0.1745 -0.2665
  953MOL0     C28535   9.203   5.082   5.683  0.0136  0.1848  0.4303
  953MOL0     C28536   9.081   5.000   5.635  0.1089  0.5048 -0.4379
  953MOL0     N28537   9.103   4.965   5.491  0.0525 -0.7555 -0.5119
  953MOL0     C28538   9.096   5.061   5.395 -0.3507  0.5100 -0.1896
  953MOL0     C28539   9.131   4.991   5.286  0.2693  0.8715 -0.2736
  953MOL0     C28540   9.168   5.052   5.153  0.0585 -0.1726 -0.0502
  953MOL0     C28541   9.316   5.094   5.146 -0.3018  0.2588 -0.3152
  953MOL0     C28542   9.364   5.127   5.002 -0.3329 -0.8492 -0.5093
  953MOL0     C28543   9.506   5.182   5.011 -0.1614 -0.3021  0.1268
  953MOL0     O28544   9.598   5.082   5.052 -0.3578 -0.3864 -0.1381
  953MOL0     C28545   9.718   5.118   5.119  0.3941  0.2337 -0.0654
  953MOL0     C28546   9.784   5.237   5.087 -0.2026  1.4896  0.9159
  953MOL0     C28547   9.895   5.277   5.164  0.9383  0.3330 -0.5431
  953MOL0     C28548   9.944   5.194   5.269  0.3930 -0.4682  0.1371
  953MOL0     C28549  10.062   5.240   5.343 -0.2675  0.0881  0.0147
  953MOL0     O28550  10.106   5.361   5.318  0.0659  0.0715 -0.1516
  953MOL0     C28551  10.221   5.403   5.376  1.0083 -0.4770  0.1811
  953MOL0     C28552  10.206   5.541   5.400  0.5664 -0.0333 -0.5981
  953MOL0     C28553  10.313   5.616   5.465 -0.8940 -0.9780 -0.0091
  953MOL0     C28554  10.433   5.546   5.487  0.3403  0.1039 -0.8014
  953MOL0     O28555  10.539   5.622   5.538  0.3036  0.2425 -0.0206
  953MOL0     C28556  10.661   5.553   5.577 -0.3091 -0.4770  0.4126
  953MOL0     C28557  10.756   5.646   5.647  0.8500  0.5153 -0.1618
  953MOL0     C28558  10.869   5.571   5.719  0.2166  0.8598  0.0366
  953MOL0     C28559  10.996   5.657   5.729 -0.4036  0.6650  0.5218
  953MOL0     C28560  11.106   5.609   5.627 -0.0078  0.0675 -0.5952
  953MOL0     C28561  11.243   5.668   5.662  0.7965  0.5970  0.6233
  953MOL0     C28562  11.365   5.585   5.619  0.6510  0.3025 -0.5445
  953MOL0     C28563  11.495   5.667   5.612 -0.4479  0.2154  0.6487
  953MOL0    Cl28564  11.542   5.718   5.771 -0.2278 -0.2418  0.1469
  953MOL0     C28565  10.447   5.411   5.450  0.0761  0.1222  0.3403
  953MOL0     C28566  10.346   5.335   5.396  0.4478  0.1327 -0.1250
  953MOL0     O28567  10.111   5.171   5.428  0.2627  0.3694 -0.3833
  953MOL0     C28568   9.881   5.073   5.299  1.1436  0.6874  0.5782
  953MOL0     C28569   9.770   5.040   5.222  0.5899 -0.0334 -0.3085
  953MOL0     N28570   9.153   4.855   5.318  0.6531  0.0777 -0.1301
  953MOL0     N28571   9.138   4.842   5.440 -0.1262  0.1403 -0.0962
  953MOL0     C28572  10.078   5.472   5.747  0.6561 -0.5293  0.5980
  953MOL0     C28573  10.151   5.588   5.781  0.0716 -0.1208 -0.8054
  953MOL0     C28574  10.335   5.949   5.861  0.0499  1.0353  0.2828
  953MOL0     C28575  10.427   5.983   5.764  0.3007  0.8146 -0.2508
  953MOL0     C28576  10.547   6.050   5.777  0.2654 -0.3655 -0.1315
  953MOL0     C28577  10.566   6.106   5.900  0.0171 -0.1591 -0.9410
  953MOL0     O28578  10.679   6.177   5.916  0.6295  0.1872  0.0471
  953MOL0     C28579  10.713   6.251   6.035 -0.1360 -0.6491 -0.2856
  953MOL0     C28580  10.862   6.299   6.021 -0.2629 -0.1846  0.4035
  953MOL0     C28581  10.901   6.386   6.141 -0.8063  0.7689 -0.0780
  953MOL0     C28582  10.860   6.536   6.134 -0.4614  0.7063 -0.6992
  953MOL0     C28583  10.923   6.620   6.241  0.4591  0.5489  0.0664
  953MOL0     C28584  10.965   6.688   6.330 -0.2567  0.4788 -0.7808
  953MOL0     C28585  10.474   6.081   6.008 -0.4181  0.3406  0.0951
  953MOL0     C28586  10.367   5.985   5.993 -0.2519 -0.5278  1.0879
  953MOL0     C28587  10.289   5.963   6.119  0.1540  0.4052 -0.3957
  953MOL0     H28588   9.947   5.697   6.031 -0.4925  1.0135 -0.4634
  953MOL0     H28589   9.828   5.486   5.967  0.3462  0.1120  1.1801
  953MOL0     H28590   9.867   5.374   5.566  0.0311  0.4271 -0.5469
  953MOL0     H28591   9.938   5.217   5.618 -1.7829 -2.1154 -1.7587
  953MOL0     H28592   9.727   5.185   5.498 -1.3730 -2.7354  0.0648
  953MOL0     H28593   9.645   5.289   5.621  1.5185  1.9731 -1.0969
  953MOL0     H28594   9.705   5.101   5.781 -0.4791  0.6683  0.2997
  953MOL0     H28595   9.807   5.027   5.654  0.5309  0.0172  1.4894
  953MOL0     H28596   9.584   4.993   5.537 -2.1297  0.2724 -0.2201
  953MOL0     H28597   9.589   4.901   5.685 -1.2509 -0.0458 -0.4809
  953MOL0     H28598   9.470   5.105   5.802 -2.3492 -0.4918  0.6383
  953MOL0     H28599   9.452   5.175   5.639 -1.2548 -0.5331 -0.2601
  953MOL0     H28600   9.343   4.985   5.556  0.1661 -1.1875 -0.1158
  953MOL0     H28601   9.329   4.917   5.728 -0.7114  1.4932  2.0983
  953MOL0     H28602   9.209   5.177   5.630  0.6262  0.1394  0.4094
  953MOL0     H28603   9.190   5.107   5.789 -0.3418 -0.7636  0.6167
  953MOL0     H28604   9.082   4.902   5.684 -1.2051  1.9635  2.7540
  953MOL0     H28605   8.986   5.052   5.650 -1.0135 -1.2982 -1.0141
  953MOL0     H28606   9.069   5.166   5.401 -1.3323  0.4751 -2.6868
  953MOL0     H28607   9.144   4.987   5.069 -2.3945  0.9925 -0.3514
  953MOL0     H28608   9.103   5.139   5.139 -0.0742 -0.1473  0.6770
  953MOL0     H28609   9.322   5.173   5.221 -1.1346  1.4183 -1.4101
  953MOL0     H28610   9.381   5.015   5.182 -1.8690 -0.2331  1.6075
  953MOL0     H28611   9.287   5.190   4.956 -1.3028 -2.4620 -1.1912
  953MOL0     H28612   9.377   5.033   4.947  1.4825 -1.1514  0.3292
  953MOL0     H28613   9.515   5.270   5.077  2.5800  0.5122 -1.1533
  953MOL0     H28614   9.545   5.214   4.914  1.3899 -2.1290  0.0909
  953MOL0     H28615   9.758   5.299   5.002  0.0255 -0.5490 -0.7393
  953MOL0     H28616   9.947   5.368   5.135 -0.0187  0.7354 -1.0433
  953MOL0     H28617  10.109   5.590   5.390 -0.2173 -0.6120  2.9067
  953MOL0     H28618  10.310   5.724   5.482  0.1840 -1.1242  1.2733
  953MOL0     H28619  10.646   5.460   5.632 -0.2303  0.1311  1.4795
  953MOL0     H28620  10.715   5.518   5.488 -1.3477  0.6269 -0.6855
  953MOL0     H28621  10.797   5.698   5.561 -2.6342 -0.0487 -2.3928
  953MOL0     H28622  10.709   5.712   5.721  2.0139  1.4076 -0.1978
  953MOL0     H28623  10.837   5.534   5.817  0.9429  0.6945  0.2167
  953MOL0     H28624  10.895   5.484   5.658 -3.1640 -0.6960  0.5673
  953MOL0     H28625  11.041   5.642   5.828 -1.5133  0.0531  0.9439
  953MOL0     H28626  10.963   5.761   5.721 -0.0025  0.6806 -1.3607
  953MOL0     H28627  11.077   5.650   5.531 -0.3866  2.2394  0.3959
  953MOL0     H28628  11.127   5.502   5.615 -1.9356 -0.5137  0.6283
  953MOL0     H28629  11.233   5.767   5.615 -0.7705  0.8282  1.3807
  953MOL0     H28630  11.245   5.676   5.771 -2.5913 -1.4178  0.9761
  953MOL0     H28631  11.340   5.529   5.529  1.2017 -0.4818 -0.2288
  953MOL0     H28632  11.368   5.518   5.706 -0.5676  0.3088 -0.4892
  953MOL0     H28633  11.583   5.615   5.573 -2.1847 -0.2979 -3.0474
  953MOL0     H28634  11.463   5.753   5.553 -4.3017 -0.0025  2.1299
  953MOL0     H28635  10.537   5.354   5.471  0.2070 -0.1422 -0.8556
  953MOL0     H28636  10.361   5.228   5.392  1.4238  0.2045  1.0551
  953MOL0     H28637   9.909   5.010   5.383 -1.0238 -0.6861  0.3537
  953MOL0     H28638   9.723   4.947   5.253  0.0089 -0.2382 -1.7393
  953MOL0     H28639  10.100   5.419   5.655  1.1896 -1.7207  1.3844
  953MOL0     H28640  10.239   5.610   5.723  0.0376  0.7238 -0.5365
  953MOL0     H28641  10.418   5.949   5.661  4.2612 -1.2035 -0.1466
  953MOL0     H28642  10.614   6.058   5.692 -1.7598 -1.5831 -1.9356
  953MOL0     H28643  10.697   6.197   6.128 -1.5552 -0.5649 -0.4644
  953MOL0     H28644  10.658   6.344   6.051 -0.8029 -1.0430 -0.2573
  953MOL0     H28645  10.878   6.338   5.920  0.1252 -0.9661  0.1533
  953MOL0     H28646  10.925   6.211   6.006 -1.7164 -1.5025  1.6671
  953MOL0     H28647  11.008   6.375   6.158 -0.9490 -1.5792 -0.3307
  953MOL0     H28648  10.842   6.343   6.223 -1.4933  0.8620 -0.5146
  953MOL0     H28649  10.883   6.575   6.034  0.3767 -0.9725 -1.2006
  953MOL0     H28650  10.753   6.529   6.154 -0.0138 -1.7003  1.2166
  953MOL0     H28651  11.002   6.753   6.406  1.8934 -0.6892 -0.7679
  953MOL0     H28652  10.493   6.126   6.105 -0.5078 -3.6351  2.1453
  953MOL0     H28653  10.208   6.037   6.115 -2.2107 -2.0616 -2.5206
  953MOL0     H28654  10.243   5.864   6.126 -0.2303  0.6537  0.9099
  953MOL0     H28655  10.349   5.982   6.208 -3.0761 -1.1842  2.3797
  954MOL0     O28656   1.360   9.016   1.014  0.3530 -0.0309  0.3115
  954MOL0     C28657   1.300   9.112   0.974 -0.4346  0.0725 -1.0075
  954MOL0     O28658   1.350   9.241   0.963  0.2868 -0.5999 -0.3903
  954MOL0     C28659   1.481   9.250   0.923  0.3443 -0.1399 -0.8412
  954MOL0     C28660   1.513   9.328   0.809 -0.7094 -0.5524  0.1624
  954MOL0     C28661   1.647   9.353   0.780  0.1221 -0.4652 -0.8902
  954MOL0     C28662   1.751   9.296   0.853  0.1540 -0.8576  0.1818
  954MOL0     O28663   1.883   9.319   0.817 -0.4813  0.2094  0.0599
  954MOL0     C28664   1.930   9.451   0.831  0.3460  0.1737  1.4308
  954MOL0     C28665   2.064   9.445   0.902  0.3340  0.1157 -0.0947
  954MOL0     C28666   2.129   9.580   0.897  0.3284 -1.4452 -0.3889
  954MOL0     C28667   2.270   9.584   0.968  0.4459  0.3732  0.5832
  954MOL0     C28668   2.365   9.697   0.915  0.5846 -1.6521  0.3514
  954MOL0     C28669   2.507   9.694   0.980 -0.3765  0.5371 -1.4814
  954MOL0     C28670   2.582   9.561   0.971 -0.0826 -0.0288  0.0791
  954MOL0     C28671   2.731   9.597   0.996  0.2582 -0.3600  0.3831
  954MOL0     N28672   2.825   9.484   1.002  0.6008  0.4854  0.5586
  954MOL0     C28673   2.798   9.351   1.021  0.1882  0.2959 -0.0431
  954MOL0     C28674   2.912   9.290   0.975 -0.1356 -0.1265 -0.2473
  954MOL0     C28675   2.919   9.143   0.950 -0.0394 -0.3806 -0.2938
  954MOL0     C28676   3.025   9.104   0.849  0.6324  0.2793  0.9573
  954MOL0     C28677   2.991   9.142   0.704  0.2276  0.1922  0.4363
  954MOL0     C28678   3.123   9.139   0.621  0.6118  0.0780 -0.2137
  954MOL0     O28679   3.169   9.007   0.621  0.0906  0.4636 -0.6170
  954MOL0     C28680   3.297   8.968   0.649  0.0584 -0.2034  0.7232
  954MOL0     C28681   3.397   9.030   0.716 -0.4837  1.0452  0.3169
  954MOL0     C28682   3.523   8.971   0.740  0.4755  0.5865 -0.1828
  954MOL0     C28683   3.543   8.839   0.695  0.0189 -0.7044 -1.3831
  954MOL0     C28684   3.676   8.774   0.713  0.7758  0.1884 -0.6834
  954MOL0     O28685   3.693   8.650   0.662 -0.0269 -0.7679 -0.1910
  954MOL0     C28686   3.814   8.588   0.664 -0.6705 -0.6197 -0.3464
  954MOL0     C28687   3.934   8.647   0.693 -0.5552  0.1923  0.3945
  954MOL0     C28688   4.046   8.574   0.681 -0.2176 -0.0907 -0.1509
  954MOL0     C28689   4.045   8.440   0.638  0.2485  1.0155 -0.1522
  954MOL0     O28690   4.160   8.369   0.617 -0.1844  0.8614  0.0217
  954MOL0     C28691   4.190   8.259   0.706 -0.4557 -0.1946 -0.1648
  954MOL0     C28692   4.337   8.226   0.685 -0.1622  0.8163 -0.2690
  954MOL0     C28693   4.435   8.346   0.708  0.8127  0.1146 -0.3653
  954MOL0     C28694   4.567   8.314   0.630 -0.2602  0.7591  0.2545
  954MOL0     C28695   4.662   8.431   0.639  0.0037 -0.5469  0.0869
  954MOL0     C28696   4.790   8.404   0.559 -0.4194  0.4211  0.4651
  954MOL0     C28697   4.898   8.512   0.539  1.4248  0.6808  0.0963
  954MOL0     C28698   4.884   8.573   0.400  0.6590 -0.2664 -0.3963
  954MOL0    Cl28699   4.719   8.650   0.369 -0.0639 -0.2021 -0.4102
  954MOL0     C28700   3.923   8.377   0.623 -0.0840 -0.2242  0.9124
  954MOL0     C28701   3.810   8.453   0.626  0.0616  0.1943 -0.2924
  954MOL0     O28702   3.752   8.837   0.783  0.3959  0.0524 -0.2598
  954MOL0     C28703   3.443   8.762   0.630  0.0717 -0.3722  0.1864
  954MOL0     C28704   3.320   8.833   0.606  0.2899 -0.3201  0.5370
  954MOL0     N28705   3.014   9.379   0.951 -0.0307  0.4778  0.6698
  954MOL0     N28706   2.955   9.490   0.963  0.2451 -0.1329  0.1773
  954MOL0     C28707   1.717   9.215   0.964  0.4929  0.7782 -0.4078
  954MOL0     C28708   1.584   9.202   0.998 -0.4659  0.5582 -0.3932
  954MOL0     C28709   1.149   9.099   0.950 -0.5353  0.1483 -0.2713
  954MOL0     C28710   1.082   9.207   0.883  0.4562  0.7554  0.0280
  954MOL0     C28711   0.948   9.207   0.860  0.5461  0.3178  0.0007
  954MOL0     C28712   0.869   9.098   0.878 -0.2738  0.0702  0.2556
  954MOL0     O28713   0.741   9.104   0.831 -0.3515 -0.5718  0.2730
  954MOL0     C28714   0.651   9.019   0.882  0.2466  0.0118 -0.2452
  954MOL0     C28715   0.670   8.879   0.822  0.2245  0.4470  0.0463
  954MOL0     C28716   0.533   8.818   0.782 -0.1162 -0.0719  0.3701
  954MOL0     C28717   0.559   8.701   0.684  0.2821  0.5365 -0.1753
  954MOL0     C28718   0.432   8.675   0.614 -0.7559 -0.6173 -0.7240
  954MOL0     C28719   0.332   8.641   0.563 -0.5780  0.4578  0.2169
  954MOL0     C28720   0.928   8.992   0.941  0.1578 -1.0738  0.4884
  954MOL0     C28721   1.064   8.983   0.969 -0.2202  0.8999 -0.6603
  954MOL0     C28722   1.119   8.857   1.044 -0.1087  0.4757  0.9477
  954MOL0     H28723   1.435   9.374   0.750 -0.9216  0.6442  1.3330
  954MOL0     H28724   1.663   9.423   0.699 -1.3840 -0.4608 -1.2135
  954MOL0     H28725   1.948   9.491   0.730 -0.6290 -1.7878  0.4121
  954MOL0     H28726   1.854   9.513   0.878  0.1299 -0.8109  2.4232
  954MOL0     H28727   2.121   9.369   0.848 -0.9896 -0.9142 -0.0642
  954MOL0     H28728   2.040   9.409   1.002 -0.8760 -0.5187 -0.6046
  954MOL0     H28729   2.060   9.650   0.944  1.6906 -0.6191  0.4583
  954MOL0     H28730   2.144   9.608   0.792  0.2961  1.6752  0.3607
  954MOL0     H28731   2.258   9.596   1.076  0.8147  1.9414  0.4716
  954MOL0     H28732   2.331   9.496   0.947  1.8576  1.6394 -0.9407
  954MOL0     H28733   2.362   9.689   0.806 -1.5927 -1.6375  0.3752
  954MOL0     H28734   2.319   9.795   0.928 -1.6209 -2.4153 -1.1436
  954MOL0     H28735   2.561   9.779   0.937 -0.7094 -0.0053 -3.0497
  954MOL0     H28736   2.504   9.722   1.085 -1.3320  2.0046 -1.8762
  954MOL0     H28737   2.571   9.514   0.873  3.5094  1.5906 -1.2901
  954MOL0     H28738   2.541   9.497   1.049 -1.7477  0.8317 -0.0515
  954MOL0     H28739   2.758   9.657   0.908 -0.7447  0.0232  0.3230
  954MOL0     H28740   2.739   9.651   1.091 -0.1294 -0.0092  0.2223
  954MOL0     H28741   2.715   9.293   1.061  1.4756 -1.2840  0.4959
  954MOL0     H28742   2.932   9.094   1.047 -0.9453  0.8138  0.4530
  954MOL0     H28743   2.824   9.093   0.925 -1.3098  1.2350  1.0775
  954MOL0     H28744   3.124   9.147   0.871  1.4260  1.2396 -3.5125
  954MOL0     H28745   3.027   8.995   0.859  0.7380  0.1860  0.0117
  954MOL0     H28746   2.938   9.238   0.703  0.2905  0.2313  0.6645
  954MOL0     H28747   2.924   9.068   0.658  2.3926 -2.0567  0.6802
  954MOL0     H28748   3.186   9.213   0.672 -0.4545  1.6080 -1.0140
  954MOL0     H28749   3.095   9.180   0.524 -0.8537 -3.2738 -1.3232
  954MOL0     H28750   3.382   9.132   0.752  1.1629  2.2151 -2.0249
  954MOL0     H28751   3.604   9.024   0.789 -0.2502  1.5766 -0.0162
  954MOL0     H28752   3.944   8.753   0.712  1.5067 -0.2919  2.5165
  954MOL0     H28753   4.144   8.621   0.687  0.3550 -1.4090  2.2607
  954MOL0     H28754   4.171   8.290   0.809 -2.0849  1.8234 -1.0223
  954MOL0     H28755   4.129   8.173   0.677 -1.8040  0.9072 -0.7069
  954MOL0     H28756   4.371   8.149   0.755 -1.8020 -1.2934 -1.6536
  954MOL0     H28757   4.357   8.179   0.588  2.1269  1.8909 -0.3793
  954MOL0     H28758   4.391   8.444   0.690 -0.6738 -0.7687 -1.8797
  954MOL0     H28759   4.465   8.343   0.813 -1.0278 -1.0566  0.1755
  954MOL0     H28760   4.543   8.286   0.527  1.3927 -2.4337  0.6263
  954MOL0     H28761   4.623   8.230   0.672  0.2785  2.0994  2.3257
  954MOL0     H28762   4.681   8.427   0.747 -3.1695 -1.5658  0.7373
  954MOL0     H28763   4.616   8.523   0.601  1.4663 -1.0089 -3.0371
  954MOL0     H28764   4.847   8.338   0.625 -2.1804 -1.7783 -0.0638
  954MOL0     H28765   4.766   8.354   0.465  1.7471  0.2732 -0.0542
  954MOL0     H28766   4.996   8.469   0.560  0.7176 -0.2245  1.7387
  954MOL0     H28767   4.886   8.600   0.603 -0.5916  0.7584 -0.3176
  954MOL0     H28768   4.968   8.642   0.382  0.3494  1.5622  3.9610
  954MOL0     H28769   4.891   8.490   0.330  1.7670 -0.0651 -0.5404
  954MOL0     H28770   3.909   8.273   0.597 -0.8875 -0.0697  0.7199
  954MOL0     H28771   3.718   8.412   0.587  0.1214 -1.5245  1.1904
  954MOL0     H28772   3.445   8.660   0.591 -2.7569 -0.3844 -0.1201
  954MOL0     H28773   3.237   8.777   0.564  0.2447 -0.9412  1.4228
  954MOL0     H28774   1.796   9.166   1.020 -0.2537  0.2045  0.1665
  954MOL0     H28775   1.564   9.137   1.083 -1.2530 -1.1909 -1.8433
  954MOL0     H28776   1.146   9.288   0.847  0.7766  0.8562  0.8046
  954MOL0     H28777   0.909   9.303   0.830  0.1690  0.8811  2.1382
  954MOL0     H28778   0.551   9.059   0.868 -0.2134 -0.9053  0.3338
  954MOL0     H28779   0.664   9.025   0.990 -1.2627 -1.4150  0.0532
  954MOL0     H28780   0.710   8.817   0.902  2.2127  2.1264  0.4379
  954MOL0     H28781   0.735   8.887   0.735 -1.7343 -1.9216 -1.7631
  954MOL0     H28782   0.471   8.895   0.736  0.7768  0.9269  0.8080
  954MOL0     H28783   0.479   8.781   0.870 -0.4835  1.1654  0.6849
  954MOL0     H28784   0.634   8.728   0.609 -1.0036  2.9521 -0.6642
  954MOL0     H28785   0.595   8.610   0.734 -0.1711  0.2504 -0.3610
  954MOL0     H28786   0.248   8.621   0.498 -1.2109 -0.1391  1.1896
  954MOL0     H28787   0.858   8.918   0.979 -1.8789 -0.7306 -2.3152
  954MOL0     H28788   1.040   8.782   1.043  0.1846  0.1677  0.5603
  954MOL0     H28789   1.200   8.814   0.985  0.7344  2.2234  0.7593
  954MOL0     H28790   1.162   8.872   1.143  0.8024  0.6576  0.5367
  955MOL0     O28791   9.132   0.303   1.924 -0.2189 -0.7234  0.4738
  955MOL0     C28792   9.022   0.311   1.980 -0.4385 -0.1461 -0.6818
  955MOL0     O28793   8.997   0.310   2.113 -0.3314  0.2530  0.1759
  955MOL0     C28794   9.100   0.281   2.204  0.3765  0.1364  0.4487
  955MOL0     C28795   9.201   0.378   2.219  0.2489  0.0794  1.0093
  955MOL0     C28796   9.297   0.359   2.315  0.0285 -0.2039 -0.1749
  955MOL0     C28797   9.313   0.249   2.395 -0.7859  0.5988  1.5536
  955MOL0     O28798   9.410   0.245   2.493  0.3662 -0.1843 -0.2210
  955MOL0     C28799   9.453   0.112   2.537 -0.2168  0.0407  1.0554
  955MOL0     C28800   9.563   0.126   2.645  0.0694 -0.7706 -0.2803
  955MOL0     C28801   9.690   0.166   2.578 -0.6125  0.1318  0.1467
  955MOL0     C28802   9.789   0.219   2.683 -0.2148 -0.1424 -0.0199
  955MOL0     C28803   9.903   0.275   2.594 -0.3912 -0.5674 -0.0557
  955MOL0     C28804  10.013   0.311   2.692  0.8542  0.0740 -0.4129
  955MOL0     C28805  10.132   0.379   2.619 -0.0097  0.8420 -0.8520
  955MOL0     C28806  10.203   0.310   2.512  0.5267  0.0999  0.3448
  955MOL0     N28807  10.325   0.385   2.491 -0.4562 -0.1538  0.4214
  955MOL0     C28808  10.344   0.504   2.425  0.2649  0.2461 -0.5396
  955MOL0     C28809  10.481   0.526   2.435 -0.0850  0.1485 -1.1128
  955MOL0     C28810  10.551   0.646   2.382 -0.2619  0.3785  0.0515
  955MOL0     C28811  10.698   0.606   2.352 -0.4564  0.1161 -0.3634
  955MOL0     C28812  10.784   0.723   2.328 -0.8120 -0.7481 -0.8929
  955MOL0     C28813  10.933   0.689   2.340 -0.2537 -0.3746 -0.0796
  955MOL0     O28814  10.999   0.772   2.245  0.4613 -0.7572 -0.5582
  955MOL0     C28815  11.140   0.787   2.242  0.5439  0.5880 -0.1062
  955MOL0     C28816  11.188   0.845   2.122 -0.2102 -0.5739 -0.4874
  955MOL0     C28817  11.327   0.856   2.101  0.8116 -0.1534  0.1700
  955MOL0     C28818  11.419   0.795   2.179  0.2723  0.0346 -0.3397
  955MOL0     C28819  11.564   0.806   2.158 -0.4755  0.1283  0.8913
  955MOL0     O28820  11.605   0.905   2.072  0.1641 -0.0023  0.4626
  955MOL0     C28821  11.736   0.906   2.031 -0.4322  0.4241  0.0268
  955MOL0     C28822  11.798   0.786   1.984 -0.1092  0.3822 -0.0853
  955MOL0     C28823  11.939   0.791   1.965  0.7741  1.1907 -0.8905
  955MOL0     C28824  12.010   0.904   1.991  0.1440  0.7332 -0.4357
  955MOL0     O28825  12.148   0.900   1.968 -0.1084 -0.1078  0.2565
  955MOL0     C28826  12.233   0.981   2.053 -0.1887 -0.3796 -0.0334
  955MOL0     C28827  12.380   0.954   2.028 -0.6602  0.4734 -0.0519
  955MOL0     C28828  12.468   0.989   2.145  0.6219 -0.7435  0.4683
  955MOL0     C28829  12.492   0.875   2.236 -0.4543 -0.6387  0.4374
  955MOL0     C28830  12.593   0.918   2.351 -0.5944 -0.5478 -0.5018
  955MOL0     C28831  12.731   0.963   2.308 -0.8020 -0.2456 -0.2804
  955MOL0     C28832  12.796   0.867   2.198 -0.1438  0.6149  0.4990
  955MOL0     C28833  12.949   0.902   2.187  0.9085 -0.1575  0.2782
  955MOL0    Cl28834  13.024   0.793   2.071  0.2641 -0.1289 -0.3998
  955MOL0     C28835  11.946   1.019   2.035  0.4139 -0.1984 -0.6958
  955MOL0     C28836  11.809   1.024   2.050  0.0827 -0.4370  0.1469
  955MOL0     O28837  11.632   0.728   2.222  0.2964  0.2191 -0.3421
  955MOL0     C28838  11.364   0.717   2.294 -0.5571 -0.1512 -0.0765
  955MOL0     C28839  11.228   0.719   2.326  0.3067 -0.2603 -0.1705
  955MOL0     N28840  10.533   0.416   2.505  0.4098 -0.3834  0.3507
  955MOL0     N28841  10.442   0.333   2.540 -0.0169 -0.0261  0.3060
  955MOL0     C28842   9.210   0.152   2.376 -0.2499 -0.8104  0.0344
  955MOL0     C28843   9.103   0.157   2.282 -0.0749 -0.8377 -0.2014
  955MOL0     C28844   8.900   0.332   1.894  0.0774 -0.5687  0.4992
  955MOL0     C28845   8.769   0.307   1.953  0.2788 -0.5058  0.1000
  955MOL0     C28846   8.652   0.333   1.877 -0.2936  1.2195  0.3673
  955MOL0     C28847   8.661   0.388   1.748 -1.0564 -0.4248  0.5767
  955MOL0     O28848   8.562   0.427   1.666  0.5673 -0.1351  0.5826
  955MOL0     C28849   8.431   0.433   1.725  0.1023  0.1711 -0.2225
  955MOL0     C28850   8.349   0.516   1.626 -0.7049 -0.6200  0.0631
  955MOL0     C28851   8.200   0.542   1.659  0.0109  0.3587  0.4218
  955MOL0     C28852   8.123   0.597   1.539  0.2321  0.9884  0.3641
  955MOL0     C28853   8.104   0.500   1.421 -0.1985 -0.4073  0.1784
  955MOL0     C28854   8.061   0.449   1.320 -0.0015  0.9172 -0.3423
  955MOL0     C28855   8.785   0.383   1.683  0.9354  0.2408  0.0939
  955MOL0     C28856   8.903   0.364   1.754  0.6282 -0.3439  0.6373
  955MOL0     C28857   9.023   0.390   1.670  0.9182 -0.3149 -0.1328
  955MOL0     H28858   9.205   0.465   2.155 -0.6760  0.8520  1.9450
  955MOL0     H28859   9.364   0.443   2.330 -2.4060  1.4117  2.7981
  955MOL0     H28860   9.376   0.054   2.589  0.6702 -0.2635  2.0743
  955MOL0     H28861   9.492   0.050   2.456 -1.3554 -0.6795  1.0479
  955MOL0     H28862   9.578   0.036   2.705 -0.9024 -1.0101 -0.3720
  955MOL0     H28863   9.527   0.202   2.716 -0.2042 -0.1885 -1.0255
  955MOL0     H28864   9.672   0.238   2.497 -1.2365 -2.0227 -1.7339
  955MOL0     H28865   9.728   0.079   2.524 -0.7287 -1.2398  2.1543
  955MOL0     H28866   9.733   0.296   2.737  2.0522  0.9975  0.7954
  955MOL0     H28867   9.819   0.144   2.756 -0.8803 -0.0538  0.3522
  955MOL0     H28868   9.943   0.200   2.525  0.7752  0.2901 -0.3320
  955MOL0     H28869   9.871   0.348   2.520 -4.3878 -3.6938 -1.8174
  955MOL0     H28870   9.968   0.382   2.762  0.7500 -1.0526  0.7053
  955MOL0     H28871  10.029   0.215   2.742 -0.0166  1.0270  1.8597
  955MOL0     H28872  10.200   0.415   2.697 -1.0580  0.2072  0.4107
  955MOL0     H28873  10.085   0.469   2.580  0.7061  1.4706 -0.2908
  955MOL0     H28874  10.224   0.208   2.546 -0.1868  0.7140  2.8582
  955MOL0     H28875  10.141   0.307   2.422  0.2619  1.7033  0.4332
  955MOL0     H28876  10.269   0.572   2.386  2.2536  3.5900  1.0478
  955MOL0     H28877  10.510   0.689   2.291  0.0478 -1.6902 -1.1290
  955MOL0     H28878  10.544   0.722   2.461  1.0084  2.1627 -1.4718
  955MOL0     H28879  10.734   0.565   2.446  0.8137  1.8261 -0.0556
  955MOL0     H28880  10.708   0.534   2.271 -0.3391 -2.1837  1.6023
  955MOL0     H28881  10.767   0.808   2.395  1.8428 -1.5508  0.9724
  955MOL0     H28882  10.767   0.763   2.228  0.4752 -0.9285 -1.1937
  955MOL0     H28883  10.967   0.587   2.322  0.5962 -0.2298  0.6242
  955MOL0     H28884  10.966   0.710   2.442  0.5186  1.5375 -0.6760
  955MOL0     H28885  11.124   0.900   2.053 -4.0907 -0.8961  2.5355
  955MOL0     H28886  11.371   0.905   2.014 -0.5549 -0.8178 -0.9523
  955MOL0     H28887  11.748   0.690   1.979  0.2153  0.2562 -1.3686
  955MOL0     H28888  11.975   0.696   1.927 -3.3325 -0.6444 -0.7250
  955MOL0     H28889  12.214   1.088   2.040 -2.0790 -0.6232  0.3961
  955MOL0     H28890  12.200   0.963   2.156 -1.3132 -2.9257 -0.7612
  955MOL0     H28891  12.389   0.847   2.008  0.9434  0.0440  2.5071
  955MOL0     H28892  12.414   1.007   1.938  1.2485  1.3960  1.1450
  955MOL0     H28893  12.553   1.027   2.088 -0.1701  1.6644  0.7378
  955MOL0     H28894  12.423   1.074   2.198 -2.4615 -1.5011 -0.6974
  955MOL0     H28895  12.546   0.793   2.186 -0.9778  0.1738 -1.5258
  955MOL0     H28896  12.395   0.834   2.265 -1.4180 -0.6336 -2.4581
  955MOL0     H28897  12.601   0.830   2.417  1.8353 -0.2713 -0.3633
  955MOL0     H28898  12.553   0.998   2.414  0.7698  0.6396 -1.1072
  955MOL0     H28899  12.720   1.062   2.263  2.2418  0.9650  1.3856
  955MOL0     H28900  12.803   0.976   2.389  0.3434  2.1560 -1.5792
  955MOL0     H28901  12.743   0.871   2.102  1.7759  2.0509 -0.5708
  955MOL0     H28902  12.793   0.762   2.231  2.5115  0.5614  0.7659
  955MOL0     H28903  12.954   1.005   2.150  3.1199 -0.8213 -1.5199
  955MOL0     H28904  12.997   0.897   2.285  0.6307  2.8975  0.6886
  955MOL0     H28905  11.994   1.114   2.054  0.6392 -0.2386 -1.0543
  955MOL0     H28906  11.754   1.108   2.092  0.2609 -0.3841  0.2755
  955MOL0     H28907  11.426   0.663   2.365 -1.6747  0.9591  1.8314
  955MOL0     H28908  11.193   0.660   2.410  0.2977 -1.2510 -0.8588
  955MOL0     H28909   9.209   0.065   2.441  2.2107 -1.7147 -1.0139
  955MOL0     H28910   9.028   0.081   2.263  0.6145 -1.2934 -1.2243
  955MOL0     H28911   8.751   0.266   2.051 -0.2413 -0.6049 -0.0333
  955MOL0     H28912   8.553   0.321   1.920 -0.8851  0.4997 -1.1313
  955MOL0     H28913   8.427   0.491   1.817 -0.0991  3.9208 -2.4211
  955MOL0     H28914   8.381   0.337   1.740 -1.6153  1.1648  0.7255
  955MOL0     H28915   8.356   0.466   1.529  1.0545  1.1962 -0.8292
  955MOL0     H28916   8.402   0.611   1.620 -0.1123 -0.5717  3.7091
  955MOL0     H28917   8.198   0.615   1.741  0.8247  0.5560  0.2803
  955MOL0     H28918   8.162   0.445   1.691 -0.3203  0.5963  0.7495
  955MOL0     H28919   8.017   0.616   1.559 -0.4151 -0.3536 -1.5432
  955MOL0     H28920   8.176   0.685   1.500 -2.1181  0.3812 -4.9405
  955MOL0     H28921   8.017   0.414   1.229 -1.8144  1.9077  0.1019
  955MOL0     H28922   8.794   0.409   1.578  0.2500  1.4802  0.3183
  955MOL0     H28923   8.994   0.455   1.587 -3.8337  1.7199  2.7443
  955MOL0     H28924   9.089   0.448   1.735 -1.3769  2.0693  0.2088
  955MOL0     H28925   9.074   0.301   1.631  1.8803  1.2092 -2.5419
  956MOL0     O28926   3.176   9.876   5.702 -0.1388  0.3227  0.1163
  956MOL0     C28927   3.203   9.754   5.727  0.4989 -0.1696 -0.0349
  956MOL0     O28928   3.294   9.714   5.817  0.3378 -0.4784 -0.0131
  956MOL0     C28929   3.416   9.787   5.819 -0.4981 -0.4543  0.3096
  956MOL0     C28930   3.428   9.901   5.894 -0.1863 -0.4903  0.6067
  956MOL0     C28931   3.554   9.968   5.891 -0.1818 -0.0669  0.3586
  956MOL0     C28932   3.658   9.935   5.804 -0.5633  0.0594  0.3329
  956MOL0     O28933   3.762  10.023   5.797  0.1541  0.2673 -0.1313
  956MOL0     C28934   3.890   9.968   5.774 -0.6249  0.4218  0.3248
  956MOL0     C28935   3.996  10.078   5.762  0.6680  0.6686 -0.2832
  956MOL0     C28936   4.132  10.009   5.779  1.2702 -0.1075  1.0511
  956MOL0     C28937   4.237  10.109   5.811  0.4060 -0.4022  0.5855
  956MOL0     C28938   4.379  10.046   5.806 -0.9626  0.6686  0.4222
  956MOL0     C28939   4.492  10.149   5.809  0.0696 -0.9703 -0.2910
  956MOL0     C28940   4.619  10.107   5.896 -0.3903 -0.3030 -0.3630
  956MOL0     C28941   4.699   9.984   5.835 -0.2465  0.4090  0.2816
  956MOL0     N28942   4.830   9.986   5.889 -0.2547 -0.0356  0.1801
  956MOL0     C28943   4.936  10.021   5.819 -0.0386 -0.9481  0.1777
  956MOL0     C28944   5.047   9.977   5.894  1.0109 -0.4813  0.0443
  956MOL0     C28945   5.195   9.992   5.871  0.1538  0.1445  0.8553
  956MOL0     C28946   5.258   9.857   5.830 -0.0116 -0.4646 -0.7190
  956MOL0     C28947   5.407   9.868   5.840 -0.1624  0.0934  0.6903
  956MOL0     C28948   5.487   9.751   5.785  0.9858  0.3448  0.1265
  956MOL0     O28949   5.622   9.759   5.815 -0.1211 -0.3909 -0.1655
  956MOL0     C28950   5.707   9.655   5.803  0.5837  1.1830  0.0033
  956MOL0     C28951   5.665   9.525   5.767  0.1121 -0.3329 -0.0909
  956MOL0     C28952   5.758   9.426   5.760 -0.5486 -0.0827  0.2402
  956MOL0     C28953   5.898   9.456   5.769  0.6260 -0.2112  0.2151
  956MOL0     C28954   5.994   9.355   5.761  0.0819  0.5141  0.2363
  956MOL0     O28955   6.127   9.382   5.777  0.5007 -0.2657 -0.0879
  956MOL0     C28956   6.212   9.282   5.767 -0.1647  0.0788  0.2296
  956MOL0     C28957   6.286   9.259   5.657 -0.1898 -0.3317  0.9347
  956MOL0     C28958   6.388   9.161   5.654  0.1338 -0.0645  0.4659
  956MOL0     C28959   6.410   9.080   5.766  0.1584  0.1695 -0.4631
  956MOL0     O28960   6.506   8.981   5.771 -0.4082 -0.4311  0.5852
  956MOL0     C28961   6.579   8.946   5.656  0.2964 -0.4147  1.7240
  956MOL0     C28962   6.686   8.852   5.713 -0.3806  0.0040 -0.4063
  956MOL0     C28963   6.777   8.786   5.603  0.6117  0.3901 -0.1172
  956MOL0     C28964   6.873   8.894   5.542  0.3120  0.0805  1.0198
  956MOL0     C28965   6.948   8.805   5.439 -0.6217 -0.6259  0.0027
  956MOL0     C28966   7.060   8.869   5.365 -0.0313  0.7974 -0.6263
  956MOL0     C28967   7.195   8.834   5.434  0.5051  0.2802 -0.8655
  956MOL0     C28968   7.294   8.839   5.324 -0.1321 -0.5883  0.4189
  956MOL0    Cl28969   7.461   8.804   5.384  0.4889 -0.0059 -0.2669
  956MOL0     C28970   6.319   9.095   5.878  0.4722 -0.2991  0.5009
  956MOL0     C28971   6.220   9.197   5.875 -0.3404  0.9956  0.1204
  956MOL0     O28972   5.947   9.245   5.726  0.0222  0.3992  0.1769
  956MOL0     C28973   5.937   9.587   5.794  0.3229  0.0067  0.6500
  956MOL0     C28974   5.841   9.692   5.817  0.2058  0.1356 -0.0031
  956MOL0     N28975   4.996   9.926   6.017  0.0992 -0.1914 -0.8773
  956MOL0     N28976   4.870   9.929   5.999 -0.0938  0.2580 -0.1466
  956MOL0     C28977   3.635   9.827   5.722 -0.7657  0.6471 -0.2950
  956MOL0     C28978   3.511   9.755   5.730 -0.7364 -0.0787  0.5120
  956MOL0     C28979   3.092   9.670   5.675 -0.5153  1.1967 -0.9733
  956MOL0     C28980   3.027   9.706   5.553  0.2136 -0.4863  0.1605
  956MOL0     C28981   2.918   9.638   5.498 -0.2560 -0.2034  0.1673
  956MOL0     C28982   2.876   9.524   5.555 -0.1650  0.2698 -1.0983
  956MOL0     O28983   2.756   9.468   5.517 -0.2373 -0.7904  0.1199
  956MOL0     C28984   2.638   9.566   5.519 -0.4741  0.2305 -0.4989
  956MOL0     C28985   2.496   9.497   5.512  0.2421  0.3719  0.4477
  956MOL0     C28986   2.491   9.405   5.393 -0.5064 -0.1941  0.6425
  956MOL0     C28987   2.364   9.322   5.395  0.3771 -0.9554  0.0360
  956MOL0     C28988   2.249   9.380   5.333 -0.6009  0.4976 -0.2893
  956MOL0     C28989   2.158   9.419   5.262 -0.3278 -0.8636 -0.0588
  956MOL0     C28990   2.934   9.479   5.672 -0.4322 -0.3428 -0.0560
  956MOL0     C28991   3.045   9.548   5.730  0.2675 -0.4781  0.8268
  956MOL0     C28992   3.100   9.483   5.850 -0.3014 -0.0583  0.2338
  956MOL0     H28993   3.347   9.918   5.965 -0.5385  3.8014 -0.5509
  956MOL0     H28994   3.557  10.050   5.962 -0.0752  0.5584 -0.3643
  956MOL0     H28995   3.913   9.897   5.854 -1.8031 -1.9521 -1.3137
  956MOL0     H28996   3.889   9.917   5.678 -0.6197  2.4329 -0.7939
  956MOL0     H28997   3.990  10.147   5.846 -1.4099  0.2332 -0.0263
  956MOL0     H28998   3.984  10.133   5.669 -0.3366 -0.3466 -0.7763
  956MOL0     H28999   4.164   9.958   5.688  2.0442  1.1383  0.5867
  956MOL0     H29000   4.133   9.929   5.853 -0.8621 -0.4851  0.7444
  956MOL0     H29001   4.233  10.175   5.724  2.0470 -0.8558  0.1255
  956MOL0     H29002   4.213  10.171   5.898  0.0722 -1.1042  1.0014
  956MOL0     H29003   4.400   9.977   5.888  2.3099  1.3227  0.2761
  956MOL0     H29004   4.386   9.981   5.719  0.8981 -1.8174  2.2624
  956MOL0     H29005   4.521  10.169   5.705  1.0123 -0.8832 -0.0262
  956MOL0     H29006   4.452  10.240   5.855  0.5365 -1.3511  0.9185
  956MOL0     H29007   4.581  10.069   5.991 -0.3060 -0.6081 -0.4499
  956MOL0     H29008   4.691  10.188   5.908  2.8612 -2.9134 -0.8377
  956MOL0     H29009   4.653   9.893   5.873  1.6750  0.3094  2.6336
  956MOL0     H29010   4.700  10.000   5.727  2.8886 -0.3780  0.0951
  956MOL0     H29011   4.938  10.086   5.732  0.7370  0.5717  1.2836
  956MOL0     H29012   5.201  10.058   5.784  0.9925 -3.2533 -1.8878
  956MOL0     H29013   5.243  10.042   5.956 -1.9396  0.2643  2.0253
  956MOL0     H29014   5.222   9.780   5.899  0.6449 -2.5030 -2.5188
  956MOL0     H29015   5.223   9.828   5.730 -0.7635 -0.3234 -0.5023
  956MOL0     H29016   5.433   9.879   5.946 -1.8142  1.5265  0.9971
  956MOL0     H29017   5.436   9.964   5.796 -0.5580  1.6252  3.5324
  956MOL0     H29018   5.478   9.761   5.676 -1.9796  2.8433  0.4707
  956MOL0     H29019   5.446   9.655   5.816  2.8549 -1.8541 -3.5207
  956MOL0     H29020   5.564   9.494   5.743  1.2015 -3.9593 -0.4536
  956MOL0     H29021   5.720   9.327   5.740 -2.3501  0.8725 -1.4387
  956MOL0     H29022   6.263   9.318   5.569  0.8859  0.1512  0.9658
  956MOL0     H29023   6.435   9.123   5.564 -1.5375 -2.2251  0.4236
  956MOL0     H29024   6.519   8.897   5.579  0.4324  0.4867  1.0362
  956MOL0     H29025   6.637   9.025   5.607  1.9029 -1.3369  2.0617
  956MOL0     H29026   6.766   8.913   5.757  1.4991 -1.5269 -1.5607
  956MOL0     H29027   6.663   8.779   5.791 -0.3740  0.7660  0.3383
  956MOL0     H29028   6.834   8.706   5.652  0.0070  1.2787  2.1892
  956MOL0     H29029   6.706   8.747   5.530  2.7375  1.3992 -2.9412
  956MOL0     H29030   6.936   8.934   5.622 -2.9229 -0.8306  4.2843
  956MOL0     H29031   6.812   8.975   5.502 -1.0533  1.5868  5.4816
  956MOL0     H29032   6.876   8.787   5.359  0.7727  0.4079 -1.5472
  956MOL0     H29033   6.977   8.713   5.490 -1.7970 -0.4608  1.0183
  956MOL0     H29034   7.059   8.827   5.265 -1.0869  0.0912 -0.3328
  956MOL0     H29035   7.042   8.976   5.350 -1.6372  0.5521 -0.5684
  956MOL0     H29036   7.206   8.734   5.477  0.0249  1.7308  3.0455
  956MOL0     H29037   7.211   8.909   5.512  0.0162  0.9083 -1.3616
  956MOL0     H29038   7.275   8.762   5.249  1.0120 -0.4680 -0.0109
  956MOL0     H29039   7.291   8.936   5.273  0.7490  0.4872  2.2874
  956MOL0     H29040   6.331   9.027   5.962 -1.2283  1.5533  2.3894
  956MOL0     H29041   6.152   9.201   5.959 -0.3413  3.4969  0.0821
  956MOL0     H29042   6.043   9.605   5.809  0.5626 -0.9679  0.1938
  956MOL0     H29043   5.861   9.794   5.849 -2.4967 -0.2798  3.6116
  956MOL0     H29044   3.711   9.808   5.647  2.6909 -0.1168  3.0763
  956MOL0     H29045   3.513   9.662   5.675 -0.4810  0.2682 -0.0700
  956MOL0     H29046   3.070   9.790   5.499 -0.5543 -0.3446 -0.2503
  956MOL0     H29047   2.865   9.657   5.405 -0.4644 -2.9014 -0.3366
  956MOL0     H29048   2.653   9.630   5.432 -2.6678 -0.0592 -1.1430
  956MOL0     H29049   2.634   9.633   5.606 -1.8629 -0.5030  0.0296
  956MOL0     H29050   2.421   9.576   5.508 -0.6088 -0.3829 -4.0923
  956MOL0     H29051   2.483   9.450   5.610 -3.2028 -0.3425 -0.2124
  956MOL0     H29052   2.567   9.326   5.399  0.1011  0.4701  2.2774
  956MOL0     H29053   2.490   9.463   5.301  2.7802 -0.9260  0.0324
  956MOL0     H29054   2.379   9.230   5.338 -1.1485 -1.5909  0.5866
  956MOL0     H29055   2.335   9.297   5.498 -1.7542  2.1200  0.3196
  956MOL0     H29056   2.073   9.457   5.208  0.7554  2.6115  0.4369
  956MOL0     H29057   2.882   9.403   5.729  0.2873 -0.2190  0.7998
  956MOL0     H29058   3.209   9.474   5.846 -0.0226  2.4919  0.4057
  956MOL0     H29059   3.085   9.543   5.940 -0.0719 -0.9409  0.8728
  956MOL0     H29060   3.060   9.384   5.874  1.1147 -0.7088 -0.0021
  957MOL0     O29061   1.004   3.110   6.701  0.6554 -0.3297  0.2300
  957MOL0     C29062   0.995   3.154   6.584  0.0423  0.2828 -0.3073
  957MOL0     O29063   1.093   3.234   6.533  0.3444 -0.0503 -0.6465
  957MOL0     C29064   1.176   3.283   6.627  0.3109  0.0419  0.2879
  957MOL0     C29065   1.150   3.391   6.709  0.3122 -0.8225 -1.1320
  957MOL0     C29066   1.250   3.438   6.796  0.4468 -0.4132 -0.1056
  957MOL0     C29067   1.379   3.385   6.810  0.3630 -0.6079 -0.1883
  957MOL0     O29068   1.458   3.443   6.905 -0.1630  0.8084 -0.0538
  957MOL0     C29069   1.595   3.397   6.917 -0.4778  0.1881  0.1166
  957MOL0     C29070   1.606   3.281   7.016 -0.1660  0.2479 -0.5773
  957MOL0     C29071   1.750   3.218   7.014  0.3061  0.5055  0.3745
  957MOL0     C29072   1.771   3.114   6.903 -0.2512  0.3569 -0.8826
  957MOL0     C29073   1.903   3.044   6.911  0.0938  0.3749 -0.7563
  957MOL0     C29074   1.910   2.940   6.804 -0.0602  0.0732 -0.4613
  957MOL0     C29075   2.022   2.831   6.831  0.1189 -0.6594 -0.9060
  957MOL0     C29076   2.159   2.891   6.865 -0.0164  0.6220 -0.1997
  957MOL0     N29077   2.217   2.973   6.757 -0.1698  0.1064 -0.2532
  957MOL0     C29078   2.286   2.925   6.652 -0.2437  0.1485  0.2595
  957MOL0     C29079   2.312   3.038   6.571 -0.1828 -0.0737 -0.2887
  957MOL0     C29080   2.399   3.046   6.451  0.1120  0.6293 -0.7602
  957MOL0     C29081   2.519   3.139   6.477  0.5246  0.6851 -0.1984
  957MOL0     C29082   2.569   3.199   6.343 -0.4924 -1.2071 -0.4220
  957MOL0     C29083   2.664   3.311   6.364  0.2248  0.5363 -1.0686
  957MOL0     O29084   2.786   3.272   6.432  0.5502  0.0506 -1.2062
  957MOL0     C29085   2.893   3.257   6.355 -0.7939  0.1703 -0.7812
  957MOL0     C29086   2.957   3.377   6.315 -0.2538  0.2127 -0.3570
  957MOL0     C29087   3.064   3.373   6.231 -0.3677  0.6766  0.6112
  957MOL0     C29088   3.114   3.248   6.180  0.5794  0.4727  0.3189
  957MOL0     C29089   3.230   3.237   6.095 -0.9983  0.1110 -0.0792
  957MOL0     O29090   3.276   3.351   6.033 -0.0714 -0.2164 -0.6212
  957MOL0     C29091   3.380   3.336   5.945  0.4608 -0.9108 -0.2756
  957MOL0     C29092   3.365   3.354   5.804 -0.2033 -0.0428 -0.5566
  957MOL0     C29093   3.474   3.341   5.722  0.4772 -0.1144  0.1440
  957MOL0     C29094   3.599   3.309   5.770 -0.0462  0.7662 -0.6893
  957MOL0     O29095   3.693   3.305   5.668  0.2262 -0.0429 -0.6913
  957MOL0     C29096   3.825   3.270   5.711  0.3117  0.7468 -0.0284
  957MOL0     C29097   3.911   3.263   5.585 -0.7777  0.2618 -0.5543
  957MOL0     C29098   4.057   3.226   5.622  0.4136 -0.3898 -0.5044
  957MOL0     C29099   4.157   3.297   5.525 -0.4136 -1.0436 -0.1205
  957MOL0     C29100   4.299   3.267   5.569 -0.8344 -0.2958  0.3101
  957MOL0     C29101   4.397   3.309   5.456 -0.1125 -0.5760  0.2153
  957MOL0     C29102   4.542   3.289   5.521  0.1187 -0.4155  0.0759
  957MOL0     C29103   4.654   3.352   5.450 -0.5621  0.5922 -0.7441
  957MOL0    Cl29104   4.693   3.291   5.284  0.0269 -0.2494 -0.0543
  957MOL0     C29105   3.617   3.291   5.908  0.4993  0.3778  0.3474
  957MOL0     C29106   3.507   3.301   5.996 -0.4681  0.5448 -0.1854
  957MOL0     O29107   3.290   3.129   6.079  0.6791 -0.3755  0.6375
  957MOL0     C29108   3.059   3.125   6.232 -0.7682 -0.3296  0.3288
  957MOL0     C29109   2.948   3.133   6.327  0.0227  0.5567 -0.6625
  957MOL0     N29110   2.257   3.150   6.631  0.0637  0.3068  0.6948
  957MOL0     N29111   2.209   3.109   6.741  0.7096 -0.0064  0.0288
  957MOL0     C29112   1.406   3.278   6.723  0.0510  0.1070 -0.0779
  957MOL0     C29113   1.307   3.226   6.636  0.0843 -0.2103 -0.4860
  957MOL0     C29114   0.881   3.104   6.501 -0.7997  0.9862 -0.8544
  957MOL0     C29115   0.756   3.105   6.567 -0.3501 -0.0827 -0.8740
  957MOL0     C29116   0.639   3.084   6.490  0.0151  0.9646 -0.2029
  957MOL0     C29117   0.647   3.041   6.359  0.1436 -0.0772  0.1863
  957MOL0     O29118   0.536   3.022   6.279  0.8797  0.1187  0.4693
  957MOL0     C29119   0.404   3.007   6.331  0.2276  0.4845  0.0582
  957MOL0     C29120   0.385   2.884   6.412 -0.0252 -0.3404 -0.0310
  957MOL0     C29121   0.415   2.756   6.332  0.0266  0.3012 -0.6055
  957MOL0     C29122   0.329   2.730   6.208  0.2091 -0.5683  0.1906
  957MOL0     C29123   0.207   2.672   6.262  0.4630  0.3510  0.8200
  957MOL0     C29124   0.102   2.615   6.296  0.3064  0.2123 -0.0137
  957MOL0     C29125   0.770   3.029   6.300  0.2237  1.1803  0.6946
  957MOL0     C29126   0.888   3.060   6.368  0.7837 -0.2261  0.2972
  957MOL0     C29127   1.025   3.041   6.298  0.0850 -0.3883 -0.1610
  957MOL0     H29128   1.060   3.447   6.687 -0.1652 -1.9420 -2.0734
  957MOL0     H29129   1.226   3.528   6.852  1.9825 -0.4993  0.7442
  957MOL0     H29130   1.638   3.349   6.828  2.4722  2.2521  0.3015
  957MOL0     H29131   1.657   3.481   6.951 -2.1510  1.1258  0.9603
  957MOL0     H29132   1.521   3.215   7.001 -1.8921  1.5168  2.6274
  957MOL0     H29133   1.604   3.331   7.114 -0.8595  1.0641 -0.9978
  957MOL0     H29134   1.774   3.168   7.109  0.9879 -1.2517 -0.6882
  957MOL0     H29135   1.825   3.298   7.007 -1.4377  2.1074 -0.9426
  957MOL0     H29136   1.693   3.039   6.917  0.3812  0.1503  2.2378
  957MOL0     H29137   1.762   3.160   6.805 -3.5560  1.4182 -0.1836
  957MOL0     H29138   1.987   3.114   6.909  1.0191 -0.6014  1.2630
  957MOL0     H29139   1.908   2.991   7.006  1.5662 -0.0629 -1.0447
  957MOL0     H29140   1.816   2.886   6.809 -0.9434  1.5520 -0.4250
  957MOL0     H29141   1.923   2.988   6.707 -1.0688  1.2603 -0.0338
  957MOL0     H29142   2.028   2.757   6.752 -2.3893 -0.1304 -1.6973
  957MOL0     H29143   1.993   2.771   6.918  0.7607  0.4782  0.1381
  957MOL0     H29144   2.155   2.953   6.954 -1.5760  0.1015  0.1166
  957MOL0     H29145   2.231   2.810   6.879 -1.4788 -0.1601  4.3807
  957MOL0     H29146   2.311   2.823   6.625  0.3956  0.1676  0.7521
  957MOL0     H29147   2.444   2.948   6.435  1.4653  1.4269 -2.2643
  957MOL0     H29148   2.349   3.086   6.362 -1.0589  3.1350  0.9032
  957MOL0     H29149   2.482   3.215   6.546 -2.8969  0.2627 -1.4039
  957MOL0     H29150   2.592   3.070   6.522 -0.8333 -0.3435  0.4979
  957MOL0     H29151   2.484   3.244   6.291  2.2271  1.1819 -3.1183
  957MOL0     H29152   2.610   3.112   6.292 -0.0947 -1.9148  1.0527
  957MOL0     H29153   2.623   3.387   6.431  3.5293  0.4034  1.3633
  957MOL0     H29154   2.671   3.357   6.265  1.9046  0.3376 -1.0660
  957MOL0     H29155   2.929   3.478   6.343 -2.1469 -0.6028  0.8400
  957MOL0     H29156   3.116   3.464   6.201  1.7939  0.2454  2.7131
  957MOL0     H29157   3.270   3.372   5.753 -0.1898  1.0853 -0.2114
  957MOL0     H29158   3.449   3.348   5.617 -3.0264  0.3542  0.8834
  957MOL0     H29159   3.868   3.339   5.784  1.3234  1.2952 -1.1065
  957MOL0     H29160   3.822   3.169   5.753  1.8909 -0.4259 -2.5052
  957MOL0     H29161   3.852   3.212   5.509 -1.7636  1.0384 -0.3431
  957MOL0     H29162   3.913   3.370   5.560 -0.6294  0.6312  0.9424
  957MOL0     H29163   4.079   3.254   5.726 -2.2917 -1.4994  0.4392
  957MOL0     H29164   4.062   3.117   5.613  0.8617 -0.6152  1.8702
  957MOL0     H29165   4.125   3.400   5.505 -0.1865 -1.2488 -1.6735
  957MOL0     H29166   4.141   3.243   5.431 -1.1024  1.9312 -1.8444
  957MOL0     H29167   4.315   3.162   5.596  1.1223 -0.0677  0.2157
  957MOL0     H29168   4.326   3.326   5.658 -1.7882 -0.9323  1.0399
  957MOL0     H29169   4.384   3.252   5.364  1.2735  0.5278 -0.7034
  957MOL0     H29170   4.381   3.414   5.433 -0.3740 -0.9045 -1.1694
  957MOL0     H29171   4.559   3.182   5.538 -0.0455 -0.1549  2.0795
  957MOL0     H29172   4.545   3.334   5.621  0.7301  0.4517 -0.3185
  957MOL0     H29173   4.662   3.461   5.457  0.3585  0.5405 -0.8042
  957MOL0     H29174   4.738   3.314   5.509 -1.3585 -2.6199 -1.4858
  957MOL0     H29175   3.710   3.258   5.955  1.4288  0.8640 -1.0872
  957MOL0     H29176   3.512   3.287   6.104 -1.7639 -0.5210 -0.2404
  957MOL0     H29177   3.100   3.029   6.200  0.4792  0.0135  0.8501
  957MOL0     H29178   2.905   3.039   6.360 -0.2684  1.0689  0.4363
  957MOL0     H29179   1.506   3.235   6.717 -0.2970 -0.9819  1.3568
  957MOL0     H29180   1.353   3.157   6.566  0.2319 -1.8974  1.2031
  957MOL0     H29181   0.748   3.134   6.671 -3.1016  0.4941 -1.1811
  957MOL0     H29182   0.542   3.084   6.537  0.8902 -0.5390  1.7324
  957MOL0     H29183   0.334   3.006   6.246  0.7690 -4.3593 -0.6549
  957MOL0     H29184   0.374   3.095   6.388 -2.7477 -0.9838  0.9943
  957MOL0     H29185   0.278   2.863   6.426 -0.2012 -0.4824 -1.4485
  957MOL0     H29186   0.443   2.884   6.504  2.7972  0.6931 -1.6953
  957MOL0     H29187   0.411   2.669   6.398 -3.3612  0.7883  0.0067
  957MOL0     H29188   0.521   2.770   6.310  0.7800  1.7838  3.2235
  957MOL0     H29189   0.327   2.818   6.143  2.0747 -0.7573 -0.1857
  957MOL0     H29190   0.381   2.653   6.150  0.1891 -1.1936  0.9867
  957MOL0     H29191   0.003   2.603   6.336  0.5838 -1.8448  0.1865
  957MOL0     H29192   0.769   2.975   6.206 -0.9275  0.1087  1.2838
  957MOL0     H29193   1.084   2.975   6.362  0.1793  0.8321  1.0842
  957MOL0     H29194   1.018   3.005   6.195  0.2046 -1.7340  0.2837
  957MOL0     H29195   1.086   3.131   6.287 -0.4188  0.2296  1.6576
  958MOL0     O29196   5.867   5.088   9.949  0.0558 -0.1828 -0.0928
  958MOL0     C29197   5.769   5.096  10.022 -0.2285 -0.8506 -0.4968
  958MOL0     O29198   5.766   5.036  10.152 -0.3392  0.4344 -0.4540
  958MOL0     C29199   5.888   4.989  10.191  0.0223 -1.2357  0.2157
  958MOL0     C29200   5.925   4.855  10.186  0.2256  0.1111 -0.0612
  958MOL0     C29201   6.043   4.814  10.244 -0.0351 -0.1752  0.1946
  958MOL0     C29202   6.131   4.911  10.310 -0.6392  0.2871 -0.5585
  958MOL0     O29203   6.253   4.866  10.342 -0.2669 -0.0422  0.7137
  958MOL0     C29204   6.335   4.948  10.419 -0.9092 -0.2814 -0.3622
  958MOL0     C29205   6.451   4.868  10.464 -0.1771  0.7874  0.1070
  958MOL0     C29206   6.529   4.924  10.586  0.5491 -0.0082 -0.7262
  958MOL0     C29207   6.593   5.064  10.577 -0.7020  0.3138  0.4627
  958MOL0     C29208   6.723   5.057  10.486  0.0449  0.3178  0.4119
  958MOL0     C29209   6.759   5.197  10.443  0.7021 -0.3221  0.2001
  958MOL0     C29210   6.905   5.205  10.390 -0.9860  0.3550  0.4401
  958MOL0     C29211   6.934   5.342  10.326 -0.0649 -0.9311 -0.1479
  958MOL0     N29212   7.080   5.365  10.304  0.7749  0.2167  0.0635
  958MOL0     C29213   7.185   5.325  10.391  1.0170 -0.6973  0.0467
  958MOL0     C29214   7.296   5.370  10.329 -0.4799 -0.2533 -0.2203
  958MOL0     C29215   7.441   5.372  10.371 -0.7238 -0.4938  0.6176
  958MOL0     C29216   7.468   5.506  10.445 -0.2962  0.3991  0.4242
  958MOL0     C29217   7.573   5.603  10.379  0.1869 -0.4305  0.6659
  958MOL0     C29218   7.712   5.540  10.374  0.0605 -0.1466  0.1954
  958MOL0     O29219   7.802   5.637  10.304 -0.0443 -0.4740 -0.1191
  958MOL0     C29220   7.940   5.623  10.308  0.2887  0.2991  0.0549
  958MOL0     C29221   8.021   5.723  10.259  0.0787 -0.5466  0.2750
  958MOL0     C29222   8.163   5.698  10.248  0.2989 -0.7629  1.1206
  958MOL0     C29223   8.221   5.575  10.284 -0.4933 -0.6483  0.1566
  958MOL0     C29224   8.362   5.549  10.241  0.3663  0.1296  0.0874
  958MOL0     O29225   8.392   5.424  10.187  0.7370 -0.0928  0.8461
  958MOL0     C29226   8.525   5.398  10.162  0.5684  0.1866  0.1358
  958MOL0     C29227   8.612   5.479  10.082 -0.1437 -0.7956  0.0268
  958MOL0     C29228   8.734   5.440  10.048  0.2769 -0.1973  0.7489
  958MOL0     C29229   8.789   5.318  10.096 -0.4966 -0.5302  0.0197
  958MOL0     O29230   8.920   5.274  10.059 -0.0156  0.1071 -0.3603
  958MOL0     C29231   9.017   5.363  10.000  0.7113  0.4712 -0.2119
  958MOL0     C29232   9.153   5.337  10.052  0.1285  0.5800 -0.2580
  958MOL0     C29233   9.232   5.224   9.995 -0.5164  0.9783  0.1088
  958MOL0     C29234   9.247   5.209   9.838 -0.0628  0.7690 -0.5715
  958MOL0     C29235   9.328   5.085   9.804 -0.3148  0.2618 -0.8113
  958MOL0     C29236   9.319   5.034   9.661 -0.5128  0.2950  0.4913
  958MOL0     C29237   9.419   4.921   9.626  0.3864  0.5295 -0.4315
  958MOL0     C29238   9.562   4.957   9.618 -0.7782 -0.0431  0.0785
  958MOL0    Cl29239   9.598   5.063   9.477 -0.4339 -0.4749  0.2478
  958MOL0     C29240   8.715   5.236  10.179  0.4294  0.7404  0.0431
  958MOL0     C29241   8.579   5.275  10.202 -0.1643 -0.8359  0.0497
  958MOL0     O29242   8.437   5.643  10.268 -0.6235 -0.3749 -0.1673
  958MOL0     C29243   8.134   5.479  10.329  0.1956  0.3506  0.1504
  958MOL0     C29244   8.000   5.505  10.340  0.3540 -0.0721 -0.2485
  958MOL0     N29245   7.271   5.435  10.208  0.2632  0.1908 -0.5097
  958MOL0     N29246   7.140   5.435  10.206  0.2234 -0.1661  0.0409
  958MOL0     C29247   6.094   5.050  10.300 -0.5717 -0.3535 -0.0798
  958MOL0     C29248   5.971   5.082  10.257  1.5013  0.0947  0.3327
  958MOL0     C29249   5.637   5.159   9.973 -0.1578  0.7520  0.6021
  958MOL0     C29250   5.607   5.142   9.832 -0.7164 -1.0096 -0.2273
  958MOL0     C29251   5.488   5.175   9.775  0.3044 -0.3931 -0.4702
  958MOL0     C29252   5.386   5.229   9.856 -0.1589  0.4082 -1.1949
  958MOL0     O29253   5.263   5.265   9.796  0.0653 -0.0694 -0.2250
  958MOL0     C29254   5.132   5.240   9.856  0.7207  0.0638  0.4548
  958MOL0     C29255   5.019   5.290   9.768 -0.0751 -0.5263 -0.1424
  958MOL0     C29256   5.033   5.249   9.620  0.7279  0.6849 -0.7893
  958MOL0     C29257   4.918   5.282   9.526  0.9765 -0.5343  0.6146
  958MOL0     C29258   4.788   5.221   9.567  0.4017  0.6578 -0.1387
  958MOL0     C29259   4.692   5.159   9.618 -0.2099 -0.9010 -0.0982
  958MOL0     C29260   5.408   5.247   9.999 -0.4293 -0.4921  0.2968
  958MOL0     C29261   5.538   5.222  10.050  0.5519 -0.1235 -0.6251
  958MOL0     C29262   5.571   5.249  10.192  0.4493  0.2656 -0.6975
  958MOL0     H29263   5.851   4.783  10.153 -0.3425  0.5019  0.3395
  958MOL0     H29264   6.065   4.708  10.235 -0.1508 -0.1123 -0.9270
  958MOL0     H29265   6.372   5.035  10.363 -4.2385  1.9416  0.6067
  958MOL0     H29266   6.288   4.976  10.514  0.5308 -0.8479  0.5501
  958MOL0     H29267   6.515   4.862  10.375 -0.4809 -0.0103 -0.0675
  958MOL0     H29268   6.411   4.770  10.492 -3.1681  2.1954  1.1296
  958MOL0     H29269   6.604   4.848  10.607  0.7734  0.1513 -0.9359
  958MOL0     H29270   6.457   4.916  10.667 -1.7526  1.5838 -2.4852
  958MOL0     H29271   6.524   5.136  10.533  1.0886 -1.3217 -6.2809
  958MOL0     H29272   6.626   5.090  10.677  4.0966 -1.6646 -0.3367
  958MOL0     H29273   6.804   5.018  10.550  0.1006  1.7232  1.2493
  958MOL0     H29274   6.709   4.985  10.406  3.8404 -0.8574  0.5670
  958MOL0     H29275   6.703   5.219  10.351  0.6777  0.9677  0.4944
  958MOL0     H29276   6.736   5.266  10.525 -1.8595 -0.0762 -0.6417
  958MOL0     H29277   6.919   5.123  10.320 -1.8095 -0.7633  1.5345
  958MOL0     H29278   6.979   5.197  10.471  2.0919  2.4021 -1.9552
  958MOL0     H29279   6.881   5.348  10.231 -2.2938  1.1559  1.1160
  958MOL0     H29280   6.896   5.427  10.384 -0.1487 -0.7853 -0.4135
  958MOL0     H29281   7.180   5.275  10.487 -1.4943  1.5914  1.2134
  958MOL0     H29282   7.458   5.291  10.442  3.0100 -1.9709 -1.6855
  958MOL0     H29283   7.507   5.345  10.289 -0.5004 -0.6745  0.8541
  958MOL0     H29284   7.377   5.563  10.469  1.6262  3.3047  1.4183
  958MOL0     H29285   7.508   5.476  10.542  1.8696 -0.5605 -0.6989
  958MOL0     H29286   7.567   5.700  10.429 -0.1690  0.5092 -1.1431
  958MOL0     H29287   7.538   5.621  10.277 -1.6550  0.1364  1.3443
  958MOL0     H29288   7.708   5.458  10.301 -0.0808  0.0135  0.0220
  958MOL0     H29289   7.758   5.521  10.471 -1.2129 -2.5402  0.3909
  958MOL0     H29290   7.975   5.818  10.235  0.7407  0.2801  2.1376
  958MOL0     H29291   8.220   5.784  10.213  0.1303 -0.9238  0.4306
  958MOL0     H29292   8.578   5.573  10.039 -2.3079 -0.7372  1.6672
  958MOL0     H29293   8.786   5.499   9.973 -0.1481  0.3446  0.8664
  958MOL0     H29294   9.013   5.354   9.891  0.5198 -1.9698 -0.0557
  958MOL0     H29295   8.988   5.464  10.030  0.9148  0.4796 -0.0446
  958MOL0     H29296   9.204   5.432  10.031  0.9207  0.8743  2.4687
  958MOL0     H29297   9.160   5.330  10.161 -1.4983 -0.0547 -0.1727
  958MOL0     H29298   9.334   5.219  10.035  0.8343 -0.5455 -3.2090
  958MOL0     H29299   9.189   5.133  10.036 -0.0438  1.2851  1.3267
  958MOL0     H29300   9.302   5.296   9.800  2.1225 -0.4274 -0.3507
  958MOL0     H29301   9.149   5.203   9.791  0.0502 -2.8521 -0.6620
  958MOL0     H29302   9.301   5.003   9.870 -0.5685  1.8318  1.1223
  958MOL0     H29303   9.435   5.099   9.822  0.2059 -2.7364 -1.1099
  958MOL0     H29304   9.218   4.996   9.643 -0.2024  0.4314 -1.9533
  958MOL0     H29305   9.341   5.114   9.589  1.0603 -1.1592 -0.7284
  958MOL0     H29306   9.396   4.894   9.522 -0.5600 -0.3656 -0.0048
  958MOL0     H29307   9.395   4.830   9.682  1.0995  0.5634 -0.0673
  958MOL0     H29308   9.577   5.015   9.709 -0.6287  0.8671 -0.5213
  958MOL0     H29309   9.630   4.871   9.610 -0.0921  0.5392 -0.4503
  958MOL0     H29310   8.744   5.141  10.221 -0.4737  0.3144 -0.2786
  958MOL0     H29311   8.519   5.213  10.267  0.4470 -1.0695  0.4048
  958MOL0     H29312   8.179   5.385  10.356  1.3688  1.1991  1.2631
  958MOL0     H29313   7.948   5.413  10.362  1.0856 -0.6419 -0.8499
  958MOL0     H29314   6.148   5.136  10.338 -1.7792  1.5067 -2.3816
  958MOL0     H29315   5.930   5.180  10.280 -2.1284 -0.6954 -1.9971
  958MOL0     H29316   5.684   5.102   9.767 -0.4509  1.4136 -1.5544
  958MOL0     H29317   5.475   5.170   9.667  0.9245 -4.1058 -0.5028
  958MOL0     H29318   5.128   5.297   9.950  2.3190  3.3152 -1.2646
  958MOL0     H29319   5.108   5.137   9.882  2.8471 -1.3011 -2.4666
  958MOL0     H29320   5.037   5.398   9.771  2.2466 -0.9006  1.1041
  958MOL0     H29321   4.923   5.251   9.802 -0.1765  0.4335  0.7526
  958MOL0     H29322   5.043   5.140   9.620  2.1386  0.7285 -3.6008
  958MOL0     H29323   5.127   5.284   9.577  3.2924 -1.6305  2.4461
  958MOL0     H29324   4.908   5.388   9.502 -0.8560 -0.5973  0.9531
  958MOL0     H29325   4.937   5.247   9.424  0.4876 -1.3752  0.8027
  958MOL0     H29326   4.616   5.108   9.673  1.1107 -1.4550  1.2831
  958MOL0     H29327   5.331   5.295  10.060  0.3995  0.1462  0.8709
  958MOL0     H29328   5.537   5.164  10.252  0.1996 -0.4003 -1.7540
  958MOL0     H29329   5.677   5.265  10.212  0.7971 -1.8983 -0.5574
  958MOL0     H29330   5.519   5.341  10.220  0.0862  0.0807 -0.7481
  959MOL0     O29331   6.587   9.399   5.326 -0.5404  0.4539 -0.0198
  959MOL0     C29332   6.661   9.402   5.427  0.3274  0.2250 -0.0794
  959MOL0     O29333   6.781   9.349   5.442 -0.8049 -0.1592  0.6679
  959MOL0     C29334   6.864   9.304   5.339  0.2123 -0.9320  0.0204
  959MOL0     C29335   6.840   9.314   5.204 -1.0663  0.2203  0.2873
  959MOL0     C29336   6.928   9.256   5.115  0.7953  0.1573 -0.3014
  959MOL0     C29337   7.058   9.209   5.152 -0.6390 -0.2497  0.8266
  959MOL0     O29338   7.154   9.162   5.068  0.4090 -0.2658  0.8090
  959MOL0     C29339   7.291   9.213   5.075  0.3938  0.3153 -0.6892
  959MOL0     C29340   7.368   9.170   4.954  0.0603  1.0516  0.2446
  959MOL0     C29341   7.398   9.022   4.959 -0.7821 -0.1772 -0.2738
  959MOL0     C29342   7.484   8.969   4.838  0.0793  0.2329 -0.2294
  959MOL0     C29343   7.503   8.812   4.865  0.2966 -0.9646  0.0281
  959MOL0     C29344   7.575   8.735   4.754  0.2352  0.1318  0.2868
  959MOL0     C29345   7.725   8.768   4.732 -0.3151 -0.3826  0.0108
  959MOL0     C29346   7.764   8.701   4.599  0.7987  0.3531  0.2773
  959MOL0     N29347   7.908   8.691   4.589 -0.2299 -0.3972  0.2438
  959MOL0     C29348   7.984   8.604   4.661 -0.1247  0.2920  0.2945
  959MOL0     C29349   8.108   8.611   4.607  0.7423 -0.2983 -0.6205
  959MOL0     C29350   8.227   8.522   4.626  0.2429 -0.5078  0.3015
  959MOL0     C29351   8.356   8.578   4.559  0.6003 -0.2594 -0.0373
  959MOL0     C29352   8.480   8.501   4.609  0.5137  0.0781  0.2626
  959MOL0     C29353   8.601   8.588   4.555  0.9277  0.3105  0.2459
  959MOL0     O29354   8.724   8.519   4.584 -0.0584  0.3485 -0.1174
  959MOL0     C29355   8.832   8.565   4.512 -0.7759 -0.2221 -0.2136
  959MOL0     C29356   8.955   8.515   4.563 -0.6363 -0.1760 -0.0492
  959MOL0     C29357   9.080   8.559   4.511 -0.4346 -0.1461 -0.8338
  959MOL0     C29358   9.094   8.663   4.416 -0.0356 -0.5772 -0.9171
  959MOL0     C29359   9.219   8.705   4.351  0.3386  0.3911 -1.2541
  959MOL0     O29360   9.212   8.771   4.240 -0.3425  0.0566  0.4104
  959MOL0     C29361   9.327   8.825   4.202 -0.6575 -0.3142 -0.4193
  959MOL0     C29362   9.405   8.759   4.105 -0.6367 -0.5005  0.0599
  959MOL0     C29363   9.529   8.816   4.075 -0.1020  0.4769 -0.2201
  959MOL0     C29364   9.575   8.941   4.125  0.1908  0.3145  0.8242
  959MOL0     O29365   9.697   9.001   4.103  0.3394 -0.0251 -0.4430
  959MOL0     C29366   9.777   8.940   3.997 -0.0413  0.3936 -0.0049
  959MOL0     C29367   9.905   9.015   3.965 -0.0550 -0.8009  0.1631
  959MOL0     C29368  10.001   8.948   3.872  0.4093  0.1497  0.8313
  959MOL0     C29369  10.095   8.851   3.941 -0.7050 -0.5353 -0.2077
  959MOL0     C29370  10.176   8.760   3.842  0.3945 -0.0749 -0.8238
  959MOL0     C29371  10.291   8.708   3.920  0.5376 -0.0546 -0.5015
  959MOL0     C29372  10.387   8.639   3.829 -0.5307 -0.9158 -0.3334
  959MOL0     C29373  10.476   8.545   3.921  0.6572 -0.4891 -0.8042
  959MOL0    Cl29374  10.601   8.619   4.023  0.4355 -0.3364 -0.2102
  959MOL0     C29375   9.496   9.017   4.215 -0.6803 -0.5594 -0.1148
  959MOL0     C29376   9.371   8.951   4.261 -0.0744 -0.7096 -0.3924
  959MOL0     O29377   9.315   8.693   4.424  0.1551 -0.4885  0.4118
  959MOL0     C29378   8.965   8.702   4.364 -0.2472 -0.0670  0.1406
  959MOL0     C29379   8.839   8.649   4.403  0.5523  0.0244  0.9103
  959MOL0     N29380   8.107   8.717   4.526 -0.1169  0.2362 -0.2302
  959MOL0     N29381   7.988   8.762   4.509 -0.3381 -0.2211  0.6048
  959MOL0     C29382   7.086   9.222   5.281  0.4625  0.0791 -0.1596
  959MOL0     C29383   6.992   9.268   5.377 -0.1337 -0.5344  0.5579
  959MOL0     C29384   6.600   9.479   5.534  0.0627  0.8608  0.2429
  959MOL0     C29385   6.635   9.440   5.665 -0.0076 -0.3507  0.9075
  959MOL0     C29386   6.592   9.521   5.773 -0.1157 -0.0960 -0.2528
  959MOL0     C29387   6.504   9.634   5.748 -0.6419  0.5788  0.4775
  959MOL0     O29388   6.462   9.701   5.856  0.1552 -0.1744 -0.2667
  959MOL0     C29389   6.325   9.659   5.887 -0.6916  0.2658 -0.2988
  959MOL0     C29390   6.309   9.729   6.024  0.1602 -0.3431  0.9954
  959MOL0     C29391   6.177   9.698   6.096 -0.8183 -0.1823 -0.2465
  959MOL0     C29392   6.166   9.772   6.236  0.7317 -1.3021 -0.2771
  959MOL0     C29393   6.145   9.921   6.224  0.1574 -0.6920  0.1095
  959MOL0     C29394   6.126  10.042   6.223  0.2372 -0.5702 -0.4757
  959MOL0     C29395   6.474   9.666   5.621 -0.1030 -0.9452 -0.2843
  959MOL0     C29396   6.511   9.591   5.513 -0.1645 -0.3811  1.3648
  959MOL0     C29397   6.466   9.630   5.366 -0.0463  0.3577 -0.5402
  959MOL0     H29398   6.752   9.354   5.155  0.7956  0.2556 -3.3422
  959MOL0     H29399   6.900   9.255   5.010  0.8577  0.8924 -0.3277
  959MOL0     H29400   7.286   9.320   5.093 -1.7968  0.1595 -0.1275
  959MOL0     H29401   7.346   9.163   5.156  1.3936  1.8555 -0.3823
  959MOL0     H29402   7.463   9.224   4.963  0.1204  0.9991 -0.0774
  959MOL0     H29403   7.321   9.202   4.860  1.1745 -0.6269 -0.9212
  959MOL0     H29404   7.304   8.966   4.959 -1.5520  1.0549  0.4760
  959MOL0     H29405   7.450   8.997   5.051  0.4486 -1.7945 -1.3398
  959MOL0     H29406   7.440   8.985   4.739 -0.3590  0.9190  0.0679
  959MOL0     H29407   7.581   9.019   4.843 -0.7905  2.0101 -0.2084
  959MOL0     H29408   7.543   8.798   4.965  0.2711 -0.4059  0.1220
  959MOL0     H29409   7.400   8.776   4.869 -2.0904  4.7995  1.0368
  959MOL0     H29410   7.583   8.630   4.784  5.0337 -0.0889 -0.8891
  959MOL0     H29411   7.522   8.751   4.660  2.0851  0.8790 -0.6791
  959MOL0     H29412   7.792   8.729   4.809  0.6306 -0.5728 -0.8872
  959MOL0     H29413   7.746   8.875   4.719 -0.7824 -0.6349 -4.2599
  959MOL0     H29414   7.721   8.601   4.592  0.2373  0.7199 -2.2270
  959MOL0     H29415   7.710   8.752   4.519  0.2858 -0.1278  0.3114
  959MOL0     H29416   7.962   8.539   4.745 -0.4781  0.4071  0.2953
  959MOL0     H29417   8.243   8.511   4.734  1.6921  1.3095  0.3299
  959MOL0     H29418   8.205   8.425   4.582  0.5285 -0.1954 -0.5486
  959MOL0     H29419   8.357   8.563   4.450 -0.6365  0.8227 -0.2248
  959MOL0     H29420   8.360   8.686   4.575  0.7805  0.0617 -1.9357
  959MOL0     H29421   8.482   8.406   4.555  2.8066  0.3269 -0.2047
  959MOL0     H29422   8.480   8.483   4.717 -0.3372 -0.5617  0.1656
  959MOL0     H29423   8.599   8.686   4.603 -4.6338  0.7114 -0.0711
  959MOL0     H29424   8.577   8.601   4.449 -2.1882  0.0273  0.8176
  959MOL0     H29425   8.949   8.449   4.649  1.6101 -0.9194 -0.3859
  959MOL0     H29426   9.163   8.500   4.547 -0.1816 -0.7913 -2.3898
  959MOL0     H29427   9.387   8.658   4.068 -0.9742 -1.3512  2.3693
  959MOL0     H29428   9.587   8.770   3.995  0.1418 -0.7757  0.6592
  959MOL0     H29429   9.808   8.839   4.028 -2.4264 -0.9853 -1.7980
  959MOL0     H29430   9.710   8.917   3.914  0.1101  1.8960 -0.5658
  959MOL0     H29431   9.880   9.113   3.924 -2.2403 -1.5495 -0.3908
  959MOL0     H29432   9.951   9.034   4.062 -4.3961  0.5615  2.1737
  959MOL0     H29433   9.938   8.909   3.792 -0.2467 -2.3226  2.4244
  959MOL0     H29434  10.061   9.023   3.819 -0.8635  0.8734  0.3760
  959MOL0     H29435  10.034   8.810   4.022 -1.5994  1.4879  0.1840
  959MOL0     H29436  10.174   8.912   3.986  0.4840  0.1487 -2.9904
  959MOL0     H29437  10.205   8.823   3.758  0.9406  0.2564 -0.3891
  959MOL0     H29438  10.109   8.684   3.801  2.7970 -2.3349 -0.7853
  959MOL0     H29439  10.342   8.787   3.974 -1.3464  0.9206 -0.0463
  959MOL0     H29440  10.261   8.643   4.003  0.5222  1.8974  1.0948
  959MOL0     H29441  10.445   8.711   3.770 -0.8342 -0.6284 -0.2774
  959MOL0     H29442  10.327   8.576   3.763 -1.4298 -1.0419  0.5833
  959MOL0     H29443  10.415   8.481   3.987  1.9528 -1.2755 -0.3354
  959MOL0     H29444  10.541   8.485   3.857  2.7387 -0.9867  1.5911
  959MOL0     H29445   9.529   9.113   4.252  0.6625  0.0694 -2.7168
  959MOL0     H29446   9.317   9.002   4.340  1.6949 -0.2246  0.5628
  959MOL0     H29447   8.961   8.755   4.269  0.2346 -2.0594 -1.0467
  959MOL0     H29448   8.756   8.668   4.337  1.4424 -0.3130 -0.3505
  959MOL0     H29449   7.185   9.202   5.322  0.0762  0.4841  1.0222
  959MOL0     H29450   7.021   9.266   5.482 -0.3707  2.2492  0.7364
  959MOL0     H29451   6.691   9.349   5.685 -0.9853 -1.1992 -0.0437
  959MOL0     H29452   6.604   9.487   5.875  2.0333  0.4289 -0.2719
  959MOL0     H29453   6.312   9.554   5.915 -2.8440  0.7232  0.6397
  959MOL0     H29454   6.255   9.686   5.807 -0.0899 -2.4835 -1.8413
  959MOL0     H29455   6.313   9.834   5.995 -0.9695 -0.8342 -1.0967
  959MOL0     H29456   6.393   9.711   6.093 -0.0472 -0.6851  1.1615
  959MOL0     H29457   6.179   9.588   6.104  1.1611 -0.1291  0.5536
  959MOL0     H29458   6.092   9.737   6.039 -0.9892  0.7155  0.6068
  959MOL0     H29459   6.083   9.726   6.290 -0.3297 -0.6651 -1.3192
  959MOL0     H29460   6.260   9.748   6.287 -0.9866 -2.5929  2.5782
  959MOL0     H29461   6.117  10.147   6.205  2.7309  0.2679  2.3952
  959MOL0     H29462   6.418   9.758   5.612  2.0509  0.4105 -0.5678
  959MOL0     H29463   6.406   9.556   5.312 -1.8319  0.2558  1.4472
  959MOL0     H29464   6.410   9.723   5.378  0.3934  0.7187 -1.2259
  959MOL0     H29465   6.546   9.646   5.293  1.3757  0.8025  1.0640
  960MOL0     O29466   5.056   6.698   7.284  0.4077 -0.0078  0.1305
  960MOL0     C29467   5.068   6.572   7.297  0.5660 -1.1380 -0.4437
  960MOL0     O29468   5.173   6.504   7.260 -0.5165  0.2670  0.4554
  960MOL0     C29469   5.280   6.564   7.192  0.0696 -0.4836  0.1863
  960MOL0     C29470   5.355   6.672   7.239 -0.1128 -1.3885 -0.0341
  960MOL0     C29471   5.459   6.734   7.162  0.6426 -0.2825  0.3178
  960MOL0     C29472   5.497   6.675   7.040 -0.3254 -1.3162 -0.3546
  960MOL0     O29473   5.593   6.742   6.957  1.6450 -0.4671  0.0811
  960MOL0     C29474   5.676   6.844   7.006 -0.2048 -0.6335  0.0229
  960MOL0     C29475   5.760   6.914   6.893  0.4186  0.3178  0.2938
  960MOL0     C29476   5.887   6.824   6.883 -1.1962  0.5808  0.4803
  960MOL0     C29477   5.983   6.888   6.784  0.3008  0.1949  0.3099
  960MOL0     C29478   5.940   6.852   6.648 -0.5310 -0.2111 -0.0703
  960MOL0     C29479   5.974   6.705   6.600 -0.2487  0.1480  0.3578
  960MOL0     C29480   5.928   6.692   6.452 -0.5265  0.2563  0.5126
  960MOL0     C29481   5.972   6.552   6.399 -0.7511  0.6658  0.3639
  960MOL0     N29482   5.953   6.546   6.251 -0.0194 -0.8500 -0.0293
  960MOL0     C29483   5.829   6.531   6.202 -0.3302 -0.5356 -0.3351
  960MOL0     C29484   5.837   6.467   6.087 -0.4866 -0.0177 -0.6088
  960MOL0     C29485   5.709   6.421   6.008  0.9251 -0.5900  0.1987
  960MOL0     C29486   5.640   6.544   5.933 -0.6216 -0.0419  0.2264
  960MOL0     C29487   5.581   6.499   5.797  0.0674  0.1664 -0.3729
  960MOL0     C29488   5.455   6.571   5.740 -0.1540  0.4399  0.0677
  960MOL0     O29489   5.380   6.490   5.650  0.5365  0.4925  0.3451
  960MOL0     C29490   5.464   6.429   5.559  0.1864 -0.1254 -0.0859
  960MOL0     C29491   5.556   6.503   5.485 -0.6797  0.1765  0.3433
  960MOL0     C29492   5.632   6.430   5.394  0.1303 -0.5420  0.1730
  960MOL0     C29493   5.626   6.287   5.381 -0.1997 -0.0686  0.0972
  960MOL0     C29494   5.709   6.216   5.290  0.1805 -0.2579  0.1525
  960MOL0     O29495   5.797   6.291   5.218  1.0130 -0.6730 -0.1661
  960MOL0     C29496   5.874   6.234   5.130  0.0214 -0.5277  0.3363
  960MOL0     C29497   5.840   6.228   4.993 -0.5472 -0.9184 -0.1229
  960MOL0     C29498   5.935   6.185   4.904 -0.3867  0.6613  0.6458
  960MOL0     C29499   6.061   6.130   4.948 -0.2881  0.9834  0.5341
  960MOL0     O29500   6.149   6.052   4.871 -0.5038 -0.1319 -0.0225
  960MOL0     C29501   6.093   5.986   4.759 -0.9677  0.5000  0.1319
  960MOL0     C29502   6.206   5.926   4.681  0.0834  0.1242 -1.0101
  960MOL0     C29503   6.260   5.790   4.744  0.3231  0.3651  0.5681
  960MOL0     C29504   6.394   5.755   4.672 -0.1175  0.9389 -0.4425
  960MOL0     C29505   6.454   5.614   4.716 -0.1828  0.1390 -0.5484
  960MOL0     C29506   6.593   5.594   4.652  0.2973 -0.2672  0.4404
  960MOL0     C29507   6.662   5.462   4.687  0.2518  0.0657  0.3227
  960MOL0     C29508   6.816   5.468   4.644 -0.0365 -0.9671  0.2958
  960MOL0    Cl29509   6.818   5.424   4.466 -0.3246  0.0022  0.0782
  960MOL0     C29510   6.095   6.136   5.078  0.6340  0.5398  0.5206
  960MOL0     C29511   6.005   6.189   5.169 -0.1621 -0.0436 -0.0741
  960MOL0     O29512   5.699   6.099   5.281  0.3535  0.3824  0.9353
  960MOL0     C29513   5.523   6.215   5.448 -0.9494 -0.4367  0.8022
  960MOL0     C29514   5.452   6.290   5.550  0.1318 -0.0839  0.8157
  960MOL0     N29515   5.972   6.440   6.069 -0.1724  0.5141  0.5675
  960MOL0     N29516   6.042   6.493   6.164  0.4949  0.6772 -0.5091
  960MOL0     C29517   5.429   6.561   6.997 -0.0237 -0.1171 -0.3816
  960MOL0     C29518   5.328   6.505   7.072  1.3537  0.2796 -0.2768
  960MOL0     C29519   4.943   6.509   7.346  0.1977 -0.8774  0.3183
  960MOL0     C29520   4.832   6.602   7.374 -0.6311  0.5663 -0.7512
  960MOL0     C29521   4.699   6.558   7.403 -0.1111  0.1701 -0.1528
  960MOL0     C29522   4.672   6.416   7.403 -0.4822  0.2029 -0.5269
  960MOL0     O29523   4.552   6.355   7.441 -1.2588 -0.3205  0.4833
  960MOL0     C29524   4.459   6.425   7.525 -0.1001  0.6193 -0.0434
  960MOL0     C29525   4.497   6.413   7.677  0.2659  0.0070 -0.0253
  960MOL0     C29526   4.494   6.272   7.741  0.4583  0.0646  0.2537
  960MOL0     C29527   4.352   6.213   7.735 -0.1868  0.4179  0.2800
  960MOL0     C29528   4.246   6.295   7.791 -0.4223 -0.2040  0.6551
  960MOL0     C29529   4.158   6.363   7.845 -0.7335  0.3005  0.1407
  960MOL0     C29530   4.772   6.327   7.363  0.4799 -0.2502 -1.0027
  960MOL0     C29531   4.902   6.368   7.327 -0.2664 -0.4815  0.3012
  960MOL0     C29532   4.979   6.256   7.258  0.4623  0.4718 -0.7291
  960MOL0     H29533   5.321   6.715   7.332  1.0304  2.4692 -1.2485
  960MOL0     H29534   5.510   6.825   7.192  0.7181 -0.4677  0.7613
  960MOL0     H29535   5.615   6.927   7.041  1.1781  0.3703  0.1210
  960MOL0     H29536   5.748   6.807   7.080  1.7267 -0.0159 -1.4455
  960MOL0     H29537   5.773   7.016   6.931 -0.5797  0.3547  0.5561
  960MOL0     H29538   5.712   6.923   6.795 -1.1995 -0.9081  0.9218
  960MOL0     H29539   5.858   6.722   6.858 -0.0686  0.2604  0.4521
  960MOL0     H29540   5.947   6.820   6.974 -0.6015 -1.2924  0.0463
  960MOL0     H29541   5.970   6.996   6.794  0.9031  0.2722  0.2785
  960MOL0     H29542   6.085   6.853   6.800  0.5376  2.0204  3.8776
  960MOL0     H29543   5.833   6.862   6.624 -0.2598 -0.4314 -1.4798
  960MOL0     H29544   5.994   6.921   6.582  1.8764 -1.1839  0.7641
  960MOL0     H29545   6.082   6.689   6.609 -0.3085  0.5494  2.1161
  960MOL0     H29546   5.915   6.631   6.656 -4.7104  3.6824  0.9090
  960MOL0     H29547   5.975   6.776   6.398  0.9052  1.2812  3.1614
  960MOL0     H29548   5.822   6.715   6.438 -1.0965 -2.6168 -0.5846
  960MOL0     H29549   6.080   6.535   6.403 -0.6176  0.0192 -3.0911
  960MOL0     H29550   5.918   6.473   6.451 -1.7535  2.6571  2.5212
  960MOL0     H29551   5.735   6.554   6.251  1.2669 -0.4682  2.9208
  960MOL0     H29552   5.741   6.352   5.929  0.4269 -0.8881  0.2559
  960MOL0     H29553   5.634   6.370   6.069  1.6998 -1.5351  0.3785
  960MOL0     H29554   5.563   6.596   5.991 -1.7481 -1.5276  0.1262
  960MOL0     H29555   5.723   6.615   5.919 -1.0114  0.4398  0.3271
  960MOL0     H29556   5.548   6.395   5.807  1.4088 -0.5208 -2.5242
  960MOL0     H29557   5.660   6.509   5.722  2.4326  0.9390  2.0768
  960MOL0     H29558   5.473   6.674   5.707  1.6791  0.6328  1.4909
  960MOL0     H29559   5.391   6.593   5.826  0.6957 -0.7829  1.0584
  960MOL0     H29560   5.568   6.610   5.502 -0.7085 -0.1173  2.4690
  960MOL0     H29561   5.719   6.480   5.352 -1.1954  2.1004  0.3843
  960MOL0     H29562   5.738   6.254   4.967 -1.1220 -2.7292  0.1728
  960MOL0     H29563   5.894   6.171   4.804 -1.7490 -1.1563  1.4022
  960MOL0     H29564   6.028   5.905   4.793  1.4135 -1.0907  1.1179
  960MOL0     H29565   6.038   6.054   4.693 -0.0537 -0.0108 -1.2002
  960MOL0     H29566   6.172   5.902   4.580 -0.6630  0.8164 -0.9364
  960MOL0     H29567   6.288   5.996   4.663  0.6421  0.4571  2.2661
  960MOL0     H29568   6.269   5.810   4.851 -0.2284  1.5243  0.4072
  960MOL0     H29569   6.194   5.704   4.728 -2.3426  2.6275 -1.7127
  960MOL0     H29570   6.473   5.829   4.690  1.4572 -0.8424  0.2283
  960MOL0     H29571   6.372   5.746   4.565  0.2590  0.4436 -0.4805
  960MOL0     H29572   6.379   5.538   4.692  1.7269 -2.0030 -0.1284
  960MOL0     H29573   6.457   5.603   4.825  0.9085 -2.6776 -0.7799
  960MOL0     H29574   6.578   5.589   4.544 -2.9362 -1.3762  0.8179
  960MOL0     H29575   6.662   5.671   4.688  0.6959 -0.3074 -0.2302
  960MOL0     H29576   6.620   5.370   4.644  2.5317 -1.2326  0.7646
  960MOL0     H29577   6.666   5.446   4.795 -1.5642  1.9284  0.7274
  960MOL0     H29578   6.860   5.568   4.657  2.6776 -2.0440  0.1951
  960MOL0     H29579   6.889   5.406   4.697  1.5210  0.4659 -0.0628
  960MOL0     H29580   6.195   6.099   5.096  0.4277 -0.5940 -0.4835
  960MOL0     H29581   6.023   6.183   5.276  0.8521  1.2331 -0.1364
  960MOL0     H29582   5.518   6.107   5.444 -0.1395 -0.4549 -0.6623
  960MOL0     H29583   5.374   6.249   5.613 -1.4210 -1.2710 -1.7231
  960MOL0     H29584   5.460   6.520   6.901 -0.3518  1.3308 -1.1374
  960MOL0     H29585   5.282   6.410   7.046  2.4690 -0.8170  1.5336
  960MOL0     H29586   4.849   6.708   7.390  1.6445  0.3525 -1.3226
  960MOL0     H29587   4.619   6.629   7.419 -1.9847 -1.0366 -3.1741
  960MOL0     H29588   4.362   6.379   7.505  0.3827 -0.6753  0.5150
  960MOL0     H29589   4.452   6.531   7.499  0.8051 -0.0769 -3.7259
  960MOL0     H29590   4.425   6.473   7.734 -1.0119 -3.0979  1.9270
  960MOL0     H29591   4.596   6.458   7.687  0.1858  0.5007 -1.2561
  960MOL0     H29592   4.535   6.286   7.841 -1.9700 -4.2426  2.0900
  960MOL0     H29593   4.564   6.206   7.689  1.3638  0.7648  0.5489
  960MOL0     H29594   4.329   6.186   7.631  1.3911  0.0439  0.0077
  960MOL0     H29595   4.364   6.119   7.790 -0.0368 -2.0417 -3.5812
  960MOL0     H29596   4.101   6.446   7.881 -2.4220  0.7382 -3.1849
  960MOL0     H29597   4.741   6.223   7.360  0.0574 -0.3436  2.7790
  960MOL0     H29598   4.923   6.211   7.175 -2.7665  3.5781 -0.4896
  960MOL0     H29599   5.078   6.279   7.218  0.3321  1.2661 -0.6195
  960MOL0     H29600   4.998   6.188   7.341  1.2850  0.0796 -1.2246
  961MOL0     O29601   3.151   7.967   4.054  0.0421  0.3422  0.7522
  961MOL0     C29602   3.082   8.047   4.111  0.3025  0.2720 -0.7219
  961MOL0     O29603   3.123   8.176   4.145  0.1366 -0.8133  0.8879
  961MOL0     C29604   3.250   8.233   4.145  0.6487  0.8000 -0.0764
  961MOL0     C29605   3.309   8.240   4.274 -0.5748  0.6571 -0.5140
  961MOL0     C29606   3.444   8.277   4.287 -0.2564 -0.5078  0.0333
  961MOL0     C29607   3.521   8.304   4.174 -0.1003 -0.2476  0.5446
  961MOL0     O29608   3.654   8.334   4.192 -0.6185  0.3534 -0.3059
  961MOL0     C29609   3.744   8.323   4.089  0.0919  0.2409  0.5422
  961MOL0     C29610   3.877   8.310   4.154  0.2846  0.1146  0.2632
  961MOL0     C29611   3.916   8.436   4.242  0.2446  0.0767  0.7341
  961MOL0     C29612   4.074   8.441   4.265  0.2047  0.5202 -0.4124
  961MOL0     C29613   4.112   8.545   4.375  0.2353  0.0012 -0.0371
  961MOL0     C29614   4.255   8.526   4.410  0.5070  0.1980 -0.3065
  961MOL0     C29615   4.352   8.563   4.294 -0.4507 -0.2884 -0.2274
  961MOL0     C29616   4.374   8.722   4.270  0.1686  0.3453  0.7802
  961MOL0     N29617   4.455   8.777   4.377 -0.2458  0.5136  0.6579
  961MOL0     C29618   4.585   8.756   4.409 -0.4844  0.2129  0.3048
  961MOL0     C29619   4.606   8.816   4.527 -0.8708  0.3171  0.3928
  961MOL0     C29620   4.735   8.830   4.606  0.5830  0.0641 -0.7867
  961MOL0     C29621   4.866   8.812   4.549 -0.2727 -0.0753  0.7871
  961MOL0     C29622   4.988   8.880   4.621  0.3181  0.3276  0.5914
  961MOL0     C29623   5.117   8.844   4.555  0.4819  0.5243  0.5149
  961MOL0     O29624   5.235   8.870   4.633 -0.3796  0.3378  0.5344
  961MOL0     C29625   5.359   8.858   4.581 -0.0933  0.8765  0.7767
  961MOL0     C29626   5.460   8.898   4.663 -1.2358  0.4342 -0.0013
  961MOL0     C29627   5.596   8.899   4.619 -0.5859  0.2412  0.1362
  961MOL0     C29628   5.625   8.852   4.488  0.2981  0.2460  0.2956
  961MOL0     C29629   5.766   8.859   4.443 -0.0716  0.8432 -0.3260
  961MOL0     O29630   5.846   8.949   4.502  0.4169  0.8617 -0.3896
  961MOL0     C29631   5.974   8.966   4.462 -0.6613 -0.5947 -0.5728
  961MOL0     C29632   6.058   8.859   4.436 -0.0841 -0.4889 -0.4403
  961MOL0     C29633   6.194   8.880   4.397  0.1225 -0.2546  0.7963
  961MOL0     C29634   6.246   9.010   4.390  0.2528 -0.7251  0.2490
  961MOL0     O29635   6.381   9.021   4.352 -0.4752 -0.4083  0.1972
  961MOL0     C29636   6.413   9.147   4.305 -0.3704  0.3266 -0.1738
  961MOL0     C29637   6.549   9.129   4.240 -0.2384 -0.2918  0.1995
  961MOL0     C29638   6.618   9.258   4.191  1.1291 -0.4209  0.0682
  961MOL0     C29639   6.777   9.243   4.188 -0.1715 -0.5562  0.1462
  961MOL0     C29640   6.839   9.379   4.162 -0.2586 -0.5469 -0.7499
  961MOL0     C29641   6.787   9.454   4.035 -0.8379  0.0825  0.3116
  961MOL0     C29642   6.881   9.559   3.989 -0.5900  0.2029  0.0154
  961MOL0     C29643   6.810   9.683   3.925 -0.4024  0.4811 -1.1479
  961MOL0    Cl29644   6.712   9.632   3.781 -0.2025 -0.3289  0.0374
  961MOL0     C29645   6.161   9.122   4.410 -0.4697 -0.7411  0.3520
  961MOL0     C29646   6.030   9.096   4.449  0.5920 -0.5064  0.1245
  961MOL0     O29647   5.792   8.786   4.346 -0.7389 -0.7961  0.4423
  961MOL0     C29648   5.520   8.798   4.406  0.0911  0.5658  0.0060
  961MOL0     C29649   5.393   8.813   4.454 -0.0125  0.0695 -0.1877
  961MOL0     N29650   4.478   8.857   4.570  0.5732 -0.3824  0.2847
  961MOL0     N29651   4.399   8.848   4.472  0.2691 -0.5015 -0.5763
  961MOL0     C29652   3.465   8.291   4.045 -0.8864 -0.1478 -0.2859
  961MOL0     C29653   3.328   8.252   4.027 -0.3107  1.0160 -0.0496
  961MOL0     C29654   2.952   8.002   4.169 -0.3586  0.6005 -0.1629
  961MOL0     C29655   2.861   8.096   4.221  0.2796  0.3197 -0.1442
  961MOL0     C29656   2.734   8.055   4.261 -0.4858  0.3369  0.5905
  961MOL0     C29657   2.695   7.919   4.290  0.3296 -0.3919  0.9355
  961MOL0     O29658   2.585   7.874   4.357 -0.4302  0.0724  0.2739
  961MOL0     C29659   2.479   7.970   4.374  0.4237 -0.2755 -0.1248
  961MOL0     C29660   2.369   7.906   4.458  0.4245 -0.1209 -0.2049
  961MOL0     C29661   2.237   7.976   4.452  0.1590 -0.2726  0.3985
  961MOL0     C29662   2.146   7.970   4.579 -0.2463 -0.2014 -0.4425
  961MOL0     C29663   2.090   7.838   4.581  0.9375  0.1477 -0.0986
  961MOL0     C29664   2.034   7.725   4.567 -0.0218 -0.1385 -0.0661
  961MOL0     C29665   2.793   7.828   4.249  0.1633  0.0258  0.0587
  961MOL0     C29666   2.911   7.866   4.180  0.5560  0.9175 -0.5426
  961MOL0     C29667   2.990   7.743   4.137 -0.1630 -0.6684  0.0792
  961MOL0     H29668   3.251   8.225   4.365  1.7285 -1.5172  0.7430
  961MOL0     H29669   3.493   8.275   4.384 -1.2222  1.3055  0.5884
  961MOL0     H29670   3.722   8.234   4.030  0.6605 -0.2294  1.0341
  961MOL0     H29671   3.740   8.410   4.022 -1.0868 -0.3467 -0.1876
  961MOL0     H29672   3.953   8.301   4.076 -0.8074  1.2188 -1.0034
  961MOL0     H29673   3.883   8.222   4.219  0.3453  0.0537  0.1758
  961MOL0     H29674   3.858   8.435   4.335  0.3592  1.3118  0.8315
  961MOL0     H29675   3.891   8.530   4.193 -0.1078  0.0389  0.8348
  961MOL0     H29676   4.108   8.341   4.291 -1.7430  0.2010  1.1828
  961MOL0     H29677   4.109   8.466   4.165  2.1447 -3.9075 -1.0618
  961MOL0     H29678   4.106   8.650   4.345  0.3608 -0.3295 -1.2564
  961MOL0     H29679   4.059   8.516   4.466 -0.1571 -0.5631 -0.4429
  961MOL0     H29680   4.285   8.587   4.495 -3.5087  2.0225 -0.0032
  961MOL0     H29681   4.272   8.422   4.436 -0.7114 -0.2972 -1.3689
  961MOL0     H29682   4.312   8.511   4.206  0.6723  0.4998 -1.2427
  961MOL0     H29683   4.450   8.521   4.319  1.2507  3.2232 -0.4457
  961MOL0     H29684   4.419   8.753   4.175  1.3324  0.8900  1.4905
  961MOL0     H29685   4.287   8.787   4.283 -0.7238 -1.0220  2.0038
  961MOL0     H29686   4.662   8.717   4.343  1.0313  1.3984  1.2798
  961MOL0     H29687   4.737   8.927   4.656 -2.2385  0.1113 -0.5764
  961MOL0     H29688   4.709   8.747   4.673 -1.5662 -0.7546 -2.4959
  961MOL0     H29689   4.894   8.706   4.554  2.7297  0.5356 -0.4351
  961MOL0     H29690   4.865   8.855   4.448 -0.1389  3.4935  2.1476
  961MOL0     H29691   4.980   8.840   4.722 -0.1179 -1.6874 -0.1968
  961MOL0     H29692   4.967   8.987   4.632  2.1104  0.4618  3.7115
  961MOL0     H29693   5.118   8.897   4.459 -1.2303  0.7028  0.5570
  961MOL0     H29694   5.114   8.736   4.538  1.5137  0.4050  1.0527
  961MOL0     H29695   5.426   8.941   4.756  1.3315  0.1400  1.1495
  961MOL0     H29696   5.670   8.938   4.688 -0.7210 -0.1973  0.5414
  961MOL0     H29697   6.028   8.755   4.445  0.4612 -0.5611  0.7965
  961MOL0     H29698   6.268   8.803   4.379  1.8707  1.4447  0.3825
  961MOL0     H29699   6.342   9.187   4.232 -2.1609  0.1588  1.4129
  961MOL0     H29700   6.414   9.216   4.389 -0.5843  2.0027 -1.4873
  961MOL0     H29701   6.612   9.095   4.323  2.1583  1.1298 -0.9197
  961MOL0     H29702   6.551   9.052   4.162  1.1026 -1.8500  1.6880
  961MOL0     H29703   6.579   9.285   4.093  3.0859 -0.3535 -0.7509
  961MOL0     H29704   6.593   9.343   4.255  0.4054  1.3288 -2.4021
  961MOL0     H29705   6.809   9.165   4.117  1.2534  0.5987 -0.5312
  961MOL0     H29706   6.812   9.218   4.289 -0.9015  1.8545  1.0509
  961MOL0     H29707   6.943   9.353   4.142  0.6010  1.9534  0.1857
  961MOL0     H29708   6.836   9.444   4.250 -0.4628 -1.7007  0.1139
  961MOL0     H29709   6.761   9.381   3.958  0.9201 -1.3145  0.9678
  961MOL0     H29710   6.699   9.508   4.073 -0.6026 -0.1956  1.2744
  961MOL0     H29711   6.943   9.502   3.919 -1.7126 -3.9426  2.0736
  961MOL0     H29712   6.933   9.580   4.082 -0.8004 -1.0993  0.4531
  961MOL0     H29713   6.747   9.740   3.994 -0.7746 -0.0430 -1.0422
  961MOL0     H29714   6.894   9.747   3.899  3.1941 -2.7828  1.3308
  961MOL0     H29715   6.188   9.224   4.387 -1.0657 -0.6779 -0.0854
  961MOL0     H29716   5.967   9.184   4.449  0.2533 -0.6901 -1.8375
  961MOL0     H29717   5.534   8.770   4.302 -1.0320 -1.7626  0.4044
  961MOL0     H29718   5.324   8.788   4.374  1.2461 -0.0320 -1.2717
  961MOL0     H29719   3.517   8.305   3.951 -2.3793 -0.7458 -1.2461
  961MOL0     H29720   3.292   8.230   3.927 -2.6993 -2.0217  1.3247
  961MOL0     H29721   2.879   8.203   4.220  1.3890  0.2420  2.5793
  961MOL0     H29722   2.665   8.136   4.283 -0.3282  0.2958  1.2594
  961MOL0     H29723   2.444   8.011   4.279  0.9272  2.1394  0.6541
  961MOL0     H29724   2.516   8.057   4.428  1.1827 -0.8611  0.3167
  961MOL0     H29725   2.400   7.886   4.561 -0.2335  0.2144  0.0616
  961MOL0     H29726   2.353   7.806   4.416  1.6700  0.6326 -2.6700
  961MOL0     H29727   2.180   7.946   4.363 -0.1864  3.3544 -0.7584
  961MOL0     H29728   2.247   8.084   4.437 -1.1204  0.1093  1.9925
  961MOL0     H29729   2.205   7.982   4.670  3.8100 -2.3985 -2.5200
  961MOL0     H29730   2.060   8.038   4.574 -1.5301 -1.6975  0.2969
  961MOL0     H29731   1.968   7.640   4.570  0.4776 -0.5104  0.5745
  961MOL0     H29732   2.766   7.726   4.273 -1.1282  0.3603  0.1125
  961MOL0     H29733   3.035   7.765   4.040  2.7268  0.5554  1.5693
  961MOL0     H29734   3.072   7.724   4.207 -0.8076  1.7867  1.6445
  961MOL0     H29735   2.927   7.656   4.119 -0.2826 -0.2693 -1.5659
  962MOL0     O29736   4.377  10.494   5.657 -0.7161  0.4975 -0.1508
  962MOL0     C29737   4.360  10.430   5.555 -0.5054  0.2486 -0.1338
  962MOL0     O29738   4.460  10.354   5.483 -0.4286 -0.6379  0.0673
  962MOL0     C29739   4.599  10.373   5.503 -0.9409 -0.4652 -0.8125
  962MOL0     C29740   4.664  10.412   5.623  0.2226 -0.1789  1.0200
  962MOL0     C29741   4.803  10.433   5.631 -0.3957  0.5139  0.0646
  962MOL0     C29742   4.881  10.401   5.513  0.5164  0.6407  0.0715
  962MOL0     O29743   5.019  10.410   5.529 -0.6416 -0.5017  0.0488
  962MOL0     C29744   5.105  10.452   5.417 -0.3871 -0.2896 -0.8497
  962MOL0     C29745   5.098  10.601   5.388 -0.3652 -0.7348 -1.0665
  962MOL0     C29746   5.188  10.661   5.280 -0.3492  0.6386 -0.7040
  962MOL0     C29747   5.179  10.568   5.160  0.6242 -0.1693 -0.3499
  962MOL0     C29748   5.261  10.623   5.037  0.2666  0.4963 -0.2963
  962MOL0     C29749   5.414  10.652   5.061  0.6439  0.2122  0.0983
  962MOL0     C29750   5.483  10.539   5.127 -1.2065 -0.7568  0.3045
  962MOL0     C29751   5.630  10.570   5.137 -1.0646  0.9257  0.3064
  962MOL0     N29752   5.701  10.458   5.202  0.4305  0.4870 -0.3489
  962MOL0     C29753   5.712  10.427   5.329 -0.6709 -0.4975  0.0335
  962MOL0     C29754   5.803  10.330   5.327  0.3550 -0.7667  0.2971
  962MOL0     C29755   5.853  10.268   5.458  0.1975 -0.2121 -0.3278
  962MOL0     C29756   5.795  10.126   5.489 -0.7453  0.1782  0.8367
  962MOL0     C29757   5.655  10.122   5.550 -0.3411  0.1852 -0.6246
  962MOL0     C29758   5.581   9.994   5.513  0.1302 -0.2817 -0.3382
  962MOL0     O29759   5.549   9.971   5.374 -0.5514  0.4715 -0.6363
  962MOL0     C29760   5.441  10.038   5.328 -0.3657  1.0763  0.1644
  962MOL0     C29761   5.320   9.979   5.358 -0.0391 -0.1469 -0.4353
  962MOL0     C29762   5.207  10.026   5.296 -0.2335 -0.2145 -0.2279
  962MOL0     C29763   5.218  10.130   5.200  0.0252  0.3401  0.0100
  962MOL0     C29764   5.093  10.161   5.115 -0.2752  0.3745 -0.5757
  962MOL0     O29765   4.966  10.116   5.160  0.6065 -0.0142  0.5307
  962MOL0     C29766   4.843  10.143   5.099 -0.2183 -0.3834  0.6326
  962MOL0     C29767   4.826  10.224   4.988 -0.2452  0.6874 -0.4317
  962MOL0     C29768   4.695  10.266   4.948 -0.2199  0.3922  0.3525
  962MOL0     C29769   4.583  10.207   5.012 -0.5599  0.0450 -0.2035
  962MOL0     O29770   4.458  10.237   4.976  0.1039 -0.2103  0.2680
  962MOL0     C29771   4.370  10.137   4.925  0.5979  0.1756  0.9748
  962MOL0     C29772   4.229  10.174   4.948  0.4634  0.2574  0.2443
  962MOL0     C29773   4.128  10.095   4.862  0.2722 -0.2215 -0.6564
  962MOL0     C29774   3.990  10.174   4.833 -0.2082  0.1529 -0.2394
  962MOL0     C29775   3.919  10.215   4.970  0.0195 -0.0607  0.3927
  962MOL0     C29776   3.765  10.236   4.947  0.6773 -0.4721  0.3464
  962MOL0     C29777   3.686  10.265   5.074  0.5767  1.0540  0.1923
  962MOL0     C29778   3.531  10.234   5.050 -0.0628 -1.0608  0.7415
  962MOL0    Cl29779   3.495  10.058   5.027  0.2085  0.1164 -0.2506
  962MOL0     C29780   4.602  10.105   5.115 -0.5739  0.1355  0.4399
  962MOL0     C29781   4.732  10.079   5.154  0.7271  0.4655 -0.9603
  962MOL0     O29782   5.120  10.221   5.011 -0.1316  0.0139 -0.5433
  962MOL0     C29783   5.338  10.200   5.176 -0.6711  0.6430 -0.0563
  962MOL0     C29784   5.456  10.146   5.236 -0.1512  0.2553  0.1784
  962MOL0     N29785   5.852  10.304   5.205 -0.4599 -0.3291  0.0710
  962MOL0     N29786   5.785  10.378   5.130  0.0053  0.6134  0.0993
  962MOL0     C29787   4.814  10.375   5.388  0.3981 -0.1794 -1.0550
  962MOL0     C29788   4.676  10.357   5.384  0.2294 -0.5925  0.2363
  962MOL0     C29789   4.218  10.399   5.517 -0.3590  0.7606 -0.3232
  962MOL0     C29790   4.116  10.417   5.619 -0.9302 -0.4618  0.3867
  962MOL0     C29791   3.985  10.377   5.597  0.4177  0.1935  0.0725
  962MOL0     C29792   3.942  10.329   5.469 -0.4985  0.0995 -0.1337
  962MOL0     O29793   3.815  10.307   5.422  0.0867  0.0656  0.3569
  962MOL0     C29794   3.711  10.318   5.526 -0.7555 -1.4502  0.7937
  962MOL0     C29795   3.577  10.309   5.447  0.0473 -0.2459 -0.2569
  962MOL0     C29796   3.553  10.159   5.418 -0.0570  0.6854 -0.0378
  962MOL0     C29797   3.449  10.081   5.488 -0.2564 -0.7163 -0.5562
  962MOL0     C29798   3.473   9.942   5.446  0.3668  1.1197  0.3153
  962MOL0     C29799   3.485   9.830   5.409 -0.0956 -0.6105  0.0271
  962MOL0     C29800   4.037  10.328   5.365 -0.3288  0.2670 -0.8004
  962MOL0     C29801   4.169  10.373   5.382 -0.0273  0.9890 -0.3727
  962MOL0     C29802   4.251  10.389   5.253 -0.4982  0.1873 -0.5239
  962MOL0     H29803   4.606  10.429   5.713 -0.5693  0.6317  0.3693
  962MOL0     H29804   4.844  10.463   5.727 -3.0837  1.8478  0.8829
  962MOL0     H29805   5.210  10.425   5.432  0.4782  2.5076 -1.3133
  962MOL0     H29806   5.069  10.399   5.328 -0.3132  0.3333 -1.2618
  962MOL0     H29807   5.108  10.644   5.488 -3.3481 -2.6333  0.1992
  962MOL0     H29808   4.996  10.625   5.356 -0.1235  3.3876  0.6466
  962MOL0     H29809   5.294  10.664   5.306  0.1685  0.6203 -2.6715
  962MOL0     H29810   5.159  10.763   5.253  0.0418  1.2660  1.0919
  962MOL0     H29811   5.225  10.473   5.187 -2.1165 -1.2717  0.7413
  962MOL0     H29812   5.075  10.556   5.129  0.0771  1.0458  0.9061
  962MOL0     H29813   5.265  10.555   4.951  2.6360  1.9126 -1.3958
  962MOL0     H29814   5.209  10.716   5.013 -2.1219 -0.2296  1.5650
  962MOL0     H29815   5.464  10.667   4.965  1.4455  2.5771  0.8134
  962MOL0     H29816   5.431  10.746   5.114  0.2771  0.2628  0.1344
  962MOL0     H29817   5.471  10.447   5.069  1.5112 -0.9708 -0.0593
  962MOL0     H29818   5.431  10.526   5.222 -1.2377 -0.1535  0.3758
  962MOL0     H29819   5.676  10.586   5.039  1.0173  0.4101  1.1421
  962MOL0     H29820   5.634  10.656   5.204  0.1322 -0.1225  1.6614
  962MOL0     H29821   5.667  10.477   5.415 -0.4781  1.6950 -1.0648
  962MOL0     H29822   5.961  10.252   5.454  0.2354 -0.9308  1.9479
  962MOL0     H29823   5.832  10.329   5.547 -0.5911 -2.1551  0.8961
  962MOL0     H29824   5.787  10.064   5.399  3.2780 -1.0941  1.1902
  962MOL0     H29825   5.859  10.065   5.554  1.3020  2.2107  0.8191
  962MOL0     H29826   5.596  10.210   5.524 -3.9778 -0.5676  3.7887
  962MOL0     H29827   5.668  10.128   5.658  1.6056  5.3695 -0.8537
  962MOL0     H29828   5.495   9.992   5.581 -1.9974  2.0751 -2.7220
  962MOL0     H29829   5.640   9.909   5.547  0.8782  0.2675 -0.2531
  962MOL0     H29830   5.334   9.894   5.424  0.7631 -1.5209 -2.2819
  962MOL0     H29831   5.109   9.981   5.314  0.8678 -1.5489  3.2838
  962MOL0     H29832   4.909  10.283   4.951 -0.2129  1.2682  0.5181
  962MOL0     H29833   4.671  10.326   4.861  0.5873 -2.8862 -2.3627
  962MOL0     H29834   4.370  10.124   4.816  2.3247  0.0329  0.9664
  962MOL0     H29835   4.385  10.041   4.975  0.0272  0.3389  1.4792
  962MOL0     H29836   4.207  10.169   5.055 -0.2846 -1.4472  0.0340
  962MOL0     H29837   4.225  10.282   4.927  2.3576  0.3520  0.2392
  962MOL0     H29838   4.172  10.077   4.764 -2.5881 -0.4988 -1.9901
  962MOL0     H29839   4.113   9.993   4.900  2.2115  0.3893  2.0873
  962MOL0     H29840   3.916  10.118   4.775  0.0109 -2.4405  1.7702
  962MOL0     H29841   4.012  10.270   4.787  0.9808  0.6212  1.2213
  962MOL0     H29842   3.963  10.303   5.018  2.2828 -1.7220  1.5436
  962MOL0     H29843   3.943  10.141   5.046  1.0258  0.1337  0.2812
  962MOL0     H29844   3.749  10.320   4.879  1.1559  1.3299  2.3391
  962MOL0     H29845   3.719  10.147   4.903 -3.1683  0.5385  1.9479
  962MOL0     H29846   3.687  10.371   5.102  0.9944  0.5852  2.0759
  962MOL0     H29847   3.733  10.211   5.156  1.7689 -1.0992 -1.7872
  962MOL0     H29848   3.480  10.278   5.136 -1.1476 -1.3266  0.2551
  962MOL0     H29849   3.498  10.279   4.956  2.3048  1.3984  0.9511
  962MOL0     H29850   4.521  10.054   5.166 -1.2268  0.0247 -0.6765
  962MOL0     H29851   4.751  10.021   5.245 -0.8903 -0.8415 -1.4101
  962MOL0     H29852   5.337  10.282   5.104 -1.8040  0.1135 -0.6749
  962MOL0     H29853   5.552  10.179   5.198  0.9151 -1.0358  1.6375
  962MOL0     H29854   4.866  10.349   5.297 -1.8760 -0.4752 -2.3442
  962MOL0     H29855   4.621  10.310   5.304 -2.6948 -1.2929  2.4631
  962MOL0     H29856   4.155  10.454   5.713  3.9361 -1.0481 -1.1090
  962MOL0     H29857   3.910  10.383   5.675  1.4180 -1.3977  1.2147
  962MOL0     H29858   3.727  10.409   5.584  0.0314 -2.7579  2.7393
  962MOL0     H29859   3.714  10.230   5.592 -0.0722  1.1711  4.5879
  962MOL0     H29860   3.586  10.369   5.356 -3.6645 -0.5910 -0.9916
  962MOL0     H29861   3.499  10.344   5.516 -2.2062  0.3714 -2.9252
  962MOL0     H29862   3.649  10.108   5.431 -1.2189 -1.3078  1.1255
  962MOL0     H29863   3.541  10.150   5.309  1.5338  2.2685 -0.3970
  962MOL0     H29864   3.465  10.084   5.596 -2.3712 -1.4063 -0.1761
  962MOL0     H29865   3.348  10.112   5.460 -0.6413 -1.7412 -0.3120
  962MOL0     H29866   3.475   9.723   5.398 -1.7607 -0.9570  3.5885
  962MOL0     H29867   4.006  10.316   5.262 -1.1310  2.0912 -0.8054
  962MOL0     H29868   4.187  10.437   5.178  0.9581  0.8401 -1.4187
  962MOL0     H29869   4.339  10.454   5.268  0.6629 -1.2308 -0.9186
  962MOL0     H29870   4.284  10.289   5.224 -1.1163 -0.3924  0.7253
  963MOL0     O29871   0.742   1.052  10.727  0.1839 -0.0374  0.4744
  963MOL0     C29872   0.775   1.095  10.615 -1.2353  0.2529 -0.7033
  963MOL0     O29873   0.904   1.118  10.575  0.2222 -0.4136 -0.0469
  963MOL0     C29874   0.993   1.151  10.681 -0.8075  0.4951 -0.1672
  963MOL0     C29875   1.087   1.060  10.722 -0.2027 -0.1209 -0.5078
  963MOL0     C29876   1.179   1.093  10.821  0.1851 -0.2819  0.1658
  963MOL0     C29877   1.182   1.224  10.881  1.0492  0.3508 -0.2148
  963MOL0     O29878   1.269   1.266  10.979  0.4884 -0.3747 -0.0481
  963MOL0     C29879   1.385   1.199  11.016  0.0235  0.6122 -0.1510
  963MOL0     C29880   1.510   1.284  10.983  0.0905 -0.0057 -0.1743
  963MOL0     C29881   1.484   1.352  10.841 -0.3183 -0.3974  0.3575
  963MOL0     C29882   1.608   1.412  10.783 -0.3562 -0.4613 -0.3862
  963MOL0     C29883   1.578   1.514  10.669 -0.2970 -0.6117  0.7870
  963MOL0     C29884   1.708   1.556  10.598 -0.8717  0.1286  0.6087
  963MOL0     C29885   1.757   1.450  10.496 -1.0575  0.2450  0.0721
  963MOL0     C29886   1.692   1.467  10.363 -0.3763 -0.1588  0.0697
  963MOL0     N29887   1.773   1.417  10.256 -0.5053 -0.1729  0.3908
  963MOL0     C29888   1.826   1.297  10.259 -0.7551  0.5443 -0.0021
  963MOL0     C29889   1.901   1.287  10.142 -0.6505 -0.0371  0.9091
  963MOL0     C29890   1.984   1.169  10.106  0.9262  0.7319 -0.6618
  963MOL0     C29891   2.131   1.207  10.122  0.6031 -0.3261 -1.3847
  963MOL0     C29892   2.184   1.304  10.010 -0.3859  0.1238 -0.3459
  963MOL0     C29893   2.336   1.310  10.019  0.0343 -0.3018 -0.6529
  963MOL0     O29894   2.373   1.379  10.138 -0.0065  0.4243 -0.5071
  963MOL0     C29895   2.511   1.399  10.157  0.6170  0.8534  0.8568
  963MOL0     C29896   2.555   1.461  10.277 -0.1952 -0.6128  0.3354
  963MOL0     C29897   2.700   1.470  10.286  0.9123 -0.5795 -0.4861
  963MOL0     C29898   2.793   1.417  10.198 -0.0717  0.3455 -0.7937
  963MOL0     C29899   2.935   1.431  10.224 -0.3483  0.0334  0.1917
  963MOL0     O29900   3.008   1.423  10.109 -0.5295 -0.3314 -0.4230
  963MOL0     C29901   3.147   1.456  10.120  0.1015  0.7981 -0.3788
  963MOL0     C29902   3.204   1.583  10.144 -0.3593  0.4178 -0.2937
  963MOL0     C29903   3.345   1.599  10.138  0.0993 -0.4045 -0.0580
  963MOL0     C29904   3.426   1.493  10.104 -0.2014 -0.5308 -1.3756
  963MOL0     O29905   3.565   1.518  10.100  0.0689  0.6817 -0.5854
  963MOL0     C29906   3.642   1.441  10.012 -0.6945  0.1210  0.2406
  963MOL0     C29907   3.760   1.527   9.954  0.4204  0.1921  0.4879
  963MOL0     C29908   3.702   1.655   9.890 -0.5995 -0.2659 -0.3286
  963MOL0     C29909   3.803   1.737   9.819 -0.5735 -0.7253  0.3862
  963MOL0     C29910   3.740   1.856   9.738  1.0878  0.1225 -0.6078
  963MOL0     C29911   3.852   1.953   9.695  0.0577  0.3898 -0.2856
  963MOL0     C29912   3.793   2.083   9.636 -0.6775  0.1371 -0.3814
  963MOL0     C29913   3.910   2.177   9.600 -0.4314  0.2844  0.3710
  963MOL0    Cl29914   3.979   2.233   9.755 -0.0712 -0.0254  0.2384
  963MOL0     C29915   3.371   1.370  10.075  0.1808 -0.2949 -0.8063
  963MOL0     C29916   3.229   1.347  10.081 -0.0141 -0.4417 -0.8734
  963MOL0     O29917   2.976   1.473  10.340  1.0239  0.4496  0.2411
  963MOL0     C29918   2.744   1.355  10.091 -0.4926 -0.5614  0.1804
  963MOL0     C29919   2.610   1.351  10.063 -0.0153  0.3212  0.1806
  963MOL0     N29920   1.892   1.408  10.075 -0.4036 -0.1894 -0.6744
  963MOL0     N29921   1.822   1.488  10.146 -0.5740 -0.2063  0.3190
  963MOL0     C29922   1.076   1.313  10.843  0.0471 -0.5648 -0.2876
  963MOL0     C29923   0.984   1.280  10.744  0.3942  0.6372 -0.4842
  963MOL0     C29924   0.670   1.113  10.513  0.5909  0.0156  0.2958
  963MOL0     C29925   0.541   1.104  10.569 -0.0982 -0.3697 -1.2334
  963MOL0     C29926   0.436   1.137  10.489  0.0038 -0.0525 -0.2623
  963MOL0     C29927   0.456   1.173  10.354 -0.0562 -0.7904 -0.2509
  963MOL0     O29928   0.350   1.200  10.277  0.0644  0.0519  0.1527
  963MOL0     C29929   0.325   1.347  10.277  0.2436 -0.6150  0.3737
  963MOL0     C29930   0.349   1.401  10.131  0.5588 -0.0716  0.4711
  963MOL0     C29931   0.271   1.327  10.014  0.5726  1.1354 -0.5521
  963MOL0     C29932   0.263   1.414   9.890  0.7139 -0.2479  0.2451
  963MOL0     C29933   0.176   1.530   9.923  0.1705  1.4445 -1.3303
  963MOL0     C29934   0.080   1.609   9.942  0.4156 -0.5296  0.5569
  963MOL0     C29935   0.584   1.192  10.309  0.4547 -0.6565  0.0984
  963MOL0     C29936   0.692   1.164  10.383 -0.5667 -1.1870 -0.0003
  963MOL0     C29937   0.826   1.197  10.316  0.4867 -0.0303  0.1085
  963MOL0     H29938   1.091   0.962  10.676 -1.1306 -0.1718 -0.4866
  963MOL0     H29939   1.254   1.022  10.855 -1.2684 -1.9411  0.0742
  963MOL0     H29940   1.376   1.186  11.125  0.4929 -0.7360 -0.2586
  963MOL0     H29941   1.394   1.095  10.985 -0.7328  0.2830  0.6901
  963MOL0     H29942   1.603   1.225  10.986  0.1892 -0.1133 -2.8422
  963MOL0     H29943   1.518   1.358  11.063 -0.0962  0.6999 -0.8084
  963MOL0     H29944   1.400   1.423  10.844  0.4933  0.7404 -1.6863
  963MOL0     H29945   1.457   1.272  10.771  1.7946 -1.5971  0.8294
  963MOL0     H29946   1.671   1.467  10.854 -0.3578  0.8438 -1.3606
  963MOL0     H29947   1.671   1.329  10.750 -2.3771 -3.2775  2.3298
  963MOL0     H29948   1.515   1.460  10.598  0.5349  0.3002 -0.6881
  963MOL0     H29949   1.522   1.599  10.710 -2.2867 -1.9833  1.1137
  963MOL0     H29950   1.701   1.656  10.554  2.7734 -0.0622 -0.7812
  963MOL0     H29951   1.791   1.573  10.667 -1.1264 -0.1797  0.9955
  963MOL0     H29952   1.750   1.348  10.535  3.9078 -0.7834 -1.0735
  963MOL0     H29953   1.864   1.466  10.483 -0.8691 -1.4283 -0.7064
  963MOL0     H29954   1.592   1.422  10.361 -0.3644 -0.2095  0.4742
  963MOL0     H29955   1.673   1.574  10.356  3.6169  0.8019  1.2382
  963MOL0     H29956   1.819   1.216  10.332  1.0735  1.1910  0.9299
  963MOL0     H29957   1.955   1.089  10.175  2.4756  1.1179  0.4735
  963MOL0     H29958   1.971   1.135  10.002 -2.0301 -1.9994  0.4073
  963MOL0     H29959   2.152   1.244  10.223 -0.2142 -0.7627 -1.0448
  963MOL0     H29960   2.189   1.114  10.118 -1.5402 -1.8499  0.2782
  963MOL0     H29961   2.144   1.405  10.025 -1.6596 -0.2887 -0.7624
  963MOL0     H29962   2.151   1.263   9.914 -1.3861 -0.2540  0.1411
  963MOL0     H29963   2.363   1.372   9.934 -1.0210  3.1400  1.2924
  963MOL0     H29964   2.388   1.214  10.023  0.6043 -0.0059 -0.9219
  963MOL0     H29965   2.481   1.504  10.345 -2.4317 -1.4410 -1.4441
  963MOL0     H29966   2.742   1.531  10.366  0.3988 -0.2906 -0.4326
  963MOL0     H29967   3.143   1.666  10.176 -1.0946  0.0309 -0.6634
  963MOL0     H29968   3.386   1.698  10.155  2.7363 -1.4434  0.0577
  963MOL0     H29969   3.673   1.347  10.057  0.2086  1.9762  3.9322
  963MOL0     H29970   3.593   1.421   9.916 -0.0019  0.3880 -0.1761
  963MOL0     H29971   3.828   1.547  10.037  0.1866 -2.1436  1.3044
  963MOL0     H29972   3.821   1.465   9.888  1.6476  2.2195 -0.3960
  963MOL0     H29973   3.626   1.618   9.820 -1.5321 -0.7411  0.9005
  963MOL0     H29974   3.657   1.716   9.969  0.4985  0.3332 -0.1550
  963MOL0     H29975   3.861   1.671   9.754 -1.6003 -0.5827 -0.7126
  963MOL0     H29976   3.868   1.779   9.896 -3.3515  1.1688  1.8617
  963MOL0     H29977   3.664   1.908   9.797 -0.2833 -0.0305 -2.1692
  963MOL0     H29978   3.687   1.807   9.656  2.1528 -0.1452 -1.1649
  963MOL0     H29979   3.903   1.976   9.789  0.3382 -1.8375  0.1497
  963MOL0     H29980   3.927   1.917   9.623 -1.4006 -2.3955 -0.5538
  963MOL0     H29981   3.738   2.128   9.719  1.3891 -1.5833  2.0900
  963MOL0     H29982   3.733   2.052   9.549  2.4447 -2.6219 -1.7963
  963MOL0     H29983   3.979   2.127   9.531  2.1868  1.3383  2.0611
  963MOL0     H29984   3.865   2.266   9.555 -0.3430  0.2621  0.2384
  963MOL0     H29985   3.441   1.293  10.044 -0.4780 -1.2092 -0.0857
  963MOL0     H29986   3.195   1.249  10.050 -0.3132 -1.1056  1.3955
  963MOL0     H29987   2.805   1.301  10.019  0.3256 -0.2120  0.5898
  963MOL0     H29988   2.577   1.296   9.975 -1.2905 -1.2484  1.5917
  963MOL0     H29989   1.067   1.407  10.897  3.8565 -0.8669  1.1850
  963MOL0     H29990   0.902   1.346  10.719  0.2932 -0.1464 -2.3452
  963MOL0     H29991   0.510   1.062  10.664 -1.5394 -1.0555 -1.9652
  963MOL0     H29992   0.338   1.133  10.534  0.5453 -0.7799  0.8821
  963MOL0     H29993   0.384   1.398  10.353  0.3780 -0.5969  0.2573
  963MOL0     H29994   0.220   1.363  10.302  0.8033  2.3783  1.2010
  963MOL0     H29995   0.455   1.401  10.103  0.2224  2.9653 -1.3184
  963MOL0     H29996   0.305   1.501  10.125 -0.1998 -0.4599 -1.5737
  963MOL0     H29997   0.169   1.305  10.047  1.6298 -0.9576  1.6290
  963MOL0     H29998   0.322   1.234   9.989 -0.4417  0.1777  0.7716
  963MOL0     H29999   0.359   1.447   9.849 -0.4703  0.0160 -2.5362
  963MOL0     H30000   0.218   1.349   9.814 -2.0026 -0.5465  1.9563
  963MOL0     H30001  -0.011   1.663   9.951  0.2718 -0.4960 -0.9744
  963MOL0     H30002   0.605   1.226  10.208  2.7850  0.7283  0.9679
  963MOL0     H30003   0.803   1.265  10.234 -0.4826 -1.5491 -0.9349
  963MOL0     H30004   0.895   1.240  10.390  0.6902  0.6400 -0.4552
  963MOL0     H30005   0.875   1.111  10.270 -0.6400  0.1923 -1.5786
  964MOL0     O30006  10.663   5.548  10.159  0.0367 -0.5790  0.3944
  964MOL0     C30007  10.621   5.560  10.278 -0.2052  0.1051 -0.0696
  964MOL0     O30008  10.706   5.587  10.391 -0.2915 -0.2333 -0.4503
  964MOL0     C30009  10.842   5.597  10.393 -0.6928  1.0306  0.5346
  964MOL0     C30010  10.900   5.620  10.514  0.9733 -0.1951  0.4100
  964MOL0     C30011  11.034   5.614  10.541 -0.3205  0.2929  0.0240
  964MOL0     C30012  11.120   5.606  10.430 -0.6295  0.2065  0.8585
  964MOL0     O30013  11.256   5.611  10.466  0.7787  0.4227 -0.0121
  964MOL0     C30014  11.316   5.498  10.419  0.0742  0.7058  0.7819
  964MOL0     C30015  11.466   5.499  10.445  0.0814  0.7068 -0.4011
  964MOL0     C30016  11.541   5.410  10.339 -0.7132  0.3860  0.1630
  964MOL0     C30017  11.674   5.359  10.391 -0.1697  0.7278 -0.6208
  964MOL0     C30018  11.723   5.261  10.288 -0.3614 -0.2256 -0.1307
  964MOL0     C30019  11.844   5.186  10.352  0.4200 -0.9170  0.2549
  964MOL0     C30020  11.894   5.062  10.266 -0.0686 -0.3377 -0.1520
  964MOL0     C30021  11.894   5.089  10.113 -0.4174 -0.5736  0.0107
  964MOL0     N30022  11.918   4.961  10.051  0.0454  0.2698 -0.4911
  964MOL0     C30023  11.839   4.897   9.964  0.5118  0.7922  0.3464
  964MOL0     C30024  11.890   4.774   9.938 -0.2703  0.1502 -0.0871
  964MOL0     C30025  11.823   4.669   9.852 -0.6406 -0.3084  0.0512
  964MOL0     C30026  11.769   4.535   9.932 -0.2999 -0.0354  0.1801
  964MOL0     C30027  11.893   4.451   9.986  0.7103  0.4662 -0.8351
  964MOL0     C30028  11.962   4.493  10.123  0.3134  0.1231 -0.8713
  964MOL0     O30029  12.041   4.379  10.152 -0.1460  0.7039  0.6128
  964MOL0     C30030  12.167   4.368  10.090 -0.2472  0.5355  0.0200
  964MOL0     C30031  12.232   4.246  10.107  0.0610  0.2197  0.4113
  964MOL0     C30032  12.352   4.217  10.050 -0.4231  0.2993  0.0912
  964MOL0     C30033  12.409   4.320   9.972 -0.3988  0.1085  0.5075
  964MOL0     C30034  12.545   4.294   9.914 -0.5955  0.5201 -0.8600
  964MOL0     O30035  12.627   4.198   9.978 -0.4701  0.4847  0.3055
  964MOL0     C30036  12.751   4.185   9.930  0.4825  0.5146  0.2308
  964MOL0     C30037  12.780   4.117   9.811 -0.3750  0.4492 -0.2704
  964MOL0     C30038  12.919   4.105   9.778 -0.0120  0.8507  0.3307
  964MOL0     C30039  13.014   4.156   9.864 -0.6757  0.4496  0.3059
  964MOL0     O30040  13.146   4.147   9.822  0.0858  0.7581  0.4522
  964MOL0     C30041  13.250   4.118   9.919  0.7603 -1.1317  0.3447
  964MOL0     C30042  13.371   4.115   9.837 -0.7402 -0.2080 -0.4369
  964MOL0     C30043  13.497   4.094   9.916  0.2546 -0.2823 -0.4908
  964MOL0     C30044  13.501   3.954   9.972  0.7806 -0.4996 -0.0095
  964MOL0     C30045  13.613   3.926  10.066 -0.7040 -0.4506  0.4592
  964MOL0     C30046  13.751   3.946  10.004 -0.3506  0.6849  0.3741
  964MOL0     C30047  13.855   3.882  10.084 -0.2427 -0.2888  0.7819
  964MOL0     C30048  13.989   3.902  10.018 -0.1469 -1.3981 -0.1423
  964MOL0    Cl30049  14.107   3.791  10.092 -0.3819 -0.4098  0.0249
  964MOL0     C30050  12.979   4.216   9.984 -0.2404  0.4266  0.0937
  964MOL0     C30051  12.849   4.236  10.011 -0.3245 -0.7995 -0.6674
  964MOL0     O30052  12.580   4.364   9.819  0.2287  0.5761 -0.6482
  964MOL0     C30053  12.338   4.437   9.937  0.4918 -0.0691 -0.8165
  964MOL0     C30054  12.219   4.456   9.995  0.0413 -0.2042 -1.1706
  964MOL0     N30055  12.017   4.770  10.002  0.1308 -0.2436  0.1829
  964MOL0     N30056  12.035   4.889  10.051  0.7411  0.8365 -0.2797
  964MOL0     C30057  11.070   5.583  10.300 -0.0360  0.9532 -0.0367
  964MOL0     C30058  10.930   5.571  10.284  0.5035  0.3503 -0.5431
  964MOL0     C30059  10.475   5.544  10.310 -0.4184 -0.3547 -0.6618
  964MOL0     C30060  10.389   5.531  10.206  0.7759 -0.3227 -0.1528
  964MOL0     C30061  10.255   5.500  10.216  0.0469  0.1305 -0.1691
  964MOL0     C30062  10.204   5.489  10.347  0.6288 -0.0400 -0.7985
  964MOL0     O30063  10.071   5.457  10.347 -0.1362 -0.6483 -0.1618
  964MOL0     C30064   9.994   5.504  10.456  0.2031 -0.8470 -0.1446
  964MOL0     C30065   9.848   5.538  10.410 -0.7748 -0.0878 -0.1262
  964MOL0     C30066   9.788   5.440  10.311 -0.1843 -0.4646 -0.4587
  964MOL0     C30067   9.657   5.492  10.257  0.0019 -0.5157 -0.3695
  964MOL0     C30068   9.609   5.424  10.146 -0.2384 -0.5983 -1.0528
  964MOL0     C30069   9.570   5.362  10.050  0.5571 -0.3990  0.2920
  964MOL0     C30070  10.283   5.508  10.461  0.0677  1.0606 -0.2231
  964MOL0     C30071  10.416   5.544  10.446  0.6380 -0.7531 -0.3422
  964MOL0     C30072  10.487   5.580  10.580  0.0977 -0.2177  0.5423
  964MOL0     H30073  10.820   5.620  10.587  0.4087  0.2431 -0.1966
  964MOL0     H30074  11.080   5.605  10.639 -0.3700 -1.0534 -0.0619
  964MOL0     H30075  11.279   5.401  10.452 -0.4044 -1.5196 -5.1690
  964MOL0     H30076  11.310   5.490  10.310 -1.9530 -1.5839  0.9895
  964MOL0     H30077  11.479   5.466  10.549 -1.1331  0.7063 -0.2384
  964MOL0     H30078  11.495   5.605  10.444  0.5781  0.5651 -1.2042
  964MOL0     H30079  11.562   5.484  10.261 -1.7138  0.8288  0.3091
  964MOL0     H30080  11.473   5.328  10.315 -3.1226  2.1791  0.5310
  964MOL0     H30081  11.740   5.447  10.397 -1.4332  1.7310 -0.9860
  964MOL0     H30082  11.651   5.313  10.488  0.5847  0.6083 -0.4938
  964MOL0     H30083  11.644   5.186  10.276 -1.1545  0.3507  1.1912
  964MOL0     H30084  11.740   5.303  10.189 -2.5521  0.6774 -0.1843
  964MOL0     H30085  11.918   5.265  10.366  0.5901 -0.6505 -1.8300
  964MOL0     H30086  11.821   5.147  10.452 -1.6777 -0.7601 -0.1118
  964MOL0     H30087  11.821   4.987  10.298 -0.2496 -0.3470 -0.5822
  964MOL0     H30088  11.994   5.039  10.305  0.4770  0.9644 -0.7157
  964MOL0     H30089  11.797   5.123  10.074 -0.6936 -0.3130  0.9102
  964MOL0     H30090  11.974   5.159  10.089 -1.9719  2.0067  1.8975
  964MOL0     H30091  11.738   4.920   9.930 -0.1947 -1.3621  0.8214
  964MOL0     H30092  11.725   4.707   9.820 -1.6336 -0.1085  3.0238
  964MOL0     H30093  11.883   4.658   9.762  0.0700  2.9020  0.0188
  964MOL0     H30094  11.703   4.569  10.012  1.7120  2.4123  0.9200
  964MOL0     H30095  11.709   4.482   9.858  1.1368  0.9193 -1.7739
  964MOL0     H30096  11.960   4.454   9.899  0.9446  1.4631 -0.6312
  964MOL0     H30097  11.863   4.347  10.005  1.4670  0.6328  1.4811
  964MOL0     H30098  11.903   4.517  10.212  0.7485 -1.3933 -0.1383
  964MOL0     H30099  12.024   4.582  10.117 -1.5763  1.5663 -0.1214
  964MOL0     H30100  12.167   4.186  10.170 -0.6915 -1.0074 -1.4534
  964MOL0     H30101  12.396   4.120  10.068 -0.9277 -0.2391 -1.4585
  964MOL0     H30102  12.695   4.073   9.761 -1.6324  0.2081  1.9310
  964MOL0     H30103  12.953   4.058   9.687 -1.1727  2.3893 -0.9579
  964MOL0     H30104  13.261   4.198   9.994 -3.2739 -0.0377  0.0099
  964MOL0     H30105  13.240   4.023   9.971  0.8423 -0.2663  2.0274
  964MOL0     H30106  13.358   4.028   9.771 -2.7986 -2.2615  2.3851
  964MOL0     H30107  13.380   4.209   9.783 -0.5303 -0.3128 -0.5870
  964MOL0     H30108  13.586   4.134   9.865  1.2996 -2.1904 -0.2903
  964MOL0     H30109  13.482   4.157  10.003 -1.5125 -0.8022 -0.3941
  964MOL0     H30110  13.507   3.903   9.875  0.7358  2.2311 -1.5393
  964MOL0     H30111  13.404   3.922  10.012 -0.3849  1.6590 -0.9378
  964MOL0     H30112  13.600   3.824  10.104 -1.9127 -0.2898  0.5188
  964MOL0     H30113  13.605   4.002  10.144  0.6234 -0.9029  1.0648
  964MOL0     H30114  13.746   3.892   9.909  0.0076  1.3588 -0.0310
  964MOL0     H30115  13.764   4.050   9.973 -1.9479  0.6735 -0.4948
  964MOL0     H30116  13.840   3.774  10.092 -3.0467 -0.0249 -0.0609
  964MOL0     H30117  13.862   3.900  10.191 -1.0039 -1.1442  0.9897
  964MOL0     H30118  13.970   3.889   9.911  1.1358  0.5159 -0.6520
  964MOL0     H30119  14.026   4.004  10.033 -0.4230 -1.4064  0.6578
  964MOL0     H30120  13.051   4.243  10.061  0.6947 -2.1403  0.2225
  964MOL0     H30121  12.809   4.290  10.097 -1.8917  2.1137 -2.9988
  964MOL0     H30122  12.385   4.511   9.872 -1.9818  2.8553  0.4464
  964MOL0     H30123  12.162   4.540   9.956 -1.3266 -0.3640  0.3516
  964MOL0     H30124  11.134   5.575  10.212 -2.7544  2.2934 -2.2870
  964MOL0     H30125  10.898   5.546  10.183 -0.6512  2.4975 -0.7672
  964MOL0     H30126  10.432   5.535  10.107 -0.0574 -1.5186 -0.5806
  964MOL0     H30127  10.192   5.480  10.130 -1.2407  1.6611  0.3691
  964MOL0     H30128  10.029   5.602  10.490 -1.7227 -0.4589  0.9050
  964MOL0     H30129   9.992   5.418  10.523  0.0652 -1.5186 -0.9882
  964MOL0     H30130   9.860   5.638  10.368  1.5531  0.0326  0.6838
  964MOL0     H30131   9.780   5.548  10.496 -2.8924 -3.0997 -1.2502
  964MOL0     H30132   9.772   5.344  10.360 -0.9233  0.6837  1.6824
  964MOL0     H30133   9.860   5.428  10.230 -0.7531 -0.1543 -1.0162
  964MOL0     H30134   9.575   5.486  10.329 -2.1406  0.7590 -2.5936
  964MOL0     H30135   9.661   5.599  10.238 -0.7884 -0.6719 -1.5148
  964MOL0     H30136   9.534   5.294   9.975 -1.3016 -0.4098  1.1200
  964MOL0     H30137  10.243   5.480  10.558  1.4367  0.3861  0.1715
  964MOL0     H30138  10.544   5.670  10.559 -2.0878  1.8142  2.6611
  964MOL0     H30139  10.420   5.607  10.663  0.9791 -0.5680  1.3864
  964MOL0     H30140  10.559   5.505  10.614  1.3136  0.0855 -1.2204
  965MOL0     O30141   5.462   1.440   4.020  0.7491 -0.1165 -0.4266
  965MOL0     C30142   5.467   1.531   4.104  0.3377  0.2301  0.0002
  965MOL0     O30143   5.585   1.582   4.156  0.2807 -0.2804 -0.4019
  965MOL0     C30144   5.709   1.533   4.135 -0.7013 -0.1821 -0.5013
  965MOL0     C30145   5.744   1.425   4.055 -0.5735  0.3691  0.3495
  965MOL0     C30146   5.882   1.393   4.032 -0.3957 -0.5036  0.1336
  965MOL0     C30147   5.976   1.463   4.104 -0.6719 -0.2218 -0.2586
  965MOL0     O30148   6.104   1.418   4.094 -0.1289  0.4388  1.1513
  965MOL0     C30149   6.153   1.365   4.218 -0.7710 -0.4677 -0.2773
  965MOL0     C30150   6.302   1.332   4.203 -0.2268 -0.3834  1.0868
  965MOL0     C30151   6.309   1.217   4.109 -0.0481  0.7420  0.6524
  965MOL0     C30152   6.427   1.123   4.141  0.0051 -0.4987  0.0548
  965MOL0     C30153   6.562   1.160   4.082  0.1063  0.3566  0.1531
  965MOL0     C30154   6.626   1.272   4.164  0.0944 -1.3909  0.0428
  965MOL0     C30155   6.759   1.297   4.105 -0.4742  0.8194 -0.7429
  965MOL0     C30156   6.846   1.402   4.185 -0.7983 -0.1429  0.9112
  965MOL0     N30157   6.988   1.412   4.132  0.2624  0.0282 -0.3622
  965MOL0     C30158   7.013   1.459   4.007 -1.0009  0.7383 -0.2221
  965MOL0     C30159   7.149   1.446   3.990  1.1193  0.4357  0.3864
  965MOL0     C30160   7.226   1.458   3.861  0.0465 -0.4345  0.0316
  965MOL0     C30161   7.366   1.515   3.894  1.0390  0.2658  0.2034
  965MOL0     C30162   7.402   1.651   3.832  0.1892  0.2334 -0.1622
  965MOL0     C30163   7.546   1.675   3.871 -0.4275  0.0871  0.6176
  965MOL0     O30164   7.589   1.800   3.824  0.9349 -0.6233  0.3149
  965MOL0     C30165   7.727   1.826   3.838  0.1236  0.6067 -0.2600
  965MOL0     C30166   7.770   1.951   3.787  0.4283  0.2098  0.3539
  965MOL0     C30167   7.903   1.996   3.792 -0.5073  0.1819  0.9107
  965MOL0     C30168   8.005   1.921   3.862 -0.0011 -0.3567 -0.0813
  965MOL0     C30169   8.146   1.963   3.873 -0.9274 -0.7819 -0.0802
  965MOL0     O30170   8.175   2.096   3.899  0.2850  0.9490 -0.9708
  965MOL0     C30171   8.302   2.122   3.947  0.3716 -0.4813  0.4934
  965MOL0     C30172   8.386   2.201   3.858 -0.1002  0.5258 -0.2512
  965MOL0     C30173   8.515   2.225   3.895 -0.5567  0.0297 -0.3266
  965MOL0     C30174   8.562   2.181   4.019  0.6189  0.5101  0.8528
  965MOL0     O30175   8.681   2.220   4.069 -0.6614 -0.8984  0.3840
  965MOL0     C30176   8.694   2.245   4.216  0.3403  0.5664  0.0559
  965MOL0     C30177   8.848   2.249   4.238  0.9536  0.6892 -0.1371
  965MOL0     C30178   8.899   2.390   4.229  1.0494  1.3635 -0.3931
  965MOL0     C30179   9.042   2.403   4.290  0.0585 -0.7417 -0.4140
  965MOL0     C30180   9.100   2.540   4.245  0.3936  0.9896  0.8553
  965MOL0     C30181   9.254   2.541   4.243 -0.7461 -0.3155 -0.0400
  965MOL0     C30182   9.302   2.691   4.224 -0.0124  0.0525 -0.9083
  965MOL0     C30183   9.445   2.698   4.192 -0.1187  0.3310 -0.5454
  965MOL0    Cl30184   9.485   2.618   4.037  0.4437  0.2052  0.0176
  965MOL0     C30185   8.485   2.092   4.099  0.0678 -0.0951 -0.1082
  965MOL0     C30186   8.348   2.068   4.071 -0.1885 -0.1041  0.4954
  965MOL0     O30187   8.229   1.873   3.867  0.7673 -0.0154  0.0791
  965MOL0     C30188   7.958   1.806   3.922 -0.3773  0.5104  0.0431
  965MOL0     C30189   7.815   1.752   3.911  0.2239  0.2222  0.3186
  965MOL0     N30190   7.203   1.402   4.113  0.2059  0.3703 -0.7779
  965MOL0     N30191   7.105   1.383   4.196 -0.8526  0.2475 -0.1786
  965MOL0     C30192   5.944   1.574   4.187  0.1852 -0.6107  0.0743
  965MOL0     C30193   5.812   1.617   4.190 -0.1937  0.4930 -0.0016
  965MOL0     C30194   5.335   1.605   4.120  0.8580 -0.1547  0.2572
  965MOL0     C30195   5.219   1.534   4.080  0.3212  0.2515  0.2108
  965MOL0     C30196   5.093   1.583   4.116  0.2870 -0.5908  0.6716
  965MOL0     C30197   5.084   1.711   4.174  0.0776  0.2380 -0.3423
  965MOL0     O30198   4.968   1.778   4.218  0.3581  0.3017  0.5359
  965MOL0     C30199   4.853   1.704   4.238  0.2095 -0.0506 -0.7847
  965MOL0     C30200   4.744   1.811   4.280  0.1213  0.3638  0.2741
  965MOL0     C30201   4.671   1.862   4.162  0.9933 -0.0932 -0.7605
  965MOL0     C30202   4.621   2.004   4.176  0.4367  0.0565 -0.1481
  965MOL0     C30203   4.534   2.045   4.073  0.3904 -0.7502  0.0469
  965MOL0     C30204   4.446   2.088   4.002  0.1504 -0.7263 -0.6273
  965MOL0     C30205   5.198   1.784   4.209 -0.4433 -0.1469  0.5930
  965MOL0     C30206   5.327   1.737   4.180 -1.7606  0.7236  0.8820
  965MOL0     C30207   5.450   1.820   4.218 -0.6519  0.7220 -0.7434
  965MOL0     H30208   5.682   1.366   3.989  0.7340  2.3658 -2.9373
  965MOL0     H30209   5.895   1.309   3.965 -3.3440 -0.3277 -0.8324
  965MOL0     H30210   6.147   1.435   4.301 -0.5513  1.3911 -1.7734
  965MOL0     H30211   6.101   1.271   4.240  0.3310 -0.5773  2.2183
  965MOL0     H30212   6.356   1.309   4.296 -1.8272 -0.2030  2.0933
  965MOL0     H30213   6.349   1.424   4.166  0.0968  0.1594  2.7486
  965MOL0     H30214   6.317   1.249   4.004 -1.3400 -0.9991 -0.0233
  965MOL0     H30215   6.223   1.151   4.120  0.5126 -0.7761 -2.7268
  965MOL0     H30216   6.431   1.105   4.249  0.2310 -1.4914 -0.1125
  965MOL0     H30217   6.406   1.028   4.091 -0.7431  0.5065 -1.6054
  965MOL0     H30218   6.628   1.073   4.077  0.7508  0.8847 -1.2052
  965MOL0     H30219   6.550   1.202   3.982 -2.6029 -1.0075 -0.1793
  965MOL0     H30220   6.562   1.360   4.153  1.4883  0.2720  3.7516
  965MOL0     H30221   6.625   1.245   4.270 -0.9119 -1.3026  0.0660
  965MOL0     H30222   6.754   1.331   4.001 -0.7882  0.9832 -0.6749
  965MOL0     H30223   6.813   1.202   4.098 -0.0327  0.7677  2.0473
  965MOL0     H30224   6.795   1.498   4.177  1.1560  1.4810  4.7437
  965MOL0     H30225   6.849   1.385   4.294  1.3968 -0.9321  0.7929
  965MOL0     H30226   6.948   1.492   3.927  2.7658  2.4198 -2.9199
  965MOL0     H30227   7.235   1.360   3.813 -3.3550 -0.6130 -0.4819
  965MOL0     H30228   7.178   1.516   3.782  0.5899 -1.4559 -1.0761
  965MOL0     H30229   7.378   1.529   4.002 -2.1681 -4.7571  1.5454
  965MOL0     H30230   7.432   1.432   3.871  2.1901 -0.3011  4.5923
  965MOL0     H30231   7.339   1.726   3.881  1.2325 -1.3444  4.0651
  965MOL0     H30232   7.374   1.658   3.727 -2.0681 -1.5052  0.2495
  965MOL0     H30233   7.611   1.599   3.827 -1.2350 -2.9952  4.2104
  965MOL0     H30234   7.559   1.676   3.980 -1.5966  3.7464  0.8843
  965MOL0     H30235   7.691   2.013   3.745 -1.1066 -1.8018  0.0614
  965MOL0     H30236   7.914   2.095   3.748 -1.9879  0.8590  1.9833
  965MOL0     H30237   8.343   2.240   3.766  0.9174 -2.4996 -2.1566
  965MOL0     H30238   8.581   2.284   3.832  2.4537  0.5075  2.9626
  965MOL0     H30239   8.645   2.331   4.261 -0.6621  0.6020 -1.0513
  965MOL0     H30240   8.660   2.158   4.274 -0.3853  1.1146  0.4692
  965MOL0     H30241   8.872   2.209   4.337  0.6205 -0.7865 -0.6341
  965MOL0     H30242   8.897   2.186   4.164 -0.7841 -1.1366  0.1828
  965MOL0     H30243   8.889   2.440   4.132  1.3318  2.9058  0.3313
  965MOL0     H30244   8.828   2.459   4.276 -1.2674  0.0362 -1.7481
  965MOL0     H30245   9.102   2.321   4.249 -2.0022 -2.4495 -0.2074
  965MOL0     H30246   9.039   2.392   4.399  1.0193 -1.4691 -0.4492
  965MOL0     H30247   9.062   2.609   4.321  1.3155  2.4561  0.0294
  965MOL0     H30248   9.049   2.577   4.156  0.5988  0.2666  0.4307
  965MOL0     H30249   9.303   2.493   4.328  0.8416  1.9781  0.4412
  965MOL0     H30250   9.285   2.487   4.154  0.7037 -1.0781  0.8915
  965MOL0     H30251   9.288   2.754   4.312  2.4929  0.7668 -0.9320
  965MOL0     H30252   9.256   2.724   4.130  0.3598  1.7168 -0.5289
  965MOL0     H30253   9.481   2.801   4.183  0.4118  0.1662 -0.3199
  965MOL0     H30254   9.503   2.652   4.273 -1.5482  2.1312  1.6704
  965MOL0     H30255   8.527   2.044   4.186 -0.9450 -1.8176 -0.5250
  965MOL0     H30256   8.293   2.017   4.149  0.1449 -1.6329 -0.2302
  965MOL0     H30257   8.032   1.751   3.979 -0.0457  2.3708  1.5456
  965MOL0     H30258   7.794   1.654   3.953 -0.8316 -0.0541 -0.7701
  965MOL0     H30259   6.021   1.631   4.239  0.8202 -0.8704 -0.5539
  965MOL0     H30260   5.789   1.693   4.264 -2.0691 -0.3307  0.3268
  965MOL0     H30261   5.229   1.437   4.033  3.3431  1.4137 -1.9244
  965MOL0     H30262   5.002   1.529   4.090 -0.4486 -0.4381  2.7391
  965MOL0     H30263   4.870   1.631   4.317 -0.3533 -0.5049 -1.0759
  965MOL0     H30264   4.827   1.652   4.145  1.2737  0.3753 -1.3394
  965MOL0     H30265   4.791   1.892   4.337  1.2389  0.7093 -1.1020
  965MOL0     H30266   4.668   1.763   4.343 -1.5446 -0.4941 -2.2248
  965MOL0     H30267   4.581   1.802   4.144 -0.5409  1.4668  1.2837
  965MOL0     H30268   4.742   1.864   4.079  2.1232 -0.6851  0.1560
  965MOL0     H30269   4.555   2.013   4.264  1.3273 -2.5462  0.8733
  965MOL0     H30270   4.705   2.073   4.181  1.4748 -1.2582  2.4145
  965MOL0     H30271   4.355   2.110   3.951 -2.0014 -3.0894  1.9218
  965MOL0     H30272   5.180   1.881   4.254  2.0490  0.0590  1.2840
  965MOL0     H30273   5.428   1.923   4.248  0.5902  0.8407 -0.1467
  965MOL0     H30274   5.500   1.792   4.311 -0.4960  4.1062  0.3327
  965MOL0     H30275   5.520   1.814   4.134  0.0927 -1.2155 -0.0388
  966MOL0     O30276   5.600   5.559  10.446 -0.3621 -0.3832 -0.0480
  966MOL0     C30277   5.532   5.623  10.372 -0.1251 -0.3869  0.3073
  966MOL0     O30278   5.584   5.710  10.270  0.1034 -0.1399  0.1226
  966MOL0     C30279   5.718   5.722  10.249 -0.1629 -0.6387 -0.6655
  966MOL0     C30280   5.779   5.629  10.171  0.0164  0.0882 -0.9254
  966MOL0     C30281   5.916   5.648  10.138  0.0804  0.1119  0.3471
  966MOL0     C30282   5.990   5.759  10.174  0.3849  0.3212 -0.3438
  966MOL0     O30283   6.116   5.772  10.121  0.3625 -0.1963 -0.9023
  966MOL0     C30284   6.196   5.890  10.152  0.8027 -0.4703  0.1367
  966MOL0     C30285   6.330   5.874  10.072 -0.2626 -0.1882  0.0002
  966MOL0     C30286   6.431   5.983  10.119  0.2437 -0.3473 -0.3710
  966MOL0     C30287   6.546   5.988  10.016  1.1350  0.0179 -0.4022
  966MOL0     C30288   6.653   6.076  10.079 -1.1798 -0.8746  0.5804
  966MOL0     C30289   6.746   6.025  10.196 -0.0638  0.0342 -0.4344
  966MOL0     C30290   6.861   6.119  10.239 -0.0154  0.6090 -0.1425
  966MOL0     C30291   6.960   6.148  10.133  0.4311  0.0998  0.1219
  966MOL0     N30292   7.060   6.244  10.177 -0.1258  0.5723  0.5906
  966MOL0     C30293   7.179   6.204  10.225 -0.1455 -0.0424  0.2077
  966MOL0     C30294   7.246   6.320  10.256  0.0069 -0.2297 -1.0755
  966MOL0     C30295   7.385   6.329  10.323  0.2736  0.1264 -0.7939
  966MOL0     C30296   7.448   6.475  10.320 -0.0530  0.1946 -0.1942
  966MOL0     C30297   7.591   6.487  10.372 -0.4904  0.7872 -0.1872
  966MOL0     C30298   7.702   6.438  10.278  0.3721  0.1660 -0.6429
  966MOL0     O30299   7.692   6.515  10.153 -0.2916 -0.0399 -0.2896
  966MOL0     C30300   7.783   6.501  10.054  0.9030  0.3868 -0.3993
  966MOL0     C30301   7.746   6.535   9.929 -0.0011  0.1385  0.1022
  966MOL0     C30302   7.841   6.526   9.819 -0.1346 -0.1195  0.2652
  966MOL0     C30303   7.975   6.489   9.833  0.3804  0.0564  0.7053
  966MOL0     C30304   8.056   6.476   9.709 -0.0408 -0.5111 -0.4645
  966MOL0     O30305   8.186   6.437   9.726 -0.2987  0.8713 -0.9248
  966MOL0     C30306   8.289   6.459   9.638  0.3270  0.0744 -0.0012
  966MOL0     C30307   8.316   6.585   9.592 -0.3875 -0.6011 -0.0842
  966MOL0     C30308   8.405   6.599   9.489  0.0511 -0.4930 -0.0110
  966MOL0     C30309   8.478   6.493   9.444 -0.7641  0.7648  0.1242
  966MOL0     O30310   8.587   6.520   9.366  0.6722 -0.6342  0.1286
  966MOL0     C30311   8.683   6.413   9.340 -0.0125  0.1671  0.6240
  966MOL0     C30312   8.785   6.431   9.449  0.2549 -0.2722  0.1688
  966MOL0     C30313   8.917   6.352   9.437 -0.9769  0.7451 -0.5860
  966MOL0     C30314   9.033   6.409   9.509  0.8964 -0.0071  0.1105
  966MOL0     C30315   9.163   6.332   9.488  0.2400 -0.3616 -0.0317
  966MOL0     C30316   9.214   6.322   9.351 -0.5087 -0.7664 -0.0438
  966MOL0     C30317   9.350   6.252   9.337 -0.3196  0.0468  0.2131
  966MOL0     C30318   9.418   6.280   9.207  0.2085 -0.6361  0.3276
  966MOL0    Cl30319   9.313   6.216   9.071 -0.1959 -0.0843  0.0806
  966MOL0     C30320   8.442   6.361   9.479 -0.0764  0.3961 -0.0314
  966MOL0     C30321   8.353   6.349   9.583 -0.5058 -0.1479 -0.9725
  966MOL0     O30322   8.012   6.530   9.606 -0.2617 -0.3803 -0.5375
  966MOL0     C30323   8.007   6.454   9.961  0.3181 -0.3470 -0.3398
  966MOL0     C30324   7.914   6.462  10.072 -0.0895  0.5504  0.1496
  966MOL0     N30325   7.154   6.428  10.227  0.0642  0.3924  0.5734
  966MOL0     N30326   7.042   6.380  10.191  0.2755  1.2331 -0.2033
  966MOL0     C30327   5.920   5.859  10.256 -0.1161  0.5328  0.4949
  966MOL0     C30328   5.787   5.826  10.299 -0.2291 -0.2876 -0.5317
  966MOL0     C30329   5.386   5.619  10.389 -0.8168 -0.7754 -0.2050
  966MOL0     C30330   5.317   5.498  10.374  0.8986  0.2920  0.2374
  966MOL0     C30331   5.178   5.492  10.402 -0.5543 -0.4298  0.8326
  966MOL0     C30332   5.113   5.608  10.423  0.0926 -0.6731  0.5641
  966MOL0     O30333   4.976   5.591  10.437 -0.3462  0.0664  0.5495
  966MOL0     C30334   4.881   5.701  10.467  0.3841  0.2468  0.5031
  966MOL0     C30335   4.891   5.748  10.609 -0.5464 -0.2785 -0.4019
  966MOL0     C30336   4.828   5.879  10.631 -0.2959  0.0598  0.5772
  966MOL0     C30337   4.919   5.997  10.584  0.2896 -0.7176 -0.4185
  966MOL0     C30338   5.035   6.012  10.669  0.8708 -0.2239  0.0693
  966MOL0     C30339   5.139   6.013  10.731 -0.5426 -1.1772  0.1936
  966MOL0     C30340   5.175   5.732  10.424 -0.0265 -0.2894 -0.1555
  966MOL0     C30341   5.318   5.742  10.409 -0.1025 -0.2884  0.1313
  966MOL0     C30342   5.379   5.880  10.436 -1.0745 -1.5417  0.4774
  966MOL0     H30343   5.724   5.540  10.142  0.3668 -0.7166  0.7327
  966MOL0     H30344   5.961   5.577  10.069 -0.2945  0.1480  0.0642
  966MOL0     H30345   6.143   5.980  10.118  0.6820 -0.5349  0.1544
  966MOL0     H30346   6.214   5.891  10.260  1.2814 -1.3941  0.0749
  966MOL0     H30347   6.304   5.888   9.967 -0.1371  2.9660  0.2841
  966MOL0     H30348   6.374   5.776  10.094 -1.0009 -0.4417  0.3916
  966MOL0     H30349   6.461   5.942  10.216  1.9571 -0.7345 -1.0277
  966MOL0     H30350   6.372   6.074  10.123 -0.1790 -0.5830 -1.1816
  966MOL0     H30351   6.593   5.898   9.976  2.6464  0.5877 -0.0103
  966MOL0     H30352   6.501   6.030   9.925 -1.0855 -0.5962  0.3564
  966MOL0     H30353   6.726   6.092   9.999 -1.7309 -1.6189 -0.0838
  966MOL0     H30354   6.593   6.163  10.108 -1.4373 -0.6459 -0.5740
  966MOL0     H30355   6.697   6.002  10.291 -1.1722  1.4049 -0.6382
  966MOL0     H30356   6.791   5.929  10.169 -2.6457 -1.7855  1.2903
  966MOL0     H30357   6.909   6.068  10.323 -0.0276  1.0446  0.1282
  966MOL0     H30358   6.827   6.214  10.280 -0.2411  0.1280  0.8154
  966MOL0     H30359   7.022   6.063  10.105  2.6309  1.6533  0.0490
  966MOL0     H30360   6.916   6.187  10.041 -0.5102 -1.5586 -0.1616
  966MOL0     H30361   7.208   6.102  10.246  0.7433  0.8312  3.7708
  966MOL0     H30362   7.381   6.296  10.428 -0.9356 -2.0049 -1.4515
  966MOL0     H30363   7.449   6.258  10.270 -0.3879  0.7371 -2.4556
  966MOL0     H30364   7.440   6.518  10.220  0.2857 -3.6010 -2.0368
  966MOL0     H30365   7.393   6.539  10.389  0.8706 -1.6653  2.4519
  966MOL0     H30366   7.602   6.454  10.475 -0.2431 -2.0075 -1.0393
  966MOL0     H30367   7.617   6.593  10.382 -0.6396  0.8804 -0.7522
  966MOL0     H30368   7.698   6.332  10.250  2.6121 -0.0933 -0.1215
  966MOL0     H30369   7.804   6.448  10.315  0.7507  1.0508 -1.8701
  966MOL0     H30370   7.653   6.581   9.900  1.0810  2.4689  0.1522
  966MOL0     H30371   7.802   6.552   9.721 -0.0825 -0.0685  0.2577
  966MOL0     H30372   8.269   6.673   9.635 -0.1348 -0.5256  0.0444
  966MOL0     H30373   8.447   6.696   9.466 -0.3987 -0.9578 -3.1573
  966MOL0     H30374   8.648   6.310   9.335 -1.3479  0.6557 -2.5827
  966MOL0     H30375   8.731   6.432   9.244 -0.3610  0.1818  0.4521
  966MOL0     H30376   8.801   6.539   9.449  1.8098 -0.4823  0.2929
  966MOL0     H30377   8.736   6.401   9.542  1.0687  0.3442  0.8103
  966MOL0     H30378   8.907   6.250   9.473  0.5051  0.6819 -0.3234
  966MOL0     H30379   8.941   6.352   9.330 -1.9771  3.9159 -0.9473
  966MOL0     H30380   9.017   6.423   9.616  0.5080  2.8711 -0.2281
  966MOL0     H30381   9.051   6.512   9.477  3.1162  0.1800  1.7559
  966MOL0     H30382   9.146   6.229   9.522  1.3868 -0.3642  0.5838
  966MOL0     H30383   9.239   6.370   9.557  0.4195  0.0928 -0.4738
  966MOL0     H30384   9.141   6.275   9.285  0.8921  0.8343 -2.8978
  966MOL0     H30385   9.232   6.426   9.325 -2.5111 -0.5199 -0.6590
  966MOL0     H30386   9.345   6.144   9.353 -0.3233 -0.1209 -0.8458
  966MOL0     H30387   9.425   6.292   9.406 -1.0386  1.0057  0.4610
  966MOL0     H30388   9.434   6.388   9.199 -3.0325 -0.0812  0.2312
  966MOL0     H30389   9.512   6.224   9.201  0.4388 -0.2010 -0.2628
  966MOL0     H30390   8.478   6.271   9.430  0.8029 -0.2026  1.6531
  966MOL0     H30391   8.323   6.248   9.610 -0.2070 -0.3140 -1.2416
  966MOL0     H30392   8.105   6.409   9.978 -0.6461 -1.9471  1.3322
  966MOL0     H30393   7.943   6.420  10.168 -1.1101 -0.2863  0.1201
  966MOL0     H30394   5.973   5.950  10.283  0.7236  0.5187 -1.0183
  966MOL0     H30395   5.733   5.908  10.346 -0.7355 -0.0296 -1.5340
  966MOL0     H30396   5.371   5.408  10.346  1.9004  1.5505 -2.1975
  966MOL0     H30397   5.127   5.396  10.401  1.0155 -1.3080 -1.3624
  966MOL0     H30398   4.782   5.659  10.446  0.9191 -0.7664 -0.0510
  966MOL0     H30399   4.898   5.783  10.396 -1.2016  0.7579  0.6633
  966MOL0     H30400   4.997   5.747  10.636 -0.5076 -3.2284 -0.3921
  966MOL0     H30401   4.840   5.670  10.665  1.2848 -1.1479  0.1492
  966MOL0     H30402   4.795   5.890  10.734 -1.7007  1.6756  0.0102
  966MOL0     H30403   4.734   5.878  10.574  0.2535  3.4645 -0.6273
  966MOL0     H30404   4.950   5.991  10.479  2.8187 -0.6565  0.2573
  966MOL0     H30405   4.868   6.094  10.586  0.3267 -0.6325 -2.1056
  966MOL0     H30406   5.225   6.008  10.794  0.5715 -0.8765 -1.2577
  966MOL0     H30407   5.120   5.824  10.441 -0.0858 -0.7746  2.7116
  966MOL0     H30408   5.306   5.957  10.463 -0.9902 -2.4757  3.7905
  966MOL0     H30409   5.463   5.864  10.504  0.1800 -3.2910 -1.3857
  966MOL0     H30410   5.415   5.916  10.339  2.0832 -2.6726  1.0877
  967MOL0     O30411   0.069   8.340   1.588 -0.6667  0.5650  0.1820
  967MOL0     C30412   0.100   8.348   1.472  0.7472 -0.0212 -0.0621
  967MOL0     O30413   0.225   8.348   1.421 -1.0520 -0.1163  0.0560
  967MOL0     C30414   0.335   8.379   1.496  0.5895 -0.1212 -0.0287
  967MOL0     C30415   0.451   8.385   1.414 -0.4244  0.1197  0.0655
  967MOL0     C30416   0.574   8.392   1.476  0.2035  0.2093 -0.9656
  967MOL0     C30417   0.586   8.405   1.610  1.2750 -0.8338 -0.6529
  967MOL0     O30418   0.712   8.403   1.661  0.4489  0.4039  0.0972
  967MOL0     C30419   0.734   8.406   1.808 -0.4785 -0.3048  0.1498
  967MOL0     C30420   0.878   8.413   1.838 -0.1665  0.6859  0.5245
  967MOL0     C30421   0.978   8.306   1.784 -0.4713  0.4324 -0.2769
  967MOL0     C30422   1.116   8.327   1.855  0.1522  0.1374  0.3465
  967MOL0     C30423   1.226   8.255   1.781  1.0185  0.1551  0.6524
  967MOL0     C30424   1.356   8.246   1.850  0.1623  1.0348 -0.6255
  967MOL0     C30425   1.463   8.207   1.751 -0.0673 -0.8888 -0.4620
  967MOL0     C30426   1.451   8.067   1.695  0.2193 -0.1790 -1.1087
  967MOL0     N30427   1.572   8.027   1.627 -0.7734 -0.0617 -0.5727
  967MOL0     C30428   1.623   8.084   1.510 -0.3009  0.1239  0.0836
  967MOL0     C30429   1.705   7.987   1.456 -0.0667  0.1303 -0.2006
  967MOL0     C30430   1.780   7.979   1.329 -0.5296  0.2460  0.2962
  967MOL0     C30431   1.928   8.003   1.364 -0.0029  1.0210  0.2962
  967MOL0     C30432   2.003   7.872   1.408  0.6299  0.1065 -0.0719
  967MOL0     C30433   2.152   7.880   1.366  0.1884  0.6800 -0.0882
  967MOL0     O30434   2.222   7.984   1.437  0.2681 -0.2666 -0.1811
  967MOL0     C30435   2.363   7.990   1.427 -0.2220 -0.6103  0.2088
  967MOL0     C30436   2.420   8.088   1.508 -1.0781  1.1128  0.0119
  967MOL0     C30437   2.561   8.086   1.522 -0.3834 -0.2760 -0.0644
  967MOL0     C30438   2.644   7.993   1.465  0.4860  0.4322 -0.3315
  967MOL0     C30439   2.783   7.981   1.499 -0.9590 -0.7117  0.8116
  967MOL0     O30440   2.825   8.057   1.605 -0.0579 -0.4607 -0.0426
  967MOL0     C30441   2.967   8.087   1.620  0.3570  0.6255 -1.4532
  967MOL0     C30442   3.055   8.124   1.517 -0.3220  0.4311 -0.2195
  967MOL0     C30443   3.193   8.158   1.546  0.2195  0.8455 -0.4963
  967MOL0     C30444   3.241   8.130   1.672 -0.7943 -0.4334 -0.0381
  967MOL0     O30445   3.372   8.148   1.713  0.4834 -0.1715  0.5000
  967MOL0     C30446   3.466   8.169   1.607  0.1353 -0.3605  0.4185
  967MOL0     C30447   3.606   8.160   1.660 -0.2910 -0.0425  0.1064
  967MOL0     C30448   3.712   8.210   1.551 -1.4189 -0.4739  0.3389
  967MOL0     C30449   3.844   8.261   1.613 -0.4368  0.0208  0.6085
  967MOL0     C30450   3.920   8.155   1.698 -0.2715 -0.0976  0.1059
  967MOL0     C30451   3.963   8.028   1.609  0.1753 -0.9654  0.0510
  967MOL0     C30452   4.075   7.943   1.653 -0.3805  0.2909  0.7486
  967MOL0     C30453   4.109   7.837   1.547  0.2926  0.0460 -0.3729
  967MOL0    Cl30454   3.968   7.715   1.518  0.1741 -0.1254  0.1132
  967MOL0     C30455   3.161   8.080   1.767 -0.0908  0.8614 -1.3419
  967MOL0     C30456   3.023   8.059   1.745 -0.5089  0.1419 -0.0524
  967MOL0     O30457   2.860   7.922   1.422  0.4449  0.0320 -0.6336
  967MOL0     C30458   2.581   7.901   1.375  0.0537 -0.5013 -0.3025
  967MOL0     C30459   2.449   7.900   1.357  0.2589  0.8760 -0.7854
  967MOL0     N30460   1.696   7.875   1.537  0.1842  0.0057  0.3355
  967MOL0     N30461   1.624   7.904   1.641  0.3489 -0.0595 -0.3855
  967MOL0     C30462   0.471   8.425   1.690 -0.2285 -0.6270  0.6087
  967MOL0     C30463   0.345   8.412   1.631 -0.4035 -0.7028  0.2578
  967MOL0     C30464  -0.011   8.350   1.382  0.3854  0.6216  0.0657
  967MOL0     C30465   0.004   8.426   1.272  0.3399 -0.0856 -0.0075
  967MOL0     C30466  -0.106   8.451   1.194 -0.0159 -0.4367 -0.1512
  967MOL0     C30467  -0.231   8.382   1.211 -0.1911 -0.4159  0.1794
  967MOL0     O30468  -0.332   8.413   1.120  0.8219  0.2030 -0.3947
  967MOL0     C30469  -0.335   8.346   0.995  0.5962 -0.7392  1.1888
  967MOL0     C30470  -0.471   8.331   0.934 -0.1170 -0.1076  0.0486
  967MOL0     C30471  -0.549   8.217   0.994  1.2762  0.1255 -0.4844
  967MOL0     C30472  -0.691   8.214   0.922  0.3634 -0.5473  0.4789
  967MOL0     C30473  -0.804   8.196   1.016  0.6598  0.3545 -0.1560
  967MOL0     C30474  -0.898   8.184   1.096 -0.7455  1.3022  0.3256
  967MOL0     C30475  -0.239   8.297   1.311 -0.6814  0.1143 -0.1261
  967MOL0     C30476  -0.134   8.286   1.408 -0.1992  0.7579 -0.3139
  967MOL0     C30477  -0.156   8.174   1.513 -0.5324  0.5129  0.6032
  967MOL0     H30478   0.442   8.360   1.308 -0.0790 -1.2910  0.3478
  967MOL0     H30479   0.662   8.405   1.414  1.6021 -0.9220  0.6938
  967MOL0     H30480   0.684   8.491   1.855  0.8810  0.7042 -0.1743
  967MOL0     H30481   0.687   8.319   1.855 -4.8621  1.3585 -0.7123
  967MOL0     H30482   0.885   8.401   1.947  0.4066 -1.5723  0.2872
  967MOL0     H30483   0.914   8.511   1.806  0.5456  0.6246  1.1194
  967MOL0     H30484   0.998   8.320   1.678  2.9935  1.4732  0.3956
  967MOL0     H30485   0.946   8.203   1.802 -4.4250  1.5445 -0.0187
  967MOL0     H30486   1.137   8.435   1.858 -0.8968  0.3664 -0.1363
  967MOL0     H30487   1.108   8.286   1.956  0.0399 -1.7234 -0.3863
  967MOL0     H30488   1.190   8.156   1.756 -0.4786  0.7991  0.1453
  967MOL0     H30489   1.239   8.308   1.686 -0.5952 -0.2845  0.1498
  967MOL0     H30490   1.376   8.340   1.903 -3.1412  1.2467  0.4557
  967MOL0     H30491   1.352   8.177   1.935 -3.1022  1.9167  0.0694
  967MOL0     H30492   1.558   8.226   1.803 -2.0111  0.9665  2.7411
  967MOL0     H30493   1.463   8.278   1.667  1.3133  0.4890  0.6406
  967MOL0     H30494   1.422   7.995   1.771  1.9321 -1.6008 -1.7544
  967MOL0     H30495   1.375   8.066   1.616 -2.0668  1.5290  0.9196
  967MOL0     H30496   1.590   8.179   1.469  2.0742  2.4650  3.1191
  967MOL0     H30497   1.757   7.882   1.284 -0.4451 -0.1436  1.0645
  967MOL0     H30498   1.746   8.060   1.264 -1.9131  0.3269  1.0757
  967MOL0     H30499   1.990   8.039   1.280  3.3705 -3.9724  0.2290
  967MOL0     H30500   1.935   8.072   1.448 -3.0559  2.8614 -0.7944
  967MOL0     H30501   1.949   7.785   1.370 -0.8560  0.7625  0.4825
  967MOL0     H30502   1.985   7.862   1.515  0.0259 -0.5866 -0.2361
  967MOL0     H30503   2.156   7.899   1.258  1.3895 -1.0760 -0.3944
  967MOL0     H30504   2.211   7.788   1.374 -0.2710  0.4617  0.9483
  967MOL0     H30505   2.359   8.167   1.551 -4.3441  0.5806 -3.1447
  967MOL0     H30506   2.597   8.157   1.596 -0.9158  1.3445 -1.3063
  967MOL0     H30507   3.023   8.131   1.413 -1.2681  0.3987  0.0584
  967MOL0     H30508   3.252   8.181   1.458 -0.9197 -0.1461 -1.5530
  967MOL0     H30509   3.460   8.094   1.527  1.1193 -0.6763  0.6309
  967MOL0     H30510   3.439   8.267   1.566  1.2387 -0.8937 -1.7184
  967MOL0     H30511   3.621   8.215   1.753  1.1286  1.3682 -0.9010
  967MOL0     H30512   3.631   8.058   1.692 -2.6716 -0.1562  1.9217
  967MOL0     H30513   3.719   8.126   1.481 -1.6029 -1.1795  1.1575
  967MOL0     H30514   3.668   8.290   1.490  1.9076  0.0222 -1.6683
  967MOL0     H30515   3.834   8.351   1.674  1.6145 -0.1293  1.2350
  967MOL0     H30516   3.917   8.284   1.535  2.2961 -1.0406  2.6877
  967MOL0     H30517   3.851   8.125   1.778 -0.3473  0.4025  0.2280
  967MOL0     H30518   4.003   8.203   1.751 -3.0144  2.0588  2.8067
  967MOL0     H30519   3.874   7.965   1.593 -0.6245  0.4469 -1.3804
  967MOL0     H30520   3.991   8.071   1.513  1.2438  2.1618  1.6439
  967MOL0     H30521   4.051   7.889   1.745  0.5862 -0.0645  0.8019
  967MOL0     H30522   4.164   8.004   1.673  1.0190 -1.2523 -0.4321
  967MOL0     H30523   4.146   7.885   1.456  0.0044 -0.6862 -0.8927
  967MOL0     H30524   4.191   7.775   1.585  0.0236 -1.3084 -1.8902
  967MOL0     H30525   3.198   8.050   1.865 -3.7788 -0.4353 -0.2112
  967MOL0     H30526   2.955   8.020   1.820  0.8770 -1.5371  0.3966
  967MOL0     H30527   2.629   7.828   1.311 -0.0494 -0.4343 -0.4542
  967MOL0     H30528   2.411   7.824   1.289  1.6474 -1.3715  0.8352
  967MOL0     H30529   0.473   8.452   1.795 -0.6350  3.5363 -0.2831
  967MOL0     H30530   0.258   8.415   1.696 -0.1741  2.0545  0.5665
  967MOL0     H30531   0.086   8.495   1.258  0.2861  0.2802  1.3164
  967MOL0     H30532  -0.097   8.537   1.128  2.3891  0.4975  1.2641
  967MOL0     H30533  -0.277   8.254   0.995  2.2796  0.2639 -0.7331
  967MOL0     H30534  -0.280   8.412   0.928  0.1314 -3.7000 -2.4380
  967MOL0     H30535  -0.464   8.298   0.829 -0.1337  0.0863 -0.0123
  967MOL0     H30536  -0.534   8.420   0.935 -2.4917 -1.6786 -0.4769
  967MOL0     H30537  -0.569   8.233   1.100  0.2034  3.1783 -1.0329
  967MOL0     H30538  -0.500   8.120   0.985  2.4913  0.5316  1.3108
  967MOL0     H30539  -0.707   8.309   0.868 -0.8731  1.6666  4.3366
  967MOL0     H30540  -0.693   8.145   0.837  0.7315 -0.1815  0.1665
  967MOL0     H30541  -0.982   8.170   1.161 -2.0203 -2.8205 -1.8128
  967MOL0     H30542  -0.337   8.252   1.322 -1.0776  1.2025  1.0547
  967MOL0     H30543  -0.104   8.082   1.489  0.4657  0.9036  1.1992
  967MOL0     H30544  -0.118   8.206   1.610 -3.0958  2.3114  1.1295
  967MOL0     H30545  -0.264   8.156   1.513 -0.5531  0.4295 -1.5539
  968MOL0     O30546   8.091   6.096   8.102 -0.6900 -0.3348  0.5093
  968MOL0     C30547   8.021   6.172   8.042 -0.0350 -0.2525  0.9612
  968MOL0     O30548   8.069   6.280   7.971 -0.0159  0.4650  0.2726
  968MOL0     C30549   8.206   6.300   7.958  0.5832 -0.2917 -0.4887
  968MOL0     C30550   8.259   6.429   7.998  0.0192 -0.2515  0.5952
  968MOL0     C30551   8.395   6.447   7.998  0.6675  0.3935 -0.1369
  968MOL0     C30552   8.483   6.347   7.964  0.1142 -0.0185  0.6447
  968MOL0     O30553   8.615   6.361   7.942 -0.1459 -0.1812 -0.3699
  968MOL0     C30554   8.675   6.492   7.964 -0.2904 -0.0124  0.3026
  968MOL0     C30555   8.818   6.482   7.900  0.3159  0.3405  0.4922
  968MOL0     C30556   8.835   6.432   7.752  1.4360  0.1577  0.2444
  968MOL0     C30557   8.805   6.540   7.648  0.4469  0.5495 -0.2685
  968MOL0     C30558   8.821   6.495   7.497 -0.1132 -1.2467 -0.1566
  968MOL0     C30559   8.689   6.447   7.429 -0.0627 -0.1274  0.1104
  968MOL0     C30560   8.632   6.313   7.467  0.4730 -0.7171 -0.4224
  968MOL0     C30561   8.510   6.289   7.378  0.7148  0.1749 -0.5395
  968MOL0     N30562   8.401   6.383   7.420  0.3886  0.1279 -0.0441
  968MOL0     C30563   8.361   6.410   7.545 -0.2556  0.3392 -0.8513
  968MOL0     C30564   8.277   6.518   7.542  0.0556 -0.2386  0.4626
  968MOL0     C30565   8.222   6.587   7.664  0.6421  0.2244 -1.0089
  968MOL0     C30566   8.341   6.673   7.730 -0.1396  0.2384  0.7996
  968MOL0     C30567   8.399   6.771   7.625  0.8115  0.3749  0.0288
  968MOL0     C30568   8.482   6.887   7.679 -0.0379  0.2926 -0.3062
  968MOL0     O30569   8.597   6.839   7.762  0.5242 -0.2735  0.2321
  968MOL0     C30570   8.659   6.941   7.825  0.0345  0.1814  0.3055
  968MOL0     C30571   8.738   6.897   7.928 -0.5412 -0.0973 -0.2902
  968MOL0     C30572   8.805   6.999   7.999 -0.3329 -0.4633 -0.6325
  968MOL0     C30573   8.805   7.138   7.973 -0.7749 -0.0707 -0.7605
  968MOL0     C30574   8.883   7.238   8.056  0.0417 -0.6387  0.7150
  968MOL0     O30575   8.964   7.194   8.158 -0.0848  0.4922  0.0219
  968MOL0     C30576   9.071   7.275   8.201 -0.6132  0.4945  0.5958
  968MOL0     C30577   9.207   7.265   8.149 -0.1597 -0.5681 -0.8395
  968MOL0     C30578   9.320   7.339   8.199  0.8764 -0.5056  0.1832
  968MOL0     C30579   9.293   7.429   8.300  0.7415  0.0769 -0.9973
  968MOL0     O30580   9.396   7.517   8.318 -1.2329 -0.5101 -0.2834
  968MOL0     C30581   9.380   7.647   8.364  1.7332 -0.2941  0.4508
  968MOL0     C30582   9.336   7.735   8.242 -0.7192 -1.1798 -0.3729
  968MOL0     C30583   9.455   7.770   8.163 -0.4918 -0.3563  0.1836
  968MOL0     C30584   9.410   7.814   8.015 -0.3465 -0.0218 -0.6547
  968MOL0     C30585   9.539   7.843   7.929 -0.6063 -0.0051 -0.3491
  968MOL0     C30586   9.590   7.984   7.948  0.2814 -0.3998  0.9165
  968MOL0     C30587   9.668   8.009   7.819 -0.2612 -0.5820  0.6972
  968MOL0     C30588   9.787   7.917   7.793 -0.1712  0.0538  1.2075
  968MOL0    Cl30589   9.901   7.898   7.930  0.5191 -0.1962 -0.1478
  968MOL0     C30590   9.171   7.419   8.369 -0.5941 -0.1681  0.2928
  968MOL0     C30591   9.066   7.344   8.321 -0.0379 -0.5018  0.2474
  968MOL0     O30592   8.856   7.360   8.029 -0.7819 -0.3119  0.1322
  968MOL0     C30593   8.714   7.180   7.873 -0.0472 -0.4236  0.7523
  968MOL0     C30594   8.649   7.079   7.794 -0.2478  0.0554  0.6328
  968MOL0     N30595   8.262   6.554   7.411 -0.4485  0.2284  0.5651
  968MOL0     N30596   8.338   6.474   7.339  0.4595  0.2219 -0.6955
  968MOL0     C30597   8.426   6.229   7.918  0.3594 -0.5624  0.0273
  968MOL0     C30598   8.294   6.200   7.919 -0.5798  0.1749 -0.3967
  968MOL0     C30599   7.877   6.138   8.028  0.2496 -0.9512 -0.4294
  968MOL0     C30600   7.806   6.232   7.953 -0.4108  0.4593  1.2884
  968MOL0     C30601   7.667   6.215   7.940 -0.0692 -0.5064 -0.0605
  968MOL0     C30602   7.597   6.107   7.998  0.0277  0.0797  0.5739
  968MOL0     O30603   7.458   6.126   7.997 -0.1271 -0.9433 -0.0521
  968MOL0     C30604   7.373   6.046   8.083  0.2209 -1.0586  0.1771
  968MOL0     C30605   7.224   6.086   8.085 -0.0053 -0.1254 -0.1044
  968MOL0     C30606   7.141   5.991   8.169 -0.3765  0.1915 -0.0183
  968MOL0     C30607   6.995   6.006   8.130 -0.2742  0.1882 -0.5557
  968MOL0     C30608   6.936   6.136   8.149 -0.3227 -0.0581  0.7319
  968MOL0     C30609   6.875   6.242   8.164 -0.3546 -0.0266 -0.0905
  968MOL0     C30610   7.664   6.009   8.065 -0.1124 -0.3478 -0.1846
  968MOL0     C30611   7.801   6.025   8.082 -0.1682 -0.0082  0.3832
  968MOL0     C30612   7.881   5.910   8.129  0.0588 -0.7329 -0.7750
  968MOL0     H30613   8.205   6.518   8.029  1.0404  0.2647  0.9263
  968MOL0     H30614   8.434   6.532   8.054  1.1035 -0.1835  0.4514
  968MOL0     H30615   8.612   6.560   7.907 -2.2258 -1.9231  0.0150
  968MOL0     H30616   8.678   6.518   8.070 -1.5753  2.4802 -0.2126
  968MOL0     H30617   8.875   6.417   7.968  0.8376  0.6156  0.3176
  968MOL0     H30618   8.863   6.581   7.897  0.8906  0.0767 -3.0773
  968MOL0     H30619   8.763   6.350   7.747 -1.7296  2.7849 -0.3611
  968MOL0     H30620   8.935   6.389   7.737  1.4496  0.2391  0.0921
  968MOL0     H30621   8.704   6.580   7.653  0.9393  1.8421 -0.3483
  968MOL0     H30622   8.872   6.623   7.673  0.1917  0.9841 -1.0039
  968MOL0     H30623   8.841   6.586   7.440 -0.7079 -0.1275  1.3477
  968MOL0     H30624   8.911   6.436   7.480  3.3142  3.5793 -1.0378
  968MOL0     H30625   8.623   6.534   7.438  1.8948  1.2988  1.5931
  968MOL0     H30626   8.700   6.439   7.320  0.1180  0.7902  0.0480
  968MOL0     H30627   8.596   6.315   7.570  0.9862 -0.1122 -0.2469
  968MOL0     H30628   8.711   6.238   7.458 -0.4592 -1.6650 -0.9107
  968MOL0     H30629   8.532   6.297   7.271  0.1919 -1.9594 -0.8552
  968MOL0     H30630   8.479   6.188   7.403 -1.3148  1.5657  3.3809
  968MOL0     H30631   8.397   6.360   7.634 -2.1738 -0.4391 -0.4474
  968MOL0     H30632   8.128   6.631   7.629 -0.6840 -1.2808  0.4390
  968MOL0     H30633   8.186   6.508   7.731  2.3962 -0.2575 -0.5718
  968MOL0     H30634   8.308   6.726   7.820  0.2655  0.2905  0.9234
  968MOL0     H30635   8.422   6.611   7.769  1.1016  1.8589  0.9501
  968MOL0     H30636   8.309   6.822   7.590 -0.0451  0.3029  2.0056
  968MOL0     H30637   8.460   6.719   7.550  1.5216  3.0530 -1.3861
  968MOL0     H30638   8.414   6.943   7.743 -1.8032 -1.6262 -0.3969
  968MOL0     H30639   8.516   6.930   7.585 -3.0569 -1.6462 -2.4567
  968MOL0     H30640   8.751   6.793   7.957  2.8130 -0.1448 -1.6088
  968MOL0     H30641   8.863   6.961   8.083  1.9281  4.1833  0.2545
  968MOL0     H30642   9.219   7.201   8.062 -1.8353 -1.5409 -0.3903
  968MOL0     H30643   9.412   7.327   8.143  1.6467  0.3768  1.2090
  968MOL0     H30644   9.303   7.656   8.441 -1.5729 -1.3681 -2.4654
  968MOL0     H30645   9.470   7.686   8.411  1.5109 -3.0744  3.5785
  968MOL0     H30646   9.268   7.681   8.175  0.8418 -1.0715 -2.1314
  968MOL0     H30647   9.291   7.823   8.288  1.8158 -0.9085  1.8128
  968MOL0     H30648   9.521   7.844   8.210  0.4391  1.4514 -3.5707
  968MOL0     H30649   9.518   7.682   8.150 -1.6194 -0.7754 -4.1048
  968MOL0     H30650   9.337   7.896   8.014 -1.5093 -1.0237 -2.4669
  968MOL0     H30651   9.348   7.734   7.975 -2.1315 -1.3088  3.9699
  968MOL0     H30652   9.508   7.832   7.824  0.7908  0.7780 -0.8790
  968MOL0     H30653   9.616   7.768   7.950 -1.5176 -0.5682  1.1220
  968MOL0     H30654   9.504   8.051   7.947 -0.0316 -0.7947 -0.0297
  968MOL0     H30655   9.637   8.011   8.043  0.4374  2.0404  0.2135
  968MOL0     H30656   9.709   8.110   7.831  0.3640 -0.8265  0.6279
  968MOL0     H30657   9.600   8.015   7.733  1.0745  2.0244 -0.2912
  968MOL0     H30658   9.759   7.814   7.770  3.3718 -0.3544 -2.2336
  968MOL0     H30659   9.842   7.952   7.706  0.9531 -1.4326  1.2791
  968MOL0     H30660   9.137   7.476   8.455  0.5401 -1.8464  1.9172
  968MOL0     H30661   8.973   7.334   8.377  0.8069 -3.2153  1.3091
  968MOL0     H30662   8.700   7.287   7.857  0.3996 -0.4141  0.4184
  968MOL0     H30663   8.595   7.123   7.711 -1.8108  0.9509  2.0525
  968MOL0     H30664   8.503   6.162   7.879  1.2139  0.8714 -0.8466
  968MOL0     H30665   8.266   6.102   7.882  1.0163 -0.1710 -0.7498
  968MOL0     H30666   7.850   6.317   7.903 -0.7782  0.2654  0.6212
  968MOL0     H30667   7.621   6.283   7.869  2.1429  0.8744 -0.2671
  968MOL0     H30668   7.412   6.061   8.184  2.8267  0.7130 -0.9863
  968MOL0     H30669   7.399   5.943   8.057  2.5303 -0.5097  0.1386
  968MOL0     H30670   7.183   6.090   7.984 -0.4210 -1.1404  0.0073
  968MOL0     H30671   7.211   6.185   8.131  0.5641 -1.1842  2.4980
  968MOL0     H30672   7.150   6.021   8.274 -0.2927 -0.2820  0.1130
  968MOL0     H30673   7.173   5.888   8.153 -0.2750  0.1054  0.6886
  968MOL0     H30674   6.982   5.981   8.024  2.4311  2.4036 -1.5292
  968MOL0     H30675   6.947   5.927   8.188  1.3667 -0.8822 -0.5904
  968MOL0     H30676   6.822   6.335   8.176 -2.1298 -0.8685 -0.9667
  968MOL0     H30677   7.617   5.919   8.101 -0.2462 -0.9973 -1.8959
  968MOL0     H30678   7.819   5.823   8.153  0.2711 -0.0635  2.7039
  968MOL0     H30679   7.964   5.881   8.064 -0.4085 -2.4374 -0.6702
  968MOL0     H30680   7.911   5.931   8.232 -1.8649 -0.8430 -0.1440
  969MOL0     O30681  10.067   7.032   9.208  0.4930 -0.6144 -0.6885
  969MOL0     C30682  10.033   6.917   9.239  0.3905  0.5625  0.6369
  969MOL0     O30683  10.120   6.807   9.222 -0.0502 -0.0311  0.2950
  969MOL0     C30684  10.245   6.834   9.162 -0.2951 -0.6143  0.3223
  969MOL0     C30685  10.295   6.743   9.066  0.4696 -0.0294 -0.0833
  969MOL0     C30686  10.430   6.743   9.025 -1.0011 -0.0407  0.4069
  969MOL0     C30687  10.513   6.842   9.080 -0.3400  0.0431 -0.1890
  969MOL0     O30688  10.642   6.870   9.035  0.0146 -0.1466 -0.0254
  969MOL0     C30689  10.693   6.782   8.928  0.6428  0.1817  0.2454
  969MOL0     C30690  10.834   6.823   8.905  0.0133  0.1705 -0.1781
  969MOL0     C30691  10.897   6.760   8.783  0.0030  0.8014 -0.0766
  969MOL0     C30692  11.046   6.765   8.773 -0.2687  0.1459  0.2349
  969MOL0     C30693  11.094   6.687   8.650 -0.3540  0.0933  1.0838
  969MOL0     C30694  11.234   6.729   8.614  0.0120  0.4560  0.5265
  969MOL0     C30695  11.279   6.656   8.487 -0.5035  0.0480 -0.7432
  969MOL0     C30696  11.386   6.729   8.401 -0.6322  0.2999 -0.2610
  969MOL0     N30697  11.516   6.772   8.465 -0.1084  0.4996 -0.4274
  969MOL0     C30698  11.598   6.700   8.547 -0.1910 -0.1565  0.8008
  969MOL0     C30699  11.708   6.782   8.561  0.7762 -0.3874 -0.0846
  969MOL0     C30700  11.819   6.764   8.664 -0.4366 -0.0497  0.1201
  969MOL0     C30701  11.945   6.710   8.589 -0.0384  0.7783 -0.1241
  969MOL0     C30702  12.070   6.727   8.677  0.2958 -1.0470  0.8648
  969MOL0     C30703  12.185   6.647   8.620 -0.0562 -0.1015 -0.1445
  969MOL0     O30704  12.303   6.686   8.692  0.6289  0.7480 -0.7707
  969MOL0     C30705  12.422   6.619   8.664 -0.1473 -0.6792  0.0366
  969MOL0     C30706  12.540   6.651   8.733 -0.3919 -0.5901  0.4732
  969MOL0     C30707  12.652   6.575   8.715 -0.4315  0.1284  0.5028
  969MOL0     C30708  12.657   6.467   8.622  0.2377 -0.2216 -0.5448
  969MOL0     C30709  12.788   6.395   8.614  0.0653 -1.0220 -0.3318
  969MOL0     O30710  12.897   6.448   8.669 -0.3535  0.0591  0.4223
  969MOL0     C30711  13.016   6.384   8.692 -0.0760 -0.3180  0.0922
  969MOL0     C30712  13.072   6.291   8.597  0.3008  1.2183  0.9531
  969MOL0     C30713  13.201   6.233   8.632  0.7475  0.1051  0.1481
  969MOL0     C30714  13.269   6.257   8.751 -0.8815  0.5603 -0.4592
  969MOL0     O30715  13.381   6.184   8.786 -0.2376  0.4201  0.0413
  969MOL0     C30716  13.425   6.170   8.919 -0.8358 -0.1414 -0.7031
  969MOL0     C30717  13.518   6.051   8.956  0.0346 -0.4103  0.2906
  969MOL0     C30718  13.661   6.059   8.902  0.0781 -0.2290  1.0244
  969MOL0     C30719  13.739   5.932   8.904 -0.0977 -0.6729 -0.1586
  969MOL0     C30720  13.865   5.962   8.822  0.2825 -0.4979  0.1063
  969MOL0     C30721  13.959   5.846   8.843  0.3652  0.6639  0.3517
  969MOL0     C30722  14.097   5.859   8.768 -0.8171 -0.3596  0.5367
  969MOL0     C30723  14.083   5.856   8.616 -0.0598  0.2468 -0.4514
  969MOL0    Cl30724  14.025   5.689   8.564  0.2552 -0.1274 -0.2941
  969MOL0     C30725  13.214   6.349   8.841 -0.1724 -0.7486 -0.0881
  969MOL0     C30726  13.088   6.409   8.807 -0.8011  0.2905  0.4059
  969MOL0     O30727  12.782   6.287   8.549 -0.0548 -0.2075  0.0627
  969MOL0     C30728  12.541   6.434   8.552 -0.6044 -0.6201 -0.4884
  969MOL0     C30729  12.427   6.503   8.577 -0.1319  0.7715 -0.2424
  969MOL0     N30730  11.693   6.902   8.491  0.1642  0.6216  0.3941
  969MOL0     N30731  11.577   6.891   8.434 -0.8539  0.3132  0.5402
  969MOL0     C30732  10.462   6.935   9.173 -0.2331 -0.0942 -0.0649
  969MOL0     C30733  10.331   6.931   9.218 -0.4942 -0.5389 -0.1468
  969MOL0     C30734   9.893   6.903   9.264 -0.0138 -0.2683  0.1241
  969MOL0     C30735   9.802   7.011   9.235  0.7722  0.7722  0.3312
  969MOL0     C30736   9.663   6.999   9.237 -0.4541 -0.2938 -0.0313
  969MOL0     C30737   9.614   6.876   9.274  0.0169 -0.2533  0.0331
  969MOL0     O30738   9.472   6.864   9.269 -0.0065  0.6808 -0.4279
  969MOL0     C30739   9.411   6.743   9.323  0.5759 -0.8053 -0.1168
  969MOL0     C30740   9.263   6.753   9.349  0.4103 -0.2987  0.4067
  969MOL0     C30741   9.236   6.789   9.504  0.5571 -0.3443  0.5883
  969MOL0     C30742   9.293   6.915   9.553 -0.6586 -0.0716 -0.4562
  969MOL0     C30743   9.243   6.946   9.688 -0.4533 -0.4340  1.2809
  969MOL0     C30744   9.224   6.960   9.800 -0.4542 -0.5214 -0.7853
  969MOL0     C30745   9.693   6.767   9.293 -0.0891 -0.6768  0.4710
  969MOL0     C30746   9.835   6.778   9.285 -0.3136  0.1871  0.5812
  969MOL0     C30747   9.902   6.642   9.316  0.4925 -0.3122  0.3420
  969MOL0     H30748  10.227   6.669   9.024  0.8352 -0.5358  0.2155
  969MOL0     H30749  10.466   6.675   8.948  1.9414  0.7234  0.9698
  969MOL0     H30750  10.691   6.681   8.971  1.6016  0.8773  1.9895
  969MOL0     H30751  10.631   6.784   8.838 -1.6028  1.9743  1.7436
  969MOL0     H30752  10.893   6.798   8.994  0.0324 -1.2637 -0.5591
  969MOL0     H30753  10.848   6.928   8.878  3.4549  0.4271  2.0388
  969MOL0     H30754  10.841   6.798   8.698 -3.5317  0.3379  1.8655
  969MOL0     H30755  10.867   6.655   8.780  0.2410  0.7566 -1.1915
  969MOL0     H30756  11.087   6.866   8.772 -0.5053  0.3232 -3.1880
  969MOL0     H30757  11.088   6.717   8.862 -1.8218  0.5047  1.1956
  969MOL0     H30758  11.085   6.579   8.660  0.4758 -0.0114  0.7497
  969MOL0     H30759  11.032   6.717   8.565  1.3007 -1.1035 -0.6238
  969MOL0     H30760  11.226   6.832   8.577 -1.0886 -1.2800 -4.8954
  969MOL0     H30761  11.314   6.723   8.689  1.3232  0.3779 -0.8289
  969MOL0     H30762  11.202   6.629   8.414 -0.2213  2.0176 -1.8307
  969MOL0     H30763  11.313   6.558   8.522 -0.3044  0.7613  1.1552
  969MOL0     H30764  11.412   6.665   8.316  2.2673  3.1249 -1.6968
  969MOL0     H30765  11.342   6.820   8.359  1.7774  1.9644  0.6157
  969MOL0     H30766  11.587   6.606   8.600 -1.1530  0.6208  2.0275
  969MOL0     H30767  11.837   6.867   8.697 -0.7903  0.4667 -1.2242
  969MOL0     H30768  11.783   6.706   8.749 -3.9268  3.1645  1.1056
  969MOL0     H30769  11.925   6.603   8.580  2.5413  0.1691  0.5724
  969MOL0     H30770  11.959   6.764   8.494 -0.6381  0.0271 -0.6546
  969MOL0     H30771  12.062   6.693   8.781  0.9704 -1.9541  0.6300
  969MOL0     H30772  12.100   6.832   8.684 -0.4850 -0.5820 -1.6952
  969MOL0     H30773  12.190   6.669   8.513 -0.5960  1.4900  0.1147
  969MOL0     H30774  12.160   6.543   8.638 -0.3205  0.1061  0.7517
  969MOL0     H30775  12.549   6.738   8.798 -3.0725  0.1188  0.0117
  969MOL0     H30776  12.738   6.586   8.780  0.7736 -1.4032 -0.7418
  969MOL0     H30777  13.028   6.273   8.499  0.6652  4.2551  0.1275
  969MOL0     H30778  13.247   6.175   8.553  1.2303 -0.1058  0.5765
  969MOL0     H30779  13.464   6.264   8.960 -0.1509 -1.3970  1.6820
  969MOL0     H30780  13.341   6.150   8.986 -0.5402 -0.5951 -0.4650
  969MOL0     H30781  13.516   6.051   9.065 -2.3726 -3.3272  0.3770
  969MOL0     H30782  13.466   5.966   8.911 -2.3763  0.8243  0.5407
  969MOL0     H30783  13.636   6.094   8.802 -0.8212 -0.8006  1.0454
  969MOL0     H30784  13.713   6.132   8.966 -0.7308 -1.0474  2.6537
  969MOL0     H30785  13.677   5.855   8.858 -0.1004 -0.5052 -0.4372
  969MOL0     H30786  13.762   5.903   9.007 -0.6953 -1.5921 -0.2671
  969MOL0     H30787  13.909   6.056   8.857 -2.9895  0.1992  2.9145
  969MOL0     H30788  13.845   5.971   8.715 -1.5301 -3.4181  0.1006
  969MOL0     H30789  13.977   5.834   8.950  1.0652  0.0170  0.1704
  969MOL0     H30790  13.912   5.751   8.817  1.8839 -0.4895  1.6064
  969MOL0     H30791  14.164   5.780   8.805  2.5102  2.1984  0.4082
  969MOL0     H30792  14.148   5.950   8.799 -0.6133 -0.3286  0.1209
  969MOL0     H30793  14.013   5.933   8.583  0.3265  0.8814  0.2101
  969MOL0     H30794  14.178   5.870   8.563  0.2478  1.2165  0.3395
  969MOL0     H30795  13.252   6.381   8.937 -1.6537  1.1596 -0.0744
  969MOL0     H30796  13.062   6.487   8.877  2.2143  0.3984  1.5842
  969MOL0     H30797  12.542   6.349   8.484  1.1810 -1.1473  0.1405
  969MOL0     H30798  12.342   6.451   8.533  0.6492 -0.0468 -0.8198
  969MOL0     H30799  10.530   7.006   9.220  0.3720 -0.4594 -0.3719
  969MOL0     H30800  10.302   6.992   9.303  1.6000  0.9222 -0.4231
  969MOL0     H30801   9.847   7.104   9.202  0.5604  0.1966 -1.6697
  969MOL0     H30802   9.592   7.079   9.218  0.1090 -0.1509 -1.7259
  969MOL0     H30803   9.462   6.733   9.419  0.2073  1.7060  0.3980
  969MOL0     H30804   9.427   6.654   9.261  0.3837 -0.7016 -0.3187
  969MOL0     H30805   9.221   6.654   9.329 -1.1618  0.4678 -0.2770
  969MOL0     H30806   9.221   6.822   9.275 -0.6692 -3.1143 -1.7900
  969MOL0     H30807   9.281   6.704   9.557 -0.2233 -3.0914 -2.7490
  969MOL0     H30808   9.127   6.789   9.511  0.4463  1.4138 -0.6526
  969MOL0     H30809   9.401   6.901   9.548 -0.7711 -1.0920 -0.2912
  969MOL0     H30810   9.265   7.004   9.496 -0.5724  0.1599 -0.1396
  969MOL0     H30811   9.210   6.972   9.906 -0.0996  2.3816 -1.0041
  969MOL0     H30812   9.654   6.668   9.313  0.2820 -1.7726 -3.5060
  969MOL0     H30813   9.950   6.646   9.414  0.1606 -0.4185  0.5086
  969MOL0     H30814   9.829   6.561   9.312 -1.1231  1.1293 -0.8529
  969MOL0     H30815   9.981   6.627   9.242 -1.9456 -2.7711 -1.9792
  970MOL0     O30816   4.072   2.661   2.351  0.2224  0.6116  0.2266
  970MOL0     C30817   4.090   2.691   2.465  0.1178  0.4887  0.6129
  970MOL0     O30818   4.199   2.662   2.526 -0.2381 -0.7906  0.1973
  970MOL0     C30819   4.293   2.586   2.467 -0.0458  0.6573  1.2686
  970MOL0     C30820   4.330   2.456   2.513  0.6120 -0.1664  0.0515
  970MOL0     C30821   4.433   2.382   2.462  0.3750 -0.2508  0.2812
  970MOL0     C30822   4.509   2.429   2.352  0.5244 -0.2086  0.1075
  970MOL0     O30823   4.598   2.346   2.301 -0.3852  0.0264 -0.2006
  970MOL0     C30824   4.574   2.279   2.170 -0.9762  0.3332  0.6644
  970MOL0     C30825   4.701   2.248   2.086  0.3909  0.5714 -0.1619
  970MOL0     C30826   4.774   2.134   2.148 -0.0394 -0.0533 -0.2696
  970MOL0     C30827   4.888   2.090   2.065 -0.2888  0.8735 -0.2891
  970MOL0     C30828   4.840   2.003   1.950  0.6392 -0.5810 -0.1668
  970MOL0     C30829   4.945   1.989   1.843 -0.0416  0.1376 -0.2949
  970MOL0     C30830   5.081   1.913   1.882  0.3580 -0.1475  0.0177
  970MOL0     C30831   5.056   1.779   1.950 -0.3337 -0.1105 -0.1310
  970MOL0     N30832   5.182   1.714   1.978  0.0262  0.2495  0.2129
  970MOL0     C30833   5.210   1.583   1.982  0.6694  0.2955  0.1645
  970MOL0     C30834   5.342   1.571   2.014  0.9322  0.5290  0.7461
  970MOL0     C30835   5.425   1.451   2.016  0.1774  0.0423 -0.3347
  970MOL0     C30836   5.456   1.395   2.159  0.3121 -0.5433 -0.2898
  970MOL0     C30837   5.558   1.288   2.142 -0.1905 -0.1034  0.1286
  970MOL0     C30838   5.595   1.206   2.270  0.6990  0.4248 -0.2787
  970MOL0     O30839   5.712   1.129   2.225 -0.4230  0.2021 -0.5648
  970MOL0     C30840   5.799   1.092   2.323 -0.0622  0.3588  0.0138
  970MOL0     C30841   5.750   1.049   2.455  0.4822 -0.0428  0.3904
  970MOL0     C30842   5.839   0.999   2.544 -0.9971  0.1142  1.2883
  970MOL0     C30843   5.979   0.974   2.507  0.4391 -0.5097  0.4208
  970MOL0     C30844   6.078   0.933   2.605  0.7552  0.5574 -0.2665
  970MOL0     O30845   6.027   0.921   2.733 -0.7157  0.4664 -0.7590
  970MOL0     C30846   6.123   0.901   2.837  0.6311 -0.3765 -1.0618
  970MOL0     C30847   6.215   0.795   2.842 -0.6031  0.0416 -0.0123
  970MOL0     C30848   6.283   0.768   2.957  0.0365  0.8452  0.0643
  970MOL0     C30849   6.258   0.853   3.068 -0.1327 -0.8593  0.1102
  970MOL0     O30850   6.320   0.830   3.187  0.3248 -0.2022 -0.0364
  970MOL0     C30851   6.459   0.797   3.177  0.5209  0.1652  0.5747
  970MOL0     C30852   6.515   0.812   3.319  0.8540 -0.6158  0.3785
  970MOL0     C30853   6.656   0.757   3.332 -1.0506  0.6266 -0.5962
  970MOL0     C30854   6.758   0.856   3.284 -0.8382  0.7753  0.1739
  970MOL0     C30855   6.896   0.796   3.287 -0.1150 -0.2269 -0.0586
  970MOL0     C30856   7.012   0.887   3.253 -0.1513 -0.1579 -0.8516
  970MOL0     C30857   7.153   0.824   3.267  0.6438  0.0949 -0.0158
  970MOL0     C30858   7.211   0.844   3.409  0.3316  0.0101 -0.3989
  970MOL0    Cl30859   7.392   0.834   3.426  0.2186 -0.4803  0.1897
  970MOL0     C30860   6.174   0.953   3.061  0.6069 -0.6066  0.4177
  970MOL0     C30861   6.104   0.981   2.947 -0.0203 -0.2192  0.6181
  970MOL0     O30862   6.193   0.913   2.571  0.0263 -0.3945 -0.2925
  970MOL0     C30863   6.024   1.021   2.380 -0.4087 -1.0986 -0.6581
  970MOL0     C30864   5.936   1.076   2.290 -0.0289 -0.6387  0.2076
  970MOL0     N30865   5.389   1.697   2.047 -0.0609 -0.5242  0.5205
  970MOL0     N30866   5.291   1.778   2.019  0.2637  0.0687 -0.1214
  970MOL0     C30867   4.481   2.563   2.302  0.6110  0.0595 -0.0641
  970MOL0     C30868   4.369   2.634   2.354 -0.0295 -0.2366  0.2075
  970MOL0     C30869   3.976   2.740   2.542  0.1788  0.0122 -1.2424
  970MOL0     C30870   3.926   2.671   2.654 -0.1636  0.4032 -0.8351
  970MOL0     C30871   3.808   2.715   2.726  1.1258 -0.4528  0.3664
  970MOL0     C30872   3.743   2.833   2.691 -0.4115  0.3862  0.2162
  970MOL0     O30873   3.630   2.872   2.761  0.1134  0.3193  0.3257
  970MOL0     C30874   3.568   2.990   2.722 -0.3190  0.2749 -0.2302
  970MOL0     C30875   3.464   3.044   2.828  0.3844 -0.5654  0.1865
  970MOL0     C30876   3.357   2.936   2.867  0.1163  0.8126 -0.0954
  970MOL0     C30877   3.283   2.996   2.986  0.4747  0.2338 -0.0195
  970MOL0     C30878   3.207   2.888   3.052 -0.0057  0.5309 -0.7618
  970MOL0     C30879   3.145   2.796   3.099 -0.6373 -0.2153 -0.3112
  970MOL0     C30880   3.799   2.905   2.584  1.2787 -0.1750  0.2137
  970MOL0     C30881   3.902   2.857   2.505 -0.0417  1.0392  0.5103
  970MOL0     C30882   3.943   2.950   2.393 -0.7672  0.9171  0.9477
  970MOL0     H30883   4.265   2.417   2.591  1.5953 -1.8455  0.0758
  970MOL0     H30884   4.465   2.292   2.513  1.9558  1.0184  1.5941
  970MOL0     H30885   4.519   2.186   2.188  0.2056 -0.4777  0.2487
  970MOL0     H30886   4.516   2.347   2.108 -0.4068 -0.1529 -0.4198
  970MOL0     H30887   4.770   2.332   2.079  4.6456 -2.4148  1.6512
  970MOL0     H30888   4.663   2.222   1.987 -0.1695 -2.9271  0.8164
  970MOL0     H30889   4.705   2.051   2.165 -0.6656  0.7391  1.2734
  970MOL0     H30890   4.828   2.162   2.239  2.0482 -0.3848 -1.3490
  970MOL0     H30891   4.922   2.188   2.030  0.6967  2.9158  5.3450
  970MOL0     H30892   4.957   2.026   2.122 -0.1876 -0.7711 -2.1354
  970MOL0     H30893   4.818   1.908   1.999 -2.1239  0.3728  0.6372
  970MOL0     H30894   4.757   2.052   1.899  1.3420 -1.1963 -1.9534
  970MOL0     H30895   4.889   1.923   1.776  0.4523 -0.6571  0.0683
  970MOL0     H30896   4.964   2.093   1.814  0.0529 -0.0842 -1.0398
  970MOL0     H30897   5.129   1.980   1.953 -1.8114  2.2643 -0.6148
  970MOL0     H30898   5.138   1.886   1.793 -1.3316 -0.3707 -1.0497
  970MOL0     H30899   5.022   1.796   2.053  4.0715 -2.1193  1.9376
  970MOL0     H30900   4.993   1.715   1.887  1.3805 -2.5300  0.4777
  970MOL0     H30901   5.140   1.501   1.970  0.5027  0.0182  2.4946
  970MOL0     H30902   5.375   1.373   1.957  0.0143  0.3465 -0.6014
  970MOL0     H30903   5.521   1.490   1.980  0.9016 -0.5670  0.8754
  970MOL0     H30904   5.499   1.481   2.212 -0.8286 -0.5291  0.6660
  970MOL0     H30905   5.365   1.350   2.200 -0.7922 -1.5856 -3.6068
  970MOL0     H30906   5.644   1.345   2.106 -1.5120  3.2669  1.8656
  970MOL0     H30907   5.524   1.224   2.059  1.6649 -1.9264  0.6946
  970MOL0     H30908   5.519   1.135   2.305 -0.4355  1.8638  0.2524
  970MOL0     H30909   5.617   1.278   2.350 -3.6009  0.7459  0.8611
  970MOL0     H30910   5.652   1.057   2.502  0.9453  1.1221  1.2185
  970MOL0     H30911   5.799   0.969   2.641  0.9542  0.9671  2.4255
  970MOL0     H30912   6.237   0.728   2.760 -3.9694 -0.4360 -0.6572
  970MOL0     H30913   6.358   0.690   2.959 -1.1568 -0.3419  1.8753
  970MOL0     H30914   6.451   0.690   3.155  0.6700  0.4431 -0.9548
  970MOL0     H30915   6.509   0.845   3.092  1.2846 -0.2714  0.7645
  970MOL0     H30916   6.513   0.921   3.332 -0.3779 -0.0827 -3.1354
  970MOL0     H30917   6.449   0.772   3.397  1.4728  1.4647  2.0668
  970MOL0     H30918   6.671   0.744   3.440 -0.0751  0.6710 -0.7151
  970MOL0     H30919   6.651   0.657   3.288  0.1174 -1.0059  2.6416
  970MOL0     H30920   6.748   0.940   3.353 -2.7278  0.2478  0.6072
  970MOL0     H30921   6.732   0.897   3.186  0.3431  1.7219  0.2267
  970MOL0     H30922   6.887   0.715   3.213 -2.1772  0.5262 -0.7089
  970MOL0     H30923   6.924   0.749   3.381  0.3840 -1.2208 -0.6805
  970MOL0     H30924   7.021   0.911   3.146  1.9909  2.7425 -0.1392
  970MOL0     H30925   7.003   0.979   3.311 -5.2973 -1.0637  0.2875
  970MOL0     H30926   7.219   0.879   3.200  0.0751  0.3685 -0.3573
  970MOL0     H30927   7.160   0.719   3.240 -0.1328  0.3804 -1.3958
  970MOL0     H30928   7.180   0.939   3.452  4.0257  1.6272 -0.9890
  970MOL0     H30929   7.158   0.773   3.473 -0.1692  0.7518  0.0278
  970MOL0     H30930   6.153   1.005   3.154  1.0756 -0.0104  0.1985
  970MOL0     H30931   6.028   1.059   2.947 -0.2240 -0.3647  2.3398
  970MOL0     H30932   6.128   1.011   2.351 -0.1558 -0.2934 -0.0786
  970MOL0     H30933   5.965   1.118   2.194 -1.1945 -1.7862 -0.6863
  970MOL0     H30934   4.522   2.587   2.205 -0.1735  4.7894  0.5539
  970MOL0     H30935   4.353   2.734   2.315  0.9056 -0.2823 -0.3455
  970MOL0     H30936   3.961   2.571   2.678  0.3064  1.0411  1.3250
  970MOL0     H30937   3.775   2.660   2.813  2.3837  1.8119  2.4149
  970MOL0     H30938   3.513   2.956   2.634  0.8086 -2.4828  0.0418
  970MOL0     H30939   3.636   3.075   2.712 -0.8321  0.8332  0.8689
  970MOL0     H30940   3.425   3.141   2.795  4.1244  1.0356 -0.0661
  970MOL0     H30941   3.523   3.066   2.917 -2.0165  0.0945  1.7098
  970MOL0     H30942   3.404   2.840   2.893 -0.8856 -0.1819 -1.7528
  970MOL0     H30943   3.290   2.902   2.788  2.0040  1.8191 -2.2585
  970MOL0     H30944   3.347   3.033   3.067  0.1598  0.4156  0.1468
  970MOL0     H30945   3.228   3.085   2.954  1.9553  0.8648 -0.9247
  970MOL0     H30946   3.110   2.699   3.129  0.3440 -0.5575 -0.2264
  970MOL0     H30947   3.748   2.994   2.548  1.6994  0.5359  1.3287
  970MOL0     H30948   3.947   2.905   2.293 -2.6873 -1.8507  1.9852
  970MOL0     H30949   3.880   3.039   2.386 -1.4053  0.5173  1.4598
  970MOL0     H30950   4.049   2.970   2.407  0.5687 -3.7448 -0.4955
  971MOL0     O30951   7.455   2.337   2.181 -0.4345  0.4187 -0.5254
  971MOL0     C30952   7.395   2.312   2.078  0.5483  0.2340 -0.2825
  971MOL0     O30953   7.429   2.219   1.981 -0.1016  1.0863  0.3545
  971MOL0     C30954   7.549   2.151   2.005  0.4820 -0.3529 -0.5595
  971MOL0     C30955   7.569   2.072   2.116 -0.5844  0.5517  0.1943
  971MOL0     C30956   7.699   2.015   2.149  0.4065  0.4400  0.5141
  971MOL0     C30957   7.797   2.024   2.050 -0.6749 -0.6627  0.0656
  971MOL0     O30958   7.913   1.949   2.048 -0.0327  0.8200 -0.3138
  971MOL0     C30959   7.991   1.930   2.170 -0.8272 -0.1456 -0.2294
  971MOL0     C30960   7.967   1.797   2.237 -0.6105  0.3859  0.5751
  971MOL0     C30961   8.043   1.678   2.168 -0.3916  0.1794 -0.1210
  971MOL0     C30962   8.194   1.688   2.188 -0.2046 -0.0096 -0.3065
  971MOL0     C30963   8.278   1.623   2.076  0.2905 -0.7325 -0.1530
  971MOL0     C30964   8.424   1.584   2.118  0.6442 -0.4065 -0.5347
  971MOL0     C30965   8.516   1.699   2.167  0.4507  0.5168 -0.2050
  971MOL0     C30966   8.633   1.643   2.238 -0.4858  0.9560  0.0139
  971MOL0     N30967   8.701   1.529   2.168  0.7483  0.9047  0.1579
  971MOL0     C30968   8.786   1.539   2.059 -0.0145 -0.1356 -0.5049
  971MOL0     C30969   8.824   1.407   2.033  0.5657 -0.5746 -0.3980
  971MOL0     C30970   8.943   1.361   1.948 -0.2629 -0.7958 -0.0422
  971MOL0     C30971   9.074   1.405   2.025  0.3496 -0.2461 -0.3041
  971MOL0     C30972   9.189   1.374   1.927  0.2280 -0.5449  1.0633
  971MOL0     C30973   9.328   1.367   1.988 -0.4240 -0.1896  0.4107
  971MOL0     O30974   9.348   1.259   2.075 -0.3097  0.0657  0.9473
  971MOL0     C30975   9.462   1.249   2.148 -0.3478 -0.0706  0.7564
  971MOL0     C30976   9.574   1.324   2.140 -0.5744  0.6986 -0.7693
  971MOL0     C30977   9.676   1.304   2.240 -0.0649  0.0663 -0.3582
  971MOL0     C30978   9.666   1.200   2.327 -0.7177 -0.1442 -0.3009
  971MOL0     C30979   9.778   1.176   2.415 -0.0716 -0.2281 -1.2391
  971MOL0     O30980   9.880   1.268   2.424  0.1780 -0.1751 -0.0041
  971MOL0     C30981   9.978   1.237   2.513 -0.8579 -1.5323 -0.6180
  971MOL0     C30982  10.074   1.155   2.467  0.3954 -0.5167 -0.6060
  971MOL0     C30983  10.177   1.119   2.553  0.4406  0.8474 -0.9125
  971MOL0     C30984  10.188   1.175   2.679  0.0194 -0.3905  0.4445
  971MOL0     O30985  10.303   1.145   2.752 -0.0857  0.5015  0.7065
  971MOL0     C30986  10.331   1.217   2.876  0.1540 -0.3719  0.8008
  971MOL0     C30987  10.483   1.190   2.913  0.7957 -0.2094  0.7196
  971MOL0     C30988  10.530   1.274   3.035 -0.6074  0.6969  0.0457
  971MOL0     C30989  10.666   1.227   3.084  0.5986 -0.3190 -1.1534
  971MOL0     C30990  10.718   1.328   3.188 -0.2603 -0.1732 -0.2282
  971MOL0     C30991  10.838   1.270   3.264  0.0642 -0.3915  0.5591
  971MOL0     C30992  10.916   1.382   3.329 -0.5032  0.5134 -0.4741
  971MOL0     C30993  11.048   1.337   3.395  0.5227  0.3019  0.5690
  971MOL0    Cl30994  11.005   1.258   3.552  0.2171  0.3798 -0.0470
  971MOL0     C30995  10.084   1.253   2.728  1.0116 -0.2523 -0.2952
  971MOL0     C30996   9.978   1.287   2.645  0.3243 -1.0904  0.3900
  971MOL0     O30997   9.765   1.073   2.481 -0.3207 -0.1884 -0.8363
  971MOL0     C30998   9.552   1.123   2.321 -0.8921 -0.0401 -0.0399
  971MOL0     C30999   9.456   1.144   2.231 -0.3923 -0.0366 -0.1800
  971MOL0     N31000   8.767   1.322   2.127 -0.7864  0.1195 -0.1719
  971MOL0     N31001   8.685   1.392   2.201  0.3111 -0.4145 -0.7576
  971MOL0     C31002   7.769   2.092   1.936 -0.6235 -0.2659  0.6863
  971MOL0     C31003   7.651   2.158   1.912 -0.0775  0.8900 -0.8233
  971MOL0     C31004   7.266   2.361   2.072 -0.2180 -1.4493 -0.7055
  971MOL0     C31005   7.188   2.373   2.190 -0.9747  0.8772  0.5275
  971MOL0     C31006   7.052   2.411   2.188  0.0389 -1.2569  0.7761
  971MOL0     C31007   6.988   2.432   2.073 -0.9779 -0.0918 -0.0178
  971MOL0     O31008   6.850   2.450   2.057 -0.2467  0.8557  0.9992
  971MOL0     C31009   6.790   2.321   2.057  0.7352 -0.3947  0.3973
  971MOL0     C31010   6.635   2.332   2.049 -0.4866  0.0385 -0.3243
  971MOL0     C31011   6.572   2.365   2.185 -0.2910 -0.9580  1.0904
  971MOL0     C31012   6.439   2.435   2.164 -0.3770  0.1768 -0.2172
  971MOL0     C31013   6.374   2.471   2.291  0.2219 -0.1098 -0.2193
  971MOL0     C31014   6.299   2.496   2.383  0.3162 -0.3480  1.1320
  971MOL0     C31015   7.067   2.434   1.954 -0.4414 -0.2346 -0.4702
  971MOL0     C31016   7.204   2.401   1.950  0.3639  0.1778  0.0913
  971MOL0     C31017   7.279   2.399   1.820  0.2019  0.4856 -0.2863
  971MOL0     H31018   7.490   2.057   2.188 -0.8430  2.2325  0.3160
  971MOL0     H31019   7.712   1.948   2.233  0.2472 -1.6311 -1.0329
  971MOL0     H31020   8.096   1.949   2.148 -1.0958  2.6782  0.5032
  971MOL0     H31021   7.962   2.013   2.236 -0.7130  0.9158 -1.4759
  971MOL0     H31022   7.858   1.784   2.243 -0.5883  0.3516  0.9585
  971MOL0     H31023   8.018   1.813   2.333 -0.5291  1.1016  0.4178
  971MOL0     H31024   8.031   1.681   2.059  1.6745 -1.5164 -0.4683
  971MOL0     H31025   7.999   1.585   2.204  0.0413 -0.0966 -0.2981
  971MOL0     H31026   8.223   1.793   2.194 -1.8641  0.3989  1.7211
  971MOL0     H31027   8.218   1.640   2.284 -1.8424 -0.1260  0.0814
  971MOL0     H31028   8.233   1.532   2.035  1.7663 -0.8901 -1.5354
  971MOL0     H31029   8.295   1.692   1.993 -1.5556  0.5274  0.4702
  971MOL0     H31030   8.406   1.501   2.187 -0.6754  0.2921 -0.0048
  971MOL0     H31031   8.481   1.542   2.034 -0.4227 -1.5958 -0.6885
  971MOL0     H31032   8.456   1.764   2.232  1.5372 -1.1751  2.6726
  971MOL0     H31033   8.539   1.746   2.071  0.6138 -4.2131 -2.7866
  971MOL0     H31034   8.709   1.721   2.248 -1.3863  1.7985  0.5872
  971MOL0     H31035   8.596   1.603   2.333 -3.0997  0.4849 -1.0897
  971MOL0     H31036   8.825   1.631   2.017  0.5338 -0.0523  0.1633
  971MOL0     H31037   8.951   1.254   1.929 -1.2338 -1.0761  0.9987
  971MOL0     H31038   8.936   1.407   1.848 -0.2187  0.0724  0.3455
  971MOL0     H31039   9.075   1.507   2.065 -1.2358 -0.2418 -0.1976
  971MOL0     H31040   9.086   1.337   2.110 -0.3017 -0.7239 -0.5854
  971MOL0     H31041   9.179   1.447   1.847  1.2616 -1.4622  0.0582
  971MOL0     H31042   9.176   1.276   1.881 -2.8757 -1.2996  3.1932
  971MOL0     H31043   9.347   1.466   2.031 -2.8900 -0.2295  1.7679
  971MOL0     H31044   9.389   1.362   1.897 -3.3362 -1.2343 -1.6224
  971MOL0     H31045   9.591   1.408   2.074 -1.1477  1.3201 -0.1520
  971MOL0     H31046   9.758   1.375   2.235 -0.3155  0.2609 -2.9300
  971MOL0     H31047  10.088   1.115   2.367  1.7632  0.7267 -0.9440
  971MOL0     H31048  10.251   1.049   2.517 -0.3488  0.6832 -2.2477
  971MOL0     H31049  10.316   1.322   2.849 -0.5997 -0.3265  1.3496
  971MOL0     H31050  10.269   1.186   2.961 -4.0316  1.1266 -1.4232
  971MOL0     H31051  10.502   1.084   2.929  1.8017 -0.3002 -0.8811
  971MOL0     H31052  10.543   1.202   2.823 -1.0238 -1.5283 -0.7543
  971MOL0     H31053  10.548   1.374   2.995  4.1466 -0.8641 -2.5274
  971MOL0     H31054  10.453   1.263   3.112 -1.6219  0.7911 -0.9302
  971MOL0     H31055  10.738   1.203   3.005  1.4503 -4.5754  0.6724
  971MOL0     H31056  10.645   1.131   3.131 -0.8518 -0.1663 -1.4526
  971MOL0     H31057  10.650   1.347   3.271  0.1116  1.8167 -0.3438
  971MOL0     H31058  10.743   1.428   3.152 -2.6444  1.6477  2.6694
  971MOL0     H31059  10.806   1.195   3.336 -0.5775 -1.1528 -0.4775
  971MOL0     H31060  10.902   1.222   3.189 -1.9760 -2.5186  0.0412
  971MOL0     H31061  10.852   1.420   3.410 -0.0223  3.5262 -1.3618
  971MOL0     H31062  10.940   1.460   3.256 -0.8896  0.4337 -0.6932
  971MOL0     H31063  11.107   1.268   3.334  0.0685 -0.2733  0.7673
  971MOL0     H31064  11.100   1.430   3.420  0.3214  1.2112 -2.1429
  971MOL0     H31065  10.105   1.283   2.830  2.2040 -1.9277 -0.0048
  971MOL0     H31066   9.895   1.344   2.687  3.2525  2.9358  1.3251
  971MOL0     H31067   9.536   1.037   2.386  0.6539 -1.6165 -1.6341
  971MOL0     H31068   9.360   1.093   2.231 -0.4056 -0.0210 -0.8829
  971MOL0     H31069   7.838   2.078   1.854  0.4079  1.2809  1.2428
  971MOL0     H31070   7.627   2.224   1.828 -2.9393  1.3277  0.2314
  971MOL0     H31071   7.244   2.345   2.278  2.0341 -3.4959 -2.4169
  971MOL0     H31072   6.994   2.420   2.280 -1.2475  1.9239 -0.2236
  971MOL0     H31073   6.796   2.270   2.154 -3.8897 -0.8168  0.6990
  971MOL0     H31074   6.833   2.253   1.982  1.3065  0.0007  0.3624
  971MOL0     H31075   6.599   2.233   2.021  0.2900  0.0970 -1.6059
  971MOL0     H31076   6.604   2.404   1.974 -1.5524 -0.9896 -0.9018
  971MOL0     H31077   6.642   2.427   2.242  3.7714 -0.8500 -3.3815
  971MOL0     H31078   6.551   2.279   2.250 -1.5373 -0.9043  0.7872
  971MOL0     H31079   6.442   2.515   2.090  0.0189 -0.1008 -0.5056
  971MOL0     H31080   6.371   2.361   2.122  2.6967 -3.5226  0.6912
  971MOL0     H31081   6.227   2.519   2.458 -0.1633 -0.6922  0.7871
  971MOL0     H31082   7.010   2.453   1.863 -0.5313  1.3974 -0.1096
  971MOL0     H31083   7.377   2.442   1.843  0.9768 -1.4346  0.2625
  971MOL0     H31084   7.297   2.299   1.777  1.1032  0.4870  0.0529
  971MOL0     H31085   7.225   2.470   1.757 -0.5187  0.4450  0.2719
  972MOL0     O31086   8.110   8.317   0.937 -0.4070 -0.3533 -0.0177
  972MOL0     C31087   8.081   8.201   0.946 -0.3587  0.6249  0.2236
  972MOL0     O31088   8.170   8.097   0.961  0.1074  0.6534 -0.6095
  972MOL0     C31089   8.303   8.119   0.967 -0.4276  0.6346 -0.5981
  972MOL0     C31090   8.386   8.033   0.900  0.4674 -0.0277 -0.1433
  972MOL0     C31091   8.523   8.042   0.915  0.3204 -0.1159 -0.6296
  972MOL0     C31092   8.582   8.134   1.005  0.3434 -0.4277 -0.1628
  972MOL0     O31093   8.712   8.161   1.010 -0.0427  0.1562  0.0240
  972MOL0     C31094   8.796   8.062   1.085  0.5728 -0.0940  0.2887
  972MOL0     C31095   8.910   8.131   1.159 -0.0792  0.2584 -1.1315
  972MOL0     C31096   8.999   8.026   1.230  0.0031 -0.4380  0.0982
  972MOL0     C31097   9.102   8.084   1.333 -0.1298  0.2908 -0.5622
  972MOL0     C31098   9.181   7.972   1.409  0.4769 -0.5120 -0.3634
  972MOL0     C31099   9.262   7.882   1.321  0.7205  0.4368  0.0605
  972MOL0     C31100   9.398   7.940   1.276 -0.0512 -1.0886  0.5591
  972MOL0     C31101   9.496   7.835   1.217 -0.4171 -0.5769  0.0136
  972MOL0     N31102   9.618   7.896   1.160 -0.0057 -0.1069 -0.5967
  972MOL0     C31103   9.747   7.921   1.212 -0.2431  0.4515 -0.2469
  972MOL0     C31104   9.830   7.961   1.107  0.7539 -0.0160  0.5049
  972MOL0     C31105   9.975   7.999   1.113  0.7932  0.0914  0.4512
  972MOL0     C31106   9.998   8.111   1.210 -0.1656 -0.1200 -0.4055
  972MOL0     C31107   9.911   8.230   1.199 -0.0011 -0.8246 -0.7756
  972MOL0     C31108   9.936   8.322   1.325 -0.1691 -0.0336  0.1386
  972MOL0     O31109  10.072   8.359   1.328 -0.4039  0.1055 -0.2347
  972MOL0     C31110  10.101   8.465   1.257  0.0790  0.7544 -0.4986
  972MOL0     C31111  10.227   8.512   1.289 -0.4323 -0.6303 -0.1738
  972MOL0     C31112  10.286   8.615   1.215  0.0853 -0.5143  0.3235
  972MOL0     C31113  10.219   8.679   1.106  0.5671  0.3656 -0.7899
  972MOL0     C31114  10.273   8.784   1.023 -0.1862 -0.4626  0.5507
  972MOL0     O31115  10.402   8.811   1.036 -0.5353 -0.5110 -0.1460
  972MOL0     C31116  10.463   8.931   1.001  1.0796  0.0845 -0.2036
  972MOL0     C31117  10.597   8.926   0.997  0.0105 -0.1587 -0.1119
  972MOL0     C31118  10.676   9.039   0.970 -0.6062  0.7412 -0.4867
  972MOL0     C31119  10.610   9.164   0.947  0.2809  0.5030 -0.5796
  972MOL0     O31120  10.685   9.273   0.933 -0.0586  0.1709 -0.4249
  972MOL0     C31121  10.634   9.399   0.955 -0.0360  0.1655 -0.7623
  972MOL0     C31122  10.749   9.492   0.974 -0.2512 -0.1221 -1.0002
  972MOL0     C31123  10.836   9.450   1.089 -0.9780  0.5530 -0.2508
  972MOL0     C31124  10.920   9.569   1.137  0.0865 -0.1749 -0.3007
  972MOL0     C31125  11.064   9.563   1.098 -0.1864  0.6865  0.6728
  972MOL0     C31126  11.143   9.668   1.165  0.7376 -0.7225 -0.1150
  972MOL0     C31127  11.280   9.689   1.120  0.1770  0.1009  0.7962
  972MOL0     C31128  11.359   9.557   1.106  0.1238 -0.6797 -0.4216
  972MOL0    Cl31129  11.525   9.582   1.078 -0.0015 -0.3175  0.0236
  972MOL0     C31130  10.473   9.167   0.958  0.9494  0.2521 -0.7706
  972MOL0     C31131  10.392   9.053   0.976 -0.4887  0.3270 -0.1980
  972MOL0     O31132  10.194   8.843   0.946  0.3353  0.0954 -0.2357
  972MOL0     C31133  10.086   8.634   1.082  0.1440  0.6388  0.3302
  972MOL0     C31134  10.030   8.525   1.149 -0.2885  0.1237 -0.8235
  972MOL0     N31135   9.754   7.952   0.995  0.6968 -0.4676 -0.7248
  972MOL0     N31136   9.634   7.917   1.028  0.7994  0.6625  0.2657
  972MOL0     C31137   8.493   8.214   1.081 -0.7347 -0.3677 -0.2979
  972MOL0     C31138   8.357   8.209   1.057 -0.4842  0.7380  0.1124
  972MOL0     C31139   7.938   8.164   0.929  0.4923 -0.6882  0.1027
  972MOL0     C31140   7.899   8.039   0.983 -0.9875 -0.2632 -0.1431
  972MOL0     C31141   7.772   7.994   0.961  0.0097 -0.9576 -0.3659
  972MOL0     C31142   7.674   8.067   0.900  0.2620 -1.5411 -0.7281
  972MOL0     O31143   7.550   8.013   0.897 -0.6388  0.0513  0.4767
  972MOL0     C31144   7.436   8.090   0.854  0.7560  0.3143 -0.7565
  972MOL0     C31145   7.423   8.091   0.702 -0.6797 -0.0609  0.1925
  972MOL0     C31146   7.376   7.957   0.646 -0.2418  0.4992  0.8152
  972MOL0     C31147   7.361   7.974   0.490  0.6522 -0.5916  0.2137
  972MOL0     C31148   7.222   8.030   0.461  0.6109  1.2625 -0.1151
  972MOL0     C31149   7.110   8.075   0.462  0.1281 -0.4027 -0.3058
  972MOL0     C31150   7.710   8.195   0.849 -0.4305 -1.2615 -0.1904
  972MOL0     C31151   7.836   8.253   0.864 -0.9523 -0.5962 -0.1552
  972MOL0     C31152   7.859   8.388   0.800 -0.0561  0.1465  0.0420
  972MOL0     H31153   8.331   7.975   0.827 -1.3213  0.9125  0.3845
  972MOL0     H31154   8.589   7.969   0.870 -2.0647 -2.1525 -1.0469
  972MOL0     H31155   8.724   8.011   1.150 -1.5418 -1.8937 -3.1987
  972MOL0     H31156   8.828   7.999   1.002 -0.6161  2.0742 -1.9649
  972MOL0     H31157   8.863   8.193   1.236 -1.8798  1.3116 -2.9643
  972MOL0     H31158   8.972   8.185   1.086  1.4426  0.4998  0.2577
  972MOL0     H31159   9.054   7.977   1.150 -0.7834  1.7443 -1.8843
  972MOL0     H31160   8.939   7.956   1.289  4.1352 -1.8123  3.1853
  972MOL0     H31161   9.171   8.147   1.276  1.4772  0.3939  1.3909
  972MOL0     H31162   9.039   8.147   1.397 -0.3648 -0.5413  0.0389
  972MOL0     H31163   9.236   8.028   1.485 -0.4541  1.5632 -1.1197
  972MOL0     H31164   9.113   7.907   1.464 -2.0816  3.1801  1.1887
  972MOL0     H31165   9.298   7.797   1.379  0.8886 -1.0812 -2.1500
  972MOL0     H31166   9.205   7.838   1.239  1.2979  1.2210 -0.7831
  972MOL0     H31167   9.449   7.986   1.361 -0.9916 -0.8971  1.0250
  972MOL0     H31168   9.385   8.022   1.205  0.9386 -0.4062  1.1403
  972MOL0     H31169   9.524   7.770   1.300 -0.7733  0.4236  0.9301
  972MOL0     H31170   9.444   7.777   1.139 -0.7277  0.1522 -0.3343
  972MOL0     H31171   9.768   7.906   1.318  1.7319 -1.7066 -0.8556
  972MOL0     H31172  10.024   7.903   1.127 -0.1496 -0.2942  1.1699
  972MOL0     H31173  10.003   8.037   1.014 -2.1338 -0.5234 -0.7277
  972MOL0     H31174   9.993   8.074   1.313 -1.1525  4.5380  1.4793
  972MOL0     H31175  10.102   8.138   1.191  0.9974 -3.6697  0.1083
  972MOL0     H31176   9.805   8.208   1.186  0.2265 -2.1611 -0.5362
  972MOL0     H31177   9.936   8.281   1.106 -0.7224 -0.2060 -0.6392
  972MOL0     H31178   9.922   8.268   1.419  2.6872 -2.1678 -0.5479
  972MOL0     H31179   9.867   8.407   1.317  0.6079  0.4435 -3.2532
  972MOL0     H31180  10.280   8.470   1.373  0.7462  1.4613  0.2062
  972MOL0     H31181  10.392   8.631   1.231 -0.0735 -0.2084  1.0857
  972MOL0     H31182  10.645   8.834   1.026 -0.8377 -0.3409  0.7909
  972MOL0     H31183  10.783   9.030   0.982 -0.5217 -0.8148 -1.9187
  972MOL0     H31184  10.576   9.433   0.869  0.7382 -0.7461 -1.6610
  972MOL0     H31185  10.564   9.414   1.038 -1.1568 -1.0578 -1.4376
  972MOL0     H31186  10.809   9.510   0.884 -0.0231  0.0553 -0.8144
  972MOL0     H31187  10.710   9.592   0.996  2.9362  1.0336 -0.0136
  972MOL0     H31188  10.773   9.408   1.167 -0.8691 -0.1209 -0.5167
  972MOL0     H31189  10.902   9.371   1.050  0.0254 -0.3850  3.0131
  972MOL0     H31190  10.920   9.574   1.246  0.3537  1.1337 -0.3400
  972MOL0     H31191  10.872   9.660   1.098  2.0431  1.2361  0.4020
  972MOL0     H31192  11.073   9.588   0.992 -1.5530 -0.2597  0.3045
  972MOL0     H31193  11.096   9.461   1.119  1.8072  0.3188 -3.2150
  972MOL0     H31194  11.090   9.763   1.175 -0.1675 -1.3380  1.1673
  972MOL0     H31195  11.150   9.632   1.268  2.6737  0.5988  0.2713
  972MOL0     H31196  11.328   9.754   1.194  0.4731 -0.8077  1.4149
  972MOL0     H31197  11.273   9.746   1.027  1.8651  1.1080  1.2468
  972MOL0     H31198  11.351   9.500   1.199  2.6454  1.5383  1.2821
  972MOL0     H31199  11.307   9.503   1.026 -0.2869  0.3369 -0.8582
  972MOL0     H31200  10.418   9.260   0.948 -0.3528 -0.4245 -0.0840
  972MOL0     H31201  10.283   9.060   0.982 -0.4579 -0.5705  2.5305
  972MOL0     H31202  10.030   8.680   1.001  1.0212 -0.1399 -0.7465
  972MOL0     H31203   9.929   8.497   1.121 -0.4195  1.2572 -1.5548
  972MOL0     H31204   8.513   8.285   1.160 -1.9571 -3.2188  2.8304
  972MOL0     H31205   8.278   8.250   1.119 -0.7994  0.2353  0.0549
  972MOL0     H31206   7.969   7.976   1.037 -1.5848 -1.1846 -0.4271
  972MOL0     H31207   7.737   7.904   1.011 -2.9635  1.3943  2.1458
  972MOL0     H31208   7.434   8.191   0.897  0.2303 -0.4881  1.2242
  972MOL0     H31209   7.345   8.055   0.904  0.2689  2.0247 -0.3765
  972MOL0     H31210   7.520   8.119   0.660 -0.9517  0.0785 -0.3452
  972MOL0     H31211   7.350   8.168   0.677 -0.0648 -0.3621 -2.8658
  972MOL0     H31212   7.282   7.917   0.687 -0.8648 -2.6714 -3.0621
  972MOL0     H31213   7.450   7.880   0.672 -1.5847 -0.1277  3.0409
  972MOL0     H31214   7.437   8.043   0.453 -0.2774  0.7420  0.7028
  972MOL0     H31215   7.382   7.878   0.443 -0.7799 -0.1255 -1.4586
  972MOL0     H31216   7.014   8.117   0.441 -0.2628 -1.1762 -0.0909
  972MOL0     H31217   7.638   8.261   0.800 -0.3155  0.0900  1.3789
  972MOL0     H31218   7.772   8.422   0.744 -0.5154  0.5607  0.9715
  972MOL0     H31219   7.871   8.465   0.877 -1.2867 -0.5402  0.9580
  972MOL0     H31220   7.948   8.387   0.737  1.6418  2.7305  2.1682
  973MOL0     O31221   5.280   4.304   1.928  0.5165  0.2173 -0.3156
  973MOL0     C31222   5.197   4.210   1.913  0.0180 -0.8589 -0.5742
  973MOL0     O31223   5.223   4.078   1.944 -0.2807 -0.1394 -0.1206
  973MOL0     C31224   5.351   4.022   1.942  0.1388 -0.5584  0.4532
  973MOL0     C31225   5.431   4.008   1.829 -0.4715  0.5747  0.4191
  973MOL0     C31226   5.551   3.952   1.842 -0.5975 -0.3066 -0.4253
  973MOL0     C31227   5.606   3.918   1.968  0.4130 -0.1060 -0.3814
  973MOL0     O31228   5.732   3.867   1.963 -0.3306 -0.0021  0.0745
  973MOL0     C31229   5.801   3.810   2.078  0.0473  0.7107 -0.5732
  973MOL0     C31230   5.953   3.845   2.062  0.6744  0.0295 -1.1718
  973MOL0     C31231   6.034   3.787   1.939 -0.1300  0.4511 -0.4091
  973MOL0     C31232   6.172   3.850   1.930  0.0666 -0.6389 -0.0732
  973MOL0     C31233   6.264   3.760   1.841 -0.0638 -0.6772 -0.1345
  973MOL0     C31234   6.402   3.829   1.834 -0.5610  0.1692 -0.0490
  973MOL0     C31235   6.511   3.768   1.752 -0.1616  0.3690 -0.6633
  973MOL0     C31236   6.495   3.704   1.620 -0.3207  0.1080  0.2589
  973MOL0     N31237   6.474   3.806   1.516  0.0012 -0.4250 -0.8840
  973MOL0     C31238   6.554   3.917   1.487  0.7063  0.0561  0.4503
  973MOL0     C31239   6.503   3.977   1.377 -0.7325  0.0449 -0.1986
  973MOL0     C31240   6.535   4.121   1.330 -0.9132  0.2000  0.0403
  973MOL0     C31241   6.672   4.123   1.246 -0.8004  0.3968  0.1203
  973MOL0     C31242   6.792   4.132   1.339 -0.6205  0.9695 -0.1066
  973MOL0     C31243   6.929   4.120   1.272 -0.3948  0.1878 -0.3892
  973MOL0     O31244   7.021   4.133   1.383  0.2533  0.3274  0.0914
  973MOL0     C31245   7.159   4.145   1.357  0.4314 -0.0542  0.1899
  973MOL0     C31246   7.218   4.098   1.234 -1.1565  0.3033  0.3093
  973MOL0     C31247   7.356   4.133   1.216  0.4381  0.8523  0.8963
  973MOL0     C31248   7.428   4.186   1.313 -0.8763 -0.0378 -0.6931
  973MOL0     C31249   7.573   4.211   1.306  0.7114  0.1521  0.0984
  973MOL0     O31250   7.634   4.163   1.196 -0.0555  0.1946  0.4126
  973MOL0     C31251   7.772   4.185   1.172 -0.6060 -0.6776 -0.4621
  973MOL0     C31252   7.824   4.083   1.093  0.2713  1.1912  0.0453
  973MOL0     C31253   7.958   4.077   1.056  1.0407 -0.6719  0.6673
  973MOL0     C31254   8.033   4.198   1.075 -0.6441  0.1601 -0.3684
  973MOL0     O31255   8.163   4.214   1.043 -0.1362  0.9300 -0.3422
  973MOL0     C31256   8.229   4.100   0.987 -0.4312  0.8649 -0.4972
  973MOL0     C31257   8.377   4.127   0.980  0.1477  0.0747  0.3617
  973MOL0     C31258   8.443   4.027   0.888  0.3670  0.5414 -0.2333
  973MOL0     C31259   8.582   4.079   0.829  0.1982  0.7005 -0.5404
  973MOL0     C31260   8.700   4.063   0.924  0.0225 -0.3534  0.3218
  973MOL0     C31261   8.831   4.138   0.877 -0.8226 -0.4660  0.5651
  973MOL0     C31262   8.911   4.064   0.777  0.7844  0.3032 -0.9845
  973MOL0     C31263   9.057   4.105   0.759 -0.2393 -0.2657 -0.2121
  973MOL0    Cl31264   9.147   3.997   0.658  0.0536  0.2096 -0.0325
  973MOL0     C31265   7.984   4.296   1.160  0.5883 -0.1794  0.1779
  973MOL0     C31266   7.854   4.288   1.207 -0.3298 -0.7815  0.1351
  973MOL0     O31267   7.629   4.258   1.407  0.1326  0.2699  0.3597
  973MOL0     C31268   7.370   4.232   1.436 -0.6315  0.4947  0.0846
  973MOL0     C31269   7.239   4.204   1.455 -0.6545  0.4685  0.7813
  973MOL0     N31270   6.393   3.897   1.344 -0.1232 -0.3556  0.4863
  973MOL0     N31271   6.378   3.800   1.418  0.2545  0.0209 -0.2701
  973MOL0     C31272   5.517   3.922   2.081  0.3888  0.0043 -0.1513
  973MOL0     C31273   5.386   3.979   2.069 -1.1159 -0.0913 -0.2089
  973MOL0     C31274   5.062   4.249   1.856  0.3044 -0.0307 -0.0048
  973MOL0     C31275   4.998   4.156   1.773  0.2227  0.2130 -0.4283
  973MOL0     C31276   4.885   4.183   1.704 -0.7035  0.3984  1.2757
  973MOL0     C31277   4.819   4.308   1.714  0.2706  0.1020  0.2885
  973MOL0     O31278   4.703   4.350   1.645 -0.0109 -0.5559 -0.2268
  973MOL0     C31279   4.595   4.258   1.655  0.1788  0.1112 -0.3283
  973MOL0     C31280   4.460   4.329   1.604 -0.0107 -0.2264  0.5948
  973MOL0     C31281   4.394   4.427   1.693  0.4458 -0.0397  0.1043
  973MOL0     C31282   4.284   4.501   1.622 -0.7360 -0.2736  0.5774
  973MOL0     C31283   4.158   4.427   1.634  0.1533  0.9613  0.0432
  973MOL0     C31284   4.051   4.384   1.657 -0.0993 -0.2274  0.5518
  973MOL0     C31285   4.874   4.393   1.806 -0.3530 -0.3774 -0.2192
  973MOL0     C31286   4.989   4.374   1.884  0.1975  0.6448  0.4312
  973MOL0     C31287   5.017   4.472   1.990 -0.0498  0.6362  0.1406
  973MOL0     H31288   5.395   4.037   1.731  0.1945 -3.7167 -1.2632
  973MOL0     H31289   5.621   3.945   1.760  0.3337  0.2899  0.3047
  973MOL0     H31290   5.760   3.856   2.168 -2.3815  1.7019 -2.0755
  973MOL0     H31291   5.785   3.702   2.083  0.3540  0.7258  3.0989
  973MOL0     H31292   6.005   3.813   2.153 -1.1699 -2.5126 -0.8898
  973MOL0     H31293   5.962   3.954   2.058 -2.5430  0.3692 -1.8758
  973MOL0     H31294   5.968   3.791   1.852 -1.4024  3.7110  0.5255
  973MOL0     H31295   6.052   3.681   1.958  1.1242  0.7936  0.4128
  973MOL0     H31296   6.157   3.951   1.891  0.1060  0.7972  3.2645
  973MOL0     H31297   6.219   3.867   2.027  2.0032  1.9326 -1.3459
  973MOL0     H31298   6.272   3.665   1.894  2.7114  0.0429  0.9166
  973MOL0     H31299   6.220   3.754   1.741 -0.9723 -0.9592  0.2797
  973MOL0     H31300   6.387   3.927   1.788 -0.7847 -0.2687 -0.9231
  973MOL0     H31301   6.441   3.830   1.937  2.4519 -1.2771 -1.0685
  973MOL0     H31302   6.548   3.691   1.820 -1.3796 -0.2411 -0.6682
  973MOL0     H31303   6.585   3.848   1.742  0.2601 -0.0013 -0.5543
  973MOL0     H31304   6.583   3.649   1.587  0.3552  1.6344 -0.5931
  973MOL0     H31305   6.405   3.642   1.620  0.5849 -1.2645 -1.1251
  973MOL0     H31306   6.637   3.947   1.550  0.7447 -0.4116  0.6230
  973MOL0     H31307   6.449   4.146   1.268 -2.4461 -2.5244  0.9093
  973MOL0     H31308   6.527   4.186   1.418 -0.3527 -1.3701  1.2999
  973MOL0     H31309   6.664   4.040   1.176 -1.2280 -0.9599  1.7132
  973MOL0     H31310   6.678   4.214   1.186  1.1866 -0.2983 -0.8476
  973MOL0     H31311   6.775   4.062   1.420  0.4788  0.3606 -0.3861
  973MOL0     H31312   6.788   4.233   1.382  1.7490 -0.0640  2.9003
  973MOL0     H31313   6.945   4.204   1.203 -0.6143  1.3267  0.9028
  973MOL0     H31314   6.937   4.022   1.224 -0.3658  0.3720 -0.7701
  973MOL0     H31315   7.166   4.030   1.167 -1.4449  1.0259 -0.2047
  973MOL0     H31316   7.405   4.090   1.130 -0.2990 -2.0981  1.8201
  973MOL0     H31317   7.766   3.999   1.055  3.0519 -0.9566  0.2005
  973MOL0     H31318   7.988   3.990   0.999  0.3218  0.0561 -0.9055
  973MOL0     H31319   8.212   4.010   1.048 -0.5960  2.0841  1.3092
  973MOL0     H31320   8.187   4.076   0.889 -0.9731 -0.4932  0.0383
  973MOL0     H31321   8.391   4.225   0.933  4.9470 -0.6929 -0.2629
  973MOL0     H31322   8.419   4.127   1.081 -1.6378  0.5002  1.1508
  973MOL0     H31323   8.449   3.933   0.944  0.9191 -1.0001 -2.7095
  973MOL0     H31324   8.377   3.999   0.805  1.0886 -2.3206  0.0262
  973MOL0     H31325   8.570   4.183   0.797  1.4942  0.4985 -1.7431
  973MOL0     H31326   8.605   4.014   0.744  2.4690  0.9854 -0.1872
  973MOL0     H31327   8.719   3.956   0.938 -0.8709 -0.4507  0.8673
  973MOL0     H31328   8.673   4.100   1.023  0.1110  0.2398  0.1318
  973MOL0     H31329   8.801   4.238   0.844  1.1182  0.0168  0.1584
  973MOL0     H31330   8.902   4.155   0.958  1.7436  0.4045 -1.7450
  973MOL0     H31331   8.860   4.085   0.683 -0.9369 -1.8991 -0.6065
  973MOL0     H31332   8.890   3.960   0.803 -1.3143  1.3626  2.1371
  973MOL0     H31333   9.051   4.203   0.711 -1.4114 -0.0901  0.2487
  973MOL0     H31334   9.100   4.121   0.859 -2.1845  2.3745  0.3164
  973MOL0     H31335   8.043   4.386   1.175  1.3443 -0.6754  0.2187
  973MOL0     H31336   7.826   4.373   1.268 -2.1574 -0.5149 -1.0181
  973MOL0     H31337   7.429   4.285   1.510  2.7020 -1.0713 -1.2516
  973MOL0     H31338   7.203   4.223   1.555  2.5307 -2.2541  2.6668
  973MOL0     H31339   5.545   3.888   2.180 -2.2166  1.3076  1.1180
  973MOL0     H31340   5.343   3.993   2.168  0.4403  0.9679  0.3587
  973MOL0     H31341   5.050   4.060   1.768  0.6268  0.3358  1.0740
  973MOL0     H31342   4.851   4.112   1.629 -0.3731  2.9646 -1.5323
  973MOL0     H31343   4.571   4.227   1.757  3.3008 -2.0256 -0.1018
  973MOL0     H31344   4.601   4.178   1.581 -0.0482  0.7405 -1.0446
  973MOL0     H31345   4.391   4.252   1.569  0.5333  0.1370 -1.4044
  973MOL0     H31346   4.488   4.380   1.511 -0.1965  0.5449  0.9533
  973MOL0     H31347   4.478   4.492   1.721  0.5709 -1.0153  2.2421
  973MOL0     H31348   4.369   4.376   1.787  1.5094  1.0758  1.0299
  973MOL0     H31349   4.275   4.604   1.656 -2.8152  0.1658 -1.1646
  973MOL0     H31350   4.307   4.501   1.515  1.9636  0.3666  1.0880
  973MOL0     H31351   3.955   4.341   1.678  1.9834 -4.6311  2.2901
  973MOL0     H31352   4.818   4.485   1.815 -1.2570 -0.9769  0.5779
  973MOL0     H31353   5.051   4.567   1.948 -1.7111 -0.4798 -4.2683
  973MOL0     H31354   4.919   4.491   2.034 -1.0626 -0.4798 -1.5043
  973MOL0     H31355   5.099   4.446   2.057 -0.6900  2.1305  1.5716
  974MOL0     O31356   6.907   1.327   3.709 -1.2618  0.0243  0.2225
  974MOL0     C31357   6.915   1.234   3.636 -0.3207  0.5824  0.6426
  974MOL0     O31358   7.005   1.216   3.533  0.1544  0.1271  0.0841
  974MOL0     C31359   7.124   1.287   3.538 -0.9417 -0.1632 -0.3588
  974MOL0     C31360   7.130   1.414   3.494  0.7423  0.4176 -0.7605
  974MOL0     C31361   7.257   1.477   3.499 -0.3489 -0.1665  0.1412
  974MOL0     C31362   7.375   1.411   3.541 -0.0930 -0.6412 -0.6278
  974MOL0     O31363   7.488   1.487   3.533  0.5319 -0.1105  0.0746
  974MOL0     C31364   7.620   1.423   3.546 -1.0779 -0.5472  0.7673
  974MOL0     C31365   7.723   1.538   3.536  0.1609 -0.7118 -0.0094
  974MOL0     C31366   7.867   1.495   3.573  0.3081  0.2155 -0.1913
  974MOL0     C31367   7.950   1.613   3.545  0.1298  0.2202  0.2402
  974MOL0     C31368   8.096   1.585   3.608 -0.1265  0.4225 -0.7376
  974MOL0     C31369   8.202   1.684   3.558  0.1956 -0.2928 -0.2291
  974MOL0     C31370   8.331   1.675   3.634 -0.9877 -0.7796  0.1339
  974MOL0     C31371   8.419   1.804   3.605  0.8592  0.9669 -1.0290
  974MOL0     N31372   8.550   1.769   3.660 -0.0037 -0.2675  0.6681
  974MOL0     C31373   8.583   1.781   3.789 -0.2662  0.6389  0.0881
  974MOL0     C31374   8.709   1.727   3.802  1.2352 -0.5107 -0.5848
  974MOL0     C31375   8.790   1.739   3.931 -0.0838 -1.1903 -0.4114
  974MOL0     C31376   8.935   1.692   3.896 -0.4755 -0.3643 -0.6870
  974MOL0     C31377   9.016   1.709   4.026  0.6440 -0.4615  0.0967
  974MOL0     C31378   9.046   1.860   4.046 -0.4776  0.1827  0.5997
  974MOL0     O31379   9.139   1.913   3.945 -0.3278 -0.1977 -0.1377
  974MOL0     C31380   9.242   2.005   3.979 -0.1158  0.0850  0.4042
  974MOL0     C31381   9.359   1.995   3.908  0.8259 -0.1352 -0.0708
  974MOL0     C31382   9.469   2.085   3.931 -0.3839  0.1363 -0.1387
  974MOL0     C31383   9.456   2.176   4.042  0.6739  0.3036  0.2060
  974MOL0     C31384   9.569   2.259   4.079 -1.0373 -0.0416  1.3878
  974MOL0     O31385   9.678   2.265   3.984  0.3420  0.5670 -0.2584
  974MOL0     C31386   9.781   2.363   3.993  0.2760  0.4546  0.8718
  974MOL0     C31387   9.788   2.483   4.064  0.7850 -0.3795 -0.3028
  974MOL0     C31388   9.890   2.574   4.029  0.0836  0.0601 -0.1930
  974MOL0     C31389  10.000   2.535   3.959 -0.2166 -0.2583 -0.4029
  974MOL0     O31390  10.107   2.618   3.929 -0.1309 -0.5735 -0.5360
  974MOL0     C31391  10.133   2.746   4.000 -0.7334  0.0464  1.2604
  974MOL0     C31392  10.233   2.814   3.913  0.1574 -0.3933 -0.0892
  974MOL0     C31393  10.354   2.730   3.878  0.1111 -0.6599 -0.9289
  974MOL0     C31394  10.478   2.815   3.832  0.2743 -0.7470  0.4784
  974MOL0     C31395  10.596   2.737   3.769 -0.2431  1.2710 -0.0589
  974MOL0     C31396  10.614   2.607   3.842 -0.3619 -0.0830 -0.2198
  974MOL0     C31397  10.728   2.527   3.772 -0.0073  0.0365 -0.2764
  974MOL0     C31398  10.739   2.409   3.855  0.6531  0.3138  0.1154
  974MOL0    Cl31399  10.888   2.329   3.792 -0.1997  0.1401 -0.2022
  974MOL0     C31400  10.006   2.406   3.912  0.3179  0.6778 -0.4501
  974MOL0     C31401   9.890   2.326   3.915  0.9359  0.6610 -0.1770
  974MOL0     O31402   9.572   2.312   4.189  0.8046 -0.0651  0.1058
  974MOL0     C31403   9.336   2.181   4.110 -0.1664  1.1034 -0.0670
  974MOL0     C31404   9.231   2.094   4.081 -0.3106  0.1569  0.4914
  974MOL0     N31405   8.740   1.687   3.675  0.0013 -0.6283  0.0758
  974MOL0     N31406   8.649   1.718   3.588  0.5730 -0.3004  0.1269
  974MOL0     C31407   7.371   1.276   3.576  0.7571 -0.2786 -0.6856
  974MOL0     C31408   7.245   1.215   3.574 -0.0986  1.2898 -0.6523
  974MOL0     C31409   6.805   1.140   3.657 -0.2188  1.1037  0.3278
  974MOL0     C31410   6.680   1.194   3.653  0.0352 -1.6045 -0.7486
  974MOL0     C31411   6.564   1.116   3.671  0.1115  0.8373  0.5828
  974MOL0     C31412   6.573   0.972   3.680 -0.1112 -0.5445 -0.0900
  974MOL0     O31413   6.465   0.883   3.685 -0.1474  0.1820 -0.5668
  974MOL0     C31414   6.335   0.926   3.669 -0.2090  0.7504  0.5380
  974MOL0     C31415   6.236   0.799   3.694  0.4833  0.3011 -0.5245
  974MOL0     C31416   6.097   0.805   3.630  0.0381  0.2235  0.2778
  974MOL0     C31417   6.012   0.942   3.649 -1.3302  0.9254 -0.0610
  974MOL0     C31418   6.017   0.988   3.793 -0.0695  1.1672  0.4337
  974MOL0     C31419   6.027   1.034   3.906  0.4574 -0.1545 -0.2722
  974MOL0     C31420   6.701   0.915   3.677 -0.5162  0.3573  0.0881
  974MOL0     C31421   6.820   1.000   3.672 -0.4971 -0.5512 -0.0809
  974MOL0     C31422   6.960   0.941   3.656 -0.0698 -0.1575 -0.5690
  974MOL0     H31423   7.045   1.468   3.454  0.4156  1.0101  0.6988
  974MOL0     H31424   7.261   1.583   3.475  2.2158 -0.2193  0.1469
  974MOL0     H31425   7.638   1.374   3.642  1.4614 -0.5028  0.3873
  974MOL0     H31426   7.641   1.356   3.463  1.8199  0.9383  0.1519
  974MOL0     H31427   7.682   1.609   3.608 -2.3778  0.0247 -2.0012
  974MOL0     H31428   7.724   1.583   3.436 -1.1280  1.0839  0.7248
  974MOL0     H31429   7.893   1.407   3.513 -2.5341 -1.9465  1.4619
  974MOL0     H31430   7.876   1.450   3.672 -1.2232 -0.3251 -0.2613
  974MOL0     H31431   7.955   1.625   3.436  2.3533 -2.2559 -0.0329
  974MOL0     H31432   7.911   1.702   3.594  0.3411  0.6073 -0.2863
  974MOL0     H31433   8.099   1.592   3.717  0.1082  2.5528 -0.8283
  974MOL0     H31434   8.132   1.484   3.586 -1.6260 -0.7387  1.7055
  974MOL0     H31435   8.224   1.660   3.454 -1.4593 -1.5758 -0.3333
  974MOL0     H31436   8.158   1.784   3.567 -0.1120 -0.3293 -1.2385
  974MOL0     H31437   8.387   1.592   3.588 -1.9151 -0.2245 -2.1411
  974MOL0     H31438   8.326   1.663   3.742  1.7845  0.8704  0.5396
  974MOL0     H31439   8.423   1.823   3.497 -1.2516 -1.8182 -1.7004
  974MOL0     H31440   8.389   1.898   3.653  1.4719  1.2755 -1.2349
  974MOL0     H31441   8.527   1.828   3.869 -0.8661  0.5897 -0.2914
  974MOL0     H31442   8.786   1.844   3.963  2.8613 -0.3087 -2.4804
  974MOL0     H31443   8.739   1.681   4.008 -1.2026  2.3391  1.7296
  974MOL0     H31444   8.928   1.588   3.861  0.4848 -0.4056 -0.7629
  974MOL0     H31445   8.980   1.746   3.813 -0.3413 -1.6873 -1.5061
  974MOL0     H31446   9.112   1.657   4.024  2.6375  2.7836  2.3430
  974MOL0     H31447   8.962   1.666   4.111  3.5883  0.0756  2.4131
  974MOL0     H31448   9.109   1.872   4.135  2.4787  1.1150 -1.4606
  974MOL0     H31449   8.967   1.936   4.052  1.7222  2.6252  0.3991
  974MOL0     H31450   9.363   1.920   3.829  0.6630  0.0829 -0.2844
  974MOL0     H31451   9.560   2.076   3.872  0.6563 -0.3690  1.4860
  974MOL0     H31452   9.710   2.519   4.130 -0.5036 -2.1989 -0.7485
  974MOL0     H31453   9.887   2.676   4.068 -1.8615 -0.1834  0.4044
  974MOL0     H31454  10.047   2.813   4.009 -1.2578 -0.2624 -0.9557
  974MOL0     H31455  10.171   2.730   4.102  2.2824  1.7258  0.5251
  974MOL0     H31456  10.190   2.839   3.815 -0.6848  0.8224  0.5631
  974MOL0     H31457  10.267   2.901   3.970  0.5064 -0.9251  0.5248
  974MOL0     H31458  10.383   2.682   3.973 -1.2701 -1.0837 -0.7052
  974MOL0     H31459  10.322   2.661   3.800 -2.4005 -0.6674  0.0180
  974MOL0     H31460  10.514   2.879   3.913 -1.2474  0.8623 -0.0603
  974MOL0     H31461  10.441   2.887   3.758  0.5847 -1.6872 -0.6230
  974MOL0     H31462  10.686   2.799   3.772  0.0895  0.7560  2.2076
  974MOL0     H31463  10.580   2.713   3.664  0.5312 -2.0350  0.4608
  974MOL0     H31464  10.631   2.624   3.949 -3.3951  0.2385  0.3080
  974MOL0     H31465  10.529   2.539   3.831  1.1449 -1.8223 -1.7336
  974MOL0     H31466  10.825   2.577   3.767 -0.4671  0.8273 -1.8762
  974MOL0     H31467  10.704   2.511   3.666 -1.3311  1.2510 -0.1868
  974MOL0     H31468  10.748   2.434   3.961 -1.8366 -1.7021  0.8933
  974MOL0     H31469  10.647   2.354   3.833  1.8594 -1.8419  0.1716
  974MOL0     H31470  10.085   2.364   3.852  0.4108  0.9249 -0.5012
  974MOL0     H31471   9.885   2.232   3.861 -0.1734 -0.0484  1.0850
  974MOL0     H31472   9.323   2.262   4.181  0.6403  1.8260 -0.7155
  974MOL0     H31473   9.136   2.090   4.134  0.3483  1.8138  1.9037
  974MOL0     H31474   7.459   1.226   3.616  0.6377  1.3696  1.8787
  974MOL0     H31475   7.242   1.109   3.596 -2.5576  0.4716 -4.0261
  974MOL0     H31476   6.663   1.298   3.627  1.1170 -0.3135  3.1030
  974MOL0     H31477   6.467   1.159   3.648  1.2253  2.5729 -1.2042
  974MOL0     H31478   6.325   0.959   3.565  0.3925  1.0641  0.5742
  974MOL0     H31479   6.308   1.004   3.742  1.9445  0.1974  2.0273
  974MOL0     H31480   6.228   0.793   3.803  1.6316 -1.2904 -0.5024
  974MOL0     H31481   6.300   0.719   3.656  3.3726  0.9826  2.4190
  974MOL0     H31482   6.036   0.731   3.682 -0.5839  1.2731  1.0806
  974MOL0     H31483   6.112   0.788   3.523  0.1042 -2.5459  0.6546
  974MOL0     H31484   6.062   1.005   3.574  0.9548 -3.4415 -2.6320
  974MOL0     H31485   5.912   0.914   3.616  0.0238 -1.1429 -2.8906
  974MOL0     H31486   6.030   1.081   4.002 -0.0628  0.7313 -0.6774
  974MOL0     H31487   6.708   0.807   3.677 -0.2309  0.3730  0.5210
  974MOL0     H31488   6.957   0.838   3.694 -2.8326 -0.8728 -2.3575
  974MOL0     H31489   6.982   0.926   3.549  2.6910 -2.8734  0.2154
  974MOL0     H31490   7.051   0.988   3.694  0.0993 -0.4624 -0.5897
  975MOL0     O31491   0.275   6.294   2.182 -0.2014  0.0717 -0.4252
  975MOL0     C31492   0.221   6.316   2.071 -0.0647  0.3330 -0.2782
  975MOL0     O31493   0.092   6.288   2.040  0.4369 -0.1744  0.4935
  975MOL0     C31494   0.022   6.252   2.145 -0.4638  0.5907 -0.3546
  975MOL0     C31495  -0.004   6.327   2.263 -0.2471 -0.7438  0.1870
  975MOL0     C31496  -0.089   6.280   2.362  0.2112  0.5536 -0.3290
  975MOL0     C31497  -0.168   6.170   2.335  0.1726 -0.0196 -0.0670
  975MOL0     O31498  -0.272   6.122   2.416 -0.4446 -0.5165 -0.2297
  975MOL0     C31499  -0.332   6.223   2.508  0.2297  0.1802  0.9905
  975MOL0     C31500  -0.471   6.167   2.540  0.9556  0.0550  1.0675
  975MOL0     C31501  -0.562   6.129   2.410 -0.4200  0.4468  0.2342
  975MOL0     C31502  -0.705   6.114   2.461  0.0987 -0.8876  0.5214
  975MOL0     C31503  -0.798   6.054   2.350  0.1448 -0.6064 -0.0980
  975MOL0     C31504  -0.929   6.008   2.408  0.5617 -0.0122 -0.1220
  975MOL0     C31505  -0.956   5.856   2.404  0.3879  0.4149  0.1096
  975MOL0     C31506  -1.074   5.828   2.502 -0.6439  0.5300  0.1619
  975MOL0     N31507  -1.024   5.838   2.648 -0.2225 -0.2726 -1.2100
  975MOL0     C31508  -0.914   5.769   2.701 -0.3147 -0.0110  0.2005
  975MOL0     C31509  -0.915   5.802   2.833 -0.0718  0.0471 -0.4149
  975MOL0     C31510  -0.804   5.759   2.922 -0.0316 -0.2029 -0.1286
  975MOL0     C31511  -0.690   5.873   2.920  0.3461  0.6928  0.0025
  975MOL0     C31512  -0.584   5.829   3.032 -0.0982  0.6402  0.9115
  975MOL0     C31513  -0.487   5.943   3.048  0.3471  0.2798 -0.9856
  975MOL0     O31514  -0.428   5.964   2.922  0.3326 -0.1947  0.4720
  975MOL0     C31515  -0.306   6.029   2.916 -0.3840 -0.2394  0.6512
  975MOL0     C31516  -0.233   6.006   2.804 -0.0700  0.0888 -0.1984
  975MOL0     C31517  -0.108   6.069   2.785 -0.7059 -0.2839 -0.1973
  975MOL0     C31518  -0.057   6.151   2.890 -0.5279  0.3251  0.7342
  975MOL0     C31519   0.074   6.212   2.878  0.0008 -0.8947  0.7416
  975MOL0     O31520   0.146   6.171   2.763  0.0296 -0.2381 -0.1929
  975MOL0     C31521   0.223   6.261   2.709  0.4814 -0.4198  0.6586
  975MOL0     C31522   0.324   6.330   2.775  0.0415 -0.3538 -0.5147
  975MOL0     C31523   0.403   6.412   2.700 -0.3982  0.0458  0.4656
  975MOL0     C31524   0.369   6.448   2.563 -0.9119 -0.0888 -0.1230
  975MOL0     O31525   0.455   6.540   2.503  0.0097  0.1695 -0.2973
  975MOL0     C31526   0.492   6.505   2.375  0.0912  0.0189 -0.6361
  975MOL0     C31527   0.624   6.580   2.334  0.2025 -0.4575  0.8226
  975MOL0     C31528   0.739   6.566   2.434 -0.5162  0.4258  0.4568
  975MOL0     C31529   0.824   6.693   2.419 -0.3782 -0.7357 -1.0511
  975MOL0     C31530   0.963   6.671   2.479 -0.0565 -0.3644 -0.3449
  975MOL0     C31531   1.034   6.797   2.504 -0.4762  0.0839  0.1854
  975MOL0     C31532   1.062   6.829   2.656 -0.2026 -0.3038  0.4632
  975MOL0     C31533   1.166   6.942   2.671  0.5190  0.0138  0.3096
  975MOL0    Cl31534   1.328   6.861   2.651  0.0288  0.2362  0.5599
  975MOL0     C31535   0.261   6.389   2.508 -0.5917 -0.7057 -0.0889
  975MOL0     C31536   0.199   6.287   2.576 -0.4101  0.3332  0.4332
  975MOL0     O31537   0.101   6.307   2.957  0.3247  0.0864  0.5518
  975MOL0     C31538  -0.131   6.182   2.999 -0.9475 -0.3394 -0.0304
  975MOL0     C31539  -0.255   6.120   3.014 -0.2820 -0.8542  0.4632
  975MOL0     N31540  -1.023   5.889   2.859 -0.3198  0.1069  0.1393
  975MOL0     N31541  -1.086   5.905   2.750  0.2259 -0.1293 -0.4873
  975MOL0     C31542  -0.142   6.090   2.222 -0.3501 -0.7855 -0.6330
  975MOL0     C31543  -0.039   6.131   2.135  0.2407  0.1036 -0.0021
  975MOL0     C31544   0.303   6.375   1.959 -0.4959  0.6054 -0.3141
  975MOL0     C31545   0.444   6.372   1.981 -0.2182  0.2836 -0.3859
  975MOL0     C31546   0.534   6.418   1.884  0.3210 -0.2915 -0.4972
  975MOL0     C31547   0.486   6.484   1.764 -0.1304 -0.2519 -0.4469
  975MOL0     O31548   0.566   6.550   1.674  0.3601  0.2167 -0.6393
  975MOL0     C31549   0.701   6.556   1.709  0.0259 -0.0486 -0.2385
  975MOL0     C31550   0.754   6.651   1.604 -0.3073  0.5266  0.0418
  975MOL0     C31551   0.907   6.674   1.616  0.0161 -0.7645 -0.4333
  975MOL0     C31552   0.952   6.772   1.507  1.2229  0.0459 -0.4732
  975MOL0     C31553   1.100   6.786   1.509 -0.4887  0.8553 -0.1186
  975MOL0     C31554   1.216   6.801   1.502  0.1300  0.1838 -1.0930
  975MOL0     C31555   0.348   6.486   1.748 -0.2303 -0.0370  0.0276
  975MOL0     C31556   0.254   6.438   1.839 -0.6586  0.0583  0.6514
  975MOL0     C31557   0.105   6.487   1.814  0.3823  0.9844  0.2628
  975MOL0     H31558   0.047   6.422   2.278 -1.9482  0.0365  1.3156
  975MOL0     H31559  -0.093   6.343   2.451  0.6439  2.5303 -1.6497
  975MOL0     H31560  -0.276   6.253   2.598  0.5498 -0.6482  1.0812
  975MOL0     H31561  -0.340   6.318   2.455 -1.6810 -0.4691  0.0225
  975MOL0     H31562  -0.527   6.241   2.598 -2.9407 -0.7835 -1.2959
  975MOL0     H31563  -0.467   6.078   2.604 -3.1679 -0.9007  0.2961
  975MOL0     H31564  -0.529   6.037   2.362 -0.4975 -0.1317  1.2692
  975MOL0     H31565  -0.565   6.215   2.342  0.9127 -0.4225 -0.9876
  975MOL0     H31566  -0.705   6.041   2.542  3.2365 -1.7153 -0.0657
  975MOL0     H31567  -0.732   6.213   2.497  1.9256 -0.8422  1.9218
  975MOL0     H31568  -0.823   6.132   2.279  1.2020  0.2007  0.3802
  975MOL0     H31569  -0.747   5.971   2.300 -1.5544 -1.2250 -0.8603
  975MOL0     H31570  -0.949   6.043   2.509 -1.6373  1.0784 -0.8729
  975MOL0     H31571  -1.002   6.060   2.346  0.6750  0.7467  0.3682
  975MOL0     H31572  -0.869   5.800   2.439  0.4712  1.9046  2.5648
  975MOL0     H31573  -0.980   5.829   2.300  0.2602 -0.1050  0.2723
  975MOL0     H31574  -1.148   5.907   2.488  0.1861  1.2287 -0.3764
  975MOL0     H31575  -1.122   5.730   2.494 -2.8432  1.6711 -1.5322
  975MOL0     H31576  -0.829   5.718   2.656  1.2277  2.0294  0.6742
  975MOL0     H31577  -0.837   5.750   3.026  1.7788  0.4219  0.5391
  975MOL0     H31578  -0.769   5.665   2.877  1.2278  1.1763 -2.2520
  975MOL0     H31579  -0.651   5.892   2.820  1.1977 -0.5676  0.0697
  975MOL0     H31580  -0.747   5.963   2.945  1.1882  1.1534  0.3129
  975MOL0     H31581  -0.523   5.744   3.000  1.5570  1.2591  2.2570
  975MOL0     H31582  -0.626   5.810   3.131  1.8778 -1.1815  1.4658
  975MOL0     H31583  -0.420   5.916   3.130  0.8475  2.7048 -0.5189
  975MOL0     H31584  -0.535   6.038   3.074  0.3323  0.2726 -0.9873
  975MOL0     H31585  -0.272   5.933   2.733 -1.0289 -1.2859  1.6672
  975MOL0     H31586  -0.044   6.052   2.698 -1.0382 -1.0144 -0.3098
  975MOL0     H31587   0.351   6.326   2.880 -1.0636 -0.7208 -0.2416
  975MOL0     H31588   0.501   6.437   2.739  0.1331  0.3123 -0.9827
  975MOL0     H31589   0.507   6.398   2.364 -1.2972 -0.4214  1.2552
  975MOL0     H31590   0.413   6.528   2.304 -1.3211 -0.3337  0.7574
  975MOL0     H31591   0.662   6.552   2.235 -1.7086 -0.7442  0.1187
  975MOL0     H31592   0.605   6.687   2.339  3.9373  0.3503  0.3462
  975MOL0     H31593   0.706   6.556   2.538  0.2942 -1.8377  0.5319
  975MOL0     H31594   0.785   6.470   2.411 -2.6686 -1.3999  3.0858
  975MOL0     H31595   0.769   6.770   2.475  2.8201  0.1033  1.1641
  975MOL0     H31596   0.833   6.730   2.316  2.2360 -0.3254 -0.7392
  975MOL0     H31597   1.017   6.589   2.430  0.6905 -1.3227  1.9485
  975MOL0     H31598   0.941   6.626   2.576  0.0321 -0.3442 -0.3156
  975MOL0     H31599   1.126   6.800   2.445  1.3998  3.1003  2.8884
  975MOL0     H31600   0.976   6.881   2.465  3.0747  2.8190  0.2910
  975MOL0     H31601   1.099   6.745   2.716  0.7084 -0.7465 -0.6918
  975MOL0     H31602   0.968   6.872   2.690  0.3235 -0.2555  1.9277
  975MOL0     H31603   1.136   7.027   2.609 -0.5743  1.2147  2.3677
  975MOL0     H31604   1.159   6.976   2.774 -0.4046 -0.7775  0.5216
  975MOL0     H31605   0.224   6.405   2.407 -0.8609 -0.6722  0.0132
  975MOL0     H31606   0.129   6.221   2.528  0.4381  0.9624 -1.7949
  975MOL0     H31607  -0.086   6.240   3.080  0.4706 -0.0116 -1.0096
  975MOL0     H31608  -0.319   6.148   3.097 -0.1522  2.0890 -0.2951
  975MOL0     H31609  -0.196   5.998   2.205 -0.6473 -0.3684 -2.1060
  975MOL0     H31610  -0.023   6.065   2.051  0.1786  0.9808 -0.7114
  975MOL0     H31611   0.485   6.331   2.073 -0.8632  2.4510  0.9395
  975MOL0     H31612   0.640   6.420   1.909 -0.0008  0.4202  0.9846
  975MOL0     H31613   0.745   6.457   1.695 -1.9282 -0.7065 -2.2589
  975MOL0     H31614   0.713   6.599   1.809  1.6979 -0.3764 -0.2670
  975MOL0     H31615   0.701   6.747   1.602 -2.8539 -0.7580  1.1188
  975MOL0     H31616   0.741   6.598   1.509 -1.6848  0.7574  0.0843
  975MOL0     H31617   0.964   6.584   1.591  0.9947  0.2409 -1.9539
  975MOL0     H31618   0.927   6.710   1.718 -0.8059 -0.7992 -0.2550
  975MOL0     H31619   0.905   6.746   1.411 -2.3594 -0.3564  1.2262
  975MOL0     H31620   0.914   6.869   1.540 -2.8592 -1.2853 -0.7541
  975MOL0     H31621   1.320   6.827   1.499  0.0557  0.5522 -0.6327
  975MOL0     H31622   0.300   6.529   1.660 -4.0370  1.1367  2.4295
  975MOL0     H31623   0.095   6.550   1.726 -0.3875 -2.9097 -2.7003
  975MOL0     H31624   0.039   6.402   1.795  0.5441  1.2648 -1.6897
  975MOL0     H31625   0.066   6.533   1.905 -3.4400 -0.1370 -0.6493
  976MOL0     O31626   4.695   5.233   2.453 -0.2504 -0.4299 -0.3002
  976MOL0     C31627   4.694   5.357   2.465  0.4569  0.4192  0.0488
  976MOL0     O31628   4.800   5.437   2.477 -0.2019  0.6254  0.3273
  976MOL0     C31629   4.918   5.373   2.472 -0.1666 -1.4526  0.2358
  976MOL0     C31630   4.961   5.305   2.581  0.6479 -0.8858  0.1684
  976MOL0     C31631   5.094   5.256   2.586 -0.3942 -0.0735  0.1223
  976MOL0     C31632   5.167   5.241   2.465 -0.6796 -0.0512  0.3752
  976MOL0     O31633   5.289   5.179   2.474  0.1050 -0.0161  0.1972
  976MOL0     C31634   5.378   5.202   2.363  0.5439 -1.0884  0.4180
  976MOL0     C31635   5.530   5.158   2.389  0.5038  0.9009  0.1512
  976MOL0     C31636   5.572   5.016   2.436  0.4668  0.0359  0.0598
  976MOL0     C31637   5.725   5.005   2.413  0.2223 -0.2214 -0.7012
  976MOL0     C31638   5.775   4.882   2.482  0.0210 -0.1651  0.1507
  976MOL0     C31639   5.921   4.890   2.513  0.5864 -0.5588  0.0542
  976MOL0     C31640   5.981   4.746   2.554  0.3157  0.4275 -0.1684
  976MOL0     C31641   6.004   4.647   2.443  0.4029 -0.5747  0.5371
  976MOL0     N31642   6.046   4.512   2.486  1.0531  0.2094  0.7060
  976MOL0     C31643   6.091   4.478   2.609  0.7812 -0.0346  0.4389
  976MOL0     C31644   6.120   4.345   2.604 -0.5863  0.1598 -0.2334
  976MOL0     C31645   6.116   4.235   2.711 -0.0055 -0.1266 -0.3416
  976MOL0     C31646   6.251   4.221   2.778 -0.3599  0.3648  0.8680
  976MOL0     C31647   6.356   4.149   2.685 -0.0551  0.2782 -0.3450
  976MOL0     C31648   6.483   4.136   2.765 -0.2511  0.1664  0.1278
  976MOL0     O31649   6.596   4.095   2.681  0.6406 -0.0861 -0.4278
  976MOL0     C31650   6.714   4.051   2.738 -0.5203 -0.5976  0.0859
  976MOL0     C31651   6.812   4.027   2.650 -0.3494 -0.0346  0.9915
  976MOL0     C31652   6.938   3.971   2.689 -0.0758 -0.3639  0.6117
  976MOL0     C31653   6.968   3.956   2.822 -0.7034 -0.0758  0.1083
  976MOL0     C31654   7.107   3.922   2.854  0.1946  0.1219  0.5902
  976MOL0     O31655   7.200   3.887   2.752 -1.0034 -0.4909 -0.1302
  976MOL0     C31656   7.335   3.883   2.791  0.5728 -0.0379 -0.9567
  976MOL0     C31657   7.395   3.996   2.850  0.4020  0.1821 -0.4242
  976MOL0     C31658   7.516   3.993   2.916  0.3578  0.0926  0.7877
  976MOL0     C31659   7.582   3.865   2.924 -0.2577 -0.4946  0.5144
  976MOL0     O31660   7.701   3.845   2.989  0.2931  0.0030  0.3635
  976MOL0     C31661   7.760   3.947   3.067  0.0188 -0.1957 -0.0255
  976MOL0     C31662   7.874   3.886   3.136 -0.0364 -0.0716 -0.5000
  976MOL0     C31663   7.946   3.996   3.224 -0.9974 -0.6972 -0.1559
  976MOL0     C31664   7.990   3.933   3.358 -0.5258 -0.3791 -0.0753
  976MOL0     C31665   8.045   4.037   3.453 -0.3039  0.1276 -0.7839
  976MOL0     C31666   8.185   4.082   3.415  0.4429 -0.0387  1.0241
  976MOL0     C31667   8.242   4.169   3.525  0.0855  0.1565 -0.1102
  976MOL0     C31668   8.379   4.218   3.502  0.1180 -0.7377  0.4553
  976MOL0    Cl31669   8.422   4.341   3.619  0.1181 -0.0814 -0.1817
  976MOL0     C31670   7.523   3.754   2.860  0.1558  0.4159 -0.2130
  976MOL0     C31671   7.406   3.766   2.784 -0.1150 -0.2474 -0.1087
  976MOL0     O31672   7.129   3.937   2.971 -0.1109 -0.7095 -0.2146
  976MOL0     C31673   6.865   3.981   2.916  0.3889 -0.2842 -0.1061
  976MOL0     C31674   6.737   4.027   2.875  0.4927  0.3233  0.1282
  976MOL0     N31675   6.113   4.304   2.470  0.3642  0.3591 -1.0724
  976MOL0     N31676   6.065   4.403   2.399  1.0892 -0.4558  0.3419
  976MOL0     C31677   5.117   5.305   2.352  0.8842  0.7659  0.0861
  976MOL0     C31678   4.990   5.368   2.355  0.3677 -0.0490 -0.2150
  976MOL0     C31679   4.555   5.403   2.435 -0.0547  0.0889 -0.3706
  976MOL0     C31680   4.446   5.332   2.496 -0.0956 -0.1953 -0.6475
  976MOL0     C31681   4.315   5.371   2.464 -0.4526  0.7897  0.0087
  976MOL0     C31682   4.287   5.469   2.367 -0.4029 -0.2391 -0.2153
  976MOL0     O31683   4.162   5.504   2.329  0.5107  0.4165  0.5512
  976MOL0     C31684   4.047   5.460   2.400 -0.2697 -0.1886  0.2501
  976MOL0     C31685   3.923   5.507   2.336  0.4601 -0.3641  0.3461
  976MOL0     C31686   3.869   5.427   2.214 -0.7514 -0.5501 -0.3075
  976MOL0     C31687   3.790   5.523   2.124  0.5357 -0.5374  0.3283
  976MOL0     C31688   3.673   5.573   2.204 -0.2878 -0.9428 -0.3012
  976MOL0     C31689   3.570   5.620   2.252 -0.6221 -1.2176  0.2247
  976MOL0     C31690   4.396   5.543   2.311  0.8736 -0.1967  1.1843
  976MOL0     C31691   4.523   5.503   2.346 -0.9803  0.0670  0.2790
  976MOL0     C31692   4.632   5.585   2.275 -0.0469 -0.3572 -0.1568
  976MOL0     H31693   4.898   5.309   2.670  2.6515  0.0534  1.6300
  976MOL0     H31694   5.136   5.204   2.671  0.0982  0.3229  0.1238
  976MOL0     H31695   5.339   5.149   2.276 -0.1637 -0.6769  0.4771
  976MOL0     H31696   5.373   5.308   2.336  1.7085 -1.2635 -0.5936
  976MOL0     H31697   5.576   5.231   2.455  0.8594  1.2855 -0.5107
  976MOL0     H31698   5.574   5.160   2.289 -1.8229 -0.3835 -1.0009
  976MOL0     H31699   5.515   4.944   2.376 -1.0807  2.6392 -1.8003
  976MOL0     H31700   5.539   5.008   2.540 -0.9470  0.4586 -0.3295
  976MOL0     H31701   5.743   5.013   2.306  0.2002 -1.3172 -0.7917
  976MOL0     H31702   5.775   5.093   2.456  2.0179 -2.2869  1.7503
  976MOL0     H31703   5.728   4.855   2.577  1.6632 -0.0890  1.0266
  976MOL0     H31704   5.746   4.796   2.420  0.1695 -1.0150  1.2116
  976MOL0     H31705   5.980   4.939   2.435  1.5433 -0.5582  0.7613
  976MOL0     H31706   5.928   4.960   2.596 -2.2681 -0.4939  0.3409
  976MOL0     H31707   5.918   4.699   2.630  1.9267  1.1068  1.6962
  976MOL0     H31708   6.077   4.761   2.605 -0.8398  1.0451  1.9165
  976MOL0     H31709   5.909   4.623   2.393  0.2497  2.1046 -0.6052
  976MOL0     H31710   6.080   4.694   2.380 -2.4867  1.1405 -1.9545
  976MOL0     H31711   6.081   4.525   2.706  0.6340  1.0043 -0.0700
  976MOL0     H31712   6.048   4.263   2.791  0.8622 -1.2853  0.8282
  976MOL0     H31713   6.094   4.138   2.665  3.0906 -1.0089 -0.2304
  976MOL0     H31714   6.292   4.319   2.807 -0.1493  0.7490 -0.6447
  976MOL0     H31715   6.238   4.161   2.868  1.8240 -0.3652  0.7674
  976MOL0     H31716   6.385   4.212   2.601  1.4680 -2.1510 -1.7748
  976MOL0     H31717   6.322   4.050   2.653 -0.8225 -0.3769  2.2420
  976MOL0     H31718   6.463   4.065   2.845  0.0708 -0.7764 -0.6194
  976MOL0     H31719   6.503   4.229   2.820  1.8436 -0.8092  1.1163
  976MOL0     H31720   6.792   4.034   2.544  1.7118 -0.8057  0.5013
  976MOL0     H31721   7.013   3.944   2.615  1.2283 -3.5684  2.8488
  976MOL0     H31722   7.343   4.091   2.839 -0.1340 -0.1045 -0.4371
  976MOL0     H31723   7.563   4.083   2.955  1.8737 -0.3471  0.0827
  976MOL0     H31724   7.794   4.033   3.008 -1.1476 -0.3819 -0.9899
  976MOL0     H31725   7.689   3.981   3.144  0.0394 -0.5880  0.1668
  976MOL0     H31726   7.846   3.793   3.187  0.3496 -0.2131 -0.5355
  976MOL0     H31727   7.955   3.855   3.069  1.2518  0.7668  0.6260
  976MOL0     H31728   8.036   4.028   3.170 -1.5808 -1.9921 -1.9887
  976MOL0     H31729   7.889   4.086   3.248  0.2814 -0.0176  0.4070
  976MOL0     H31730   8.057   3.850   3.335 -0.4774  0.1924 -2.1905
  976MOL0     H31731   7.900   3.896   3.407 -1.1328 -1.6383 -2.0351
  976MOL0     H31732   8.051   3.990   3.552  0.7453  0.1661 -0.8193
  976MOL0     H31733   7.980   4.124   3.460 -0.8990 -0.0791 -2.9186
  976MOL0     H31734   8.255   4.002   3.392  0.6350  0.2839  0.4733
  976MOL0     H31735   8.181   4.153   3.332 -0.5684 -0.6088  0.5770
  976MOL0     H31736   8.251   4.109   3.616 -0.7481 -1.0298 -0.7922
  976MOL0     H31737   8.180   4.259   3.528  0.0518  0.1321 -0.0795
  976MOL0     H31738   8.442   4.129   3.503  1.6163  0.2919  0.3848
  976MOL0     H31739   8.387   4.266   3.404  2.0988 -2.2277 -0.1783
  976MOL0     H31740   7.573   3.658   2.864  2.4234  1.5462  2.6120
  976MOL0     H31741   7.357   3.682   2.737  1.2908 -1.0786 -0.1455
  976MOL0     H31742   6.869   3.983   3.024 -1.5799 -0.5757  0.0065
  976MOL0     H31743   6.661   4.056   2.947 -0.6808 -0.1436 -0.8911
  976MOL0     H31744   5.176   5.292   2.262  1.1392 -4.1822  0.7239
  976MOL0     H31745   4.956   5.430   2.273  1.2089  1.4388  0.5203
  976MOL0     H31746   4.463   5.247   2.561  2.2636 -0.2530 -1.2591
  976MOL0     H31747   4.237   5.313   2.511  0.1621  0.8724  1.1719
  976MOL0     H31748   4.050   5.495   2.504  1.9136 -1.3343  0.6319
  976MOL0     H31749   4.040   5.351   2.407  2.6023 -0.3695  2.4546
  976MOL0     H31750   3.931   5.612   2.308 -0.6885 -0.4695 -0.4031
  976MOL0     H31751   3.837   5.504   2.403 -1.0073 -2.6354 -1.4846
  976MOL0     H31752   3.809   5.338   2.237  1.4869 -1.7162  1.4992
  976MOL0     H31753   3.956   5.395   2.155 -0.1217  2.1115 -0.9330
  976MOL0     H31754   3.858   5.600   2.088  2.0823 -2.3483 -0.8246
  976MOL0     H31755   3.744   5.475   2.038  1.4417 -0.9432  0.0537
  976MOL0     H31756   3.480   5.663   2.289 -0.6504 -0.6229 -0.5191
  976MOL0     H31757   4.372   5.608   2.227  6.0821 -0.8829 -1.2564
  976MOL0     H31758   4.699   5.639   2.343  1.3953 -0.5075 -1.4209
  976MOL0     H31759   4.698   5.525   2.212 -0.9095  0.8316 -2.3085
  976MOL0     H31760   4.588   5.658   2.207 -3.1122 -2.4993 -0.7056
  977MOL0     O31761  10.789   1.989   2.487  0.9684  0.4977  0.5334
  977MOL0     C31762  10.765   2.073   2.399 -0.4524 -0.0572 -0.0753
  977MOL0     O31763  10.832   2.196   2.384  0.2499  0.1067 -0.0852
  977MOL0     C31764  10.907   2.248   2.489  0.1960  0.6925  0.0991
  977MOL0     C31765  11.036   2.289   2.466 -0.9647 -0.4073 -0.6867
  977MOL0     C31766  11.109   2.349   2.568 -0.3482 -0.2016  0.6656
  977MOL0     C31767  11.055   2.363   2.694  0.3120 -0.6388  0.0347
  977MOL0     O31768  11.116   2.423   2.797 -0.0561  0.8270  0.8706
  977MOL0     C31769  11.259   2.439   2.783  0.1477 -0.0270  0.0159
  977MOL0     C31770  11.292   2.496   2.918 -0.6850  0.6411  0.2347
  977MOL0     C31771  11.447   2.490   2.926  0.5859  0.0750  0.3208
  977MOL0     C31772  11.501   2.541   3.053  0.4651 -0.0913 -0.9727
  977MOL0     C31773  11.640   2.491   3.078 -0.2971 -0.2430 -0.5648
  977MOL0     C31774  11.699   2.583   3.188  0.7169 -0.8925 -0.6812
  977MOL0     C31775  11.851   2.554   3.196 -0.5535 -0.0964  0.2728
  977MOL0     C31776  11.918   2.629   3.314  0.0111  0.6860 -0.3194
  977MOL0     N31777  12.039   2.557   3.342  0.2187  0.7835 -0.0299
  977MOL0     C31778  12.056   2.486   3.456 -1.1076  0.2120  0.0696
  977MOL0     C31779  12.182   2.430   3.442 -0.1341  0.0540  0.0464
  977MOL0     C31780  12.261   2.363   3.551 -0.0220  0.3534  0.6142
  977MOL0     C31781  12.354   2.464   3.630  0.2820  0.3833  0.6759
  977MOL0     C31782  12.416   2.389   3.745 -1.0310  0.1619  0.4149
  977MOL0     C31783  12.514   2.482   3.825 -0.6293  0.1965  0.8148
  977MOL0     O31784  12.434   2.566   3.904  0.6954 -0.1197  0.5447
  977MOL0     C31785  12.498   2.666   3.987 -0.3560 -0.1713 -0.1816
  977MOL0     C31786  12.424   2.756   4.057 -0.5212  0.2772  0.0049
  977MOL0     C31787  12.475   2.855   4.147  0.2816 -0.4375  0.8089
  977MOL0     C31788  12.607   2.855   4.159 -0.0852 -0.0287  0.1721
  977MOL0     C31789  12.669   2.968   4.233  0.7421 -0.0506  0.1893
  977MOL0     O31790  12.812   2.959   4.247  0.9664  0.2552 -0.3356
  977MOL0     C31791  12.865   3.064   4.318  0.1429 -0.8681  0.8599
  977MOL0     C31792  12.927   3.175   4.256  0.0073 -0.1089 -0.4304
  977MOL0     C31793  12.983   3.282   4.332 -0.2637 -0.5169  0.2709
  977MOL0     C31794  12.969   3.282   4.463  0.3056 -0.2393 -0.2683
  977MOL0     O31795  13.016   3.388   4.531 -0.6459  0.2276 -0.2099
  977MOL0     C31796  12.919   3.448   4.626 -0.4158  0.5791  1.0201
  977MOL0     C31797  12.978   3.564   4.694 -1.3254  1.2133  0.1810
  977MOL0     C31798  13.055   3.526   4.815 -0.9319 -0.2550  0.2878
  977MOL0     C31799  13.111   3.646   4.886  0.2452 -1.1162 -0.2122
  977MOL0     C31800  13.169   3.595   5.023  0.4995 -0.9243 -1.3494
  977MOL0     C31801  13.316   3.561   5.011 -0.2932  0.4796  0.6644
  977MOL0     C31802  13.367   3.500   5.137 -0.0654  0.7333  0.1998
  977MOL0     C31803  13.515   3.462   5.123  0.0225 -0.1407  0.4411
  977MOL0    Cl31804  13.541   3.293   5.073  0.2828 -0.3370 -0.2020
  977MOL0     C31805  12.909   3.167   4.527  0.3159 -0.4390  0.2615
  977MOL0     C31806  12.862   3.059   4.455 -0.0173  0.3472  0.2766
  977MOL0     O31807  12.603   3.067   4.262 -0.3730 -0.1406 -1.0921
  977MOL0     C31808  12.695   2.767   4.089  0.0450  0.5949  1.0186
  977MOL0     C31809  12.640   2.665   4.010  0.2726  0.1237 -0.1272
  977MOL0     N31810  12.233   2.472   3.322 -0.8881 -0.1584  0.6222
  977MOL0     N31811  12.146   2.543   3.262  0.1340 -0.4786 -0.5573
  977MOL0     C31812  10.924   2.320   2.727 -0.3475 -0.1459  0.3140
  977MOL0     C31813  10.861   2.259   2.617  0.2782 -0.2205  0.7666
  977MOL0     C31814  10.675   2.021   2.296  0.4833 -0.5932 -0.1709
  977MOL0     C31815  10.589   1.924   2.332 -0.3271  0.7233  0.2351
  977MOL0     C31816  10.482   1.873   2.247 -0.6402 -0.2898  0.2085
  977MOL0     C31817  10.468   1.924   2.116  0.6074  0.4170 -0.4621
  977MOL0     O31818  10.380   1.870   2.027 -0.3922 -0.1001  0.2698
  977MOL0     C31819  10.280   1.774   2.056  0.0326 -0.4730  0.3365
  977MOL0     C31820  10.182   1.764   1.940  1.0709 -0.4878 -0.2611
  977MOL0     C31821  10.058   1.842   1.968  0.3684  0.3128  0.0779
  977MOL0     C31822   9.933   1.779   1.899 -0.0432  0.2089  0.5727
  977MOL0     C31823   9.908   1.832   1.757  0.1550  0.3704 -0.5730
  977MOL0     C31824   9.882   1.870   1.644 -0.0801 -0.1098  0.0022
  977MOL0     C31825  10.557   2.025   2.072  0.0075  0.0768  0.2143
  977MOL0     C31826  10.654   2.074   2.162 -0.2912 -0.3126 -0.9698
  977MOL0     C31827  10.723   2.199   2.111  0.6347 -0.1184  0.3767
  977MOL0     H31828  11.088   2.280   2.371  3.4284  0.1486  1.4269
  977MOL0     H31829  11.206   2.385   2.536 -0.7798  0.7684  0.3906
  977MOL0     H31830  11.318   2.349   2.764 -1.9496 -0.9643 -2.5832
  977MOL0     H31831  11.292   2.513   2.709 -0.4279 -0.8139 -1.0434
  977MOL0     H31832  11.246   2.429   2.991 -1.0129  1.4532  0.7884
  977MOL0     H31833  11.256   2.599   2.927 -1.5625  0.1175  4.3803
  977MOL0     H31834  11.498   2.542   2.845  0.7198  1.4785  1.2782
  977MOL0     H31835  11.469   2.383   2.920 -0.0528 -0.4946  4.8308
  977MOL0     H31836  11.501   2.650   3.049 -0.8613  0.2058  2.7516
  977MOL0     H31837  11.434   2.511   3.134 -1.0014  2.1892 -1.2521
  977MOL0     H31838  11.657   2.390   3.117  1.7920  0.0014 -0.7443
  977MOL0     H31839  11.701   2.508   2.989  0.0424  1.8005  0.0132
  977MOL0     H31840  11.677   2.687   3.164  2.6710 -0.3080 -0.1188
  977MOL0     H31841  11.646   2.556   3.280  0.1392  1.3948 -0.2969
  977MOL0     H31842  11.904   2.579   3.104 -1.4511  1.7673  0.1950
  977MOL0     H31843  11.863   2.447   3.211  0.7362  0.2060  1.6237
  977MOL0     H31844  11.948   2.732   3.291  0.7837  0.4026 -0.6220
  977MOL0     H31845  11.854   2.632   3.402 -1.2223  2.3523 -1.2186
  977MOL0     H31846  11.993   2.475   3.544 -2.1072 -1.4464 -0.8001
  977MOL0     H31847  12.187   2.328   3.623 -0.6512  0.1004 -0.1428
  977MOL0     H31848  12.310   2.269   3.524 -1.9138 -0.7065  0.7561
  977MOL0     H31849  12.432   2.518   3.574 -0.6822  2.7663  1.5051
  977MOL0     H31850  12.295   2.544   3.677 -0.3963 -0.5652  1.4816
  977MOL0     H31851  12.490   2.319   3.705 -0.8003  0.8758 -0.4403
  977MOL0     H31852  12.347   2.333   3.809 -0.6094 -0.4163  0.3618
  977MOL0     H31853  12.578   2.538   3.756 -1.5072  0.3815  0.1322
  977MOL0     H31854  12.569   2.414   3.890 -0.5288 -1.9466 -1.3785
  977MOL0     H31855  12.319   2.737   4.034 -0.1129  1.6299 -3.7547
  977MOL0     H31856  12.412   2.933   4.190  0.7968  0.6983 -0.4267
  977MOL0     H31857  12.933   3.166   4.148  2.6898  3.1414 -0.7245
  977MOL0     H31858  13.020   3.371   4.281 -1.0391  0.0444  0.6571
  977MOL0     H31859  12.835   3.485   4.567  0.8671  1.6760 -0.1989
  977MOL0     H31860  12.891   3.367   4.694  2.1082 -1.3633 -0.0977
  977MOL0     H31861  13.036   3.629   4.628 -0.2493  0.1298  0.0405
  977MOL0     H31862  12.897   3.633   4.723 -0.2601  2.6539 -0.1310
  977MOL0     H31863  12.979   3.473   4.874 -3.0579  2.8470  0.5826
  977MOL0     H31864  13.138   3.460   4.790  0.9861  1.6655  1.1943
  977MOL0     H31865  13.034   3.724   4.889  1.3843  0.0257  0.1000
  977MOL0     H31866  13.194   3.682   4.825 -1.3408 -1.0257 -2.4560
  977MOL0     H31867  13.102   3.520   5.066  0.0229  0.0879 -0.2712
  977MOL0     H31868  13.177   3.678   5.093  1.4918 -2.2489  0.1781
  977MOL0     H31869  13.330   3.490   4.929 -2.6203 -1.3093  1.6932
  977MOL0     H31870  13.378   3.644   4.976  6.5642 -2.9870  2.7882
  977MOL0     H31871  13.318   3.408   5.169 -2.5219  1.7529 -0.4237
  977MOL0     H31872  13.349   3.564   5.224  0.1247 -0.3648  1.0654
  977MOL0     H31873  13.562   3.525   5.048  2.7064  0.7705  2.7381
  977MOL0     H31874  13.567   3.471   5.219 -0.1097  0.1808  0.4855
  977MOL0     H31875  12.906   3.175   4.635  2.5608  2.1456  0.2414
  977MOL0     H31876  12.814   2.975   4.502  0.4657 -0.5698 -0.8105
  977MOL0     H31877  12.801   2.780   4.110  0.3294 -1.5627  1.1979
  977MOL0     H31878  12.704   2.586   3.972 -0.1337 -0.4452  0.3442
  977MOL0     H31879  10.896   2.336   2.831  1.1615  2.3271  0.4111
  977MOL0     H31880  10.769   2.204   2.629 -0.2887  0.7653  0.9913
  977MOL0     H31881  10.602   1.879   2.429 -0.6558  1.5581  0.6748
  977MOL0     H31882  10.413   1.799   2.286  0.3568 -0.9787  0.7352
  977MOL0     H31883  10.227   1.777   2.151 -1.2420  1.7033 -0.3924
  977MOL0     H31884  10.334   1.678   2.057 -1.3220 -1.2633  0.4746
  977MOL0     H31885  10.142   1.663   1.927 -4.3803  1.1279  1.1365
  977MOL0     H31886  10.233   1.800   1.851 -1.5873 -0.1661 -1.7777
  977MOL0     H31887  10.075   1.942   1.928  1.1196 -0.5739 -1.9680
  977MOL0     H31888  10.046   1.842   2.077  5.4846 -1.7540  0.9040
  977MOL0     H31889   9.956   1.675   1.877 -0.1141  0.3552 -0.2400
  977MOL0     H31890   9.844   1.801   1.958 -0.9747 -1.0654 -0.3155
  977MOL0     H31891   9.873   1.904   1.543  1.1103  0.2060 -0.0091
  977MOL0     H31892  10.541   2.070   1.975  3.1073 -1.4977 -1.1481
  977MOL0     H31893  10.684   2.222   2.011 -0.8616  2.5662  1.4872
  977MOL0     H31894  10.707   2.290   2.170 -1.9262  2.0789 -3.2908
  977MOL0     H31895  10.831   2.189   2.097  0.4240  0.2470 -1.9020
  978MOL0     O31896   9.601   9.838   9.555  0.3050  0.4679 -0.0345
  978MOL0     C31897   9.669   9.905   9.478 -0.5084  0.7790  0.1597
  978MOL0     O31898   9.792   9.958   9.510 -0.4525 -0.8038 -0.2816
  978MOL0     C31899   9.841   9.923   9.637  0.0052 -0.2673 -0.1168
  978MOL0     C31900   9.793   9.987   9.754  0.0015  0.4539  0.3700
  978MOL0     C31901   9.839   9.944   9.870 -0.1801 -0.2691  0.0206
  978MOL0     C31902   9.932   9.838   9.881 -0.9690 -0.3978  0.2661
  978MOL0     O31903   9.985   9.782  10.005 -0.2794 -0.1240  0.7907
  978MOL0     C31904  10.029   9.878  10.106  1.2818  0.1835  0.3878
  978MOL0     C31905  10.131   9.982  10.056  0.5680  0.5233 -0.1801
  978MOL0     C31906  10.271   9.922  10.039  0.4657 -0.6430 -0.0466
  978MOL0     C31907  10.371  10.038  10.053  0.1277  0.8599  0.0392
  978MOL0     C31908  10.512   9.990  10.003  0.9255 -0.5881  0.0985
  978MOL0     C31909  10.608  10.117   9.991 -0.2652  0.7253  0.3029
  978MOL0     C31910  10.758  10.082   9.993  0.8764 -0.9216 -0.0079
  978MOL0     C31911  10.851  10.201   9.971  0.1833 -0.5011 -0.4191
  978MOL0     N31912  10.993  10.161   9.955 -0.0202 -0.2579  0.3585
  978MOL0     C31913  11.073  10.143   9.848 -0.7182 -0.1133 -0.8396
  978MOL0     C31914  11.167  10.059   9.887 -0.2543  0.0834 -0.0829
  978MOL0     C31915  11.264  10.005   9.790 -0.4429  0.3652 -0.1107
  978MOL0     C31916  11.374   9.916   9.851  0.4596  0.6812 -0.3789
  978MOL0     C31917  11.439   9.828   9.743  0.0824  2.0122 -0.1505
  978MOL0     C31918  11.509   9.708   9.807  0.1661  0.2662 -0.3177
  978MOL0     O31919  11.598   9.648   9.713 -0.7505  0.4404  0.0455
  978MOL0     C31920  11.720   9.611   9.769 -0.5145  0.5314 -0.4043
  978MOL0     C31921  11.749   9.500   9.848  0.1551 -0.0231 -1.0745
  978MOL0     C31922  11.878   9.459   9.884  1.1171 -0.2107 -0.6002
  978MOL0     C31923  11.987   9.523   9.831 -0.0832 -0.2430 -0.0420
  978MOL0     C31924  12.130   9.477   9.859  0.4149 -0.3917 -0.0773
  978MOL0     O31925  12.227   9.562   9.856 -0.4250  0.3258  0.6848
  978MOL0     C31926  12.350   9.509   9.891  0.2877  0.2259 -1.2366
  978MOL0     C31927  12.410   9.428   9.795 -0.3007 -0.3129  0.7280
  978MOL0     C31928  12.533   9.360   9.827 -0.1861 -1.2372  0.2275
  978MOL0     C31929  12.594   9.372   9.960  0.3583 -0.4801  0.1107
  978MOL0     O31930  12.707   9.303   9.987 -0.2375 -0.3210  0.1015
  978MOL0     C31931  12.780   9.324  10.111 -0.2955  0.3190  0.6669
  978MOL0     C31932  12.927   9.277  10.079  0.0089 -0.2687 -0.4771
  978MOL0     C31933  12.993   9.391  10.005 -0.4055  0.3482  0.6082
  978MOL0     C31934  13.142   9.355   9.967  0.3568 -0.0840 -0.7214
  978MOL0     C31935  13.220   9.347  10.098  0.0262 -0.2488  0.8081
  978MOL0     C31936  13.368   9.319  10.065 -0.6147 -0.4475  0.3751
  978MOL0     C31937  13.440   9.279  10.196 -0.2421 -0.4086  0.3964
  978MOL0     C31938  13.580   9.208  10.169 -0.1729 -0.0193 -0.3091
  978MOL0    Cl31939  13.693   9.341  10.129 -0.2271  1.0135 -0.2707
  978MOL0     C31940  12.528   9.450  10.051 -0.2653  0.4448  0.1687
  978MOL0     C31941  12.410   9.528  10.022 -0.3451 -0.3255  1.2715
  978MOL0     O31942  12.135   9.357   9.887  0.1221  0.7559 -0.5273
  978MOL0     C31943  11.970   9.636   9.749 -0.4663  0.1611  0.2099
  978MOL0     C31944  11.840   9.676   9.723  0.4171  0.1679  0.2452
  978MOL0     N31945  11.167  10.043  10.017 -0.6230 -0.0092 -0.6267
  978MOL0     N31946  11.063  10.108  10.060  0.6599  0.3598  0.1487
  978MOL0     C31947   9.976   9.779   9.763  0.4479 -0.2098  0.0633
  978MOL0     C31948   9.931   9.825   9.641 -0.1523 -0.8558 -0.4596
  978MOL0     C31949   9.614   9.916   9.349  1.1596  0.1165 -0.3848
  978MOL0     C31950   9.538   9.811   9.292 -0.2464  0.5309  0.6335
  978MOL0     C31951   9.472   9.824   9.165 -0.0656 -0.3518  0.4742
  978MOL0     C31952   9.492   9.940   9.086 -0.0419  0.0026 -0.1178
  978MOL0     O31953   9.433   9.966   8.965  0.0640  0.6135  0.8566
  978MOL0     C31954   9.403   9.845   8.894  0.9251 -0.4895  0.3230
  978MOL0     C31955   9.344   9.913   8.770  0.9430 -0.6222 -0.4049
  978MOL0     C31956   9.256   9.808   8.699 -0.3198  0.2400 -0.2553
  978MOL0     C31957   9.221   9.862   8.559  0.0173  0.1466  0.0612
  978MOL0     C31958   9.139   9.982   8.567  0.7721 -0.0512 -0.3154
  978MOL0     C31959   9.058  10.066   8.581 -0.3125 -0.1537 -0.0163
  978MOL0     C31960   9.563  10.049   9.149 -0.7492 -0.5094 -0.6990
  978MOL0     C31961   9.618  10.036   9.274 -0.6101 -0.1311 -0.1567
  978MOL0     C31962   9.675  10.166   9.332  1.2557  0.5914 -0.6491
  978MOL0     H31963   9.717  10.065   9.752 -0.1346  0.3391 -1.8251
  978MOL0     H31964   9.794   9.994   9.955  0.6203  0.5785 -0.0381
  978MOL0     H31965   9.940   9.932  10.141  0.7069  0.6596 -1.6556
  978MOL0     H31966  10.069   9.812  10.184 -0.0869 -1.7837 -0.4892
  978MOL0     H31967  10.125  10.053  10.139 -1.8347  0.7733 -0.5034
  978MOL0     H31968  10.102  10.039   9.968 -2.0048 -0.0967  0.1622
  978MOL0     H31969  10.278   9.878   9.939 -2.3438 -0.5835 -0.3334
  978MOL0     H31970  10.288   9.847  10.117 -1.7447  0.0016  1.1434
  978MOL0     H31971  10.325  10.118   9.995 -1.0606  0.4769  0.4207
  978MOL0     H31972  10.372  10.062  10.159  0.4596 -0.8620  0.4558
  978MOL0     H31973  10.551   9.930  10.086  0.6173 -0.1364  0.5794
  978MOL0     H31974  10.511   9.930   9.912  1.5596  0.0258 -0.3209
  978MOL0     H31975  10.585  10.176   9.902 -0.7134  4.5498  2.7084
  978MOL0     H31976  10.585  10.184  10.075 -1.3291  0.4118  0.2720
  978MOL0     H31977  10.776  10.016   9.907  2.3099  1.8579 -2.0124
  978MOL0     H31978  10.767  10.028  10.087  0.4757  1.3759  1.4173
  978MOL0     H31979  10.818  10.249   9.878  2.7029  2.7142  0.1825
  978MOL0     H31980  10.844  10.264  10.060 -0.7901 -0.8028 -0.2647
  978MOL0     H31981  11.046  10.173   9.747 -3.5178  0.8801  0.0941
  978MOL0     H31982  11.194   9.955   9.723 -1.9414  3.1201 -0.7479
  978MOL0     H31983  11.314  10.088   9.739  0.6243  0.6102  1.2601
  978MOL0     H31984  11.446   9.983   9.898 -0.9653  1.0601  1.3901
  978MOL0     H31985  11.335   9.848   9.927  1.3206 -0.2830 -0.7885
  978MOL0     H31986  11.513   9.872   9.675 -0.2352  1.5556 -0.8008
  978MOL0     H31987  11.359   9.801   9.675  0.1919  1.2097  0.0362
  978MOL0     H31988  11.431   9.634   9.825  1.1916 -0.8624 -0.3706
  978MOL0     H31989  11.561   9.737   9.899 -0.1929  0.8868 -0.3036
  978MOL0     H31990  11.664   9.446   9.888  0.2039  2.3471  2.7209
  978MOL0     H31991  11.900   9.373   9.946 -0.4190 -0.6848 -0.6676
  978MOL0     H31992  12.362   9.421   9.698  1.6373  2.1649 -0.5194
  978MOL0     H31993  12.579   9.301   9.749  0.4728 -0.4877  0.0361
  978MOL0     H31994  12.783   9.426  10.149 -0.6704  0.6779 -0.2282
  978MOL0     H31995  12.734   9.251  10.177 -0.7912 -2.2539 -2.2660
  978MOL0     H31996  12.980   9.264  10.174  0.3556 -1.1157 -0.7750
  978MOL0     H31997  12.929   9.174  10.042  1.0057 -0.7200  0.7233
  978MOL0     H31998  12.950   9.420   9.908 -2.7010 -1.1564  1.0948
  978MOL0     H31999  12.983   9.472  10.078 -3.3752  0.3791  0.2941
  978MOL0     H32000  13.179   9.446   9.920  0.5621 -0.2441 -0.8640
  978MOL0     H32001  13.144   9.263   9.909 -3.2832  0.3081 -1.7146
  978MOL0     H32002  13.186   9.274  10.172  2.3092 -0.4622  1.7437
  978MOL0     H32003  13.218   9.452  10.128  2.3504  0.5554 -1.4120
  978MOL0     H32004  13.376   9.233   9.998 -0.2243 -0.3252  0.2682
  978MOL0     H32005  13.410   9.407  10.018  2.7822 -1.4778  1.2185
  978MOL0     H32006  13.377   9.219  10.263 -2.0443  3.5899  2.5868
  978MOL0     H32007  13.455   9.368  10.257  1.9713 -0.4412 -0.0321
  978MOL0     H32008  13.611   9.151  10.257  0.4867  2.2711  1.0210
  978MOL0     H32009  13.564   9.141  10.083  1.0602  0.9788 -1.3498
  978MOL0     H32010  12.571   9.468  10.149  3.2467  1.0251 -1.3085
  978MOL0     H32011  12.349   9.585  10.092 -0.7869 -1.0640  1.5033
  978MOL0     H32012  12.057   9.685   9.705 -0.1754 -1.2055 -0.7857
  978MOL0     H32013  11.820   9.769   9.671 -0.7858  0.6860  1.5518
  978MOL0     H32014  10.037   9.689   9.762  1.1676  0.2513  0.6406
  978MOL0     H32015   9.959   9.777   9.548  3.1998 -1.0740  0.5056
  978MOL0     H32016   9.522   9.722   9.352  0.9040 -0.1310 -0.0267
  978MOL0     H32017   9.415   9.737   9.135  2.9324 -1.9742 -0.9468
  978MOL0     H32018   9.330   9.777   8.938 -1.7386  2.7675  1.4061
  978MOL0     H32019   9.495   9.790   8.874  1.4729 -0.1972  1.8929
  978MOL0     H32020   9.418   9.955   8.701  0.5234 -0.8323 -0.9993
  978MOL0     H32021   9.274   9.994   8.795  1.5939 -0.1916  0.0340
  978MOL0     H32022   9.162   9.783   8.748  0.9858 -3.4210  0.6489
  978MOL0     H32023   9.313   9.716   8.680  1.6152  1.6909 -2.1209
  978MOL0     H32024   9.318   9.893   8.518 -0.3748  1.6175  0.1812
  978MOL0     H32025   9.187   9.773   8.506 -1.8951 -0.8586  2.7126
  978MOL0     H32026   8.982  10.141   8.595  0.3729  0.3682  1.0091
  978MOL0     H32027   9.572  10.139   9.089  3.1560  0.1737  0.6521
  978MOL0     H32028   9.634  10.191   9.430  0.7328 -1.1260 -0.3908
  978MOL0     H32029   9.781  10.139   9.330  0.6212 -2.3855 -3.7459
  978MOL0     H32030   9.651  10.257   9.276 -0.4166  0.3728 -0.3308
  979MOL0     O32031   0.166   6.939   2.871 -0.4700 -0.7241  0.0105
  979MOL0     C32032   0.179   6.841   2.799 -0.7705  0.6613 -0.1479
  979MOL0     O32033   0.300   6.783   2.756 -0.1890  0.6193  0.0039
  979MOL0     C32034   0.412   6.847   2.776 -0.3735  0.4375  0.1969
  979MOL0     C32035   0.529   6.776   2.806 -1.3559  0.1628 -0.4922
  979MOL0     C32036   0.657   6.847   2.834 -0.0642 -0.4548 -0.7835
  979MOL0     C32037   0.653   6.984   2.830 -0.4694  0.1220 -0.6685
  979MOL0     O32038   0.767   7.057   2.873  0.2411 -0.3487 -0.4940
  979MOL0     C32039   0.822   7.158   2.777 -0.4461  0.2874 -0.4186
  979MOL0     C32040   0.953   7.228   2.829 -0.4298  0.3262 -0.4612
  979MOL0     C32041   0.995   7.322   2.714 -0.2663 -0.3037 -0.3522
  979MOL0     C32042   1.108   7.423   2.758  0.5893 -0.9675  0.2216
  979MOL0     C32043   1.144   7.513   2.638 -0.2153  0.5187  0.4488
  979MOL0     C32044   1.282   7.578   2.659 -0.0153  0.6037 -0.3980
  979MOL0     C32045   1.285   7.650   2.794  0.3682  0.2414 -0.7194
  979MOL0     C32046   1.433   7.693   2.826  0.5984 -0.1841 -0.6525
  979MOL0     N32047   1.517   7.573   2.856  0.6765 -0.8070 -0.2925
  979MOL0     C32048   1.486   7.465   2.930 -1.1649  0.6434 -0.4245
  979MOL0     C32049   1.594   7.377   2.916 -0.5506  0.1171  0.0082
  979MOL0     C32050   1.615   7.233   2.953 -0.5808  0.3935  0.4180
  979MOL0     C32051   1.607   7.137   2.834  0.3528  0.1044  0.0105
  979MOL0     C32052   1.721   7.032   2.840  0.1547  0.2448  0.5273
  979MOL0     C32053   1.718   6.962   2.709 -0.4226  0.1769  0.6931
  979MOL0     O32054   1.805   6.850   2.720  0.2292 -0.2978 -0.2116
  979MOL0     C32055   1.821   6.769   2.607 -0.2793 -0.4625 -0.6203
  979MOL0     C32056   1.911   6.667   2.613 -0.1268 -0.9640  0.2271
  979MOL0     C32057   1.937   6.579   2.518 -1.0393 -0.1707  0.0886
  979MOL0     C32058   1.866   6.590   2.401 -0.0477  0.4005  0.0219
  979MOL0     C32059   1.887   6.496   2.286  0.4867  0.6002  0.7987
  979MOL0     O32060   1.858   6.549   2.164  0.0068  0.0663 -0.7067
  979MOL0     C32061   1.865   6.460   2.062  0.9827 -0.2935  0.5196
  979MOL0     C32062   1.987   6.403   2.019  0.2205 -0.5256 -0.6495
  979MOL0     C32063   1.986   6.303   1.925  0.0308  0.2261 -0.2527
  979MOL0     C32064   1.871   6.279   1.853  0.5175  0.6567 -0.2506
  979MOL0     O32065   1.879   6.181   1.752 -0.1838 -0.8621  0.0291
  979MOL0     C32066   1.764   6.176   1.662 -0.5366  0.3436  0.7135
  979MOL0     C32067   1.789   6.088   1.539  0.0426 -0.3863 -0.2459
  979MOL0     C32068   1.921   6.115   1.466  0.1681  0.3777 -0.5052
  979MOL0     C32069   1.949   6.253   1.399 -0.1751  0.0011 -0.2047
  979MOL0     C32070   2.079   6.240   1.319  0.0162 -0.2408  0.4324
  979MOL0     C32071   2.205   6.236   1.400  0.1852  0.0343 -0.4989
  979MOL0     C32072   2.328   6.201   1.319 -0.2182 -0.3348  0.5473
  979MOL0     C32073   2.463   6.209   1.404 -0.2038 -0.0496 -0.2636
  979MOL0    Cl32074   2.598   6.162   1.286 -0.0295  0.4138 -0.4734
  979MOL0     C32075   1.752   6.336   1.890 -0.6646  0.3130  0.3312
  979MOL0     C32076   1.747   6.422   1.998 -0.0890 -0.6262  0.4225
  979MOL0     O32077   1.926   6.382   2.307  0.5077  0.1583  0.1599
  979MOL0     C32078   1.774   6.696   2.384  1.1020  0.3942  0.0879
  979MOL0     C32079   1.761   6.793   2.488 -0.2420 -0.6012 -0.1286
  979MOL0     N32080   1.689   7.449   2.845  0.1559 -0.4352 -1.0984
  979MOL0     N32081   1.642   7.555   2.804 -0.8055 -0.6962  0.2486
  979MOL0     C32082   0.539   7.057   2.788  1.0068 -0.1661 -1.2770
  979MOL0     C32083   0.425   6.988   2.759 -0.1039 -0.8961  0.1868
  979MOL0     C32084   0.058   6.758   2.764  0.4696  0.1999 -1.1017
  979MOL0     C32085   0.082   6.618   2.742 -0.5686  0.3987 -0.8245
  979MOL0     C32086  -0.026   6.533   2.745 -0.6814  0.6699  0.2600
  979MOL0     C32087  -0.158   6.570   2.765  0.3729 -0.4244  0.0774
  979MOL0     O32088  -0.261   6.476   2.754  0.0716 -0.2552  0.2796
  979MOL0     C32089  -0.385   6.512   2.815 -0.6346  0.3099  0.0952
  979MOL0     C32090  -0.445   6.375   2.841  0.7183  0.0472  0.4595
  979MOL0     C32091  -0.601   6.383   2.814 -0.0018  0.4010  1.2258
  979MOL0     C32092  -0.663   6.260   2.870  0.1915  0.1100  0.6634
  979MOL0     C32093  -0.806   6.262   2.862  0.4861 -0.2877  0.0186
  979MOL0     C32094  -0.929   6.238   2.859  0.4134  0.0956  0.1793
  979MOL0     C32095  -0.180   6.709   2.772 -0.0966  0.6427 -0.7985
  979MOL0     C32096  -0.082   6.803   2.766 -0.1465  0.0049 -0.8001
  979MOL0     C32097  -0.129   6.945   2.777  0.9810 -0.1911  0.1953
  979MOL0     H32098   0.530   6.668   2.810  1.2447  0.1329 -0.5485
  979MOL0     H32099   0.747   6.800   2.871  0.6276  0.5461 -1.1442
  979MOL0     H32100   0.854   7.110   2.684  1.3924  2.6610 -1.1229
  979MOL0     H32101   0.755   7.242   2.755  0.2424  0.6646 -1.1249
  979MOL0     H32102   1.038   7.165   2.853 -1.0259 -0.4594 -0.3549
  979MOL0     H32103   0.926   7.279   2.922 -4.0338 -3.9304  1.2247
  979MOL0     H32104   0.912   7.383   2.676  0.4340  1.8899  1.3770
  979MOL0     H32105   1.031   7.255   2.636  1.7752 -0.9577  1.0475
  979MOL0     H32106   1.084   7.483   2.846  0.8837  0.8977 -0.8978
  979MOL0     H32107   1.196   7.363   2.779  2.0295  0.8283 -0.4322
  979MOL0     H32108   1.157   7.462   2.542 -0.2150  3.9328 -1.5591
  979MOL0     H32109   1.065   7.586   2.616  0.5378  0.8810 -1.2340
  979MOL0     H32110   1.362   7.504   2.659 -1.1425 -0.7056 -2.6244
  979MOL0     H32111   1.294   7.647   2.574  1.2201  1.6671  0.5986
  979MOL0     H32112   1.249   7.589   2.877 -1.4700  0.2577 -1.4558
  979MOL0     H32113   1.220   7.738   2.791  1.0479  0.7373 -1.2258
  979MOL0     H32114   1.481   7.745   2.742  1.1389  0.7457  0.2177
  979MOL0     H32115   1.420   7.758   2.912 -2.5050  0.1148 -1.2298
  979MOL0     H32116   1.387   7.443   2.968 -1.4377 -0.2523 -1.5939
  979MOL0     H32117   1.715   7.236   2.996 -0.5038 -0.5589  0.3164
  979MOL0     H32118   1.549   7.202   3.034 -1.4740  0.1384 -0.3918
  979MOL0     H32119   1.510   7.091   2.815  1.5334 -2.1601 -0.9352
  979MOL0     H32120   1.637   7.196   2.747  1.3783 -0.3270  0.0540
  979MOL0     H32121   1.724   6.956   2.919  1.9227 -2.9636 -2.3254
  979MOL0     H32122   1.815   7.086   2.852  0.6742 -0.2610 -1.0027
  979MOL0     H32123   1.732   7.043   2.637  0.6141  1.0976  1.8925
  979MOL0     H32124   1.618   6.920   2.699 -0.5908  0.5854  0.6143
  979MOL0     H32125   1.975   6.651   2.700  0.2742 -2.6044 -0.3388
  979MOL0     H32126   2.009   6.500   2.531  0.6480  1.4725  1.3322
  979MOL0     H32127   2.073   6.439   2.076  0.3163 -0.9287 -0.5297
  979MOL0     H32128   2.078   6.253   1.898  0.8665  0.4289  1.9963
  979MOL0     H32129   1.681   6.138   1.722  0.6259 -1.4781  1.2692
  979MOL0     H32130   1.733   6.267   1.611  0.5508 -0.4576 -1.5067
  979MOL0     H32131   1.790   5.981   1.561 -0.5459 -0.3505 -0.0332
  979MOL0     H32132   1.701   6.098   1.475 -1.5745 -0.0652  1.8784
  979MOL0     H32133   1.998   6.104   1.543 -0.2143  1.0752 -0.0095
  979MOL0     H32134   1.932   6.039   1.389 -0.4681  4.5115 -5.1221
  979MOL0     H32135   1.949   6.322   1.484 -3.6074 -0.5976  0.4202
  979MOL0     H32136   1.860   6.279   1.341  0.0639 -1.1228 -1.1053
  979MOL0     H32137   2.091   6.321   1.246  1.6006 -2.5744 -2.0550
  979MOL0     H32138   2.069   6.157   1.248  0.3484  0.6180 -0.6564
  979MOL0     H32139   2.226   6.335   1.443  0.5153  0.1039 -0.8152
  979MOL0     H32140   2.198   6.165   1.483  2.2742  2.9661  2.4444
  979MOL0     H32141   2.336   6.269   1.234  0.2206 -2.0272 -0.8204
  979MOL0     H32142   2.315   6.096   1.292  2.7141 -0.2490 -1.6328
  979MOL0     H32143   2.482   6.304   1.454  0.1383 -0.7946  1.0909
  979MOL0     H32144   2.466   6.136   1.486 -0.8480  1.1655  0.8826
  979MOL0     H32145   1.657   6.316   1.841 -0.5801  0.9077 -0.0853
  979MOL0     H32146   1.655   6.471   2.030  0.3463  1.4621 -1.2699
  979MOL0     H32147   1.709   6.696   2.296  1.8559 -1.2481 -0.5137
  979MOL0     H32148   1.696   6.879   2.476  1.9013  0.9639 -1.4433
  979MOL0     H32149   0.540   7.166   2.790  1.9658 -0.1396 -2.3076
  979MOL0     H32150   0.336   7.046   2.735  0.3340 -0.8950 -1.5726
  979MOL0     H32151   0.180   6.573   2.735  0.2307  1.8582  0.3883
  979MOL0     H32152   0.001   6.430   2.721 -2.8955  0.9846 -5.0722
  979MOL0     H32153  -0.445   6.580   2.755  0.6922 -0.5018 -2.2658
  979MOL0     H32154  -0.359   6.557   2.912 -0.8157 -0.7506  0.6534
  979MOL0     H32155  -0.434   6.360   2.948  0.0809  1.9052  0.8226
  979MOL0     H32156  -0.401   6.296   2.780 -0.7883 -0.4286 -0.0583
  979MOL0     H32157  -0.616   6.395   2.706  1.8289 -1.1568  0.7253
  979MOL0     H32158  -0.634   6.471   2.869  2.5530  0.7020  2.4611
  979MOL0     H32159  -0.628   6.174   2.813  0.4244  0.4774  0.2532
  979MOL0     H32160  -0.633   6.246   2.975 -0.0391 -0.3061  0.6758
  979MOL0     H32161  -1.033   6.215   2.872  0.6738 -1.2301  0.0734
  979MOL0     H32162  -0.279   6.753   2.780 -0.6845 -0.3173 -2.4049
  979MOL0     H32163  -0.046   7.009   2.742  0.0251  1.0486  0.1208
  979MOL0     H32164  -0.212   6.972   2.711  1.8494  3.0486  0.2256
  979MOL0     H32165  -0.153   6.970   2.880  0.7743  0.6890 -0.0532
  980MOL0     O32166   6.294   6.505   6.572 -0.0775 -0.2722 -0.1689
  980MOL0     C32167   6.280   6.411   6.502  0.0329  0.5122  0.4674
  980MOL0     O32168   6.352   6.392   6.394  0.1291  0.0594  0.1893
  980MOL0     C32169   6.456   6.467   6.347 -0.2998  0.1762 -0.5469
  980MOL0     C32170   6.587   6.438   6.398  0.1059 -0.4705  0.6569
  980MOL0     C32171   6.692   6.522   6.356 -0.0965 -0.3621  0.1172
  980MOL0     C32172   6.683   6.637   6.277  1.2052 -0.2956  0.1602
  980MOL0     O32173   6.787   6.710   6.257 -0.7420 -0.2694  0.1229
  980MOL0     C32174   6.783   6.831   6.335  0.7671 -0.0893 -0.7790
  980MOL0     C32175   6.931   6.879   6.358 -0.6393  0.0312 -0.6382
  980MOL0     C32176   7.009   6.769   6.428 -0.3335  0.6847 -0.2018
  980MOL0     C32177   7.160   6.820   6.434  0.4296  0.4436  0.4891
  980MOL0     C32178   7.253   6.726   6.521 -0.3712  0.9458 -0.0977
  980MOL0     C32179   7.290   6.595   6.432  0.5223 -0.2884 -0.2593
  980MOL0     C32180   7.360   6.488   6.522 -0.0003 -0.5726  0.6182
  980MOL0     C32181   7.487   6.538   6.600 -0.1302 -0.2624 -0.2709
  980MOL0     N32182   7.581   6.430   6.637 -0.7162 -0.2406 -0.4016
  980MOL0     C32183   7.680   6.377   6.554 -0.5808  0.6776  0.4694
  980MOL0     C32184   7.746   6.290   6.641  0.6710  0.0219  0.1035
  980MOL0     C32185   7.849   6.183   6.605  0.6256  1.4780 -0.2365
  980MOL0     C32186   7.974   6.203   6.688 -0.3346  0.1973 -0.2239
  980MOL0     C32187   8.090   6.113   6.656  0.6555 -0.4456 -0.3092
  980MOL0     C32188   8.222   6.144   6.732 -0.3130 -0.5442  0.3398
  980MOL0     O32189   8.296   6.259   6.685  0.0849  0.1168 -0.0379
  980MOL0     C32190   8.407   6.281   6.750 -0.6746 -0.2873 -0.9113
  980MOL0     C32191   8.523   6.279   6.668  0.2849  0.0544 -0.5787
  980MOL0     C32192   8.645   6.281   6.727 -0.8650 -0.6134 -0.6436
  980MOL0     C32193   8.667   6.279   6.875 -0.1034 -0.5726 -0.4148
  980MOL0     C32194   8.812   6.279   6.922 -0.5128 -0.1229 -0.2579
  980MOL0     O32195   8.834   6.293   7.052  0.4498 -0.4933 -0.0830
  980MOL0     C32196   8.968   6.278   7.095  0.2261  0.5579 -0.2096
  980MOL0     C32197   8.999   6.347   7.205 -0.2701  0.0609  0.1755
  980MOL0     C32198   9.124   6.330   7.269 -0.0448 -0.3583  0.1014
  980MOL0     C32199   9.218   6.240   7.221 -0.2525  0.0770  1.0929
  980MOL0     O32200   9.341   6.231   7.288  0.6028 -0.9167 -0.7926
  980MOL0     C32201   9.459   6.194   7.214 -0.0360 -0.0793 -0.4246
  980MOL0     C32202   9.487   6.050   7.246  0.7859 -0.2542  0.3006
  980MOL0     C32203   9.567   6.012   7.369 -0.1869  0.1693 -0.8163
  980MOL0     C32204   9.715   6.069   7.375  0.7283 -0.0499  0.3308
  980MOL0     C32205   9.803   5.982   7.474  0.2157 -0.6126 -0.1469
  980MOL0     C32206   9.954   6.003   7.468  0.0711 -0.6302 -0.4679
  980MOL0     C32207  10.027   5.925   7.578 -0.5735 -0.0962 -0.3885
  980MOL0     C32208  10.177   5.933   7.567  0.1454 -0.0678  0.2631
  980MOL0    Cl32209  10.242   5.834   7.430  0.0855 -0.2325  0.1278
  980MOL0     C32210   9.180   6.170   7.110  0.4475  0.2124 -0.4302
  980MOL0     C32211   9.056   6.180   7.047 -0.0097  0.1084 -0.4325
  980MOL0     O32212   8.891   6.265   6.831  0.5230  0.3810  0.4629
  980MOL0     C32213   8.554   6.277   6.953 -1.1321  0.1324 -0.0461
  980MOL0     C32214   8.427   6.281   6.888 -0.3223  0.8330  0.4841
  980MOL0     N32215   7.694   6.300   6.765  0.0931 -0.2621  0.2661
  980MOL0     N32216   7.600   6.392   6.764  0.1368  0.4861  0.0560
  980MOL0     C32217   6.552   6.654   6.216  1.1200  0.3261 -0.4247
  980MOL0     C32218   6.439   6.567   6.252  0.3301 -0.7729 -0.9048
  980MOL0     C32219   6.179   6.306   6.544  0.8575  0.5536  0.8116
  980MOL0     C32220   6.136   6.212   6.446 -0.6666  0.7101  0.7794
  980MOL0     C32221   6.065   6.093   6.471 -0.0994 -0.6856 -0.5174
  980MOL0     C32222   6.025   6.067   6.605  0.0734 -0.0646 -0.3406
  980MOL0     O32223   5.974   5.946   6.639  0.1140  0.5284  0.7690
  980MOL0     C32224   5.948   5.910   6.780  0.3961  0.5574  0.0327
  980MOL0     C32225   6.079   5.880   6.853 -0.4197  0.3408  1.3348
  980MOL0     C32226   6.175   5.785   6.774 -0.0719 -0.2009 -1.2308
  980MOL0     C32227   6.314   5.781   6.842 -0.2359  0.8033 -0.1926
  980MOL0     C32228   6.305   5.754   6.990  0.1334  0.3037  0.5261
  980MOL0     C32229   6.314   5.761   7.109  0.4007  0.8422 -0.1960
  980MOL0     C32230   6.042   6.174   6.695  0.6689 -0.5566 -0.9297
  980MOL0     C32231   6.117   6.291   6.671 -0.2645  1.3189  1.2314
  980MOL0     C32232   6.127   6.385   6.790 -0.7742  0.3594  0.7406
  980MOL0     H32233   6.606   6.353   6.463  1.5770 -0.4794  0.2660
  980MOL0     H32234   6.793   6.504   6.393  0.7631  1.6747 -1.0812
  980MOL0     H32235   6.713   6.903   6.293 -1.5998 -0.4952  2.0983
  980MOL0     H32236   6.742   6.804   6.433  0.3749  0.4834 -0.7779
  980MOL0     H32237   6.927   6.965   6.426  2.3652 -0.4409  0.2735
  980MOL0     H32238   6.975   6.920   6.267  0.0129 -0.4884 -0.5652
  980MOL0     H32239   7.011   6.681   6.362 -1.7068  0.2440  0.3250
  980MOL0     H32240   6.967   6.746   6.526 -0.2811  0.6785 -0.1809
  980MOL0     H32241   7.222   6.836   6.346  1.5605  1.2962  1.4097
  980MOL0     H32242   7.150   6.917   6.483  1.4615  1.2853 -0.9052
  980MOL0     H32243   7.352   6.766   6.542  1.7158 -2.8054 -1.7153
  980MOL0     H32244   7.204   6.689   6.611 -0.9381  0.8720 -0.4342
  980MOL0     H32245   7.200   6.550   6.388  1.7424 -0.6163 -2.5584
  980MOL0     H32246   7.361   6.626   6.356  2.7718 -0.6014  1.6011
  980MOL0     H32247   7.392   6.410   6.453  1.4562  1.4133 -1.0458
  980MOL0     H32248   7.282   6.445   6.586 -0.6782 -3.0317 -1.6716
  980MOL0     H32249   7.539   6.615   6.542 -0.0837  1.0860  1.4866
  980MOL0     H32250   7.450   6.595   6.685  0.8249 -2.2050  1.5269
  980MOL0     H32251   7.679   6.386   6.446 -2.6179  1.9643  0.5372
  980MOL0     H32252   7.814   6.083   6.629  2.4177  0.8991  0.0962
  980MOL0     H32253   7.877   6.188   6.499  1.9115  0.3675  0.0355
  980MOL0     H32254   7.995   6.310   6.679 -1.1645  0.3602 -0.3866
  980MOL0     H32255   7.953   6.179   6.792  0.5888 -0.8380 -0.2509
  980MOL0     H32256   8.126   6.134   6.555  0.2645  0.5860 -0.2446
  980MOL0     H32257   8.073   6.006   6.669  0.7809 -0.3611  0.6283
  980MOL0     H32258   8.296   6.066   6.715  0.7261  0.4527  0.1529
  980MOL0     H32259   8.191   6.144   6.837 -1.2017  1.4928  0.1311
  980MOL0     H32260   8.506   6.270   6.562 -2.1062  1.2773 -0.3482
  980MOL0     H32261   8.732   6.281   6.662 -0.6560  1.1963 -0.4140
  980MOL0     H32262   8.922   6.411   7.246  1.2093  0.6908  2.1611
  980MOL0     H32263   9.150   6.383   7.360  0.1325 -1.6026  0.7940
  980MOL0     H32264   9.450   6.209   7.106  0.6670  1.0114 -0.3465
  980MOL0     H32265   9.541   6.251   7.260 -1.5235  1.7499  0.0651
  980MOL0     H32266   9.395   5.992   7.255  0.8196 -0.4386 -0.4552
  980MOL0     H32267   9.532   6.008   7.155 -0.1623  0.4199 -0.5061
  980MOL0     H32268   9.511   6.047   7.457 -0.6825  0.5522 -1.2790
  980MOL0     H32269   9.581   5.904   7.378  0.4119  0.4109  4.3410
  980MOL0     H32270   9.724   6.172   7.412 -0.9643  1.0713 -2.1315
  980MOL0     H32271   9.750   6.059   7.272 -3.1785 -1.5937 -1.0271
  980MOL0     H32272   9.775   5.879   7.452  1.8268 -0.9507 -0.7509
  980MOL0     H32273   9.770   6.006   7.576  0.7367 -0.6543  0.0326
  980MOL0     H32274   9.987   5.972   7.368  1.1643  1.4009 -0.7950
  980MOL0     H32275   9.975   6.110   7.471  1.8203 -0.9096  3.4811
  980MOL0     H32276   9.998   5.819   7.577 -0.9501  0.0041 -0.3529
  980MOL0     H32277   9.993   5.970   7.672  0.0015  0.0829 -0.2653
  980MOL0     H32278  10.218   6.035   7.565  0.4539 -0.1520  1.4198
  980MOL0     H32279  10.228   5.887   7.653 -0.3120  1.1116  1.1978
  980MOL0     H32280   9.252   6.105   7.060 -1.2287 -1.9210 -0.2378
  980MOL0     H32281   9.039   6.116   6.961  1.5062  2.2088 -2.4238
  980MOL0     H32282   8.547   6.265   7.061 -1.2676 -1.7190 -0.2315
  980MOL0     H32283   8.340   6.269   6.952  1.0349  0.7223  2.4036
  980MOL0     H32284   6.539   6.739   6.149  0.4315 -0.7535 -1.7313
  980MOL0     H32285   6.336   6.596   6.229  0.2812 -1.6043 -1.7927
  980MOL0     H32286   6.165   6.230   6.343 -0.6992 -2.1838  0.1869
  980MOL0     H32287   6.044   6.025   6.390  0.6792 -1.7372  0.1349
  980MOL0     H32288   5.882   5.823   6.785 -0.0192  0.8480  5.7001
  980MOL0     H32289   5.901   5.988   6.841  0.5758 -0.7807  1.9722
  980MOL0     H32290   6.045   5.830   6.944 -2.1016 -0.1080  0.5109
  980MOL0     H32291   6.140   5.970   6.863  1.1281 -0.4323 -0.4863
  980MOL0     H32292   6.202   5.825   6.675  4.0336  1.5233  0.3554
  980MOL0     H32293   6.137   5.683   6.785  1.5960 -0.5874  2.8481
  980MOL0     H32294   6.375   5.705   6.792  1.1460  2.6149 -1.3624
  980MOL0     H32295   6.374   5.868   6.814 -1.2678  0.6290 -3.3892
  980MOL0     H32296   6.319   5.771   7.215 -1.9575  2.7009 -0.1763
  980MOL0     H32297   6.004   6.168   6.796  1.6307  0.4510 -0.4870
  980MOL0     H32298   6.116   6.491   6.768 -2.8263 -0.3878 -2.6446
  980MOL0     H32299   6.047   6.367   6.862 -1.3714 -0.6152 -0.1264
  980MOL0     H32300   6.226   6.365   6.833 -0.8022 -2.2673 -0.2428
  981MOL0     O32301   8.216  10.994   8.985 -0.1949  0.8178 -0.2746
  981MOL0     C32302   8.186  10.951   8.872 -0.3075  0.2893 -0.7285
  981MOL0     O32303   8.258  10.986   8.763  0.4775  0.6158  0.6004
  981MOL0     C32304   8.341  11.096   8.752  0.2695  0.2105 -0.8116
  981MOL0     C32305   8.278  11.225   8.770 -0.3587  0.6587 -0.4166
  981MOL0     C32306   8.352  11.341   8.782 -0.0299 -0.2984 -0.1371
  981MOL0     C32307   8.492  11.334   8.768 -0.0635 -0.1426 -0.0684
  981MOL0     O32308   8.564  11.451   8.792  0.2545  1.3349  0.1798
  981MOL0     C32309   8.527  11.569   8.720  0.3745 -0.2366 -1.1497
  981MOL0     C32310   8.642  11.670   8.716  0.1613  0.3836  0.2272
  981MOL0     C32311   8.773  11.609   8.653 -0.0523  0.1997  0.6981
  981MOL0     C32312   8.864  11.732   8.635 -0.3102  0.2770  0.2245
  981MOL0     C32313   8.999  11.709   8.561 -0.1537  0.6179  0.2553
  981MOL0     C32314   9.086  11.840   8.546  0.3785  0.3729 -0.1635
  981MOL0     C32315   9.023  11.951   8.474 -0.5352 -0.8545 -0.4980
  981MOL0     C32316   9.124  12.056   8.438  0.1041 -0.0227  0.3035
  981MOL0     N32317   9.148  12.152   8.550  0.4889  0.5541 -0.7339
  981MOL0     C32318   9.260  12.219   8.578 -0.5462  0.2862  0.0481
  981MOL0     C32319   9.226  12.305   8.674  0.2394 -0.0488  0.5811
  981MOL0     C32320   9.316  12.411   8.733 -0.1218 -0.3183 -0.6172
  981MOL0     C32321   9.314  12.413   8.887  0.0877 -0.3478  0.5348
  981MOL0     C32322   9.405  12.520   8.953  0.5017 -0.2834 -0.0655
  981MOL0     C32323   9.553  12.484   8.950  0.1869  0.7430  0.1724
  981MOL0     O32324   9.575  12.354   9.012 -0.0676 -0.0591 -0.1847
  981MOL0     C32325   9.712  12.321   9.020 -0.1075  0.2322 -0.3598
  981MOL0     C32326   9.720  12.192   9.064 -0.3405  0.9558  0.0602
  981MOL0     C32327   9.849  12.135   9.059 -0.4300 -0.6876  1.0145
  981MOL0     C32328   9.960  12.202   9.008 -0.2307 -0.2346  0.0612
  981MOL0     C32329  10.094  12.136   9.012 -0.1466 -0.4003  0.7176
  981MOL0     O32330  10.199  12.211   8.963 -0.2111  0.2424 -0.6107
  981MOL0     C32331  10.325  12.156   8.978  0.4759 -0.0919  0.1329
  981MOL0     C32332  10.409  12.159   8.871  0.1132  0.5623  0.3232
  981MOL0     C32333  10.536  12.099   8.866 -0.1863  0.2025 -0.9688
  981MOL0     C32334  10.584  12.046   8.989  0.0393  0.3173  0.3100
  981MOL0     O32335  10.707  11.988   8.995 -0.0886  0.4212  1.0262
  981MOL0     C32336  10.705  11.868   9.072 -0.5746  0.1508 -0.2861
  981MOL0     C32337  10.829  11.790   9.018  0.5725 -0.2457  0.9669
  981MOL0     C32338  10.936  11.792   9.131 -0.8476 -0.4360 -0.3192
  981MOL0     C32339  11.044  11.691   9.086  0.3288 -0.6489 -0.3865
  981MOL0     C32340  11.123  11.652   9.216  0.4323 -0.6568  0.1816
  981MOL0     C32341  11.247  11.570   9.187  0.4731  0.1185 -0.3079
  981MOL0     C32342  11.337  11.584   9.311 -0.0576  0.3369 -0.1680
  981MOL0     C32343  11.475  11.513   9.289 -0.0723 -1.0614 -0.4959
  981MOL0    Cl32344  11.585  11.567   9.408  0.3136 -0.1135 -0.8205
  981MOL0     C32345  10.509  12.066   9.105 -0.8580 -0.8591 -0.0920
  981MOL0     C32346  10.375  12.116   9.104 -0.1860  0.6063  0.2876
  981MOL0     O32347  10.099  12.018   9.037 -0.0532  0.1616  0.7312
  981MOL0     C32348   9.945  12.335   8.969  0.7798  0.2156 -0.5288
  981MOL0     C32349   9.821  12.393   8.970  1.0809  0.9751 -0.0455
  981MOL0     N32350   9.092  12.301   8.695 -0.7275 -0.3687 -0.1301
  981MOL0     N32351   9.047  12.210   8.614 -0.8783 -0.5775 -0.8824
  981MOL0     C32352   8.551  11.213   8.736 -0.0263  0.4769  0.9479
  981MOL0     C32353   8.476  11.096   8.726  0.4708  0.1164 -0.4981
  981MOL0     C32354   8.076  10.847   8.851 -0.4986  0.5104  0.5182
  981MOL0     C32355   8.018  10.834   8.724  1.0495 -0.1504  0.5758
  981MOL0     C32356   7.903  10.758   8.698 -0.3260  0.9413  0.1766
  981MOL0     C32357   7.848  10.678   8.801 -0.8360  0.0089 -0.7719
  981MOL0     O32358   7.748  10.583   8.785 -0.2539 -0.2646  0.1854
  981MOL0     C32359   7.692  10.570   8.649  0.1391  0.5480  0.1946
  981MOL0     C32360   7.623  10.434   8.641 -0.2601 -0.1616  0.4278
  981MOL0     C32361   7.542  10.408   8.511  0.0894  0.2941  1.2840
  981MOL0     C32362   7.638  10.402   8.387  0.2233  0.3746  0.3944
  981MOL0     C32363   7.746  10.302   8.403 -0.7491 -0.3192  0.4784
  981MOL0     C32364   7.833  10.226   8.435  0.1038  0.7386  0.2947
  981MOL0     C32365   7.912  10.690   8.926  0.3226  0.1561 -0.0403
  981MOL0     C32366   8.020  10.774   8.955  0.0165  1.7349  0.4221
  981MOL0     C32367   8.073  10.766   9.092  1.3245  0.1175  0.7931
  981MOL0     H32368   8.173  11.221   8.799 -0.4597 -2.0370 -0.8965
  981MOL0     H32369   8.301  11.432   8.813 -0.0935  0.5206 -2.4844
  981MOL0     H32370   8.500  11.546   8.617 -2.6045 -4.2388  0.2875
  981MOL0     H32371   8.446  11.627   8.765  0.0453 -0.6253 -1.2423
  981MOL0     H32372   8.663  11.707   8.817 -2.2483  2.0987  0.1661
  981MOL0     H32373   8.610  11.759   8.662 -1.4290 -0.1360  0.2735
  981MOL0     H32374   8.754  11.556   8.559  1.3323 -3.5273  2.2956
  981MOL0     H32375   8.825  11.530   8.709 -0.3089 -0.7235 -0.3201
  981MOL0     H32376   8.804  11.801   8.575  0.3488  0.4879 -0.2135
  981MOL0     H32377   8.888  11.781   8.730 -1.5727 -0.2560  0.8321
  981MOL0     H32378   9.061  11.631   8.607 -1.4869 -1.0002 -0.5753
  981MOL0     H32379   8.971  11.669   8.463  0.5282  0.1583  0.2449
  981MOL0     H32380   9.122  11.872   8.644  3.0356 -1.2408 -0.5079
  981MOL0     H32381   9.174  11.807   8.489 -0.5848 -0.7537 -1.0430
  981MOL0     H32382   8.939  11.992   8.532 -0.6891  0.8369 -1.8237
  981MOL0     H32383   8.982  11.902   8.386  1.3213  1.4165 -2.7659
  981MOL0     H32384   9.224  12.016   8.415 -0.6364 -0.3284 -2.8180
  981MOL0     H32385   9.084  12.116   8.356 -1.9428  0.2750  1.4553
  981MOL0     H32386   9.352  12.218   8.521 -0.1066  0.2952  0.7378
  981MOL0     H32387   9.414  12.385   8.691 -1.1042 -3.3555 -1.2641
  981MOL0     H32388   9.297  12.512   8.695 -0.0482  0.1672  0.5797
  981MOL0     H32389   9.208  12.433   8.906 -0.2505 -2.5420  1.2862
  981MOL0     H32390   9.341  12.316   8.929  0.3151 -0.4325  0.1987
  981MOL0     H32391   9.382  12.536   9.059  0.5761 -1.4426  0.1401
  981MOL0     H32392   9.392  12.616   8.902  0.3636 -1.1323 -1.6915
  981MOL0     H32393   9.619  12.559   8.993  1.8956  0.9702 -2.6026
  981MOL0     H32394   9.583  12.470   8.846  2.3415 -2.2616  1.0446
  981MOL0     H32395   9.637  12.130   9.097 -0.2994 -0.2444 -1.9529
  981MOL0     H32396   9.867  12.029   9.075  1.8929 -0.9312 -2.1766
  981MOL0     H32397  10.367  12.203   8.781 -1.1515  0.4194  0.8201
  981MOL0     H32398  10.583  12.080   8.770 -0.7378 -0.4547 -1.1258
  981MOL0     H32399  10.719  11.891   9.179  1.7301 -0.9200 -0.2865
  981MOL0     H32400  10.620  11.806   9.044  0.4496 -0.8350 -1.3204
  981MOL0     H32401  10.804  11.688   8.988  1.3227 -0.2748  0.4225
  981MOL0     H32402  10.855  11.840   8.925 -0.9042  1.3841  1.3604
  981MOL0     H32403  10.988  11.888   9.131  2.1709 -1.9271 -2.2993
  981MOL0     H32404  10.907  11.762   9.233  1.1299  0.3592  0.5338
  981MOL0     H32405  11.103  11.743   9.009  3.1028  0.4287  2.2968
  981MOL0     H32406  11.002  11.598   9.046 -0.3148  0.3127 -2.1034
  981MOL0     H32407  11.057  11.595   9.282  0.2279 -0.4235  0.1785
  981MOL0     H32408  11.147  11.743   9.273 -3.0159  0.8717 -0.5448
  981MOL0     H32409  11.226  11.463   9.171  2.5076 -0.2434 -0.8617
  981MOL0     H32410  11.296  11.619   9.103 -2.1098  2.0326 -0.8231
  981MOL0     H32411  11.283  11.537   9.394 -1.7421 -0.1980 -1.5018
  981MOL0     H32412  11.355  11.686   9.346 -1.5303 -0.2136  2.4159
  981MOL0     H32413  11.464  11.404   9.286  2.5188 -1.4206 -0.1062
  981MOL0     H32414  11.506  11.546   9.189 -0.7586 -0.3241 -0.4695
  981MOL0     H32415  10.535  12.036   9.207  0.3228  0.1104 -0.0977
  981MOL0     H32416  10.316  12.109   9.194  0.9898 -3.7449  0.9599
  981MOL0     H32417  10.020  12.400   8.926 -1.6589  2.5465 -1.5218
  981MOL0     H32418   9.805  12.488   8.921 -0.5877  0.8779  0.2376
  981MOL0     H32419   8.659  11.212   8.732  0.0459 -1.8037  1.7109
  981MOL0     H32420   8.519  10.997   8.718  0.7483  0.3039 -1.5744
  981MOL0     H32421   8.068  10.878   8.638  0.8765  0.8097  0.9613
  981MOL0     H32422   7.857  10.746   8.601 -2.8239  0.4535  1.3395
  981MOL0     H32423   7.763  10.569   8.566 -0.1831 -2.7283 -0.1602
  981MOL0     H32424   7.623  10.652   8.625 -0.9370  0.7711  3.5834
  981MOL0     H32425   7.543  10.424   8.715  0.3699 -1.2141  0.9907
  981MOL0     H32426   7.692  10.349   8.646 -2.5646 -2.1846 -0.3398
  981MOL0     H32427   7.478  10.495   8.490  0.2883  0.0969 -0.2049
  981MOL0     H32428   7.482  10.317   8.517  0.0747  0.2613  0.6821
  981MOL0     H32429   7.589  10.389   8.290  0.0084  0.4974  0.4868
  981MOL0     H32430   7.685  10.500   8.377  0.1877  0.3895  0.3685
  981MOL0     H32431   7.905  10.150   8.457 -0.3923 -0.2588 -1.3088
  981MOL0     H32432   7.870  10.652   9.018  0.1854  2.0865  0.7343
  981MOL0     H32433   8.182  10.759   9.089  1.3592  0.3513  1.3655
  981MOL0     H32434   8.031  10.845   9.155 -0.1856  3.6782 -4.0975
  981MOL0     H32435   8.039  10.672   9.136  0.0424  1.4219  2.7157
  982MOL0     O32436   8.542   4.426   2.615  0.2344  0.1299  0.1374
  982MOL0     C32437   8.553   4.395   2.498  0.3324 -0.2070  0.7771
  982MOL0     O32438   8.666   4.381   2.430 -0.2494  0.2315  0.4790
  982MOL0     C32439   8.775   4.445   2.481 -0.1937  0.1268  0.4903
  982MOL0     C32440   8.825   4.570   2.444 -0.8469 -0.7973 -0.6778
  982MOL0     C32441   8.940   4.613   2.504  0.4538  0.3163  0.5019
  982MOL0     C32442   9.021   4.535   2.579 -0.0758  0.3542 -0.1108
  982MOL0     O32443   9.142   4.567   2.628 -0.0600 -0.2672 -0.6514
  982MOL0     C32444   9.199   4.695   2.583  0.0361  0.4196  0.3544
  982MOL0     C32445   9.336   4.717   2.654 -0.4427  0.2343 -0.2472
  982MOL0     C32446   9.376   4.866   2.631  0.3757  0.7553 -0.8610
  982MOL0     C32447   9.527   4.884   2.651  0.1354 -0.3271 -0.7229
  982MOL0     C32448   9.555   5.038   2.636 -0.1691  0.1909 -0.5660
  982MOL0     C32449   9.707   5.067   2.649 -0.3482 -0.0615  0.9201
  982MOL0     C32450   9.756   5.055   2.791  0.8406 -0.4916 -0.5707
  982MOL0     C32451   9.735   5.189   2.860 -0.2593  0.5763  0.8842
  982MOL0     N32452   9.867   5.255   2.897  0.2115  0.0780  0.1041
  982MOL0     C32453   9.958   5.321   2.808  0.3837  0.1667 -0.0139
  982MOL0     C32454  10.056   5.362   2.889  0.1645  0.9025 -0.3416
  982MOL0     C32455  10.164   5.438   2.831  0.2007 -0.7875 -0.0699
  982MOL0     C32456  10.268   5.343   2.775  0.0174  0.2463  0.1669
  982MOL0     C32457  10.326   5.237   2.871  0.0204  0.0667  0.0349
  982MOL0     C32458  10.408   5.315   2.977 -0.2349 -0.8209 -0.5064
  982MOL0     O32459  10.514   5.380   2.908 -0.6827 -0.1505 -0.6644
  982MOL0     C32460  10.616   5.422   2.997  0.0921 -0.3414  0.3089
  982MOL0     C32461  10.744   5.436   2.951  0.1833 -0.1550 -0.7240
  982MOL0     C32462  10.853   5.472   3.039 -1.1625  0.1589  0.4214
  982MOL0     C32463  10.831   5.522   3.171 -0.8964  0.5786  1.0294
  982MOL0     C32464  10.932   5.583   3.253  0.1461  0.2297 -0.4123
  982MOL0     O32465  11.053   5.542   3.222 -0.4005 -0.9650  0.8548
  982MOL0     C32466  11.153   5.638   3.230 -0.0598  0.6312  0.1899
  982MOL0     C32467  11.261   5.608   3.307 -0.1243 -1.1875  0.2491
  982MOL0     C32468  11.370   5.698   3.306  0.4629 -0.3379  0.1422
  982MOL0     C32469  11.375   5.815   3.227 -0.6118 -0.2448 -0.9256
  982MOL0     O32470  11.488   5.893   3.227  0.0506  0.8253  0.1728
  982MOL0     C32471  11.486   6.019   3.161 -0.1884 -0.0263 -0.4115
  982MOL0     C32472  11.625   6.084   3.170 -0.0109 -0.3299 -0.4190
  982MOL0     C32473  11.680   6.111   3.314  0.4665  0.3836  0.5912
  982MOL0     C32474  11.565   6.145   3.414  0.3467 -0.1102  0.1281
  982MOL0     C32475  11.612   6.187   3.553 -0.1568 -0.2590  0.9923
  982MOL0     C32476  11.726   6.297   3.561 -0.2423 -0.4982  0.3282
  982MOL0     C32477  11.680   6.432   3.496 -0.5065 -0.0616  0.0586
  982MOL0     C32478  11.780   6.547   3.497 -0.0538 -0.2289  0.0298
  982MOL0    Cl32479  11.826   6.585   3.669 -0.2664 -0.0299 -0.0976
  982MOL0     C32480  11.264   5.837   3.150 -0.2504  0.4366 -0.2898
  982MOL0     C32481  11.157   5.751   3.149 -0.6249  0.7926 -0.0436
  982MOL0     O32482  10.902   5.679   3.320 -0.8232 -0.3626 -0.0705
  982MOL0     C32483  10.694   5.503   3.222  0.2110  0.4522  0.1750
  982MOL0     C32484  10.598   5.452   3.133 -0.3619 -0.0367  0.1861
  982MOL0     N32485  10.040   5.314   3.022  0.9586 -0.3437  0.4466
  982MOL0     N32486   9.926   5.252   3.021  0.2798  0.0471  0.0644
  982MOL0     C32487   8.978   4.408   2.618  0.6128 -0.0130 -0.9798
  982MOL0     C32488   8.853   4.364   2.571  0.2494  1.1226  0.5583
  982MOL0     C32489   8.423   4.372   2.426 -0.5960  0.4858 -0.4956
  982MOL0     C32490   8.320   4.295   2.490  0.2783  1.4562  0.1775
  982MOL0     C32491   8.202   4.262   2.422  0.1770  0.3231  0.1227
  982MOL0     C32492   8.193   4.299   2.281  0.9378 -0.8152  0.7721
  982MOL0     O32493   8.072   4.272   2.216 -0.1583  0.3519  0.3767
  982MOL0     C32494   7.968   4.360   2.276 -1.0404 -0.0857  0.2518
  982MOL0     C32495   7.833   4.339   2.207 -0.7630 -0.4069 -0.3846
  982MOL0     C32496   7.730   4.433   2.270 -0.0092  0.1234  0.1572
  982MOL0     C32497   7.599   4.446   2.192 -0.5080 -0.4592  0.2482
  982MOL0     C32498   7.494   4.490   2.282  0.2208  0.2704 -0.4093
  982MOL0     C32499   7.428   4.528   2.377  0.0736  0.5877 -0.2568
  982MOL0     C32500   8.295   4.361   2.215  0.1873 -0.3701  0.5682
  982MOL0     C32501   8.408   4.398   2.289  0.3493  0.2129  0.5421
  982MOL0     C32502   8.508   4.473   2.205  1.0680 -0.2970 -0.2204
  982MOL0     H32503   8.776   4.646   2.383  0.8273  0.3178 -0.6748
  982MOL0     H32504   8.967   4.711   2.467  1.2292 -0.1451 -0.1996
  982MOL0     H32505   9.180   4.697   2.476  0.7977  0.5084  0.2163
  982MOL0     H32506   9.137   4.777   2.622 -0.5930 -0.0430  0.3506
  982MOL0     H32507   9.400   4.638   2.615 -0.7149 -0.3416  0.4513
  982MOL0     H32508   9.322   4.702   2.762  0.4770 -0.1317 -0.1704
  982MOL0     H32509   9.323   4.925   2.706  2.3092  0.8609  0.5149
  982MOL0     H32510   9.342   4.907   2.536  2.0620  1.1365 -1.3448
  982MOL0     H32511   9.561   4.847   2.747  2.9808  1.7817 -0.8101
  982MOL0     H32512   9.577   4.833   2.568 -1.9319 -0.4922 -1.9656
  982MOL0     H32513   9.533   5.089   2.542 -1.3592  2.5547  0.8999
  982MOL0     H32514   9.505   5.085   2.721  0.3557 -0.4173  0.0938
  982MOL0     H32515   9.764   4.996   2.587  1.6245  1.6203  0.7270
  982MOL0     H32516   9.720   5.171   2.618 -0.1561 -0.2001  0.5240
  982MOL0     H32517   9.862   5.031   2.794  0.6780 -1.2717 -0.7082
  982MOL0     H32518   9.718   4.978   2.860  3.2592 -0.0741  1.3677
  982MOL0     H32519   9.667   5.256   2.805  1.4781  1.8571  0.2111
  982MOL0     H32520   9.690   5.165   2.956  0.5395  1.2371  1.4327
  982MOL0     H32521   9.954   5.331   2.701  1.7685 -0.0110 -0.0937
  982MOL0     H32522  10.128   5.505   2.752  0.8692 -0.9728 -0.5386
  982MOL0     H32523  10.211   5.505   2.904  1.8515 -0.3084 -1.5177
  982MOL0     H32524  10.227   5.287   2.690  2.0462 -0.7728 -0.2029
  982MOL0     H32525  10.348   5.403   2.730 -1.5313 -0.3518 -3.7511
  982MOL0     H32526  10.389   5.165   2.818 -0.2109 -1.1890  1.4080
  982MOL0     H32527  10.255   5.177   2.929  0.6933  0.9399  1.8547
  982MOL0     H32528  10.462   5.239   3.034  2.8755 -0.3505 -2.5698
  982MOL0     H32529  10.342   5.383   3.031 -3.1103 -3.7274 -0.0428
  982MOL0     H32530  10.766   5.417   2.847  2.6820  1.3009 -0.5585
  982MOL0     H32531  10.952   5.470   2.995 -0.5127 -1.6548  1.8689
  982MOL0     H32532  11.257   5.517   3.367  0.6161  0.2004  2.5252
  982MOL0     H32533  11.450   5.685   3.377  2.5431  2.8488 -1.3903
  982MOL0     H32534  11.456   6.007   3.056 -1.5066 -1.5121  0.0799
  982MOL0     H32535  11.421   6.093   3.209  3.3609  1.8455  1.9086
  982MOL0     H32536  11.686   6.019   3.108  2.0077 -0.6275  1.7437
  982MOL0     H32537  11.624   6.183   3.123  0.5841 -0.5715 -0.9423
  982MOL0     H32538  11.738   6.024   3.348 -0.5843 -0.0522  1.3217
  982MOL0     H32539  11.746   6.197   3.300 -1.3240  1.9993  1.5649
  982MOL0     H32540  11.488   6.068   3.418  1.4885 -1.3946 -1.2281
  982MOL0     H32541  11.513   6.236   3.382  1.2264  1.4219  2.7210
  982MOL0     H32542  11.653   6.097   3.602 -0.6705 -1.7343 -1.1611
  982MOL0     H32543  11.530   6.220   3.617  0.5902 -0.8992  2.3310
  982MOL0     H32544  11.744   6.299   3.669 -4.4348  0.8078  1.1850
  982MOL0     H32545  11.813   6.257   3.509 -2.3024 -3.3771 -1.1779
  982MOL0     H32546  11.584   6.467   3.535 -0.3583  0.8120 -0.3561
  982MOL0     H32547  11.673   6.413   3.389 -2.6890 -1.0248  0.3111
  982MOL0     H32548  11.867   6.514   3.439 -0.4984 -0.3195 -0.6037
  982MOL0     H32549  11.737   6.628   3.437 -2.5495 -0.6742  1.0964
  982MOL0     H32550  11.258   5.920   3.080 -3.8628 -0.1391 -0.8643
  982MOL0     H32551  11.070   5.770   3.086 -2.2988  0.2112  1.9744
  982MOL0     H32552  10.667   5.543   3.319  1.7919  0.0821  0.7962
  982MOL0     H32553  10.500   5.440   3.178  1.0754 -1.6769  3.1689
  982MOL0     H32554   9.045   4.348   2.679 -1.0925 -0.6101  0.3955
  982MOL0     H32555   8.824   4.263   2.596  3.7165  0.0700  0.8391
  982MOL0     H32556   8.336   4.267   2.594  0.5021  1.8415  0.2475
  982MOL0     H32557   8.117   4.209   2.463 -2.4938  1.9099 -2.8455
  982MOL0     H32558   7.997   4.462   2.252 -0.2736 -0.2282  0.5340
  982MOL0     H32559   7.958   4.355   2.385  1.3267 -0.5996  0.4994
  982MOL0     H32560   7.811   4.232   2.219 -0.3365 -0.5899 -1.1415
  982MOL0     H32561   7.853   4.370   2.104  1.5898  4.6523  1.2797
  982MOL0     H32562   7.772   4.535   2.270  1.7229 -0.4625 -2.9296
  982MOL0     H32563   7.701   4.399   2.370 -3.0459  1.2258 -0.2437
  982MOL0     H32564   7.608   4.521   2.113  2.6339 -1.2121 -0.2296
  982MOL0     H32565   7.572   4.349   2.148 -0.2857 -0.7447  0.7393
  982MOL0     H32566   7.365   4.568   2.454 -1.1570  1.7588 -1.8036
  982MOL0     H32567   8.279   4.399   2.115  1.2398  3.1193  1.6079
  982MOL0     H32568   8.541   4.568   2.250  2.8050 -0.1304 -1.7223
  982MOL0     H32569   8.598   4.413   2.191  1.9362  0.5950  1.1815
  982MOL0     H32570   8.475   4.493   2.103 -3.9916 -1.6068  0.9190
  983MOL0     O32571   5.462  10.419   1.354  0.1106 -0.0322 -0.3054
  983MOL0     C32572   5.408  10.343   1.275  0.6650 -0.7032  0.1606
  983MOL0     O32573   5.354  10.381   1.150  0.0165 -0.5964  0.7058
  983MOL0     C32574   5.370  10.510   1.100  0.7809 -0.5846 -0.6482
  983MOL0     C32575   5.405  10.534   0.969  0.4325  1.0889 -0.0787
  983MOL0     C32576   5.408  10.665   0.922 -0.4950  0.6059 -0.0551
  983MOL0     C32577   5.362  10.778   0.995 -0.5795  0.6308  0.8399
  983MOL0     O32578   5.340  10.900   0.940  0.3233 -0.7722  0.2955
  983MOL0     C32579   5.290  10.890   0.807  0.1237  0.6324  0.6824
  983MOL0     C32580   5.266  11.037   0.766  0.3708 -0.5644 -0.4596
  983MOL0     C32581   5.186  11.057   0.643  0.4089  0.2455  0.3426
  983MOL0     C32582   5.200  11.201   0.600  0.4342  0.6015  0.2285
  983MOL0     C32583   5.092  11.231   0.500  0.8754 -1.1244  0.4277
  983MOL0     C32584   5.122  11.364   0.433  0.5475 -0.1985  0.1179
  983MOL0     C32585   5.016  11.379   0.318  0.0992  0.5827 -0.6318
  983MOL0     C32586   5.020  11.526   0.262  0.1403  1.0619 -0.1932
  983MOL0     N32587   5.117  11.538   0.149  0.2050 -0.5963 -0.4877
  983MOL0     C32588   5.236  11.607   0.158  0.5352  0.0185  0.8318
  983MOL0     C32589   5.316  11.559   0.059 -0.6957  0.1478  0.6722
  983MOL0     C32590   5.451  11.619   0.015  0.1408  0.8183  0.3997
  983MOL0     C32591   5.558  11.506   0.007 -0.4377  0.1615 -0.1569
  983MOL0     C32592   5.551  11.424  -0.127  1.0235  0.1804 -0.1349
  983MOL0     C32593   5.650  11.308  -0.113  0.3164 -0.0268 -0.5980
  983MOL0     O32594   5.655  11.226  -0.227 -0.1763  0.2694 -0.7173
  983MOL0     C32595   5.768  11.152  -0.247 -0.1559 -0.0676  0.3183
  983MOL0     C32596   5.884  11.155  -0.175 -0.0544 -0.7709  0.4895
  983MOL0     C32597   5.993  11.077  -0.204 -0.0468 -0.3573 -0.1603
  983MOL0     C32598   5.985  11.001  -0.320  0.1941  0.4976  0.8954
  983MOL0     C32599   6.098  10.908  -0.358 -0.1078  0.5359  0.9287
  983MOL0     O32600   6.097  10.853  -0.486 -0.6072 -0.1871 -0.4521
  983MOL0     C32601   6.207  10.790  -0.533 -0.4960  0.0420 -0.1973
  983MOL0     C32602   6.226  10.653  -0.519  0.5561 -0.2213  0.0811
  983MOL0     C32603   6.340  10.582  -0.569 -0.9122 -0.6071 -0.3615
  983MOL0     C32604   6.428  10.650  -0.651 -0.1110  0.1777 -0.6757
  983MOL0     O32605   6.512  10.580  -0.735  0.1847 -0.5989  0.4415
  983MOL0     C32606   6.648  10.622  -0.742  0.7462 -0.5129  0.1676
  983MOL0     C32607   6.738  10.499  -0.748  0.1524  0.0641 -0.4800
  983MOL0     C32608   6.882  10.541  -0.784  0.3851  0.2003  0.0802
  983MOL0     C32609   6.899  10.583  -0.932  0.4497  0.3642  0.1271
  983MOL0     C32610   7.050  10.613  -0.961 -0.0177 -0.1669 -0.2110
  983MOL0     C32611   7.083  10.652  -1.106  0.7821  0.3769 -0.4054
  983MOL0     C32612   7.205  10.740  -1.118  0.0740 -1.1479  0.3698
  983MOL0     C32613   7.322  10.687  -1.045 -0.0269  0.0618  0.4642
  983MOL0    Cl32614   7.477  10.753  -1.112  0.3400 -0.0978  0.0899
  983MOL0     C32615   6.409  10.784  -0.677 -0.0434  0.9397 -0.5954
  983MOL0     C32616   6.295  10.856  -0.618  0.3620  0.6696 -0.1456
  983MOL0     O32617   6.191  10.903  -0.286  0.2883 -0.1200 -0.1428
  983MOL0     C32618   5.871  10.995  -0.398 -0.1042 -0.4325  0.7550
  983MOL0     C32619   5.760  11.063  -0.353 -0.0300 -0.5154  0.3491
  983MOL0     N32620   5.248  11.460  -0.002 -0.2931  0.7737 -0.4583
  983MOL0     N32621   5.132  11.446   0.046  0.4898 -0.8972 -0.4287
  983MOL0     C32622   5.328  10.750   1.128  0.6526  0.2248 -0.6642
  983MOL0     C32623   5.334  10.622   1.181  0.5818 -0.2095  0.2391
  983MOL0     C32624   5.381  10.202   1.320 -0.0745  0.6499  0.0285
  983MOL0     C32625   5.308  10.118   1.239 -0.3977  0.3618 -0.1406
  983MOL0     C32626   5.316   9.976   1.246 -0.6006 -0.3394  0.2435
  983MOL0     C32627   5.378   9.919   1.360 -0.5425  0.1794 -0.2659
  983MOL0     O32628   5.402   9.786   1.377  0.2972 -0.1633  0.3046
  983MOL0     C32629   5.430   9.718   1.249 -0.1463  0.8546 -0.1482
  983MOL0     C32630   5.489   9.575   1.271 -0.1119  0.0967 -0.9029
  983MOL0     C32631   5.382   9.458   1.273  0.3619  0.1238  0.3189
  983MOL0     C32632   5.445   9.320   1.241 -0.5091  0.7397 -0.4463
  983MOL0     C32633   5.516   9.267   1.355 -0.5341  0.1073 -0.7089
  983MOL0     C32634   5.578   9.218   1.458 -0.3325 -0.6008  0.4881
  983MOL0     C32635   5.433  10.003   1.456 -0.2833 -0.6168  0.2045
  983MOL0     C32636   5.433  10.146   1.444  0.0764  0.6599 -0.0154
  983MOL0     C32637   5.507  10.226   1.549  0.1321  0.4551 -0.1691
  983MOL0     H32638   5.436  10.446   0.913 -0.6952 -0.3406  1.4265
  983MOL0     H32639   5.434  10.673   0.817 -0.4016  1.9747  0.0496
  983MOL0     H32640   5.345  10.840   0.727  1.0515  2.2223  0.2647
  983MOL0     H32641   5.197  10.833   0.806 -1.3106  2.8253 -0.0137
  983MOL0     H32642   5.360  11.093   0.759  0.8467 -1.2887 -0.0593
  983MOL0     H32643   5.199  11.070   0.846  0.2952 -0.4800 -0.5569
  983MOL0     H32644   5.085  11.026   0.671  0.6609 -1.9432 -0.9553
  983MOL0     H32645   5.228  10.998   0.561  3.4098  3.1886 -0.4790
  983MOL0     H32646   5.189  11.268   0.686  1.0118 -0.0516  0.8249
  983MOL0     H32647   5.301  11.209   0.559  0.8611  2.2761  1.4871
  983MOL0     H32648   5.078  11.157   0.421 -1.7658 -0.7163  0.4428
  983MOL0     H32649   4.997  11.233   0.553  0.7971 -2.4934  0.3860
  983MOL0     H32650   5.121  11.450   0.501 -0.1846 -0.8475  0.9525
  983MOL0     H32651   5.215  11.367   0.376 -0.2806 -1.8094 -1.4042
  983MOL0     H32652   4.914  11.362   0.352 -0.3109 -0.6045 -2.2742
  983MOL0     H32653   5.031  11.302   0.241 -0.9261 -0.9653  0.6403
  983MOL0     H32654   4.921  11.555   0.228  0.5592  1.9605 -0.6850
  983MOL0     H32655   5.044  11.600   0.340  1.7738 -0.6225  0.9911
  983MOL0     H32656   5.263  11.683   0.231 -1.5148 -0.5768  2.3235
  983MOL0     H32657   5.434  11.669  -0.080  1.9007  0.2489 -0.2555
  983MOL0     H32658   5.490  11.690   0.089  2.5070 -0.4163  0.4583
  983MOL0     H32659   5.652  11.560   0.019 -1.9417  2.5283  2.0669
  983MOL0     H32660   5.538  11.451   0.100  0.5464 -2.7501 -1.5445
  983MOL0     H32661   5.572  11.487  -0.213  1.0201 -0.9027 -0.9435
  983MOL0     H32662   5.453  11.379  -0.143  1.0071 -0.2544  1.0584
  983MOL0     H32663   5.625  11.244  -0.028  0.6763 -1.1903 -1.3418
  983MOL0     H32664   5.748  11.352  -0.091 -0.2311  1.1830 -0.4806
  983MOL0     H32665   5.892  11.220  -0.089  1.7854  2.0796 -1.6353
  983MOL0     H32666   6.070  11.073  -0.128 -0.4438  1.3367  0.3753
  983MOL0     H32667   6.153  10.608  -0.453  0.7091 -0.1756  0.2822
  983MOL0     H32668   6.359  10.477  -0.546  0.6424 -0.4879 -0.9491
  983MOL0     H32669   6.660  10.691  -0.826  1.8987 -0.6003  0.2392
  983MOL0     H32670   6.678  10.658  -0.643 -3.6738 -0.3415  1.6434
  983MOL0     H32671   6.736  10.447  -0.651  1.2636 -0.0115 -0.4862
  983MOL0     H32672   6.706  10.429  -0.826  3.5485  0.3626 -2.2838
  983MOL0     H32673   6.917  10.627  -0.725 -0.9879  0.7951  0.0709
  983MOL0     H32674   6.948  10.456  -0.766 -0.4466 -0.1498  1.6513
  983MOL0     H32675   6.838  10.672  -0.953  2.5288  1.9650  0.5483
  983MOL0     H32676   6.864  10.503  -0.998 -1.5952 -0.4652  2.0956
  983MOL0     H32677   7.117  10.527  -0.947  0.3421  0.0673 -0.4646
  983MOL0     H32678   7.070  10.690  -0.887 -4.6933  1.3047 -0.1474
  983MOL0     H32679   7.098  10.564  -1.169 -1.1604 -1.0377  0.9734
  983MOL0     H32680   6.995  10.707  -1.141  1.0815  2.2613  1.5797
  983MOL0     H32681   7.188  10.844  -1.087  1.5547 -0.7417 -0.0658
  983MOL0     H32682   7.236  10.752  -1.223 -2.1078 -0.6249 -0.2636
  983MOL0     H32683   7.308  10.713  -0.939  2.0584  1.0596  0.5463
  983MOL0     H32684   7.332  10.578  -1.047 -1.7777 -0.2216  2.7468
  983MOL0     H32685   6.470  10.835  -0.752 -0.4576  1.1828 -0.7731
  983MOL0     H32686   6.277  10.959  -0.645 -0.3099  0.7591  0.6305
  983MOL0     H32687   5.863  10.936  -0.489 -2.3128  0.5328  0.2655
  983MOL0     H32688   5.665  11.064  -0.404 -0.1911 -1.4489  0.6156
  983MOL0     H32689   5.302  10.832   1.194 -1.7489 -1.4449  0.6167
  983MOL0     H32690   5.315  10.606   1.287 -0.4241  5.6307  1.2878
  983MOL0     H32691   5.250  10.154   1.155  0.6634 -0.2017 -1.1380
  983MOL0     H32692   5.268   9.911   1.173 -0.2257 -1.5719  1.0602
  983MOL0     H32693   5.497   9.779   1.189 -0.0925  2.1216  1.1540
  983MOL0     H32694   5.337   9.708   1.192  1.4019 -1.6311 -2.4694
  983MOL0     H32695   5.533   9.574   1.371 -0.1593  0.5529 -0.8755
  983MOL0     H32696   5.580   9.554   1.214  0.3829  2.2197 -0.9687
  983MOL0     H32697   5.309   9.483   1.195  2.5278 -0.9614 -2.2255
  983MOL0     H32698   5.335   9.443   1.370 -3.0531  4.2390 -0.4124
  983MOL0     H32699   5.361   9.254   1.219 -0.5130  0.9121 -0.9685
  983MOL0     H32700   5.507   9.323   1.151  0.7672  1.6134  0.4292
  983MOL0     H32701   5.633   9.177   1.540  0.3326  0.5140  0.6245
  983MOL0     H32702   5.475   9.950   1.541 -1.7776  0.2692  1.5417
  983MOL0     H32703   5.533  10.161   1.633  2.3478  1.7063  0.2064
  983MOL0     H32704   5.606  10.246   1.506  0.6143 -0.8769  0.2645
  983MOL0     H32705   5.445  10.312   1.576 -1.7704 -0.6276 -0.9160
  984MOL0     O32706   7.805   2.161   6.191  1.5646  0.2811  0.1364
  984MOL0     C32707   7.807   2.172   6.066 -0.2715  0.5213 -0.6369
  984MOL0     O32708   7.734   2.260   5.993 -0.7357  0.7686 -0.4341
  984MOL0     C32709   7.631   2.316   6.054  1.3772  0.6941 -0.3606
  984MOL0     C32710   7.512   2.242   6.053  0.4172 -0.4257 -0.4004
  984MOL0     C32711   7.395   2.307   6.086  0.1749 -0.4446  0.3620
  984MOL0     C32712   7.402   2.434   6.146 -1.0521  0.0167 -0.2312
  984MOL0     O32713   7.308   2.513   6.207  0.2127  0.0686 -0.0835
  984MOL0     C32714   7.174   2.456   6.235 -0.8083  0.2623 -0.3514
  984MOL0     C32715   7.083   2.578   6.251  0.3117 -0.0963 -0.1124
  984MOL0     C32716   6.934   2.552   6.251 -0.0523  0.1508  0.1603
  984MOL0     C32717   6.883   2.483   6.380 -1.1915 -0.2924 -0.0224
  984MOL0     C32718   6.742   2.430   6.376 -0.1893  0.3192  0.5488
  984MOL0     C32719   6.653   2.553   6.350 -0.0002  0.2749 -0.0532
  984MOL0     C32720   6.512   2.513   6.393  0.2199  0.0101  0.1320
  984MOL0     C32721   6.403   2.592   6.332 -1.0329 -0.9065 -0.8787
  984MOL0     N32722   6.395   2.718   6.404  0.2976  0.4885 -0.1479
  984MOL0     C32723   6.478   2.833   6.393 -0.3683  0.5023 -0.7599
  984MOL0     C32724   6.425   2.928   6.474  1.0192  0.4610  0.5637
  984MOL0     C32725   6.466   3.073   6.470 -0.6194  0.1209 -0.5975
  984MOL0     C32726   6.395   3.141   6.351 -0.7414 -0.1988 -0.2457
  984MOL0     C32727   6.287   3.241   6.387 -0.3406 -0.2086 -0.3677
  984MOL0     C32728   6.173   3.191   6.466  0.4046 -0.4009  0.3916
  984MOL0     O32729   6.081   3.302   6.491 -0.6615 -0.1622 -0.5971
  984MOL0     C32730   5.951   3.278   6.526 -1.0386  0.0561  0.2170
  984MOL0     C32731   5.908   3.149   6.569  0.6268  1.4591 -0.5097
  984MOL0     C32732   5.774   3.136   6.618  0.3320  0.4773 -0.8920
  984MOL0     C32733   5.685   3.251   6.620 -0.0388 -0.6960 -0.1898
  984MOL0     C32734   5.547   3.235   6.672  0.5111 -0.4079  0.6696
  984MOL0     O32735   5.460   3.339   6.656 -0.4130 -0.1499 -0.2062
  984MOL0     C32736   5.363   3.351   6.746  0.1110  0.2695 -0.5283
  984MOL0     C32737   5.243   3.394   6.698  0.2132 -0.0369  0.0200
  984MOL0     C32738   5.141   3.429   6.785  0.9149  0.2692 -0.6511
  984MOL0     C32739   5.165   3.424   6.924 -0.1391  0.6456  0.8420
  984MOL0     O32740   5.070   3.464   7.015 -0.3994  0.0742  0.2647
  984MOL0     C32741   4.943   3.502   6.969  0.0869 -0.2780 -0.0180
  984MOL0     C32742   4.884   3.585   7.088  0.3049  0.1408  0.5262
  984MOL0     C32743   4.742   3.629   7.072  1.1638 -0.1275 -0.3815
  984MOL0     C32744   4.691   3.721   7.191 -0.2577  0.7244  0.0477
  984MOL0     C32745   4.554   3.789   7.181 -0.4589  0.2072  0.2629
  984MOL0     C32746   4.528   3.860   7.319  0.8253 -0.2296 -0.1667
  984MOL0     C32747   4.393   3.926   7.328 -0.5877 -0.4437  0.2608
  984MOL0     C32748   4.379   3.999   7.457  0.1898 -0.9884  0.0222
  984MOL0    Cl32749   4.238   4.104   7.442  0.0756 -0.2460  0.3465
  984MOL0     C32750   5.277   3.369   6.974  0.2149  0.2453 -0.5411
  984MOL0     C32751   5.376   3.343   6.884  0.2312 -0.5561 -0.2900
  984MOL0     O32752   5.517   3.134   6.736 -0.4527 -0.1545  0.0087
  984MOL0     C32753   5.734   3.372   6.566 -0.5456 -0.5950  0.1211
  984MOL0     C32754   5.864   3.382   6.510  0.3857 -0.0554  0.2545
  984MOL0     N32755   6.317   2.867   6.541 -0.0388 -0.2570 -0.1327
  984MOL0     N32756   6.309   2.745   6.506 -0.1309 -0.4646 -0.4237
  984MOL0     C32757   7.522   2.504   6.145  0.5650  0.2692  0.2204
  984MOL0     C32758   7.635   2.446   6.099  0.1641 -0.0156 -0.5735
  984MOL0     C32759   7.926   2.106   5.993 -0.0413  0.4527 -0.0752
  984MOL0     C32760   8.036   2.069   6.067 -0.5600 -0.3798  0.5723
  984MOL0     C32761   8.136   1.996   6.006  0.0403 -0.5314 -0.0769
  984MOL0     C32762   8.139   1.970   5.869  0.1696 -0.4958 -0.4543
  984MOL0     O32763   8.261   1.915   5.824 -0.4737 -1.1263 -0.0954
  984MOL0     C32764   8.268   1.850   5.695 -0.4070  0.2800 -0.7660
  984MOL0     C32765   8.406   1.786   5.680  0.0326 -0.2617 -0.4570
  984MOL0     C32766   8.522   1.877   5.722  0.4728  0.1056 -0.6025
  984MOL0     C32767   8.660   1.813   5.737  0.0298  0.0923  0.0157
  984MOL0     C32768   8.756   1.917   5.784  0.1751 -0.8692  0.1221
  984MOL0     C32769   8.825   2.004   5.833  0.1468 -0.8029  0.1154
  984MOL0     C32770   8.028   2.010   5.801 -0.5417 -0.1399 -0.2049
  984MOL0     C32771   7.916   2.076   5.858  0.5747 -0.9687  0.3799
  984MOL0     C32772   7.805   2.122   5.763 -0.4517 -0.6366  0.6023
  984MOL0     H32773   7.520   2.137   6.028  1.1469 -0.7512  1.0742
  984MOL0     H32774   7.311   2.238   6.090  1.2724 -1.7662  2.9467
  984MOL0     H32775   7.137   2.392   6.154  1.7744 -1.4624 -0.2696
  984MOL0     H32776   7.183   2.388   6.320 -1.9004  1.2481  0.5898
  984MOL0     H32777   7.105   2.644   6.167 -0.0676  0.7474  0.4368
  984MOL0     H32778   7.094   2.628   6.348 -0.9572 -0.5513  0.2805
  984MOL0     H32779   6.905   2.505   6.157  0.7286  0.4872 -0.2599
  984MOL0     H32780   6.888   2.651   6.245  0.1523  0.2031 -0.6818
  984MOL0     H32781   6.951   2.399   6.392 -0.1699  0.2436 -1.6898
  984MOL0     H32782   6.894   2.549   6.467  0.1098  0.0530 -0.4312
  984MOL0     H32783   6.724   2.360   6.293 -1.0351 -2.8280  3.1946
  984MOL0     H32784   6.714   2.380   6.469 -2.3959 -2.3927 -1.4014
  984MOL0     H32785   6.689   2.643   6.401  0.5394  1.0849 -1.8088
  984MOL0     H32786   6.658   2.578   6.244 -2.6467 -0.5724 -0.4572
  984MOL0     H32787   6.503   2.510   6.502 -0.4764  2.0487  0.1651
  984MOL0     H32788   6.498   2.413   6.350 -1.5017  0.4913 -0.4769
  984MOL0     H32789   6.424   2.632   6.232  1.3797  2.1600  0.6553
  984MOL0     H32790   6.310   2.535   6.338 -1.0991 -0.7282  3.8722
  984MOL0     H32791   6.566   2.837   6.330 -0.2935 -1.8509 -0.9020
  984MOL0     H32792   6.444   3.113   6.569 -0.7092 -0.9129 -0.1962
  984MOL0     H32793   6.575   3.080   6.461 -0.6164 -0.6293 -1.2128
  984MOL0     H32794   6.472   3.196   6.295  1.3735 -3.3154 -0.6736
  984MOL0     H32795   6.349   3.074   6.278  1.2203 -2.5177  0.5186
  984MOL0     H32796   6.244   3.283   6.296  0.1514  1.3003  0.0825
  984MOL0     H32797   6.337   3.322   6.439 -1.2587 -0.7352  1.4430
  984MOL0     H32798   6.215   3.165   6.564 -0.1304 -0.5978  0.5699
  984MOL0     H32799   6.134   3.101   6.417  3.0115  0.8701 -4.7903
  984MOL0     H32800   5.954   3.050   6.566 -3.8334 -0.9607  1.2179
  984MOL0     H32801   5.751   3.040   6.662  3.2337  0.2586  0.3489
  984MOL0     H32802   5.225   3.407   6.592  0.5177  0.4970  0.0335
  984MOL0     H32803   5.055   3.477   6.739  0.0444 -1.5648 -1.0060
  984MOL0     H32804   4.945   3.561   6.876 -1.9619  0.2116  0.2168
  984MOL0     H32805   4.872   3.421   6.948 -1.0546  1.1253 -1.9577
  984MOL0     H32806   4.889   3.532   7.184  1.6597  3.0745  2.2063
  984MOL0     H32807   4.951   3.671   7.097 -0.2988  0.6451  0.2651
  984MOL0     H32808   4.727   3.694   6.985 -5.8512  2.5265  2.1190
  984MOL0     H32809   4.677   3.543   7.053  1.8492 -0.0867 -3.4366
  984MOL0     H32810   4.773   3.791   7.210 -0.2189  0.5650  0.4885
  984MOL0     H32811   4.697   3.659   7.281 -0.0911 -0.8005 -0.9693
  984MOL0     H32812   4.483   3.710   7.155  1.1004 -0.8698 -0.9483
  984MOL0     H32813   4.549   3.853   7.092  0.5238 -0.4405 -0.2791
  984MOL0     H32814   4.530   3.774   7.387 -2.0403 -0.4589 -0.2524
  984MOL0     H32815   4.606   3.935   7.333 -0.1504  0.6796  0.5335
  984MOL0     H32816   4.317   3.848   7.319  2.1348 -3.1062 -1.3914
  984MOL0     H32817   4.378   3.985   7.237 -1.3423 -0.4582  0.3673
  984MOL0     H32818   4.362   3.921   7.531 -2.7465 -1.4770 -1.0510
  984MOL0     H32819   4.471   4.057   7.474  0.7734 -1.1436 -2.3053
  984MOL0     H32820   5.303   3.369   7.079  4.0995  1.5115 -1.3085
  984MOL0     H32821   5.475   3.321   6.924  1.5849 -0.3100 -3.2546
  984MOL0     H32822   5.673   3.461   6.553  0.1302 -0.2452 -0.8712
  984MOL0     H32823   5.893   3.481   6.475 -2.8973  0.6002 -0.9734
  984MOL0     H32824   7.530   2.601   6.194 -1.5901  0.3976  0.4313
  984MOL0     H32825   7.731   2.496   6.105  0.0916  0.5707 -3.0109
  984MOL0     H32826   8.038   2.086   6.174 -0.7152 -2.2729  0.9027
  984MOL0     H32827   8.215   1.953   6.066  2.6368  2.2660 -1.2208
  984MOL0     H32828   8.252   1.914   5.609 -1.0145 -2.0693 -2.5145
  984MOL0     H32829   8.184   1.780   5.688  1.3413 -1.8097 -2.1629
  984MOL0     H32830   8.427   1.749   5.579 -0.8573  1.4120 -1.2838
  984MOL0     H32831   8.412   1.700   5.747 -0.1703  1.6545  2.1579
  984MOL0     H32832   8.502   1.924   5.819  0.2776  1.1810 -1.1572
  984MOL0     H32833   8.532   1.952   5.644  2.7654 -1.0322 -1.4944
  984MOL0     H32834   8.654   1.732   5.811  4.8032  0.6769  1.3931
  984MOL0     H32835   8.690   1.774   5.639 -3.5373  0.8752 -1.5796
  984MOL0     H32836   8.896   2.075   5.873 -0.3214 -0.4271  0.2901
  984MOL0     H32837   8.034   2.001   5.693  4.1320  0.9579 -0.2661
  984MOL0     H32838   7.706   2.096   5.801 -0.1934  1.0348  2.5783
  984MOL0     H32839   7.823   2.229   5.750  1.4619 -0.9143  0.6687
  984MOL0     H32840   7.803   2.075   5.664  0.2232 -2.3636  1.3562
  985MOL0     O32841   7.778   9.762   5.444  0.0009  0.0511 -0.1831
  985MOL0     C32842   7.722   9.787   5.343 -0.1522  0.5716  0.0542
  985MOL0     O32843   7.779   9.783   5.217  0.1697  0.3196  0.2020
  985MOL0     C32844   7.882   9.698   5.186 -0.0956  0.4676 -0.4637
  985MOL0     C32845   7.849   9.613   5.079 -0.2082  0.4090  0.6282
  985MOL0     C32846   7.935   9.513   5.031 -0.5598 -0.0060 -0.3553
  985MOL0     C32847   8.057   9.498   5.090  0.0441  0.3461  0.7959
  985MOL0     O32848   8.158   9.429   5.023 -0.3280 -0.0900  0.3219
  985MOL0     C32849   8.168   9.296   5.082  0.6500 -0.2333 -0.3602
  985MOL0     C32850   8.288   9.223   5.018  0.0603  0.1348 -0.3454
  985MOL0     C32851   8.416   9.304   5.051 -1.2623 -0.2433  0.5405
  985MOL0     C32852   8.528   9.254   4.973  0.9549  0.7052 -0.3435
  985MOL0     C32853   8.658   9.335   5.000 -0.1999 -0.5445  0.1798
  985MOL0     C32854   8.786   9.269   4.948 -0.5951  0.5454  0.6162
  985MOL0     C32855   8.918   9.303   5.020 -0.4829 -0.7824 -0.2986
  985MOL0     C32856   8.967   9.435   4.959 -0.3124 -1.0339  0.2694
  985MOL0     N32857   9.103   9.467   5.016 -0.1238 -0.1701  0.9543
  985MOL0     C32858   9.226   9.428   4.965  1.0802  0.5152  0.0834
  985MOL0     C32859   9.323   9.501   5.023  1.1371  0.3817 -0.0602
  985MOL0     C32860   9.466   9.488   4.989  0.1710  0.3194  0.0310
  985MOL0     C32861   9.526   9.386   5.075 -0.6223  0.4935 -0.1847
  985MOL0     C32862   9.660   9.324   5.018 -0.5398 -0.1267 -0.1381
  985MOL0     C32863   9.778   9.403   5.065 -0.0787 -0.1332  0.1950
  985MOL0     O32864   9.780   9.541   5.020  0.9128  0.0916  0.0425
  985MOL0     C32865   9.846   9.635   5.097 -0.5876 -0.4710  0.7217
  985MOL0     C32866   9.803   9.766   5.087 -0.3097 -0.6762  0.0607
  985MOL0     C32867   9.887   9.867   5.135 -0.2538 -0.4517  0.2510
  985MOL0     C32868  10.007   9.833   5.196 -1.3286 -0.4257 -0.4665
  985MOL0     C32869  10.089   9.939   5.268 -0.3287 -0.1663  0.1565
  985MOL0     O32870  10.186   9.897   5.353  0.1512 -0.5669  0.2019
  985MOL0     C32871  10.269   9.974   5.429  0.1142  0.2742 -0.1632
  985MOL0     C32872  10.353   9.908   5.520 -0.0874  0.1201  0.7299
  985MOL0     C32873  10.445   9.970   5.594  0.5721  0.5356 -0.0397
  985MOL0     C32874  10.450  10.110   5.610 -0.3106 -0.2077  0.9686
  985MOL0     O32875  10.542  10.159   5.693 -0.8771 -0.1670  0.8098
  985MOL0     C32876  10.641  10.246   5.630 -0.1378  1.0773 -0.2884
  985MOL0     C32877  10.738  10.309   5.736  0.0054 -0.1118  0.6419
  985MOL0     C32878  10.829  10.196   5.781  0.2410 -0.1569  0.5078
  985MOL0     C32879  10.913  10.263   5.888 -1.0076  0.3713  0.3318
  985MOL0     C32880  10.989  10.162   5.980  0.3683 -0.2002 -0.2561
  985MOL0     C32881  11.072  10.233   6.087  0.1567 -0.4355  0.2392
  985MOL0     C32882  11.159  10.140   6.170 -0.1238  0.6222  0.4188
  985MOL0     C32883  11.166  10.192   6.319 -0.1815 -0.2781  0.3377
  985MOL0    Cl32884  11.241  10.355   6.315  0.0885 -0.6678 -0.0070
  985MOL0     C32885  10.354  10.183   5.529 -0.2521 -0.0917  0.4966
  985MOL0     C32886  10.275  10.115   5.440 -0.2379 -0.2847  0.5678
  985MOL0     O32887  10.057  10.058   5.253 -0.1112 -0.0105  0.3296
  985MOL0     C32888  10.049   9.700   5.203  0.1001 -0.0714 -0.9158
  985MOL0     C32889   9.973   9.605   5.143  0.0688 -0.2530  0.3886
  985MOL0     N32890   9.257   9.575   5.118  0.3838 -0.2740 -0.0167
  985MOL0     N32891   9.123   9.561   5.113 -0.1233  1.1438  0.0801
  985MOL0     C32892   8.091   9.578   5.205  0.9311  0.3206 -0.7481
  985MOL0     C32893   8.000   9.672   5.256  0.1035 -0.1435  0.1824
  985MOL0     C32894   7.597   9.872   5.363  1.2441 -0.7443  0.8847
  985MOL0     C32895   7.552   9.939   5.245 -0.5172  0.5006  0.0163
  985MOL0     C32896   7.442  10.017   5.246  0.0524  1.4415  0.4081
  985MOL0     C32897   7.375  10.031   5.367  0.4115 -0.7844  0.7305
  985MOL0     O32898   7.258  10.096   5.354 -0.0689  0.0405  0.0818
  985MOL0     C32899   7.178  10.127   5.471 -0.3736  0.1543  0.5063
  985MOL0     C32900   7.058  10.212   5.428  0.5358 -0.4557  0.0120
  985MOL0     C32901   7.013  10.301   5.540  0.7056 -0.7351 -0.0475
  985MOL0     C32902   6.910  10.395   5.480 -0.1333  0.1991  0.1791
  985MOL0     C32903   6.840  10.469   5.584 -0.9261 -1.1533  0.2083
  985MOL0     C32904   6.790  10.529   5.675  0.1987 -1.1209 -0.4183
  985MOL0     C32905   7.406   9.964   5.483 -1.2830 -0.2510 -0.5294
  985MOL0     C32906   7.526   9.883   5.483  0.7008 -0.2130 -0.3386
  985MOL0     C32907   7.558   9.807   5.607  0.1585  0.3050  0.0267
  985MOL0     H32908   7.775   9.645   5.007 -0.5307 -2.6053 -0.5153
  985MOL0     H32909   7.919   9.467   4.934  4.0621  2.4814 -2.6288
  985MOL0     H32910   8.180   9.305   5.191 -2.0347 -1.5564  0.1274
  985MOL0     H32911   8.071   9.247   5.068 -0.2822  1.1850  0.8282
  985MOL0     H32912   8.274   9.231   4.910  2.4659 -0.9987 -0.8177
  985MOL0     H32913   8.289   9.116   5.043 -0.2393  0.1170 -0.4017
  985MOL0     H32914   8.451   9.302   5.155  2.9211  0.3364 -0.7176
  985MOL0     H32915   8.400   9.409   5.028 -2.8837 -0.7814 -1.0400
  985MOL0     H32916   8.544   9.151   5.006 -1.6729  0.9117  1.9704
  985MOL0     H32917   8.502   9.250   4.867  1.0986 -0.1424 -0.3495
  985MOL0     H32918   8.650   9.431   4.947 -1.4490  0.4473  2.0790
  985MOL0     H32919   8.661   9.351   5.108  0.0997 -0.2532  0.1275
  985MOL0     H32920   8.775   9.160   4.954  3.4435 -0.2724 -2.3708
  985MOL0     H32921   8.784   9.279   4.839 -1.4992 -2.1283  0.3173
  985MOL0     H32922   8.988   9.220   5.011 -2.1155 -2.1341 -1.1486
  985MOL0     H32923   8.903   9.317   5.128  0.3395 -0.5696 -0.2039
  985MOL0     H32924   8.962   9.437   4.850 -1.5692 -2.6473  0.2524
  985MOL0     H32925   8.890   9.508   4.985 -0.0173 -1.3889  2.3138
  985MOL0     H32926   9.246   9.348   4.893 -1.9388  0.5637 -0.9856
  985MOL0     H32927   9.467   9.453   4.885  2.0315  0.1087  0.0897
  985MOL0     H32928   9.524   9.581   4.987  2.5918 -0.9974  2.3781
  985MOL0     H32929   9.537   9.425   5.177 -2.3941 -1.2332  0.7353
  985MOL0     H32930   9.450   9.307   5.077  0.6684 -0.8075 -0.4805
  985MOL0     H32931   9.671   9.329   4.909  1.3013  1.3664  0.0663
  985MOL0     H32932   9.660   9.220   5.051  0.7130 -0.0665  0.0913
  985MOL0     H32933   9.869   9.353   5.033 -1.1322 -1.0706 -1.5174
  985MOL0     H32934   9.757   9.415   5.172  0.3293  0.0015  0.2589
  985MOL0     H32935   9.704   9.793   5.052  0.1944  2.1971  0.6308
  985MOL0     H32936   9.856   9.970   5.143 -0.6195 -0.6394  1.4104
  985MOL0     H32937  10.342   9.800   5.513  0.7102  0.1495 -1.7159
  985MOL0     H32938  10.503   9.899   5.653 -2.3437 -0.6179  1.6490
  985MOL0     H32939  10.696  10.186   5.556  0.1800  0.7799  0.1845
  985MOL0     H32940  10.597  10.330   5.576  2.1435  2.3582 -0.2804
  985MOL0     H32941  10.802  10.388   5.697  0.3950 -1.5604 -1.8785
  985MOL0     H32942  10.667  10.351   5.808 -0.8772 -0.7593  0.1779
  985MOL0     H32943  10.788  10.100   5.815 -2.2128  0.4482 -0.5875
  985MOL0     H32944  10.896  10.163   5.701  1.3273  1.4124  0.7231
  985MOL0     H32945  10.846  10.323   5.950  0.9815  0.4995  2.4724
  985MOL0     H32946  10.975  10.340   5.840  1.3685 -0.0356  2.5351
  985MOL0     H32947  11.048  10.090   5.923  0.7645 -1.3277  1.4987
  985MOL0     H32948  10.909  10.108   6.031  0.6440 -1.3032 -0.9731
  985MOL0     H32949  11.139  10.307   6.042  1.7727  0.2491  3.4200
  985MOL0     H32950  11.009  10.285   6.159  1.3878  2.3794 -0.5950
  985MOL0     H32951  11.258  10.157   6.127 -0.6984 -0.8498 -1.6390
  985MOL0     H32952  11.134  10.034   6.160 -1.7894  1.1605 -2.1095
  985MOL0     H32953  11.064  10.197   6.357 -0.3637 -4.1794  0.7307
  985MOL0     H32954  11.225  10.125   6.383  1.9015 -2.0179 -3.1255
  985MOL0     H32955  10.350  10.292   5.527  3.0843  0.1133  0.6375
  985MOL0     H32956  10.214  10.175   5.373 -0.3603 -0.7194  0.2851
  985MOL0     H32957  10.133   9.669   5.264 -1.4456  0.2515  1.5051
  985MOL0     H32958  10.024   9.509   5.140  0.6697 -0.0021  1.8712
  985MOL0     H32959   8.177   9.557   5.268 -0.8445 -1.7053  1.1891
  985MOL0     H32960   8.016   9.725   5.350  0.5814  0.0898 -0.0263
  985MOL0     H32961   7.604   9.930   5.150 -0.8834 -2.6839  0.0159
  985MOL0     H32962   7.410  10.077   5.162 -1.8073 -0.0224  0.0274
  985MOL0     H32963   7.236  10.189   5.541  1.4941 -0.9274 -0.0327
  985MOL0     H32964   7.145  10.038   5.525 -3.5483  1.2661  0.6478
  985MOL0     H32965   6.986  10.133   5.405 -1.2516  1.9545 -3.4700
  985MOL0     H32966   7.085  10.265   5.336  1.7340  0.0384  0.6241
  985MOL0     H32967   7.097  10.363   5.574  1.5248 -0.8573 -1.7681
  985MOL0     H32968   6.977  10.245   5.627  0.3213  1.6113  1.3836
  985MOL0     H32969   6.955  10.474   5.419  1.4219 -0.2711  0.6626
  985MOL0     H32970   6.839  10.334   5.422  1.0475 -1.8896  0.8112
  985MOL0     H32971   6.763  10.592   5.757 -0.1069 -1.3848 -0.3129
  985MOL0     H32972   7.346   9.961   5.573 -0.3081  1.4867  0.2317
  985MOL0     H32973   7.469   9.817   5.670 -1.9706 -0.3342 -2.7046
  985MOL0     H32974   7.584   9.702   5.595  1.9348  0.9207 -2.0582
  985MOL0     H32975   7.632   9.864   5.664 -1.1692  2.7750 -0.5731
  986MOL0     O32976  10.326   1.918   5.650  0.0738 -1.3879  0.1146
  986MOL0     C32977  10.330   1.875   5.533  0.0883 -0.5289  0.5316
  986MOL0     O32978  10.442   1.839   5.463  0.1661 -0.1756  0.4013
  986MOL0     C32979  10.564   1.863   5.512  0.0512 -0.1010  0.2351
  986MOL0     C32980  10.670   1.882   5.412  0.7194 -0.0427 -0.1472
  986MOL0     C32981  10.799   1.921   5.461  0.5730  0.0741  0.2032
  986MOL0     C32982  10.839   1.915   5.600 -0.5331 -1.1219  0.1113
  986MOL0     O32983  10.965   1.946   5.646 -0.9713 -0.2627  0.8403
  986MOL0     C32984  11.022   1.870   5.748 -0.0988  0.7861  0.0893
  986MOL0     C32985  11.040   1.719   5.710 -0.0729  0.0241  0.8728
  986MOL0     C32986  11.112   1.720   5.574  0.3649  0.2864 -0.5557
  986MOL0     C32987  11.194   1.589   5.538  0.4655 -0.1281  0.5129
  986MOL0     C32988  11.329   1.634   5.497  0.3320 -0.4654  1.0369
  986MOL0     C32989  11.416   1.512   5.468 -0.4074  0.5548 -0.4132
  986MOL0     C32990  11.565   1.532   5.486 -0.1686  1.1998 -0.1540
  986MOL0     C32991  11.622   1.386   5.481 -0.7078  0.1247 -0.0568
  986MOL0     N32992  11.767   1.379   5.519  0.1916 -0.0585 -0.3104
  986MOL0     C32993  11.858   1.478   5.527 -0.9101 -0.6034  0.3217
  986MOL0     C32994  11.968   1.401   5.569  0.0625  0.0812 -1.0125
  986MOL0     C32995  12.101   1.462   5.585 -0.3935  0.3609  0.8013
  986MOL0     C32996  12.097   1.612   5.611  0.1842 -0.3281 -0.3809
  986MOL0     C32997  12.228   1.678   5.591  0.0859 -0.8888  0.3573
  986MOL0     C32998  12.218   1.829   5.586  0.4563 -0.1444  0.9485
  986MOL0     O32999  12.341   1.877   5.528  0.2455  0.5217 -0.8991
  986MOL0     C33000  12.385   2.005   5.561  0.6892  0.0596 -0.1960
  986MOL0     C33001  12.301   2.117   5.591  0.2535 -0.2566  0.1770
  986MOL0     C33002  12.353   2.248   5.605 -0.1066  0.5343 -0.5628
  986MOL0     C33003  12.491   2.275   5.604 -0.2204  0.2759 -0.3126
  986MOL0     C33004  12.554   2.405   5.608  0.1699 -0.0799  0.6327
  986MOL0     O33005  12.675   2.417   5.539  0.7214 -0.5664  0.2278
  986MOL0     C33006  12.732   2.536   5.565  0.0937 -0.8575  0.3406
  986MOL0     C33007  12.795   2.569   5.688  0.1850 -0.0632  0.0387
  986MOL0     C33008  12.835   2.695   5.722  0.1896  0.5288 -0.0008
  986MOL0     C33009  12.832   2.795   5.624  0.1761  0.5641 -1.0795
  986MOL0     O33010  12.879   2.922   5.662 -0.5241  0.4076  0.6392
  986MOL0     C33011  13.011   2.923   5.613  0.1080  0.5624  1.1230
  986MOL0     C33012  13.090   3.044   5.639  0.3366 -0.0073  0.5577
  986MOL0     C33013  13.114   3.066   5.788  0.4574 -0.0581  0.2637
  986MOL0     C33014  13.211   2.955   5.851  0.2712  0.7469 -0.4547
  986MOL0     C33015  13.323   3.022   5.928 -0.8300  0.4442 -0.0457
  986MOL0     C33016  13.280   3.066   6.069 -0.0115 -0.6536  0.6357
  986MOL0     C33017  13.310   2.952   6.166 -0.7407  0.9583  0.0606
  986MOL0     C33018  13.299   3.001   6.306  0.0049 -0.5802 -0.3016
  986MOL0    Cl33019  13.316   2.862   6.418  0.3810  0.3983 -0.0743
  986MOL0     C33020  12.778   2.771   5.500 -0.4602  0.1618  0.3077
  986MOL0     C33021  12.726   2.640   5.475 -0.1695 -0.5840 -0.1263
  986MOL0     O33022  12.502   2.496   5.674 -0.3270 -0.4926  0.2066
  986MOL0     C33023  12.573   2.163   5.585 -0.9556 -0.5498 -0.0673
  986MOL0     C33024  12.521   2.037   5.560 -0.7930  0.3162 -0.2169
  986MOL0     N33025  11.933   1.273   5.593 -0.5002 -0.6089  0.0379
  986MOL0     N33026  11.808   1.261   5.564  0.6171  0.5849 -0.7337
  986MOL0     C33027  10.738   1.876   5.688 -1.0336 -1.0484  0.0016
  986MOL0     C33028  10.606   1.857   5.644  0.2141  0.4189 -0.2172
  986MOL0     C33029  10.190   1.856   5.479 -0.3582  0.4163  0.4082
  986MOL0     C33030  10.147   1.731   5.427 -0.4257 -0.3427  0.2681
  986MOL0     C33031  10.016   1.715   5.374 -1.0336 -0.1922 -0.0935
  986MOL0     C33032   9.924   1.815   5.387  0.5076  0.6871  1.1170
  986MOL0     O33033   9.799   1.796   5.330 -0.0515  0.2050 -0.0147
  986MOL0     C33034   9.675   1.831   5.404  0.4077  0.4621 -0.2235
  986MOL0     C33035   9.560   1.769   5.320  1.0134 -0.0829 -0.2374
  986MOL0     C33036   9.436   1.842   5.376 -0.0936 -0.2348  0.2961
  986MOL0     C33037   9.328   1.767   5.302 -0.3320 -0.0189  0.7776
  986MOL0     C33038   9.197   1.836   5.310  0.4138  0.1151  0.7743
  986MOL0     C33039   9.104   1.910   5.296  0.1684 -0.0029 -0.0826
  986MOL0     C33040   9.968   1.936   5.435 -0.3187 -0.6523 -0.8327
  986MOL0     C33041  10.103   1.962   5.473  0.3596 -0.2708 -0.7568
  986MOL0     C33042  10.152   2.104   5.477 -0.8832 -0.7647 -0.5480
  986MOL0     H33043  10.640   1.886   5.308 -0.7415 -1.0870  0.2040
  986MOL0     H33044  10.873   1.952   5.388 -1.6135  0.4320 -1.9503
  986MOL0     H33045  11.124   1.909   5.762  1.0363 -1.4650 -1.3805
  986MOL0     H33046  10.983   1.890   5.848 -2.7542  0.1915 -0.7526
  986MOL0     H33047  10.944   1.666   5.704 -0.0362  0.0703 -3.4205
  986MOL0     H33048  11.094   1.656   5.781 -0.1399 -0.2435  0.6907
  986MOL0     H33049  11.181   1.805   5.571  2.5252 -1.4019 -1.1376
  986MOL0     H33050  11.034   1.731   5.497 -0.2397 -1.7066 -0.2729
  986MOL0     H33051  11.192   1.517   5.620 -0.8595  0.1873  0.7900
  986MOL0     H33052  11.149   1.537   5.453  0.3636 -1.2755  1.2564
  986MOL0     H33053  11.333   1.705   5.414 -1.1991  0.5997  1.8390
  986MOL0     H33054  11.368   1.686   5.586 -2.3346 -0.4336  2.2833
  986MOL0     H33055  11.373   1.434   5.531 -0.8463 -2.1425 -3.7277
  986MOL0     H33056  11.403   1.479   5.364  1.5945 -0.9139 -0.2492
  986MOL0     H33057  11.593   1.578   5.581  1.0583  1.5653 -0.6711
  986MOL0     H33058  11.609   1.583   5.400  1.0116  0.8090  0.1961
  986MOL0     H33059  11.561   1.329   5.552  0.3085 -0.8476  0.0737
  986MOL0     H33060  11.613   1.345   5.380  1.8911  1.4165 -0.9195
  986MOL0     H33061  11.855   1.585   5.506  0.9692 -0.9579 -2.1604
  986MOL0     H33062  12.148   1.422   5.675 -0.7033 -0.0257  0.7963
  986MOL0     H33063  12.162   1.433   5.499 -0.0957 -0.2351  1.2090
  986MOL0     H33064  12.033   1.661   5.537  1.8663  1.2279 -0.8800
  986MOL0     H33065  12.060   1.632   5.711  1.0713  3.4365 -0.6637
  986MOL0     H33066  12.272   1.648   5.495  0.2055 -0.8683  0.4054
  986MOL0     H33067  12.296   1.646   5.671  3.5831 -0.0095 -2.0332
  986MOL0     H33068  12.198   1.873   5.684 -0.1733  1.0320  0.3141
  986MOL0     H33069  12.130   1.849   5.524 -0.5520  1.8819  2.8864
  986MOL0     H33070  12.193   2.105   5.602  0.3291  0.5324  2.2077
  986MOL0     H33071  12.282   2.329   5.620  0.9924  1.1032  2.2044
  986MOL0     H33072  12.815   2.489   5.758 -0.7157  0.7323  1.2453
  986MOL0     H33073  12.878   2.724   5.818  0.8836 -1.3920  0.3046
  986MOL0     H33074  13.053   2.832   5.655  0.1772  1.0416  2.1489
  986MOL0     H33075  13.010   2.924   5.504 -1.2021  0.1778  1.1090
  986MOL0     H33076  13.184   3.037   5.584 -1.0264 -1.0491 -1.8074
  986MOL0     H33077  13.026   3.130   5.619 -1.4054 -0.3793  3.8392
  986MOL0     H33078  13.157   3.166   5.797 -0.1340  0.1716  0.5733
  986MOL0     H33079  13.022   3.063   5.848  0.8090 -2.1116  0.8179
  986MOL0     H33080  13.248   2.900   5.764  0.5002  1.1273 -0.5995
  986MOL0     H33081  13.153   2.877   5.901 -1.6276  1.2332 -1.7744
  986MOL0     H33082  13.351   3.112   5.873  1.1813  0.2508  0.5588
  986MOL0     H33083  13.410   2.956   5.940  0.5640  2.3543  0.8141
  986MOL0     H33084  13.331   3.155   6.106 -2.4387  0.1467  2.3328
  986MOL0     H33085  13.171   3.080   6.073 -0.0561 -0.0629 -1.6422
  986MOL0     H33086  13.410   2.913   6.146 -0.9344 -0.0784  1.0490
  986MOL0     H33087  13.237   2.875   6.139  1.4304 -1.1354 -0.2101
  986MOL0     H33088  13.385   3.062   6.337 -0.2793 -1.6666  2.9573
  986MOL0     H33089  13.209   3.058   6.332  0.8460 -0.7198  3.4227
  986MOL0     H33090  12.766   2.848   5.424  0.8697 -1.5948 -1.8406
  986MOL0     H33091  12.675   2.618   5.382  1.0182  0.6023 -1.0881
  986MOL0     H33092  12.678   2.192   5.575 -1.2935  1.1643  0.8536
  986MOL0     H33093  12.597   1.963   5.537  2.8642  2.4859  3.4885
  986MOL0     H33094  10.764   1.854   5.791 -0.6228  2.6727  0.8279
  986MOL0     H33095  10.541   1.840   5.729  0.2412  0.0233 -0.2782
  986MOL0     H33096  10.203   1.639   5.438 -2.0624 -1.1666  2.1853
  986MOL0     H33097  10.005   1.622   5.319 -1.0066  0.0471 -0.5068
  986MOL0     H33098   9.678   1.939   5.418 -0.0032  0.7645 -2.2336
  986MOL0     H33099   9.679   1.785   5.503  2.1385 -1.3141 -1.0436
  986MOL0     H33100   9.548   1.661   5.326  2.2475 -0.3654 -2.1710
  986MOL0     H33101   9.582   1.798   5.216 -0.8353 -1.6718 -1.1394
  986MOL0     H33102   9.427   1.947   5.348 -4.3176 -0.8392 -1.3273
  986MOL0     H33103   9.439   1.819   5.483 -1.5539 -2.7381 -0.1106
  986MOL0     H33104   9.348   1.768   5.195  0.2505 -0.9624  0.8644
  986MOL0     H33105   9.321   1.664   5.340  2.7454  0.4061  2.8686
  986MOL0     H33106   9.014   1.965   5.279 -0.9442 -1.2884  1.3626
  986MOL0     H33107   9.895   2.016   5.428  1.6034  1.0807 -2.6372
  986MOL0     H33108  10.192   2.105   5.579  0.0762  1.7826 -0.8653
  986MOL0     H33109  10.223   2.124   5.397 -1.1876  0.2315 -0.5868
  986MOL0     H33110  10.072   2.180   5.471  0.0705  0.1972 -1.6176
  987MOL0     O33111   2.647  11.036   1.117 -0.1817  0.1897  0.8738
  987MOL0     C33112   2.601  11.140   1.069 -0.2609  0.1273  0.3738
  987MOL0     O33113   2.672  11.222   0.995 -0.3784  0.0955  0.3152
  987MOL0     C33114   2.804  11.185   0.969  0.4196  0.5945 -1.0534
  987MOL0     C33115   2.894  11.285   0.985  0.2701  0.3925  0.1636
  987MOL0     C33116   3.025  11.257   0.952  0.5540 -0.4579 -0.4176
  987MOL0     C33117   3.061  11.130   0.900  0.0874  0.6439  1.5423
  987MOL0     O33118   3.193  11.097   0.869 -0.4266  0.4916  0.5602
  987MOL0     C33119   3.297  11.198   0.894 -0.1245  0.0288  0.6934
  987MOL0     C33120   3.434  11.150   0.839 -0.0444 -0.8070 -0.0932
  987MOL0     C33121   3.559  11.234   0.869  0.0275 -0.1302 -0.0932
  987MOL0     C33122   3.668  11.160   0.792 -0.4365 -1.0309  0.1874
  987MOL0     C33123   3.800  11.227   0.809  0.3126  0.1756  0.4299
  987MOL0     C33124   3.917  11.142   0.760 -0.1989 -0.9310 -0.8525
  987MOL0     C33125   4.047  11.229   0.770 -1.0000  0.1560 -0.3407
  987MOL0     C33126   4.175  11.145   0.788  0.0822  0.5632  0.4807
  987MOL0     N33127   4.223  11.084   0.659 -0.1364  0.0072 -0.7249
  987MOL0     C33128   4.183  10.976   0.596 -0.5174 -0.6907 -0.4606
  987MOL0     C33129   4.260  10.957   0.488 -0.1192  0.1854 -0.6510
  987MOL0     C33130   4.244  10.851   0.380 -0.4132  0.6741  0.1468
  987MOL0     C33131   4.318  10.716   0.416 -0.2211  0.6939 -0.1810
  987MOL0     C33132   4.305  10.630   0.295 -0.5919 -0.1199 -0.1344
  987MOL0     C33133   4.411  10.531   0.285 -0.2953 -0.4413  0.0181
  987MOL0     O33134   4.440  10.464   0.403 -0.1320  0.3297  0.3017
  987MOL0     C33135   4.541  10.369   0.406 -0.2615 -0.2638  0.1754
  987MOL0     C33136   4.619  10.319   0.303 -0.0715  0.2383  0.5771
  987MOL0     C33137   4.723  10.225   0.321  0.2993  0.1164 -0.0869
  987MOL0     C33138   4.746  10.172   0.446 -0.2305  0.2472 -0.3473
  987MOL0     C33139   4.856  10.085   0.474  0.1729  0.5410 -0.0553
  987MOL0     O33140   4.926  10.044   0.363 -0.2052 -0.0470 -0.0017
  987MOL0     C33141   5.058   9.993   0.361  0.4090 -1.0219  0.5060
  987MOL0     C33142   5.095   9.918   0.248 -0.0715  0.0810  0.2336
  987MOL0     C33143   5.224   9.862   0.229  0.3894  0.5914 -0.0636
  987MOL0     C33144   5.324   9.874   0.326  0.6149 -0.0981 -0.2846
  987MOL0     O33145   5.446   9.820   0.311 -0.5390  0.2869  0.2245
  987MOL0     C33146   5.447   9.679   0.261  0.2031 -0.5272  0.6233
  987MOL0     C33147   5.585   9.618   0.289  0.4107  0.7322  0.0028
  987MOL0     C33148   5.700   9.694   0.235 -0.2704  0.2695  0.2110
  987MOL0     C33149   5.827   9.611   0.257 -0.5471  0.7859  0.3841
  987MOL0     C33150   5.946   9.677   0.195 -0.3702 -0.2234 -0.1159
  987MOL0     C33151   5.999   9.793   0.284 -1.3289 -0.8807  1.1786
  987MOL0     C33152   6.119   9.857   0.212 -0.2225  0.4690  0.4994
  987MOL0     C33153   6.197   9.943   0.316 -0.2843 -0.2679  0.2891
  987MOL0    Cl33154   6.254   9.819   0.437 -0.7693 -0.1451  0.2024
  987MOL0     C33155   5.286   9.935   0.448  0.2901 -0.0136  0.3303
  987MOL0     C33156   5.156   9.993   0.466  0.2371  0.1828  1.5538
  987MOL0     O33157   4.891  10.058   0.589 -0.4450  0.0579  0.5263
  987MOL0     C33158   4.664  10.220   0.558  0.2811 -0.4545  0.3025
  987MOL0     C33159   4.565  10.319   0.539  0.9420 -0.3941  0.0349
  987MOL0     N33160   4.341  11.073   0.477 -0.5028  0.3124  0.0657
  987MOL0     N33161   4.315  11.148   0.579 -0.1698  0.1229  0.3832
  987MOL0     C33162   2.968  11.039   0.871  0.4478  0.2576  0.5643
  987MOL0     C33163   2.836  11.066   0.903  0.1998  0.5422  1.3078
  987MOL0     C33164   2.459  11.181   1.090 -0.4307  0.1199  0.8821
  987MOL0     C33165   2.394  11.235   0.982  1.5784 -0.1377  0.3457
  987MOL0     C33166   2.258  11.261   0.992  0.0603 -0.5116  0.1218
  987MOL0     C33167   2.190  11.240   1.116  0.2389 -0.7804 -0.0820
  987MOL0     O33168   2.058  11.282   1.123  0.5436  0.2319 -0.1874
  987MOL0     C33169   2.018  11.353   1.236  0.0868 -0.5716 -0.7977
  987MOL0     C33170   1.892  11.437   1.216  0.8064  0.1681 -0.0854
  987MOL0     C33171   1.877  11.507   1.346 -0.2544 -0.1086 -0.2736
  987MOL0     C33172   1.770  11.606   1.345 -0.5901 -0.2345  0.3069
  987MOL0     C33173   1.824  11.726   1.273 -0.2171  0.2856 -0.3860
  987MOL0     C33174   1.874  11.834   1.237 -0.2925 -0.1010  0.1932
  987MOL0     C33175   2.259  11.189   1.220 -0.1157 -0.1068 -0.1767
  987MOL0     C33176   2.395  11.153   1.217 -0.0518 -0.1543 -0.1208
  987MOL0     C33177   2.459  11.103   1.343 -0.1665 -0.9599 -0.4966
  987MOL0     H33178   2.853  11.380   1.016 -2.3476 -1.1921  1.9894
  987MOL0     H33179   3.101  11.330   0.974 -0.4236  0.6034 -0.4740
  987MOL0     H33180   3.281  11.290   0.837  0.2872 -0.8347 -0.8795
  987MOL0     H33181   3.305  11.204   1.003 -3.6481 -1.3157  1.1395
  987MOL0     H33182   3.420  11.129   0.732 -1.2685  2.2910 -0.6683
  987MOL0     H33183   3.458  11.054   0.884  2.8693  0.0371  0.3750
  987MOL0     H33184   3.575  11.237   0.977 -0.8358  1.5872  0.0181
  987MOL0     H33185   3.552  11.334   0.826  4.6132 -0.0836 -1.2721
  987MOL0     H33186   3.673  11.064   0.845  0.3724  0.3321  2.7565
  987MOL0     H33187   3.641  11.148   0.687 -0.8318  3.1913 -0.3846
  987MOL0     H33188   3.806  11.318   0.749  2.3049  0.3337  0.8027
  987MOL0     H33189   3.811  11.255   0.914 -0.4311 -2.2897  1.2496
  987MOL0     H33190   3.936  11.061   0.831 -1.2778  1.1465  2.0401
  987MOL0     H33191   3.895  11.110   0.659 -2.4735 -2.9513  0.1910
  987MOL0     H33192   4.039  11.308   0.845 -3.2302 -0.1537 -0.1753
  987MOL0     H33193   4.067  11.285   0.679 -1.2899 -1.3478 -1.3660
  987MOL0     H33194   4.246  11.216   0.829  0.0068  1.5992 -1.0895
  987MOL0     H33195   4.167  11.069   0.866  1.6177  0.9821  1.0683
  987MOL0     H33196   4.109  10.909   0.636 -1.8039  2.0960  2.2246
  987MOL0     H33197   4.136  10.859   0.366 -0.2426  2.9807 -0.2993
  987MOL0     H33198   4.295  10.888   0.291  0.7170 -3.6099 -1.2066
  987MOL0     H33199   4.426  10.722   0.435 -0.2645 -1.2390  0.8220
  987MOL0     H33200   4.287  10.666   0.508  1.2107  0.4888  0.2099
  987MOL0     H33201   4.302  10.687   0.202  0.7791  0.0116 -0.1283
  987MOL0     H33202   4.205  10.588   0.305 -2.6299  3.9702 -1.0977
  987MOL0     H33203   4.506  10.575   0.253 -0.5593 -0.3005 -0.5873
  987MOL0     H33204   4.380  10.463   0.205  4.0597  0.6808 -2.9682
  987MOL0     H33205   4.591  10.369   0.211 -1.0128 -0.5983  0.3971
  987MOL0     H33206   4.787  10.216   0.234  1.9732 -0.9966  1.2024
  987MOL0     H33207   5.017   9.910   0.173  1.0998  0.2434 -1.0702
  987MOL0     H33208   5.250   9.800   0.144  3.2195 -0.4800  1.4474
  987MOL0     H33209   5.375   9.614   0.311 -0.9575  1.5620  1.8098
  987MOL0     H33210   5.433   9.685   0.152 -0.9304  0.5084  0.8030
  987MOL0     H33211   5.591   9.607   0.398 -2.7041  0.6793  0.2704
  987MOL0     H33212   5.588   9.522   0.239  0.6276  1.8106 -2.1615
  987MOL0     H33213   5.678   9.701   0.128  0.4120  2.1524  0.1574
  987MOL0     H33214   5.713   9.787   0.290  1.9864 -0.1170  0.4328
  987MOL0     H33215   5.808   9.514   0.212 -0.9023  0.7344  0.6404
  987MOL0     H33216   5.845   9.585   0.362  1.6580  0.0630 -0.1285
  987MOL0     H33217   5.932   9.726   0.098  0.0365  2.1378  0.9351
  987MOL0     H33218   6.028   9.606   0.178 -1.8019 -2.3592  1.4194
  987MOL0     H33219   5.924   9.872   0.291 -3.8813 -2.8852 -1.1536
  987MOL0     H33220   6.030   9.752   0.380 -2.2034  0.3499  1.9988
  987MOL0     H33221   6.090   9.928   0.133 -0.0283  1.5820  1.3990
  987MOL0     H33222   6.187   9.784   0.166 -1.4993  0.0154 -0.7349
  987MOL0     H33223   6.278  10.004   0.275 -0.9004  0.4459  0.1261
  987MOL0     H33224   6.132  10.010   0.373 -0.5688 -0.6527  0.4290
  987MOL0     H33225   5.350   9.923   0.534 -1.7982 -0.1607  1.9237
  987MOL0     H33226   5.150  10.034   0.566  1.7208  0.6558  1.4653
  987MOL0     H33227   4.691  10.193   0.659 -3.5882  1.9904  2.2634
  987MOL0     H33228   4.506  10.354   0.623  1.9513  0.3235  0.4735
  987MOL0     H33229   2.990  10.947   0.817 -2.9383  0.8954 -2.2488
  987MOL0     H33230   2.763  10.989   0.879 -1.8520  2.0149  2.4774
  987MOL0     H33231   2.437  11.262   0.886 -0.3803  2.2436  0.0425
  987MOL0     H33232   2.194  11.305   0.916  0.4664 -0.9681 -0.4897
  987MOL0     H33233   2.100  11.419   1.266  0.1658 -0.7717 -0.5677
  987MOL0     H33234   1.998  11.274   1.309  0.0377 -1.3482 -1.6403
  987MOL0     H33235   1.802  11.378   1.195  0.6487 -0.7546  2.8244
  987MOL0     H33236   1.908  11.497   1.126 -0.9764 -2.0340 -2.0024
  987MOL0     H33237   1.963  11.565   1.380 -0.3622 -0.6395  0.9702
  987MOL0     H33238   1.854  11.440   1.430 -0.3312 -0.4699 -0.5826
  987MOL0     H33239   1.685  11.557   1.296  1.1375 -0.5946 -2.5717
  987MOL0     H33240   1.748  11.641   1.447  0.1707  0.1088  0.3617
  987MOL0     H33241   1.928  11.921   1.205  0.2124 -0.0556  1.1445
  987MOL0     H33242   2.200  11.164   1.308 -1.7004 -2.4467 -1.7835
  987MOL0     H33243   2.399  11.133   1.429  2.5580  0.4890  1.0188
  987MOL0     H33244   2.474  10.995   1.327  0.0618 -0.6044 -3.1070
  987MOL0     H33245   2.558  11.146   1.364 -1.1637  1.5637 -0.6888
  988MOL0     O33246  11.086   7.583   0.786  0.3124 -0.5413 -0.0364
  988MOL0     C33247  11.064   7.691   0.721 -0.5892 -0.5102 -0.8227
  988MOL0     O33248  11.154   7.767   0.663  0.1563  0.4372  0.7913
  988MOL0     C33249  11.281   7.729   0.688 -0.5728  0.0677 -0.3891
  988MOL0     C33250  11.367   7.792   0.776 -0.3632  0.3553 -0.1158
  988MOL0     C33251  11.500   7.752   0.786 -0.0647  0.1919 -0.1015
  988MOL0     C33252  11.556   7.659   0.696 -0.3880  0.0154 -0.5663
  988MOL0     O33253  11.688   7.612   0.700 -0.2341 -0.1910  0.1873
  988MOL0     C33254  11.766   7.661   0.812 -0.7751 -0.2262  0.3654
  988MOL0     C33255  11.901   7.595   0.801 -0.7355  0.1762  0.9965
  988MOL0     C33256  11.986   7.651   0.688 -0.6814 -0.2294  0.1863
  988MOL0     C33257  12.129   7.586   0.669 -0.7696  0.6888 -0.1759
  988MOL0     C33258  12.226   7.639   0.769 -0.1989  0.2525 -1.1874
  988MOL0     C33259  12.247   7.793   0.772 -0.1401 -0.1789  0.3239
  988MOL0     C33260  12.296   7.857   0.637  0.6476 -0.0056  0.2280
  988MOL0     C33261  12.367   7.999   0.652  0.3305 -0.4550  0.6823
  988MOL0     N33262  12.395   8.066   0.518 -0.0121 -0.5644 -0.1442
  988MOL0     C33263  12.300   8.136   0.445 -0.3842 -0.1249  0.0452
  988MOL0     C33264  12.350   8.145   0.318  1.1172  0.4783  0.1080
  988MOL0     C33265  12.263   8.196   0.201  0.8687 -0.3200  0.5104
  988MOL0     C33266  12.244   8.109   0.079  0.0111 -0.0783 -0.2300
  988MOL0     C33267  12.189   8.183  -0.043  0.3533  0.4579  0.1773
  988MOL0     C33268  12.151   8.079  -0.147 -0.0981  0.1477  0.6043
  988MOL0     O33269  12.149   8.138  -0.277 -0.1763 -0.4055  1.1613
  988MOL0     C33270  12.025   8.180  -0.303 -0.3064  0.2412  0.0036
  988MOL0     C33271  11.925   8.087  -0.340  0.4821 -0.6514 -0.3184
  988MOL0     C33272  11.795   8.123  -0.355 -0.5206 -0.1785 -0.1656
  988MOL0     C33273  11.760   8.256  -0.331 -1.0762 -0.4186  0.0265
  988MOL0     C33274  11.627   8.323  -0.355  0.4980 -0.6857  0.6590
  988MOL0     O33275  11.524   8.236  -0.369 -0.8140  0.1516  0.0100
  988MOL0     C33276  11.400   8.292  -0.371  0.3920  0.0246 -0.3118
  988MOL0     C33277  11.335   8.297  -0.493  0.0733 -0.0189  1.2152
  988MOL0     C33278  11.209   8.350  -0.515  0.9407  0.2422  0.0491
  988MOL0     C33279  11.144   8.407  -0.405  0.1214  0.6414  0.0545
  988MOL0     O33280  11.005   8.443  -0.412  0.7073 -0.3868  0.8189
  988MOL0     C33281  10.962   8.533  -0.311 -0.4466  0.1607  0.2387
  988MOL0     C33282  10.848   8.619  -0.369  0.5709 -0.5605  0.0152
  988MOL0     C33283  10.810   8.727  -0.262  0.7673 -0.1167 -0.7441
  988MOL0     C33284  10.658   8.754  -0.254 -0.0995 -0.4330  0.1000
  988MOL0     C33285  10.616   8.841  -0.138 -0.1731 -0.6074 -0.9705
  988MOL0     C33286  10.462   8.870  -0.135 -0.5844 -0.4418 -0.0731
  988MOL0     C33287  10.416   8.974  -0.035 -0.2218 -0.6574 -0.0505
  988MOL0     C33288  10.267   9.004  -0.008  0.3103  0.5512  0.4418
  988MOL0    Cl33289  10.179   8.858   0.077 -0.3432  0.2264 -0.1607
  988MOL0     C33290  11.207   8.403  -0.284  0.4082  0.1475  0.7196
  988MOL0     C33291  11.331   8.343  -0.265 -0.9824  0.1189 -0.0889
  988MOL0     O33292  11.617   8.446  -0.366  0.0750 -0.3668  0.5367
  988MOL0     C33293  11.865   8.355  -0.312  0.1733 -0.4991 -0.2894
  988MOL0     C33294  11.996   8.311  -0.300 -0.7355 -0.6377  0.1849
  988MOL0     N33295  12.474   8.079   0.315  1.0386 -0.4813 -0.2244
  988MOL0     N33296  12.503   8.048   0.442 -0.2137  0.0497  0.4323
  988MOL0     C33297  11.472   7.595   0.601 -0.7904 -0.6467  0.0826
  988MOL0     C33298  11.338   7.636   0.601 -0.2728  0.5814 -0.3872
  988MOL0     C33299  10.921   7.753   0.733  0.6044  0.3101 -0.3764
  988MOL0     C33300  10.902   7.889   0.704 -0.1546 -1.0889 -0.2584
  988MOL0     C33301  10.776   7.954   0.698 -0.0148  0.2187  0.1349
  988MOL0     C33302  10.661   7.877   0.727 -0.4565  0.7716  0.3189
  988MOL0     O33303  10.534   7.934   0.710 -0.4430  0.1220  0.1008
  988MOL0     C33304  10.422   7.844   0.733 -0.1484  0.6549 -0.1857
  988MOL0     C33305  10.285   7.901   0.700  0.0285  0.5266 -0.9549
  988MOL0     C33306  10.252   8.022   0.781  0.3624 -0.0336 -0.0764
  988MOL0     C33307  10.104   8.056   0.755  0.3764 -0.7652 -0.3201
  988MOL0     C33308  10.083   8.182   0.822 -0.1666 -0.3961  0.9003
  988MOL0     C33309  10.070   8.297   0.872  0.4281 -0.5276 -0.0092
  988MOL0     C33310  10.683   7.737   0.765  0.1908 -0.0791  0.2402
  988MOL0     C33311  10.809   7.681   0.771 -0.6907  0.5498  0.0242
  988MOL0     C33312  10.804   7.532   0.805  0.0493 -0.8917  0.1852
  988MOL0     H33313  11.320   7.862   0.845 -2.1741 -1.3334  0.4516
  988MOL0     H33314  11.552   7.787   0.875  0.8431 -1.0102 -0.1333
  988MOL0     H33315  11.781   7.769   0.808 -1.5758 -0.0294  1.8107
  988MOL0     H33316  11.724   7.634   0.909  0.3465  2.4346  1.6717
  988MOL0     H33317  11.885   7.488   0.784 -3.8441  0.6780  0.1077
  988MOL0     H33318  11.943   7.610   0.901 -2.5420  3.9771  1.3645
  988MOL0     H33319  12.002   7.758   0.701  3.3450 -0.2857 -2.4243
  988MOL0     H33320  11.931   7.638   0.594 -0.7502  2.4008 -0.1917
  988MOL0     H33321  12.123   7.477   0.673  0.9568  0.2443 -4.6185
  988MOL0     H33322  12.173   7.611   0.572  2.5594 -0.4846  0.8912
  988MOL0     H33323  12.194   7.603   0.867 -1.6229 -2.6154 -2.5897
  988MOL0     H33324  12.328   7.602   0.760  0.4361  1.4779  0.5278
  988MOL0     H33325  12.155   7.842   0.806 -1.5190 -2.1068 -0.4619
  988MOL0     H33326  12.327   7.818   0.842  2.4581 -0.2666 -2.4498
  988MOL0     H33327  12.209   7.861   0.571  1.5231  2.3004 -0.8849
  988MOL0     H33328  12.360   7.781   0.590 -1.5201 -0.5629 -2.0784
  988MOL0     H33329  12.309   8.069   0.713  1.6452  0.6135  0.7452
  988MOL0     H33330  12.464   7.984   0.701  2.6635 -0.6712 -3.5415
  988MOL0     H33331  12.203   8.160   0.487 -0.7627 -0.6743 -0.5064
  988MOL0     H33332  12.159   8.218   0.225 -0.1280 -1.6463 -2.1571
  988MOL0     H33333  12.303   8.294   0.173 -1.7037  0.4808 -0.7048
  988MOL0     H33334  12.330   8.046   0.053  0.8133  0.4580  0.9892
  988MOL0     H33335  12.168   8.036   0.107 -2.1999  2.1376 -0.0963
  988MOL0     H33336  12.267   8.250  -0.078  0.7312  0.5413  1.1519
  988MOL0     H33337  12.099   8.231  -0.002 -2.4038 -1.4806 -3.0469
  988MOL0     H33338  12.059   8.026  -0.122 -0.4050  0.1855 -0.4110
  988MOL0     H33339  12.227   8.000  -0.144 -0.5384 -0.2689  1.0205
  988MOL0     H33340  11.959   7.983  -0.340 -0.6596 -1.0405  0.3764
  988MOL0     H33341  11.722   8.050  -0.388  0.6449 -1.4549 -0.0069
  988MOL0     H33342  11.386   8.254  -0.578 -0.3986 -1.9914  1.8825
  988MOL0     H33343  11.160   8.349  -0.611  0.4655  1.8859  0.2543
  988MOL0     H33344  10.914   8.472  -0.235 -0.7697 -0.5940 -0.5546
  988MOL0     H33345  11.039   8.595  -0.264  0.4113 -2.6343  2.8508
  988MOL0     H33346  10.885   8.657  -0.465  0.7197 -0.0126  0.2833
  988MOL0     H33347  10.757   8.561  -0.380 -0.6350  1.4035 -1.0265
  988MOL0     H33348  10.849   8.705  -0.162  4.0963  1.8563 -1.4566
  988MOL0     H33349  10.869   8.815  -0.290  2.5556 -0.1238  2.4737
  988MOL0     H33350  10.595   8.665  -0.264 -0.7086  0.1186 -1.2309
  988MOL0     H33351  10.644   8.813  -0.345  1.7714  0.2113  0.1853
  988MOL0     H33352  10.654   8.943  -0.146 -0.4027 -0.1317  2.6914
  988MOL0     H33353  10.642   8.799  -0.041  0.3216  1.7032 -0.0570
  988MOL0     H33354  10.429   8.904  -0.233 -0.4113 -0.7236 -0.2291
  988MOL0     H33355  10.408   8.777  -0.119  0.3341 -0.8664  0.6638
  988MOL0     H33356  10.471   9.066  -0.057  0.7862 -0.3916  3.0193
  988MOL0     H33357  10.458   8.939   0.060 -1.9347 -3.6090 -0.2874
  988MOL0     H33358  10.251   9.102   0.040 -1.8096 -0.5566  2.1812
  988MOL0     H33359  10.212   9.005  -0.102 -1.0569  1.1093  1.2042
  988MOL0     H33360  11.154   8.447  -0.200 -0.0018  1.4492 -0.1791
  988MOL0     H33361  11.379   8.350  -0.167  1.6344  0.8419 -1.3254
  988MOL0     H33362  11.844   8.461  -0.303  0.6641 -0.2630 -1.7039
  988MOL0     H33363  12.072   8.386  -0.279  0.9145 -2.6912  1.9854
  988MOL0     H33364  11.502   7.515   0.535 -1.6866 -1.8610  1.0782
  988MOL0     H33365  11.261   7.605   0.531 -2.2031  0.8823  1.5079
  988MOL0     H33366  10.984   7.960   0.704 -2.0343  1.5944 -5.4000
  988MOL0     H33367  10.771   8.059   0.669  1.4307 -0.0735 -1.3291
  988MOL0     H33368  10.422   7.825   0.840 -0.5501  0.3256 -0.2442
  988MOL0     H33369  10.437   7.752   0.676  0.9071  1.5655 -1.4337
  988MOL0     H33370  10.208   7.827   0.726  0.6739  0.3147  0.4185
  988MOL0     H33371  10.273   7.924   0.594 -1.5579  1.5634 -0.5916
  988MOL0     H33372  10.321   8.103   0.757  0.8637 -0.3041  0.4328
  988MOL0     H33373  10.257   7.990   0.885 -1.8235  0.1193  0.1196
  988MOL0     H33374  10.083   8.067   0.648 -0.2139 -1.5584 -0.2953
  988MOL0     H33375  10.035   7.982   0.798 -1.2323  1.1398  0.5017
  988MOL0     H33376  10.050   8.395   0.911 -2.0241 -0.5409 -1.0451
  988MOL0     H33377  10.601   7.669   0.786  0.4831 -0.0639  1.5139
  988MOL0     H33378  10.846   7.467   0.727  0.7686  1.9693 -1.9956
  988MOL0     H33379  10.868   7.520   0.892 -0.3272  2.3119  1.0450
  988MOL0     H33380  10.707   7.485   0.825  0.0903 -1.0214  0.0798
  989MOL0     O33381   4.474   0.590   1.431 -0.2697 -0.3431 -0.6095
  989MOL0     C33382   4.360   0.546   1.407 -0.1055 -0.2185  0.0668
  989MOL0     O33383   4.281   0.583   1.298 -0.4012  0.4029 -0.0807
  989MOL0     C33384   4.336   0.680   1.221 -0.4956 -0.2976 -0.5489
  989MOL0     C33385   4.405   0.649   1.103 -0.7865 -0.1223  0.0943
  989MOL0     C33386   4.462   0.748   1.016 -0.2011 -0.4061 -0.8912
  989MOL0     C33387   4.443   0.886   1.056 -1.4992  0.0608  0.0116
  989MOL0     O33388   4.503   0.990   1.004 -0.0277 -0.4560 -0.9423
  989MOL0     C33389   4.521   0.991   0.862 -0.0772  0.0178 -0.6837
  989MOL0     C33390   4.565   1.132   0.821 -0.6053  0.1215  0.1538
  989MOL0     C33391   4.716   1.157   0.831  0.2560 -0.3311 -0.0111
  989MOL0     C33392   4.740   1.307   0.814  0.2418  0.1948 -0.1086
  989MOL0     C33393   4.891   1.338   0.832 -0.2799  0.4339 -0.0111
  989MOL0     C33394   4.944   1.367   0.973 -0.1131  0.2770  0.3525
  989MOL0     C33395   5.092   1.333   0.985  0.7106  0.1444  0.2693
  989MOL0     C33396   5.152   1.362   1.124 -0.1035  0.4647  0.0382
  989MOL0     N33397   5.244   1.476   1.125 -0.3494 -0.3135 -0.2834
  989MOL0     C33398   5.359   1.500   1.058 -0.5684  0.0598  0.7675
  989MOL0     C33399   5.420   1.601   1.119  0.7116  0.4236 -0.4655
  989MOL0     C33400   5.568   1.633   1.098 -0.4038  0.5110  0.5473
  989MOL0     C33401   5.654   1.584   1.212  0.2689  0.5107 -0.7669
  989MOL0     C33402   5.797   1.567   1.165  0.3019  0.7687  0.0999
  989MOL0     C33403   5.897   1.516   1.278  0.2364 -0.9833  0.0291
  989MOL0     O33404   6.037   1.520   1.227  0.7337 -0.3260 -0.0468
  989MOL0     C33405   6.117   1.433   1.292  0.0983  0.3529 -0.0762
  989MOL0     C33406   6.109   1.416   1.429  0.2222  0.3504 -0.1116
  989MOL0     C33407   6.179   1.309   1.487 -0.0799 -0.2480  0.6597
  989MOL0     C33408   6.251   1.218   1.408 -0.1810 -0.0839  0.2794
  989MOL0     C33409   6.308   1.092   1.469  0.7615 -0.2590 -0.2451
  989MOL0     O33410   6.395   1.032   1.385 -0.3804 -1.0874 -0.3517
  989MOL0     C33411   6.459   0.918   1.421 -0.5893 -0.2560  0.2961
  989MOL0     C33412   6.419   0.820   1.506 -0.5723  0.2426  0.2817
  989MOL0     C33413   6.506   0.714   1.536  0.0065 -0.4240  0.5366
  989MOL0     C33414   6.630   0.700   1.485 -0.5840 -0.1962  0.6812
  989MOL0     O33415   6.695   0.583   1.493  0.4873  0.0248  0.0875
  989MOL0     C33416   6.839   0.588   1.496  0.0493 -0.5194 -0.4664
  989MOL0     C33417   6.879   0.449   1.544 -0.3976  0.5419 -0.5127
  989MOL0     C33418   7.032   0.422   1.559  0.2933 -0.0826 -0.3863
  989MOL0     C33419   7.062   0.271   1.546 -0.0947 -0.2588 -0.1322
  989MOL0     C33420   7.207   0.241   1.592  0.5644  0.3760  0.6644
  989MOL0     C33421   7.263   0.111   1.542  0.4704 -0.2986  0.2532
  989MOL0     C33422   7.415   0.114   1.535 -0.6254  0.1910  0.5098
  989MOL0     C33423   7.475   0.112   1.675  0.1888 -1.2852 -0.9146
  989MOL0    Cl33424   7.450  -0.035   1.766 -0.3567  0.5682  0.1221
  989MOL0     C33425   6.675   0.803   1.399  0.4915  0.6421  0.0847
  989MOL0     C33426   6.588   0.907   1.365 -1.2930  0.5592 -0.3780
  989MOL0     O33427   6.304   1.067   1.587  0.5343  0.1497 -0.2785
  989MOL0     C33428   6.268   1.250   1.274  0.9796  0.4648  1.0329
  989MOL0     C33429   6.188   1.348   1.214  0.9746 -0.4411  0.2498
  989MOL0     N33430   5.335   1.646   1.226  0.3009  0.2046 -0.3499
  989MOL0     N33431   5.232   1.563   1.225  0.2093 -0.4796  0.0789
  989MOL0     C33432   4.379   0.915   1.176 -0.1513 -0.4011  0.0679
  989MOL0     C33433   4.316   0.816   1.252 -0.2170  0.8602 -0.5491
  989MOL0     C33434   4.309   0.433   1.484 -0.8719  0.3407 -0.4293
  989MOL0     C33435   4.201   0.351   1.443  0.0241 -0.1975 -0.1292
  989MOL0     C33436   4.162   0.238   1.509  0.1757 -1.3735 -0.0936
  989MOL0     C33437   4.229   0.194   1.624  0.7813 -0.0268  0.4705
  989MOL0     O33438   4.171   0.081   1.682  0.5038 -0.5363  0.6061
  989MOL0     C33439   4.222  -0.038   1.615  0.6923  0.1181  0.2998
  989MOL0     C33440   4.372  -0.065   1.649  0.3521 -0.6144  0.4365
  989MOL0     C33441   4.409  -0.047   1.801  0.0730  0.1377 -0.2233
  989MOL0     C33442   4.538  -0.114   1.837 -0.5382 -0.2331 -0.3235
  989MOL0     C33443   4.648  -0.019   1.809 -0.3479 -0.2465 -0.1147
  989MOL0     C33444   4.751   0.046   1.808  0.1729  0.0239 -0.0453
  989MOL0     C33445   4.331   0.277   1.672 -0.1261  0.2957  0.0502
  989MOL0     C33446   4.370   0.394   1.606  0.3274 -0.2031 -0.0569
  989MOL0     C33447   4.482   0.469   1.669  0.6975  0.0284 -0.9726
  989MOL0     H33448   4.417   0.543   1.082 -1.1235 -0.4647  1.5612
  989MOL0     H33449   4.513   0.726   0.923  3.2030  2.2742  0.1341
  989MOL0     H33450   4.598   0.916   0.843  2.7851  2.4164  0.5722
  989MOL0     H33451   4.434   0.959   0.805 -1.1160 -0.4208  1.0773
  989MOL0     H33452   4.516   1.204   0.888  1.3389  0.3102  1.4610
  989MOL0     H33453   4.531   1.157   0.720  0.3970  3.1993  0.4639
  989MOL0     H33454   4.763   1.088   0.760 -0.4220 -1.8123  0.9138
  989MOL0     H33455   4.737   1.134   0.936 -4.4996  0.3767  1.3010
  989MOL0     H33456   4.719   1.328   0.708  3.3014 -0.3324 -0.9346
  989MOL0     H33457   4.674   1.365   0.878  1.4914  2.4117 -0.7174
  989MOL0     H33458   4.940   1.246   0.797  0.7035  1.3614 -1.1782
  989MOL0     H33459   4.932   1.417   0.768 -1.3455  0.3015 -0.8862
  989MOL0     H33460   4.923   1.472   0.996 -0.8060  0.6582 -1.8394
  989MOL0     H33461   4.898   1.299   1.046 -1.9511 -0.3320 -1.2921
  989MOL0     H33462   5.154   1.377   0.906  0.8675  0.2509  0.4503
  989MOL0     H33463   5.114   1.229   0.959  0.9908 -0.4181  2.5684
  989MOL0     H33464   5.080   1.387   1.202 -0.2506 -2.9649  1.1315
  989MOL0     H33465   5.192   1.269   1.164 -2.9715 -0.3214  1.3019
  989MOL0     H33466   5.417   1.437   0.991  2.3816  1.1133  2.1257
  989MOL0     H33467   5.613   1.607   1.002 -0.7948  0.2195  0.4408
  989MOL0     H33468   5.566   1.741   1.113 -0.8661  0.2193  3.2248
  989MOL0     H33469   5.641   1.642   1.304 -4.0015  0.5374 -1.1528
  989MOL0     H33470   5.615   1.489   1.252 -0.3449  1.9081  2.2266
  989MOL0     H33471   5.833   1.654   1.110 -2.3308  2.3928  0.7346
  989MOL0     H33472   5.797   1.491   1.086 -1.1232  2.0090 -1.1691
  989MOL0     H33473   5.866   1.413   1.300  1.2548 -0.9021  2.1062
  989MOL0     H33474   5.878   1.578   1.366 -0.8343 -2.1318  0.6468
  989MOL0     H33475   6.056   1.484   1.495  0.1877  0.0555  0.1661
  989MOL0     H33476   6.179   1.278   1.592 -0.4171 -0.4731  0.5941
  989MOL0     H33477   6.321   0.828   1.551  0.1990  0.7775  1.9360
  989MOL0     H33478   6.469   0.624   1.585 -1.3143  0.1764  0.6765
  989MOL0     H33479   6.883   0.627   1.404 -1.6821  3.7640  0.2952
  989MOL0     H33480   6.879   0.654   1.574 -0.7293 -0.6714  0.0705
  989MOL0     H33481   6.828   0.415   1.635 -2.4297  2.5716 -0.8158
  989MOL0     H33482   6.844   0.382   1.465  2.1223 -0.5384 -0.8182
  989MOL0     H33483   7.091   0.485   1.491 -0.8065  0.7655 -0.5834
  989MOL0     H33484   7.053   0.449   1.663 -1.7612  0.9329 -0.1695
  989MOL0     H33485   7.061   0.236   1.442  0.7417 -3.2395  0.7621
  989MOL0     H33486   6.987   0.219   1.607 -0.4423  3.1883  2.7215
  989MOL0     H33487   7.223   0.246   1.700  2.0819 -0.7707  0.5252
  989MOL0     H33488   7.261   0.321   1.539 -1.4712 -0.1118 -2.3879
  989MOL0     H33489   7.225   0.020   1.591 -0.3020  0.9782  2.1593
  989MOL0     H33490   7.217   0.096   1.444 -0.9285 -0.1584  0.8617
  989MOL0     H33491   7.439   0.208   1.484 -1.8556  1.1508  1.6300
  989MOL0     H33492   7.456   0.033   1.474  3.0844  1.7083  0.7044
  989MOL0     H33493   7.583   0.118   1.658  0.5410 -2.0384  0.8577
  989MOL0     H33494   7.432   0.191   1.737  0.6490 -1.4544 -0.3759
  989MOL0     H33495   6.776   0.798   1.358  0.9655  0.2902  1.2708
  989MOL0     H33496   6.632   0.973   1.292  0.3331 -0.2993 -0.2257
  989MOL0     H33497   6.325   1.180   1.214  2.6449  2.0716  0.6617
  989MOL0     H33498   6.180   1.372   1.108  0.6940  0.3378  0.4382
  989MOL0     H33499   4.366   1.019   1.202  1.1585 -0.6199  1.8310
  989MOL0     H33500   4.262   0.838   1.344 -0.1746 -2.6437  0.4661
  989MOL0     H33501   4.157   0.374   1.347  0.2459 -0.5153 -0.3066
  989MOL0     H33502   4.070   0.190   1.479  0.3960 -2.3198  0.6892
  989MOL0     H33503   4.200  -0.049   1.509 -0.7930  1.4717  0.4228
  989MOL0     H33504   4.174  -0.123   1.664  1.8438 -0.1287  1.0484
  989MOL0     H33505   4.429   0.000   1.582  3.3888 -0.9131  2.5401
  989MOL0     H33506   4.389  -0.165   1.608 -1.5994  0.0501 -2.3335
  989MOL0     H33507   4.331  -0.087   1.866  1.1592  1.5105  2.0542
  989MOL0     H33508   4.426   0.057   1.830 -1.7521  0.4503 -0.1845
  989MOL0     H33509   4.540  -0.130   1.945  1.5819  1.3456 -0.0403
  989MOL0     H33510   4.554  -0.205   1.778  0.9458  0.5511 -1.2088
  989MOL0     H33511   4.826   0.121   1.822  0.2396 -0.5015  2.9346
  989MOL0     H33512   4.385   0.247   1.761  0.7450  0.7442 -0.3180
  989MOL0     H33513   4.578   0.446   1.622  1.1814  0.1012 -0.0539
  989MOL0     H33514   4.446   0.572   1.666  1.0583  0.1395 -1.6265
  989MOL0     H33515   4.486   0.442   1.775 -0.1197  0.8286 -0.7246
  990MOL0     O33516   9.218   6.254   2.100  0.0339  0.2220 -0.4295
  990MOL0     C33517   9.159   6.239   1.991  0.8416  1.0601  0.2469
  990MOL0     O33518   9.215   6.250   1.868  0.4938  0.4800  0.2530
  990MOL0     C33519   9.355   6.271   1.858  0.3460  0.1069 -0.6354
  990MOL0     C33520   9.444   6.184   1.800  0.3977  1.0303 -0.4509
  990MOL0     C33521   9.580   6.208   1.791 -0.2489  0.7405 -0.3767
  990MOL0     C33522   9.640   6.309   1.859  1.1358 -0.1633  0.2640
  990MOL0     O33523   9.774   6.328   1.838 -0.2677 -0.7575 -0.3154
  990MOL0     C33524   9.841   6.416   1.931  0.5202 -0.9459 -0.6431
  990MOL0     C33525   9.990   6.370   1.909  0.0920 -0.2774 -1.0448
  990MOL0     C33526  10.093   6.482   1.931  0.3032  0.4547  0.8025
  990MOL0     C33527  10.091   6.523   2.075 -0.3822  0.2825  0.1011
  990MOL0     C33528  10.221   6.598   2.104 -0.4357 -0.2067  0.1229
  990MOL0     C33529  10.231   6.635   2.251  0.1379  1.0268 -0.2672
  990MOL0     C33530  10.373   6.629   2.301 -0.3864  0.0447 -0.8661
  990MOL0     C33531  10.478   6.711   2.220 -0.5947 -0.0912  0.6841
  990MOL0     N33532  10.607   6.736   2.290 -0.4941 -1.0488  0.4368
  990MOL0     C33533  10.718   6.655   2.293 -0.3029  0.0844  1.2941
  990MOL0     C33534  10.801   6.709   2.389 -0.5630 -0.6294 -0.3302
  990MOL0     C33535  10.929   6.638   2.432 -0.0025 -0.3806  0.2464
  990MOL0     C33536  11.045   6.716   2.360  0.1767 -0.0246  0.1579
  990MOL0     C33537  11.177   6.662   2.391 -0.7835 -0.4421 -0.8154
  990MOL0     C33538  11.293   6.756   2.331 -0.6723 -0.2591  0.0007
  990MOL0     O33539  11.422   6.715   2.381  0.4008  0.6631  0.2019
  990MOL0     C33540  11.526   6.807   2.356  0.0970  0.0917 -0.5713
  990MOL0     C33541  11.523   6.908   2.259 -0.1660  0.3287  0.2801
  990MOL0     C33542  11.624   7.002   2.230 -0.0466  0.8089 -0.4906
  990MOL0     C33543  11.736   7.004   2.313 -0.9399 -0.8523  0.3338
  990MOL0     C33544  11.825   7.120   2.305 -0.1986  1.0934 -0.4278
  990MOL0     O33545  11.920   7.123   2.400 -0.8870  0.7345 -0.7882
  990MOL0     C33546  12.023   7.214   2.378  0.3956  0.0759  0.1294
  990MOL0     C33547  11.996   7.350   2.368  0.7093 -0.1656 -0.1879
  990MOL0     C33548  12.102   7.437   2.348  0.5365 -0.0203 -0.1494
  990MOL0     C33549  12.235   7.391   2.335 -0.1549 -0.3410  0.9313
  990MOL0     O33550  12.343   7.471   2.312 -0.5104 -0.1771  0.3644
  990MOL0     C33551  12.339   7.615   2.301  0.1968  0.3046  0.4127
  990MOL0     C33552  12.468   7.671   2.252 -0.1705 -0.0520  0.0806
  990MOL0     C33553  12.445   7.819   2.223  0.2741 -0.9584  0.4432
  990MOL0     C33554  12.414   7.842   2.076 -0.0113 -0.3330  0.1591
  990MOL0     C33555  12.353   7.987   2.049 -0.7039 -0.0435  0.1002
  990MOL0     C33556  12.200   7.985   2.070  0.0713 -0.0567 -0.5087
  990MOL0     C33557  12.146   8.132   2.074 -0.5715  0.2546 -0.1387
  990MOL0     C33558  12.023   8.142   2.156  0.5267 -0.4878  0.2143
  990MOL0    Cl33559  11.973   8.309   2.154  0.0803  0.1337 -0.3470
  990MOL0     C33560  12.258   7.251   2.344 -0.4559 -0.0163  0.4564
  990MOL0     C33561  12.150   7.167   2.368  0.3241  0.6451 -0.6926
  990MOL0     O33562  11.811   7.196   2.208  0.4211  1.3639  0.2989
  990MOL0     C33563  11.741   6.909   2.419  0.7953 -0.4080 -0.0674
  990MOL0     C33564  11.636   6.819   2.449  0.5246 -0.1086  0.1744
  990MOL0     N33565  10.740   6.829   2.436  0.2282  0.0282 -0.1874
  990MOL0     N33566  10.634   6.847   2.370 -0.2703  0.4579  0.7970
  990MOL0     C33567   9.551   6.395   1.929  0.6841 -0.0253 -0.2454
  990MOL0     C33568   9.409   6.378   1.924  0.0800 -0.2012  0.8481
  990MOL0     C33569   9.015   6.195   2.006 -1.0072 -1.0271  0.4628
  990MOL0     C33570   8.965   6.180   2.134  0.5799 -0.5121 -1.3483
  990MOL0     C33571   8.827   6.147   2.156 -0.6864 -0.2802 -0.4037
  990MOL0     C33572   8.731   6.145   2.054 -0.7059  0.3989 -0.7792
  990MOL0     O33573   8.610   6.096   2.092  0.0355 -0.2332 -0.1876
  990MOL0     C33574   8.518   6.067   1.983  0.9894 -0.6481  0.1446
  990MOL0     C33575   8.381   6.034   2.041 -0.1395  0.2368  0.4908
  990MOL0     C33576   8.318   6.149   2.108 -0.0645 -0.5080  0.5262
  990MOL0     C33577   8.169   6.127   2.137  0.4111  1.1361 -0.3099
  990MOL0     C33578   8.113   6.197   2.258  0.6147  0.0955  0.2411
  990MOL0     C33579   8.048   6.247   2.347 -0.3433  0.5752  0.3609
  990MOL0     C33580   8.786   6.160   1.923 -0.7215  0.1585 -0.2595
  990MOL0     C33581   8.922   6.190   1.899  1.0811 -0.7419  0.4008
  990MOL0     C33582   8.964   6.189   1.754  0.3814 -0.4639  0.2786
  990MOL0     H33583   9.417   6.085   1.767  1.7244 -0.9931  3.8018
  990MOL0     H33584   9.641   6.153   1.721 -1.0032  1.1465 -1.3847
  990MOL0     H33585   9.830   6.518   1.893  0.8197 -1.5257 -2.3841
  990MOL0     H33586   9.803   6.399   2.032 -0.0833 -0.6600 -0.8202
  990MOL0     H33587  10.000   6.350   1.802  1.3412  0.0517 -1.0007
  990MOL0     H33588  10.015   6.282   1.970 -1.3480  1.5356  2.4311
  990MOL0     H33589  10.084   6.575   1.873  0.6764  0.4759  0.7803
  990MOL0     H33590  10.191   6.443   1.904 -1.0824 -0.3907 -4.0399
  990MOL0     H33591  10.009   6.588   2.107 -2.0244 -0.0900 -2.9359
  990MOL0     H33592  10.083   6.433   2.136  0.2874  0.2972  0.2187
  990MOL0     H33593  10.307   6.534   2.082 -1.4829 -3.1128  3.5322
  990MOL0     H33594  10.226   6.691   2.046 -1.0376  1.1580  2.1129
  990MOL0     H33595  10.188   6.733   2.270 -1.4392  0.5868 -1.3861
  990MOL0     H33596  10.166   6.568   2.308 -0.3545 -0.2392 -2.2257
  990MOL0     H33597  10.391   6.521   2.299 -0.6146 -0.0340  0.6098
  990MOL0     H33598  10.384   6.666   2.403  1.7042  0.5999 -1.2399
  990MOL0     H33599  10.501   6.662   2.125  2.1263  0.8969  0.7549
  990MOL0     H33600  10.429   6.807   2.198  2.3452  1.7559  1.5997
  990MOL0     H33601  10.735   6.559   2.244 -1.1577  0.4507  0.2294
  990MOL0     H33602  10.925   6.654   2.540 -2.2901  0.5631  0.0874
  990MOL0     H33603  10.933   6.533   2.403  1.5139  0.4775 -3.2146
  990MOL0     H33604  11.017   6.723   2.254 -0.5790  3.0764  0.4596
  990MOL0     H33605  11.038   6.820   2.394 -2.0753  0.0694 -0.4803
  990MOL0     H33606  11.182   6.560   2.352  0.1362 -0.8102  0.2238
  990MOL0     H33607  11.191   6.653   2.499 -2.0851  0.5057 -0.5411
  990MOL0     H33608  11.273   6.861   2.354 -0.6286 -0.5712  1.5494
  990MOL0     H33609  11.277   6.744   2.224 -0.2073  1.8638 -0.3424
  990MOL0     H33610  11.437   6.908   2.194 -2.1975 -0.7369  2.8022
  990MOL0     H33611  11.607   7.079   2.155 -1.3461 -1.6961 -2.9339
  990MOL0     H33612  11.897   7.390   2.387 -1.0397 -3.8257 -0.6696
  990MOL0     H33613  12.073   7.542   2.337 -0.2979 -0.3218 -1.0376
  990MOL0     H33614  12.256   7.652   2.240  1.0786  2.1581  0.2619
  990MOL0     H33615  12.319   7.661   2.399  0.7416  1.7283 -0.1239
  990MOL0     H33616  12.541   7.659   2.332  0.3114 -0.0202 -0.3429
  990MOL0     H33617  12.510   7.607   2.173  0.7784 -0.6263  1.0270
  990MOL0     H33618  12.358   7.851   2.282 -0.9093 -2.8234 -0.2060
  990MOL0     H33619  12.535   7.873   2.252 -0.7652  1.8630 -1.1887
  990MOL0     H33620  12.344   7.769   2.033 -0.2100  1.5247 -3.0085
  990MOL0     H33621  12.505   7.843   2.016 -0.2109 -1.2860 -0.1874
  990MOL0     H33622  12.369   8.014   1.944 -2.0641 -2.1365 -0.7148
  990MOL0     H33623  12.399   8.064   2.110  2.2610 -1.3591 -0.2921
  990MOL0     H33624  12.150   7.921   1.997 -0.7263 -0.6914  0.5620
  990MOL0     H33625  12.177   7.945   2.169  0.2859 -1.4425 -0.9973
  990MOL0     H33626  12.118   8.176   1.977 -1.0244  0.5782  0.1368
  990MOL0     H33627  12.222   8.189   2.128  0.8063  0.4429 -2.1385
  990MOL0     H33628  11.951   8.077   2.105  0.2008  0.4620 -0.5625
  990MOL0     H33629  12.032   8.108   2.260  0.3565 -0.3380  0.2777
  990MOL0     H33630  12.362   7.219   2.344 -0.0618  1.1259 -1.5039
  990MOL0     H33631  12.144   7.059   2.380 -0.1315  0.8716  1.5276
  990MOL0     H33632  11.837   6.905   2.471  1.5483  5.0734 -0.4331
  990MOL0     H33633  11.643   6.752   2.534  1.6531  1.0737  1.0585
  990MOL0     H33634   9.583   6.485   1.981 -4.1732  0.2537  2.8152
  990MOL0     H33635   9.343   6.454   1.965 -0.2750  0.0406 -0.1375
  990MOL0     H33636   9.021   6.190   2.227 -2.0017 -0.0473  0.2688
  990MOL0     H33637   8.786   6.131   2.256  0.7215 -2.8325 -0.1407
  990MOL0     H33638   8.553   5.977   1.932  0.6746 -1.2443  0.9707
  990MOL0     H33639   8.507   6.156   1.920 -2.7050 -2.2395 -1.7870
  990MOL0     H33640   8.394   5.945   2.103 -0.9012  0.4059  0.9020
  990MOL0     H33641   8.317   5.991   1.964  1.9174 -1.5067 -0.3647
  990MOL0     H33642   8.333   6.239   2.047  0.9907 -2.1229 -1.7271
  990MOL0     H33643   8.364   6.173   2.205 -0.9142  0.4619  0.7045
  990MOL0     H33644   8.102   6.155   2.055 -0.6017  0.1786  0.1594
  990MOL0     H33645   8.145   6.022   2.158  1.5141  0.9514  0.0674
  990MOL0     H33646   7.987   6.278   2.429 -1.0122 -1.6775  0.7856
  990MOL0     H33647   8.721   6.137   1.839  0.2065 -1.5873 -0.5642
  990MOL0     H33648   8.872   6.195   1.693  0.2685  0.1356  0.4952
  990MOL0     H33649   9.013   6.281   1.720  1.2522 -1.1730 -0.4021
  990MOL0     H33650   9.034   6.107   1.739  0.4201 -0.5151  0.7259
  991MOL0     O33651   2.803   4.429   7.187  0.2762 -0.2810  0.5975
  991MOL0     C33652   2.717   4.508   7.241 -0.3203  0.4473 -0.9243
  991MOL0     O33653   2.751   4.631   7.287  0.4495 -0.2598  0.6396
  991MOL0     C33654   2.881   4.661   7.290 -0.4562 -0.6073  0.6282
  991MOL0     C33655   2.945   4.704   7.162  0.2514  0.8894  0.4839
  991MOL0     C33656   3.081   4.731   7.159 -0.2133 -0.1038 -0.2108
  991MOL0     C33657   3.156   4.729   7.272 -0.2198  0.4501 -0.1168
  991MOL0     O33658   3.290   4.758   7.250  0.0950  0.2336  0.0619
  991MOL0     C33659   3.384   4.740   7.352 -0.5069 -0.3889  0.2873
  991MOL0     C33660   3.520   4.797   7.300  0.3071  0.3545  0.4114
  991MOL0     C33661   3.648   4.766   7.382 -0.1568  0.8902  0.2753
  991MOL0     C33662   3.642   4.802   7.526  0.1070 -0.1931  0.1024
  991MOL0     C33663   3.771   4.799   7.600  0.0097  0.0326 -0.7300
  991MOL0     C33664   3.866   4.688   7.564  0.5846 -0.1935  0.2328
  991MOL0     C33665   4.004   4.693   7.625 -0.4593 -0.2755 -0.1206
  991MOL0     C33666   4.081   4.584   7.551 -0.4302  0.5399  0.1961
  991MOL0     N33667   4.200   4.543   7.626  0.2056 -0.1389 -0.0003
  991MOL0     C33668   4.322   4.597   7.611 -0.6934  0.9437  0.6464
  991MOL0     C33669   4.390   4.576   7.723  0.6612  1.0075  0.3191
  991MOL0     C33670   4.530   4.610   7.763  0.1989  0.1396 -0.1749
  991MOL0     C33671   4.609   4.485   7.775 -0.1357  0.8348  0.5522
  991MOL0     C33672   4.597   4.396   7.644 -0.3877  0.1117  0.0642
  991MOL0     C33673   4.678   4.268   7.636 -0.2026  0.3495  0.1114
  991MOL0     O33674   4.811   4.308   7.603  0.7289 -0.1390  0.0367
  991MOL0     C33675   4.910   4.218   7.637  0.3054  0.3976  0.4096
  991MOL0     C33676   4.929   4.091   7.575 -0.3657  0.2393 -0.2632
  991MOL0     C33677   5.030   4.004   7.625 -0.1291 -0.0717 -0.0062
  991MOL0     C33678   5.112   4.046   7.729 -0.1173  0.3100  0.1874
  991MOL0     C33679   5.226   3.955   7.770  0.0530  0.4492 -0.1017
  991MOL0     O33680   5.231   3.832   7.703  0.3105  0.3041 -0.5555
  991MOL0     C33681   5.326   3.750   7.758  0.1579  0.4231  0.4963
  991MOL0     C33682   5.329   3.691   7.895  0.9810  0.2844  0.5706
  991MOL0     C33683   5.434   3.598   7.926 -0.2262  0.7257  0.3096
  991MOL0     C33684   5.530   3.561   7.831  0.6115 -0.5466  1.4261
  991MOL0     O33685   5.637   3.479   7.852 -0.4900  0.1311  0.0783
  991MOL0     C33686   5.691   3.460   7.986  1.1382 -0.5934  0.4975
  991MOL0     C33687   5.826   3.395   7.964 -0.5797 -0.1072  0.5435
  991MOL0     C33688   5.813   3.260   7.897  0.0368  0.4124 -0.8138
  991MOL0     C33689   5.944   3.209   7.851 -0.1066  0.1891  0.8236
  991MOL0     C33690   5.939   3.063   7.827 -0.0703  0.5624 -0.3332
  991MOL0     C33691   6.066   3.015   7.770  0.1446 -1.0962  0.4206
  991MOL0     C33692   6.067   2.866   7.734 -0.8319  0.1671 -0.1674
  991MOL0     C33693   6.093   2.781   7.857 -0.1762 -0.4521  0.0865
  991MOL0    Cl33694   6.268   2.815   7.897  0.0621  0.1351 -0.3088
  991MOL0     C33695   5.521   3.610   7.703  0.6430  0.1473  0.2532
  991MOL0     C33696   5.418   3.697   7.666  0.2729  0.6806  0.4837
  991MOL0     O33697   5.287   3.990   7.866  0.4742 -0.3916  0.0766
  991MOL0     C33698   5.094   4.173   7.789  0.1804 -0.5857 -0.1169
  991MOL0     C33699   4.994   4.267   7.737  0.8898  0.6994 -0.1272
  991MOL0     N33700   4.309   4.508   7.812  0.3651 -0.3980  0.1909
  991MOL0     N33701   4.196   4.489   7.752 -0.7779 -0.0552 -0.0645
  991MOL0     C33702   3.098   4.694   7.389 -0.7209 -1.0405 -0.4958
  991MOL0     C33703   2.967   4.656   7.399  0.6429  0.6118 -0.4005
  991MOL0     C33704   2.575   4.460   7.259 -0.1558 -0.6932  0.2407
  991MOL0     C33705   2.474   4.559   7.278  0.1807 -0.7271 -0.5339
  991MOL0     C33706   2.336   4.521   7.273  0.6586  0.4321 -0.0582
  991MOL0     C33707   2.296   4.382   7.262 -0.5148  0.6430  0.1390
  991MOL0     O33708   2.167   4.327   7.262 -0.2330 -0.5558  0.3707
  991MOL0     C33709   2.051   4.416   7.251  0.0743  0.9014  0.0733
  991MOL0     C33710   2.043   4.478   7.106 -0.1364  0.1248 -0.5148
  991MOL0     C33711   1.947   4.586   7.072  0.3066  0.0502  0.3018
  991MOL0     C33712   1.808   4.548   7.104  0.1627  0.7361 -0.4197
  991MOL0     C33713   1.767   4.419   7.035 -0.3484  0.5689 -0.0802
  991MOL0     C33714   1.733   4.315   6.982  0.4833 -0.7778 -0.3405
  991MOL0     C33715   2.407   4.298   7.257  0.0562 -0.3350 -1.1648
  991MOL0     C33716   2.538   4.328   7.256  1.0561 -0.6540  0.1678
  991MOL0     C33717   2.635   4.212   7.241 -0.1072 -0.5394 -0.6372
  991MOL0     H33718   2.881   4.707   7.075 -0.4675  2.2773  1.0168
  991MOL0     H33719   3.136   4.761   7.070  0.8208  2.7534  1.2617
  991MOL0     H33720   3.358   4.787   7.447  1.2088  1.4833 -0.1006
  991MOL0     H33721   3.406   4.634   7.371  1.0222  0.1309  1.6239
  991MOL0     H33722   3.499   4.903   7.280  0.8299  0.1701 -1.2333
  991MOL0     H33723   3.542   4.753   7.203 -2.2605 -0.1881 -0.0146
  991MOL0     H33724   3.739   4.803   7.334 -0.2313 -1.7692 -2.1515
  991MOL0     H33725   3.658   4.659   7.366 -1.8385  1.0563 -2.6326
  991MOL0     H33726   3.601   4.904   7.525 -1.4730 -0.7841 -1.5977
  991MOL0     H33727   3.570   4.732   7.568 -1.4369  0.0727 -1.9121
  991MOL0     H33728   3.834   4.888   7.596  0.7954 -0.3242  1.6293
  991MOL0     H33729   3.746   4.791   7.707  3.9056  0.8077  0.4064
  991MOL0     H33730   3.817   4.595   7.594 -0.1093  0.4835  1.2437
  991MOL0     H33731   3.871   4.702   7.456 -1.1359  0.7658  0.2452
  991MOL0     H33732   4.012   4.677   7.733  2.1877 -0.4814 -0.2849
  991MOL0     H33733   4.047   4.790   7.602 -1.1021  0.2646  0.8608
  991MOL0     H33734   4.032   4.486   7.557  0.4963  0.1466  2.6962
  991MOL0     H33735   4.105   4.617   7.450  0.9449 -1.1899 -0.0876
  991MOL0     H33736   4.360   4.628   7.514  0.4779  0.6991  1.0093
  991MOL0     H33737   4.584   4.677   7.696 -0.8643  0.6733 -0.5046
  991MOL0     H33738   4.529   4.671   7.854 -0.0020 -0.7490  0.4400
  991MOL0     H33739   4.713   4.504   7.801 -0.5020 -0.4993  3.5144
  991MOL0     H33740   4.566   4.432   7.861  1.7233  1.9725  2.2655
  991MOL0     H33741   4.621   4.461   7.560 -0.1682  0.2197  0.2097
  991MOL0     H33742   4.494   4.359   7.633 -0.8189  1.9317 -3.0512
  991MOL0     H33743   4.648   4.201   7.555  2.3549 -0.3983 -0.3093
  991MOL0     H33744   4.675   4.226   7.737 -1.5876  1.9791  0.7910
  991MOL0     H33745   4.872   4.054   7.491  0.6621 -1.6142 -0.2107
  991MOL0     H33746   5.051   3.914   7.569 -0.0804 -0.0556 -0.0140
  991MOL0     H33747   5.252   3.705   7.970  1.3460 -3.6292  1.9125
  991MOL0     H33748   5.443   3.574   8.032  0.5763  1.3691  0.3926
  991MOL0     H33749   5.694   3.558   8.034 -0.7556  0.0261 -0.5711
  991MOL0     H33750   5.630   3.390   8.044  1.2806 -0.5617  0.6853
  991MOL0     H33751   5.885   3.453   7.893  0.2432 -1.2825  0.2356
  991MOL0     H33752   5.872   3.393   8.063 -1.8359  0.9521  1.1882
  991MOL0     H33753   5.754   3.196   7.963 -0.1225  0.9509 -0.4294
  991MOL0     H33754   5.767   3.273   7.799  1.2116 -0.4056 -1.5057
  991MOL0     H33755   6.028   3.226   7.919  0.6290 -2.6882  0.7447
  991MOL0     H33756   5.971   3.263   7.759 -2.5769 -0.1148 -0.1450
  991MOL0     H33757   5.859   3.027   7.762  2.1893 -3.5357 -1.1799
  991MOL0     H33758   5.926   3.019   7.926 -0.9659  2.7863  0.5884
  991MOL0     H33759   6.089   3.067   7.677  0.9021 -2.8974 -0.4538
  991MOL0     H33760   6.136   3.060   7.841 -2.5066  1.6697  1.5068
  991MOL0     H33761   6.138   2.848   7.652 -1.7674 -0.5068 -0.8673
  991MOL0     H33762   5.970   2.838   7.691  0.5777 -1.6442 -2.4388
  991MOL0     H33763   6.025   2.797   7.942 -1.1135 -2.8690 -0.1457
  991MOL0     H33764   6.094   2.673   7.844  1.2236 -0.4354 -0.1405
  991MOL0     H33765   5.593   3.569   7.633  1.0281  1.0918  0.0810
  991MOL0     H33766   5.403   3.739   7.567  2.3218  0.9685  0.2396
  991MOL0     H33767   5.155   4.210   7.871 -1.1802  0.1175  0.6106
  991MOL0     H33768   4.986   4.362   7.789  1.0962  0.1960  0.8516
  991MOL0     H33769   3.164   4.690   7.475 -1.7080 -1.0731  0.2934
  991MOL0     H33770   2.933   4.632   7.499  1.6505 -1.0845 -0.4236
  991MOL0     H33771   2.509   4.662   7.281  2.4134 -1.4044 -1.4443
  991MOL0     H33772   2.257   4.594   7.287  1.7194  1.2177  2.3766
  991MOL0     H33773   2.048   4.487   7.334 -0.3270 -2.0822  2.7955
  991MOL0     H33774   1.967   4.346   7.253  1.4824 -0.9674 -1.7200
  991MOL0     H33775   2.040   4.390   7.041 -0.2544  0.8171 -1.4754
  991MOL0     H33776   2.139   4.531   7.096 -0.3846  0.8998  1.0630
  991MOL0     H33777   1.960   4.627   6.971 -1.6815 -2.5648 -1.1326
  991MOL0     H33778   1.982   4.668   7.136  0.9583  0.2397 -0.2739
  991MOL0     H33779   1.797   4.556   7.213  2.4292 -0.2613 -0.0778
  991MOL0     H33780   1.754   4.634   7.062  0.1660  0.3797 -1.1682
  991MOL0     H33781   1.701   4.222   6.939  0.0395 -0.8663  0.1673
  991MOL0     H33782   2.381   4.193   7.249  1.0610 -0.7816  0.8723
  991MOL0     H33783   2.597   4.114   7.273 -2.2930  0.2405 -0.6663
  991MOL0     H33784   2.673   4.194   7.140  2.3178 -0.7006  0.2419
  991MOL0     H33785   2.714   4.232   7.314 -0.9679 -2.6273  0.9780
  992MOL0     O33786   9.461   2.796   4.542  0.2639  0.4800  0.4986
  992MOL0     C33787   9.460   2.676   4.553 -0.2844 -0.2287  0.8100
  992MOL0     O33788   9.573   2.597   4.535  0.4739  0.2189  0.2788
  992MOL0     C33789   9.693   2.653   4.523  0.3000 -0.0369  0.2741
  992MOL0     C33790   9.743   2.765   4.590 -0.0601 -0.3410  0.1724
  992MOL0     C33791   9.871   2.810   4.558 -0.2570  0.1085  0.9918
  992MOL0     C33792   9.949   2.743   4.451  0.6660 -0.3397  0.0490
  992MOL0     O33793  10.077   2.783   4.417  0.5632  0.1521  0.2134
  992MOL0     C33794  10.153   2.863   4.512 -0.0438  0.3482 -0.4740
  992MOL0     C33795  10.280   2.900   4.444  0.6237 -0.0081 -0.4804
  992MOL0     C33796  10.364   2.777   4.397  0.2424 -0.5165  0.4574
  992MOL0     C33797  10.482   2.836   4.306 -0.2228  0.0642  0.5045
  992MOL0     C33798  10.583   2.737   4.264 -0.2365 -0.3059 -0.3058
  992MOL0     C33799  10.672   2.710   4.381 -0.3444  0.4096  0.0919
  992MOL0     C33800  10.765   2.602   4.334 -0.3603 -0.6075  0.8757
  992MOL0     C33801  10.848   2.565   4.460 -0.3492  0.2034 -0.0532
  992MOL0     N33802  10.919   2.430   4.450  0.7551 -0.0957  0.9055
  992MOL0     C33803  11.031   2.391   4.390  0.2023 -0.0161 -0.8379
  992MOL0     C33804  11.029   2.256   4.396  0.2010 -0.2822  0.0103
  992MOL0     C33805  11.141   2.166   4.350 -0.7228 -0.0409 -0.2678
  992MOL0     C33806  11.261   2.185   4.443  0.4422 -0.0620 -0.1755
  992MOL0     C33807  11.368   2.086   4.412 -0.5500  0.3552  0.1257
  992MOL0     C33808  11.491   2.105   4.488  0.2014  0.5006  0.5682
  992MOL0     O33809  11.564   2.231   4.450  0.4504  0.6495 -0.6538
  992MOL0     C33810  11.693   2.238   4.488 -0.1349 -0.1839  0.5505
  992MOL0     C33811  11.759   2.145   4.571 -0.2757 -0.4130 -1.0317
  992MOL0     C33812  11.898   2.168   4.587  0.0657  0.6696 -0.9655
  992MOL0     C33813  11.976   2.256   4.523  1.3470  0.1049 -0.4593
  992MOL0     C33814  12.126   2.257   4.542 -0.2443 -0.1120 -0.7373
  992MOL0     O33815  12.180   2.163   4.627  0.2628 -0.4245 -0.1141
  992MOL0     C33816  12.316   2.142   4.645  0.2018 -0.1802 -0.5187
  992MOL0     C33817  12.355   2.067   4.761  0.3947 -0.2572 -0.2756
  992MOL0     C33818  12.491   2.058   4.796  0.9529 -0.7574  0.0683
  992MOL0     C33819  12.592   2.107   4.713 -0.3985 -0.5233  0.6017
  992MOL0     O33820  12.725   2.103   4.747 -0.2044 -0.0406 -0.2545
  992MOL0     C33821  12.770   2.176   4.853  0.0806 -0.2628  0.2685
  992MOL0     C33822  12.887   2.261   4.810  0.7072 -0.3649 -0.2675
  992MOL0     C33823  12.996   2.176   4.777 -0.4644 -0.5662 -0.5678
  992MOL0     C33824  13.128   2.255   4.777 -0.4326 -0.1208 -0.6166
  992MOL0     C33825  13.232   2.211   4.668 -0.6147  0.0145 -0.2805
  992MOL0     C33826  13.355   2.299   4.671  0.6875  0.1507  0.6424
  992MOL0     C33827  13.448   2.238   4.780 -0.4401 -0.1861  0.3468
  992MOL0     C33828  13.566   2.346   4.799  0.1440 -0.3023  0.0559
  992MOL0    Cl33829  13.674   2.269   4.916 -0.0786 -0.4572 -0.0459
  992MOL0     C33830  12.552   2.164   4.594  0.0556 -0.0364  0.5362
  992MOL0     C33831  12.421   2.189   4.565 -0.3187  0.7818  0.0171
  992MOL0     O33832  12.188   2.343   4.484  0.0197  0.5122 -0.0490
  992MOL0     C33833  11.909   2.336   4.429  0.1748 -0.6167 -0.8483
  992MOL0     C33834  11.772   2.336   4.423 -0.3701  1.0182  0.0545
  992MOL0     N33835  10.918   2.214   4.465  0.1806 -0.6987  0.6982
  992MOL0     N33836  10.851   2.321   4.493  0.1127 -0.3474  0.0224
  992MOL0     C33837   9.897   2.628   4.396 -0.7902 -0.1389 -1.0510
  992MOL0     C33838   9.769   2.589   4.431  0.7448  0.1578  0.1604
  992MOL0     C33839   9.334   2.602   4.600 -0.1457 -0.7140  0.0858
  992MOL0     C33840   9.336   2.463   4.632 -0.5039  0.2201  0.3400
  992MOL0     C33841   9.225   2.382   4.677 -0.3368  0.1664  0.3374
  992MOL0     C33842   9.107   2.455   4.699 -0.1940  0.3035 -0.5169
  992MOL0     O33843   8.998   2.374   4.729 -0.5110  0.5443  0.2292
  992MOL0     C33844   8.868   2.428   4.762 -0.8967  0.1592  0.6113
  992MOL0     C33845   8.782   2.476   4.641  0.2701 -0.5785 -0.6758
  992MOL0     C33846   8.632   2.506   4.676 -0.6995 -0.0848 -0.6845
  992MOL0     C33847   8.604   2.592   4.804 -0.3337 -0.2451  0.4105
  992MOL0     C33848   8.640   2.732   4.782 -0.5738 -0.3819  0.1906
  992MOL0     C33849   8.664   2.843   4.764  0.2669 -0.2210  0.0175
  992MOL0     C33850   9.091   2.595   4.662 -1.0056  0.3704  0.4559
  992MOL0     C33851   9.199   2.661   4.611 -0.7097 -0.4828  0.0075
  992MOL0     C33852   9.176   2.801   4.593 -0.7710 -0.6545  0.5134
  992MOL0     H33853   9.684   2.827   4.657 -1.6740 -0.2685 -1.2396
  992MOL0     H33854   9.908   2.895   4.615  1.1699 -1.0618  1.8781
  992MOL0     H33855  10.089   2.949   4.528 -0.2351  0.3758 -1.3281
  992MOL0     H33856  10.172   2.821   4.611  1.3751 -0.3837 -1.0119
  992MOL0     H33857  10.345   2.964   4.506  0.9172 -0.5396 -0.2344
  992MOL0     H33858  10.258   2.959   4.354  0.2720 -0.0407 -0.4179
  992MOL0     H33859  10.308   2.710   4.331 -0.9274  0.5269  0.3465
  992MOL0     H33860  10.409   2.714   4.474  4.8536  1.9529  0.1359
  992MOL0     H33861  10.440   2.876   4.214 -1.2367  1.4976  1.5352
  992MOL0     H33862  10.519   2.927   4.354 -0.9472  1.8712 -2.1633
  992MOL0     H33863  10.535   2.646   4.226 -1.9616  0.0207  0.9217
  992MOL0     H33864  10.651   2.773   4.187  0.3755  1.0007  0.8130
  992MOL0     H33865  10.724   2.795   4.425 -1.6466  1.9447 -1.2211
  992MOL0     H33866  10.617   2.661   4.462 -3.2322  2.4103 -0.5133
  992MOL0     H33867  10.821   2.641   4.248 -2.6676  1.2253  0.0848
  992MOL0     H33868  10.707   2.516   4.301 -1.9303  0.4388  0.7835
  992MOL0     H33869  10.929   2.634   4.485 -0.5643  0.4371  0.0059
  992MOL0     H33870  10.781   2.553   4.546 -0.3743 -3.2564 -0.3982
  992MOL0     H33871  11.106   2.461   4.354  2.2337 -1.0575  1.1178
  992MOL0     H33872  11.107   2.063   4.336 -1.2016 -0.4488  3.0066
  992MOL0     H33873  11.173   2.207   4.254  0.7214  1.0250  0.6208
  992MOL0     H33874  11.300   2.287   4.445 -1.1668  0.5842 -0.5979
  992MOL0     H33875  11.231   2.159   4.545  0.9063 -0.8590 -0.2362
  992MOL0     H33876  11.401   2.082   4.308 -1.1340  2.1230 -0.1555
  992MOL0     H33877  11.319   1.994   4.445 -0.7949  1.3185  2.7052
  992MOL0     H33878  11.563   2.025   4.465 -0.5428  0.1824 -0.7428
  992MOL0     H33879  11.476   2.103   4.596  0.4568  0.3747  0.6052
  992MOL0     H33880  11.703   2.066   4.620  0.5449  0.4051  1.4153
  992MOL0     H33881  11.957   2.111   4.657  1.4337  2.2256 -0.7896
  992MOL0     H33882  12.276   2.029   4.825  1.8894 -0.8804  1.2364
  992MOL0     H33883  12.514   2.017   4.894  0.3261  0.6073  0.8163
  992MOL0     H33884  12.685   2.238   4.886 -1.7855 -1.3669 -2.1718
  992MOL0     H33885  12.798   2.105   4.931  2.4230 -1.7807 -1.8321
  992MOL0     H33886  12.856   2.313   4.719  2.5566 -0.6578 -1.1089
  992MOL0     H33887  12.906   2.325   4.897  1.9961 -0.6888 -0.2930
  992MOL0     H33888  13.015   2.094   4.847  0.5673 -1.6300 -2.0239
  992MOL0     H33889  12.981   2.127   4.680 -1.1674 -0.7873 -0.3536
  992MOL0     H33890  13.177   2.254   4.875 -3.2722 -0.9569  0.9107
  992MOL0     H33891  13.103   2.361   4.762 -1.2297 -0.3584 -1.0610
  992MOL0     H33892  13.191   2.231   4.569  0.3835  1.7538 -0.3904
  992MOL0     H33893  13.248   2.103   4.664 -1.0760 -0.1002  0.6595
  992MOL0     H33894  13.393   2.292   4.568 -1.7977  0.7519 -0.3899
  992MOL0     H33895  13.325   2.401   4.695 -0.2696  0.1980 -0.6378
  992MOL0     H33896  13.479   2.135   4.759 -0.8343 -1.0058  3.3718
  992MOL0     H33897  13.406   2.238   4.881 -1.1620  0.7637  0.0613
  992MOL0     H33898  13.611   2.364   4.701 -2.2077 -0.8887 -1.2280
  992MOL0     H33899  13.527   2.434   4.851 -1.8477 -2.2337  2.0412
  992MOL0     H33900  12.621   2.196   4.517 -0.5210  2.6810  1.0312
  992MOL0     H33901  12.397   2.253   4.481  2.6795  2.8882  0.5834
  992MOL0     H33902  11.959   2.414   4.372  1.9549 -2.2657 -1.6517
  992MOL0     H33903  11.722   2.408   4.358 -0.9284  0.0124 -0.6668
  992MOL0     H33904   9.955   2.576   4.320  0.1207  1.8180 -1.7778
  992MOL0     H33905   9.723   2.499   4.391  0.0847  0.5565  0.0162
  992MOL0     H33906   9.433   2.415   4.619 -0.3164  0.2730  1.4685
  992MOL0     H33907   9.230   2.275   4.693 -1.3928 -0.2949 -2.0140
  992MOL0     H33908   8.882   2.513   4.831 -0.9067  0.8775 -0.2507
  992MOL0     H33909   8.809   2.352   4.814  0.7596  0.0947  2.5444
  992MOL0     H33910   8.781   2.398   4.565 -0.5814 -0.5959 -0.6560
  992MOL0     H33911   8.815   2.569   4.595  0.0819  0.1889  0.6912
  992MOL0     H33912   8.596   2.405   4.693 -1.5771 -0.1350 -2.5534
  992MOL0     H33913   8.576   2.550   4.593 -0.5271  2.0547  0.2788
  992MOL0     H33914   8.497   2.579   4.821 -0.7033 -1.1963 -2.0785
  992MOL0     H33915   8.642   2.553   4.898 -0.8153 -2.1378 -0.1324
  992MOL0     H33916   8.679   2.945   4.733  1.0472 -0.2545  0.2471
  992MOL0     H33917   8.998   2.651   4.670  0.0959  2.1644  1.0641
  992MOL0     H33918   9.149   2.805   4.487 -1.2729 -0.9949  0.6228
  992MOL0     H33919   9.083   2.837   4.637 -1.1195  0.6709 -1.1863
  992MOL0     H33920   9.252   2.875   4.621 -1.8030 -0.1066  1.9416
  993MOL0     O33921  10.979   1.789   0.270  0.5657 -1.0015 -0.3101
  993MOL0     C33922  10.995   1.683   0.325 -0.7679 -0.2049 -0.9543
  993MOL0     O33923  11.112   1.647   0.400 -0.1994 -0.8435 -0.3576
  993MOL0     C33924  11.225   1.721   0.392 -0.1704  0.0528  0.0243
  993MOL0     C33925  11.328   1.684   0.311 -0.2274 -0.4840 -0.9194
  993MOL0     C33926  11.450   1.765   0.305  0.2498 -0.2011  0.6610
  993MOL0     C33927  11.463   1.883   0.381 -0.8430  0.2329 -1.8508
  993MOL0     O33928  11.581   1.951   0.379  0.3633  0.4761  0.4262
  993MOL0     C33929  11.589   2.074   0.459 -0.2377  0.5241 -1.1093
  993MOL0     C33930  11.710   2.139   0.399  0.2184  0.5051 -0.5103
  993MOL0     C33931  11.830   2.068   0.459  0.5543  0.0765  0.7504
  993MOL0     C33932  11.964   2.148   0.445 -1.1158 -0.7088  0.0920
  993MOL0     C33933  12.065   2.113   0.557  0.1185  0.1186  0.2726
  993MOL0     C33934  12.167   2.224   0.565  0.2033  0.2999  0.4654
  993MOL0     C33935  12.271   2.214   0.446 -0.1401 -0.0996 -0.1941
  993MOL0     C33936  12.385   2.315   0.462  0.2096 -1.1942  0.0532
  993MOL0     N33937  12.338   2.445   0.412 -0.3381  0.0731 -0.5169
  993MOL0     C33938  12.304   2.477   0.287  0.1375  0.1159 -0.3059
  993MOL0     C33939  12.267   2.610   0.303 -1.5853  0.3396 -0.3434
  993MOL0     C33940  12.218   2.693   0.195  1.0604  0.2494  0.2720
  993MOL0     C33941  12.324   2.718   0.088  0.2976 -0.4420  0.4643
  993MOL0     C33942  12.438   2.819   0.142 -0.2509 -0.1650  0.0173
  993MOL0     C33943  12.542   2.839   0.037 -0.1291 -0.7413  0.3978
  993MOL0     O33944  12.605   2.718   0.011 -0.1798 -0.1081 -0.3947
  993MOL0     C33945  12.691   2.690   0.113 -0.1162  0.2422  0.2002
  993MOL0     C33946  12.637   2.583   0.188  0.0674 -0.8075 -0.2675
  993MOL0     C33947  12.698   2.539   0.300 -0.3185  0.7084 -0.8777
  993MOL0     C33948  12.825   2.586   0.337 -0.2348 -1.3067 -0.0281
  993MOL0     C33949  12.888   2.531   0.462 -0.3408 -0.8994  0.2554
  993MOL0     O33950  12.806   2.458   0.539 -0.4676 -0.1194 -0.3341
  993MOL0     C33951  12.847   2.431   0.665  0.0207 -0.8115 -0.0404
  993MOL0     C33952  12.904   2.315   0.707 -0.0876 -0.4497 -0.5392
  993MOL0     C33953  12.932   2.299   0.851 -0.0342  0.3937  0.0056
  993MOL0     C33954  12.902   2.402   0.934  0.7596  0.3766 -0.2405
  993MOL0     O33955  12.923   2.380   1.075 -0.0090  0.0356 -0.2357
  993MOL0     C33956  13.042   2.449   1.123 -0.0497 -0.0361 -1.1178
  993MOL0     C33957  13.145   2.343   1.163  0.0086 -0.6893 -0.2600
  993MOL0     C33958  13.259   2.396   1.244 -0.8299  0.2232 -0.3264
  993MOL0     C33959  13.356   2.277   1.280  0.1163  0.2360 -0.4569
  993MOL0     C33960  13.482   2.330   1.348 -0.8499  0.1602 -0.2420
  993MOL0     C33961  13.571   2.214   1.387 -1.0788  1.1786 -0.0483
  993MOL0     C33962  13.709   2.265   1.437  0.3587  0.1072 -1.4769
  993MOL0     C33963  13.821   2.263   1.338  0.6099 -0.0415 -0.3931
  993MOL0    Cl33964  13.793   2.377   1.204  0.2576 -0.0403  0.1885
  993MOL0     C33965  12.840   2.516   0.886 -0.5517  0.0248 -0.1528
  993MOL0     C33966  12.803   2.532   0.759  0.1121 -0.5800  0.5367
  993MOL0     O33967  13.003   2.569   0.490  0.5073 -0.0468 -0.8392
  993MOL0     C33968  12.881   2.695   0.263  0.6628  0.8980 -0.1784
  993MOL0     C33969  12.808   2.748   0.148 -0.4571 -0.4105 -0.1985
  993MOL0     N33970  12.296   2.657   0.431 -0.2138 -0.1231 -0.4189
  993MOL0     N33971  12.336   2.551   0.497 -0.2369 -0.6365  0.6600
  993MOL0     C33972  11.356   1.910   0.464  0.2802 -0.2298 -0.0199
  993MOL0     C33973  11.239   1.834   0.467 -0.8028 -0.2056  0.2303
  993MOL0     C33974  10.901   1.570   0.300 -0.0390  0.1711 -0.0924
  993MOL0     C33975  10.758   1.578   0.304 -0.4376  0.3627 -0.3777
  993MOL0     C33976  10.677   1.474   0.266  0.3602  0.2860  0.0306
  993MOL0     C33977  10.725   1.344   0.226 -0.3691 -0.0977 -0.8700
  993MOL0     O33978  10.654   1.237   0.186 -0.1670  0.4324  0.6412
  993MOL0     C33979  10.510   1.246   0.166  0.9282 -0.7967 -0.1375
  993MOL0     C33980  10.461   1.106   0.151 -0.7685  0.4085 -0.1813
  993MOL0     C33981  10.308   1.105   0.133 -0.3002  0.1987  0.5254
  993MOL0     C33982  10.241   0.969   0.102  0.1572 -0.7661  0.3282
  993MOL0     C33983  10.106   0.981   0.050  0.4407 -0.1316  1.1136
  993MOL0     C33984   9.996   0.971  -0.009 -0.2899 -0.1740  0.7622
  993MOL0     C33985  10.863   1.338   0.225 -0.0135  0.2980  0.3986
  993MOL0     C33986  10.950   1.445   0.255 -0.1880  0.3570  0.9338
  993MOL0     C33987  11.095   1.420   0.225  0.4285 -0.1462 -0.5395
  993MOL0     H33988  11.310   1.598   0.247 -1.2684  0.1999 -1.5860
  993MOL0     H33989  11.522   1.717   0.240 -1.1739 -0.1972 -1.0110
  993MOL0     H33990  11.509   2.147   0.445 -2.6130 -2.2650 -3.1332
  993MOL0     H33991  11.595   2.063   0.567 -0.0977  1.8297 -0.9694
  993MOL0     H33992  11.714   2.244   0.431  0.1732  0.0717  0.9744
  993MOL0     H33993  11.703   2.140   0.290 -0.3513 -1.4218 -0.5195
  993MOL0     H33994  11.837   1.976   0.400  0.5749  0.0648  0.7711
  993MOL0     H33995  11.808   2.045   0.563  0.0949  2.6188  1.2997
  993MOL0     H33996  12.011   2.135   0.348  2.0307 -0.2001  1.4269
  993MOL0     H33997  11.942   2.254   0.460  1.0796 -0.2722  0.5776
  993MOL0     H33998  12.012   2.124   0.652  1.2835  0.3317  0.9156
  993MOL0     H33999  12.108   2.014   0.544 -0.1791 -0.0517  0.5676
  993MOL0     H34000  12.117   2.321   0.559  0.8980  0.6167 -0.6861
  993MOL0     H34001  12.212   2.216   0.664 -0.8028  3.0634  1.2173
  993MOL0     H34002  12.220   2.217   0.349 -1.0518 -1.4690  0.2133
  993MOL0     H34003  12.317   2.116   0.455 -0.0480  0.0647  1.3987
  993MOL0     H34004  12.418   2.313   0.566  0.7269 -0.8855 -0.1024
  993MOL0     H34005  12.469   2.289   0.397  1.2584  0.6868  0.5920
  993MOL0     H34006  12.309   2.416   0.197 -1.0016 -0.6707  0.1278
  993MOL0     H34007  12.127   2.646   0.155 -0.0118  1.6965  0.9177
  993MOL0     H34008  12.182   2.786   0.240  2.0297  0.3056  0.9556
  993MOL0     H34009  12.370   2.626   0.050  1.6888  0.8229 -1.0226
  993MOL0     H34010  12.272   2.758   0.001  0.2322  0.7356  1.0346
  993MOL0     H34011  12.483   2.787   0.236 -0.7738 -0.0553  0.3075
  993MOL0     H34012  12.396   2.917   0.166  0.9702  0.6633 -1.0981
  993MOL0     H34013  12.620   2.913   0.059 -0.6881 -0.9333  3.6054
  993MOL0     H34014  12.500   2.868  -0.060 -0.0523 -3.9152 -0.6996
  993MOL0     H34015  12.542   2.551   0.147 -0.6239  2.1270 -1.2395
  993MOL0     H34016  12.653   2.466   0.366  2.0543 -0.2811 -0.2584
  993MOL0     H34017  12.940   2.245   0.633  2.3793  2.3584 -2.2192
  993MOL0     H34018  12.982   2.209   0.886  2.1368  1.8833  0.9411
  993MOL0     H34019  13.101   2.513   1.057  1.6830 -0.2516  0.1523
  993MOL0     H34020  13.017   2.500   1.216  1.2013 -0.9960 -0.2126
  993MOL0     H34021  13.100   2.261   1.219 -2.7802  1.2313  0.4993
  993MOL0     H34022  13.191   2.306   1.071 -0.3329 -0.3818 -0.5583
  993MOL0     H34023  13.311   2.470   1.183 -0.2255  1.1320  1.2302
  993MOL0     H34024  13.231   2.427   1.345  2.3458 -1.7375  1.3506
  993MOL0     H34025  13.371   2.212   1.193 -1.9734 -1.7601  0.5639
  993MOL0     H34026  13.306   2.218   1.357  2.5921  1.6348  2.4038
  993MOL0     H34027  13.452   2.388   1.436 -0.1763 -1.8121  1.3550
  993MOL0     H34028  13.529   2.396   1.274 -2.1174 -2.5279 -3.6799
  993MOL0     H34029  13.519   2.162   1.468 -0.3812  0.7936  0.1591
  993MOL0     H34030  13.572   2.150   1.299 -0.0822  0.3854  0.5308
  993MOL0     H34031  13.748   2.191   1.508 -2.2846  0.8062  0.8637
  993MOL0     H34032  13.711   2.363   1.485  0.8358  0.1258 -1.5244
  993MOL0     H34033  13.908   2.299   1.393  1.5098  0.1520 -1.8875
  993MOL0     H34034  13.841   2.167   1.290  0.7416 -0.0490 -0.3246
  993MOL0     H34035  12.808   2.586   0.963  0.9720  1.2939 -0.6082
  993MOL0     H34036  12.752   2.618   0.716  0.9292 -1.3269 -2.1162
  993MOL0     H34037  12.984   2.724   0.277  1.5999 -1.5440 -1.3441
  993MOL0     H34038  12.852   2.832   0.096  2.7895 -1.6373  0.3134
  993MOL0     H34039  11.359   1.985   0.542 -0.9062  1.0313 -1.1272
  993MOL0     H34040  11.159   1.867   0.532 -2.0718 -0.9799 -0.8803
  993MOL0     H34041  10.712   1.670   0.338  0.4102  0.2540  1.1381
  993MOL0     H34042  10.570   1.481   0.283  0.2988 -1.3372  0.4764
  993MOL0     H34043  10.485   1.302   0.075 -1.2447 -0.7196  0.4478
  993MOL0     H34044  10.455   1.283   0.253 -2.2464 -0.5251 -2.1084
  993MOL0     H34045  10.483   1.052   0.243  1.8836  2.0066  0.2144
  993MOL0     H34046  10.497   1.056   0.060 -2.4816 -3.5506  1.1016
  993MOL0     H34047  10.273   1.168   0.050 -2.3299  0.1064  1.2745
  993MOL0     H34048  10.262   1.153   0.220 -3.9170  1.2328 -1.7591
  993MOL0     H34049  10.298   0.922   0.022 -0.1283  2.4767 -1.9882
  993MOL0     H34050  10.249   0.906   0.191 -0.6944  0.5822  1.4112
  993MOL0     H34051   9.912   0.978  -0.075  1.1447 -0.0601 -1.1381
  993MOL0     H34052  10.906   1.240   0.208 -0.4321  0.2128 -0.2216
  993MOL0     H34053  11.104   1.320   0.180 -1.5800 -1.8957  2.6265
  993MOL0     H34054  11.135   1.500   0.161  0.6746 -1.2000 -1.7629
  993MOL0     H34055  11.149   1.415   0.319 -2.0761 -2.3448  0.9208
  994MOL0     O34056  10.843   2.098   7.825  0.0853  0.5570  0.1089
  994MOL0     C34057  10.824   2.130   7.708  0.0278  0.2025 -0.2325
  994MOL0     O34058  10.922   2.159   7.612  0.4244  0.6345 -0.1766
  994MOL0     C34059  11.048   2.135   7.628 -0.3692  0.5333 -0.2690
  994MOL0     C34060  11.129   2.209   7.541  0.0134  0.7316  0.7257
  994MOL0     C34061  11.268   2.203   7.562  0.3071  0.4315  0.0013
  994MOL0     C34062  11.322   2.115   7.653  0.0182  0.7206 -0.2694
  994MOL0     O34063  11.454   2.106   7.675  1.3532  0.2771 -0.0702
  994MOL0     C34064  11.543   2.138   7.573  0.2484  0.6477  0.8492
  994MOL0     C34065  11.677   2.063   7.589  0.2803  0.4754  0.0245
  994MOL0     C34066  11.743   2.070   7.727 -0.0110  0.0916 -0.4729
  994MOL0     C34067  11.875   1.991   7.734 -0.2332 -0.5827  0.0687
  994MOL0     C34068  11.943   1.991   7.869 -1.1870 -0.1623 -0.2716
  994MOL0     C34069  12.079   1.940   7.856 -0.8346  0.5703 -0.6800
  994MOL0     C34070  12.095   1.800   7.792 -0.7601 -0.5486  0.4658
  994MOL0     C34071  12.242   1.751   7.795  0.9075  0.1985  0.1465
  994MOL0     N34072  12.241   1.617   7.739  0.2425 -0.5687 -0.1824
  994MOL0     C34073  12.292   1.508   7.806  0.8682  0.0383  0.1132
  994MOL0     C34074  12.313   1.413   7.709 -0.0924 -1.3887 -0.2539
  994MOL0     C34075  12.381   1.278   7.722 -0.3134  0.3099  0.0698
  994MOL0     C34076  12.362   1.175   7.598  0.7286  0.1875 -0.4374
  994MOL0     C34077  12.397   1.033   7.631  0.0894  0.0052 -0.3669
  994MOL0     C34078  12.546   1.024   7.619 -0.0315 -0.2936  0.7702
  994MOL0     O34079  12.597   0.894   7.626 -0.1315 -0.4599 -0.0101
  994MOL0     C34080  12.714   0.870   7.685  0.3880 -0.3965  0.0286
  994MOL0     C34081  12.718   0.833   7.819  0.0922 -0.1209  0.3649
  994MOL0     C34082  12.834   0.821   7.885 -0.2290  0.2850  1.1496
  994MOL0     C34083  12.955   0.854   7.823  0.1750  0.6828  0.1446
  994MOL0     C34084  13.083   0.844   7.898 -0.1419  0.2154  0.2387
  994MOL0     O34085  13.195   0.835   7.820 -0.1322 -0.2529 -0.2507
  994MOL0     C34086  13.318   0.810   7.879  0.4933 -0.4191 -0.8456
  994MOL0     C34087  13.426   0.895   7.848 -0.1677 -1.1120 -0.6446
  994MOL0     C34088  13.554   0.876   7.886  0.3301 -0.4003 -0.4073
  994MOL0     C34089  13.585   0.772   7.981  0.0268 -0.5048 -0.0192
  994MOL0     O34090  13.723   0.762   8.010  0.5097 -0.0006 -0.1972
  994MOL0     C34091  13.759   0.689   8.134  0.0179 -0.5787  0.2794
  994MOL0     C34092  13.906   0.734   8.163 -0.0451 -0.9131 -1.0993
  994MOL0     C34093  13.957   0.635   8.265 -0.8646 -0.0014  0.5208
  994MOL0     C34094  13.890   0.621   8.397  0.3778  1.8202  0.1331
  994MOL0     C34095  13.965   0.532   8.489  0.1129  0.9853 -0.0535
  994MOL0     C34096  13.895   0.552   8.619  0.5501  0.7219 -0.0679
  994MOL0     C34097  13.962   0.460   8.725 -0.5273  0.0837 -0.4285
  994MOL0     C34098  13.919   0.497   8.865 -0.6264  0.4061  0.1844
  994MOL0    Cl34099  13.987   0.664   8.905  0.5577  0.4607 -0.1159
  994MOL0     C34100  13.480   0.674   8.007  0.2510 -0.6836  0.4554
  994MOL0     C34101  13.350   0.695   7.962  0.4231 -1.1772  0.3206
  994MOL0     O34102  13.083   0.876   8.019  0.1334 -0.2698 -0.5974
  994MOL0     C34103  12.956   0.885   7.682  0.3602  1.0115  0.3340
  994MOL0     C34104  12.834   0.897   7.613 -0.2229  0.5146 -0.5800
  994MOL0     N34105  12.263   1.460   7.592 -0.5704 -0.5749  0.6661
  994MOL0     N34106  12.229   1.592   7.604 -0.4761 -0.0392 -0.1207
  994MOL0     C34107  11.246   2.034   7.731  0.1527  0.0599 -0.2516
  994MOL0     C34108  11.106   2.049   7.726  0.4419  0.0046  0.7910
  994MOL0     C34109  10.687   2.155   7.658  0.2616  0.7198 -0.3239
  994MOL0     C34110  10.667   2.242   7.539 -0.4023  0.0492 -0.2513
  994MOL0     C34111  10.539   2.272   7.501  0.1414 -0.0537 -0.2525
  994MOL0     C34112  10.422   2.234   7.562  0.5727 -0.5285 -0.1316
  994MOL0     O34113  10.296   2.279   7.526  0.0785  0.4958  0.3329
  994MOL0     C34114  10.289   2.391   7.438  0.2998 -0.0922 -0.3634
  994MOL0     C34115  10.299   2.354   7.286 -0.5526  0.0707  1.2415
  994MOL0     C34116  10.165   2.331   7.222 -0.1465  0.2904  0.6190
  994MOL0     C34117  10.187   2.278   7.083 -0.1886 -0.6678 -0.0472
  994MOL0     C34118  10.068   2.274   7.001 -0.5947 -0.0180 -0.6165
  994MOL0     C34119   9.974   2.274   6.926 -0.1952  0.4492  0.0097
  994MOL0     C34120  10.434   2.143   7.668 -0.0961  0.2393 -0.3479
  994MOL0     C34121  10.562   2.108   7.721 -0.3472  0.9028 -0.2625
  994MOL0     C34122  10.563   2.025   7.852 -0.5893  0.0790  0.3134
  994MOL0     H34123  11.097   2.276   7.462  0.0635  1.0494  0.9735
  994MOL0     H34124  11.336   2.267   7.506  0.2696 -0.1553 -0.7256
  994MOL0     H34125  11.492   2.102   7.483  1.6300 -0.4274  0.4620
  994MOL0     H34126  11.554   2.247   7.563  3.3674  0.3536  0.1034
  994MOL0     H34127  11.744   2.119   7.522  2.6059  1.3039  2.8296
  994MOL0     H34128  11.670   1.958   7.561  1.9818  0.4933 -0.5929
  994MOL0     H34129  11.680   2.036   7.809  2.4594  0.6072  1.7526
  994MOL0     H34130  11.766   2.175   7.744  1.1694 -0.4304  1.4420
  994MOL0     H34131  11.843   1.892   7.700 -2.6385  0.4807 -0.9760
  994MOL0     H34132  11.947   2.039   7.667 -1.5805  1.6843  0.1220
  994MOL0     H34133  11.960   2.093   7.906 -2.7484  0.0989 -0.1900
  994MOL0     H34134  11.886   1.944   7.950 -1.3235  2.2487  1.1409
  994MOL0     H34135  12.132   2.016   7.799 -0.6540  1.2051  0.3108
  994MOL0     H34136  12.138   1.931   7.948 -1.9891 -1.5064 -0.0831
  994MOL0     H34137  12.071   1.798   7.685  1.6402 -1.0270 -0.1349
  994MOL0     H34138  12.034   1.728   7.846 -1.3419 -0.5513 -0.1757
  994MOL0     H34139  12.304   1.812   7.727  1.1065  1.6313  1.5611
  994MOL0     H34140  12.291   1.749   7.893  1.3569  0.2080 -0.0728
  994MOL0     H34141  12.321   1.504   7.910  0.9325  0.2676  0.1042
  994MOL0     H34142  12.487   1.298   7.738 -0.5124  1.7689 -0.2643
  994MOL0     H34143  12.348   1.230   7.814 -1.0506 -0.0824 -0.3890
  994MOL0     H34144  12.257   1.193   7.571  0.6179 -0.2866 -0.3410
  994MOL0     H34145  12.411   1.216   7.510 -0.8012 -1.4657 -2.1612
  994MOL0     H34146  12.356   0.963   7.558 -1.6238 -1.4095  1.8281
  994MOL0     H34147  12.356   1.008   7.729  0.6077 -4.2655 -1.0522
  994MOL0     H34148  12.609   1.088   7.681  1.5637  0.1560 -1.2077
  994MOL0     H34149  12.574   1.048   7.516  2.5342 -0.5865  1.3300
  994MOL0     H34150  12.626   0.822   7.877  0.9931 -0.9071  1.7266
  994MOL0     H34151  12.832   0.794   7.990  0.8843  1.4842  1.5050
  994MOL0     H34152  13.398   0.984   7.793  1.7276  0.3576  0.6553
  994MOL0     H34153  13.635   0.940   7.852  0.9354 -1.8805 -1.8509
  994MOL0     H34154  13.694   0.720   8.217 -0.0983 -1.8156  0.6657
  994MOL0     H34155  13.751   0.581   8.118  0.0804 -0.4912 -0.3884
  994MOL0     H34156  13.972   0.721   8.076  0.2583  1.8412 -1.3492
  994MOL0     H34157  13.911   0.836   8.199 -1.8929 -2.1898  3.3935
  994MOL0     H34158  13.950   0.536   8.219 -1.7763 -0.2577  1.1734
  994MOL0     H34159  14.062   0.656   8.286 -0.7455 -3.2061  4.5353
  994MOL0     H34160  13.789   0.584   8.375  0.6202  0.3335  1.3340
  994MOL0     H34161  13.884   0.723   8.437 -1.7470  1.1298  1.8066
  994MOL0     H34162  14.070   0.560   8.501  0.2878  0.1080  0.5422
  994MOL0     H34163  13.951   0.431   8.451 -1.0369  1.8758 -2.1809
  994MOL0     H34164  13.893   0.658   8.647 -5.9606  0.2010  3.4773
  994MOL0     H34165  13.788   0.534   8.608  0.5489  0.2251  0.6831
  994MOL0     H34166  14.071   0.465   8.723 -0.5619  2.9172  0.4459
  994MOL0     H34167  13.933   0.359   8.696  3.0750 -1.1513 -0.2097
  994MOL0     H34168  13.810   0.501   8.879 -0.7367  1.2793 -0.8477
  994MOL0     H34169  13.955   0.418   8.932  1.9275  1.4103  0.1135
  994MOL0     H34170  13.511   0.579   8.050 -2.9714 -1.8448  0.4863
  994MOL0     H34171  13.271   0.622   7.974 -1.7233  0.1177 -3.9084
  994MOL0     H34172  13.053   0.917   7.646  1.6349 -2.9071 -0.1633
  994MOL0     H34173  12.836   0.928   7.509  0.2999 -1.8284 -1.3389
  994MOL0     H34174  11.286   1.965   7.804 -1.3363  0.3098  0.8432
  994MOL0     H34175  11.042   1.987   7.788 -1.7379  0.6744 -0.6468
  994MOL0     H34176  10.751   2.292   7.493  0.4513  2.3394  3.3840
  994MOL0     H34177  10.536   2.338   7.415 -0.6649 -0.9500 -0.9231
  994MOL0     H34178  10.355   2.474   7.466 -1.8335  1.5848 -0.0769
  994MOL0     H34179  10.190   2.434   7.455 -0.1888 -1.1801 -0.3822
  994MOL0     H34180  10.360   2.264   7.279 -3.1552 -1.6848 -1.1771
  994MOL0     H34181  10.351   2.436   7.235 -1.2402  0.1990  0.7277
  994MOL0     H34182  10.103   2.420   7.211  1.4708  1.3664 -0.1257
  994MOL0     H34183  10.120   2.252   7.283 -1.6968 -0.4210 -1.3378
  994MOL0     H34184  10.266   2.340   7.039  3.3001 -3.2468  2.0630
  994MOL0     H34185  10.226   2.177   7.097  0.6350 -0.5950 -1.5626
  994MOL0     H34186   9.888   2.277   6.862 -0.3591  0.0468  0.2121
  994MOL0     H34187  10.343   2.104   7.714  1.8311 -1.9738  1.8769
  994MOL0     H34188  10.467   1.975   7.866 -0.5509 -0.2618 -0.5453
  994MOL0     H34189  10.636   1.945   7.867  0.1449  0.6986  0.1036
  994MOL0     H34190  10.578   2.099   7.930 -0.4383  0.7852 -0.3723
  995MOL0     O34191   3.380   6.192  10.261 -0.0621  0.1730  0.1538
  995MOL0     C34192   3.303   6.249  10.341 -0.3331  0.0615 -0.3915
  995MOL0     O34193   3.333   6.370  10.396  0.5352  0.1626  0.5146
  995MOL0     C34194   3.472   6.394  10.399  0.3214  0.3167 -0.0100
  995MOL0     C34195   3.537   6.441  10.283  0.4000 -0.0332 -1.1314
  995MOL0     C34196   3.677   6.463  10.288  0.1792  0.3253 -0.1480
  995MOL0     C34197   3.753   6.432  10.391 -0.5027  0.0827 -0.9338
  995MOL0     O34198   3.893   6.451  10.377  0.3334 -0.5742  0.1610
  995MOL0     C34199   3.940   6.589  10.378  0.1023  1.1676  0.6154
  995MOL0     C34200   4.081   6.602  10.322  1.1962  0.2224 -0.1767
  995MOL0     C34201   4.179   6.536  10.423 -0.3005 -0.3828 -0.6246
  995MOL0     C34202   4.323   6.522  10.374 -1.4474 -1.0174  0.8567
  995MOL0     C34203   4.425   6.454  10.472  0.0334  0.7698 -0.6368
  995MOL0     C34204   4.566   6.458  10.412  0.1401  0.2338 -0.2231
  995MOL0     C34205   4.664   6.428  10.525  0.7637  0.0270 -0.1791
  995MOL0     C34206   4.796   6.392  10.464  0.1834  0.0434 -0.3759
  995MOL0     N34207   4.893   6.427  10.568 -0.1616  0.2692  0.4738
  995MOL0     C34208   4.905   6.354  10.682  0.3097  0.7992 -0.9176
  995MOL0     C34209   5.005   6.416  10.748  0.1109  0.8518  0.2507
  995MOL0     C34210   5.080   6.370  10.874 -0.6677 -0.8322  0.9375
  995MOL0     C34211   5.229   6.384  10.861  0.1729  0.4470  0.0345
  995MOL0     C34212   5.262   6.527  10.911  0.1410  0.5899 -0.0277
  995MOL0     C34213   5.390   6.587  10.862  0.4909  0.0892  0.1647
  995MOL0     O34214   5.501   6.505  10.899 -0.2110 -0.0271 -0.5564
  995MOL0     C34215   5.627   6.543  10.853  0.3120  0.6760  0.0797
  995MOL0     C34216   5.733   6.494  10.924  0.0235 -0.4542 -0.0219
  995MOL0     C34217   5.865   6.528  10.893  0.7025 -0.4701 -0.0829
  995MOL0     C34218   5.891   6.608  10.776  0.1010  0.4743 -0.5657
  995MOL0     C34219   6.028   6.645  10.748 -0.5777  0.2628  0.1202
  995MOL0     O34220   6.129   6.625  10.847  0.6858 -0.0071 -0.0131
  995MOL0     C34221   6.235   6.709  10.837  0.1602  0.4928 -0.4093
  995MOL0     C34222   6.317   6.719  10.726  0.4569  0.9218  0.0405
  995MOL0     C34223   6.424   6.802  10.718  0.6365  0.0444  0.5085
  995MOL0     C34224   6.454   6.882  10.828  0.6203 -0.0112 -0.4836
  995MOL0     O34225   6.557   6.964  10.807 -0.3595 -0.9832  0.0873
  995MOL0     C34226   6.583   7.053  10.909  0.2893 -1.3418 -0.1475
  995MOL0     C34227   6.706   7.131  10.864  0.8045  0.1148  0.5684
  995MOL0     C34228   6.747   7.239  10.977  0.0264 -0.4768  0.8573
  995MOL0     C34229   6.677   7.378  10.944 -0.4072 -0.3206  0.2637
  995MOL0     C34230   6.708   7.494  11.045  0.3959  0.0491  0.0722
  995MOL0     C34231   6.850   7.523  11.045 -0.6951  0.4282 -0.6662
  995MOL0     C34232   6.891   7.661  11.084 -0.3428  0.7380 -0.1746
  995MOL0     C34233   6.859   7.687  11.234 -0.1820 -0.0927 -0.6500
  995MOL0    Cl34234   6.918   7.862  11.269  0.4391  0.4424 -0.0132
  995MOL0     C34235   6.373   6.878  10.941 -0.0316 -0.1379  0.4502
  995MOL0     C34236   6.264   6.789  10.948 -0.8535 -0.0158 -1.3231
  995MOL0     O34237   6.037   6.712  10.646 -0.3137 -0.1328 -0.2598
  995MOL0     C34238   5.781   6.646  10.700  0.2907 -0.3345  0.3776
  995MOL0     C34239   5.653   6.614  10.738  0.2100 -0.2213  0.6599
  995MOL0     N34240   5.051   6.526  10.668  0.0080  0.3080 -0.1966
  995MOL0     N34241   4.985   6.526  10.560  0.1238  0.4152 -0.1240
  995MOL0     C34242   3.693   6.379  10.510  0.4226 -0.8297 -0.2913
  995MOL0     C34243   3.554   6.362  10.508 -0.1520 -0.5734 -0.3757
  995MOL0     C34244   3.173   6.197  10.373 -0.3248  0.7514 -0.4794
  995MOL0     C34245   3.075   6.277  10.431 -0.9588 -0.8059 -0.3287
  995MOL0     C34246   2.954   6.235  10.480 -0.6245  0.3168 -0.5247
  995MOL0     C34247   2.928   6.099  10.466  0.9304  0.2486 -0.0038
  995MOL0     O34248   2.798   6.055  10.504 -0.2311 -0.1329 -0.1108
  995MOL0     C34249   2.698   6.113  10.414  1.0543  0.6485  0.4472
  995MOL0     C34250   2.568   6.032  10.424  0.4618 -0.2178  0.2696
  995MOL0     C34251   2.445   6.108  10.358  0.8477  0.4061  0.2330
  995MOL0     C34252   2.425   6.093  10.208  0.8805  0.6458 -0.4256
  995MOL0     C34253   2.297   6.153  10.167  0.6395  0.8003  1.3082
  995MOL0     C34254   2.196   6.213  10.138  0.6854 -0.1595 -0.6298
  995MOL0     C34255   3.017   6.011  10.396  0.8636 -0.4266  0.4067
  995MOL0     C34256   3.140   6.061  10.362  0.2422  0.8974  0.2111
  995MOL0     C34257   3.236   5.954  10.318 -0.8461 -0.0490 -0.0069
  995MOL0     H34258   3.474   6.465  10.198 -1.3282 -0.7871 -0.1142
  995MOL0     H34259   3.712   6.504  10.194  0.2937 -0.0210 -0.2563
  995MOL0     H34260   3.883   6.661  10.317 -0.1330  1.8781  1.6419
  995MOL0     H34261   3.961   6.624  10.480  1.4798 -2.5609  1.7764
  995MOL0     H34262   4.114   6.707  10.329 -0.2930  0.6728  0.3417
  995MOL0     H34263   4.088   6.558  10.222  1.9430  0.4355 -0.2300
  995MOL0     H34264   4.154   6.431  10.443  0.2621 -1.1595 -3.5458
  995MOL0     H34265   4.178   6.581  10.522 -1.6294  0.7612 -1.1146
  995MOL0     H34266   4.342   6.485  10.273  0.9624  2.5794 -0.2284
  995MOL0     H34267   4.356   6.623  10.344  0.1011 -2.1015 -1.3785
  995MOL0     H34268   4.427   6.504  10.570 -0.4041 -3.3827  1.7085
  995MOL0     H34269   4.394   6.350  10.467 -3.2734  1.5585  0.5707
  995MOL0     H34270   4.575   6.385  10.331 -0.6013  1.0242 -1.0375
  995MOL0     H34271   4.584   6.560  10.377  0.0473  1.0404  1.8925
  995MOL0     H34272   4.621   6.347  10.584 -3.9650  0.5865 -2.4006
  995MOL0     H34273   4.672   6.513  10.595 -2.2188  0.2533 -0.0072
  995MOL0     H34274   4.806   6.288  10.432 -0.7460  0.0444 -0.6878
  995MOL0     H34275   4.801   6.453  10.373 -0.9029 -0.4990 -0.8158
  995MOL0     H34276   4.861   6.260  10.716  1.6212  0.4915 -0.0096
  995MOL0     H34277   5.051   6.432  10.960 -0.8254  2.1870 -1.1122
  995MOL0     H34278   5.059   6.265  10.892 -2.4009 -0.4284  1.4259
  995MOL0     H34279   5.285   6.304  10.910 -0.0919  1.0028  1.2939
  995MOL0     H34280   5.255   6.391  10.755  1.6324  2.6866  0.4838
  995MOL0     H34281   5.262   6.533  11.020  2.4887  0.2357  0.0634
  995MOL0     H34282   5.185   6.593  10.870  0.0647 -0.7515 -2.1903
  995MOL0     H34283   5.404   6.685  10.909 -2.9774  0.4324  0.7179
  995MOL0     H34284   5.371   6.606  10.756 -4.2111 -0.8930  0.6296
  995MOL0     H34285   5.720   6.437  11.015  0.8971 -1.1339 -0.3089
  995MOL0     H34286   5.944   6.489  10.956  0.7604  1.4476  1.0853
  995MOL0     H34287   6.309   6.652  10.640  0.1358  0.1145  0.6839
  995MOL0     H34288   6.484   6.798  10.628  0.4933 -0.0126  0.4146
  995MOL0     H34289   6.498   7.121  10.919  1.0474 -0.4379  0.2854
  995MOL0     H34290   6.597   6.998  11.002 -0.0553 -1.6493 -0.2741
  995MOL0     H34291   6.778   7.050  10.847 -0.9367 -1.3535 -0.2461
  995MOL0     H34292   6.695   7.186  10.770  3.6437  0.1302  0.1770
  995MOL0     H34293   6.707   7.215  11.076  1.8953  1.1423  2.0875
  995MOL0     H34294   6.856   7.244  10.973  0.1317 -2.5380 -0.2511
  995MOL0     H34295   6.570   7.364  10.928 -0.4762 -0.3434  0.7508
  995MOL0     H34296   6.700   7.416  10.844 -1.1470  0.8504  0.5283
  995MOL0     H34297   6.673   7.465  11.144 -1.9823  4.2682  0.7012
  995MOL0     H34298   6.645   7.581  11.024 -1.0155 -1.1586 -0.8872
  995MOL0     H34299   6.906   7.447  11.101  4.5546  2.5200 -2.4975
  995MOL0     H34300   6.893   7.503  10.946 -2.6369 -2.8928 -0.9787
  995MOL0     H34301   6.846   7.732  11.014 -1.4218 -0.7278 -1.0226
  995MOL0     H34302   7.000   7.661  11.069  0.0513 -6.0573 -0.5083
  995MOL0     H34303   6.750   7.679  11.236 -0.1018 -1.8484 -1.5450
  995MOL0     H34304   6.902   7.612  11.301 -1.3224 -1.3991 -1.3448
  995MOL0     H34305   6.387   6.950  11.021 -0.5193  0.1982  0.2407
  995MOL0     H34306   6.220   6.789  11.047  2.2797  0.4875  0.2031
  995MOL0     H34307   5.788   6.711  10.613 -4.1988  0.0256  0.0168
  995MOL0     H34308   5.574   6.644  10.669 -0.3189  0.0765  1.3876
  995MOL0     H34309   3.750   6.335  10.591 -0.2552 -1.5350 -0.1775
  995MOL0     H34310   3.504   6.311  10.590 -0.1950 -0.3739 -0.2766
  995MOL0     H34311   3.106   6.379  10.450  0.3435 -0.5271 -3.4492
  995MOL0     H34312   2.887   6.299  10.537 -1.3033 -1.0210  0.2159
  995MOL0     H34313   2.732   6.119  10.311 -0.7369  0.1950 -0.2063
  995MOL0     H34314   2.670   6.215  10.442 -3.7169  0.0059 -1.1206
  995MOL0     H34315   2.546   6.015  10.530  0.5733  0.8346  0.4649
  995MOL0     H34316   2.578   5.936  10.372 -1.3431 -0.8934  1.0854
  995MOL0     H34317   2.448   6.213  10.390 -1.0605  1.2734 -2.1213
  995MOL0     H34318   2.356   6.064  10.403  1.1883 -0.0533  0.4675
  995MOL0     H34319   2.511   6.152  10.174  0.0659  2.4756  0.5311
  995MOL0     H34320   2.434   5.990  10.171 -0.6288  0.4340 -0.2355
  995MOL0     H34321   2.106   6.266  10.114  0.5178 -0.9816 -1.9180
  995MOL0     H34322   2.987   5.907  10.388  0.0759 -0.2076  0.3883
  995MOL0     H34323   3.285   5.977  10.222 -0.2209 -1.4859 -0.0504
  995MOL0     H34324   3.317   5.940  10.390 -0.7820  0.0531 -0.0589
  995MOL0     H34325   3.191   5.855  10.308  0.6156 -0.8181  0.6352
  996MOL0     O34326   0.399   8.692  10.272 -0.0399  0.7247 -0.2142
  996MOL0     C34327   0.407   8.710  10.151 -0.1753 -0.7426 -0.1466
  996MOL0     O34328   0.519   8.743  10.088 -0.4326 -0.1554 -0.2916
  996MOL0     C34329   0.633   8.744  10.166  0.1719 -0.1574  0.1357
  996MOL0     C34330   0.649   8.836  10.271  0.0835 -0.4769  0.6932
  996MOL0     C34331   0.767   8.850  10.341  0.0564 -0.5888  0.7868
  996MOL0     C34332   0.884   8.780  10.302  0.6420 -0.1265  0.6201
  996MOL0     O34333   1.004   8.773  10.372  1.0010  0.1145  0.3739
  996MOL0     C34334   1.011   8.849  10.498 -0.7536  0.0052 -0.2727
  996MOL0     C34335   1.117   8.790  10.581 -0.5747 -0.2880 -0.4245
  996MOL0     C34336   1.256   8.790  10.519 -0.1560  0.2950  0.5660
  996MOL0     C34337   1.316   8.933  10.499 -1.2105  0.6123 -0.1185
  996MOL0     C34338   1.448   8.927  10.430 -0.7495  0.2037  0.1098
  996MOL0     C34339   1.550   8.840  10.491  0.2334  0.4565  0.6971
  996MOL0     C34340   1.689   8.858  10.427 -0.4216  0.9795  0.3437
  996MOL0     C34341   1.697   8.806  10.284 -1.2496  0.2090 -0.2078
  996MOL0     N34342   1.835   8.824  10.243 -0.5289  0.7024 -0.2392
  996MOL0     C34343   1.932   8.732  10.257  1.0537 -0.8791 -0.0090
  996MOL0     C34344   2.047   8.790  10.212 -0.3480  0.6160 -0.0995
  996MOL0     C34345   2.180   8.725  10.201 -1.0849 -0.8868 -0.8390
  996MOL0     C34346   2.301   8.822  10.212  0.0300 -0.7057 -0.1936
  996MOL0     C34347   2.429   8.742  10.207  0.0702 -0.3350 -0.0135
  996MOL0     C34348   2.558   8.826  10.198  0.8168  0.4853 -0.6840
  996MOL0     O34349   2.576   8.865  10.062  0.9745  0.1964 -0.0710
  996MOL0     C34350   2.696   8.922  10.027  0.0714 -0.2563 -0.5721
  996MOL0     C34351   2.711   8.974   9.900  0.3874 -0.0601 -0.0586
  996MOL0     C34352   2.833   9.021   9.855  0.7266  0.4553  0.0063
  996MOL0     C34353   2.950   9.012   9.936  0.5385 -0.9590 -0.4408
  996MOL0     C34354   3.079   9.043   9.880 -0.0720  0.1745  0.4114
  996MOL0     O34355   3.072   9.072   9.741  0.3270 -0.4438  0.0254
  996MOL0     C34356   3.194   9.076   9.680 -0.8323  0.2212  1.2316
  996MOL0     C34357   3.263   9.201   9.688  0.4248  0.0209  0.0366
  996MOL0     C34358   3.390   9.217   9.615  0.0815  0.7838 -0.2507
  996MOL0     C34359   3.442   9.104   9.543 -0.0881  0.1978  0.0823
  996MOL0     O34360   3.565   9.099   9.479 -0.5855  0.4010 -0.5171
  996MOL0     C34361   3.629   9.226   9.465 -0.2522 -0.1905 -0.2599
  996MOL0     C34362   3.762   9.221   9.396 -0.0961 -0.5044 -0.1921
  996MOL0     C34363   3.842   9.095   9.445 -0.4065 -0.4693 -0.3838
  996MOL0     C34364   3.973   9.096   9.368  0.6001  0.1028 -0.1105
  996MOL0     C34365   4.042   8.963   9.374 -0.4159  0.4428  0.7851
  996MOL0     C34366   4.180   8.971   9.302  0.8023  0.0501  0.0191
  996MOL0     C34367   4.281   9.031   9.406 -0.0783 -0.3568  0.2488
  996MOL0     C34368   4.421   9.036   9.343  0.0285 -0.0450  0.2380
  996MOL0    Cl34369   4.436   9.154   9.203 -0.4019  0.4198 -0.0030
  996MOL0     C34370   3.374   8.985   9.549 -0.4127  0.1563  0.1602
  996MOL0     C34371   3.252   8.972   9.609 -0.2153 -0.2419 -0.7284
  996MOL0     O34372   3.179   9.012   9.948  1.3870 -0.2235  0.8228
  996MOL0     C34373   2.932   8.974  10.066  0.4144  0.0986  0.0398
  996MOL0     C34374   2.807   8.919  10.110  0.0569 -0.0488 -0.2260
  996MOL0     N34375   2.016   8.914  10.158 -0.3007  0.4539  0.0427
  996MOL0     N34376   1.890   8.930  10.171 -0.6978 -0.5738 -0.6107
  996MOL0     C34377   0.875   8.698  10.191 -0.3432  0.9674  0.2637
  996MOL0     C34378   0.752   8.680  10.122 -0.0875  0.8577  0.3184
  996MOL0     C34379   0.270   8.715  10.066 -0.6045 -1.2462 -0.6846
  996MOL0     C34380   0.147   8.753  10.135  0.4349 -0.5728  0.8573
  996MOL0     C34381   0.024   8.757  10.065  0.0953 -0.3529 -0.2514
  996MOL0     C34382   0.021   8.742   9.928  0.7056 -0.6844 -0.2311
  996MOL0     O34383  -0.103   8.754   9.864 -0.4582 -0.4413 -0.1254
  996MOL0     C34384  -0.117   8.796   9.724  0.1312  0.6743  0.2257
  996MOL0     C34385  -0.244   8.884   9.705  0.0606  0.2482 -0.1448
  996MOL0     C34386  -0.262   9.002   9.800 -0.2816 -0.5317 -0.4225
  996MOL0     C34387  -0.381   9.097   9.778 -0.5465 -0.3572  0.3961
  996MOL0     C34388  -0.368   9.228   9.845 -0.3256  0.9922 -1.0693
  996MOL0     C34389  -0.361   9.338   9.895 -0.1826  1.0679 -0.4713
  996MOL0     C34390   0.146   8.711   9.863  0.4208  0.0765  0.2448
  996MOL0     C34391   0.269   8.692   9.927  0.2012 -0.1498  0.3071
  996MOL0     C34392   0.378   8.634   9.843 -0.0577  0.2341 -0.9815
  996MOL0     H34393   0.563   8.898  10.295 -1.3230 -2.2771  0.5579
  996MOL0     H34394   0.761   8.906  10.434  0.0384  0.2451  0.2997
  996MOL0     H34395   1.026   8.955  10.475  0.0380  0.0257  0.3171
  996MOL0     H34396   0.926   8.842  10.567  0.6486 -3.5470  1.3361
  996MOL0     H34397   1.096   8.683  10.595 -1.9268  0.0265  0.0793
  996MOL0     H34398   1.114   8.834  10.681  0.3717  0.0349 -0.5246
  996MOL0     H34399   1.244   8.744  10.421  1.7576  0.3216  0.2993
  996MOL0     H34400   1.322   8.727  10.579 -0.7186  0.4566  1.3755
  996MOL0     H34401   1.255   8.999  10.437 -0.3496  1.7723  0.2387
  996MOL0     H34402   1.331   8.973  10.599  0.0182 -0.6567  0.2499
  996MOL0     H34403   1.434   8.896  10.326  0.6324  1.1024 -0.3659
  996MOL0     H34404   1.485   9.030  10.427  0.0239 -0.0152  1.3290
  996MOL0     H34405   1.567   8.865  10.597 -0.8633  0.1667  0.9598
  996MOL0     H34406   1.522   8.735  10.481 -2.4402  1.1842 -0.3458
  996MOL0     H34407   1.759   8.792  10.477  0.1046 -0.4024 -2.0701
  996MOL0     H34408   1.726   8.960  10.443  0.5567  0.8164 -0.7520
  996MOL0     H34409   1.673   8.700  10.277  3.2943 -1.1409  1.3501
  996MOL0     H34410   1.636   8.870  10.218 -1.0455  0.4073 -0.2065
  996MOL0     H34411   1.918   8.633  10.300 -1.0858 -1.0370 -0.9425
  996MOL0     H34412   2.187   8.644  10.274 -3.4776 -0.5647 -0.1422
  996MOL0     H34413   2.184   8.672  10.106  1.3839 -2.0350 -0.1717
  996MOL0     H34414   2.288   8.901  10.137 -0.8351 -0.3731  0.2949
  996MOL0     H34415   2.296   8.873  10.309 -1.6961  0.0037 -0.6286
  996MOL0     H34416   2.432   8.671  10.124 -2.1847  0.0101 -0.4763
  996MOL0     H34417   2.437   8.701  10.308  1.9049  2.1207  0.9453
  996MOL0     H34418   2.640   8.759  10.227  0.6546  0.5800 -0.0024
  996MOL0     H34419   2.551   8.908  10.270  3.2045 -0.0272  0.2133
  996MOL0     H34420   2.626   8.963   9.833  1.0510 -1.9275 -0.6549
  996MOL0     H34421   2.829   9.056   9.753 -2.4511  1.7996  0.4958
  996MOL0     H34422   3.219   9.286   9.739 -1.9041 -0.6839 -0.6423
  996MOL0     H34423   3.429   9.316   9.636  0.2815  0.6360  0.0903
  996MOL0     H34424   3.565   9.299   9.415  1.0187  1.3636  0.3160
  996MOL0     H34425   3.645   9.266   9.565  0.6023 -0.0186 -0.4548
  996MOL0     H34426   3.753   9.204   9.289  0.0460  0.2285 -0.3233
  996MOL0     H34427   3.818   9.314   9.404 -1.4206  0.5193 -2.1132
  996MOL0     H34428   3.851   9.102   9.554 -0.4449  1.2654 -0.4779
  996MOL0     H34429   3.794   9.000   9.418  0.0352 -0.9968  0.6013
  996MOL0     H34430   4.043   9.165   9.417  1.3037  0.0273 -0.9763
  996MOL0     H34431   3.965   9.133   9.265  3.9361 -1.8174 -1.2313
  996MOL0     H34432   3.982   8.885   9.326  3.0577 -2.2365  0.4196
  996MOL0     H34433   4.054   8.925   9.476  0.0187 -2.0216 -0.1294
  996MOL0     H34434   4.211   8.868   9.284  0.5605 -0.3913  1.8765
  996MOL0     H34435   4.176   9.025   9.207  0.4494 -2.3369 -1.4131
  996MOL0     H34436   4.288   8.969   9.496 -2.7075 -2.2753 -0.7505
  996MOL0     H34437   4.251   9.132   9.432 -0.0364 -0.7948  2.1183
  996MOL0     H34438   4.489   9.065   9.424 -0.9438 -2.6041  2.1028
  996MOL0     H34439   4.444   8.942   9.294 -0.9705 -1.1569  1.8029
  996MOL0     H34440   3.412   8.896   9.500 -0.5615 -1.5294  2.9149
  996MOL0     H34441   3.202   8.876   9.599 -0.6571 -0.2944  1.4557
  996MOL0     H34442   3.014   8.977  10.137  0.8893 -0.1185 -0.4898
  996MOL0     H34443   2.797   8.887  10.213 -0.6899  0.1837 -0.2208
  996MOL0     H34444   0.961   8.643  10.152  0.0417  1.8625 -0.1683
  996MOL0     H34445   0.743   8.618  10.034 -2.2167 -3.7405  3.3675
  996MOL0     H34446   0.152   8.772  10.241  2.0536  2.2462  0.3649
  996MOL0     H34447  -0.066   8.781  10.121  0.4857 -0.7648  0.5622
  996MOL0     H34448  -0.126   8.700   9.674 -1.8750 -0.5502  2.7194
  996MOL0     H34449  -0.028   8.848   9.686  0.0774  1.7683  1.5195
  996MOL0     H34450  -0.326   8.823   9.744 -1.6391  1.9310 -0.9541
  996MOL0     H34451  -0.278   8.903   9.603  1.3156  1.1860 -0.4105
  996MOL0     H34452  -0.178   9.069   9.778 -1.7117  2.0830  1.4600
  996MOL0     H34453  -0.263   8.964   9.902 -0.0435 -1.1974 -0.6634
  996MOL0     H34454  -0.388   9.105   9.669  1.6175  1.5097  0.3309
  996MOL0     H34455  -0.475   9.048   9.808 -1.3524  1.1280  0.3745
  996MOL0     H34456  -0.353   9.432   9.945  2.7321 -0.6094  2.6595
  996MOL0     H34457   0.132   8.682   9.759 -1.5055 -0.4328  0.5905
  996MOL0     H34458   0.461   8.705   9.855  1.2595 -1.3067 -0.5111
  996MOL0     H34459   0.413   8.537   9.879  0.1241  1.2899  1.8994
  996MOL0     H34460   0.354   8.648   9.737 -1.3808  1.1957 -0.5815
  997MOL0     O34461  10.324   4.955   8.428  0.2073  0.2665  0.5057
  997MOL0     C34462  10.315   5.077   8.453 -0.6508 -0.0548  0.0607
  997MOL0     O34463  10.426   5.155   8.469  0.0964  0.9696 -0.4582
  997MOL0     C34464  10.557   5.106   8.456  0.6172  0.3747  0.1150
  997MOL0     C34465  10.632   5.179   8.372 -0.7553 -0.8327 -0.1426
  997MOL0     C34466  10.764   5.140   8.338 -0.1470  0.3763  0.3544
  997MOL0     C34467  10.817   5.026   8.399  0.0762  0.1528 -0.1641
  997MOL0     O34468  10.947   4.985   8.364 -0.5705  0.2009  0.0831
  997MOL0     C34469  11.040   5.008   8.476  0.2263 -0.4810 -0.4285
  997MOL0     C34470  11.180   4.987   8.411  0.2455  0.1745  0.1952
  997MOL0     C34471  11.298   5.016   8.514 -0.1389 -0.3821  1.0993
  997MOL0     C34472  11.436   5.021   8.439 -0.3573 -0.5620 -0.5802
  997MOL0     C34473  11.547   5.079   8.535 -0.3737  0.7285  0.4678
  997MOL0     C34474  11.694   5.052   8.492 -0.1972  0.8040 -0.6435
  997MOL0     C34475  11.803   5.077   8.600 -0.4749 -0.6618  0.3656
  997MOL0     C34476  11.864   4.956   8.664  0.0632  0.8261 -0.5409
  997MOL0     N34477  11.995   4.938   8.589  0.4463 -0.1348  0.4759
  997MOL0     C34478  12.120   4.963   8.633  0.0157 -0.2168 -1.0674
  997MOL0     C34479  12.207   4.957   8.538 -0.5045  0.2220 -0.3164
  997MOL0     C34480  12.351   4.975   8.528  0.7035 -0.2176 -0.1138
  997MOL0     C34481  12.430   4.867   8.597 -0.1576 -0.4233 -0.2006
  997MOL0     C34482  12.406   4.738   8.529  0.2088 -0.3896  0.2485
  997MOL0     C34483  12.495   4.632   8.591 -0.2825  0.1716  0.2990
  997MOL0     O34484  12.626   4.661   8.550  0.2485 -0.1906  0.9840
  997MOL0     C34485  12.734   4.601   8.615  0.1306 -0.0189  0.8852
  997MOL0     C34486  12.720   4.517   8.725  0.3219  0.3559  0.1597
  997MOL0     C34487  12.835   4.453   8.782 -0.0900  0.2433  0.2221
  997MOL0     C34488  12.958   4.449   8.722 -0.6710 -0.1546 -0.2527
  997MOL0     C34489  13.069   4.371   8.776  0.2983  0.0064  0.5989
  997MOL0     O34490  13.183   4.380   8.708 -0.4780  0.0296  0.1829
  997MOL0     C34491  13.287   4.297   8.745 -0.7550 -0.3613  0.2900
  997MOL0     C34492  13.274   4.163   8.754  0.4481  0.5433 -0.1480
  997MOL0     C34493  13.385   4.077   8.781  0.1008 -0.6276 -0.3470
  997MOL0     C34494  13.512   4.133   8.802  0.1972  0.0735 -0.7823
  997MOL0     O34495  13.609   4.032   8.831 -0.1100 -0.2702  0.4299
  997MOL0     C34496  13.750   4.074   8.813 -0.5343 -0.3484  0.6062
  997MOL0     C34497  13.826   3.937   8.806  0.5976  0.4118  0.9892
  997MOL0     C34498  13.873   3.888   8.951 -0.3025  0.7144  0.2951
  997MOL0     C34499  13.982   3.776   8.962 -0.4976  0.6857  1.0327
  997MOL0     C34500  14.116   3.830   8.905 -0.1404  0.5683 -0.5939
  997MOL0     C34501  14.242   3.790   8.984  0.0157 -0.0829 -0.2277
  997MOL0     C34502  14.277   3.637   8.953 -0.2271  0.9257  0.5823
  997MOL0     C34503  14.378   3.591   9.060 -0.5835 -0.6546 -0.1941
  997MOL0    Cl34504  14.297   3.581   9.210  0.2068  0.1476 -0.3461
  997MOL0     C34505  13.530   4.266   8.770  0.2999 -0.4129 -0.4709
  997MOL0     C34506  13.416   4.349   8.739  0.1808  0.2645  0.2794
  997MOL0     O34507  13.057   4.312   8.884 -0.1295 -0.1114 -0.4904
  997MOL0     C34508  12.971   4.528   8.606  0.1437  0.0365  1.0353
  997MOL0     C34509  12.863   4.610   8.556  0.6709 -0.2790 -0.2040
  997MOL0     N34510  12.133   4.914   8.426 -0.1175  0.0218 -0.3945
  997MOL0     N34511  12.005   4.893   8.465 -0.0313 -0.2137 -0.1161
  997MOL0     C34512  10.738   4.947   8.491 -0.0062  0.2851  0.7001
  997MOL0     C34513  10.613   4.994   8.520  0.1590  0.2615 -0.7509
  997MOL0     C34514  10.180   5.139   8.482 -0.7382 -0.0249 -0.1892
  997MOL0     C34515  10.181   5.240   8.579 -0.4249 -0.4153  0.5655
  997MOL0     C34516  10.066   5.304   8.629  0.1117 -0.2564 -0.0035
  997MOL0     C34517   9.946   5.256   8.581  0.0519  0.6533 -0.4226
  997MOL0     O34518   9.844   5.329   8.626  0.1245  0.2382 -1.1997
  997MOL0     C34519   9.716   5.303   8.573  0.2189  1.0364 -0.2092
  997MOL0     C34520   9.615   5.361   8.665 -0.0528  0.2714  0.7353
  997MOL0     C34521   9.621   5.511   8.691 -0.0262  0.4942  0.0138
  997MOL0     C34522   9.588   5.586   8.559 -0.1381  0.1123  0.1118
  997MOL0     C34523   9.443   5.596   8.542  0.6650  0.5505 -0.0089
  997MOL0     C34524   9.317   5.607   8.546 -0.8390  0.1885  1.1395
  997MOL0     C34525   9.949   5.156   8.489  0.3513  0.8840 -0.2721
  997MOL0     C34526  10.061   5.098   8.429  0.0231 -0.3212 -0.6736
  997MOL0     C34527  10.038   4.984   8.326 -0.7100 -0.5228  0.4438
  997MOL0     H34528  10.586   5.263   8.320 -1.6992 -0.9273  0.5107
  997MOL0     H34529  10.822   5.189   8.262 -0.6424 -2.0500 -1.7370
  997MOL0     H34530  11.024   5.112   8.506  1.2928  0.9729 -4.3013
  997MOL0     H34531  11.025   4.935   8.555  0.4957  1.0513  1.0900
  997MOL0     H34532  11.184   5.057   8.326  0.4399  2.3567  1.9134
  997MOL0     H34533  11.181   4.886   8.368 -1.6413  0.2589 -0.1190
  997MOL0     H34534  11.301   4.932   8.584 -3.2254 -1.8037 -0.2427
  997MOL0     H34535  11.286   5.110   8.568  0.5918 -1.5625  3.4622
  997MOL0     H34536  11.474   4.923   8.410  0.7545 -0.3764  0.2041
  997MOL0     H34537  11.426   5.074   8.343 -0.7188  0.7432  0.1566
  997MOL0     H34538  11.534   5.188   8.531  1.1739  0.8828 -1.3380
  997MOL0     H34539  11.545   5.048   8.640  2.5145  0.4832  0.5250
  997MOL0     H34540  11.703   4.949   8.457  2.1183 -0.4136  2.9944
  997MOL0     H34541  11.732   5.106   8.405 -0.6895 -0.1887 -1.4868
  997MOL0     H34542  11.750   5.126   8.682 -0.0988  1.1322 -0.4153
  997MOL0     H34543  11.876   5.152   8.566  0.2191 -1.1142  0.8136
  997MOL0     H34544  11.875   4.969   8.772 -1.1721 -0.4574 -0.2302
  997MOL0     H34545  11.798   4.870   8.651 -0.7900  1.5747 -1.2144
  997MOL0     H34546  12.151   4.992   8.732  2.0519 -5.0264 -0.0029
  997MOL0     H34547  12.370   4.980   8.421 -0.9332 -1.2721 -0.4931
  997MOL0     H34548  12.380   5.071   8.573  0.3121 -1.3673  2.7919
  997MOL0     H34549  12.536   4.890   8.612 -0.2308  0.1262 -0.4711
  997MOL0     H34550  12.402   4.853   8.701  1.4436 -1.6117  0.1174
  997MOL0     H34551  12.425   4.752   8.422  1.9358  1.8652  0.8008
  997MOL0     H34552  12.301   4.706   8.531 -0.9373  2.6622 -2.6620
  997MOL0     H34553  12.463   4.533   8.556 -1.7244 -0.2413  2.5405
  997MOL0     H34554  12.475   4.614   8.698 -3.9869 -4.0923 -0.7777
  997MOL0     H34555  12.630   4.507   8.784  0.1056 -0.6490 -0.3179
  997MOL0     H34556  12.818   4.409   8.880 -0.0071 -0.7822 -0.2113
  997MOL0     H34557  13.178   4.114   8.747  2.2431 -3.0331 -2.8683
  997MOL0     H34558  13.369   3.970   8.791 -2.8309 -0.1922  0.7148
  997MOL0     H34559  13.772   4.133   8.724  1.1655 -2.4491 -0.4521
  997MOL0     H34560  13.785   4.135   8.896  0.4463 -2.3591  1.7382
  997MOL0     H34561  13.773   3.855   8.757  1.4022 -0.1222  0.9785
  997MOL0     H34562  13.919   3.958   8.752  1.9017  1.4089  3.4649
  997MOL0     H34563  13.916   3.974   9.004  1.1985  1.6010 -2.1897
  997MOL0     H34564  13.780   3.857   9.000  1.1349 -0.4650  2.4744
  997MOL0     H34565  13.960   3.686   8.903 -1.5066  1.7533 -0.2880
  997MOL0     H34566  14.001   3.737   9.062  2.6247 -1.3146 -0.1793
  997MOL0     H34567  14.117   3.939   8.912 -3.3552  0.6118  1.6905
  997MOL0     H34568  14.126   3.790   8.804 -2.7462  2.5161 -1.7481
  997MOL0     H34569  14.328   3.850   8.950  0.4598 -0.4097  0.3005
  997MOL0     H34570  14.224   3.803   9.091  1.2797 -2.1545  0.2998
  997MOL0     H34571  14.312   3.636   8.849  1.3493  2.7908  1.0330
  997MOL0     H34572  14.189   3.575   8.972  0.7651 -0.7011  0.0486
  997MOL0     H34573  14.413   3.491   9.032  1.0322  0.1329 -1.1761
  997MOL0     H34574  14.464   3.659   9.063 -1.7599  1.0315 -2.1651
  997MOL0     H34575  13.631   4.305   8.765 -0.0879  1.6843  3.5430
  997MOL0     H34576  13.429   4.455   8.721 -1.3773  0.0146 -3.1530
  997MOL0     H34577  13.064   4.528   8.550  0.4339 -3.0303  1.3020
  997MOL0     H34578  12.875   4.670   8.466  1.0450 -0.0695 -0.0198
  997MOL0     H34579  10.791   4.868   8.545 -1.5765  0.0633  2.0069
  997MOL0     H34580  10.553   4.944   8.596  1.5978 -0.1158  0.1812
  997MOL0     H34581  10.274   5.265   8.628 -0.8365 -0.8558  1.6124
  997MOL0     H34582  10.071   5.391   8.693  2.4411  1.4333 -2.2671
  997MOL0     H34583   9.707   5.194   8.570  0.4492  0.8702  2.4723
  997MOL0     H34584   9.708   5.323   8.466  1.0229 -3.0290 -1.1792
  997MOL0     H34585   9.608   5.310   8.761  0.4670  2.0504  1.7559
  997MOL0     H34586   9.520   5.340   8.614  0.2961  3.9288 -1.7994
  997MOL0     H34587   9.725   5.538   8.715  0.5683 -2.0764  0.5506
  997MOL0     H34588   9.552   5.549   8.767  1.1807  1.8727  0.4718
  997MOL0     H34589   9.634   5.685   8.566 -1.4684  0.6791  1.2722
  997MOL0     H34590   9.627   5.535   8.471  0.5454  2.9006 -1.3059
  997MOL0     H34591   9.212   5.620   8.534 -0.2847  2.9895 -2.2808
  997MOL0     H34592   9.861   5.097   8.464  1.0432 -0.9261  1.3349
  997MOL0     H34593  10.070   5.017   8.227  1.5627 -0.8456  1.0285
  997MOL0     H34594  10.092   4.893   8.354 -1.5796 -1.3165 -0.3389
  997MOL0     H34595   9.934   4.951   8.310 -0.0766 -1.3243 -2.8999
  998MOL0     O34596   8.623   8.746   8.822 -0.5675  0.7573  0.2724
  998MOL0     C34597   8.613   8.626   8.830 -0.0443  0.3627  0.4799
  998MOL0     O34598   8.718   8.540   8.828 -0.6632 -0.3322  0.2404
  998MOL0     C34599   8.836   8.586   8.858 -0.0626 -0.0422  1.2323
  998MOL0     C34600   8.934   8.608   8.759 -0.6596  0.4819  0.2147
  998MOL0     C34601   9.062   8.653   8.787  0.1238  1.0627 -0.1487
  998MOL0     C34602   9.101   8.675   8.921  0.1164  0.3957 -0.7102
  998MOL0     O34603   9.229   8.686   8.959 -0.6181 -0.0999  0.2069
  998MOL0     C34604   9.267   8.804   9.019  0.6329 -0.2911 -0.0849
  998MOL0     C34605   9.350   8.897   8.928 -0.2547  0.0010  0.4046
  998MOL0     C34606   9.477   8.809   8.892  0.3420 -0.8093 -0.0191
  998MOL0     C34607   9.609   8.891   8.866 -0.3643 -0.1329  0.2662
  998MOL0     C34608   9.594   9.016   8.768 -0.5705 -0.7440  0.1680
  998MOL0     C34609   9.578   9.156   8.837  0.6653  0.7085  0.4007
  998MOL0     C34610   9.608   9.259   8.724  0.1996 -0.1764  0.2934
  998MOL0     C34611   9.623   9.401   8.772  0.2054  0.1527  0.9318
  998MOL0     N34612   9.636   9.493   8.652  0.9746  0.9999  0.5141
  998MOL0     C34613   9.758   9.540   8.606  0.1411  0.1954 -0.2230
  998MOL0     C34614   9.709   9.634   8.519 -0.2633  0.3782  0.5994
  998MOL0     C34615   9.797   9.732   8.440 -0.5359 -0.1800  0.1423
  998MOL0     C34616   9.816   9.672   8.289 -0.5681 -0.3881  0.0880
  998MOL0     C34617   9.946   9.711   8.229 -0.7317  0.4684 -0.5155
  998MOL0     C34618   9.951   9.857   8.183  0.8621 -0.1916 -0.3397
  998MOL0     O34619   9.995   9.959   8.277 -0.0901  0.2465  0.6433
  998MOL0     C34620  10.131   9.991   8.257  0.1408  0.4311 -0.1543
  998MOL0     C34621  10.230   9.902   8.199 -0.1600 -0.7839  0.4160
  998MOL0     C34622  10.363   9.958   8.189  0.4659  0.8162  0.4437
  998MOL0     C34623  10.395  10.082   8.233  0.5446  0.0577  0.0527
  998MOL0     C34624  10.531  10.128   8.208  0.7760 -0.0651  0.0518
  998MOL0     O34625  10.629  10.041   8.169 -0.6496  0.7873  0.1447
  998MOL0     C34626  10.759  10.094   8.171  0.5319  0.3189 -0.6829
  998MOL0     C34627  10.797  10.188   8.073  0.0857  0.2717  0.1939
  998MOL0     C34628  10.923  10.238   8.059 -0.4439  0.0599 -0.2518
  998MOL0     C34629  11.020  10.214   8.167 -0.1534  0.3703  0.2032
  998MOL0     O34630  11.154  10.252   8.170  1.6291  0.2641 -0.0372
  998MOL0     C34631  11.201  10.333   8.066  0.4067 -0.2510  0.1048
  998MOL0     C34632  11.347  10.331   8.051  0.1057  0.2926 -0.2489
  998MOL0     C34633  11.421  10.428   8.144 -0.1223 -0.3020  0.4159
  998MOL0     C34634  11.564  10.376   8.149  0.3192  0.0958  0.2641
  998MOL0     C34635  11.660  10.484   8.190  0.6766  0.9161 -0.2884
  998MOL0     C34636  11.797  10.436   8.221  0.6167  0.1759 -0.0195
  998MOL0     C34637  11.888  10.545   8.282 -0.1738  0.2898 -0.3633
  998MOL0     C34638  12.034  10.503   8.304  0.2876 -0.6240  0.4659
  998MOL0    Cl34639  12.124  10.508   8.141 -0.0422  0.1232 -0.1280
  998MOL0     C34640  10.984  10.119   8.269  0.1659  0.5261 -1.0293
  998MOL0     C34641  10.853  10.060   8.272 -0.0901  0.2396  0.6073
  998MOL0     O34642  10.550  10.241   8.240 -0.2666  0.0909 -0.1690
  998MOL0     C34643  10.292  10.164   8.289  0.1808 -0.5765  0.2962
  998MOL0     C34644  10.164  10.120   8.306 -0.2755 -0.5615  0.3946
  998MOL0     N34645   9.575   9.629   8.497  0.1840 -0.6425  1.5151
  998MOL0     N34646   9.533   9.552   8.588  0.3346  0.0772 -0.3055
  998MOL0     C34647   9.005   8.654   9.022  0.1421 -0.0650  0.3329
  998MOL0     C34648   8.875   8.617   8.989  0.9227  0.5389  0.0410
  998MOL0     C34649   8.474   8.570   8.849  0.0240 -0.5553 -0.0217
  998MOL0     C34650   8.362   8.659   8.836 -0.7564 -0.2123  0.2012
  998MOL0     C34651   8.232   8.621   8.865  0.4715 -0.1713  0.0655
  998MOL0     C34652   8.203   8.486   8.895  0.1861  0.2432  0.5719
  998MOL0     O34653   8.073   8.452   8.924  0.0510 -0.0484 -0.3444
  998MOL0     C34654   8.039   8.324   8.977 -0.6138  0.6564 -0.1596
  998MOL0     C34655   7.901   8.299   9.037  0.1108  1.4690  0.8676
  998MOL0     C34656   7.789   8.281   8.929 -0.7996 -0.4595  0.8169
  998MOL0     C34657   7.647   8.305   8.995 -0.5998  0.7749  0.0203
  998MOL0     C34658   7.600   8.174   9.046  0.4374  0.3846 -0.2837
  998MOL0     C34659   7.567   8.057   9.069  0.7881 -0.5435 -0.1461
  998MOL0     C34660   8.307   8.393   8.909 -0.5955  0.4327 -0.6076
  998MOL0     C34661   8.443   8.435   8.886  0.3759  0.2073 -1.1144
  998MOL0     C34662   8.554   8.340   8.941 -0.3335  0.2226 -0.2720
  998MOL0     H34663   8.904   8.588   8.657  0.5768 -0.3290 -0.0100
  998MOL0     H34664   9.127   8.666   8.702 -1.3668 -1.4240 -1.8043
  998MOL0     H34665   9.184   8.868   9.052  2.6953  0.6119  3.9833
  998MOL0     H34666   9.324   8.774   9.108  1.6240  0.2788 -0.5130
  998MOL0     H34667   9.379   8.994   8.971 -3.9141  1.2772  0.3986
  998MOL0     H34668   9.292   8.928   8.841  1.3972 -2.7867 -1.8408
  998MOL0     H34669   9.458   8.759   8.796 -0.2635 -3.8080  1.5355
  998MOL0     H34670   9.503   8.735   8.968  1.7589  0.4561  0.7670
  998MOL0     H34671   9.647   8.915   8.965 -1.3224 -0.3229  0.6905
  998MOL0     H34672   9.675   8.813   8.829 -1.4888 -0.8062 -0.3691
  998MOL0     H34673   9.693   9.024   8.722  0.9387  0.4861  3.3544
  998MOL0     H34674   9.512   8.993   8.699  0.1735 -2.1918 -0.2912
  998MOL0     H34675   9.473   9.174   8.864  0.6879  0.7569  0.4567
  998MOL0     H34676   9.638   9.174   8.927  1.6318  3.3584 -0.6866
  998MOL0     H34677   9.538   9.252   8.640  3.5561  1.0058 -2.8705
  998MOL0     H34678   9.705   9.233   8.680  0.8830  1.2375  0.8886
  998MOL0     H34679   9.535   9.427   8.832  0.3783 -0.6048  1.5245
  998MOL0     H34680   9.712   9.399   8.836 -0.9781  2.5158  2.8564
  998MOL0     H34681   9.861   9.510   8.623 -0.6204 -1.8561  1.2002
  998MOL0     H34682   9.753   9.832   8.440 -3.1743 -1.2424  1.2491
  998MOL0     H34683   9.897   9.750   8.481  0.6365 -0.5271 -2.3414
  998MOL0     H34684   9.833   9.564   8.296  0.1568 -0.6474 -3.5133
  998MOL0     H34685   9.732   9.703   8.227 -0.3479  5.4213  2.1207
  998MOL0     H34686   9.970   9.641   8.148  1.3358  1.9377 -1.2575
  998MOL0     H34687  10.023   9.683   8.301 -1.9927 -0.4819  0.5217
  998MOL0     H34688   9.849   9.885   8.154  1.2160 -0.0355 -1.5163
  998MOL0     H34689  10.011   9.865   8.091  2.8413 -2.6686  0.6347
  998MOL0     H34690  10.215   9.796   8.181  1.4991 -1.4993  2.7943
  998MOL0     H34691  10.441   9.899   8.141 -0.9122  1.3443 -2.7356
  998MOL0     H34692  10.729  10.208   7.991  2.8524  2.9327 -1.6481
  998MOL0     H34693  10.937  10.292   7.966 -1.3089 -2.2274 -1.7866
  998MOL0     H34694  11.159  10.294   7.973 -3.6415  0.7710  1.2933
  998MOL0     H34695  11.169  10.437   8.077 -3.1737 -1.4303  2.4586
  998MOL0     H34696  11.380  10.228   8.070  0.6949 -0.0765 -2.9335
  998MOL0     H34697  11.378  10.351   7.948  0.2562 -0.2545 -0.3136
  998MOL0     H34698  11.405  10.525   8.095 -0.8399  0.5231  2.2072
  998MOL0     H34699  11.382  10.428   8.246 -0.2328 -1.0004  0.3757
  998MOL0     H34700  11.600  10.352   8.049 -0.9772  1.3501 -0.5376
  998MOL0     H34701  11.570  10.277   8.195 -2.8326  0.2178  1.1937
  998MOL0     H34702  11.620  10.526   8.282  1.9352  1.7366 -0.0993
  998MOL0     H34703  11.661  10.568   8.119 -0.7658  1.8556  0.7451
  998MOL0     H34704  11.794  10.357   8.297  3.3144 -0.3629 -0.3893
  998MOL0     H34705  11.834  10.397   8.126 -2.1462  2.0532 -2.0317
  998MOL0     H34706  11.850  10.571   8.381  1.3704  1.8579 -0.1426
  998MOL0     H34707  11.881  10.628   8.211 -1.6780  1.2446  0.8332
  998MOL0     H34708  12.088  10.559   8.381 -0.1934  1.6017 -0.7273
  998MOL0     H34709  12.036  10.399   8.339 -1.4296 -0.4155  1.2705
  998MOL0     H34710  11.051  10.089   8.349 -0.7097  1.5632  0.1416
  998MOL0     H34711  10.829   9.981   8.343  0.2805 -1.0620 -0.6647
  998MOL0     H34712  10.326  10.258   8.330  1.7304 -1.4878  1.1898
  998MOL0     H34713  10.093  10.195   8.340  0.6877  0.6555 -0.2303
  998MOL0     H34714   9.039   8.660   9.125 -1.1612 -2.4858  0.9874
  998MOL0     H34715   8.800   8.603   9.065 -2.4312  4.0856 -2.2053
  998MOL0     H34716   8.366   8.758   8.791 -0.2611  0.1432  1.0008
  998MOL0     H34717   8.154   8.696   8.861  0.5817 -0.0568  0.0028
  998MOL0     H34718   8.110   8.292   9.054  1.2482 -1.9398 -2.6972
  998MOL0     H34719   8.048   8.241   8.906 -1.5214  0.3185  0.1007
  998MOL0     H34720   7.873   8.373   9.112  1.3784  1.3379  1.4899
  998MOL0     H34721   7.905   8.203   9.090 -2.1766  1.0062  0.3376
  998MOL0     H34722   7.783   8.179   8.892 -0.5316 -1.1360  2.5317
  998MOL0     H34723   7.804   8.344   8.841  0.2250 -2.3555 -0.4248
  998MOL0     H34724   7.644   8.362   9.088  1.9572 -0.3284  0.8587
  998MOL0     H34725   7.580   8.339   8.915  0.7366 -0.2747 -1.6084
  998MOL0     H34726   7.534   7.956   9.087  1.1809 -0.7526 -0.5819
  998MOL0     H34727   8.276   8.296   8.946 -1.3668  0.7879 -0.2849
  998MOL0     H34728   8.602   8.384   9.029 -0.1611  0.5048 -0.5028
  998MOL0     H34729   8.499   8.248   8.964  2.6079 -1.4036  0.6810
  998MOL0     H34730   8.623   8.317   8.860 -0.2176  0.9968 -0.4057
  999MOL0     O34731   8.997   1.036   6.129  0.5214  0.3279  0.2900
  999MOL0     C34732   8.885   0.985   6.122  0.4301  0.9145 -0.5563
  999MOL0     O34733   8.775   1.046   6.074  0.5665 -0.7588 -0.6411
  999MOL0     C34734   8.803   1.132   5.966 -0.1232 -0.7696  0.8632
  999MOL0     C34735   8.719   1.110   5.854 -0.0866 -0.5465  0.3371
  999MOL0     C34736   8.714   1.187   5.736 -0.0429  0.0810  0.3581
  999MOL0     C34737   8.800   1.294   5.728 -0.2191  1.2177  0.5652
  999MOL0     O34738   8.784   1.363   5.610 -0.5698  0.5073  0.0349
  999MOL0     C34739   8.843   1.500   5.599  0.5923 -0.0677 -0.0502
  999MOL0     C34740   8.987   1.498   5.556 -0.7209 -0.2971 -0.0884
  999MOL0     C34741   9.049   1.639   5.551  0.3816 -0.3003 -0.0556
  999MOL0     C34742   9.082   1.701   5.683  0.3891 -0.3173  0.2190
  999MOL0     C34743   9.135   1.845   5.662  1.3606 -0.0319 -1.0322
  999MOL0     C34744   9.165   1.906   5.800 -0.1194 -0.8897 -0.3766
  999MOL0     C34745   9.298   1.857   5.858  0.3667 -0.7281  0.0564
  999MOL0     C34746   9.357   1.978   5.922 -0.4902 -0.0429  0.4621
  999MOL0     N34747   9.275   2.025   6.036 -0.1736  0.1386  0.8560
  999MOL0     C34748   9.205   1.944   6.125 -0.4606  0.0809 -0.1419
  999MOL0     C34749   9.159   2.035   6.219 -0.1129  0.2664 -0.3393
  999MOL0     C34750   9.116   2.002   6.361  0.2210  0.1693 -1.1715
  999MOL0     C34751   9.231   1.943   6.446  0.3924  0.1499  0.1047
  999MOL0     C34752   9.186   1.914   6.585  0.3077  0.2822  0.5026
  999MOL0     C34753   9.304   1.853   6.671  0.7320  0.0048 -0.2233
  999MOL0     O34754   9.341   1.714   6.644  0.2710 -0.9508 -0.1454
  999MOL0     C34755   9.466   1.674   6.691  0.2027 -0.1483 -0.0222
  999MOL0     C34756   9.575   1.631   6.606 -0.1235 -0.0625 -1.1357
  999MOL0     C34757   9.698   1.601   6.667 -0.3382  0.2241 -0.3763
  999MOL0     C34758   9.711   1.592   6.800 -0.1476  0.0436 -1.4189
  999MOL0     C34759   9.839   1.550   6.859 -0.3165  0.3065  0.0767
  999MOL0     O34760   9.949   1.565   6.781  0.1252 -0.9593  0.0190
  999MOL0     C34761  10.067   1.522   6.821 -0.8312 -0.3079  1.4241
  999MOL0     C34762  10.114   1.417   6.901  0.8222  0.6196  0.5331
  999MOL0     C34763  10.249   1.382   6.902 -0.5308  0.6138 -0.3709
  999MOL0     C34764  10.346   1.462   6.834  0.3594 -0.4908  0.7354
  999MOL0     O34765  10.479   1.432   6.854 -0.2368 -0.6524  0.0475
  999MOL0     C34766  10.572   1.492   6.757 -0.0628 -0.1534 -0.2586
  999MOL0     C34767  10.706   1.446   6.777 -0.5555  0.1427 -0.6417
  999MOL0     C34768  10.770   1.506   6.900 -0.0638 -0.0609 -0.5254
  999MOL0     C34769  10.896   1.434   6.931 -1.0568  0.1236 -0.5626
  999MOL0     C34770  10.970   1.505   7.052 -0.7647  0.2106 -0.2437
  999MOL0     C34771  11.080   1.431   7.116 -1.1205  0.2110  0.4652
  999MOL0     C34772  11.188   1.389   7.012 -0.1411  0.1441 -1.0243
  999MOL0     C34773  11.294   1.303   7.079  0.2827 -0.4837  0.0850
  999MOL0    Cl34774  11.405   1.236   6.952  0.5081  0.0249  0.0122
  999MOL0     C34775  10.303   1.571   6.753  1.0409  0.3492 -0.7088
  999MOL0     C34776  10.163   1.600   6.757  0.3683  1.0329  0.2753
  999MOL0     O34777   9.846   1.513   6.976  0.4419 -0.8241  0.4476
  999MOL0     C34778   9.602   1.614   6.882 -0.1877  0.1303 -0.5388
  999MOL0     C34779   9.479   1.660   6.832 -0.3750 -0.2748  0.2162
  999MOL0     N34780   9.194   2.163   6.184 -0.3224  0.2653 -0.5060
  999MOL0     N34781   9.264   2.154   6.087 -0.6931 -0.1335 -0.0824
  999MOL0     C34782   8.877   1.328   5.837  0.5559  0.3606  0.4057
  999MOL0     C34783   8.881   1.243   5.952  0.0601 -0.1103  0.5765
  999MOL0     C34784   8.858   0.854   6.186  0.2836  0.2283 -0.2405
  999MOL0     C34785   8.727   0.833   6.239 -0.4557 -0.9194  0.0277
  999MOL0     C34786   8.686   0.722   6.306 -0.3821 -0.0205 -0.9511
  999MOL0     C34787   8.778   0.620   6.331  0.3311  0.5511  0.0850
  999MOL0     O34788   8.743   0.499   6.376 -0.6081  0.4849  0.3233
  999MOL0     C34789   8.644   0.498   6.483 -0.3185 -0.2132  0.8758
  999MOL0     C34790   8.703   0.400   6.591  0.5089  0.1404 -0.4235
  999MOL0     C34791   8.809   0.457   6.671  0.3438  0.0534 -0.1523
  999MOL0     C34792   8.774   0.477   6.817  0.7355  0.5075 -0.3097
  999MOL0     C34793   8.772   0.352   6.898 -0.4167 -0.6813  1.3076
  999MOL0     C34794   8.767   0.273   6.979  0.2700  0.7820 -0.2780
  999MOL0     C34795   8.909   0.641   6.288  0.0813 -0.8126  0.2109
  999MOL0     C34796   8.954   0.755   6.216  0.1660 -0.2538  0.8053
  999MOL0     C34797   9.093   0.747   6.155  0.1319 -0.4511  0.1911
  999MOL0     H34798   8.668   1.015   5.865  0.8288 -0.9426  1.2722
  999MOL0     H34799   8.656   1.160   5.648  0.1566 -0.5604  0.4142
  999MOL0     H34800   8.789   1.552   5.519  1.2290  1.5047  0.5138
  999MOL0     H34801   8.824   1.560   5.689  0.0779  1.4065 -1.0997
  999MOL0     H34802   8.998   1.447   5.459  1.3602 -1.0924  0.5238
  999MOL0     H34803   9.042   1.434   5.625  2.0739  1.1211 -0.8597
  999MOL0     H34804   8.980   1.702   5.493 -1.7439  0.2925  2.8870
  999MOL0     H34805   9.145   1.645   5.500 -0.3445  3.2389 -1.3049
  999MOL0     H34806   8.988   1.704   5.739  0.6745  0.3519  0.6679
  999MOL0     H34807   9.149   1.644   5.748 -0.8885  0.8029  2.6332
  999MOL0     H34808   9.226   1.852   5.602  2.1010  0.5914  0.1373
  999MOL0     H34809   9.060   1.908   5.614  1.4556  1.8595  1.1031
  999MOL0     H34810   9.174   2.011   5.768 -0.5336  0.1994  2.7514
  999MOL0     H34811   9.086   1.888   5.872 -1.1262  0.0025 -1.2276
  999MOL0     H34812   9.364   1.809   5.785  1.3102  0.9383 -0.2409
  999MOL0     H34813   9.282   1.779   5.933  1.7377 -0.4897  0.6435
  999MOL0     H34814   9.458   1.960   5.961 -0.9991 -1.1997  1.3071
  999MOL0     H34815   9.360   2.059   5.849 -3.2091 -2.7044 -2.9523
  999MOL0     H34816   9.201   1.836   6.127  0.5199  0.0464  0.6027
  999MOL0     H34817   9.089   2.095   6.412 -0.4303 -2.2123  3.4259
  999MOL0     H34818   9.035   1.927   6.358  1.5287 -1.3106 -0.8368
  999MOL0     H34819   9.259   1.849   6.398 -0.3544  0.3147 -0.6708
  999MOL0     H34820   9.324   2.000   6.455  0.8033 -0.5057  0.0876
  999MOL0     H34821   9.103   1.843   6.590  1.4467 -1.0932  0.3118
  999MOL0     H34822   9.151   2.006   6.634 -0.2109  0.4660 -0.1906
  999MOL0     H34823   9.282   1.863   6.778 -0.3740  2.3162 -0.6028
  999MOL0     H34824   9.396   1.911   6.658  0.0174  1.0624 -0.6760
  999MOL0     H34825   9.553   1.634   6.500 -1.8533  0.1544 -0.8077
  999MOL0     H34826   9.779   1.577   6.599 -0.6968  1.3765 -1.2554
  999MOL0     H34827  10.044   1.360   6.960  1.0860 -0.4653 -0.1709
  999MOL0     H34828  10.290   1.297   6.954 -0.2974  0.8653 -0.1383
  999MOL0     H34829  10.534   1.459   6.660  0.8579 -0.3619 -0.5629
  999MOL0     H34830  10.566   1.601   6.759 -1.3075 -0.2117  0.4216
  999MOL0     H34831  10.707   1.337   6.793  0.7327  0.2783  0.4841
  999MOL0     H34832  10.762   1.472   6.686  0.6273  2.3034  0.6074
  999MOL0     H34833  10.793   1.613   6.899 -1.2824  0.4311  3.5478
  999MOL0     H34834  10.704   1.491   6.986 -0.4021 -0.2116 -0.8089
  999MOL0     H34835  10.963   1.419   6.845  1.0003 -1.0370  1.1379
  999MOL0     H34836  10.869   1.330   6.953  0.2097  0.1866  1.5697
  999MOL0     H34837  10.897   1.525   7.132  1.2056  1.1453  1.4127
  999MOL0     H34838  10.998   1.599   7.005  1.3682 -1.8551 -3.5347
  999MOL0     H34839  11.120   1.497   7.193 -1.0166 -0.3495  0.9047
  999MOL0     H34840  11.041   1.333   7.145 -0.9830 -0.6908 -2.1816
  999MOL0     H34841  11.240   1.475   6.969  2.3048 -0.2999  0.8306
  999MOL0     H34842  11.136   1.329   6.937 -2.5512  0.3121  0.4114
  999MOL0     H34843  11.368   1.364   7.131  1.9971  0.3346 -3.0668
  999MOL0     H34844  11.248   1.228   7.145 -1.7373  1.4940  1.0498
  999MOL0     H34845  10.381   1.638   6.718  1.9211 -0.7142 -0.8315
  999MOL0     H34846  10.134   1.685   6.695  0.8579 -0.1739 -1.7003
  999MOL0     H34847   9.632   1.602   6.986 -1.7744  0.6582  0.0081
  999MOL0     H34848   9.404   1.703   6.897 -2.3863  1.1525 -2.8126
  999MOL0     H34849   8.939   1.416   5.826  2.9476 -1.2407  0.1502
  999MOL0     H34850   8.949   1.278   6.028  1.8275  0.8519 -1.3410
  999MOL0     H34851   8.655   0.912   6.222  3.5694  2.3616 -3.8641
  999MOL0     H34852   8.583   0.716   6.339  0.1740  1.2754  1.1370
  999MOL0     H34853   8.542   0.468   6.455  0.2528 -2.7980  1.2854
  999MOL0     H34854   8.634   0.595   6.532 -1.5556  0.1342  0.0010
  999MOL0     H34855   8.737   0.313   6.536  1.3027  0.7895 -0.9693
  999MOL0     H34856   8.627   0.371   6.665  2.2571 -0.0785  1.3488
  999MOL0     H34857   8.842   0.554   6.632 -3.1850  2.3072  1.8582
  999MOL0     H34858   8.896   0.392   6.668  1.0285  0.8567  1.1003
  999MOL0     H34859   8.853   0.541   6.858  0.6030  1.5474 -1.6127
  999MOL0     H34860   8.677   0.527   6.825 -0.1669 -1.1740 -0.3655
  999MOL0     H34861   8.780   0.202   7.058  0.6518  0.5102 -0.5862
  999MOL0     H34862   8.985   0.566   6.305 -0.6738 -1.2268  2.0949
  999MOL0     H34863   9.069   0.780   6.054 -1.3144  0.0417  0.6781
  999MOL0     H34864   9.157   0.818   6.209 -2.5578  0.4059  2.5043
  999MOL0     H34865   9.139   0.647   6.155  1.1156 -0.0128 -0.3455
 1000MOL0     O34866   0.573   8.641   8.068  0.0778 -0.6011 -0.1574
 1000MOL0     C34867   0.556   8.761   8.060  0.0608 -0.5969 -0.3250
 1000MOL0     O34868   0.652   8.852   8.008 -0.7263 -0.0549  0.0231
 1000MOL0     C34869   0.781   8.805   7.985  0.4865 -0.4319 -0.0245
 1000MOL0     C34870   0.809   8.709   7.890 -0.1508 -0.5728 -0.4007
 1000MOL0     C34871   0.934   8.668   7.849 -0.2901 -0.7179  0.7714
 1000MOL0     C34872   1.040   8.713   7.933  1.0236  0.5021  0.0351
 1000MOL0     O34873   1.169   8.662   7.931  0.2812 -0.3922 -0.1334
 1000MOL0     C34874   1.190   8.556   7.834 -0.3183  0.5033 -0.5271
 1000MOL0     C34875   1.333   8.515   7.823 -0.2368 -1.0828 -0.0441
 1000MOL0     C34876   1.413   8.633   7.766 -0.1903  0.0509 -0.5251
 1000MOL0     C34877   1.562   8.594   7.769 -0.5801  0.5518  0.4337
 1000MOL0     C34878   1.655   8.719   7.737 -0.9180  1.9401 -1.0353
 1000MOL0     C34879   1.799   8.666   7.745  0.6385  0.2922 -0.5296
 1000MOL0     C34880   1.897   8.788   7.731  0.5989  0.5372  0.3147
 1000MOL0     C34881   2.039   8.735   7.734 -0.5891  1.6595  0.3560
 1000MOL0     N34882   2.127   8.831   7.669 -0.1973  0.2669 -0.2082
 1000MOL0     C34883   2.212   8.912   7.742  0.2205 -0.2202  0.6651
 1000MOL0     C34884   2.311   8.940   7.650 -0.1363  0.2843 -0.0281
 1000MOL0     C34885   2.419   9.035   7.691 -0.9320  0.4336 -0.1515
 1000MOL0     C34886   2.503   8.985   7.817 -0.2065 -0.2965  0.2525
 1000MOL0     C34887   2.632   9.075   7.820 -0.3757  0.7066  0.1270
 1000MOL0     C34888   2.731   9.055   7.710 -0.7234  0.6271  0.0096
 1000MOL0     O34889   2.857   9.105   7.735 -0.0406 -0.0743 -0.0817
 1000MOL0     C34890   2.931   9.096   7.618 -0.7317  0.6664  0.0961
 1000MOL0     C34891   3.029   9.197   7.606 -0.4728  0.5941 -0.5566
 1000MOL0     C34892   3.107   9.209   7.486 -0.2513  0.4967 -0.1991
 1000MOL0     C34893   3.088   9.123   7.382 -0.0273  0.4552  0.6867
 1000MOL0     C34894   3.172   9.150   7.258 -0.3933 -0.5312 -0.1971
 1000MOL0     O34895   3.295   9.206   7.272  0.1613  0.3725 -0.3937
 1000MOL0     C34896   3.390   9.222   7.171 -0.6819 -0.0763  0.7638
 1000MOL0     C34897   3.502   9.306   7.193 -0.6636 -0.6716 -0.2789
 1000MOL0     C34898   3.600   9.325   7.098 -0.8819 -0.7853 -0.1539
 1000MOL0     C34899   3.601   9.257   6.974  0.4421  0.2839  0.1044
 1000MOL0     O34900   3.697   9.264   6.878 -0.6657 -0.7546 -0.1943
 1000MOL0     C34901   3.831   9.296   6.914 -0.7542 -0.6302  0.1971
 1000MOL0     C34902   3.886   9.390   6.797  0.8825 -0.3238 -0.3080
 1000MOL0     C34903   3.805   9.522   6.764  0.2473 -0.1443 -0.0154
 1000MOL0     C34904   3.808   9.562   6.616 -1.4315  0.1785 -0.1390
 1000MOL0     C34905   3.757   9.696   6.588 -0.2361 -0.2453 -0.0660
 1000MOL0     C34906   3.768   9.730   6.436 -0.0594  0.0556  0.4773
 1000MOL0     C34907   3.763   9.871   6.400  0.3040 -0.5003  0.8995
 1000MOL0     C34908   3.793   9.897   6.256 -0.1113  0.0366 -0.0239
 1000MOL0    Cl34909   3.808  10.077   6.228 -0.0438  0.6086  0.5788
 1000MOL0     C34910   3.502   9.163   6.962  0.1790 -0.3465 -0.1911
 1000MOL0     C34911   3.390   9.156   7.054  0.0150  0.9580  0.3415
 1000MOL0     O34912   3.128   9.119   7.153 -0.3075 -0.2662  0.0645
 1000MOL0     C34913   2.987   9.026   7.384  0.0382  0.0801  0.2760
 1000MOL0     C34914   2.922   9.009   7.507  0.1220 -0.4361  0.0573
 1000MOL0     N34915   2.274   8.883   7.530  0.2966 -0.0541  1.2891
 1000MOL0     N34916   2.175   8.811   7.546 -0.2106  1.0168  0.3911
 1000MOL0     C34917   1.017   8.808   8.035  0.0150  0.9573  0.7258
 1000MOL0     C34918   0.886   8.855   8.052  0.6466 -0.2592  0.2026
 1000MOL0     C34919   0.419   8.817   8.083  0.3598  0.1169 -0.5700
 1000MOL0     C34920   0.377   8.913   7.997  0.8542  0.0913  0.3419
 1000MOL0     C34921   0.252   8.970   8.007 -0.3011 -0.9182  1.0850
 1000MOL0     C34922   0.172   8.935   8.110 -0.1454  0.5830  0.0740
 1000MOL0     O34923   0.050   9.002   8.118 -0.7639  0.3510 -0.1954
 1000MOL0     C34924   0.050   9.124   8.188  1.1977 -0.7244 -0.1182
 1000MOL0     C34925  -0.097   9.181   8.176  0.0575 -0.2677 -0.1294
 1000MOL0     C34926  -0.203   9.091   8.234  0.3677 -0.4099 -0.1275
 1000MOL0     C34927  -0.346   9.163   8.212 -0.8205  0.7812  0.5745
 1000MOL0     C34928  -0.357   9.290   8.284  0.0744  0.1921  0.7871
 1000MOL0     C34929  -0.371   9.405   8.314  0.1106  0.0146 -0.8908
 1000MOL0     C34930   0.212   8.851   8.211 -0.6006  0.5955  0.4017
 1000MOL0     C34931   0.337   8.789   8.198  0.5502  0.4952 -1.0282
 1000MOL0     C34932   0.403   8.723   8.313 -0.2178 -0.0794  0.1238
 1000MOL0     H34933   0.723   8.664   7.841  1.0458 -0.7208 -2.4920
 1000MOL0     H34934   0.928   8.596   7.768 -0.3714 -0.8732  0.9138
 1000MOL0     H34935   1.133   8.471   7.872 -1.3822  1.4282 -0.0007
 1000MOL0     H34936   1.144   8.586   7.739  0.0197  4.1712  0.3312
 1000MOL0     H34937   1.344   8.427   7.759  0.7566  0.6041 -2.3386
 1000MOL0     H34938   1.369   8.486   7.922 -0.1275 -0.6044  0.0578
 1000MOL0     H34939   1.404   8.720   7.831 -1.1475  0.0998 -0.7133
 1000MOL0     H34940   1.371   8.663   7.670 -0.7284  0.4796 -0.1613
 1000MOL0     H34941   1.585   8.548   7.865  0.0011 -0.9327 -0.3734
 1000MOL0     H34942   1.583   8.516   7.695  1.0993  0.9826  0.4242
 1000MOL0     H34943   1.651   8.761   7.636  0.6891  1.9920 -1.0942
 1000MOL0     H34944   1.645   8.796   7.814  1.0600  1.6452 -0.4349
 1000MOL0     H34945   1.817   8.638   7.849  2.9878 -1.2682 -1.2755
 1000MOL0     H34946   1.808   8.585   7.673  1.9177  2.4406 -2.9444
 1000MOL0     H34947   1.889   8.859   7.814  0.9453 -1.2793  1.9719
 1000MOL0     H34948   1.867   8.818   7.630 -0.9820 -1.2662  0.1939
 1000MOL0     H34949   2.075   8.713   7.835  0.1020 -4.2989 -0.8269
 1000MOL0     H34950   2.044   8.643   7.674  0.9955  2.5926 -1.0434
 1000MOL0     H34951   2.196   8.939   7.846 -2.5477  0.9875  0.0332
 1000MOL0     H34952   2.482   9.054   7.604  0.5759 -1.2998  0.5053
 1000MOL0     H34953   2.365   9.128   7.712  0.2019  1.1501 -0.2900
 1000MOL0     H34954   2.439   8.998   7.904 -0.3567  0.6637  0.0040
 1000MOL0     H34955   2.523   8.877   7.811 -2.0345 -0.6536  0.1644
 1000MOL0     H34956   2.685   9.043   7.910 -4.1873 -1.6807  1.7802
 1000MOL0     H34957   2.594   9.178   7.827 -0.2911  0.7110  0.5439
 1000MOL0     H34958   2.695   9.092   7.613  2.9699 -1.8344 -2.5653
 1000MOL0     H34959   2.747   8.950   7.685 -1.8968  0.8089 -1.7146
 1000MOL0     H34960   3.039   9.264   7.691  1.8905 -2.4668  1.7757
 1000MOL0     H34961   3.172   9.296   7.485 -0.9437  1.1398  2.4777
 1000MOL0     H34962   3.508   9.347   7.293 -0.3393 -1.5031  0.0542
 1000MOL0     H34963   3.670   9.403   7.126 -0.4348 -1.6133  1.1249
 1000MOL0     H34964   3.844   9.350   7.009  2.7135 -0.5296 -0.2042
 1000MOL0     H34965   3.898   9.210   6.918 -1.4376 -1.3544 -2.0953
 1000MOL0     H34966   3.993   9.409   6.813  0.9406  1.4882 -2.4362
 1000MOL0     H34967   3.886   9.324   6.709  0.6166 -3.0868  1.6431
 1000MOL0     H34968   3.699   9.509   6.789  0.2265 -1.0818 -0.5331
 1000MOL0     H34969   3.849   9.606   6.818  0.7113  0.0231 -0.6410
 1000MOL0     H34970   3.755   9.501   6.543  1.6654 -1.3437 -1.2796
 1000MOL0     H34971   3.912   9.550   6.583 -0.6430  1.0791  1.8805
 1000MOL0     H34972   3.810   9.768   6.651  4.7315 -3.2219 -0.2754
 1000MOL0     H34973   3.655   9.700   6.626  0.3757 -0.6734  1.6952
 1000MOL0     H34974   3.864   9.683   6.410 -0.0231 -1.4178  3.0011
 1000MOL0     H34975   3.703   9.673   6.369  2.5833 -2.6345 -0.0257
 1000MOL0     H34976   3.822   9.928   6.472  0.6579 -1.5512  1.4497
 1000MOL0     H34977   3.659   9.902   6.413  0.2252 -0.7414  0.8523
 1000MOL0     H34978   3.881   9.838   6.230 -1.3666 -0.6264 -3.3228
 1000MOL0     H34979   3.717   9.863   6.185  0.4042  1.5587 -1.3932
 1000MOL0     H34980   3.494   9.100   6.874  0.5908  0.7549 -1.0431
 1000MOL0     H34981   3.322   9.074   7.032  1.0089  0.7364 -2.2243
 1000MOL0     H34982   2.973   8.959   7.299  0.7975  0.2151  0.0317
 1000MOL0     H34983   2.853   8.926   7.512 -1.5863  0.7622 -2.1389
 1000MOL0     H34984   1.094   8.853   8.098  0.8302  1.0230 -0.2902
 1000MOL0     H34985   0.885   8.942   8.116 -2.6126  0.6408 -0.8726
 1000MOL0     H34986   0.433   8.943   7.909 -0.9569  2.2626 -0.1711
 1000MOL0     H34987   0.225   9.046   7.935  1.6481 -0.3294  0.9056
 1000MOL0     H34988   0.120   9.193   8.139  3.7360 -2.4284  0.9159
 1000MOL0     H34989   0.078   9.110   8.292  0.6163  1.9951  0.4927
 1000MOL0     H34990  -0.112   9.187   8.068  4.3980 -0.4511 -0.9371
 1000MOL0     H34991  -0.100   9.283   8.217 -0.8636 -0.0799 -0.6363
 1000MOL0     H34992  -0.190   9.066   8.339 -0.9852  0.6473  0.3118
 1000MOL0     H34993  -0.218   9.001   8.173 -0.2321 -0.9151  0.7563
 1000MOL0     H34994  -0.378   9.185   8.110 -2.7859  3.9398  1.7187
 1000MOL0     H34995  -0.428   9.098   8.245 -0.4644  1.7561  3.7037
 1000MOL0     H34996  -0.382   9.510   8.334  0.9174 -0.2650  1.2563
 1000MOL0     H34997   0.152   8.844   8.302  0.2134 -0.2984  0.8921
 1000MOL0     H34998   0.374   8.763   8.411 -1.7227  2.7956 -1.3689
 1000MOL0     H34999   0.389   8.614   8.319  0.5461 -0.3163 -1.7324
 1000MOL0     H35000   0.511   8.729   8.304 -0.0627 -3.0454 -1.3990
 1001MOL0     O35001   8.045   7.200   3.477  0.6883  0.8863  0.0088
 1001MOL0     C35002   8.018   7.156   3.589 -0.2063  0.2901  1.5934
 1001MOL0     O35003   8.104   7.162   3.686  0.0869  0.1112  0.0473
 1001MOL0     C35004   8.219   7.231   3.672 -0.7079 -0.1198  0.0885
 1001MOL0     C35005   8.337   7.162   3.647 -0.0588 -0.2961 -0.3280
 1001MOL0     C35006   8.455   7.233   3.630 -0.6086 -0.4466  0.5930
 1001MOL0     C35007   8.463   7.377   3.625  0.9584  0.3311  0.0527
 1001MOL0     O35008   8.576   7.437   3.596 -0.2511 -0.2690 -0.4181
 1001MOL0     C35009   8.589   7.581   3.604 -0.2824  0.0667 -0.4374
 1001MOL0     C35010   8.697   7.607   3.506 -0.4551  0.0297  0.2217
 1001MOL0     C35011   8.839   7.610   3.570 -0.1366  0.4432  0.2352
 1001MOL0     C35012   8.950   7.608   3.465  0.5091  0.6810 -0.4167
 1001MOL0     C35013   9.085   7.612   3.528  0.1400 -0.1336 -0.5460
 1001MOL0     C35014   9.191   7.605   3.420  0.1760 -0.5553  0.4176
 1001MOL0     C35015   9.338   7.621   3.473  0.0228 -0.3080 -0.5339
 1001MOL0     C35016   9.440   7.619   3.363 -0.4524 -0.5296 -0.7696
 1001MOL0     N35017   9.572   7.689   3.397 -0.3615 -0.1067  0.2975
 1001MOL0     C35018   9.583   7.816   3.450  0.1667  0.4843 -0.2190
 1001MOL0     C35019   9.702   7.834   3.518  0.3830 -0.6467  0.4995
 1001MOL0     C35020   9.752   7.952   3.595  0.1832  0.2738  0.6296
 1001MOL0     C35021   9.764   8.077   3.504 -0.2165  1.0170 -0.1350
 1001MOL0     C35022   9.845   8.066   3.374 -0.0525 -0.5603  1.2115
 1001MOL0     C35023   9.808   8.171   3.266 -0.2608 -0.2252 -0.2067
 1001MOL0     O35024   9.803   8.308   3.316 -0.0922  0.1735 -0.2057
 1001MOL0     C35025   9.925   8.373   3.346 -0.3026  0.4805 -0.0263
 1001MOL0     C35026   9.932   8.472   3.445  0.7140 -0.5032 -0.0447
 1001MOL0     C35027  10.051   8.538   3.485  0.5841  0.2809  0.0192
 1001MOL0     C35028  10.173   8.505   3.426 -0.2574  0.4587 -0.2613
 1001MOL0     C35029  10.300   8.583   3.440 -0.1045  0.7398  0.6386
 1001MOL0     O35030  10.277   8.719   3.466 -0.6873  0.5353 -0.5413
 1001MOL0     C35031  10.398   8.788   3.456  0.9599 -1.5391 -0.8170
 1001MOL0     C35032  10.430   8.877   3.565 -0.5258  0.3770  0.5293
 1001MOL0     C35033  10.549   8.962   3.550  0.3048  0.0081  0.3037
 1001MOL0     C35034  10.622   8.961   3.432  0.7903 -0.0097  0.4240
 1001MOL0     O35035  10.732   9.034   3.400 -0.8474  0.0151 -0.1014
 1001MOL0     C35036  10.775   9.146   3.480 -0.1682 -0.6637 -0.2140
 1001MOL0     C35037  10.927   9.135   3.498  0.7495  0.2088  0.8416
 1001MOL0     C35038  10.988   9.251   3.580  0.3745  0.6717  0.3078
 1001MOL0     C35039  11.128   9.229   3.580 -0.5180  0.3062  0.3489
 1001MOL0     C35040  11.192   9.325   3.682 -0.8705  0.1028 -0.8667
 1001MOL0     C35041  11.343   9.325   3.691  0.8785  0.3610 -0.6945
 1001MOL0     C35042  11.394   9.455   3.727  0.2391  0.0363 -0.3919
 1001MOL0     C35043  11.539   9.449   3.773 -0.2376 -0.1392 -0.0406
 1001MOL0    Cl35044  11.593   9.610   3.833 -0.4524  0.1516 -0.8067
 1001MOL0     C35045  10.586   8.871   3.328 -0.9262 -0.1959 -0.8459
 1001MOL0     C35046  10.470   8.798   3.338 -0.1958  0.5242  0.4588
 1001MOL0     O35047  10.404   8.523   3.451  0.0611  0.6069 -0.1687
 1001MOL0     C35048  10.172   8.412   3.320 -0.5794 -0.2080  0.3893
 1001MOL0     C35049  10.052   8.338   3.292  0.2652 -0.3061  1.1176
 1001MOL0     N35050   9.767   7.718   3.485 -0.1724  0.5289  0.4412
 1001MOL0     N35051   9.694   7.632   3.422 -0.8471 -0.7233  0.2179
 1001MOL0     C35052   8.338   7.447   3.655  0.0537 -0.2132  0.3163
 1001MOL0     C35053   8.217   7.374   3.681  0.2596  0.1509 -0.4587
 1001MOL0     C35054   7.887   7.096   3.619 -0.0174 -0.2941  0.6937
 1001MOL0     C35055   7.861   7.064   3.753  0.3744 -0.1811 -0.0149
 1001MOL0     C35056   7.737   7.002   3.784 -0.1240  0.5513 -0.0003
 1001MOL0     C35057   7.647   6.966   3.685  0.4945 -0.4781  0.5250
 1001MOL0     O35058   7.526   6.896   3.690  0.4787  0.7868  0.1365
 1001MOL0     C35059   7.534   6.763   3.742 -0.6773 -0.4647  0.5782
 1001MOL0     C35060   7.393   6.701   3.762 -0.1529 -0.3726 -0.8350
 1001MOL0     C35061   7.303   6.788   3.849  0.6421 -0.3266  0.0854
 1001MOL0     C35062   7.173   6.718   3.885 -0.4805  1.2202 -0.6539
 1001MOL0     C35063   7.083   6.817   3.937 -0.1466  0.6903 -0.8230
 1001MOL0     C35064   7.013   6.912   3.982 -0.0498  0.6388 -0.2653
 1001MOL0     C35065   7.680   6.992   3.549 -0.5488 -0.2415  0.2698
 1001MOL0     C35066   7.794   7.053   3.518 -0.1879  0.4771  0.2883
 1001MOL0     C35067   7.819   7.070   3.367  0.1177  0.4176  0.4056
 1001MOL0     H35068   8.339   7.054   3.642  0.6155 -0.3321  0.6668
 1001MOL0     H35069   8.545   7.178   3.601 -0.1252 -1.5742  3.7872
 1001MOL0     H35070   8.501   7.631   3.560 -0.8088  1.5658  2.1391
 1001MOL0     H35071   8.607   7.622   3.703 -1.4420 -0.6796  0.1085
 1001MOL0     H35072   8.684   7.712   3.476 -0.2785  0.2371  0.8553
 1001MOL0     H35073   8.685   7.549   3.414 -2.0125  1.9126 -0.8381
 1001MOL0     H35074   8.849   7.525   3.638  1.3407 -1.4763 -2.2446
 1001MOL0     H35075   8.849   7.705   3.624 -1.8735  0.9369 -0.2441
 1001MOL0     H35076   8.934   7.514   3.410 -3.2892  2.4319 -2.7085
 1001MOL0     H35077   8.939   7.694   3.399  0.5235  2.3705  1.6822
 1001MOL0     H35078   9.096   7.690   3.604 -1.4839 -0.7137  0.3356
 1001MOL0     H35079   9.106   7.523   3.589  0.7122  0.8314  0.6962
 1001MOL0     H35080   9.178   7.513   3.363 -2.9501  0.1518 -0.1901
 1001MOL0     H35081   9.179   7.682   3.343  1.7887 -0.3378  0.3509
 1001MOL0     H35082   9.355   7.529   3.530  1.1614 -1.9804 -3.3498
 1001MOL0     H35083   9.358   7.704   3.541 -0.1156 -1.2500  0.6917
 1001MOL0     H35084   9.462   7.518   3.327 -1.9530 -0.1440 -2.9304
 1001MOL0     H35085   9.401   7.671   3.276 -0.7331  0.7840  0.1035
 1001MOL0     H35086   9.501   7.887   3.456 -0.4746 -0.2532 -0.0920
 1001MOL0     H35087   9.676   7.969   3.672 -0.0666 -3.9031  1.5475
 1001MOL0     H35088   9.847   7.948   3.648  1.3381  2.1482 -1.1528
 1001MOL0     H35089   9.659   8.103   3.482 -0.7931  0.3727  1.7018
 1001MOL0     H35090   9.808   8.161   3.559 -0.9490  0.5416  1.2071
 1001MOL0     H35091   9.832   7.965   3.335  0.8147 -0.3191  0.2776
 1001MOL0     H35092   9.949   8.081   3.402 -0.1018 -1.9014  2.2257
 1001MOL0     H35093   9.710   8.138   3.230 -0.5814  2.0176 -1.5640
 1001MOL0     H35094   9.875   8.169   3.180 -2.0154 -1.0105 -1.6251
 1001MOL0     H35095   9.842   8.503   3.497  1.4825 -1.5105  2.0007
 1001MOL0     H35096  10.045   8.609   3.567 -1.5869  1.6167 -1.2018
 1001MOL0     H35097  10.380   8.866   3.660  0.7579 -4.0070  0.9319
 1001MOL0     H35098  10.568   9.032   3.631  0.1104 -0.8447  1.1143
 1001MOL0     H35099  10.755   9.237   3.424 -0.2355  0.5873  1.7314
 1001MOL0     H35100  10.712   9.166   3.567  1.4744  2.3802  0.4045
 1001MOL0     H35101  10.950   9.038   3.544 -0.5749 -1.9880 -2.6863
 1001MOL0     H35102  10.961   9.135   3.395  0.1248 -1.9980  0.5838
 1001MOL0     H35103  10.960   9.343   3.528  0.7048  1.0814  0.8424
 1001MOL0     H35104  10.953   9.258   3.684  1.4198  3.5717  0.5646
 1001MOL0     H35105  11.161   9.214   3.477  0.5112 -2.5194  0.9907
 1001MOL0     H35106  11.152   9.126   3.610 -0.0096 -0.1259 -1.4320
 1001MOL0     H35107  11.149   9.307   3.781  0.5807  0.5626 -0.1383
 1001MOL0     H35108  11.159   9.420   3.639 -0.5160 -0.7207 -3.0741
 1001MOL0     H35109  11.374   9.248   3.761  0.6307 -0.6570 -1.6677
 1001MOL0     H35110  11.384   9.300   3.592 -2.0670 -1.0199 -1.6898
 1001MOL0     H35111  11.342   9.499   3.813  1.8203 -2.8039  2.2066
 1001MOL0     H35112  11.396   9.512   3.634  2.3690 -0.2364 -0.5623
 1001MOL0     H35113  11.550   9.379   3.857  2.7402 -1.0822 -1.0755
 1001MOL0     H35114  11.613   9.407   3.704  0.2343  1.7302 -0.7441
 1001MOL0     H35115  10.662   8.866   3.250 -1.1866 -1.3554 -1.0408
 1001MOL0     H35116  10.446   8.730   3.257  0.3514  0.0499  0.6885
 1001MOL0     H35117  10.265   8.401   3.265 -0.4968 -2.1730  0.8343
 1001MOL0     H35118  10.056   8.252   3.225  0.5287 -1.6430  2.7818
 1001MOL0     H35119   8.331   7.554   3.666 -0.7762 -0.0998 -1.0005
 1001MOL0     H35120   8.125   7.424   3.712 -1.9156 -2.5405 -2.0867
 1001MOL0     H35121   7.936   7.073   3.830 -0.0066 -3.0143  0.7877
 1001MOL0     H35122   7.722   6.982   3.889  0.9212  3.0059  0.6826
 1001MOL0     H35123   7.590   6.764   3.836 -2.6908  1.2886  1.8576
 1001MOL0     H35124   7.579   6.695   3.668  0.2990  1.3374 -0.5555
 1001MOL0     H35125   7.408   6.607   3.816  3.6142  1.0370  0.9004
 1001MOL0     H35126   7.348   6.678   3.665  0.0213 -2.0391 -0.5581
 1001MOL0     H35127   7.284   6.883   3.797  0.5420  0.8032  2.0861
 1001MOL0     H35128   7.352   6.818   3.942 -0.4187 -0.2318  0.6328
 1001MOL0     H35129   7.139   6.665   3.795  1.0183 -0.5108 -0.2635
 1001MOL0     H35130   7.186   6.650   3.969  1.0317  0.2768 -1.5975
 1001MOL0     H35131   6.962   6.991   4.032  0.7425  0.3924  0.9841
 1001MOL0     H35132   7.615   6.952   3.472 -0.0412  1.1474 -0.9265
 1001MOL0     H35133   7.917   7.035   3.334 -0.0788 -1.5100  1.7176
 1001MOL0     H35134   7.752   7.008   3.307  0.6104 -0.1811  0.4634
 1001MOL0     H35135   7.801   7.174   3.338  0.2481  0.8359  1.7373
 1002MOL0     O35136   7.610   0.972   6.424  0.1295 -0.1020  0.0128
 1002MOL0     C35137   7.532   1.042   6.480  0.8350 -0.0278  0.7927
 1002MOL0     O35138   7.571   1.153   6.557 -0.0642 -0.3781 -0.4218
 1002MOL0     C35139   7.693   1.215   6.581 -0.3998  0.0082  0.1677
 1002MOL0     C35140   7.696   1.309   6.684 -0.1603  0.2691 -0.2646
 1002MOL0     C35141   7.812   1.392   6.690 -0.5532 -0.6070  0.3516
 1002MOL0     C35142   7.919   1.372   6.602  0.4897 -0.7247 -0.4820
 1002MOL0     O35143   8.029   1.450   6.607  0.2387 -0.5231  0.1149
 1002MOL0     C35144   8.144   1.387   6.652 -0.0026  0.8754  0.0367
 1002MOL0     C35145   8.272   1.477   6.640  0.2439  0.5412  0.2779
 1002MOL0     C35146   8.311   1.493   6.497  0.7070  1.1649  0.1145
 1002MOL0     C35147   8.415   1.597   6.476  0.1015  0.2811 -0.3457
 1002MOL0     C35148   8.443   1.610   6.330 -0.1657 -0.3202 -0.2112
 1002MOL0     C35149   8.540   1.732   6.298  0.9069 -0.3552  0.0082
 1002MOL0     C35150   8.569   1.738   6.151 -0.1006  0.3323 -0.0818
 1002MOL0     C35151   8.679   1.823   6.119 -0.7233  0.4013  0.2226
 1002MOL0     N35152   8.799   1.743   6.136 -0.0249  0.7084  0.1307
 1002MOL0     C35153   8.870   1.710   6.252  0.1090  0.2234  0.4306
 1002MOL0     C35154   8.946   1.601   6.224  0.0842 -0.0639  1.5417
 1002MOL0     C35155   9.018   1.509   6.317 -0.2181 -0.3305  0.1486
 1002MOL0     C35156   8.928   1.467   6.432 -0.4600 -0.6098  0.4837
 1002MOL0     C35157   8.996   1.492   6.563 -0.0518 -0.0176 -0.1041
 1002MOL0     C35158   9.134   1.419   6.583 -0.8186  0.4268  0.7854
 1002MOL0     O35159   9.122   1.284   6.546 -0.5075  0.0102 -0.0522
 1002MOL0     C35160   9.068   1.184   6.633  0.2896 -0.3671  0.0277
 1002MOL0     C35161   9.068   1.048   6.592 -0.6139 -0.5299 -0.4276
 1002MOL0     C35162   9.016   0.957   6.686 -0.1154  0.3125  0.0813
 1002MOL0     C35163   8.950   0.992   6.807 -0.4183 -0.8645 -0.2128
 1002MOL0     C35164   8.871   0.894   6.882 -0.3979  0.5037 -0.2210
 1002MOL0     O35165   8.792   0.943   6.986  0.2312 -0.3330 -0.3361
 1002MOL0     C35166   8.700   0.874   7.064 -0.0858 -0.0187  0.0971
 1002MOL0     C35167   8.662   0.741   7.060 -0.3604 -0.5433  0.9894
 1002MOL0     C35168   8.554   0.689   7.133  0.6120  0.0823  0.5603
 1002MOL0     C35169   8.478   0.770   7.211 -0.2420 -0.3510 -0.7741
 1002MOL0     O35170   8.379   0.713   7.281 -0.6599 -0.4316 -1.2178
 1002MOL0     C35171   8.347   0.760   7.414  0.0416  0.6174  0.3618
 1002MOL0     C35172   8.263   0.659   7.485 -0.3555  0.4624 -0.5723
 1002MOL0     C35173   8.264   0.670   7.641 -0.0260  0.1522 -0.4884
 1002MOL0     C35174   8.151   0.756   7.695  0.3054 -0.3652 -0.8136
 1002MOL0     C35175   8.192   0.815   7.828  0.1602 -0.8337  0.1405
 1002MOL0     C35176   8.233   0.958   7.815  0.1426  0.4526 -0.5700
 1002MOL0     C35177   8.313   1.019   7.933 -0.4797 -0.0642 -0.4743
 1002MOL0     C35178   8.395   1.134   7.888 -0.1001 -0.5325  0.5237
 1002MOL0    Cl35179   8.300   1.276   7.834 -0.1004  0.1102 -0.0134
 1002MOL0     C35180   8.513   0.910   7.227  0.2654 -0.3342  0.1548
 1002MOL0     C35181   8.630   0.953   7.160  0.5676 -0.3051 -0.0168
 1002MOL0     O35182   8.884   0.774   6.851 -0.3488  0.5125  0.2558
 1002MOL0     C35183   8.941   1.131   6.842 -0.1873  0.2810  0.3654
 1002MOL0     C35184   9.005   1.220   6.760 -0.3942  0.6809  0.4101
 1002MOL0     N35185   8.928   1.570   6.092  0.2188 -0.9146 -0.2119
 1002MOL0     N35186   8.849   1.658   6.042 -1.1278 -0.0075  0.4896
 1002MOL0     C35187   7.909   1.279   6.505 -0.2842  0.4830  0.8205
 1002MOL0     C35188   7.801   1.190   6.498  0.0991  0.1468  0.0171
 1002MOL0     C35189   7.390   0.998   6.471  0.0426  0.8667  0.2442
 1002MOL0     C35190   7.354   0.907   6.370  0.2627  1.1054  0.1703
 1002MOL0     C35191   7.224   0.867   6.354  0.5683  0.0606 -0.2511
 1002MOL0     C35192   7.120   0.908   6.441  1.1337 -0.6334 -0.0072
 1002MOL0     O35193   6.993   0.859   6.438  0.1500  0.0764 -0.3103
 1002MOL0     C35194   6.947   0.769   6.336 -0.0701 -0.3233 -0.1306
 1002MOL0     C35195   6.797   0.735   6.357 -1.0731 -0.2147  0.4554
 1002MOL0     C35196   6.707   0.851   6.294 -0.1579  0.4804 -0.6715
 1002MOL0     C35197   6.577   0.868   6.377 -0.9089 -0.0997 -0.0071
 1002MOL0     C35198   6.510   1.002   6.378  0.7536  0.7032 -0.0599
 1002MOL0     C35199   6.468   1.116   6.383 -0.4854 -0.7047  0.3755
 1002MOL0     C35200   7.158   0.987   6.550 -0.4541  0.4506  0.5912
 1002MOL0     C35201   7.288   1.044   6.558 -0.9687 -0.3169 -1.4521
 1002MOL0     C35202   7.320   1.114   6.684  0.1460 -0.1584 -0.6602
 1002MOL0     H35203   7.613   1.322   6.752  1.4811 -2.3443  2.4902
 1002MOL0     H35204   7.819   1.474   6.760  0.5451  0.7794 -1.3012
 1002MOL0     H35205   8.131   1.365   6.759 -0.0261 -0.4223 -0.2142
 1002MOL0     H35206   8.158   1.301   6.587 -0.1893  0.9129 -0.0520
 1002MOL0     H35207   8.356   1.428   6.690 -0.8944  0.6078  2.3333
 1002MOL0     H35208   8.251   1.576   6.681  0.1525  1.0808 -1.0155
 1002MOL0     H35209   8.218   1.508   6.442  1.2583 -2.0276 -1.9710
 1002MOL0     H35210   8.348   1.398   6.457  2.3803  1.4251  0.9558
 1002MOL0     H35211   8.373   1.694   6.504 -2.0085 -0.1386 -1.8030
 1002MOL0     H35212   8.509   1.582   6.530  1.1565  1.9581 -1.6445
 1002MOL0     H35213   8.488   1.518   6.291 -2.0184 -0.8263 -1.3341
 1002MOL0     H35214   8.347   1.621   6.278 -0.9680 -4.0911  0.2196
 1002MOL0     H35215   8.498   1.831   6.318 -1.7421 -1.3939 -0.0383
 1002MOL0     H35216   8.628   1.716   6.361 -0.2604 -2.5923  1.1910
 1002MOL0     H35217   8.483   1.778   6.095 -0.8279  0.9023  1.3922
 1002MOL0     H35218   8.588   1.640   6.106  2.1062  1.6821 -2.3390
 1002MOL0     H35219   8.665   1.861   6.018 -0.6071 -1.0586 -0.3638
 1002MOL0     H35220   8.682   1.904   6.193  1.0446 -0.2328  0.8946
 1002MOL0     H35221   8.847   1.755   6.348 -0.5323  0.9387 -0.0471
 1002MOL0     H35222   9.031   1.420   6.256 -0.5647 -1.5903  1.8219
 1002MOL0     H35223   9.106   1.572   6.334  1.3212 -1.5896 -2.4763
 1002MOL0     H35224   8.832   1.521   6.435  0.3694  0.9295  0.2486
 1002MOL0     H35225   8.902   1.361   6.424  0.6319 -0.9464  1.1902
 1002MOL0     H35226   8.929   1.463   6.645 -0.3852 -1.2268 -0.7847
 1002MOL0     H35227   9.012   1.598   6.589 -1.9057  0.1880  0.3511
 1002MOL0     H35228   9.168   1.445   6.684 -0.3050  0.8474  0.5085
 1002MOL0     H35229   9.208   1.455   6.511 -3.3893 -0.5154 -2.6042
 1002MOL0     H35230   9.114   1.026   6.496  1.3826 -2.0267  0.7926
 1002MOL0     H35231   9.026   0.852   6.658 -0.9379  0.2726 -0.1030
 1002MOL0     H35232   8.717   0.674   6.995 -1.4798 -0.1942 -0.3625
 1002MOL0     H35233   8.524   0.585   7.122  4.0686 -0.8800 -1.2480
 1002MOL0     H35234   8.434   0.766   7.480 -0.0809 -1.2873  0.7529
 1002MOL0     H35235   8.300   0.859   7.416  2.1597  1.7057 -0.4990
 1002MOL0     H35236   8.163   0.669   7.443 -0.6169  1.8053  0.3002
 1002MOL0     H35237   8.307   0.562   7.463 -3.2279 -1.4913  1.5822
 1002MOL0     H35238   8.257   0.567   7.678  0.2913 -1.2147 -3.8704
 1002MOL0     H35239   8.356   0.723   7.668  1.1855 -1.2531 -1.6841
 1002MOL0     H35240   8.077   0.679   7.719  1.3293 -1.7787 -1.9992
 1002MOL0     H35241   8.110   0.824   7.619 -1.7294 -0.8443 -0.2214
 1002MOL0     H35242   8.277   0.766   7.877 -0.0122 -0.2199  1.0735
 1002MOL0     H35243   8.110   0.809   7.899  1.5726 -0.3948  1.8944
 1002MOL0     H35244   8.297   0.959   7.726  2.1279  1.2843  0.7842
 1002MOL0     H35245   8.136   1.009   7.812  0.2113  1.0756  2.9536
 1002MOL0     H35246   8.389   0.957   7.980  0.2328 -0.4474 -2.0636
 1002MOL0     H35247   8.243   1.039   8.014  2.0319  0.1849  1.7614
 1002MOL0     H35248   8.454   1.168   7.974  1.0789  0.0822 -0.5086
 1002MOL0     H35249   8.464   1.105   7.809 -1.5045  1.8752 -1.7219
 1002MOL0     H35250   8.458   0.978   7.291 -0.5116 -1.1016  0.3266
 1002MOL0     H35251   8.652   1.058   7.176 -0.6126 -0.1674  0.8568
 1002MOL0     H35252   8.888   1.172   6.927  2.1463 -0.1130  2.1277
 1002MOL0     H35253   9.010   1.320   6.802  1.7516  0.5395  0.5814
 1002MOL0     H35254   7.975   1.270   6.420 -0.6715  0.6518  0.4967
 1002MOL0     H35255   7.799   1.119   6.416  1.8896 -1.9484  1.6290
 1002MOL0     H35256   7.419   0.882   6.287  1.2936  0.8212  1.0317
 1002MOL0     H35257   7.212   0.797   6.272 -0.6504 -0.4581  0.3457
 1002MOL0     H35258   7.008   0.679   6.342  0.2736 -0.1180 -0.4754
 1002MOL0     H35259   6.957   0.826   6.243  1.1490  1.2690  0.9101
 1002MOL0     H35260   6.760   0.731   6.460 -1.9806 -0.4237  0.1300
 1002MOL0     H35261   6.789   0.647   6.293  2.9578  0.4346 -1.2080
 1002MOL0     H35262   6.673   0.823   6.193 -0.4677  1.1220 -0.7514
 1002MOL0     H35263   6.766   0.943   6.286  2.4594 -1.0250  0.0050
 1002MOL0     H35264   6.511   0.783   6.359  0.3076 -0.9735 -0.4732
 1002MOL0     H35265   6.607   0.855   6.482  0.9986  0.5728 -0.4259
 1002MOL0     H35266   6.427   1.215   6.386  1.0120 -0.0601  0.1264
 1002MOL0     H35267   7.080   0.985   6.626 -1.4720 -1.9546 -0.4094
 1002MOL0     H35268   7.235   1.105   6.752 -1.5290 -1.9760 -2.8409
 1002MOL0     H35269   7.410   1.067   6.724  0.7218  2.3636  1.2716
 1002MOL0     H35270   7.339   1.222   6.675 -1.3768  0.4664  2.3631
 1003MOL0     O35271   7.654   3.857   0.916  0.6460 -0.0302 -0.5191
 1003MOL0     C35272   7.577   3.760   0.934  0.9992  0.7864  0.4426
 1003MOL0     O35273   7.621   3.631   0.961  0.2916  0.0979  0.1395
 1003MOL0     C35274   7.755   3.610   0.971 -0.3273 -0.8364 -0.7257
 1003MOL0     C35275   7.857   3.690   1.036 -0.1037  0.0080  0.3410
 1003MOL0     C35276   7.997   3.669   1.009 -0.2511 -0.5175  0.2713
 1003MOL0     C35277   8.029   3.563   0.924  0.4500 -0.0797  0.4475
 1003MOL0     O35278   8.156   3.538   0.878 -0.0804  0.4792  0.4706
 1003MOL0     C35279   8.267   3.623   0.914  0.1361  0.5393  0.3422
 1003MOL0     C35280   8.361   3.618   0.796  1.3062 -0.5248  0.0041
 1003MOL0     C35281   8.465   3.511   0.829 -0.4010 -0.2261  0.2384
 1003MOL0     C35282   8.580   3.513   0.725  0.3264  0.1116  0.0505
 1003MOL0     C35283   8.684   3.407   0.766 -0.0772  0.1883  0.0160
 1003MOL0     C35284   8.644   3.273   0.698 -0.1232  0.4116 -0.7480
 1003MOL0     C35285   8.760   3.170   0.734  0.1511  0.0308 -0.7530
 1003MOL0     C35286   8.731   3.028   0.684 -0.5758  0.3908  0.3177
 1003MOL0     N35287   8.850   2.945   0.687  0.1200 -0.7811  0.6280
 1003MOL0     C35288   8.944   2.941   0.590 -1.1873 -1.1998  0.2081
 1003MOL0     C35289   9.046   2.851   0.627  0.4098 -0.2260 -0.3443
 1003MOL0     C35290   9.178   2.819   0.548  0.3643  0.6487  0.6296
 1003MOL0     C35291   9.279   2.938   0.553 -0.2205  0.2351 -0.3159
 1003MOL0     C35292   9.423   2.903   0.505  0.0061 -0.8851  0.9299
 1003MOL0     C35293   9.516   3.015   0.559  0.2404 -0.5271 -0.2155
 1003MOL0     O35294   9.650   2.964   0.554 -0.6009 -0.5819 -0.4502
 1003MOL0     C35295   9.752   3.039   0.610 -0.5250  0.7937  0.1884
 1003MOL0     C35296   9.735   3.166   0.677 -0.2046  0.2645  0.8284
 1003MOL0     C35297   9.845   3.236   0.722 -0.6731 -0.4096 -0.3584
 1003MOL0     C35298   9.977   3.176   0.727 -0.4266 -0.1899 -0.5488
 1003MOL0     C35299  10.093   3.254   0.789 -0.0661  0.0399 -0.9024
 1003MOL0     O35300  10.212   3.194   0.803  0.2277 -0.2087  0.2880
 1003MOL0     C35301  10.319   3.228   0.889 -0.1363  0.2593  1.0470
 1003MOL0     C35302  10.433   3.150   0.860 -0.5124  0.1392 -0.1881
 1003MOL0     C35303  10.555   3.175   0.934 -0.2682 -0.2341  0.5429
 1003MOL0     C35304  10.552   3.275   1.035  0.6863  0.3277  0.9499
 1003MOL0     O35305  10.656   3.307   1.122 -0.1466 -0.2126  0.1961
 1003MOL0     C35306  10.758   3.204   1.125 -0.4323 -0.2297  0.0057
 1003MOL0     C35307  10.872   3.237   1.228 -0.3540  0.1477 -0.0544
 1003MOL0     C35308  10.899   3.385   1.236  0.6009  0.4459  0.7017
 1003MOL0     C35309  11.020   3.409   1.320 -0.1836  0.2506 -0.3201
 1003MOL0     C35310  11.149   3.389   1.243 -0.1482  0.2317 -0.5137
 1003MOL0     C35311  11.266   3.395   1.356 -0.0987 -0.3545 -0.1120
 1003MOL0     C35312  11.407   3.389   1.283 -0.1559 -0.0867 -0.2834
 1003MOL0     C35313  11.518   3.399   1.391  0.1805  0.6572 -0.8805
 1003MOL0    Cl35314  11.686   3.391   1.325 -0.0542  0.1375 -0.3040
 1003MOL0     C35315  10.434   3.332   1.060  0.6667  0.2563 -0.7415
 1003MOL0     C35316  10.319   3.311   0.987 -0.5996  0.8392  0.2116
 1003MOL0     O35317  10.069   3.376   0.821  0.1291  0.2949  0.4370
 1003MOL0     C35318   9.992   3.054   0.659 -1.3367  0.2059 -0.1936
 1003MOL0     C35319   9.889   2.985   0.599  0.5959  1.1185  0.1926
 1003MOL0     N35320   8.999   2.800   0.748 -0.3251  0.2512 -0.4024
 1003MOL0     N35321   8.885   2.848   0.773  1.2695 -0.1313 -0.3699
 1003MOL0     C35322   7.933   3.472   0.875 -0.1518  0.0503 -0.2192
 1003MOL0     C35323   7.796   3.497   0.897  0.2157 -1.3607  0.9433
 1003MOL0     C35324   7.429   3.782   0.940  0.5405  0.2135 -0.8479
 1003MOL0     C35325   7.383   3.910   0.901  0.9078 -0.2931 -0.3803
 1003MOL0     C35326   7.247   3.940   0.881  0.7429  0.7135 -0.3753
 1003MOL0     C35327   7.146   3.853   0.910 -0.9252 -0.7839  0.2838
 1003MOL0     O35328   7.020   3.900   0.892  0.1892  0.2649  0.5626
 1003MOL0     C35329   6.930   3.802   0.842  0.4629 -0.3258 -0.1353
 1003MOL0     C35330   6.815   3.877   0.768 -0.3643 -0.1337  0.3973
 1003MOL0     C35331   6.698   3.923   0.863  0.1498  0.4533 -0.2529
 1003MOL0     C35332   6.618   4.020   0.782  0.8338 -0.2595 -0.0411
 1003MOL0     C35333   6.514   4.074   0.876  0.1808 -0.8555 -0.8317
 1003MOL0     C35334   6.437   4.124   0.951  0.0920 -0.7360 -0.3603
 1003MOL0     C35335   7.187   3.722   0.945  0.5176  0.7265  1.2392
 1003MOL0     C35336   7.322   3.684   0.965 -1.0546 -0.6240  0.7251
 1003MOL0     C35337   7.347   3.544   1.010 -0.4748  0.5786  0.7334
 1003MOL0     H35338   7.834   3.776   1.099  0.0492  0.8919 -0.7799
 1003MOL0     H35339   8.071   3.738   1.047  3.3704 -3.5915 -0.5977
 1003MOL0     H35340   8.238   3.727   0.936  0.6131  1.3692 -2.5642
 1003MOL0     H35341   8.315   3.574   0.999 -1.4568 -2.4022 -0.3416
 1003MOL0     H35342   8.407   3.717   0.786  2.1720 -0.8328  0.7963
 1003MOL0     H35343   8.307   3.592   0.705 -1.5571  0.1170  1.4056
 1003MOL0     H35344   8.431   3.408   0.836 -0.2879 -0.2774  0.0402
 1003MOL0     H35345   8.510   3.540   0.925 -0.9756  1.5250  0.0243
 1003MOL0     H35346   8.539   3.485   0.627 -0.2136 -3.8187  1.2047
 1003MOL0     H35347   8.620   3.614   0.722 -1.5527  1.0869  3.2601
 1003MOL0     H35348   8.781   3.444   0.733  1.2955 -2.7744  0.4140
 1003MOL0     H35349   8.691   3.392   0.874  2.2529  0.2911 -0.0846
 1003MOL0     H35350   8.542   3.245   0.726  1.0938 -0.7916  3.1096
 1003MOL0     H35351   8.635   3.292   0.591 -1.4752 -0.0191 -0.7369
 1003MOL0     H35352   8.767   3.174   0.844  1.2994  0.5560 -0.8401
 1003MOL0     H35353   8.850   3.210   0.688  0.5618  0.2931  0.2554
 1003MOL0     H35354   8.652   2.988   0.749 -2.3064  0.7924 -1.4123
 1003MOL0     H35355   8.683   3.028   0.585 -0.9941 -0.5036  0.5090
 1003MOL0     H35356   8.955   3.001   0.501 -0.3228  0.0491  1.1155
 1003MOL0     H35357   9.229   2.734   0.596 -0.2316 -0.2802 -0.3267
 1003MOL0     H35358   9.160   2.789   0.444  1.2253 -1.0482  0.9378
 1003MOL0     H35359   9.234   3.025   0.505 -2.1602 -0.5166  0.0122
 1003MOL0     H35360   9.296   2.968   0.657  1.9063 -0.1803 -0.4943
 1003MOL0     H35361   9.434   2.896   0.397 -1.7087 -1.4462  0.7531
 1003MOL0     H35362   9.452   2.803   0.537 -1.8427 -2.2795 -1.4162
 1003MOL0     H35363   9.494   3.034   0.664  0.7334  2.0020 -0.5028
 1003MOL0     H35364   9.500   3.110   0.508 -1.6556 -0.6698  0.0662
 1003MOL0     H35365   9.640   3.218   0.682  0.6112  1.8857  0.3538
 1003MOL0     H35366   9.827   3.336   0.760  2.3464 -0.2337  0.8799
 1003MOL0     H35367  10.421   3.067   0.791 -1.3707 -1.2948  1.5861
 1003MOL0     H35368  10.649   3.130   0.903 -1.2496 -0.4684 -2.3830
 1003MOL0     H35369  10.711   3.111   1.160 -0.2896  0.0067  0.8461
 1003MOL0     H35370  10.794   3.193   1.022 -2.7198 -1.0319 -0.7759
 1003MOL0     H35371  10.836   3.198   1.324  1.3275 -1.5161 -0.0352
 1003MOL0     H35372  10.959   3.172   1.211  0.4746  1.1263  0.3700
 1003MOL0     H35373  10.912   3.418   1.133  1.7771 -1.2898  0.2648
 1003MOL0     H35374  10.809   3.430   1.279 -1.1883 -2.2155 -0.0012
 1003MOL0     H35375  11.022   3.341   1.405  1.2532 -0.3254 -0.7937
 1003MOL0     H35376  11.019   3.508   1.366  4.2720  1.6569 -2.6755
 1003MOL0     H35377  11.161   3.465   1.166  0.6452  2.3771  1.6096
 1003MOL0     H35378  11.147   3.289   1.198 -1.2009  1.1104 -2.5649
 1003MOL0     H35379  11.257   3.480   1.424 -0.0009  0.0553 -0.6059
 1003MOL0     H35380  11.253   3.310   1.423 -1.7772 -0.0846 -0.0700
 1003MOL0     H35381  11.416   3.477   1.220 -0.6627  1.4184  1.6399
 1003MOL0     H35382  11.418   3.295   1.229 -0.4729  0.1397 -0.7441
 1003MOL0     H35383  11.502   3.499   1.433 -1.5551  0.1264 -0.1767
 1003MOL0     H35384  11.512   3.332   1.477  3.7455  1.3631  0.0966
 1003MOL0     H35385  10.429   3.393   1.150  1.4886 -1.4701  0.5351
 1003MOL0     H35386  10.222   3.351   1.016 -1.0407 -1.0634  1.5755
 1003MOL0     H35387  10.091   3.010   0.662 -0.5233  1.8826 -1.2145
 1003MOL0     H35388   9.900   2.888   0.552  3.0210  0.9039  1.0816
 1003MOL0     H35389   7.966   3.398   0.803  0.0412  2.4520 -2.7618
 1003MOL0     H35390   7.723   3.440   0.841  0.0172 -0.4363  0.2261
 1003MOL0     H35391   7.452   3.993   0.890  0.4421  0.0524 -0.7485
 1003MOL0     H35392   7.218   4.042   0.854  1.1082  0.7078 -0.8031
 1003MOL0     H35393   6.874   3.742   0.915 -1.3459 -5.4136 -4.9209
 1003MOL0     H35394   6.989   3.735   0.778  1.5400 -1.7150  2.1892
 1003MOL0     H35395   6.781   3.814   0.686 -1.8794  2.0646 -0.7648
 1003MOL0     H35396   6.856   3.967   0.721  0.3758  0.5038  2.1654
 1003MOL0     H35397   6.742   3.979   0.946  0.3623  2.7041 -1.7860
 1003MOL0     H35398   6.633   3.843   0.898 -2.0142  1.1124 -2.5088
 1003MOL0     H35399   6.674   4.111   0.758 -1.9506  1.2222 -1.3686
 1003MOL0     H35400   6.583   3.974   0.689 -1.3707 -0.9324  1.0344
 1003MOL0     H35401   6.369   4.162   1.024 -1.2258  1.0112 -2.3709
 1003MOL0     H35402   7.110   3.646   0.960  1.3192 -0.2954  0.3103
 1003MOL0     H35403   7.407   3.541   1.102  0.5470 -3.0285  0.1103
 1003MOL0     H35404   7.253   3.492   1.028  0.1550 -0.7562  0.3216
 1003MOL0     H35405   7.411   3.499   0.934  1.1645  0.9918  1.8022
 1004MOL0     O35406   6.502   6.884   8.516 -0.1904 -0.1332  0.3312
 1004MOL0     C35407   6.459   6.867   8.632  0.4049  0.4091 -0.0489
 1004MOL0     O35408   6.480   6.760   8.706  0.2687  0.1348 -0.7494
 1004MOL0     C35409   6.573   6.674   8.656 -0.7056  0.8333 -0.0565
 1004MOL0     C35410   6.535   6.569   8.577  0.2467 -0.1234 -0.9079
 1004MOL0     C35411   6.622   6.493   8.501  0.1948 -0.3787 -0.8683
 1004MOL0     C35412   6.758   6.521   8.507  0.4663  0.0493 -0.3795
 1004MOL0     O35413   6.835   6.459   8.417  0.0719  0.4908  0.1044
 1004MOL0     C35414   6.972   6.499   8.399 -0.0440 -0.6386 -0.3404
 1004MOL0     C35415   7.065   6.403   8.480 -0.8275  0.0255  0.0215
 1004MOL0     C35416   7.211   6.450   8.473 -0.6394  0.1345  0.8635
 1004MOL0     C35417   7.273   6.407   8.336  0.6786  0.0252 -0.7597
 1004MOL0     C35418   7.425   6.433   8.363  1.0358 -0.1141 -1.2214
 1004MOL0     C35419   7.510   6.424   8.237  0.9004 -0.2892 -0.8570
 1004MOL0     C35420   7.646   6.477   8.258 -0.4010  0.9741  0.6132
 1004MOL0     C35421   7.743   6.383   8.333  0.0010 -0.0237  0.5312
 1004MOL0     N35422   7.887   6.438   8.339 -0.0567  0.1712 -0.6248
 1004MOL0     C35423   7.950   6.512   8.436 -0.0831  0.2193 -0.4106
 1004MOL0     C35424   8.073   6.524   8.385  0.8992 -0.1099  0.0236
 1004MOL0     C35425   8.193   6.590   8.444  0.2963  0.1312  0.0092
 1004MOL0     C35426   8.239   6.536   8.580  0.3290 -0.9135 -0.6555
 1004MOL0     C35427   8.346   6.617   8.644 -0.2660  0.8315  1.2272
 1004MOL0     C35428   8.344   6.595   8.793 -0.2079  0.2972 -1.1791
 1004MOL0     O35429   8.420   6.693   8.871 -0.6160  0.1192  0.1453
 1004MOL0     C35430   8.555   6.681   8.906 -0.2308 -0.2168 -0.0812
 1004MOL0     C35431   8.662   6.668   8.815 -1.2384  0.0346  0.3512
 1004MOL0     C35432   8.789   6.672   8.858  0.6901 -0.2679  0.9073
 1004MOL0     C35433   8.820   6.679   8.992  0.1949 -0.1537 -0.2276
 1004MOL0     C35434   8.963   6.678   9.029  0.1218 -0.2765  0.0731
 1004MOL0     O35435   9.054   6.643   8.931 -0.1542  0.6012  0.1880
 1004MOL0     C35436   9.184   6.633   8.960  0.3360  0.0489 -0.1447
 1004MOL0     C35437   9.260   6.745   8.994  0.3118  0.0482 -0.8720
 1004MOL0     C35438   9.403   6.745   8.982 -0.6362 -0.1100 -0.0660
 1004MOL0     C35439   9.470   6.624   8.964  0.1186  0.1400 -0.0137
 1004MOL0     O35440   9.601   6.627   8.968 -0.5382  0.0130  0.4321
 1004MOL0     C35441   9.647   6.651   8.835  0.0902  1.2048  0.7856
 1004MOL0     C35442   9.797   6.681   8.838 -0.2484 -0.3311  0.1520
 1004MOL0     C35443   9.860   6.678   8.698 -0.2551  0.5619 -0.0035
 1004MOL0     C35444  10.012   6.694   8.699  0.0091  0.2862  0.1247
 1004MOL0     C35445  10.057   6.827   8.761  0.0113  0.8067  0.6651
 1004MOL0     C35446  10.200   6.848   8.716 -0.3246 -0.4441  0.6377
 1004MOL0     C35447  10.244   6.986   8.748 -0.6042  0.0934 -0.2391
 1004MOL0     C35448  10.400   7.007   8.753  0.1621 -0.2532  0.0227
 1004MOL0    Cl35449  10.434   7.152   8.854 -0.7394  0.1716 -0.0654
 1004MOL0     C35450   9.394   6.515   8.931 -0.6414  0.0544 -0.6226
 1004MOL0     C35451   9.259   6.517   8.930  0.5168 -0.5375  0.5017
 1004MOL0     O35452   8.989   6.697   9.148 -0.9591  0.3158 -0.0719
 1004MOL0     C35453   8.713   6.675   9.089 -0.1937 -0.0539  0.2246
 1004MOL0     C35454   8.586   6.676   9.042  0.4543  0.2462 -1.3040
 1004MOL0     N35455   8.086   6.457   8.267 -0.6714 -0.7494  0.7858
 1004MOL0     N35456   7.971   6.409   8.238  0.0776 -0.1307 -0.5620
 1004MOL0     C35457   6.808   6.620   8.601 -0.3096 -0.6177  0.2466
 1004MOL0     C35458   6.717   6.688   8.681  0.7918 -0.2295 -0.2045
 1004MOL0     C35459   6.361   6.961   8.674 -0.4523 -0.9377  0.4942
 1004MOL0     C35460   6.264   6.928   8.772 -0.7553 -0.2104 -0.4209
 1004MOL0     C35461   6.161   7.011   8.806 -1.0333  1.1861 -0.0906
 1004MOL0     C35462   6.144   7.129   8.746 -1.0055 -0.5251  0.6018
 1004MOL0     O35463   6.031   7.202   8.786 -0.2869 -0.4660 -0.0458
 1004MOL0     C35464   6.011   7.344   8.741  1.0580 -0.0071  0.5215
 1004MOL0     C35465   5.861   7.369   8.758 -0.5114 -0.5332 -0.5080
 1004MOL0     C35466   5.767   7.284   8.666  0.1567  0.3852  0.4819
 1004MOL0     C35467   5.613   7.297   8.711 -0.1728 -0.1832  0.7996
 1004MOL0     C35468   5.538   7.225   8.610  0.4853 -0.6862  0.5232
 1004MOL0     C35469   5.452   7.166   8.541  0.1570 -0.1658  0.1513
 1004MOL0     C35470   6.231   7.166   8.647 -0.5753  0.2195  0.2582
 1004MOL0     C35471   6.341   7.084   8.605  0.3352  0.4130 -0.3232
 1004MOL0     C35472   6.436   7.139   8.502 -0.3828  0.9044 -0.6479
 1004MOL0     H35473   6.430   6.551   8.558  0.4415 -1.5283 -0.6994
 1004MOL0     H35474   6.589   6.422   8.425  1.4181  0.4751 -2.2594
 1004MOL0     H35475   6.997   6.490   8.292  0.3669 -0.0161 -0.3070
 1004MOL0     H35476   6.998   6.602   8.426 -1.3744 -0.7275  1.3961
 1004MOL0     H35477   7.065   6.299   8.449 -2.6125  0.4750 -1.6827
 1004MOL0     H35478   7.038   6.404   8.586  1.0166 -3.8504  0.6750
 1004MOL0     H35479   7.266   6.397   8.551  1.2550 -1.8547 -1.6659
 1004MOL0     H35480   7.218   6.559   8.487 -4.5435  1.0027 -2.1987
 1004MOL0     H35481   7.261   6.299   8.324  2.5342 -0.3060 -0.0398
 1004MOL0     H35482   7.235   6.469   8.255 -0.6524  1.3348  0.7801
 1004MOL0     H35483   7.429   6.541   8.379  0.8201 -0.0723 -1.4396
 1004MOL0     H35484   7.469   6.385   8.451  2.5196  0.3412 -1.6902
 1004MOL0     H35485   7.521   6.321   8.204  1.3726  0.7388 -4.2945
 1004MOL0     H35486   7.467   6.485   8.157  0.1601 -0.3325 -0.4961
 1004MOL0     H35487   7.658   6.572   8.310  2.2576  0.6837  0.6815
 1004MOL0     H35488   7.691   6.496   8.161  0.5048  5.2780  1.6813
 1004MOL0     H35489   7.717   6.364   8.438  2.8308 -0.4113  1.2460
 1004MOL0     H35490   7.748   6.289   8.277 -0.1597 -0.7366  1.6717
 1004MOL0     H35491   7.915   6.553   8.530  0.8797  3.1740 -1.2105
 1004MOL0     H35492   8.279   6.589   8.377  1.7572  2.1562  1.7363
 1004MOL0     H35493   8.175   6.698   8.450 -1.2854 -0.0193 -1.1476
 1004MOL0     H35494   8.157   6.539   8.652  2.0429  2.0884  1.4220
 1004MOL0     H35495   8.260   6.429   8.573  2.5103 -0.6708  1.0774
 1004MOL0     H35496   8.334   6.722   8.615  2.0481  0.1697 -2.9209
 1004MOL0     H35497   8.442   6.576   8.612 -0.3996  0.7917  0.8712
 1004MOL0     H35498   8.380   6.495   8.817 -0.1275  0.3174 -1.2131
 1004MOL0     H35499   8.242   6.611   8.828 -0.6865 -0.5944 -2.1145
 1004MOL0     H35500   8.643   6.670   8.708  1.8496  0.7943 -0.2724
 1004MOL0     H35501   8.867   6.669   8.782 -1.3161  1.4783 -1.4316
 1004MOL0     H35502   9.218   6.845   8.986  1.0614  0.3678 -0.9245
 1004MOL0     H35503   9.463   6.833   9.003 -1.4414  0.3910  0.1607
 1004MOL0     H35504   9.631   6.568   8.766 -0.2357 -0.2864  2.5642
 1004MOL0     H35505   9.589   6.733   8.790 -0.8538  0.7060  1.0550
 1004MOL0     H35506   9.814   6.786   8.867  3.7256 -0.2950 -1.7343
 1004MOL0     H35507   9.842   6.597   8.890  1.4773 -1.2198 -2.5864
 1004MOL0     H35508   9.838   6.583   8.649  2.9731 -0.3257  0.0281
 1004MOL0     H35509   9.809   6.750   8.633 -2.6767 -0.9950  0.0207
 1004MOL0     H35510  10.048   6.684   8.596  2.3876  1.0493  0.8143
 1004MOL0     H35511  10.068   6.622   8.760  0.6140 -0.0535 -0.8007
 1004MOL0     H35512  10.039   6.829   8.869  0.2663  0.1668  0.7240
 1004MOL0     H35513   9.990   6.898   8.711  0.4304 -1.0107 -2.8039
 1004MOL0     H35514  10.263   6.772   8.762 -0.0892 -1.6285 -1.5138
 1004MOL0     H35515  10.211   6.845   8.607  0.8894  2.1440  0.6176
 1004MOL0     H35516  10.203   7.007   8.848 -0.9391 -0.5608 -0.2309
 1004MOL0     H35517  10.204   7.064   8.682 -3.3250  0.2123  1.4006
 1004MOL0     H35518  10.453   6.914   8.777  3.0207  0.2360 -3.4183
 1004MOL0     H35519  10.427   7.041   8.652  0.3559  2.2916  0.8665
 1004MOL0     H35520   9.441   6.419   8.911 -1.0828  0.6977 -6.8845
 1004MOL0     H35521   9.212   6.425   8.895  3.0506 -2.6038  2.2066
 1004MOL0     H35522   8.732   6.666   9.196  0.8490 -0.3334  0.0232
 1004MOL0     H35523   8.504   6.675   9.114  0.0058  0.2991 -1.8079
 1004MOL0     H35524   6.911   6.650   8.614 -0.5828  0.1056  0.8639
 1004MOL0     H35525   6.747   6.756   8.760 -2.0601 -0.3288  1.0799
 1004MOL0     H35526   6.265   6.840   8.836 -0.0300  1.6406  2.2684
 1004MOL0     H35527   6.086   6.971   8.873 -1.4786 -0.2628 -1.4140
 1004MOL0     H35528   6.049   7.374   8.643 -0.5250  1.2710  0.2678
 1004MOL0     H35529   6.066   7.408   8.810  0.5537  0.6015  0.3644
 1004MOL0     H35530   5.851   7.476   8.736  1.7826 -0.0662  0.4723
 1004MOL0     H35531   5.824   7.354   8.859  0.5000 -0.2171 -0.0764
 1004MOL0     H35532   5.799   7.181   8.644  0.5529  0.8779 -1.4928
 1004MOL0     H35533   5.769   7.334   8.569 -2.5939  2.2469  1.2827
 1004MOL0     H35534   5.597   7.247   8.808 -0.3674 -0.7560  0.4754
 1004MOL0     H35535   5.579   7.400   8.723  0.8819  0.6447 -2.3966
 1004MOL0     H35536   5.382   7.118   8.475 -1.3077  3.6374 -1.3646
 1004MOL0     H35537   6.215   7.261   8.596  1.2052  1.0186  1.0720
 1004MOL0     H35538   6.421   7.247   8.498 -0.1650  1.2782  3.7128
 1004MOL0     H35539   6.539   7.129   8.537 -0.8985  0.1882  0.7087
 1004MOL0     H35540   6.421   7.103   8.400  3.9840  2.4591 -2.0690
 1005MOL0     O35541   2.623   7.344   2.300 -0.0327 -0.1976 -0.3050
 1005MOL0     C35542   2.595   7.461   2.277 -0.0067  0.2129  0.2582
 1005MOL0     O35543   2.686   7.557   2.271 -0.3345 -0.5781  0.8400
 1005MOL0     C35544   2.818   7.536   2.266  0.4365 -0.0055  0.4169
 1005MOL0     C35545   2.884   7.418   2.229  0.2538 -0.9005  0.3238
 1005MOL0     C35546   3.021   7.411   2.235  0.7057 -0.4784 -0.3835
 1005MOL0     C35547   3.103   7.520   2.274  0.2322  0.2806 -0.6998
 1005MOL0     O35548   3.234   7.519   2.294  0.6999 -0.0434 -0.0071
 1005MOL0     C35549   3.312   7.407   2.261  0.9964  0.0288 -0.0185
 1005MOL0     C35550   3.459   7.425   2.305 -0.2067  0.3114  0.0897
 1005MOL0     C35551   3.521   7.553   2.260  0.0997 -0.4578  0.1753
 1005MOL0     C35552   3.647   7.577   2.339  0.7667  0.5781  0.5493
 1005MOL0     C35553   3.736   7.679   2.278 -0.1909 -1.4364  0.2810
 1005MOL0     C35554   3.837   7.707   2.392 -0.0746 -0.4629  0.8076
 1005MOL0     C35555   3.961   7.779   2.364  0.4563 -0.8131 -0.7876
 1005MOL0     C35556   3.931   7.926   2.353  0.1907 -0.4458 -0.0073
 1005MOL0     N35557   4.045   8.004   2.320  0.1779 -0.0869  0.7190
 1005MOL0     C35558   4.046   8.081   2.201  0.2105 -0.6008 -1.0914
 1005MOL0     C35559   4.164   8.158   2.214  0.3142  0.1697 -0.3012
 1005MOL0     C35560   4.198   8.252   2.104  0.5361 -0.4324 -0.4220
 1005MOL0     C35561   4.242   8.177   1.973  0.1339 -0.6011 -0.3935
 1005MOL0     C35562   4.344   8.069   2.010 -0.1560 -0.6756 -0.7931
 1005MOL0     C35563   4.411   8.016   1.884  0.3049  0.0698  0.6571
 1005MOL0     O35564   4.336   7.914   1.838  0.2162  0.2552 -0.2652
 1005MOL0     C35565   4.401   7.817   1.771 -0.2331  0.3190  0.3829
 1005MOL0     C35566   4.516   7.838   1.696  0.2762  1.0812 -0.5565
 1005MOL0     C35567   4.573   7.739   1.621 -0.3987  0.0541  0.2799
 1005MOL0     C35568   4.522   7.607   1.618  0.1050  0.3981  0.4512
 1005MOL0     C35569   4.582   7.498   1.543  0.6239  0.2575  0.7302
 1005MOL0     O35570   4.543   7.371   1.557 -0.1518  0.2358 -0.2562
 1005MOL0     C35571   4.599   7.286   1.464  0.0006  0.0475 -0.1822
 1005MOL0     C35572   4.719   7.218   1.481  0.0780  0.9512  0.0192
 1005MOL0     C35573   4.763   7.129   1.382 -0.4995 -0.1204  0.3630
 1005MOL0     C35574   4.692   7.105   1.269  0.3662  0.8027  0.7154
 1005MOL0     O35575   4.750   7.017   1.184  0.8093  0.6172 -0.3997
 1005MOL0     C35576   4.673   6.967   1.074 -0.2542  0.4418  0.2229
 1005MOL0     C35577   4.742   6.830   1.040  0.3116  0.0885 -0.3871
 1005MOL0     C35578   4.668   6.710   1.104  0.5848 -0.1148 -0.4991
 1005MOL0     C35579   4.717   6.583   1.045  0.0402  0.6356 -0.2071
 1005MOL0     C35580   4.674   6.458   1.121  0.2716 -0.6190  0.5510
 1005MOL0     C35581   4.718   6.460   1.270 -0.1117  0.3446  0.2964
 1005MOL0     C35582   4.871   6.467   1.278 -0.6322 -0.7352  0.6985
 1005MOL0     C35583   4.919   6.400   1.406 -0.0882 -0.1061 -0.1937
 1005MOL0    Cl35584   4.825   6.426   1.557 -0.0498 -0.3042  0.1144
 1005MOL0     C35585   4.565   7.162   1.260  0.2165 -0.2978  0.2682
 1005MOL0     C35586   4.519   7.251   1.355  0.6265  0.5263 -0.3495
 1005MOL0     O35587   4.663   7.544   1.463  0.0206 -0.0206 -0.0873
 1005MOL0     C35588   4.409   7.580   1.700 -0.3876  0.3293  0.4604
 1005MOL0     C35589   4.344   7.683   1.771 -0.5920  1.3674  0.5043
 1005MOL0     N35590   4.231   8.124   2.336  0.9786  0.1432 -0.5041
 1005MOL0     N35591   4.148   8.043   2.400 -0.5069 -0.3753  0.3206
 1005MOL0     C35592   3.030   7.638   2.316  0.5713  0.1534 -0.4745
 1005MOL0     C35593   2.894   7.647   2.305  0.2431  0.0865 -0.1946
 1005MOL0     C35594   2.448   7.485   2.262 -0.4223 -0.1275  0.2345
 1005MOL0     C35595   2.356   7.401   2.328  0.7356  0.1771  0.5188
 1005MOL0     C35596   2.216   7.434   2.325 -0.2099 -0.1124 -0.9046
 1005MOL0     C35597   2.168   7.538   2.251  0.2297 -0.0517 -0.3743
 1005MOL0     O35598   2.037   7.579   2.238  0.7772  0.1620 -0.0890
 1005MOL0     C35599   1.944   7.511   2.322  0.8693  0.0682  1.1922
 1005MOL0     C35600   1.799   7.544   2.273 -0.1137 -0.1835  0.5441
 1005MOL0     C35601   1.699   7.432   2.301 -0.2489  0.0360  0.3464
 1005MOL0     C35602   1.681   7.402   2.451  0.0014  0.0371  0.2843
 1005MOL0     C35603   1.595   7.287   2.468  0.3728  0.2735 -0.4921
 1005MOL0     C35604   1.509   7.202   2.488 -0.3097 -0.3597 -0.6312
 1005MOL0     C35605   2.259   7.614   2.186 -0.1672 -0.0841  0.0239
 1005MOL0     C35606   2.394   7.600   2.201 -0.7880  1.0145  0.3953
 1005MOL0     C35607   2.479   7.705   2.145  0.2749 -0.8545  0.4919
 1005MOL0     H35608   2.831   7.336   2.182 -1.4576 -0.9186  2.1504
 1005MOL0     H35609   3.077   7.322   2.208  1.5051  0.1849 -1.0274
 1005MOL0     H35610   3.266   7.321   2.310 -0.1504  0.3596 -0.4960
 1005MOL0     H35611   3.308   7.388   2.154 -1.2897 -0.7865  0.1536
 1005MOL0     H35612   3.522   7.349   2.260  0.7065 -0.4442  2.4562
 1005MOL0     H35613   3.466   7.410   2.414 -3.1785 -2.9333  0.0139
 1005MOL0     H35614   3.455   7.639   2.276  0.4883 -0.1700  0.2416
 1005MOL0     H35615   3.557   7.545   2.158  2.1439  0.0560  0.8184
 1005MOL0     H35616   3.617   7.599   2.441 -1.0690  2.4811 -0.3330
 1005MOL0     H35617   3.703   7.483   2.340  1.5351  0.9496 -1.5371
 1005MOL0     H35618   3.782   7.654   2.182  0.8608  0.7240  0.1874
 1005MOL0     H35619   3.696   7.779   2.262 -0.6016 -1.6171  0.1650
 1005MOL0     H35620   3.791   7.757   2.477 -2.1727 -0.0875 -0.4779
 1005MOL0     H35621   3.874   7.612   2.432  0.2495  0.6565  3.3608
 1005MOL0     H35622   4.014   7.750   2.273  1.9608  0.7915 -0.4773
 1005MOL0     H35623   4.034   7.769   2.446  0.9552  0.8143 -1.0077
 1005MOL0     H35624   3.861   7.939   2.270  0.9298 -0.8247 -0.6885
 1005MOL0     H35625   3.889   7.971   2.444  1.7527  3.1923 -0.8964
 1005MOL0     H35626   3.966   8.074   2.128 -1.0876  0.9963  0.1065
 1005MOL0     H35627   4.107   8.305   2.074  0.5737 -0.5568 -0.7548
 1005MOL0     H35628   4.273   8.323   2.139 -0.1967  0.4668 -0.6229
 1005MOL0     H35629   4.150   8.128   1.937 -0.2579 -1.0271  1.1072
 1005MOL0     H35630   4.286   8.246   1.901  2.6479 -0.0653  1.5315
 1005MOL0     H35631   4.302   7.985   2.066  3.5458 -3.5266 -1.9013
 1005MOL0     H35632   4.418   8.112   2.078 -1.3636  0.8044 -0.3434
 1005MOL0     H35633   4.508   7.982   1.923  0.3654 -0.0079  0.4362
 1005MOL0     H35634   4.435   8.085   1.803  1.3991 -2.3346 -1.1925
 1005MOL0     H35635   4.551   7.940   1.691  1.9503  0.5393 -0.6600
 1005MOL0     H35636   4.659   7.762   1.559 -1.4205 -2.7471 -2.4346
 1005MOL0     H35637   4.775   7.237   1.572  1.5017  0.4231 -0.7117
 1005MOL0     H35638   4.860   7.080   1.386 -0.9309 -0.9134  2.7715
 1005MOL0     H35639   4.567   6.956   1.098 -0.5957 -2.7199 -2.1195
 1005MOL0     H35640   4.685   7.037   0.991  1.9668 -0.8760 -0.6490
 1005MOL0     H35641   4.724   6.827   0.933  4.7161 -1.5707 -1.2984
 1005MOL0     H35642   4.851   6.822   1.054  0.1463  1.5218  2.3775
 1005MOL0     H35643   4.696   6.713   1.210 -2.1909 -1.0881  0.3559
 1005MOL0     H35644   4.561   6.715   1.085 -0.0383 -2.4141  1.8532
 1005MOL0     H35645   4.827   6.580   1.045  0.0162 -0.5358 -0.2847
 1005MOL0     H35646   4.686   6.569   0.941  2.3349 -3.9429 -0.5034
 1005MOL0     H35647   4.697   6.373   1.057 -0.3933  0.2344 -0.8661
 1005MOL0     H35648   4.566   6.445   1.123  0.1156  0.5462  1.9206
 1005MOL0     H35649   4.663   6.544   1.312 -2.5628 -0.3890 -1.1892
 1005MOL0     H35650   4.687   6.363   1.310 -1.4965 -0.3601 -2.2023
 1005MOL0     H35651   4.887   6.575   1.276 -2.5918 -0.3124 -2.9954
 1005MOL0     H35652   4.924   6.429   1.190 -1.0044  2.0852 -0.8834
 1005MOL0     H35653   4.920   6.293   1.386 -1.9910 -0.3682  0.8467
 1005MOL0     H35654   5.024   6.423   1.426 -0.9930  4.2119  0.6561
 1005MOL0     H35655   4.514   7.140   1.167  0.4898 -0.6073  0.1893
 1005MOL0     H35656   4.425   7.302   1.338 -0.7474 -1.8111 -0.2498
 1005MOL0     H35657   4.372   7.478   1.707 -1.0309  0.5577  0.4875
 1005MOL0     H35658   4.256   7.650   1.825  0.4569 -0.7898  0.9771
 1005MOL0     H35659   3.082   7.723   2.360  2.1814  0.2139 -2.4047
 1005MOL0     H35660   2.848   7.741   2.331 -0.2982 -0.0271 -0.7332
 1005MOL0     H35661   2.383   7.321   2.396 -2.4216 -1.1957  0.3251
 1005MOL0     H35662   2.149   7.383   2.394  0.7888  0.3264  0.4179
 1005MOL0     H35663   1.946   7.542   2.426  1.0335  0.4108  1.0892
 1005MOL0     H35664   1.958   7.402   2.314  1.3188 -0.1158  3.8063
 1005MOL0     H35665   1.801   7.554   2.164  5.2071  2.5815  0.5974
 1005MOL0     H35666   1.767   7.641   2.313  0.5919  0.1251  0.3616
 1005MOL0     H35667   1.729   7.349   2.237  1.2955  0.4182  0.5253
 1005MOL0     H35668   1.602   7.459   2.257 -2.0314 -0.3692  3.7198
 1005MOL0     H35669   1.788   7.391   2.472  1.9040  3.7238 -5.0714
 1005MOL0     H35670   1.644   7.491   2.503 -2.0852 -1.2255  1.0620
 1005MOL0     H35671   1.429   7.139   2.521  0.9246 -0.1924  3.2206
 1005MOL0     H35672   2.218   7.699   2.132 -0.0049  2.5621  3.7271
 1005MOL0     H35673   2.563   7.657   2.093 -1.5465 -2.3477 -1.2545
 1005MOL0     H35674   2.431   7.782   2.084  0.7788  0.8751  2.1801
 1005MOL0     H35675   2.510   7.780   2.217  2.6418 -0.1525 -1.1522
 1006MOL0     O35676   3.155   7.857   4.804 -0.2648 -0.5316  0.5827
 1006MOL0     C35677   3.067   7.887   4.724 -0.1505 -0.1019  0.4705
 1006MOL0     O35678   3.091   7.903   4.588  0.3839  0.1305  0.1106
 1006MOL0     C35679   3.219   7.881   4.531  0.8723 -0.2214  0.1727
 1006MOL0     C35680   3.240   7.915   4.396 -0.3179 -0.2426 -0.5769
 1006MOL0     C35681   3.351   7.895   4.318 -0.4059 -0.0382 -0.0720
 1006MOL0     C35682   3.464   7.841   4.376 -0.4131 -0.1718 -0.0278
 1006MOL0     O35683   3.575   7.817   4.303  0.1756  0.2921  0.0285
 1006MOL0     C35684   3.609   7.922   4.211  0.4796  0.7726  0.0467
 1006MOL0     C35685   3.760   7.914   4.177  0.9367 -0.2091 -0.9263
 1006MOL0     C35686   3.854   7.870   4.294  0.2207  0.7347 -0.7552
 1006MOL0     C35687   3.998   7.911   4.258  0.9850 -0.7652 -0.1602
 1006MOL0     C35688   4.084   7.891   4.376 -0.8987 -0.4494  0.4480
 1006MOL0     C35689   4.227   7.941   4.341 -0.0745  1.0213  0.7150
 1006MOL0     C35690   4.319   7.927   4.465 -0.2312 -0.7624 -0.0402
 1006MOL0     C35691   4.458   8.003   4.439  0.1253  0.2562 -0.8211
 1006MOL0     N35692   4.554   7.975   4.550  0.2230 -0.3846 -1.1289
 1006MOL0     C35693   4.636   7.865   4.554  0.0910 -0.2699  0.0824
 1006MOL0     C35694   4.740   7.896   4.638  0.4821  0.5813  0.0850
 1006MOL0     C35695   4.851   7.796   4.675 -0.5829 -0.0394  0.2458
 1006MOL0     C35696   4.970   7.801   4.578 -0.1032  0.4020 -0.0461
 1006MOL0     C35697   4.957   7.726   4.449 -0.4828 -0.2229 -0.6684
 1006MOL0     C35698   4.998   7.572   4.462 -0.3142 -0.0698 -0.4565
 1006MOL0     O35699   5.110   7.545   4.553  0.1712 -0.7871 -0.1228
 1006MOL0     C35700   5.229   7.526   4.492 -0.2892  0.4159 -0.2386
 1006MOL0     C35701   5.297   7.629   4.418  0.2913  0.0865 -0.7822
 1006MOL0     C35702   5.409   7.594   4.341  0.3554  0.6053  0.4455
 1006MOL0     C35703   5.450   7.459   4.339 -0.7688  0.1640 -0.3957
 1006MOL0     C35704   5.573   7.422   4.260 -0.1061 -0.1010  0.2444
 1006MOL0     O35705   5.615   7.295   4.261  0.0883  0.5224  0.0291
 1006MOL0     C35706   5.725   7.261   4.188 -0.3447 -0.2619  0.4536
 1006MOL0     C35707   5.700   7.180   4.082 -0.5771  0.0496 -0.7856
 1006MOL0     C35708   5.795   7.125   4.006  0.4877 -0.0076 -0.3143
 1006MOL0     C35709   5.928   7.159   4.033 -0.3444 -0.3787  1.4154
 1006MOL0     O35710   6.034   7.101   3.967 -0.1146 -0.6029 -0.1374
 1006MOL0     C35711   6.021   7.047   3.830 -0.2994 -0.6779 -0.7485
 1006MOL0     C35712   6.162   7.052   3.765  0.8833  0.4947  0.9042
 1006MOL0     C35713   6.150   7.012   3.613  0.4186  0.6457 -0.2279
 1006MOL0     C35714   6.293   6.984   3.556 -0.8012 -0.3113  0.3769
 1006MOL0     C35715   6.289   6.927   3.416 -1.5820  0.4443  0.2549
 1006MOL0     C35716   6.427   6.925   3.335  0.2120  0.2124  0.0343
 1006MOL0     C35717   6.472   7.060   3.280 -0.1336 -0.6655 -0.4655
 1006MOL0     C35718   6.627   7.056   3.248  0.4223  0.1525 -0.2320
 1006MOL0    Cl35719   6.693   7.216   3.240  0.1261  0.1437 -0.0667
 1006MOL0     C35720   5.963   7.249   4.133 -0.1017 -0.1382  0.0689
 1006MOL0     C35721   5.859   7.300   4.212 -0.2503  0.2982 -0.2121
 1006MOL0     O35722   5.623   7.506   4.190  0.3033 -0.6784 -0.0049
 1006MOL0     C35723   5.388   7.358   4.418 -0.2761 -0.9894 -0.2129
 1006MOL0     C35724   5.279   7.396   4.492  0.9537  0.0762 -0.6701
 1006MOL0     N35725   4.726   8.027   4.678  0.0091 -0.5728 -0.1290
 1006MOL0     N35726   4.611   8.070   4.629 -0.9133  0.3746 -0.8677
 1006MOL0     C35727   3.453   7.804   4.517 -0.9511 -0.0229  0.9415
 1006MOL0     C35728   3.331   7.823   4.585  0.1535  0.0746  0.0943
 1006MOL0     C35729   2.922   7.878   4.770  0.1123 -0.3212  0.4176
 1006MOL0     C35730   2.829   7.943   4.692  0.0100  0.4109 -0.1908
 1006MOL0     C35731   2.696   7.939   4.729 -0.2490 -0.3430 -0.8508
 1006MOL0     C35732   2.643   7.858   4.837  0.4459  0.2553 -0.1006
 1006MOL0     O35733   2.505   7.855   4.853  0.1725  0.9235 -0.0850
 1006MOL0     C35734   2.445   7.776   4.960 -1.1022  0.0863 -0.0662
 1006MOL0     C35735   2.465   7.855   5.088  0.6345 -0.2535  0.2043
 1006MOL0     C35736   2.420   8.004   5.065 -0.4207  0.0943  0.2488
 1006MOL0     C35737   2.267   8.018   5.033 -0.3300 -0.6000  0.2469
 1006MOL0     C35738   2.177   7.941   5.119  0.8419  0.1120  1.2012
 1006MOL0     C35739   2.095   7.876   5.180  0.3689  0.5626 -0.7427
 1006MOL0     C35740   2.737   7.790   4.910 -0.5283 -0.0483 -0.6872
 1006MOL0     C35741   2.874   7.790   4.874 -0.1446 -0.7162 -0.5180
 1006MOL0     C35742   2.963   7.688   4.943  0.0644 -0.0270  0.0191
 1006MOL0     H35743   3.162   7.977   4.353 -1.4697 -1.0038  0.3345
 1006MOL0     H35744   3.357   7.931   4.216 -0.8035 -1.6252 -0.6847
 1006MOL0     H35745   3.548   7.905   4.122  0.0735  0.9544  0.2861
 1006MOL0     H35746   3.588   8.023   4.249 -1.1611  1.1053 -1.5869
 1006MOL0     H35747   3.785   8.011   4.133 -1.3878 -0.2197 -2.4758
 1006MOL0     H35748   3.780   7.840   4.099  0.2757 -2.3163  0.7932
 1006MOL0     H35749   3.854   7.761   4.306  2.1500  0.7232 -0.4699
 1006MOL0     H35750   3.824   7.915   4.389  1.6861  1.4871 -0.6198
 1006MOL0     H35751   4.040   7.848   4.179 -0.3777 -0.4205 -1.1962
 1006MOL0     H35752   4.003   8.016   4.227  1.4858 -0.2387  1.5895
 1006MOL0     H35753   4.052   7.951   4.462 -0.1994 -0.9016  1.0311
 1006MOL0     H35754   4.085   7.783   4.392 -2.6678 -0.6070 -0.2572
 1006MOL0     H35755   4.275   7.898   4.253  3.1913  1.7238  2.0161
 1006MOL0     H35756   4.210   8.045   4.309 -0.6677  1.0332  1.0454
 1006MOL0     H35757   4.341   7.822   4.487  1.0386  0.1056  3.7043
 1006MOL0     H35758   4.275   7.962   4.559  0.0000 -2.2490  0.6670
 1006MOL0     H35759   4.499   7.979   4.340 -2.3649  0.0402 -1.8645
 1006MOL0     H35760   4.429   8.108   4.444 -1.9485 -0.3105 -0.1198
 1006MOL0     H35761   4.626   7.772   4.500 -1.5966 -0.8152  1.2581
 1006MOL0     H35762   4.892   7.825   4.772  0.0866 -0.4983  0.1056
 1006MOL0     H35763   4.814   7.695   4.694 -1.2277  0.2985  0.8243
 1006MOL0     H35764   4.983   7.904   4.544 -0.1594  0.2931 -0.3953
 1006MOL0     H35765   5.061   7.778   4.634  0.6023 -0.3864 -1.4858
 1006MOL0     H35766   5.023   7.773   4.375 -0.7621  0.5211 -0.4442
 1006MOL0     H35767   4.853   7.740   4.418 -1.3075  2.0420  2.5846
 1006MOL0     H35768   5.021   7.523   4.367 -2.3685 -1.9681 -0.0493
 1006MOL0     H35769   4.905   7.523   4.490 -1.1400  0.9125 -1.3798
 1006MOL0     H35770   5.271   7.734   4.426 -1.0307 -0.3031  0.4990
 1006MOL0     H35771   5.473   7.670   4.300 -0.0529  0.2045 -0.9825
 1006MOL0     H35772   5.598   7.155   4.057 -0.4889 -1.1327 -0.0024
 1006MOL0     H35773   5.777   7.045   3.934  2.4520 -1.8709  1.1490
 1006MOL0     H35774   5.988   6.944   3.843  2.8117 -1.5970  0.5965
 1006MOL0     H35775   5.954   7.108   3.768  0.1707  1.9221  1.0838
 1006MOL0     H35776   6.199   7.155   3.770  0.6676  0.7954 -2.1386
 1006MOL0     H35777   6.233   6.989   3.819  0.3808  0.3988  1.4759
 1006MOL0     H35778   6.093   6.919   3.600  0.6199  0.4567  0.2107
 1006MOL0     H35779   6.111   7.088   3.545  0.2408  2.0910  1.4155
 1006MOL0     H35780   6.353   6.920   3.622 -0.2078 -0.8832 -0.6849
 1006MOL0     H35781   6.345   7.080   3.553 -0.8735 -0.2976 -0.5292
 1006MOL0     H35782   6.220   6.984   3.353  0.5354  2.2114 -0.6038
 1006MOL0     H35783   6.267   6.820   3.425  1.1959 -0.1372  1.1484
 1006MOL0     H35784   6.506   6.880   3.396 -0.1290  1.0426  1.1294
 1006MOL0     H35785   6.402   6.868   3.246  0.9211  1.5925 -1.0780
 1006MOL0     H35786   6.458   7.136   3.358 -1.1101 -0.9897 -0.3071
 1006MOL0     H35787   6.414   7.091   3.193 -0.4912 -0.3626 -0.1256
 1006MOL0     H35788   6.674   7.014   3.337 -0.7010  1.1896  0.9141
 1006MOL0     H35789   6.657   6.999   3.160 -0.0648  0.5990 -0.7015
 1006MOL0     H35790   6.069   7.265   4.148 -0.4294  0.9614  1.3934
 1006MOL0     H35791   5.880   7.360   4.300  1.5595  0.8051 -0.9572
 1006MOL0     H35792   5.428   7.259   4.432  1.0055 -0.5242 -0.4268
 1006MOL0     H35793   5.247   7.311   4.551  2.2251  0.4929  0.6808
 1006MOL0     H35794   3.542   7.769   4.569 -0.0302  0.2827 -0.3642
 1006MOL0     H35795   3.332   7.781   4.685 -3.0585 -0.3694  0.0691
 1006MOL0     H35796   2.867   8.001   4.608  0.2379 -1.4916 -1.4863
 1006MOL0     H35797   2.619   8.001   4.684 -0.3865  3.1421  3.5641
 1006MOL0     H35798   2.507   7.687   4.978  2.6406  2.7746  1.6423
 1006MOL0     H35799   2.338   7.766   4.938 -1.2645 -3.7572  1.5571
 1006MOL0     H35800   2.574   7.849   5.102  0.4802 -0.6260  1.3879
 1006MOL0     H35801   2.418   7.816   5.178  2.8479 -0.5666  1.3060
 1006MOL0     H35802   2.480   8.059   4.991 -1.4255 -0.0080 -0.6624
 1006MOL0     H35803   2.439   8.051   5.162 -1.8542  0.5425  0.3344
 1006MOL0     H35804   2.222   8.115   5.054 -0.2415 -0.8479  1.7029
 1006MOL0     H35805   2.242   7.992   4.930  1.0915  0.6627 -0.4569
 1006MOL0     H35806   2.032   7.808   5.235  0.5904 -0.1996 -1.4131
 1006MOL0     H35807   2.705   7.714   4.981  1.0295  0.3037  0.4392
 1006MOL0     H35808   3.044   7.655   4.878  0.2351 -1.2090  0.8025
 1006MOL0     H35809   3.016   7.731   5.029  0.7241  0.2285 -0.5136
 1006MOL0     H35810   2.910   7.599   4.977  1.7613 -1.0512  0.0597
 1007MOL0     O35811   7.144   4.906  10.434  0.9422  0.2540  0.5328
 1007MOL0     C35812   7.123   4.823  10.348 -0.3343  0.6681 -0.8226
 1007MOL0     O35813   7.225   4.753  10.276 -0.2771  0.4147 -0.4648
 1007MOL0     C35814   7.350   4.811  10.278 -0.1259 -0.5368  0.1767
 1007MOL0     C35815   7.460   4.721  10.299  0.1189  0.7413 -0.6773
 1007MOL0     C35816   7.586   4.778  10.313  0.2236  0.9983  0.9476
 1007MOL0     C35817   7.609   4.918  10.293  0.3689  1.2404 -0.1992
 1007MOL0     O35818   7.732   4.982  10.302 -0.2578  0.6721 -0.5408
 1007MOL0     C35819   7.830   4.929  10.396  0.4881 -0.4529  0.8754
 1007MOL0     C35820   7.939   5.046  10.420  0.5947  0.6737 -0.3352
 1007MOL0     C35821   8.038   5.004  10.525 -0.3074 -0.3165 -0.2434
 1007MOL0     C35822   8.158   5.101  10.537  0.9623  0.4232 -0.0453
 1007MOL0     C35823   8.280   5.045  10.600 -0.6397 -0.9643 -0.6488
 1007MOL0     C35824   8.366   5.163  10.655  0.4067  0.7493  0.1088
 1007MOL0     C35825   8.504   5.114  10.698  0.6400 -0.2736 -0.0459
 1007MOL0     C35826   8.600   5.239  10.695 -0.5743  1.0960 -0.2942
 1007MOL0     N35827   8.734   5.202  10.737 -0.4790 -0.3557 -0.0280
 1007MOL0     C35828   8.803   5.256  10.838 -0.4332 -0.2495  0.0434
 1007MOL0     C35829   8.920   5.184  10.838  0.3415  0.1203 -0.2675
 1007MOL0     C35830   9.035   5.197  10.943 -0.4573 -0.0827  0.1746
 1007MOL0     C35831   9.101   5.336  10.954  0.2224 -0.5661  0.4740
 1007MOL0     C35832   9.169   5.393  10.825  0.9831  0.0668  0.1791
 1007MOL0     C35833   9.309   5.451  10.832 -0.5084 -0.7484 -0.2675
 1007MOL0     O35834   9.335   5.518  10.956 -0.2023 -0.1854  1.0289
 1007MOL0     C35835   9.469   5.542  10.993  0.2077  0.1482  0.5433
 1007MOL0     C35836   9.491   5.572  11.127 -0.8613 -0.6736  0.1451
 1007MOL0     C35837   9.628   5.603  11.169  0.0923 -1.1813 -0.5299
 1007MOL0     C35838   9.734   5.614  11.075  0.3651  0.2704 -0.9562
 1007MOL0     C35839   9.870   5.650  11.128 -0.5550  0.6954  0.2920
 1007MOL0     O35840   9.973   5.664  11.031  0.2458  0.3719  0.8997
 1007MOL0     C35841  10.105   5.694  11.048 -0.0291 -0.4574  0.2632
 1007MOL0     C35842  10.188   5.675  10.932  0.5694  0.4903 -0.2802
 1007MOL0     C35843  10.321   5.689  10.941 -0.2436 -0.0661  0.5842
 1007MOL0     C35844  10.379   5.732  11.064 -0.3717 -0.0887 -0.2099
 1007MOL0     O35845  10.512   5.753  11.075 -0.2655  0.2665 -0.4210
 1007MOL0     C35846  10.599   5.804  10.977  0.8458  0.2485 -0.7513
 1007MOL0     C35847  10.733   5.837  11.032 -0.6092  0.1634 -0.2890
 1007MOL0     C35848  10.836   5.896  10.931 -0.3154 -0.0856 -0.0553
 1007MOL0     C35849  10.977   5.893  10.972  0.0681 -0.2813  0.7933
 1007MOL0     C35850  11.050   5.757  10.929  0.3175  0.9080 -0.2529
 1007MOL0     C35851  11.189   5.761  10.990 -0.0335 -0.7622 -1.0565
 1007MOL0     C35852  11.261   5.625  11.003  0.7491 -0.8362  0.8772
 1007MOL0     C35853  11.259   5.530  10.877 -0.4351 -0.2000 -0.4039
 1007MOL0    Cl35854  11.339   5.611  10.732  0.2293  0.2406  0.0050
 1007MOL0     C35855  10.299   5.757  11.176 -0.0338  0.1672  0.4029
 1007MOL0     C35856  10.160   5.735  11.170  0.7343  0.0229 -1.0263
 1007MOL0     O35857   9.876   5.672  11.251  0.0523  0.0356  0.4812
 1007MOL0     C35858   9.708   5.587  10.936 -0.7641  0.3720 -0.6402
 1007MOL0     C35859   9.575   5.553  10.901 -0.5776  0.1280  0.1312
 1007MOL0     N35860   8.921   5.101  10.725  1.2446 -0.3883  0.1858
 1007MOL0     N35861   8.803   5.112  10.665 -0.0281 -0.4937 -0.5002
 1007MOL0     C35862   7.496   5.001  10.278 -0.6565 -0.1954  0.8747
 1007MOL0     C35863   7.362   4.951  10.275  0.1824  0.1887 -0.0094
 1007MOL0     C35864   6.988   4.776  10.335 -0.3595 -0.1736  0.0215
 1007MOL0     C35865   6.937   4.779  10.204  0.1969 -0.5356  0.8270
 1007MOL0     C35866   6.811   4.716  10.183  0.1558 -0.7614  0.5572
 1007MOL0     C35867   6.734   4.663  10.283 -0.5629 -0.5346  0.5104
 1007MOL0     O35868   6.616   4.592  10.265  0.1716  0.0227 -0.0872
 1007MOL0     C35869   6.542   4.621  10.150 -0.4263 -0.7548 -0.3883
 1007MOL0     C35870   6.564   4.516  10.049 -0.3697 -0.3530 -0.0866
 1007MOL0     C35871   6.535   4.565   9.901 -0.3279 -0.4265 -0.6980
 1007MOL0     C35872   6.569   4.457   9.798  0.2404  0.5411 -0.1096
 1007MOL0     C35873   6.715   4.437   9.784 -0.0399 -0.4968  0.7127
 1007MOL0     C35874   6.834   4.428   9.769  1.1097  0.7826 -0.0595
 1007MOL0     C35875   6.787   4.666  10.409  0.8520  0.1773 -0.2608
 1007MOL0     C35876   6.915   4.717  10.443  0.2715  0.0383 -1.2782
 1007MOL0     C35877   6.967   4.723  10.589 -0.4892  0.5807 -0.7645
 1007MOL0     H35878   7.463   4.614  10.317 -0.5589  0.9632  0.8973
 1007MOL0     H35879   7.663   4.702  10.323  0.8923  0.9073 -3.3350
 1007MOL0     H35880   7.772   4.898  10.484 -1.2489  1.7615  0.6183
 1007MOL0     H35881   7.876   4.839  10.355 -0.2221 -1.1611  1.5960
 1007MOL0     H35882   7.895   5.138  10.459  1.8312  1.4578 -0.7532
 1007MOL0     H35883   7.990   5.068  10.326 -0.0078  0.5290 -0.6996
 1007MOL0     H35884   8.088   4.911  10.497  2.5752  0.8251  0.7897
 1007MOL0     H35885   7.989   4.994  10.623 -2.1347  2.3360 -0.7838
 1007MOL0     H35886   8.181   5.135  10.435  1.4342  0.1437 -0.0375
 1007MOL0     H35887   8.130   5.187  10.599  0.6808  0.0257  0.3793
 1007MOL0     H35888   8.252   4.974  10.678 -0.4257 -0.1749  0.1611
 1007MOL0     H35889   8.336   4.993  10.522 -0.7992 -0.7212 -0.9307
 1007MOL0     H35890   8.378   5.234  10.573 -1.0294  0.5611 -0.2922
 1007MOL0     H35891   8.301   5.202  10.733 -4.5780 -1.3283 -2.5105
 1007MOL0     H35892   8.532   5.027  10.637 -0.5185 -1.6521  1.2693
 1007MOL0     H35893   8.511   5.074  10.800  1.0245 -0.0516  0.0157
 1007MOL0     H35894   8.593   5.286  10.597 -4.0364 -0.4550 -0.9256
 1007MOL0     H35895   8.569   5.320  10.762 -2.1131 -0.5727  1.1092
 1007MOL0     H35896   8.786   5.338  10.907  2.2584  0.6407 -0.2283
 1007MOL0     H35897   9.001   5.156  11.039 -0.4487 -0.0585  0.1875
 1007MOL0     H35898   9.105   5.119  10.911 -0.8330 -0.6508  0.7146
 1007MOL0     H35899   9.026   5.409  10.986  2.2592  1.8850  0.0030
 1007MOL0     H35900   9.180   5.328  11.029  2.5601 -0.5499 -1.8575
 1007MOL0     H35901   9.102   5.467  10.780  1.4926  0.4742  0.0740
 1007MOL0     H35902   9.182   5.305  10.762  1.2647 -0.5436  1.0735
 1007MOL0     H35903   9.324   5.532  10.759  0.4177  0.1954  0.9233
 1007MOL0     H35904   9.383   5.372  10.820 -0.8249 -0.9995 -0.6012
 1007MOL0     H35905   9.423   5.560  11.211  1.3299  0.2849  2.1555
 1007MOL0     H35906   9.644   5.629  11.273  1.7080 -0.8700 -0.8184
 1007MOL0     H35907  10.145   5.643  10.837  0.4538 -1.7733  0.4669
 1007MOL0     H35908  10.380   5.669  10.852  1.4005 -0.7863  1.7861
 1007MOL0     H35909  10.600   5.732  10.894 -1.3707 -0.0117 -0.6164
 1007MOL0     H35910  10.556   5.897  10.938  0.9109  1.8128  2.6206
 1007MOL0     H35911  10.716   5.920  11.102 -3.5263 -1.0274  0.5630
 1007MOL0     H35912  10.783   5.751  11.078 -1.0706  0.3729  0.6285
 1007MOL0     H35913  10.824   5.848  10.834 -2.1423 -0.0086  0.1000
 1007MOL0     H35914  10.806   6.001  10.924 -3.4068 -1.0103 -3.4142
 1007MOL0     H35915  10.992   5.920  11.077 -0.6390  3.6995  0.0226
 1007MOL0     H35916  11.033   5.965  10.912 -3.2014  1.2852 -0.6235
 1007MOL0     H35917  11.040   5.765  10.820 -2.4150 -2.4973 -0.4250
 1007MOL0     H35918  10.989   5.672  10.961 -0.5705  1.7037  0.2485
 1007MOL0     H35919  11.250   5.839  10.943  0.2995  0.6442  1.5266
 1007MOL0     H35920  11.183   5.789  11.095  1.8835  2.1821 -1.6261
 1007MOL0     H35921  11.227   5.568  11.090 -0.8339 -1.8090 -0.3280
 1007MOL0     H35922  11.369   5.639  11.008  0.5277  1.0783  0.7470
 1007MOL0     H35923  11.317   5.437  10.889 -1.7533 -0.9488  0.3533
 1007MOL0     H35924  11.157   5.497  10.854 -0.4693  0.1595 -0.7697
 1007MOL0     H35925  10.342   5.797  11.267  2.5859  0.1764 -0.7603
 1007MOL0     H35926  10.097   5.743  11.259  1.0447  1.6226 -0.9231
 1007MOL0     H35927   9.783   5.581  10.858  1.5289  4.0012  1.0063
 1007MOL0     H35928   9.546   5.533  10.799  1.5118 -5.0965  0.2772
 1007MOL0     H35929   7.519   5.106  10.266  0.2260 -0.6913 -4.1615
 1007MOL0     H35930   7.286   5.027  10.260  2.6637  2.5142 -1.7620
 1007MOL0     H35931   7.000   4.817  10.124 -2.9007  0.9446 -1.0810
 1007MOL0     H35932   6.784   4.698  10.079 -0.0936  1.0972  0.2710
 1007MOL0     H35933   6.562   4.720  10.107  2.8058 -1.0575  0.1535
 1007MOL0     H35934   6.434   4.626  10.170 -0.4937 -0.2396 -0.8243
 1007MOL0     H35935   6.494   4.433  10.063 -1.1996  0.3094 -0.2559
 1007MOL0     H35936   6.670   4.490  10.052  0.3236  2.1049 -0.8920
 1007MOL0     H35937   6.590   4.657   9.883  0.5635 -0.3922  1.8443
 1007MOL0     H35938   6.430   4.593   9.884  0.1393  2.8418  1.0952
 1007MOL0     H35939   6.522   4.363   9.828  0.5312  1.1264  2.3913
 1007MOL0     H35940   6.541   4.486   9.696  2.8932  1.1944 -0.7418
 1007MOL0     H35941   6.941   4.428   9.773  1.1646  0.6012 -1.1939
 1007MOL0     H35942   6.732   4.613  10.485  1.2238 -1.6472 -1.1931
 1007MOL0     H35943   6.899   4.682  10.664 -0.2932  0.8926 -0.4112
 1007MOL0     H35944   7.053   4.656  10.587 -0.2440  0.7395  1.7080
 1007MOL0     H35945   7.000   4.820  10.629  1.5448 -0.7507  1.0038
 1008MOL0     O35946   9.187  10.675  10.123 -0.5820  0.4887  0.4256
 1008MOL0     C35947   9.113  10.748  10.187  0.4744 -0.3447  0.6267
 1008MOL0     O35948   9.151  10.835  10.293 -0.2742 -0.5172  0.4905
 1008MOL0     C35949   9.274  10.885  10.314  0.3578 -0.7104  0.4773
 1008MOL0     C35950   9.293  10.968  10.419 -0.2617  0.6110  0.4464
 1008MOL0     C35951   9.421  11.033  10.437  0.2560  0.0523 -0.8587
 1008MOL0     C35952   9.516  11.031  10.338 -0.2248  0.0738 -0.2337
 1008MOL0     O35953   9.630  11.101  10.350  0.4433  0.3375  0.3909
 1008MOL0     C35954   9.616  11.234  10.390 -0.1566 -0.2174 -0.9011
 1008MOL0     C35955   9.763  11.288  10.425 -0.1697 -0.2332  0.6769
 1008MOL0     C35956   9.846  11.289  10.301 -0.5195  0.3744  0.1897
 1008MOL0     C35957   9.982  11.363  10.304 -0.0515 -0.2366 -0.5727
 1008MOL0     C35958  10.076  11.293  10.406 -0.1391 -0.6033  0.4523
 1008MOL0     C35959  10.208  11.374  10.419  0.5055  0.0029 -0.9909
 1008MOL0     C35960  10.303  11.292  10.510 -0.2910  0.0368  0.6991
 1008MOL0     C35961  10.373  11.180  10.438  0.0064  0.7727  0.3974
 1008MOL0     N35962  10.498  11.131  10.504  0.5527 -0.1156 -0.4718
 1008MOL0     C35963  10.580  11.206  10.585 -0.1090  0.0458  0.4103
 1008MOL0     C35964  10.679  11.120  10.621  0.3909 -0.7908  0.0344
 1008MOL0     C35965  10.801  11.150  10.703 -0.0032  0.0749 -0.2058
 1008MOL0     C35966  10.916  11.050  10.688  0.4220  0.4574  0.6581
 1008MOL0     C35967  10.973  11.034  10.550 -0.4800 -0.0566  0.0061
 1008MOL0     C35968  11.120  10.995  10.543 -0.8567  0.1949 -0.2955
 1008MOL0     O35969  11.189  11.085  10.624 -0.4046  0.2200 -0.3006
 1008MOL0     C35970  11.316  11.059  10.648 -0.5196 -0.3829  0.1760
 1008MOL0     C35971  11.377  10.938  10.628 -0.3666 -0.3160  0.1523
 1008MOL0     C35972  11.514  10.923  10.649 -0.7942 -0.8787 -0.3852
 1008MOL0     C35973  11.590  11.035  10.689  0.0899 -0.9609  0.7775
 1008MOL0     C35974  11.740  11.021  10.691  0.3348 -0.1133 -0.7742
 1008MOL0     O35975  11.807  11.137  10.685  0.0142  0.4008  0.5031
 1008MOL0     C35976  11.929  11.125  10.738 -0.9223 -0.3564  0.0407
 1008MOL0     C35977  11.952  11.127  10.875  0.3371  0.1882  0.8624
 1008MOL0     C35978  12.079  11.125  10.931  0.0612 -0.7382 -0.6050
 1008MOL0     C35979  12.188  11.102  10.848  0.2319 -0.1837 -0.6722
 1008MOL0     O35980  12.318  11.095  10.887  0.0624 -0.8696  0.2103
 1008MOL0     C35981  12.360  11.199  10.978  0.2176 -0.6602  0.6637
 1008MOL0     C35982  12.375  11.326  10.894 -0.3604  0.2448  0.3560
 1008MOL0     C35983  12.482  11.303  10.780 -0.5073  0.0387  0.1930
 1008MOL0     C35984  12.623  11.244  10.810 -0.2197 -0.7240  0.1246
 1008MOL0     C35985  12.704  11.224  10.672 -1.2024  0.2278  0.4195
 1008MOL0     C35986  12.832  11.159  10.707  0.5525 -0.0461  0.5370
 1008MOL0     C35987  12.919  11.147  10.582 -0.8601  0.6924  0.8792
 1008MOL0     C35988  13.064  11.117  10.623 -0.3657 -0.5688  0.5842
 1008MOL0    Cl35989  13.084  10.956  10.715  0.3253  0.0637  0.0702
 1008MOL0     C35990  12.166  11.084  10.711  0.5041  0.5619  0.0127
 1008MOL0     C35991  12.038  11.097  10.658  0.2898 -0.4660 -1.1907
 1008MOL0     O35992  11.792  10.906  10.703 -0.2909  0.2117  0.2029
 1008MOL0     C35993  11.531  11.165  10.704 -0.8135  0.3053 -0.8770
 1008MOL0     C35994  11.390  11.168  10.698 -0.3587 -0.5969 -0.8561
 1008MOL0     N35995  10.652  10.997  10.554  0.4656  0.1463 -0.5551
 1008MOL0     N35996  10.544  11.008  10.490  0.1357  0.5029 -0.2171
 1008MOL0     C35997   9.495  10.935  10.236  0.6147 -0.1891  0.1070
 1008MOL0     C35998   9.383  10.865  10.233  0.4631 -0.0014 -0.4117
 1008MOL0     C35999   8.972  10.749  10.144  0.4952 -0.6254 -0.3637
 1008MOL0     C36000   8.934  10.672  10.039 -0.0139  1.2906  0.9110
 1008MOL0     C36001   8.798  10.648   9.997 -0.6213  0.6903 -0.8991
 1008MOL0     C36002   8.694  10.700  10.076  0.1099 -0.8930 -0.1953
 1008MOL0     O36003   8.569  10.664  10.029 -0.0328  0.2070  0.4839
 1008MOL0     C36004   8.464  10.726  10.104  0.6053  0.3677 -0.8363
 1008MOL0     C36005   8.336  10.644  10.062 -0.3126 -1.6534  0.3057
 1008MOL0     C36006   8.215  10.674  10.154 -0.3008  0.4118 -0.2803
 1008MOL0     C36007   8.105  10.571  10.144  0.2141 -0.0324 -0.3495
 1008MOL0     C36008   8.017  10.591  10.257  0.5268 -0.0104  0.4699
 1008MOL0     C36009   7.951  10.614  10.352 -0.2418  0.8905  0.0118
 1008MOL0     C36010   8.730  10.782  10.192 -0.5945  0.3497  0.4617
 1008MOL0     C36011   8.865  10.798  10.231  0.2251  0.1055 -0.4100
 1008MOL0     C36012   8.876  10.865  10.365 -0.6314 -0.2858 -0.1123
 1008MOL0     H36013   9.218  10.964  10.497 -0.2813 -1.2032  0.3897
 1008MOL0     H36014   9.444  11.077  10.534  2.7097 -2.5882 -0.1065
 1008MOL0     H36015   9.568  11.279  10.303  0.1280  0.7572 -0.5680
 1008MOL0     H36016   9.541  11.254  10.467 -1.2314 -2.1429 -1.3762
 1008MOL0     H36017   9.801  11.224  10.505  0.4805 -0.6153  0.0694
 1008MOL0     H36018   9.756  11.390  10.465 -1.9334 -0.8838  2.1865
 1008MOL0     H36019   9.787  11.313  10.212 -0.0259 -1.8296 -0.7983
 1008MOL0     H36020   9.880  11.187  10.281 -0.3625  0.5793 -0.6524
 1008MOL0     H36021  10.027  11.357  10.205  2.0457  0.3598  0.2849
 1008MOL0     H36022   9.965  11.468  10.328 -0.4832 -0.5606  0.6427
 1008MOL0     H36023  10.031  11.281  10.505  3.0368 -0.8664  2.0160
 1008MOL0     H36024  10.097  11.191  10.371  1.6532 -1.1064  2.7098
 1008MOL0     H36025  10.258  11.404  10.326  1.3366  3.3730  0.3730
 1008MOL0     H36026  10.178  11.460  10.479  1.8777 -1.0518  1.3399
 1008MOL0     H36027  10.255  11.247  10.597 -2.0092 -0.8884 -0.6727
 1008MOL0     H36028  10.381  11.364  10.539 -0.4397 -0.5169  2.6317
 1008MOL0     H36029  10.302  11.098  10.419  0.3862  0.6152 -0.3655
 1008MOL0     H36030  10.409  11.227  10.347  2.0060  0.7102  1.1089
 1008MOL0     H36031  10.569  11.313  10.601 -2.9009 -0.4648  2.9425
 1008MOL0     H36032  10.833  11.248  10.664 -1.6726  0.1160 -1.5771
 1008MOL0     H36033  10.775  11.164  10.808  2.7753 -0.0259  0.5896
 1008MOL0     H36034  10.992  11.083  10.760  0.8258 -0.4742  0.6640
 1008MOL0     H36035  10.882  10.951  10.719 -3.0489  1.3975  0.2901
 1008MOL0     H36036  10.938  11.118  10.489 -2.6921 -2.3847 -2.1824
 1008MOL0     H36037  10.929  10.950  10.496  0.4822 -1.2703  1.0332
 1008MOL0     H36038  11.148  10.990  10.437 -2.4551 -1.2633 -0.7091
 1008MOL0     H36039  11.122  10.893  10.583  0.6053  0.2727 -0.1435
 1008MOL0     H36040  11.318  10.853  10.597 -1.1227 -0.2268  1.2828
 1008MOL0     H36041  11.565  10.831  10.623 -0.4458 -0.6577 -0.5064
 1008MOL0     H36042  11.867  11.149  10.938 -0.5184  0.9549 -0.5039
 1008MOL0     H36043  12.090  11.122  11.039 -1.8041  1.1907 -0.2747
 1008MOL0     H36044  12.283  11.216  11.055 -0.2375 -3.3004  0.9033
 1008MOL0     H36045  12.452  11.165  11.026  1.5965 -0.3342 -1.6216
 1008MOL0     H36046  12.280  11.355  10.847 -0.1268  1.7484  0.7793
 1008MOL0     H36047  12.412  11.411  10.952 -1.6068  0.1106  1.3956
 1008MOL0     H36048  12.436  11.245  10.700  0.7931  1.6874 -1.8430
 1008MOL0     H36049  12.481  11.400  10.730 -0.9237 -1.0308 -1.9701
 1008MOL0     H36050  12.613  11.149  10.861 -0.5197 -0.0682  1.3243
 1008MOL0     H36051  12.676  11.310  10.880  2.3931 -2.2140 -0.2940
 1008MOL0     H36052  12.718  11.308  10.604 -1.3165  1.4734  1.8813
 1008MOL0     H36053  12.647  11.156  10.608 -0.0477  1.9529 -2.6371
 1008MOL0     H36054  12.879  11.227  10.778 -1.5336  2.7096 -0.5218
 1008MOL0     H36055  12.801  11.058  10.738  1.0288 -0.9360 -1.6832
 1008MOL0     H36056  12.913  11.242  10.528 -1.8539  0.9873  1.4849
 1008MOL0     H36057  12.871  11.077  10.513  0.3718  1.2080 -0.5774
 1008MOL0     H36058  13.123  11.116  10.531  1.0861 -1.0995  1.4919
 1008MOL0     H36059  13.099  11.199  10.687 -3.2256  0.1184  1.4321
 1008MOL0     H36060  12.252  11.083  10.644  1.1595  1.1673  0.8068
 1008MOL0     H36061  12.027  11.088  10.551 -2.1690 -1.9874 -0.8817
 1008MOL0     H36062  11.575  11.261  10.726  1.2532 -1.0257  1.3639
 1008MOL0     H36063  11.343  11.262  10.725  1.0699  0.4266 -1.7669
 1008MOL0     H36064   9.550  10.916  10.144 -0.6166  2.5874 -1.3485
 1008MOL0     H36065   9.376  10.797  10.149 -2.0269  0.0144 -0.2981
 1008MOL0     H36066   9.012  10.625   9.980  0.2797  2.6687  0.1559
 1008MOL0     H36067   8.775  10.585   9.911 -1.8425  0.8408 -0.7114
 1008MOL0     H36068   8.444  10.833  10.094 -0.4210  0.3789  0.8495
 1008MOL0     H36069   8.479  10.707  10.211  1.0194  3.3191 -0.2756
 1008MOL0     H36070   8.361  10.538  10.055  1.0523 -1.2338 -1.9925
 1008MOL0     H36071   8.304  10.676   9.963 -3.3062 -1.2097  1.3238
 1008MOL0     H36072   8.180  10.773  10.122  0.0075  0.5215 -0.2809
 1008MOL0     H36073   8.242  10.690  10.259 -4.3369 -1.9502  1.3551
 1008MOL0     H36074   8.056  10.588  10.048  0.1856 -0.5122 -0.4214
 1008MOL0     H36075   8.139  10.468  10.151 -0.4636 -0.1645  2.6815
 1008MOL0     H36076   7.891  10.645  10.435 -1.9718  1.4304 -1.4032
 1008MOL0     H36077   8.662  10.829  10.262  1.6664  2.1260  1.6313
 1008MOL0     H36078   8.781  10.885  10.415  0.3520  2.1219  0.9931
 1008MOL0     H36079   8.933  10.799  10.430  1.0399  1.0142 -0.1804
 1008MOL0     H36080   8.926  10.962  10.355 -2.3757  0.7155  0.3624
 1009MOL0     O36081   4.031   5.343   8.457  0.5233 -0.9482  0.2560
 1009MOL0     C36082   4.043   5.235   8.404 -0.1921 -0.0842  0.4606
 1009MOL0     O36083   4.155   5.193   8.344 -0.5002 -0.1933 -0.4314
 1009MOL0     C36084   4.260   5.277   8.362  0.5002  0.1332  0.0905
 1009MOL0     C36085   4.355   5.257   8.466 -0.5543 -0.0766  0.4223
 1009MOL0     C36086   4.450   5.357   8.491  0.3442 -0.4191 -0.3744
 1009MOL0     C36087   4.454   5.474   8.413 -0.3502 -0.2721  0.4463
 1009MOL0     O36088   4.532   5.586   8.445 -0.0622  0.6923  0.2467
 1009MOL0     C36089   4.663   5.559   8.501 -0.0161 -0.0667  0.4142
 1009MOL0     C36090   4.662   5.596   8.651 -0.3487 -0.3045  0.3271
 1009MOL0     C36091   4.805   5.575   8.697 -0.2403  1.0335 -0.1167
 1009MOL0     C36092   4.807   5.573   8.849 -0.1437  0.3654 -0.3606
 1009MOL0     C36093   4.950   5.541   8.909  0.2637  0.4080  0.3656
 1009MOL0     C36094   5.048   5.657   8.873 -0.2923 -0.1650  0.0843
 1009MOL0     C36095   5.164   5.667   8.977  0.1501  0.2961  0.6657
 1009MOL0     C36096   5.285   5.752   8.938 -0.1039  0.0201 -0.0350
 1009MOL0     N36097   5.380   5.759   9.050  0.0735 -0.3549 -0.0120
 1009MOL0     C36098   5.409   5.878   9.113  0.1108  0.1622 -0.2737
 1009MOL0     C36099   5.529   5.848   9.171 -0.1960  0.2574  0.0479
 1009MOL0     C36100   5.618   5.939   9.246  0.1760 -0.2989  0.4233
 1009MOL0     C36101   5.771   5.926   9.228  0.3542  0.8744  0.5089
 1009MOL0     C36102   5.838   5.797   9.283 -0.0172 -0.1033  0.4717
 1009MOL0     C36103   5.989   5.789   9.248 -0.0953  0.0477  0.4027
 1009MOL0     O36104   6.040   5.674   9.322  0.5242 -0.3820  0.5643
 1009MOL0     C36105   6.176   5.663   9.335  0.3778  0.8947 -0.2657
 1009MOL0     C36106   6.207   5.551   9.409  0.3468 -0.0579  0.1953
 1009MOL0     C36107   6.341   5.506   9.409  1.4946 -1.1900 -0.8098
 1009MOL0     C36108   6.447   5.573   9.338  0.3835  0.4990  0.0073
 1009MOL0     C36109   6.592   5.536   9.347 -0.1958  0.9484 -1.2811
 1009MOL0     O36110   6.613   5.423   9.427  0.2289  0.3938  0.1361
 1009MOL0     C36111   6.731   5.400   9.500  0.0918  0.0105  0.7730
 1009MOL0     C36112   6.855   5.473   9.514  0.5541 -0.6548 -0.2091
 1009MOL0     C36113   6.962   5.412   9.581  1.2804 -0.5152  0.2610
 1009MOL0     C36114   6.948   5.297   9.656 -0.7226  0.5433  0.1506
 1009MOL0     O36115   7.047   5.227   9.715  0.0474 -0.3107 -0.2688
 1009MOL0     C36116   7.186   5.279   9.705 -0.4580  0.3346 -0.2598
 1009MOL0     C36117   7.257   5.224   9.581  0.3240 -0.2566  0.1789
 1009MOL0     C36118   7.395   5.297   9.548  0.5600  0.3280  0.0654
 1009MOL0     C36119   7.489   5.282   9.669  0.8386 -0.1775  0.2256
 1009MOL0     C36120   7.626   5.337   9.632 -0.2145  0.3143 -0.1333
 1009MOL0     C36121   7.721   5.222   9.662 -0.8855 -0.5171 -0.0661
 1009MOL0     C36122   7.865   5.272   9.626  0.4214  0.6205 -0.0647
 1009MOL0     C36123   7.973   5.166   9.636  1.1039  0.1642 -0.2626
 1009MOL0    Cl36124   8.138   5.221   9.619  0.3686 -0.1667  0.1787
 1009MOL0     C36125   6.823   5.234   9.658  1.1468  0.1430  0.6109
 1009MOL0     C36126   6.716   5.283   9.578  0.2747 -0.4332  0.0706
 1009MOL0     O36127   6.683   5.588   9.283  0.0838 -0.1821  0.3279
 1009MOL0     C36128   6.417   5.684   9.264  0.6233 -1.1956  0.6293
 1009MOL0     C36129   6.280   5.727   9.263  0.4508  0.4904  0.1323
 1009MOL0     N36130   5.559   5.718   9.135 -0.1347  0.1923  0.0601
 1009MOL0     N36131   5.471   5.664   9.067  0.3621  0.0287  0.5579
 1009MOL0     C36132   4.361   5.485   8.308  0.4100 -0.8215  0.5079
 1009MOL0     C36133   4.269   5.383   8.278 -0.0520 -1.4719  0.2084
 1009MOL0     C36134   3.933   5.138   8.422 -0.2737 -0.1362  0.1084
 1009MOL0     C36135   3.807   5.193   8.457 -0.7506  0.3042  1.1678
 1009MOL0     C36136   3.707   5.112   8.480 -0.1194  0.2539 -0.3449
 1009MOL0     C36137   3.716   4.976   8.457 -0.1600 -0.1555 -0.7179
 1009MOL0     O36138   3.603   4.902   8.491  0.1345  0.0510 -0.1973
 1009MOL0     C36139   3.586   4.758   8.463  0.4382 -0.1607  0.0662
 1009MOL0     C36140   3.437   4.723   8.485  0.1136 -0.4022  0.3307
 1009MOL0     C36141   3.406   4.582   8.498  1.4216  0.3715  0.2956
 1009MOL0     C36142   3.252   4.554   8.523 -0.3104 -0.7489 -0.2490
 1009MOL0     C36143   3.250   4.413   8.539  0.4583 -0.0532 -1.0303
 1009MOL0     C36144   3.249   4.292   8.549  1.1376  0.0238 -0.7439
 1009MOL0     C36145   3.835   4.919   8.415 -0.3764 -0.3234  0.3262
 1009MOL0     C36146   3.952   4.998   8.395 -1.1565 -0.1449 -0.1043
 1009MOL0     C36147   4.068   4.936   8.331  0.2295 -0.2845 -0.0184
 1009MOL0     H36148   4.363   5.173   8.534  1.0418 -2.0948 -2.0533
 1009MOL0     H36149   4.520   5.355   8.574  1.8855 -0.7988 -1.6156
 1009MOL0     H36150   4.699   5.457   8.486  2.2667  0.7040  0.2177
 1009MOL0     H36151   4.741   5.621   8.455  0.3180 -0.6197  0.2198
 1009MOL0     H36152   4.588   5.532   8.700 -3.5453 -0.5043 -4.1270
 1009MOL0     H36153   4.635   5.702   8.652 -0.2441 -0.2713 -0.1817
 1009MOL0     H36154   4.881   5.648   8.668 -0.5393  0.9150 -1.2146
 1009MOL0     H36155   4.845   5.475   8.678  1.7315  0.9505  3.5380
 1009MOL0     H36156   4.769   5.673   8.871 -0.4664  0.9035 -3.0530
 1009MOL0     H36157   4.733   5.495   8.869 -1.5017  1.0793 -2.3253
 1009MOL0     H36158   4.938   5.539   9.018 -2.9774 -0.3907  0.0828
 1009MOL0     H36159   4.993   5.453   8.860  2.1276  1.3438  0.2404
 1009MOL0     H36160   5.082   5.643   8.770 -1.9108  1.5483 -0.7436
 1009MOL0     H36161   4.988   5.749   8.866  2.1326  1.3752 -3.3451
 1009MOL0     H36162   5.202   5.569   9.006 -1.4330  0.2880  2.9417
 1009MOL0     H36163   5.120   5.717   9.064 -2.9091 -1.5385  0.2960
 1009MOL0     H36164   5.345   5.713   8.856  0.8292  1.9347 -0.3219
 1009MOL0     H36165   5.244   5.846   8.901  0.8199  0.6271  0.4324
 1009MOL0     H36166   5.345   5.966   9.117  0.7544  0.6086  3.2523
 1009MOL0     H36167   5.594   6.044   9.228  0.8859 -0.0806  0.6756
 1009MOL0     H36168   5.597   5.935   9.353  0.6263  1.6730  0.6187
 1009MOL0     H36169   5.796   5.932   9.121 -0.1661  1.5808  0.4134
 1009MOL0     H36170   5.813   6.018   9.269  0.4229  1.1012 -0.0508
 1009MOL0     H36171   5.786   5.711   9.240  2.0524 -0.8921 -0.6343
 1009MOL0     H36172   5.836   5.809   9.391  1.1914  0.6328  0.4334
 1009MOL0     H36173   6.041   5.875   9.291 -0.0798 -0.0222  0.5230
 1009MOL0     H36174   6.013   5.779   9.142  2.6942 -1.4745  1.0787
 1009MOL0     H36175   6.130   5.496   9.463 -1.0858 -1.1670 -2.7882
 1009MOL0     H36176   6.354   5.415   9.467  0.4722 -1.7413 -1.4183
 1009MOL0     H36177   6.862   5.560   9.449  2.4297 -0.9423 -0.4428
 1009MOL0     H36178   7.051   5.473   9.569 -0.0103  1.0526 -2.4856
 1009MOL0     H36179   7.196   5.387   9.712  1.8514  0.0934  1.2959
 1009MOL0     H36180   7.238   5.234   9.789  2.1792 -0.6010 -2.2499
 1009MOL0     H36181   7.275   5.118   9.600  3.3030 -0.2380 -1.9012
 1009MOL0     H36182   7.188   5.226   9.497  0.4346  0.5813  0.1011
 1009MOL0     H36183   7.449   5.258   9.461  0.2617 -0.1584  0.0897
 1009MOL0     H36184   7.369   5.400   9.522 -0.6550  0.6171  2.1765
 1009MOL0     H36185   7.492   5.173   9.680 -2.3326 -0.5558 -1.4778
 1009MOL0     H36186   7.453   5.323   9.764  0.6747 -0.5346  0.3180
 1009MOL0     H36187   7.656   5.415   9.703 -1.4607 -0.2083  1.0072
 1009MOL0     H36188   7.637   5.364   9.527 -0.0333 -0.9442 -0.4497
 1009MOL0     H36189   7.714   5.193   9.767  0.1697  3.2345  1.1934
 1009MOL0     H36190   7.707   5.134   9.597 -0.7917  0.0164 -0.8255
 1009MOL0     H36191   7.895   5.349   9.698 -0.8863 -0.1077  1.3249
 1009MOL0     H36192   7.873   5.313   9.525 -0.0384  0.2105 -0.2726
 1009MOL0     H36193   7.975   5.122   9.736  0.3027 -3.0639 -1.5138
 1009MOL0     H36194   7.958   5.088   9.560  1.3948  1.7399 -2.0101
 1009MOL0     H36195   6.810   5.146   9.720 -2.4106  0.6314  0.7437
 1009MOL0     H36196   6.618   5.237   9.570 -1.4626  2.5870  1.8338
 1009MOL0     H36197   6.500   5.736   9.217  0.3987  1.0044  2.4976
 1009MOL0     H36198   6.258   5.818   9.207  0.7413 -0.1266 -1.0161
 1009MOL0     H36199   4.354   5.578   8.253 -1.7324 -1.1268  0.1483
 1009MOL0     H36200   4.194   5.410   8.204 -0.9069 -1.6941  0.9710
 1009MOL0     H36201   3.783   5.293   8.491 -5.2632 -1.0632  2.6887
 1009MOL0     H36202   3.614   5.156   8.516 -0.5797  0.5146 -1.7993
 1009MOL0     H36203   3.651   4.709   8.536  4.4667  3.1787 -0.9055
 1009MOL0     H36204   3.617   4.725   8.363  0.1515  1.0908 -0.4656
 1009MOL0     H36205   3.378   4.747   8.396 -0.6201 -0.1871  0.8672
 1009MOL0     H36206   3.396   4.777   8.571 -2.3966 -4.3014  1.8820
 1009MOL0     H36207   3.465   4.536   8.577  0.2387 -0.1216  0.9251
 1009MOL0     H36208   3.429   4.532   8.403  0.1537 -0.0427  0.1802
 1009MOL0     H36209   3.213   4.606   8.611  0.9152 -1.8043  0.9506
 1009MOL0     H36210   3.188   4.582   8.438  1.4245 -0.4535 -1.5153
 1009MOL0     H36211   3.243   4.186   8.531  0.3161  0.2916 -2.2271
 1009MOL0     H36212   3.834   4.817   8.376 -0.0212  0.9659 -3.5011
 1009MOL0     H36213   4.048   4.829   8.324 -3.0276  0.2435 -0.0080
 1009MOL0     H36214   4.081   4.980   8.232  3.2763 -0.1588  0.3389
 1009MOL0     H36215   4.162   4.958   8.384  0.5516  0.2772 -0.8066
 1010MOL0     O36216   2.946   8.276   0.740  0.0563  0.3177 -0.8624
 1010MOL0     C36217   2.959   8.390   0.696  0.5805 -0.0678  0.8663
 1010MOL0     O36218   3.079   8.448   0.664 -0.0412 -0.6390  0.2303
 1010MOL0     C36219   3.203   8.390   0.693  0.2535  0.1028 -0.3274
 1010MOL0     C36220   3.311   8.468   0.735  0.0966 -0.7319 -0.3550
 1010MOL0     C36221   3.436   8.418   0.755  0.1553  0.2707  0.0652
 1010MOL0     C36222   3.457   8.282   0.745 -0.1000  0.8525  0.1088
 1010MOL0     O36223   3.586   8.234   0.765  0.4357 -0.3842  0.5511
 1010MOL0     C36224   3.617   8.095   0.738  0.2358  0.0375  0.8685
 1010MOL0     C36225   3.630   8.066   0.585 -0.2738 -0.7224 -0.9000
 1010MOL0     C36226   3.718   7.946   0.569  0.2899  1.7757 -0.1563
 1010MOL0     C36227   3.862   7.955   0.632 -0.1663  0.4663 -0.3088
 1010MOL0     C36228   3.967   7.936   0.534  0.8107  0.6612 -0.5225
 1010MOL0     C36229   3.986   7.785   0.520  0.2733  0.3509  0.1771
 1010MOL0     C36230   4.044   7.747   0.378  0.0883 -0.2580 -0.3584
 1010MOL0     C36231   3.947   7.688   0.279  0.5730  0.4550 -0.4771
 1010MOL0     N36232   4.011   7.669   0.147  0.4378 -0.0303  0.0562
 1010MOL0     C36233   4.133   7.615   0.139 -0.0760  0.6512 -0.3296
 1010MOL0     C36234   4.178   7.650   0.008 -0.1539  0.2119  0.1035
 1010MOL0     C36235   4.303   7.602  -0.062 -0.3055 -0.7430  0.5211
 1010MOL0     C36236   4.343   7.465  -0.017 -0.7540 -1.5248 -0.8256
 1010MOL0     C36237   4.453   7.410  -0.105 -0.4431  0.9373 -0.2681
 1010MOL0     C36238   4.586   7.479  -0.077 -0.5415 -0.4181  0.0791
 1010MOL0     O36239   4.582   7.618  -0.114 -0.5094 -0.1329 -0.2203
 1010MOL0     C36240   4.692   7.695  -0.095 -0.2250  0.1639 -0.0934
 1010MOL0     C36241   4.666   7.827  -0.111  0.0899  0.1745 -0.5677
 1010MOL0     C36242   4.764   7.928  -0.100 -0.0367 -0.8151  0.0324
 1010MOL0     C36243   4.898   7.892  -0.069 -0.7711  0.0693  0.3177
 1010MOL0     C36244   5.001   8.002  -0.067 -1.0946  0.2870 -0.5297
 1010MOL0     O36245   5.127   7.975  -0.115 -0.2095  0.6587  0.1187
 1010MOL0     C36246   5.222   8.064  -0.077  0.2435 -0.3392 -0.2779
 1010MOL0     C36247   5.299   8.121  -0.167 -0.0153 -1.2315  0.8888
 1010MOL0     C36248   5.412   8.206  -0.126  0.7826  0.7471 -0.2614
 1010MOL0     C36249   5.435   8.230   0.011 -0.4920 -0.3887 -0.7132
 1010MOL0     O36250   5.543   8.311   0.041 -0.3300 -0.6969  0.1887
 1010MOL0     C36251   5.627   8.254   0.138 -1.2289  0.6842  0.7744
 1010MOL0     C36252   5.769   8.315   0.136 -0.7825  0.3413 -0.5404
 1010MOL0     C36253   5.791   8.448   0.198 -0.1240 -0.3157 -0.4202
 1010MOL0     C36254   5.744   8.468   0.346 -0.1613 -0.3462 -0.1272
 1010MOL0     C36255   5.767   8.617   0.383  0.3341  0.2572 -0.3166
 1010MOL0     C36256   5.911   8.667   0.365  0.3620 -0.2094 -0.3634
 1010MOL0     C36257   6.007   8.561   0.423 -0.2108  0.3472  0.5836
 1010MOL0     C36258   6.153   8.610   0.433 -0.7151 -0.7364 -0.7859
 1010MOL0    Cl36259   6.236   8.598   0.278  0.0675  0.6227 -0.0550
 1010MOL0     C36260   5.352   8.172   0.106  0.2948 -0.7536 -0.0382
 1010MOL0     C36261   5.252   8.087   0.064  0.5311  0.1185  0.3080
 1010MOL0     O36262   4.968   8.113  -0.029 -0.4581  0.2780 -0.3173
 1010MOL0     C36263   4.926   7.757  -0.057  0.0599  0.0211  0.3232
 1010MOL0     C36264   4.822   7.656  -0.067 -0.7648  0.1293  0.0238
 1010MOL0     N36265   4.069   7.723  -0.045 -0.4343 -0.6471  0.0389
 1010MOL0     N36266   3.970   7.738   0.036 -0.3641 -0.0293  0.5024
 1010MOL0     C36267   3.353   8.199   0.696 -0.0490 -0.5684 -0.0070
 1010MOL0     C36268   3.226   8.256   0.668  0.5862 -0.0896 -0.4129
 1010MOL0     C36269   2.831   8.473   0.664 -0.8142  0.1630  0.0762
 1010MOL0     C36270   2.702   8.413   0.684  0.0467 -0.2563 -0.4821
 1010MOL0     C36271   2.583   8.476   0.662 -0.3274 -0.4913  0.3785
 1010MOL0     C36272   2.583   8.611   0.609  0.4644  0.4750 -0.1997
 1010MOL0     O36273   2.473   8.692   0.589  0.1141  0.3008 -0.3857
 1010MOL0     C36274   2.356   8.630   0.529  0.2473  0.4759  0.3978
 1010MOL0     C36275   2.235   8.629   0.628 -0.2773 -0.4888  0.2904
 1010MOL0     C36276   2.210   8.766   0.697 -0.2890 -0.1251  0.1852
 1010MOL0     C36277   2.089   8.746   0.794 -0.6908 -0.3787 -0.0453
 1010MOL0     C36278   2.054   8.876   0.853  1.0341  0.1364  0.4105
 1010MOL0     C36279   2.051   8.995   0.888 -0.3352  0.3952 -0.6044
 1010MOL0     C36280   2.712   8.667   0.591  0.0690 -0.6041  0.2771
 1010MOL0     C36281   2.838   8.603   0.615  0.4965 -0.0673 -0.7237
 1010MOL0     C36282   2.962   8.690   0.594  0.4638 -0.2195 -0.0028
 1010MOL0     H36283   3.305   8.573   0.761  2.1563 -0.1206 -2.0535
 1010MOL0     H36284   3.519   8.468   0.803  0.3462  0.6031 -0.5961
 1010MOL0     H36285   3.702   8.062   0.799 -1.8804 -2.0323  2.8982
 1010MOL0     H36286   3.547   8.023   0.781  0.2495  1.2356  3.0505
 1010MOL0     H36287   3.680   8.153   0.542 -1.8924 -0.2922 -2.0065
 1010MOL0     H36288   3.536   8.049   0.532  0.2861 -1.2471 -1.7299
 1010MOL0     H36289   3.724   7.931   0.460 -0.5450 -2.3800  0.2178
 1010MOL0     H36290   3.675   7.852   0.605  0.3750  0.6977 -2.6309
 1010MOL0     H36291   3.878   8.054   0.675  2.0365  1.4515 -3.0766
 1010MOL0     H36292   3.854   7.878   0.710  0.8858  0.0120 -0.6228
 1010MOL0     H36293   3.944   7.984   0.438  0.3420  0.2460 -0.6248
 1010MOL0     H36294   4.056   7.981   0.578  0.7537  1.1510 -0.8938
 1010MOL0     H36295   4.054   7.747   0.596  0.1137  1.9141  1.1413
 1010MOL0     H36296   3.886   7.742   0.536  0.5005 -0.7857 -1.2129
 1010MOL0     H36297   4.122   7.674   0.397 -0.3789 -0.7788 -0.4057
 1010MOL0     H36298   4.088   7.839   0.339  1.1968  0.3408  2.0979
 1010MOL0     H36299   3.906   7.590   0.304 -2.4112  1.2422 -1.8234
 1010MOL0     H36300   3.857   7.749   0.266  0.8455  0.5421 -2.1801
 1010MOL0     H36301   4.168   7.553   0.220 -1.6762 -0.3938 -0.3959
 1010MOL0     H36302   4.286   7.604  -0.170  1.6820  1.7770  0.1561
 1010MOL0     H36303   4.375   7.682  -0.040 -0.3117 -0.8153  0.8088
 1010MOL0     H36304   4.379   7.463   0.087 -0.7507  0.7196 -0.7342
 1010MOL0     H36305   4.252   7.405  -0.027 -3.9821  2.6811  0.2360
 1010MOL0     H36306   4.430   7.398  -0.211 -1.0270 -2.7363  0.1473
 1010MOL0     H36307   4.465   7.303  -0.084  0.4960  0.8974 -0.9452
 1010MOL0     H36308   4.672   7.436  -0.130 -1.4649 -0.4945 -1.4263
 1010MOL0     H36309   4.616   7.470   0.028  1.2285 -0.7950 -0.4130
 1010MOL0     H36310   4.565   7.858  -0.136 -0.2235  0.3722  0.8599
 1010MOL0     H36311   4.740   8.034  -0.105  3.0360 -0.0590 -0.5967
 1010MOL0     H36312   5.274   8.113  -0.272  1.2413  1.7329  0.2653
 1010MOL0     H36313   5.490   8.252  -0.184  2.2544 -1.5113 -0.2168
 1010MOL0     H36314   5.579   8.253   0.237 -2.2877  0.3771  0.2765
 1010MOL0     H36315   5.650   8.148   0.123  1.3831  0.8501  2.8702
 1010MOL0     H36316   5.837   8.247   0.188 -1.9983 -0.9290 -0.5533
 1010MOL0     H36317   5.809   8.316   0.034 -0.5407  2.4303 -0.4613
 1010MOL0     H36318   5.898   8.470   0.195  0.0085 -0.4586  1.8019
 1010MOL0     H36319   5.748   8.527   0.135  0.2862 -0.6456 -1.1233
 1010MOL0     H36320   5.788   8.410   0.428 -1.1537 -0.8876  0.0335
 1010MOL0     H36321   5.639   8.438   0.351 -0.9466  1.9838 -1.1595
 1010MOL0     H36322   5.738   8.621   0.489 -3.9303  0.7906 -1.3250
 1010MOL0     H36323   5.696   8.686   0.337 -1.9709  0.0847  2.6430
 1010MOL0     H36324   5.932   8.681   0.258  2.2049  2.0036  0.2133
 1010MOL0     H36325   5.921   8.765   0.412 -0.3550 -0.4559  0.3357
 1010MOL0     H36326   6.000   8.457   0.388  1.4760  0.0599  1.0253
 1010MOL0     H36327   5.981   8.544   0.528  0.0505  0.7194  0.7103
 1010MOL0     H36328   6.162   8.711   0.472 -1.1620 -1.1753  0.4929
 1010MOL0     H36329   6.213   8.551   0.503  1.6237 -1.0212 -2.8807
 1010MOL0     H36330   5.361   8.191   0.213 -3.5232  2.0365  0.0096
 1010MOL0     H36331   5.202   8.037   0.146  2.5025  0.9117  2.0924
 1010MOL0     H36332   5.026   7.727  -0.026  0.4042  0.9395  0.1351
 1010MOL0     H36333   4.853   7.554  -0.047 -2.6877 -0.6334 -0.6653
 1010MOL0     H36334   3.368   8.096   0.666 -0.7529 -0.4660 -0.7218
 1010MOL0     H36335   3.141   8.202   0.626  0.5143 -0.6930  0.4911
 1010MOL0     H36336   2.698   8.315   0.730  0.7742  1.2694  3.2047
 1010MOL0     H36337   2.490   8.429   0.689 -1.1490  1.8692  2.0080
 1010MOL0     H36338   2.378   8.530   0.492  1.7982  0.9945 -0.1828
 1010MOL0     H36339   2.323   8.681   0.438 -1.7872 -0.3530  0.6130
 1010MOL0     H36340   2.251   8.549   0.702 -1.7706 -0.8932  0.1975
 1010MOL0     H36341   2.145   8.611   0.570 -0.5644  0.3818  0.4511
 1010MOL0     H36342   2.185   8.843   0.624  0.9015 -0.5348 -0.6767
 1010MOL0     H36343   2.305   8.788   0.747 -0.4425 -1.3192  1.0660
 1010MOL0     H36344   2.010   8.689   0.745 -1.2510 -1.7683  2.3336
 1010MOL0     H36345   2.111   8.679   0.877 -0.4700 -1.2229 -0.7752
 1010MOL0     H36346   2.046   9.101   0.905 -3.9674  0.0184  1.7580
 1010MOL0     H36347   2.696   8.766   0.549 -2.8180  0.3786  3.2297
 1010MOL0     H36348   3.012   8.662   0.500  2.1646  1.3439  0.3851
 1010MOL0     H36349   2.940   8.796   0.577  4.5495  1.0605  1.5930
 1010MOL0     H36350   3.040   8.691   0.670  1.5833  0.3474 -1.1196
 1011MOL0     O36351  10.258   4.857   5.185  0.6208  0.4496 -0.6719
 1011MOL0     C36352  10.312   4.751   5.205 -0.0252 -0.1410 -0.2936
 1011MOL0     O36353  10.448   4.743   5.206 -0.2506 -0.8228  0.6331
 1011MOL0     C36354  10.537   4.848   5.205 -0.2325  0.7711  0.1853
 1011MOL0     C36355  10.674   4.812   5.184 -0.5583 -0.2438 -0.2669
 1011MOL0     C36356  10.778   4.905   5.183 -0.1681  0.0580 -0.4721
 1011MOL0     C36357  10.756   5.043   5.197 -0.1763 -0.2742  0.7097
 1011MOL0     O36358  10.853   5.139   5.193 -1.2190 -0.2903 -0.4748
 1011MOL0     C36359  10.833   5.255   5.270  0.4634  0.0414  0.1069
 1011MOL0     C36360  10.967   5.307   5.338 -1.0967 -0.0803  0.6501
 1011MOL0     C36361  11.075   5.331   5.235 -1.0223 -0.1599 -0.0980
 1011MOL0     C36362  11.204   5.377   5.299 -0.5494  0.0135  0.4800
 1011MOL0     C36363  11.325   5.371   5.209 -0.7771  0.5359 -0.4681
 1011MOL0     C36364  11.461   5.418   5.269 -0.3701  1.1593  0.7217
 1011MOL0     C36365  11.581   5.403   5.175 -0.0146  0.2872  0.1994
 1011MOL0     C36366  11.715   5.437   5.248  0.1079 -0.1149  0.2476
 1011MOL0     N36367  11.825   5.419   5.151  0.8623 -0.4259 -0.5670
 1011MOL0     C36368  11.886   5.303   5.120 -0.6950 -0.6938  0.1933
 1011MOL0     C36369  11.967   5.340   5.007 -0.6292  0.1653 -0.9181
 1011MOL0     C36370  12.058   5.233   4.934  0.3083 -0.0020  0.0756
 1011MOL0     C36371  12.188   5.212   5.013  0.5536 -0.4575  0.2440
 1011MOL0     C36372  12.267   5.109   4.931 -0.9969  0.1263  0.2580
 1011MOL0     C36373  12.407   5.097   4.989 -0.3657 -0.4648 -0.3350
 1011MOL0     O36374  12.497   5.038   4.892 -0.3278  0.0202  0.7547
 1011MOL0     C36375  12.629   5.025   4.927  0.5735  0.4613  0.3143
 1011MOL0     C36376  12.688   5.104   5.026 -0.1932  0.3509 -0.4135
 1011MOL0     C36377  12.821   5.086   5.053 -0.1025  0.2232  1.1498
 1011MOL0     C36378  12.903   4.994   4.979  0.3652  0.3168 -0.7283
 1011MOL0     C36379  13.049   4.969   5.018  0.3178 -0.1830  0.9587
 1011MOL0     O36380  13.091   5.022   5.133  0.4850  0.6831 -0.4529
 1011MOL0     C36381  13.226   5.019   5.158 -0.5071  0.5345  0.7394
 1011MOL0     C36382  13.312   5.048   5.047  0.0556  0.6548 -0.4189
 1011MOL0     C36383  13.449   5.058   5.067  0.4838 -0.6836 -1.1115
 1011MOL0     C36384  13.506   5.038   5.192  0.0043  1.0989 -0.0982
 1011MOL0     O36385  13.643   5.033   5.200 -0.3804 -0.6540  0.2887
 1011MOL0     C36386  13.713   4.957   5.300 -0.2775  0.3703 -0.1294
 1011MOL0     C36387  13.854   4.915   5.240  0.7329  0.4835  0.9528
 1011MOL0     C36388  13.971   4.977   5.313 -1.0737 -0.1813 -1.0163
 1011MOL0     C36389  14.107   4.932   5.253 -0.9304 -0.2143 -0.1491
 1011MOL0     C36390  14.225   5.002   5.314 -0.6385 -0.2011 -0.4816
 1011MOL0     C36391  14.357   4.935   5.247  0.4675  0.2747  0.2336
 1011MOL0     C36392  14.478   4.995   5.323  0.7097  0.1739 -0.3329
 1011MOL0     C36393  14.615   4.966   5.269 -0.7434 -0.7293 -0.1895
 1011MOL0    Cl36394  14.740   5.004   5.392  0.1275 -0.1401 -0.2492
 1011MOL0     C36395  13.425   4.998   5.300 -0.2864  0.3273 -0.5751
 1011MOL0     C36396  13.286   4.988   5.278 -0.1262 -0.0321  0.5450
 1011MOL0     O36397  13.118   4.901   4.939 -0.2307 -0.0887  0.0814
 1011MOL0     C36398  12.844   4.925   4.875 -0.3149 -0.2341  0.9653
 1011MOL0     C36399  12.707   4.934   4.853  0.1522 -0.6358 -0.4004
 1011MOL0     N36400  11.952   5.475   4.988  0.0498  0.9111  0.2686
 1011MOL0     N36401  11.872   5.522   5.074  0.0341 -0.0586 -0.4372
 1011MOL0     C36402  10.618   5.075   5.212 -1.0503  0.1361  0.1030
 1011MOL0     C36403  10.513   4.977   5.209 -0.5966 -0.5320 -0.2890
 1011MOL0     C36404  10.231   4.626   5.219 -0.1154 -0.3209 -0.7149
 1011MOL0     C36405  10.299   4.509   5.255  0.2475 -0.5860  0.4863
 1011MOL0     C36406  10.234   4.384   5.270 -0.4883  0.5723  0.4531
 1011MOL0     C36407  10.096   4.377   5.237  0.1242 -0.1319 -0.3743
 1011MOL0     O36408  10.035   4.256   5.256 -0.1787  0.6805  0.3311
 1011MOL0     C36409   9.916   4.258   5.331 -0.0316 -0.9521 -0.8811
 1011MOL0     C36410   9.906   4.131   5.422  0.1356  0.3391  0.9388
 1011MOL0     C36411   9.926   3.998   5.347  0.5377  0.2305 -0.5471
 1011MOL0     C36412   9.870   3.887   5.446  0.2240  0.2251  0.4186
 1011MOL0     C36413   9.909   3.758   5.402  0.1584  0.3871  0.3766
 1011MOL0     C36414   9.937   3.641   5.373 -0.5373 -0.8616  0.8503
 1011MOL0     C36415  10.026   4.495   5.194 -0.2631  0.3366  0.0581
 1011MOL0     C36416  10.096   4.615   5.181  0.2551 -0.7746 -0.7615
 1011MOL0     C36417  10.016   4.729   5.137  0.7702  0.2726 -0.0643
 1011MOL0     H36418  10.700   4.707   5.177  0.5500  0.0291 -0.4437
 1011MOL0     H36419  10.883   4.884   5.166 -0.2711  0.7237 -2.1825
 1011MOL0     H36420  10.784   5.330   5.207 -3.6020  0.8492  3.7450
 1011MOL0     H36421  10.754   5.246   5.344 -0.4415  0.7718 -0.7333
 1011MOL0     H36422  10.998   5.230   5.410  1.4241 -0.4688 -0.7490
 1011MOL0     H36423  10.954   5.400   5.395  0.4759 -1.3757  3.3031
 1011MOL0     H36424  11.032   5.404   5.165 -2.5621  0.3365  1.3127
 1011MOL0     H36425  11.096   5.240   5.178 -1.5502 -0.2682 -0.1181
 1011MOL0     H36426  11.199   5.480   5.334  0.0415 -0.6996  2.8658
 1011MOL0     H36427  11.230   5.307   5.379 -0.8351 -0.9334 -0.2319
 1011MOL0     H36428  11.334   5.273   5.162  1.1061  0.0312  0.8301
 1011MOL0     H36429  11.315   5.440   5.125  0.0341  1.5149  0.2226
 1011MOL0     H36430  11.442   5.521   5.303 -3.0795  0.8763  0.2780
 1011MOL0     H36431  11.486   5.355   5.355 -0.2960 -0.1131 -0.2193
 1011MOL0     H36432  11.573   5.474   5.093  1.2926  0.8111  0.5019
 1011MOL0     H36433  11.583   5.298   5.145 -0.9879 -0.8079  3.5625
 1011MOL0     H36434  11.701   5.540   5.284 -0.9135 -1.1194  2.9831
 1011MOL0     H36435  11.730   5.374   5.336 -2.6965 -0.6770  0.3939
 1011MOL0     H36436  11.881   5.200   5.153  2.5464 -1.1064 -0.2832
 1011MOL0     H36437  12.004   5.139   4.923 -1.9127  0.9816  1.7495
 1011MOL0     H36438  12.087   5.263   4.833 -3.1065  1.4734 -0.6186
 1011MOL0     H36439  12.240   5.306   5.034 -1.8362  0.7159  1.2637
 1011MOL0     H36440  12.168   5.153   5.103  0.7115  1.1992  1.3930
 1011MOL0     H36441  12.274   5.128   4.823 -3.2696  3.0907  0.4858
 1011MOL0     H36442  12.223   5.009   4.929 -0.4122 -0.2844 -4.3568
 1011MOL0     H36443  12.405   5.043   5.084  0.4420  2.9495  1.8042
 1011MOL0     H36444  12.445   5.196   5.018 -0.1441 -1.3260  2.5810
 1011MOL0     H36445  12.631   5.152   5.105 -2.2852 -3.2258  0.4284
 1011MOL0     H36446  12.866   5.139   5.136  1.3684  0.5758  0.1662
 1011MOL0     H36447  13.266   5.077   4.953 -1.9707 -1.0277 -0.0191
 1011MOL0     H36448  13.514   5.084   4.984  1.9211  0.1846  0.2157
 1011MOL0     H36449  13.734   5.021   5.386 -0.3196  2.3797 -1.5472
 1011MOL0     H36450  13.656   4.869   5.331  1.2676 -0.5171  0.3025
 1011MOL0     H36451  13.858   4.806   5.239 -1.8537  0.3212 -0.1588
 1011MOL0     H36452  13.848   4.953   5.137  0.3154 -0.0101  0.7900
 1011MOL0     H36453  13.958   5.085   5.306 -1.6756  0.1934  3.1717
 1011MOL0     H36454  13.976   4.959   5.421  0.1255 -0.8872 -1.1723
 1011MOL0     H36455  14.111   4.937   5.143  2.0446 -0.8265 -0.1452
 1011MOL0     H36456  14.115   4.825   5.274  0.3064 -0.1173 -0.0712
 1011MOL0     H36457  14.221   4.984   5.421 -0.3170  2.0867 -0.0307
 1011MOL0     H36458  14.221   5.110   5.296 -0.2253 -0.2471 -0.8736
 1011MOL0     H36459  14.362   4.828   5.267  2.1993  0.5369  1.4497
 1011MOL0     H36460  14.361   4.962   5.141  2.8199  1.1205  0.4850
 1011MOL0     H36461  14.465   4.965   5.427 -3.2821 -2.1991 -1.3078
 1011MOL0     H36462  14.468   5.104   5.320  1.6670  0.2599 -1.7498
 1011MOL0     H36463  14.629   4.861   5.240 -0.4048 -0.7794  0.1418
 1011MOL0     H36464  14.621   5.028   5.180  0.4722  3.6063  2.6049
 1011MOL0     H36465  13.471   4.976   5.396  0.1140  1.8411 -0.4041
 1011MOL0     H36466  13.211   4.972   5.354 -0.3294 -1.0675  0.1528
 1011MOL0     H36467  12.896   4.848   4.819 -1.4713  0.6887 -1.5247
 1011MOL0     H36468  12.661   4.873   4.776  1.3626 -4.1389  1.4407
 1011MOL0     H36469  10.580   5.177   5.218 -2.4712 -0.3849  0.2947
 1011MOL0     H36470  10.418   5.028   5.202  0.4357  1.8913  1.5467
 1011MOL0     H36471  10.406   4.503   5.274 -0.0170 -0.9664  1.9960
 1011MOL0     H36472  10.306   4.307   5.294 -0.0348  1.2514  1.3025
 1011MOL0     H36473   9.838   4.260   5.254 -1.0806 -0.9826  0.1500
 1011MOL0     H36474   9.920   4.349   5.391 -0.7320 -1.1103 -0.5806
 1011MOL0     H36475   9.801   4.131   5.452 -0.1684 -1.6557  0.0254
 1011MOL0     H36476   9.974   4.143   5.507 -0.5518  2.2183  1.2629
 1011MOL0     H36477  10.033   3.978   5.338  0.4962 -0.4914  0.4433
 1011MOL0     H36478   9.882   3.995   5.247 -0.5523  0.6150 -0.0950
 1011MOL0     H36479   9.910   3.919   5.543  1.4576  2.4174 -0.7251
 1011MOL0     H36480   9.761   3.882   5.436  0.3049 -0.6041 -0.1117
 1011MOL0     H36481   9.964   3.538   5.358 -1.5425 -1.2977  1.8876
 1011MOL0     H36482   9.919   4.497   5.175 -0.7759  2.5515  2.6230
 1011MOL0     H36483   9.914   4.698   5.113 -0.4063  2.9916  0.9712
 1011MOL0     H36484  10.002   4.803   5.216  1.9073  0.1982  0.2323
 1011MOL0     H36485  10.057   4.782   5.050 -0.9150 -0.8302 -1.6005
 1012MOL0     O36486   1.214   0.824  10.999  0.2529  0.9901  0.2131
 1012MOL0     C36487   1.241   0.703  11.005  0.1552  0.6523 -0.2688
 1012MOL0     O36488   1.357   0.647  11.051 -0.7023 -0.4199 -1.0133
 1012MOL0     C36489   1.443   0.734  11.109  0.2693  0.0633 -0.3623
 1012MOL0     C36490   1.519   0.836  11.049  1.1773  0.5003 -0.3895
 1012MOL0     C36491   1.623   0.901  11.120  0.0825  0.0560 -0.1963
 1012MOL0     C36492   1.640   0.868  11.252 -0.5252  0.8323  0.2873
 1012MOL0     O36493   1.733   0.940  11.324  0.3760  0.4209  0.4545
 1012MOL0     C36494   1.714   0.964  11.473  0.1959  0.0637 -0.2295
 1012MOL0     C36495   1.802   0.855  11.546  0.4076 -0.0665  0.0107
 1012MOL0     C36496   1.949   0.868  11.488  0.3102  0.1456 -0.7750
 1012MOL0     C36497   2.054   0.795  11.574  0.2471  0.1381 -1.1417
 1012MOL0     C36498   2.035   0.642  11.554  0.2000 -0.4086 -0.2349
 1012MOL0     C36499   2.076   0.548  11.677 -0.6173  0.6724  0.4943
 1012MOL0     C36500   2.089   0.398  11.644 -0.6851 -0.0119  0.4080
 1012MOL0     C36501   2.082   0.315  11.772 -0.6625  0.0134 -0.7551
 1012MOL0     N36502   2.213   0.323  11.844 -0.2883  0.1700 -0.1037
 1012MOL0     C36503   2.234   0.324  11.981 -1.0309  0.0705  0.5160
 1012MOL0     C36504   2.369   0.324  12.009  0.8810 -0.5278  0.2471
 1012MOL0     C36505   2.433   0.331  12.148 -0.4212 -0.8167  0.7605
 1012MOL0     C36506   2.588   0.344  12.139 -0.4224 -0.1381 -0.2990
 1012MOL0     C36507   2.628   0.487  12.145 -0.1953 -0.3337  0.7194
 1012MOL0     C36508   2.606   0.555  12.288 -0.0295  0.8825 -0.2303
 1012MOL0     O36509   2.725   0.534  12.380  0.3309 -0.1030 -0.1321
 1012MOL0     C36510   2.721   0.600  12.502  0.0610 -0.5933  0.7216
 1012MOL0     C36511   2.606   0.640  12.568  0.6655  0.3810  0.1208
 1012MOL0     C36512   2.606   0.707  12.688 -0.6078 -0.1701  0.0954
 1012MOL0     C36513   2.727   0.739  12.750  0.2570  0.0080 -0.9870
 1012MOL0     C36514   2.722   0.794  12.890  0.4585 -0.2139 -1.2863
 1012MOL0     O36515   2.604   0.802  12.951  0.1272  0.0193  0.2873
 1012MOL0     C36516   2.600   0.849  13.078 -0.2923 -0.0409 -0.1426
 1012MOL0     C36517   2.650   0.973  13.129  0.0678 -0.7005  0.8655
 1012MOL0     C36518   2.650   1.015  13.261 -0.0713  0.2137 -0.7078
 1012MOL0     C36519   2.611   0.915  13.360  0.4111 -0.9290  0.2892
 1012MOL0     O36520   2.617   0.934  13.498  0.0586 -0.0098 -0.4395
 1012MOL0     C36521   2.617   1.074  13.540  0.2609 -0.4814  0.1123
 1012MOL0     C36522   2.608   1.095  13.694  1.2989  0.8595  0.2013
 1012MOL0     C36523   2.479   1.053  13.752  0.5706  0.3810 -0.5895
 1012MOL0     C36524   2.481   1.060  13.913 -0.0063  0.0675 -0.4211
 1012MOL0     C36525   2.349   1.011  13.969  0.5101 -0.1015  0.3594
 1012MOL0     C36526   2.225   1.100  13.959 -0.4451  0.3038 -0.1243
 1012MOL0     C36527   2.100   1.030  14.024 -0.5799 -0.0386 -0.1608
 1012MOL0     C36528   1.979   1.128  14.026  0.3490 -0.2901  0.3376
 1012MOL0    Cl36529   1.832   1.039  14.085  0.0442  0.0172 -0.1203
 1012MOL0     C36530   2.556   0.792  13.307  0.1385 -0.8402 -0.3527
 1012MOL0     C36531   2.551   0.754  13.172 -0.1028 -0.2979  0.7223
 1012MOL0     O36532   2.829   0.821  12.937 -0.0806 -0.5230  0.7507
 1012MOL0     C36533   2.844   0.705  12.685 -0.0179 -0.2095  0.6471
 1012MOL0     C36534   2.841   0.640  12.564 -0.1053 -0.2411  0.6696
 1012MOL0     N36535   2.426   0.329  11.885 -0.4955 -0.7510  0.7378
 1012MOL0     N36536   2.340   0.319  11.791  0.5439  0.8308 -0.5746
 1012MOL0     C36537   1.561   0.770  11.324  0.2236 -0.1697  0.3228
 1012MOL0     C36538   1.460   0.703  11.250 -0.0568 -0.6335 -0.2074
 1012MOL0     C36539   1.133   0.622  10.950  0.5472 -0.6472 -0.1128
 1012MOL0     C36540   1.026   0.683  10.876  0.3406  0.0711  0.6072
 1012MOL0     C36541   0.914   0.605  10.831 -0.1632 -0.0923  0.3615
 1012MOL0     C36542   0.898   0.474  10.874 -0.3942  0.1189  0.3964
 1012MOL0     O36543   0.794   0.387  10.839  0.0352  0.4274 -0.1557
 1012MOL0     C36544   0.673   0.441  10.801 -0.9461 -0.3659  0.6907
 1012MOL0     C36545   0.572   0.329  10.776  0.0206 -0.7053  0.0795
 1012MOL0     C36546   0.537   0.234  10.892 -1.3193  0.0504 -1.2187
 1012MOL0     C36547   0.425   0.131  10.855 -0.3434  0.2506  0.3287
 1012MOL0     C36548   0.288   0.175  10.873  0.4421 -0.3898  0.1792
 1012MOL0     C36549   0.170   0.195  10.897  0.0234  0.6761 -0.8379
 1012MOL0     C36550   1.010   0.419  10.937  0.2453 -0.0422  0.2113
 1012MOL0     C36551   1.126   0.486  10.971  0.0481 -0.2151 -0.4361
 1012MOL0     C36552   1.231   0.409  11.043  0.0438  0.3263 -0.1304
 1012MOL0     H36553   1.489   0.865  10.948 -2.1425 -1.3732 -0.1029
 1012MOL0     H36554   1.680   0.981  11.075  1.7134 -1.2233 -0.5106
 1012MOL0     H36555   1.757   1.057  11.510 -1.8596  0.7866  0.4746
 1012MOL0     H36556   1.610   0.964  11.506  0.1542  0.5343 -0.3574
 1012MOL0     H36557   1.766   0.752  11.538  2.4344 -0.6588 -3.7667
 1012MOL0     H36558   1.797   0.875  11.654  3.6329  0.7309  0.0962
 1012MOL0     H36559   1.981   0.973  11.484  0.3182  0.1861  0.1049
 1012MOL0     H36560   1.951   0.823  11.388 -0.3232 -2.8177  0.4415
 1012MOL0     H36561   2.153   0.825  11.537  0.2799 -1.5118 -2.5040
 1012MOL0     H36562   2.042   0.817  11.680 -0.7297 -0.5055 -1.1094
 1012MOL0     H36563   1.929   0.625  11.532  0.1044 -0.0623 -0.0435
 1012MOL0     H36564   2.096   0.615  11.467  0.5947 -0.7707  0.1456
 1012MOL0     H36565   2.178   0.580  11.699 -0.8685  0.8550  1.4563
 1012MOL0     H36566   2.025   0.568  11.772  2.5644  0.5655  2.3800
 1012MOL0     H36567   2.179   0.376  11.586 -2.1792 -1.0877 -1.6484
 1012MOL0     H36568   2.004   0.375  11.579 -1.2723 -0.2375  1.2453
 1012MOL0     H36569   2.002   0.347  11.840  1.2753  0.1156  1.6170
 1012MOL0     H36570   2.059   0.211  11.747  0.5954 -0.4301 -0.1810
 1012MOL0     H36571   2.163   0.329  12.063 -2.2654  0.5280 -0.5529
 1012MOL0     H36572   2.389   0.412  12.207 -0.7178  0.0985 -0.6642
 1012MOL0     H36573   2.410   0.231  12.188  0.7401 -0.9154  1.2069
 1012MOL0     H36574   2.635   0.282  12.216  0.9087  0.7251 -0.3730
 1012MOL0     H36575   2.612   0.297  12.043 -0.6740  0.6549 -0.7655
 1012MOL0     H36576   2.565   0.539  12.072  1.4974  0.8958  0.0705
 1012MOL0     H36577   2.733   0.492  12.116  0.4008  0.3880  2.8161
 1012MOL0     H36578   2.518   0.510  12.333  0.7840 -2.0696 -1.3064
 1012MOL0     H36579   2.585   0.662  12.281 -0.5585  0.8701  0.9449
 1012MOL0     H36580   2.512   0.594  12.538  1.0886  0.8221 -2.0293
 1012MOL0     H36581   2.509   0.725  12.733 -1.2891  0.7875 -1.6652
 1012MOL0     H36582   2.699   1.043  13.061 -0.9260 -1.5093 -0.7372
 1012MOL0     H36583   2.671   1.117  13.294 -2.7053 -0.0199  2.2111
 1012MOL0     H36584   2.712   1.115  13.505  0.3348 -2.3076 -2.0528
 1012MOL0     H36585   2.533   1.124  13.491  0.3636  1.5372  1.8402
 1012MOL0     H36586   2.689   1.040  13.742  0.9685  0.6819  0.5563
 1012MOL0     H36587   2.628   1.200  13.717 -0.3077  0.3123  5.1798
 1012MOL0     H36588   2.394   1.104  13.705  0.2406  0.6019  0.2365
 1012MOL0     H36589   2.464   0.946  13.736  0.4367  0.6198 -2.2115
 1012MOL0     H36590   2.516   1.152  13.960 -0.8369  0.7899 -1.1691
 1012MOL0     H36591   2.553   0.986  13.948 -0.4281 -1.2231 -2.1634
 1012MOL0     H36592   2.374   0.990  14.074 -1.6330  0.4194  1.0193
 1012MOL0     H36593   2.322   0.915  13.925 -1.7485 -0.7545  2.8763
 1012MOL0     H36594   2.244   1.195  14.010 -2.2083  0.0306  1.1238
 1012MOL0     H36595   2.203   1.122  13.854  0.2353  0.6040 -0.2107
 1012MOL0     H36596   2.127   0.987  14.121 -0.7918 -2.3919 -1.0987
 1012MOL0     H36597   2.076   0.943  13.963 -1.7027 -1.5942  2.3501
 1012MOL0     H36598   1.993   1.214  14.092 -0.5730  0.0757  0.0727
 1012MOL0     H36599   1.960   1.175  13.929  1.1310 -0.3433  0.1456
 1012MOL0     H36600   2.516   0.717  13.374  1.8216 -1.9889 -0.5730
 1012MOL0     H36601   2.523   0.657  13.133  2.5886  0.0883 -2.6647
 1012MOL0     H36602   2.935   0.746  12.726  1.0721 -0.8587 -1.0125
 1012MOL0     H36603   2.928   0.619  12.503 -0.6931  2.1607 -1.1557
 1012MOL0     H36604   1.571   0.743  11.429  0.0717 -3.2242 -0.3574
 1012MOL0     H36605   1.404   0.620  11.291 -1.4468  1.5476  2.6587
 1012MOL0     H36606   1.019   0.788  10.850  0.0921  0.4686  2.2200
 1012MOL0     H36607   0.839   0.647  10.766 -0.7010  0.8439  1.5457
 1012MOL0     H36608   0.672   0.499  10.708  2.9662 -1.3624 -0.1916
 1012MOL0     H36609   0.636   0.498  10.887 -1.5358 -0.0620  0.2385
 1012MOL0     H36610   0.609   0.280  10.685  0.2690  1.3204 -0.9820
 1012MOL0     H36611   0.480   0.379  10.743  0.1355  0.7770  1.8529
 1012MOL0     H36612   0.504   0.287  10.982  0.2785  1.5375 -1.4620
 1012MOL0     H36613   0.631   0.182  10.915  0.2516  2.2576 -2.2299
 1012MOL0     H36614   0.445   0.106  10.751  0.5495  0.2279  0.4996
 1012MOL0     H36615   0.449   0.033  10.899  0.0889 -0.6314 -1.7665
 1012MOL0     H36616   0.064   0.213  10.896 -0.0713  0.2059 -0.0599
 1012MOL0     H36617   0.993   0.313  10.958 -1.8450  0.1983 -0.0548
 1012MOL0     H36618   1.235   0.435  11.149 -1.4093 -1.5574  0.4395
 1012MOL0     H36619   1.204   0.304  11.045 -3.2997  1.0800  2.5582
 1012MOL0     H36620   1.332   0.418  11.002  0.0108  0.3510 -0.2099
 1013MOL0     O36621   3.909   5.791   4.197  0.2158  0.1254 -0.6630
 1013MOL0     C36622   3.833   5.881   4.230 -0.3359 -0.1861 -0.6689
 1013MOL0     O36623   3.864   6.016   4.224 -0.0744 -0.2237 -0.1583
 1013MOL0     C36624   3.974   6.069   4.165  0.2273 -0.9338  0.4727
 1013MOL0     C36625   3.975   6.210   4.130  0.7986  0.1524 -0.3381
 1013MOL0     C36626   4.077   6.277   4.066 -0.1791 -0.7949 -0.4260
 1013MOL0     C36627   4.195   6.202   4.027 -0.1767 -0.8684 -0.9205
 1013MOL0     O36628   4.289   6.274   3.966 -0.9402 -0.0608  0.4969
 1013MOL0     C36629   4.331   6.388   4.047 -0.0514 -0.1611  0.1768
 1013MOL0     C36630   4.485   6.383   4.087 -0.6109  0.2134 -0.0634
 1013MOL0     C36631   4.572   6.398   3.963 -0.3698 -0.2846 -0.0886
 1013MOL0     C36632   4.710   6.329   3.987  0.4171  0.1792 -0.2047
 1013MOL0     C36633   4.793   6.323   3.862  0.6928 -0.7700 -0.2010
 1013MOL0     C36634   4.939   6.306   3.895  0.0968  0.2572 -0.6917
 1013MOL0     C36635   5.022   6.261   3.780 -0.0071  0.0206 -1.1935
 1013MOL0     C36636   5.162   6.272   3.835 -0.6756  0.2767 -0.1445
 1013MOL0     N36637   5.274   6.200   3.770 -0.5417  0.1691 -0.4855
 1013MOL0     C36638   5.393   6.266   3.736  0.7588 -0.1951 -0.0415
 1013MOL0     C36639   5.480   6.162   3.695  0.2919  0.2014 -0.3772
 1013MOL0     C36640   5.627   6.173   3.648 -0.2188  0.4750 -0.4965
 1013MOL0     C36641   5.634   6.166   3.495 -0.2945  0.7804  0.4604
 1013MOL0     C36642   5.660   6.027   3.448 -0.5812  0.3234  0.1640
 1013MOL0     C36643   5.665   6.009   3.290  0.0011 -0.9641 -0.6181
 1013MOL0     O36644   5.746   6.108   3.219 -0.7485  0.1275 -0.2105
 1013MOL0     C36645   5.881   6.096   3.227 -0.4744 -0.9976 -0.2247
 1013MOL0     C36646   5.954   5.987   3.273 -0.5226 -0.2852 -0.3499
 1013MOL0     C36647   6.097   5.984   3.269  0.6781 -1.0236 -0.7779
 1013MOL0     C36648   6.164   6.095   3.224 -0.2121 -0.4294  0.1292
 1013MOL0     C36649   6.307   6.094   3.198  0.6633 -0.1749 -0.1570
 1013MOL0     O36650   6.365   5.967   3.207  0.3983 -0.1471  0.0095
 1013MOL0     C36651   6.497   5.956   3.182  0.2043 -0.5788  0.5892
 1013MOL0     C36652   6.557   5.994   3.056 -0.2276  0.4529  0.9162
 1013MOL0     C36653   6.695   5.961   3.038  0.3937 -0.0048  0.4222
 1013MOL0     C36654   6.772   5.908   3.143 -0.1694  0.8238 -0.1534
 1013MOL0     O36655   6.909   5.893   3.123  0.0546  0.2371  0.7163
 1013MOL0     C36656   6.973   5.874   2.998  0.1857 -0.1422 -0.0245
 1013MOL0     C36657   6.922   5.765   2.909 -0.5596 -0.3220 -0.2030
 1013MOL0     C36658   6.999   5.747   2.782  0.3557  0.0808 -0.1241
 1013MOL0     C36659   6.919   5.636   2.713 -0.4528 -0.1637  0.6159
 1013MOL0     C36660   6.983   5.587   2.576 -0.8884 -0.1462 -0.1040
 1013MOL0     C36661   6.910   5.472   2.507 -0.1714  0.0360 -0.6494
 1013MOL0     C36662   6.990   5.412   2.390 -0.1264 -0.7935  0.7544
 1013MOL0     C36663   7.003   5.510   2.270 -0.0115 -0.7177  0.3563
 1013MOL0    Cl36664   6.867   5.510   2.158  0.2190  0.2962 -0.1104
 1013MOL0     C36665   6.715   5.873   3.264 -0.2303  0.8273 -0.0395
 1013MOL0     C36666   6.579   5.907   3.290  1.0533  0.2298  0.7298
 1013MOL0     O36667   6.366   6.195   3.164 -0.0422  0.0148  0.4720
 1013MOL0     C36668   6.091   6.210   3.194 -0.6910 -0.2280 -0.6533
 1013MOL0     C36669   5.953   6.217   3.190  0.0792 -0.8932  0.5885
 1013MOL0     N36670   5.413   6.037   3.711 -0.2190 -0.4334  0.4908
 1013MOL0     N36671   5.292   6.071   3.763  0.1058  0.3827 -1.0085
 1013MOL0     C36672   4.189   6.065   4.041  0.1608  0.4722  0.5406
 1013MOL0     C36673   4.087   5.999   4.111  0.9932 -0.4911  0.0250
 1013MOL0     C36674   3.708   5.856   4.307  0.2960  0.1284  0.0053
 1013MOL0     C36675   3.634   5.968   4.350  0.5633  0.8844 -0.1683
 1013MOL0     C36676   3.509   5.960   4.413  0.1960  0.2181 -0.2782
 1013MOL0     C36677   3.454   5.834   4.445 -0.7533 -0.0009  0.4556
 1013MOL0     O36678   3.329   5.828   4.508 -0.0151  0.7390  0.0339
 1013MOL0     C36679   3.347   5.851   4.646 -0.5949  0.4087  0.3709
 1013MOL0     C36680   3.337   5.723   4.728 -0.0566  0.5449  0.0034
 1013MOL0     C36681   3.312   5.750   4.877  0.7656  0.3489  0.0322
 1013MOL0     C36682   3.421   5.838   4.949 -0.9620  0.3616 -0.2366
 1013MOL0     C36683   3.368   5.883   5.077 -0.1187  0.7135 -0.1896
 1013MOL0     C36684   3.331   5.906   5.187  0.8446  0.7990  0.1339
 1013MOL0     C36685   3.531   5.719   4.409 -0.1041  0.8749 -0.2206
 1013MOL0     C36686   3.652   5.721   4.342  0.0747  0.3023  0.0575
 1013MOL0     C36687   3.730   5.600   4.317 -0.7166  0.3854 -0.6905
 1013MOL0     H36688   3.884   6.262   4.159  2.0837  0.3094  4.0700
 1013MOL0     H36689   4.075   6.383   4.044  3.3031 -0.4105  0.5712
 1013MOL0     H36690   4.310   6.477   3.986 -0.6353 -1.8921 -2.3082
 1013MOL0     H36691   4.267   6.398   4.135 -1.6756 -0.5592 -0.9095
 1013MOL0     H36692   4.517   6.296   4.146  0.4487  1.6011  1.5126
 1013MOL0     H36693   4.495   6.475   4.146 -0.8418  1.7893 -2.3736
 1013MOL0     H36694   4.597   6.504   3.952  4.4126 -0.9192  2.0788
 1013MOL0     H36695   4.516   6.364   3.876  0.4696 -0.4944 -0.5516
 1013MOL0     H36696   4.770   6.374   4.067  0.5356 -1.6367  0.7949
 1013MOL0     H36697   4.687   6.230   4.028 -1.3272  1.3671  1.9518
 1013MOL0     H36698   4.755   6.246   3.794  1.6759 -2.7151  1.3402
 1013MOL0     H36699   4.790   6.419   3.809  1.0945  0.0370  1.1847
 1013MOL0     H36700   4.983   6.401   3.927  2.0282  0.7163 -4.2273
 1013MOL0     H36701   4.949   6.233   3.976  1.2047  1.6463  0.4974
 1013MOL0     H36702   5.009   6.331   3.697  0.2739 -0.4501 -1.6430
 1013MOL0     H36703   4.987   6.161   3.751  0.1681 -0.8560  1.3681
 1013MOL0     H36704   5.183   6.379   3.820 -3.0938  0.6225 -1.6007
 1013MOL0     H36705   5.163   6.255   3.943 -0.9527  0.4043 -0.1206
 1013MOL0     H36706   5.414   6.372   3.729  0.4573 -0.1975 -1.1509
 1013MOL0     H36707   5.665   6.269   3.685  0.2303 -0.6833  2.2443
 1013MOL0     H36708   5.692   6.099   3.695 -0.7896  0.9284  1.0675
 1013MOL0     H36709   5.545   6.206   3.445  0.0034  0.7201 -0.1255
 1013MOL0     H36710   5.716   6.226   3.456 -0.7419  0.1714 -1.5705
 1013MOL0     H36711   5.580   5.962   3.486 -0.2007 -0.0762  0.2862
 1013MOL0     H36712   5.755   6.004   3.497  0.4047  1.0578 -1.3290
 1013MOL0     H36713   5.567   6.044   3.258  0.0754  1.7004  1.7450
 1013MOL0     H36714   5.679   5.906   3.254  0.1455 -1.2584  0.2433
 1013MOL0     H36715   5.905   5.893   3.297 -2.7653  1.1490  1.1877
 1013MOL0     H36716   6.142   5.887   3.283 -2.7788 -2.9528 -1.8462
 1013MOL0     H36717   6.495   6.037   2.978  0.8467  1.0401  0.3592
 1013MOL0     H36718   6.751   5.981   2.947 -2.8579  1.1710 -1.4714
 1013MOL0     H36719   6.971   5.968   2.943 -0.3349 -0.5278 -0.6869
 1013MOL0     H36720   7.077   5.860   3.029  0.1210  1.2645  0.8999
 1013MOL0     H36721   6.934   5.675   2.971 -1.6248  0.3866  1.0845
 1013MOL0     H36722   6.817   5.777   2.884 -0.8811  2.6100  1.9595
 1013MOL0     H36723   6.989   5.842   2.727 -3.7098  0.5238  1.0864
 1013MOL0     H36724   7.105   5.723   2.796  0.3145 -0.2678 -0.3992
 1013MOL0     H36725   6.820   5.677   2.690 -0.7691 -1.3006 -0.0961
 1013MOL0     H36726   6.902   5.556   2.785  0.7209 -0.3290  0.7239
 1013MOL0     H36727   7.087   5.559   2.597 -0.1361  1.0395 -1.9905
 1013MOL0     H36728   6.996   5.667   2.503  0.2862 -0.7189 -0.5619
 1013MOL0     H36729   6.899   5.389   2.577  0.9628 -2.0874 -2.8509
 1013MOL0     H36730   6.813   5.499   2.463 -1.3126 -1.0674  1.0559
 1013MOL0     H36731   6.948   5.320   2.347  1.8611 -1.0627 -0.7559
 1013MOL0     H36732   7.087   5.391   2.435  0.2107 -1.8050 -0.3991
 1013MOL0     H36733   7.026   5.615   2.288 -0.0295  0.2031 -3.8862
 1013MOL0     H36734   7.085   5.475   2.207  0.3589  0.1715  0.3360
 1013MOL0     H36735   6.782   5.821   3.332 -1.5173 -0.5832  0.1755
 1013MOL0     H36736   6.541   5.895   3.391 -1.9464  2.6046  0.0139
 1013MOL0     H36737   6.144   6.299   3.164 -0.1310 -0.4670 -0.3893
 1013MOL0     H36738   5.909   6.306   3.146 -0.1508 -1.5866 -0.6193
 1013MOL0     H36739   4.266   6.006   3.992 -2.3151 -0.4459 -2.6166
 1013MOL0     H36740   4.104   5.893   4.127  1.8039 -0.2067  1.0836
 1013MOL0     H36741   3.666   6.067   4.317 -0.4097  0.8373 -1.2810
 1013MOL0     H36742   3.458   6.052   4.438  0.0852 -0.1320  0.8042
 1013MOL0     H36743   3.271   5.926   4.671 -0.8799 -0.1802  1.3332
 1013MOL0     H36744   3.444   5.891   4.676 -1.3571  1.4340  1.5648
 1013MOL0     H36745   3.424   5.657   4.713 -0.2264  0.2255  0.4019
 1013MOL0     H36746   3.251   5.670   4.688  1.0627  0.2608 -2.1765
 1013MOL0     H36747   3.298   5.660   4.938 -3.2669  1.8345  1.6545
 1013MOL0     H36748   3.217   5.805   4.883  0.4615  0.0316 -1.3349
 1013MOL0     H36749   3.506   5.774   4.974 -2.9036 -1.8308  1.1489
 1013MOL0     H36750   3.450   5.926   4.891 -1.4737  1.8569  1.6739
 1013MOL0     H36751   3.293   5.947   5.278 -1.3976 -2.2605  0.7126
 1013MOL0     H36752   3.485   5.630   4.448 -1.3456  2.0996  1.2387
 1013MOL0     H36753   3.746   5.575   4.212 -0.8212 -0.0013 -0.6150
 1013MOL0     H36754   3.829   5.606   4.362 -0.2808 -0.2576 -1.5341
 1013MOL0     H36755   3.688   5.520   4.378  2.4970 -0.7648  0.1862
 1014MOL0     O36756   7.385   7.173   8.554 -0.7142 -0.0549 -0.0070
 1014MOL0     C36757   7.381   7.054   8.514 -0.3481 -0.0358 -1.0088
 1014MOL0     O36758   7.440   7.011   8.396 -0.3038 -0.7158 -0.7576
 1014MOL0     C36759   7.428   7.096   8.292 -0.0827 -0.1422 -0.9447
 1014MOL0     C36760   7.543   7.157   8.235 -0.6628  0.8098  0.0412
 1014MOL0     C36761   7.527   7.235   8.120  0.3926 -0.7826 -0.0480
 1014MOL0     C36762   7.406   7.262   8.061 -0.0399 -0.6902  1.2502
 1014MOL0     O36763   7.413   7.350   7.953 -0.3879 -0.1955 -0.4105
 1014MOL0     C36764   7.323   7.329   7.848  0.7343  0.2347 -0.8263
 1014MOL0     C36765   7.367   7.404   7.722 -0.2667 -0.4417  0.8400
 1014MOL0     C36766   7.391   7.555   7.743 -0.3332 -0.3370 -0.0804
 1014MOL0     C36767   7.266   7.635   7.711  0.6750  0.2383  0.0524
 1014MOL0     C36768   7.262   7.777   7.757  0.0924  0.1660 -0.4769
 1014MOL0     C36769   7.123   7.839   7.730 -0.4867 -0.6696  0.5321
 1014MOL0     C36770   7.127   7.995   7.740 -0.0425 -0.2347 -0.2684
 1014MOL0     C36771   7.166   8.031   7.884  0.3498  0.1163  0.7158
 1014MOL0     N36772   7.167   8.173   7.903  0.3225 -0.1810  0.0417
 1014MOL0     C36773   7.280   8.248   7.891 -0.2761 -0.6453 -0.1264
 1014MOL0     C36774   7.244   8.363   7.955  0.6244  0.4031  0.1501
 1014MOL0     C36775   7.321   8.490   7.953 -0.1258 -0.2347 -0.1081
 1014MOL0     C36776   7.324   8.552   7.817 -0.2189 -0.3465 -0.4485
 1014MOL0     C36777   7.425   8.672   7.814  0.6726 -0.2417 -0.0793
 1014MOL0     C36778   7.438   8.744   7.676  0.3873 -0.0020  0.3153
 1014MOL0     O36779   7.496   8.650   7.576 -0.5732 -0.5327 -0.0253
 1014MOL0     C36780   7.628   8.625   7.582 -0.6048 -0.3195  0.5193
 1014MOL0     C36781   7.720   8.692   7.662  0.3095  0.6945  0.0872
 1014MOL0     C36782   7.858   8.660   7.642 -0.5753  0.2840 -0.6891
 1014MOL0     C36783   7.896   8.554   7.562 -0.7171  0.6661 -0.0803
 1014MOL0     C36784   8.040   8.520   7.549 -0.1209 -0.7421  0.4831
 1014MOL0     O36785   8.133   8.559   7.639  0.2090  0.3952  0.7092
 1014MOL0     C36786   8.270   8.584   7.604  0.4364  0.0396 -0.6361
 1014MOL0     C36787   8.350   8.616   7.713  0.1370 -0.2787 -0.2107
 1014MOL0     C36788   8.487   8.642   7.691  0.8658 -0.0101  0.0886
 1014MOL0     C36789   8.548   8.648   7.565 -0.5570  0.3249  0.2296
 1014MOL0     O36790   8.672   8.701   7.569 -0.0106 -0.2001 -0.1252
 1014MOL0     C36791   8.751   8.683   7.455 -0.3591 -0.3706  0.5874
 1014MOL0     C36792   8.898   8.713   7.472  0.1975 -0.0867  0.3249
 1014MOL0     C36793   8.924   8.844   7.548  0.1404 -0.5941 -0.3634
 1014MOL0     C36794   9.068   8.857   7.587 -0.1841  0.1861 -0.6739
 1014MOL0     C36795   9.105   8.968   7.689 -0.1533  0.2640 -0.3058
 1014MOL0     C36796   9.250   8.994   7.708  0.0104  0.2699 -0.5902
 1014MOL0     C36797   9.299   9.071   7.837 -0.0183 -0.3606 -0.0758
 1014MOL0     C36798   9.333   9.000   7.960 -0.0416  1.1692 -0.2940
 1014MOL0    Cl36799   9.498   8.925   7.938 -0.3539 -0.0887  0.2133
 1014MOL0     C36800   8.465   8.615   7.455  0.2936 -0.8678 -0.1665
 1014MOL0     C36801   8.327   8.583   7.475 -0.4462 -0.1340 -0.3338
 1014MOL0     O36802   8.063   8.446   7.452 -0.6937  0.0327  0.5315
 1014MOL0     C36803   7.805   8.485   7.481  0.2430  0.4558  0.6442
 1014MOL0     C36804   7.675   8.523   7.495  0.0617  0.1839 -0.0276
 1014MOL0     N36805   7.112   8.349   8.010  0.2625 -0.0674  0.8227
 1014MOL0     N36806   7.065   8.234   7.963  0.1324 -0.6063 -0.0640
 1014MOL0     C36807   7.297   7.211   8.119  0.2161  0.6942  0.0689
 1014MOL0     C36808   7.305   7.127   8.233 -0.3680  0.7811 -0.3566
 1014MOL0     C36809   7.329   6.951   8.604 -0.6126 -0.3747 -0.7721
 1014MOL0     C36810   7.208   6.986   8.672  0.0529 -0.3882  0.4011
 1014MOL0     C36811   7.142   6.900   8.751  0.3171 -0.0737 -0.1558
 1014MOL0     C36812   7.194   6.774   8.787  0.1268  0.0542 -0.3460
 1014MOL0     O36813   7.146   6.680   8.870 -0.6624 -0.0933 -0.2204
 1014MOL0     C36814   7.011   6.686   8.922 -0.3041 -0.6725  0.3474
 1014MOL0     C36815   7.032   6.734   9.070  0.1860  0.0240  0.2370
 1014MOL0     C36816   6.903   6.740   9.149 -0.3728 -0.6016  0.0594
 1014MOL0     C36817   6.928   6.818   9.283  0.4023  0.3830  0.8558
 1014MOL0     C36818   7.016   6.755   9.390  0.3922 -0.2914 -0.1957
 1014MOL0     C36819   7.097   6.705   9.470  0.1790 -0.2983 -0.5453
 1014MOL0     C36820   7.320   6.741   8.723  0.2492 -0.2407  0.4312
 1014MOL0     C36821   7.385   6.820   8.629 -0.2087  0.5458 -0.9919
 1014MOL0     C36822   7.502   6.758   8.556  0.1341  0.2624  0.2645
 1014MOL0     H36823   7.635   7.133   8.287 -0.5776 -0.1464 -0.5185
 1014MOL0     H36824   7.613   7.277   8.069 -0.2903  1.1360  0.2959
 1014MOL0     H36825   7.301   7.225   7.822 -2.6105  0.8095 -0.8087
 1014MOL0     H36826   7.222   7.361   7.877  0.7821  1.0610 -1.5131
 1014MOL0     H36827   7.283   7.390   7.653 -1.2559 -2.3254  2.3486
 1014MOL0     H36828   7.451   7.352   7.675 -0.7176 -0.2331 -0.2167
 1014MOL0     H36829   7.468   7.579   7.670 -1.0121 -1.1358 -1.0857
 1014MOL0     H36830   7.429   7.564   7.845  0.0243 -1.3505 -0.1102
 1014MOL0     H36831   7.248   7.625   7.604 -0.2968 -2.4306  0.3848
 1014MOL0     H36832   7.181   7.588   7.760  0.6257  1.5753  1.3423
 1014MOL0     H36833   7.272   7.788   7.865  1.2311 -0.5472 -0.4836
 1014MOL0     H36834   7.341   7.840   7.715 -1.1536  1.5377 -0.8262
 1014MOL0     H36835   7.090   7.813   7.629 -2.4376  2.3782  0.2521
 1014MOL0     H36836   7.050   7.805   7.803 -3.3076 -0.1454 -1.8450
 1014MOL0     H36837   7.028   8.033   7.715  0.2204 -0.0404 -1.0379
 1014MOL0     H36838   7.206   8.036   7.677  1.0989 -0.9375  0.6557
 1014MOL0     H36839   7.095   7.980   7.950 -0.8636  1.3931  0.4344
 1014MOL0     H36840   7.265   7.991   7.909 -0.7830 -2.2250  1.7994
 1014MOL0     H36841   7.373   8.221   7.842  1.4033 -1.2251  3.0741
 1014MOL0     H36842   7.272   8.561   8.019  0.1529  0.4854 -0.6605
 1014MOL0     H36843   7.423   8.470   7.989 -0.7251  1.4310  2.7722
 1014MOL0     H36844   7.376   8.480   7.753 -0.8485 -0.7270 -0.5327
 1014MOL0     H36845   7.228   8.593   7.784  0.1754  1.2385  0.2578
 1014MOL0     H36846   7.520   8.632   7.849  0.5169 -0.6118 -0.0771
 1014MOL0     H36847   7.392   8.746   7.888  3.0932  1.6537 -0.7797
 1014MOL0     H36848   7.511   8.825   7.687  2.1241 -1.5069  0.4259
 1014MOL0     H36849   7.342   8.780   7.639  1.3068  0.5698 -1.6484
 1014MOL0     H36850   7.696   8.767   7.737  0.1805  1.0299 -0.2819
 1014MOL0     H36851   7.919   8.715   7.714  1.2154 -1.0856 -1.1066
 1014MOL0     H36852   8.313   8.618   7.815  1.6493  0.5187  0.3448
 1014MOL0     H36853   8.546   8.656   7.781  2.1255  2.0315 -0.9832
 1014MOL0     H36854   8.738   8.582   7.416  1.1273 -0.4778  0.3249
 1014MOL0     H36855   8.717   8.748   7.373  0.3821  0.3974  0.8714
 1014MOL0     H36856   8.922   8.628   7.537 -0.2810 -1.0657 -0.7647
 1014MOL0     H36857   8.942   8.706   7.372 -0.8400  0.8285 -0.2104
 1014MOL0     H36858   8.905   8.929   7.482  2.7966  0.1647 -0.2638
 1014MOL0     H36859   8.862   8.859   7.638  0.3928 -1.3577 -0.0571
 1014MOL0     H36860   9.120   8.898   7.500  2.6631  2.5583  1.8727
 1014MOL0     H36861   9.113   8.762   7.616  0.4855  0.2324 -1.5363
 1014MOL0     H36862   9.078   8.935   7.790  1.8060 -0.9220 -0.1249
 1014MOL0     H36863   9.052   9.062   7.671  1.4476  1.3324  0.3588
 1014MOL0     H36864   9.308   8.903   7.692  0.0946  0.4409 -1.3181
 1014MOL0     H36865   9.276   9.066   7.629  0.9153 -1.6206 -2.0842
 1014MOL0     H36866   9.211   9.132   7.858 -0.2746 -1.1983  1.4451
 1014MOL0     H36867   9.388   9.129   7.815 -0.7009  0.4742 -0.7175
 1014MOL0     H36868   9.325   9.070   8.044 -1.1284  1.0037 -0.2414
 1014MOL0     H36869   9.259   8.920   7.967 -0.0732  1.2076 -0.1855
 1014MOL0     H36870   8.496   8.621   7.350 -0.3558 -0.5709 -0.3412
 1014MOL0     H36871   8.262   8.558   7.392  1.1765  0.8142 -1.9585
 1014MOL0     H36872   7.826   8.407   7.407 -0.0419  1.0539 -0.0794
 1014MOL0     H36873   7.610   8.459   7.437  2.2664 -0.3709 -2.0423
 1014MOL0     H36874   7.201   7.217   8.068 -0.9607  0.7931  2.1613
 1014MOL0     H36875   7.215   7.076   8.264 -1.0525  1.3689 -1.3026
 1014MOL0     H36876   7.165   7.086   8.677  2.4389  0.6843  1.5651
 1014MOL0     H36877   7.057   6.942   8.803  1.5770  0.5785  1.4877
 1014MOL0     H36878   6.963   6.588   8.932 -0.5607 -0.5735  0.1059
 1014MOL0     H36879   6.954   6.761   8.867  0.9047 -0.5148 -0.7240
 1014MOL0     H36880   7.077   6.834   9.064  0.2148  0.1741  2.1569
 1014MOL0     H36881   7.109   6.665   9.106  0.4800  0.0981 -0.2437
 1014MOL0     H36882   6.860   6.641   9.165 -2.8064  0.1510 -1.3457
 1014MOL0     H36883   6.837   6.789   9.078  1.8692  0.2633 -1.5517
 1014MOL0     H36884   6.974   6.909   9.244 -0.9347  0.8283  0.2512
 1014MOL0     H36885   6.827   6.832   9.322 -0.9451  1.8330 -2.7331
 1014MOL0     H36886   7.171   6.667   9.536  1.2887  1.1641 -0.9013
 1014MOL0     H36887   7.359   6.642   8.748 -0.4818 -0.7041 -0.2015
 1014MOL0     H36888   7.494   6.771   8.448  0.2132  1.1366  0.3596
 1014MOL0     H36889   7.598   6.798   8.593  0.6185 -1.3531  0.8665
 1014MOL0     H36890   7.503   6.650   8.575 -2.0480 -0.0453 -1.0667
 1015MOL0     O36891   0.514   2.327   8.733 -0.3606  0.3689 -0.0407
 1015MOL0     C36892   0.461   2.388   8.826 -0.0223 -1.0729 -0.0082
 1015MOL0     O36893   0.523   2.418   8.942 -0.4947 -0.5603  0.1849
 1015MOL0     C36894   0.652   2.377   8.966  0.4413  0.1394  0.2061
 1015MOL0     C36895   0.737   2.482   9.005  0.1977  0.0313  0.2160
 1015MOL0     C36896   0.863   2.451   9.043  0.2317 -0.4148  0.1431
 1015MOL0     C36897   0.918   2.319   9.049 -0.2620  0.0119 -0.9298
 1015MOL0     O36898   1.046   2.308   9.105  0.1868  0.1431  0.6522
 1015MOL0     C36899   1.120   2.199   9.074 -0.1273 -0.2718  0.3112
 1015MOL0     C36900   1.240   2.198   9.177  0.8029  0.7089 -0.3165
 1015MOL0     C36901   1.335   2.313   9.145  0.3195 -0.7919  1.0376
 1015MOL0     C36902   1.467   2.308   9.236  0.2983  0.7676  0.3693
 1015MOL0     C36903   1.568   2.429   9.213  0.6839  0.6869  0.5545
 1015MOL0     C36904   1.649   2.415   9.088 -1.0872  0.1966 -1.0730
 1015MOL0     C36905   1.765   2.510   9.108  0.4501  0.1432  0.0534
 1015MOL0     C36906   1.843   2.531   8.975  0.6953 -0.3672 -0.5522
 1015MOL0     N36907   1.881   2.416   8.902 -0.4644 -0.2945  0.6703
 1015MOL0     C36908   1.847   2.382   8.772  0.8821  0.7307  0.6651
 1015MOL0     C36909   1.915   2.270   8.755 -0.2916  0.4962 -0.6148
 1015MOL0     C36910   1.908   2.197   8.622 -0.5712  0.8990  0.6593
 1015MOL0     C36911   1.990   2.264   8.509  0.6786  0.5366  0.2546
 1015MOL0     C36912   2.042   2.162   8.399 -0.1411  0.0688 -0.0604
 1015MOL0     C36913   2.166   2.068   8.433 -0.1550 -0.6882  0.1666
 1015MOL0     O36914   2.277   2.143   8.483  0.3227 -0.7136  0.2622
 1015MOL0     C36915   2.380   2.070   8.543  0.0861  0.4097  0.2764
 1015MOL0     C36916   2.386   1.930   8.531 -0.1918 -0.1734 -0.9214
 1015MOL0     C36917   2.486   1.859   8.605 -0.1122  0.3049 -1.0614
 1015MOL0     C36918   2.577   1.925   8.693  0.6953  0.5374  0.6422
 1015MOL0     C36919   2.685   1.856   8.754 -1.1001  1.0566  0.0704
 1015MOL0     O36920   2.768   1.935   8.836 -0.5039 -0.1922  0.5291
 1015MOL0     C36921   2.887   1.888   8.883 -0.2265  1.1122 -0.4335
 1015MOL0     C36922   2.892   1.765   8.949  0.3864  0.0113 -0.5487
 1015MOL0     C36923   3.011   1.712   9.006  0.6858 -0.5092 -0.1995
 1015MOL0     C36924   3.126   1.788   9.011 -0.6484 -0.2065 -0.1145
 1015MOL0     O36925   3.244   1.747   9.066 -0.2180 -0.1278  0.5115
 1015MOL0     C36926   3.350   1.721   8.971  0.2548  0.1753  0.0537
 1015MOL0     C36927   3.360   1.562   8.956  0.2107 -0.3843  0.0503
 1015MOL0     C36928   3.434   1.505   9.081  0.4456 -0.2020  0.4507
 1015MOL0     C36929   3.450   1.353   9.099 -0.0754 -0.3095  0.4619
 1015MOL0     C36930   3.315   1.273   9.108 -0.0693 -0.0264  0.6085
 1015MOL0     C36931   3.346   1.127   9.159  0.0538 -0.2318 -0.0182
 1015MOL0     C36932   3.212   1.042   9.170 -0.1356  0.3510  0.4232
 1015MOL0     C36933   3.237   0.915   9.253 -0.3877  0.8932  0.3286
 1015MOL0    Cl36934   3.072   0.826   9.253  0.0486 -0.1215 -0.0423
 1015MOL0     C36935   3.115   1.921   8.962 -0.2955  0.3306 -0.9998
 1015MOL0     C36936   3.000   1.968   8.897  0.1737  0.9668  0.2579
 1015MOL0     O36937   2.699   1.732   8.736  0.4186 -0.2693  0.0608
 1015MOL0     C36938   2.567   2.066   8.695 -0.1507  0.2493  0.0307
 1015MOL0     C36939   2.463   2.132   8.635 -0.5549 -0.2829 -0.2201
 1015MOL0     N36940   1.986   2.234   8.872  0.8236  0.6269  0.3102
 1015MOL0     N36941   1.963   2.322   8.960  0.7689 -0.5756  0.7093
 1015MOL0     C36942   0.829   2.216   9.007 -0.0219 -0.9692 -0.1958
 1015MOL0     C36943   0.695   2.243   8.960  0.0038 -0.4395 -0.6671
 1015MOL0     C36944   0.320   2.420   8.817 -1.3191 -0.2559  0.4992
 1015MOL0     C36945   0.270   2.459   8.691  0.5808 -0.2127  0.0501
 1015MOL0     C36946   0.141   2.486   8.678  0.1301 -0.0578  0.3691
 1015MOL0     C36947   0.052   2.481   8.784 -0.1283  0.2282  0.2693
 1015MOL0     O36948  -0.084   2.515   8.784  0.2003  0.4383 -0.8270
 1015MOL0     C36949  -0.149   2.548   8.658  0.7656  0.4256  0.5135
 1015MOL0     C36950  -0.215   2.412   8.603  0.3987  0.4671  0.1003
 1015MOL0     C36951  -0.301   2.425   8.475  0.4908  0.2678  0.3556
 1015MOL0     C36952  -0.384   2.554   8.450  0.6298  0.4561 -0.3962
 1015MOL0     C36953  -0.474   2.591   8.559  0.0946 -0.3144 -0.4612
 1015MOL0     C36954  -0.552   2.611   8.654  0.4238  0.5754  0.6786
 1015MOL0     C36955   0.103   2.438   8.906  0.1105 -0.0074  0.0573
 1015MOL0     C36956   0.235   2.410   8.929 -0.3507  0.1746  0.2090
 1015MOL0     C36957   0.261   2.367   9.076 -0.4933  0.5483  0.3230
 1015MOL0     H36958   0.702   2.585   9.004  0.3206  0.0685 -0.3439
 1015MOL0     H36959   0.907   2.542   9.083 -0.0065 -0.8244  1.3956
 1015MOL0     H36960   1.070   2.102   9.082  0.3738 -0.7745 -1.9804
 1015MOL0     H36961   1.154   2.203   8.970  0.0620 -1.8722  0.2875
 1015MOL0     H36962   1.282   2.100   9.150 -4.2350 -1.6309 -0.8408
 1015MOL0     H36963   1.211   2.197   9.282  2.4555 -0.1277  0.1689
 1015MOL0     H36964   1.288   2.411   9.158  0.3409 -0.5506 -0.4696
 1015MOL0     H36965   1.362   2.296   9.040  0.3761  0.0850  0.9057
 1015MOL0     H36966   1.432   2.300   9.339 -3.2877  1.2209 -0.6910
 1015MOL0     H36967   1.526   2.218   9.215  0.6649  1.6415 -2.9782
 1015MOL0     H36968   1.516   2.525   9.206 -1.9821 -0.7444 -2.5619
 1015MOL0     H36969   1.634   2.428   9.300 -1.5289 -0.5465  2.3375
 1015MOL0     H36970   1.695   2.316   9.085 -1.9914 -0.2912  0.1738
 1015MOL0     H36971   1.587   2.448   9.004 -0.5261  4.0786 -0.1185
 1015MOL0     H36972   1.835   2.480   9.187  1.9110  3.9186  0.4236
 1015MOL0     H36973   1.727   2.604   9.149 -0.7975 -0.1831 -0.3159
 1015MOL0     H36974   1.780   2.582   8.901 -0.7623  0.4884  1.1990
 1015MOL0     H36975   1.937   2.584   8.991  0.7682 -0.4322 -0.7554
 1015MOL0     H36976   1.787   2.436   8.699  0.2890 -0.9627 -0.1435
 1015MOL0     H36977   1.939   2.092   8.622  3.0490  1.8217 -0.9600
 1015MOL0     H36978   1.805   2.189   8.585 -0.9729 -0.0951  1.9260
 1015MOL0     H36979   1.916   2.329   8.461  0.8131 -0.5118 -1.4623
 1015MOL0     H36980   2.073   2.328   8.540  0.4234  0.4799  1.0808
 1015MOL0     H36981   2.075   2.220   8.312  0.4619 -0.1393  0.0249
 1015MOL0     H36982   1.958   2.099   8.368 -0.7225  2.1632 -3.2693
 1015MOL0     H36983   2.202   2.015   8.344  0.3609 -0.4639  0.2389
 1015MOL0     H36984   2.137   1.995   8.509 -2.4772 -0.6757 -0.6545
 1015MOL0     H36985   2.319   1.871   8.470 -1.8122  1.0889 -0.4264
 1015MOL0     H36986   2.486   1.754   8.579  1.6195 -0.2933  1.0284
 1015MOL0     H36987   2.800   1.708   8.950 -0.4427  1.1817  3.0062
 1015MOL0     H36988   3.015   1.621   9.064  1.2087  0.2321  0.9686
 1015MOL0     H36989   3.335   1.761   8.870 -1.4263  0.4733  0.3971
 1015MOL0     H36990   3.446   1.765   9.001 -0.6900  1.2844  1.6122
 1015MOL0     H36991   3.261   1.514   8.949  0.9507 -1.8066 -1.3408
 1015MOL0     H36992   3.419   1.524   8.872 -0.3799 -3.3569  0.8646
 1015MOL0     H36993   3.537   1.541   9.074  0.2700  0.3653  0.6844
 1015MOL0     H36994   3.385   1.541   9.172  0.8546 -1.8661  1.3836
 1015MOL0     H36995   3.507   1.338   9.191  2.1195 -4.8887 -1.3474
 1015MOL0     H36996   3.519   1.315   9.023  1.4668  0.5287  1.4139
 1015MOL0     H36997   3.254   1.275   9.017  0.3335  5.4138  0.1272
 1015MOL0     H36998   3.254   1.324   9.183  2.8566 -0.1506  3.2873
 1015MOL0     H36999   3.416   1.075   9.093  1.5931 -0.8287  2.0012
 1015MOL0     H37000   3.392   1.139   9.257 -1.5535 -0.9930  0.8754
 1015MOL0     H37001   3.185   1.019   9.067  1.6398  0.6321 -0.1358
 1015MOL0     H37002   3.131   1.093   9.223  1.6898  2.1561  1.6310
 1015MOL0     H37003   3.317   0.850   9.215 -1.2341  0.5388 -0.8784
 1015MOL0     H37004   3.280   0.942   9.350  2.8437 -0.9190 -0.4185
 1015MOL0     H37005   3.202   1.983   8.978 -0.0010 -0.4074  0.3605
 1015MOL0     H37006   3.000   2.067   8.854  1.6367  1.1914  0.7384
 1015MOL0     H37007   2.635   2.117   8.762 -0.2227 -1.5140  1.5420
 1015MOL0     H37008   2.459   2.238   8.657 -0.8916 -0.6411  1.6615
 1015MOL0     H37009   0.863   2.115   8.992  2.6045 -0.1321 -0.4592
 1015MOL0     H37010   0.629   2.161   8.933  0.2133 -0.8613  0.0613
 1015MOL0     H37011   0.333   2.483   8.607 -1.2371  2.3452 -0.6914
 1015MOL0     H37012   0.109   2.517   8.579  0.2540  2.9227  1.1442
 1015MOL0     H37013  -0.077   2.589   8.588  1.3796 -1.5188 -0.0610
 1015MOL0     H37014  -0.227   2.624   8.670  0.4057  0.2052 -0.3863
 1015MOL0     H37015  -0.278   2.373   8.683 -1.4580  1.3950 -0.8288
 1015MOL0     H37016  -0.141   2.335   8.582 -0.6524 -0.0326 -2.1696
 1015MOL0     H37017  -0.380   2.352   8.454  3.3348 -2.7470 -0.5417
 1015MOL0     H37018  -0.233   2.423   8.390 -2.1820  1.4111 -1.9666
 1015MOL0     H37019  -0.314   2.637   8.436  3.3936 -1.2886  1.8083
 1015MOL0     H37020  -0.441   2.540   8.358 -1.1013 -0.0926  0.7134
 1015MOL0     H37021  -0.618   2.642   8.732 -1.7525  0.4097 -0.9977
 1015MOL0     H37022   0.038   2.438   8.993  0.0753  1.1350  0.0500
 1015MOL0     H37023   0.359   2.323   9.093  1.4427  4.2714 -0.0746
 1015MOL0     H37024   0.258   2.459   9.135  2.3019  2.2057 -1.8612
 1015MOL0     H37025   0.186   2.292   9.104  1.7420 -3.0294 -2.3957
 1016MOL0     O37026   1.922   4.001   8.185  0.9037  0.3664  0.4084
 1016MOL0     C37027   1.869   3.996   8.295  0.2824 -0.0393 -0.3550
 1016MOL0     O37028   1.926   4.030   8.415 -0.1239  0.4677 -0.3282
 1016MOL0     C37029   2.047   4.083   8.417 -0.0741  0.1367  0.4049
 1016MOL0     C37030   2.073   4.215   8.420  0.3863 -0.1871  0.0450
 1016MOL0     C37031   2.202   4.264   8.425  0.2017 -0.4097 -0.2085
 1016MOL0     C37032   2.315   4.182   8.440 -0.2627  0.8845  0.0888
 1016MOL0     O37033   2.447   4.215   8.451 -1.0529  0.1856 -0.2845
 1016MOL0     C37034   2.476   4.360   8.456 -0.3464  1.3560  0.1007
 1016MOL0     C37035   2.622   4.371   8.503  0.3747 -0.3133 -0.1812
 1016MOL0     C37036   2.715   4.302   8.406  0.9330 -0.4126 -0.1173
 1016MOL0     C37037   2.862   4.335   8.439  0.5044 -0.2598  0.4251
 1016MOL0     C37038   2.959   4.258   8.351  0.3232 -0.5655  0.5107
 1016MOL0     C37039   2.941   4.299   8.201 -0.0497 -0.3278  1.1779
 1016MOL0     C37040   3.040   4.210   8.122 -0.1137 -0.1680  0.3817
 1016MOL0     C37041   3.015   4.237   7.972 -0.1047  0.1049  0.3867
 1016MOL0     N37042   3.102   4.160   7.888  0.4370 -0.4593  0.0348
 1016MOL0     C37043   3.076   4.045   7.817 -0.5582 -0.7408  0.3118
 1016MOL0     C37044   3.185   4.038   7.734  0.6937  0.5282 -0.0387
 1016MOL0     C37045   3.195   3.936   7.633 -0.3022 -0.6287  0.2999
 1016MOL0     C37046   3.261   3.984   7.502 -0.1779 -0.1985 -0.2137
 1016MOL0     C37047   3.414   3.986   7.523  0.2078  0.4418  0.6755
 1016MOL0     C37048   3.493   3.971   7.398 -0.4040  0.1208  0.6895
 1016MOL0     O37049   3.468   3.840   7.333  0.2991  0.6287 -0.2786
 1016MOL0     C37050   3.568   3.750   7.304  0.1475 -0.3052 -0.2825
 1016MOL0     C37051   3.561   3.711   7.176  0.6057  0.8609 -0.0549
 1016MOL0     C37052   3.660   3.616   7.143 -0.2072 -0.4277  0.8038
 1016MOL0     C37053   3.766   3.582   7.229  0.4454  0.1623 -0.3282
 1016MOL0     C37054   3.878   3.494   7.178  0.3026  0.2006 -0.0383
 1016MOL0     O37055   3.964   3.437   7.269  0.5728  0.9944  0.1597
 1016MOL0     C37056   4.055   3.339   7.233 -0.4588  0.3941  0.6264
 1016MOL0     C37057   4.042   3.223   7.300  0.0053  0.1483 -0.7013
 1016MOL0     C37058   4.127   3.113   7.279 -0.0019  0.3391  0.6660
 1016MOL0     C37059   4.219   3.116   7.174 -0.0249 -0.1699 -0.1886
 1016MOL0     O37060   4.301   3.005   7.146  0.2502 -0.1531  0.1804
 1016MOL0     C37061   4.370   2.991   7.022 -0.4252  0.2042 -0.6232
 1016MOL0     C37062   4.375   2.842   6.975  0.2294 -0.1157 -0.9919
 1016MOL0     C37063   4.434   2.827   6.839  0.2538 -0.3801 -0.0409
 1016MOL0     C37064   4.464   2.679   6.805  0.1229  0.0961  0.4209
 1016MOL0     C37065   4.574   2.663   6.702  0.4357  0.8264 -0.2605
 1016MOL0     C37066   4.718   2.691   6.743  0.7369  0.7686 -0.0456
 1016MOL0     C37067   4.808   2.651   6.621 -0.2272 -0.1907  0.1474
 1016MOL0     C37068   4.956   2.701   6.636 -0.0751 -0.4118 -0.2272
 1016MOL0    Cl37069   5.047   2.617   6.771  0.1474  0.2645  0.2476
 1016MOL0     C37070   4.227   3.236   7.099  0.0908 -0.6415  0.8742
 1016MOL0     C37071   4.142   3.344   7.120 -0.2073  0.0002 -0.2044
 1016MOL0     O37072   3.891   3.482   7.056  0.0855  0.3153  0.0976
 1016MOL0     C37073   3.776   3.634   7.355  0.1698  0.7067 -1.5352
 1016MOL0     C37074   3.663   3.716   7.389 -0.0871 -0.0688  0.1438
 1016MOL0     N37075   3.292   4.112   7.788 -0.1934 -0.2862  0.0207
 1016MOL0     N37076   3.235   4.183   7.880 -0.4975  0.1205  0.0786
 1016MOL0     C37077   2.288   4.042   8.449  0.7895  0.3153  0.1327
 1016MOL0     C37078   2.157   3.995   8.433 -0.0756  0.0052  0.6720
 1016MOL0     C37079   1.741   3.917   8.320 -0.5518  0.9098  1.5841
 1016MOL0     C37080   1.687   3.905   8.445 -1.0608 -1.1542  0.7183
 1016MOL0     C37081   1.572   3.832   8.467  0.8727 -0.1862 -0.9640
 1016MOL0     C37082   1.502   3.752   8.370 -0.6580  0.2608 -0.1012
 1016MOL0     O37083   1.377   3.696   8.382 -0.1048  0.5503 -0.2512
 1016MOL0     C37084   1.298   3.726   8.497 -0.4642  0.4802  0.0546
 1016MOL0     C37085   1.185   3.827   8.464  0.4038 -0.8170  0.4695
 1016MOL0     C37086   1.078   3.762   8.377 -0.2311 -0.3437  0.8749
 1016MOL0     C37087   0.969   3.871   8.366  0.1545 -0.1374 -0.1792
 1016MOL0     C37088   1.000   3.969   8.260  0.6210 -0.4598 -0.8930
 1016MOL0     C37089   1.046   4.066   8.197  0.1682  0.1361 -0.1662
 1016MOL0     C37090   1.566   3.756   8.246  0.5499 -0.5016  0.2792
 1016MOL0     C37091   1.678   3.833   8.218  0.2918 -0.1679  0.3718
 1016MOL0     C37092   1.723   3.835   8.078  1.0090  0.0746  1.2248
 1016MOL0     H37093   1.986   4.279   8.415  0.2449 -0.3574  0.3060
 1016MOL0     H37094   2.216   4.371   8.433  0.2969 -0.5424  1.6685
 1016MOL0     H37095   2.468   4.410   8.359 -1.9086  2.1263  0.5925
 1016MOL0     H37096   2.419   4.422   8.525 -0.3745 -0.4706  1.8061
 1016MOL0     H37097   2.642   4.331   8.603 -0.1058 -0.4678 -0.1460
 1016MOL0     H37098   2.646   4.478   8.501  1.2853 -0.5123 -1.8252
 1016MOL0     H37099   2.698   4.327   8.301  2.4774 -2.8202 -1.0151
 1016MOL0     H37100   2.693   4.195   8.412 -1.2811 -0.0707 -0.9169
 1016MOL0     H37101   2.873   4.444   8.431  0.1286 -0.3246 -1.3755
 1016MOL0     H37102   2.887   4.317   8.544  2.4771  0.7416  0.1729
 1016MOL0     H37103   3.060   4.285   8.384 -0.7383  2.2939  1.7832
 1016MOL0     H37104   2.935   4.153   8.364  4.2172 -1.6447  0.2234
 1016MOL0     H37105   2.842   4.281   8.160  0.3303  0.4167 -0.1173
 1016MOL0     H37106   2.974   4.403   8.192  2.1143 -0.9212  1.6396
 1016MOL0     H37107   3.015   4.104   8.132 -0.5411 -0.0360  0.7584
 1016MOL0     H37108   3.141   4.228   8.160 -0.2134  0.2725  0.4399
 1016MOL0     H37109   2.911   4.214   7.946 -0.1879 -0.6840  1.3520
 1016MOL0     H37110   3.038   4.342   7.954  0.1474 -0.0863 -0.4504
 1016MOL0     H37111   2.973   4.011   7.813 -2.1259  3.4886 -3.5818
 1016MOL0     H37112   3.239   3.846   7.677  0.4716 -0.9762 -1.1251
 1016MOL0     H37113   3.092   3.912   7.605  0.1240 -0.6916 -1.3125
 1016MOL0     H37114   3.222   3.933   7.413 -2.0949  0.8833 -0.0450
 1016MOL0     H37115   3.241   4.091   7.494  0.5806  0.0287  0.7228
 1016MOL0     H37116   3.441   3.893   7.574  1.7427 -0.6463 -1.9103
 1016MOL0     H37117   3.457   4.067   7.582  0.4234  0.8287 -0.0060
 1016MOL0     H37118   3.599   3.982   7.423  0.6547 -1.7359 -2.4328
 1016MOL0     H37119   3.453   4.048   7.332  0.8274 -0.9054 -1.3446
 1016MOL0     H37120   3.482   3.748   7.112 -1.9411 -0.8633  1.8565
 1016MOL0     H37121   3.648   3.573   7.044 -0.8644  0.1825  0.6150
 1016MOL0     H37122   3.968   3.220   7.379  0.0499  2.1299 -0.5186
 1016MOL0     H37123   4.104   3.015   7.320  3.0092 -0.1230  1.5247
 1016MOL0     H37124   4.325   3.041   6.935 -2.4720  0.3025  0.4402
 1016MOL0     H37125   4.474   3.024   7.034 -0.3979  0.3345 -1.1690
 1016MOL0     H37126   4.428   2.784   7.051  0.4259  1.1777 -0.1028
 1016MOL0     H37127   4.272   2.807   6.970  0.1022  0.1304 -0.3146
 1016MOL0     H37128   4.361   2.871   6.772  0.7437  1.3175  0.4750
 1016MOL0     H37129   4.525   2.886   6.825  1.5381 -2.6050 -1.7431
 1016MOL0     H37130   4.377   2.624   6.767  0.4686 -0.6874  0.7430
 1016MOL0     H37131   4.492   2.634   6.900  1.2290 -1.6224 -0.6704
 1016MOL0     H37132   4.556   2.724   6.614  2.4774  2.1200  0.1572
 1016MOL0     H37133   4.579   2.558   6.670 -0.5170  0.5833  0.3596
 1016MOL0     H37134   4.732   2.796   6.768 -0.8398  0.9055  0.3063
 1016MOL0     H37135   4.748   2.626   6.826  0.0562 -1.3211 -1.3599
 1016MOL0     H37136   4.769   2.697   6.530  0.2122 -0.0698  0.0182
 1016MOL0     H37137   4.813   2.542   6.610 -3.9510 -0.3423 -1.1718
 1016MOL0     H37138   5.012   2.687   6.543  2.6675  1.6599  0.9777
 1016MOL0     H37139   4.953   2.808   6.658 -0.3576 -0.2340 -1.0772
 1016MOL0     H37140   4.300   3.245   7.019 -1.6180 -0.2461 -0.7063
 1016MOL0     H37141   4.148   3.430   7.054 -0.4119  0.6532  0.6196
 1016MOL0     H37142   3.852   3.610   7.429 -0.6277 -1.9166 -1.4441
 1016MOL0     H37143   3.649   3.755   7.489 -1.9920 -0.7666  0.1816
 1016MOL0     H37144   2.372   3.975   8.467 -0.4944 -1.2131  0.6492
 1016MOL0     H37145   2.141   3.888   8.440 -0.4595  0.0692  0.8010
 1016MOL0     H37146   1.724   3.961   8.530 -1.1539 -0.2408  0.1754
 1016MOL0     H37147   1.540   3.815   8.570  0.0657  0.2897 -1.1275
 1016MOL0     H37148   1.345   3.776   8.581 -0.3962 -0.0413  0.3329
 1016MOL0     H37149   1.253   3.633   8.534  1.6117 -0.1698  1.1122
 1016MOL0     H37150   1.230   3.904   8.400  0.5557 -2.1873 -1.1193
 1016MOL0     H37151   1.143   3.875   8.553 -1.6369  0.6957 -1.2287
 1016MOL0     H37152   1.032   3.676   8.427 -1.5247  0.5028  1.2045
 1016MOL0     H37153   1.118   3.721   8.284 -0.5847 -1.5674  1.2424
 1016MOL0     H37154   0.871   3.831   8.340 -0.0296  1.2832 -1.9002
 1016MOL0     H37155   0.952   3.927   8.458  2.5610  2.9378 -1.3861
 1016MOL0     H37156   1.086   4.144   8.135  0.0782 -1.6052 -2.5911
 1016MOL0     H37157   1.521   3.704   8.162  0.1261  1.2990 -0.6403
 1016MOL0     H37158   1.712   3.938   8.042  1.7778 -0.1775  0.2324
 1016MOL0     H37159   1.828   3.803   8.072  1.2977  1.1444 -0.2004
 1016MOL0     H37160   1.669   3.761   8.018  1.6251 -3.8716  5.0527
 1017MOL0     O37161   9.833   0.625   2.563  0.3593  0.4931  0.1587
 1017MOL0     C37162   9.773   0.705   2.630  0.7171  0.2912  0.3793
 1017MOL0     O37163   9.823   0.760   2.746 -0.4651  0.2102  0.2516
 1017MOL0     C37164   9.954   0.750   2.772 -0.1082 -0.3294  0.5930
 1017MOL0     C37165  10.048   0.794   2.685 -0.8021  0.5446  0.0793
 1017MOL0     C37166  10.184   0.778   2.709  0.6129 -0.7067  0.3466
 1017MOL0     C37167  10.232   0.717   2.826  0.5027  0.2313  0.0403
 1017MOL0     O37168  10.361   0.694   2.857  0.1618 -0.3724 -0.5269
 1017MOL0     C37169  10.461   0.723   2.756 -0.6077  0.1618 -1.0275
 1017MOL0     C37170  10.599   0.664   2.791  0.1533  0.0428  0.6438
 1017MOL0     C37171  10.655   0.715   2.918  0.4005 -0.0101 -0.2622
 1017MOL0     C37172  10.784   0.633   2.948  0.4286  0.0697 -0.6772
 1017MOL0     C37173  10.896   0.671   2.855 -0.3068  0.1240 -0.3525
 1017MOL0     C37174  11.019   0.599   2.914  1.3145  0.4659  0.4024
 1017MOL0     C37175  11.146   0.626   2.830  0.0219 -0.9516 -0.6419
 1017MOL0     C37176  11.206   0.769   2.840  0.5863 -0.1013  0.1135
 1017MOL0     N37177  11.326   0.772   2.759 -0.9877 -0.4336 -0.1806
 1017MOL0     C37178  11.445   0.713   2.789  1.2650 -1.5756 -0.0474
 1017MOL0     C37179  11.535   0.785   2.717  0.0566 -0.0625  0.0364
 1017MOL0     C37180  11.684   0.752   2.711  0.0212 -0.7229  0.2518
 1017MOL0     C37181  11.754   0.712   2.843 -0.0177 -0.1433 -0.5564
 1017MOL0     C37182  11.899   0.657   2.827  0.4889 -0.0350  0.3691
 1017MOL0     C37183  11.955   0.621   2.964  0.0814 -0.3256 -0.1641
 1017MOL0     O37184  12.089   0.580   2.961 -0.0612  0.3979  0.3562
 1017MOL0     C37185  12.172   0.663   3.027 -0.8234  0.5817  0.0052
 1017MOL0     C37186  12.232   0.758   2.948  0.0976 -0.1278 -0.0345
 1017MOL0     C37187  12.331   0.838   2.996 -0.7027  0.6266 -0.3031
 1017MOL0     C37188  12.367   0.822   3.129  0.0271  0.0333 -0.5482
 1017MOL0     C37189  12.471   0.917   3.197 -0.0882  0.0530 -0.2360
 1017MOL0     O37190  12.503   0.899   3.329 -0.1650  0.0778  0.6641
 1017MOL0     C37191  12.612   0.955   3.390  0.5275  0.5488 -0.2653
 1017MOL0     C37192  12.664   0.881   3.495  0.2975 -0.2376 -0.1510
 1017MOL0     C37193  12.764   0.929   3.573  0.4969  1.2321  0.9203
 1017MOL0     C37194  12.828   1.047   3.540 -0.2133  0.7633 -0.3867
 1017MOL0     O37195  12.931   1.084   3.616  0.1092 -0.0432 -0.2489
 1017MOL0     C37196  12.995   1.214   3.590 -0.4459  0.7623  0.5026
 1017MOL0     C37197  13.129   1.216   3.671 -0.0828  0.1639  0.5081
 1017MOL0     C37198  13.226   1.324   3.610 -0.6395  0.1925 -0.0601
 1017MOL0     C37199  13.363   1.300   3.659 -0.7729 -0.2646 -0.7060
 1017MOL0     C37200  13.452   1.405   3.602 -0.0213 -0.9227 -0.2024
 1017MOL0     C37201  13.589   1.408   3.677  0.3655 -0.1729 -0.1784
 1017MOL0     C37202  13.576   1.419   3.832 -0.1382 -0.9421 -0.3025
 1017MOL0     C37203  13.710   1.441   3.905  0.4336  0.4768  0.0166
 1017MOL0    Cl37204  13.838   1.333   3.844  0.1956  0.1231  0.1287
 1017MOL0     C37205  12.782   1.120   3.436 -0.5036  0.5390 -0.2179
 1017MOL0     C37206  12.670   1.083   3.366 -0.4326 -1.6468 -0.9024
 1017MOL0     O37207  12.523   1.002   3.122  0.0847 -0.8731  0.7444
 1017MOL0     C37208  12.304   0.723   3.211 -0.2713 -0.5395 -0.2636
 1017MOL0     C37209  12.212   0.634   3.158 -0.1856 -1.3869  0.4973
 1017MOL0     N37210  11.468   0.866   2.621 -1.0058 -0.1488  0.1080
 1017MOL0     N37211  11.350   0.857   2.655 -0.4333  0.1165  0.4518
 1017MOL0     C37212  10.133   0.674   2.916  0.1807  0.2865 -0.3332
 1017MOL0     C37213   9.999   0.696   2.895  0.7355  0.7398  0.1783
 1017MOL0     C37214   9.622   0.725   2.609  0.1410 -0.0394 -0.1424
 1017MOL0     C37215   9.558   0.804   2.706  0.5609 -0.4181  0.1034
 1017MOL0     C37216   9.421   0.852   2.686 -0.0004 -0.2069 -0.0729
 1017MOL0     C37217   9.347   0.809   2.580  1.0361 -0.2257  0.2747
 1017MOL0     O37218   9.214   0.849   2.591 -0.4645  0.2797  0.6664
 1017MOL0     C37219   9.125   0.805   2.495  0.1625  0.6203  0.0950
 1017MOL0     C37220   9.065   0.664   2.524  0.7932  0.0636  0.2982
 1017MOL0     C37221   8.945   0.655   2.425 -0.0827  0.4133  0.4167
 1017MOL0     C37222   8.857   0.528   2.444 -0.5749 -0.8299 -0.0001
 1017MOL0     C37223   8.758   0.531   2.336 -0.3809  0.3450  0.3144
 1017MOL0     C37224   8.688   0.536   2.241  0.3192  0.8240  0.4328
 1017MOL0     C37225   9.410   0.725   2.494  0.3013  0.8120  0.0806
 1017MOL0     C37226   9.543   0.684   2.504  0.4010  0.6757  0.0628
 1017MOL0     C37227   9.601   0.598   2.391  0.4530 -0.5161 -0.8479
 1017MOL0     H37228  10.025   0.845   2.592 -0.7805 -0.4334 -0.4807
 1017MOL0     H37229  10.255   0.805   2.632 -0.3687 -1.5636 -0.9049
 1017MOL0     H37230  10.432   0.662   2.669  0.8782 -1.2581 -0.5821
 1017MOL0     H37231  10.467   0.829   2.732 -0.6617  0.5190  0.4455
 1017MOL0     H37232  10.666   0.696   2.711 -2.0429  0.0312 -1.2864
 1017MOL0     H37233  10.603   0.554   2.791 -0.4617 -0.0874 -2.7727
 1017MOL0     H37234  10.584   0.693   2.999 -0.0942  0.3068 -0.6033
 1017MOL0     H37235  10.676   0.822   2.916 -4.7592  1.3468  1.7377
 1017MOL0     H37236  10.812   0.650   3.052  0.4972  0.2269 -0.7212
 1017MOL0     H37237  10.754   0.528   2.942  0.5199 -0.3728  3.5919
 1017MOL0     H37238  10.871   0.645   2.752 -3.3280 -0.9556  0.5618
 1017MOL0     H37239  10.917   0.778   2.853  0.6523 -0.0405  0.1057
 1017MOL0     H37240  11.034   0.611   3.022 -0.4646  1.1524  0.6031
 1017MOL0     H37241  10.998   0.492   2.909  0.1891  0.6738  0.4200
 1017MOL0     H37242  11.128   0.602   2.725 -0.3705  1.4136 -1.1760
 1017MOL0     H37243  11.225   0.555   2.859  2.6268  1.5238 -1.1887
 1017MOL0     H37244  11.138   0.844   2.797  0.8959  0.2317  0.1969
 1017MOL0     H37245  11.234   0.796   2.942 -0.2009  1.4637 -0.0499
 1017MOL0     H37246  11.459   0.634   2.862 -1.8972 -0.2535  2.2467
 1017MOL0     H37247  11.703   0.670   2.641  2.0285  1.4058 -1.9025
 1017MOL0     H37248  11.737   0.837   2.668 -1.0930 -0.4129 -0.5301
 1017MOL0     H37249  11.763   0.798   2.910  1.5569  0.2096 -1.1846
 1017MOL0     H37250  11.698   0.642   2.906  0.0910  0.6703  0.4706
 1017MOL0     H37251  11.956   0.731   2.770 -2.0981  2.3452  0.6738
 1017MOL0     H37252  11.901   0.571   2.760  0.5188  1.3426 -1.4831
 1017MOL0     H37253  11.899   0.538   3.007 -0.5040 -0.3954 -1.0370
 1017MOL0     H37254  11.934   0.711   3.022 -2.2843 -0.8287 -0.1133
 1017MOL0     H37255  12.198   0.766   2.845  0.0201 -0.3644 -0.0289
 1017MOL0     H37256  12.383   0.905   2.928  0.2258 -0.4825 -0.7220
 1017MOL0     H37257  12.601   0.797   3.523 -0.7007  0.0224 -1.5500
 1017MOL0     H37258  12.796   0.877   3.663  1.9483 -1.2113 -0.9023
 1017MOL0     H37259  13.020   1.215   3.483 -1.0102 -0.8121  0.3294
 1017MOL0     H37260  12.931   1.300   3.610 -2.6872 -0.6261 -0.2989
 1017MOL0     H37261  13.117   1.223   3.779 -0.3428  0.3349  0.4688
 1017MOL0     H37262  13.171   1.116   3.656  0.0464 -0.4239  3.9918
 1017MOL0     H37263  13.236   1.300   3.503  0.9059  2.9273 -0.6074
 1017MOL0     H37264  13.187   1.425   3.624  1.5040  1.4145 -2.2104
 1017MOL0     H37265  13.402   1.200   3.637 -1.9208 -1.3119  1.6591
 1017MOL0     H37266  13.362   1.318   3.767  2.4226  0.9628 -0.7897
 1017MOL0     H37267  13.408   1.506   3.599  0.2665 -0.7944 -0.0779
 1017MOL0     H37268  13.472   1.382   3.497  1.2513  1.2452 -0.5103
 1017MOL0     H37269  13.647   1.318   3.656  2.4299  0.3072  2.8036
 1017MOL0     H37270  13.646   1.496   3.648  0.2006 -0.2983 -0.8982
 1017MOL0     H37271  13.542   1.328   3.883  1.7156 -0.0123  2.9249
 1017MOL0     H37272  13.502   1.493   3.865 -0.4953 -0.6138 -1.7855
 1017MOL0     H37273  13.731   1.548   3.894  0.3749  0.8825  3.0718
 1017MOL0     H37274  13.698   1.419   4.011 -3.3687 -0.0163 -0.3521
 1017MOL0     H37275  12.823   1.217   3.408 -0.7471  0.1833 -1.9101
 1017MOL0     H37276  12.646   1.168   3.303  0.6867 -1.3156 -0.9014
 1017MOL0     H37277  12.329   0.722   3.316 -0.8234 -0.8380 -0.1298
 1017MOL0     H37278  12.164   0.552   3.211 -1.5826 -1.5452 -0.9033
 1017MOL0     H37279  10.171   0.620   3.002 -0.9762 -1.1012 -0.6662
 1017MOL0     H37280   9.930   0.643   2.959  1.1398 -1.1033 -0.8062
 1017MOL0     H37281   9.599   0.839   2.800 -1.6701  2.4047  0.1848
 1017MOL0     H37282   9.371   0.912   2.761 -0.2920  0.5605 -0.8654
 1017MOL0     H37283   9.177   0.802   2.399  2.0477 -0.4993  1.0897
 1017MOL0     H37284   9.055   0.888   2.479 -0.4424  0.0767 -0.1323
 1017MOL0     H37285   9.025   0.652   2.625  2.1762 -2.0870  0.6509
 1017MOL0     H37286   9.142   0.587   2.515 -0.6556 -1.6229  1.5997
 1017MOL0     H37287   8.981   0.645   2.322  0.1083  1.0881  0.4137
 1017MOL0     H37288   8.881   0.741   2.444 -0.6103 -0.4805  3.0278
 1017MOL0     H37289   8.917   0.437   2.437  1.9070  0.8435 -2.8015
 1017MOL0     H37290   8.801   0.530   2.538 -1.9359 -1.0897 -0.7789
 1017MOL0     H37291   8.622   0.531   2.157 -0.2046  1.5837  0.7868
 1017MOL0     H37292   9.350   0.685   2.414  0.5398 -0.0006  0.3007
 1017MOL0     H37293   9.628   0.514   2.454  1.1164  1.6304  1.9405
 1017MOL0     H37294   9.519   0.578   2.321 -0.4625  1.6514 -0.4869
 1017MOL0     H37295   9.680   0.652   2.337  1.2671 -0.5369  0.3100
 1018MOL0     O37296   0.723  10.773   4.214 -0.1229 -0.8278 -0.7063
 1018MOL0     C37297   0.638  10.700   4.260  0.1069  0.4780  0.5385
 1018MOL0     O37298   0.640  10.653   4.386  0.1450 -0.1681  0.5877
 1018MOL0     C37299   0.737  10.710   4.473 -0.1284 -0.5205 -0.1175
 1018MOL0     C37300   0.712  10.826   4.539  1.2419  0.2542  1.0350
 1018MOL0     C37301   0.816  10.892   4.596 -0.9231  0.7878  0.4463
 1018MOL0     C37302   0.946  10.838   4.606 -0.2668  0.5021  0.4361
 1018MOL0     O37303   1.063  10.904   4.636 -0.3880  0.1110 -0.5645
 1018MOL0     C37304   1.045  11.026   4.716  0.2583 -0.2252  0.5416
 1018MOL0     C37305   1.183  11.060   4.789  0.6810 -0.3762 -0.6777
 1018MOL0     C37306   1.284  11.112   4.688  0.6793 -0.1964  0.3130
 1018MOL0     C37307   1.385  11.002   4.658 -0.0576  0.3083 -0.4001
 1018MOL0     C37308   1.500  11.051   4.570 -0.5214  0.1087 -0.8912
 1018MOL0     C37309   1.608  10.942   4.565 -0.8809 -0.1870 -0.2007
 1018MOL0     C37310   1.747  10.999   4.532 -0.0594 -0.1133 -0.6313
 1018MOL0     C37311   1.860  10.897   4.558 -0.4331  0.5003 -0.3946
 1018MOL0     N37312   1.993  10.951   4.541  0.1418  0.6288  0.1976
 1018MOL0     C37313   2.052  11.053   4.617 -0.6407 -0.8942  0.0112
 1018MOL0     C37314   2.175  11.067   4.570  0.1065 -0.2283 -0.4207
 1018MOL0     C37315   2.290  11.150   4.631 -0.1274  0.7391  0.4763
 1018MOL0     C37316   2.409  11.057   4.680 -0.2323 -0.9395 -0.0715
 1018MOL0     C37317   2.392  11.016   4.830 -0.6263 -0.4132  0.4233
 1018MOL0     C37318   2.510  10.924   4.877  0.3985 -0.8428 -0.7837
 1018MOL0     O37319   2.627  10.975   4.814  0.1686 -0.0521  0.5908
 1018MOL0     C37320   2.753  10.942   4.848  0.1562 -0.1563 -0.4770
 1018MOL0     C37321   2.789  10.865   4.955 -0.2379  0.7101 -0.0428
 1018MOL0     C37322   2.926  10.831   4.980 -0.0049  0.0006 -0.4023
 1018MOL0     C37323   3.021  10.855   4.882 -0.0082  0.2707 -0.6277
 1018MOL0     C37324   3.162  10.795   4.887 -0.1312 -0.6161 -0.0832
 1018MOL0     O37325   3.258  10.822   4.797 -0.2793 -0.1389 -0.0176
 1018MOL0     C37326   3.385  10.765   4.828  0.4353 -0.1586 -0.2071
 1018MOL0     C37327   3.404  10.631   4.859  0.1887  0.4415 -0.3103
 1018MOL0     C37328   3.538  10.584   4.868 -1.0477  1.1433  0.0549
 1018MOL0     C37329   3.649  10.668   4.845  0.9241  0.0220 -0.2798
 1018MOL0     O37330   3.775  10.612   4.844 -0.6339  0.2074  0.0730
 1018MOL0     C37331   3.892  10.700   4.857  0.4921 -0.5615 -0.4272
 1018MOL0     C37332   4.002  10.621   4.930  0.6652 -0.1057  0.5937
 1018MOL0     C37333   4.129  10.703   4.892  0.4674  0.1239  0.2340
 1018MOL0     C37334   4.244  10.640   4.964  0.0622  0.4778 -1.1135
 1018MOL0     C37335   4.383  10.715   4.946 -1.0394  0.1539  0.1861
 1018MOL0     C37336   4.496  10.629   5.006  0.5050  0.7959  0.0659
 1018MOL0     C37337   4.629  10.705   5.005  0.5050 -0.4837 -0.6068
 1018MOL0     C37338   4.751  10.643   5.072 -0.1229 -0.9435  0.2817
 1018MOL0    Cl37339   4.890  10.740   5.038 -0.0006  0.1340  0.2319
 1018MOL0     C37340   3.621  10.804   4.821  0.3682 -0.8070  0.1307
 1018MOL0     C37341   3.491  10.849   4.808  0.2475  0.2383  0.1286
 1018MOL0     O37342   3.180  10.717   4.982 -0.1400  0.0199  0.0039
 1018MOL0     C37343   2.988  10.940   4.772 -0.2651 -0.1593  0.5094
 1018MOL0     C37344   2.858  10.985   4.758  0.4965  0.5677 -0.4039
 1018MOL0     N37345   2.195  10.976   4.465  0.1086 -0.2925 -0.3181
 1018MOL0     N37346   2.085  10.914   4.448 -0.8142  1.0459 -0.8496
 1018MOL0     C37347   0.958  10.711   4.549  1.0448 -0.0771 -0.3712
 1018MOL0     C37348   0.859  10.647   4.485  0.4501  0.0638  0.6709
 1018MOL0     C37349   0.528  10.647   4.165 -0.6406  0.5506 -0.9539
 1018MOL0     C37350   0.455  10.526   4.207 -0.5488 -0.2506  0.1909
 1018MOL0     C37351   0.348  10.471   4.134 -1.4982  0.2498  0.2574
 1018MOL0     C37352   0.322  10.525   4.011  0.0412  0.2258 -1.0429
 1018MOL0     O37353   0.216  10.477   3.950 -0.1280  0.1034  0.3558
 1018MOL0     C37354   0.196  10.489   3.812 -0.6656 -0.0843  0.6316
 1018MOL0     C37355   0.116  10.618   3.766 -0.4254  0.8213 -0.8534
 1018MOL0     C37356  -0.029  10.630   3.822 -0.3437 -1.0211  0.0811
 1018MOL0     C37357  -0.116  10.516   3.775  0.6114 -0.7700 -0.3590
 1018MOL0     C37358  -0.148  10.536   3.636 -0.2685  0.2821 -0.1027
 1018MOL0     C37359  -0.171  10.525   3.517 -0.1590  0.9115  0.4355
 1018MOL0     C37360   0.407  10.619   3.955 -0.5559  0.0384  0.2498
 1018MOL0     C37361   0.498  10.681   4.034 -1.2201  0.2021 -0.4376
 1018MOL0     C37362   0.556  10.813   3.966 -0.0181  0.3791  0.0324
 1018MOL0     H37363   0.613  10.869   4.540  0.8417 -0.6540  1.9708
 1018MOL0     H37364   0.792  10.990   4.635  0.8975  1.5095 -0.1722
 1018MOL0     H37365   1.005  11.103   4.650  0.2114 -2.4515 -2.1939
 1018MOL0     H37366   0.975  11.008   4.798 -1.8750  0.0965 -1.1123
 1018MOL0     H37367   1.235  10.980   4.843  3.4833  2.8106  1.7346
 1018MOL0     H37368   1.169  11.142   4.859  2.2971 -1.1718  0.6587
 1018MOL0     H37369   1.341  11.191   4.738 -0.5126 -0.3965  2.0599
 1018MOL0     H37370   1.241  11.136   4.590  0.1053 -0.7698  0.4251
 1018MOL0     H37371   1.431  10.967   4.751 -0.4724 -0.1714 -0.3682
 1018MOL0     H37372   1.334  10.922   4.603  0.8968 -0.8025  0.2887
 1018MOL0     H37373   1.465  11.070   4.468  0.2381  0.5951 -1.0628
 1018MOL0     H37374   1.541  11.145   4.607  0.2805 -0.6842  0.2688
 1018MOL0     H37375   1.616  10.897   4.664 -0.8354  0.6309  0.1750
 1018MOL0     H37376   1.573  10.872   4.489 -0.8623 -0.3488 -0.0624
 1018MOL0     H37377   1.758  11.090   4.591 -1.2699 -0.5086  0.2437
 1018MOL0     H37378   1.743  11.017   4.424 -0.7873 -2.5824 -1.0978
 1018MOL0     H37379   1.849  10.870   4.664  3.9822 -0.5208 -0.0248
 1018MOL0     H37380   1.849  10.808   4.495 -1.8385  1.2195 -1.2310
 1018MOL0     H37381   2.031  11.114   4.704  2.3319  0.1017  0.1461
 1018MOL0     H37382   2.335  11.205   4.548  0.2672 -0.7204 -0.3224
 1018MOL0     H37383   2.270  11.223   4.710  2.6870  3.7699 -1.3552
 1018MOL0     H37384   2.422  10.969   4.617  0.9913 -3.6987  3.7036
 1018MOL0     H37385   2.500  11.118   4.669  0.3234 -1.5900  0.7335
 1018MOL0     H37386   2.299  10.959   4.837 -1.3077  0.3536 -1.7894
 1018MOL0     H37387   2.383  11.104   4.894 -1.8473 -0.5243  0.4214
 1018MOL0     H37388   2.481  10.825   4.843  1.2112 -2.1344  2.0191
 1018MOL0     H37389   2.516  10.922   4.986  1.8360  0.0856 -0.8173
 1018MOL0     H37390   2.722  10.834   5.035 -1.7505  1.2412 -1.0429
 1018MOL0     H37391   2.960  10.770   5.063 -3.7322 -2.5411 -0.5574
 1018MOL0     H37392   3.321  10.562   4.846  2.3455 -2.1470 -1.6960
 1018MOL0     H37393   3.561  10.479   4.883  0.8451  1.5923  0.6179
 1018MOL0     H37394   3.929  10.717   4.755 -2.3862 -0.8420 -1.6101
 1018MOL0     H37395   3.873  10.799   4.900  1.3808  0.8294 -3.0259
 1018MOL0     H37396   3.986  10.630   5.037 -1.8968  2.8922  0.1127
 1018MOL0     H37397   4.012  10.518   4.894 -0.4333  0.3695 -1.2330
 1018MOL0     H37398   4.148  10.713   4.785 -0.3370 -1.9284 -0.1497
 1018MOL0     H37399   4.120  10.805   4.929  0.7472 -0.5852  2.3677
 1018MOL0     H37400   4.245  10.537   4.928 -0.7421 -0.4548  1.3658
 1018MOL0     H37401   4.220  10.645   5.070 -2.7931  2.3205 -1.7352
 1018MOL0     H37402   4.369  10.818   4.980 -1.1700 -0.3144  1.6082
 1018MOL0     H37403   4.399  10.713   4.838  0.2505  1.4566  0.3254
 1018MOL0     H37404   4.466  10.601   5.108 -0.0237  1.0827 -0.0056
 1018MOL0     H37405   4.508  10.531   4.959 -2.2672  0.8841 -1.0368
 1018MOL0     H37406   4.617  10.802   5.055 -1.8660 -3.6023  5.8856
 1018MOL0     H37407   4.645  10.727   4.899 -2.9952 -3.1336 -1.8924
 1018MOL0     H37408   4.720  10.648   5.177 -0.5358 -0.7098  0.1480
 1018MOL0     H37409   4.778  10.539   5.053 -0.8093 -0.7440 -2.1293
 1018MOL0     H37410   3.706  10.868   4.800  0.3341 -0.7065  0.3062
 1018MOL0     H37411   3.482  10.952   4.776  0.2796  0.3008  0.3168
 1018MOL0     H37412   3.048  10.962   4.685 -4.1061  0.1795 -2.3210
 1018MOL0     H37413   2.843  11.055   4.676  0.7342 -0.2560 -1.1647
 1018MOL0     H37414   1.052  10.658   4.536  1.8186  0.7437  1.4701
 1018MOL0     H37415   0.864  10.549   4.439  0.1470 -0.6723  2.1475
 1018MOL0     H37416   0.480  10.478   4.301  1.3988  0.3705  0.0325
 1018MOL0     H37417   0.293  10.387   4.175 -0.8815 -0.4429 -0.3042
 1018MOL0     H37418   0.153  10.400   3.766  0.7996  0.7857 -2.7258
 1018MOL0     H37419   0.296  10.496   3.767 -0.8044 -0.2839  0.2938
 1018MOL0     H37420   0.119  10.623   3.657  1.4182  1.1687 -0.8252
 1018MOL0     H37421   0.168  10.705   3.808 -1.0158 -0.1776  2.1657
 1018MOL0     H37422  -0.079  10.724   3.799  0.8123 -0.4623 -0.1922
 1018MOL0     H37423  -0.009  10.620   3.929  0.4206  0.7490  0.1318
 1018MOL0     H37424  -0.058  10.424   3.789  0.3566 -0.5168  3.4374
 1018MOL0     H37425  -0.212  10.515   3.827  0.9268  1.2643  0.3402
 1018MOL0     H37426  -0.206  10.478   3.427 -1.4250 -1.0821  1.8838
 1018MOL0     H37427   0.394  10.651   3.852 -0.7459  0.2076  0.3266
 1018MOL0     H37428   0.665  10.805   3.960 -0.2761 -3.4464 -3.4314
 1018MOL0     H37429   0.515  10.826   3.866 -1.3090 -2.4829  0.0955
 1018MOL0     H37430   0.551  10.901   4.032  3.3645 -0.9259  2.3735
 1019MOL0     O37431   4.031  10.524   4.637  0.4012  0.1922  0.4493
 1019MOL0     C37432   4.008  10.449   4.548  0.6582 -0.5558 -0.0355
 1019MOL0     O37433   4.098  10.348   4.497 -0.2961  0.0012  0.2678
 1019MOL0     C37434   4.232  10.336   4.538  0.0069  0.8681 -0.3257
 1019MOL0     C37435   4.280  10.378   4.651 -0.4060 -0.3975  0.3396
 1019MOL0     C37436   4.418  10.359   4.682  0.6042 -0.0274  0.5027
 1019MOL0     C37437   4.505  10.288   4.597  0.7568 -1.0394  0.1216
 1019MOL0     O37438   4.633  10.268   4.645  0.2534 -1.1940 -0.0995
 1019MOL0     C37439   4.746  10.281   4.555  0.1618 -0.1287  0.2842
 1019MOL0     C37440   4.863  10.233   4.645  1.1021 -0.0608 -0.1110
 1019MOL0     C37441   4.995  10.233   4.572 -0.5252 -0.6387 -0.4786
 1019MOL0     C37442   5.100  10.178   4.659  0.4859 -0.0328  0.4095
 1019MOL0     C37443   5.235  10.235   4.606  0.2072 -0.1259  0.0005
 1019MOL0     C37444   5.348  10.140   4.641  0.3850  0.6110  0.0234
 1019MOL0     C37445   5.480  10.203   4.608 -0.1122  0.2239  0.3404
 1019MOL0     C37446   5.601  10.115   4.633 -0.1438  0.2245 -0.1424
 1019MOL0     N37447   5.727  10.191   4.635  1.4498 -0.6219 -0.3916
 1019MOL0     C37448   5.773  10.235   4.757 -0.1652 -0.7317 -0.3490
 1019MOL0     C37449   5.870  10.320   4.715  0.7565  0.2600 -0.7456
 1019MOL0     C37450   5.955  10.395   4.809 -0.3975 -0.1573 -0.2400
 1019MOL0     C37451   6.067  10.317   4.876  0.9667 -0.2611  1.1025
 1019MOL0     C37452   6.145  10.401   4.972  0.0922  0.3843 -0.2801
 1019MOL0     C37453   6.245  10.308   5.051  1.1849 -1.0245 -0.3761
 1019MOL0     O37454   6.329  10.238   4.962 -0.0463 -0.3472 -0.3845
 1019MOL0     C37455   6.438  10.168   5.014  0.0980 -0.1089 -0.0300
 1019MOL0     C37456   6.430  10.111   5.143 -0.3950  0.2120  1.0327
 1019MOL0     C37457   6.537  10.032   5.190 -0.4178 -0.2345 -0.2026
 1019MOL0     C37458   6.661  10.027   5.114 -0.3669  0.6168 -0.3557
 1019MOL0     C37459   6.771   9.948   5.169 -0.0249  0.2533 -0.9808
 1019MOL0     O37460   6.828   9.854   5.098 -0.1189 -0.7037  0.2229
 1019MOL0     C37461   6.945   9.804   5.152 -0.2028  0.4413  0.7708
 1019MOL0     C37462   7.065   9.871   5.123  0.2381  0.1162 -1.1289
 1019MOL0     C37463   7.179   9.824   5.193 -0.4153  0.3577  0.1054
 1019MOL0     C37464   7.182   9.714   5.278 -0.3534  0.8673 -0.4109
 1019MOL0     O37465   7.303   9.671   5.313 -1.3979  0.0947 -0.1572
 1019MOL0     C37466   7.306   9.591   5.433 -0.0220  0.1208 -0.7412
 1019MOL0     C37467   7.314   9.448   5.413 -0.0356  0.0132  0.6208
 1019MOL0     C37468   7.463   9.387   5.434  0.4739  0.3757  0.5221
 1019MOL0     C37469   7.536   9.436   5.307 -0.0494 -0.5427  0.3368
 1019MOL0     C37470   7.680   9.374   5.293 -0.7847  0.0504 -0.1471
 1019MOL0     C37471   7.684   9.218   5.256  0.4549 -0.4664  0.5609
 1019MOL0     C37472   7.824   9.166   5.258  0.0755  0.7956  0.7351
 1019MOL0     C37473   7.829   9.016   5.222 -0.7747  0.0715  0.4806
 1019MOL0    Cl37474   7.753   8.974   5.065  0.3603 -0.3272 -0.4572
 1019MOL0     C37475   7.059   9.644   5.295 -0.3857  0.3320  0.2573
 1019MOL0     C37476   6.939   9.693   5.236 -0.7040  0.3370  0.0494
 1019MOL0     O37477   6.812   9.995   5.275 -0.9206  0.3141 -0.6947
 1019MOL0     C37478   6.672  10.091   4.990 -0.2656  0.6490 -0.8178
 1019MOL0     C37479   6.562  10.162   4.943  0.4184 -0.6547  0.3232
 1019MOL0     N37480   5.879  10.321   4.576  0.3868  0.1267 -0.3697
 1019MOL0     N37481   5.789  10.240   4.521 -0.1526  0.6559 -0.3632
 1019MOL0     C37482   4.451  10.237   4.479  0.0863 -0.8918  0.7304
 1019MOL0     C37483   4.315  10.261   4.449 -0.1065 -0.4288 -0.4877
 1019MOL0     C37484   3.880  10.468   4.477 -0.3619  0.1944  0.0265
 1019MOL0     C37485   3.759  10.488   4.548 -0.1541  0.2006  0.9144
 1019MOL0     C37486   3.632  10.518   4.480 -1.0445 -0.8289  0.4637
 1019MOL0     C37487   3.622  10.540   4.341 -0.2375  0.3770  0.4037
 1019MOL0     O37488   3.508  10.608   4.288 -0.3786 -0.4114 -0.1694
 1019MOL0     C37489   3.480  10.603   4.147 -0.3128 -0.4146 -0.1919
 1019MOL0     C37490   3.329  10.582   4.135  0.1677 -0.5512 -0.3048
 1019MOL0     C37491   3.286  10.557   3.986 -0.6542 -0.1001  0.4033
 1019MOL0     C37492   3.142  10.523   3.961  0.0318 -0.5534 -0.6615
 1019MOL0     C37493   3.050  10.614   4.024  0.1198 -0.8291  0.7337
 1019MOL0     C37494   2.964  10.685   4.071 -0.4628  0.4055  1.1047
 1019MOL0     C37495   3.745  10.511   4.270 -0.5553  0.6037 -0.0358
 1019MOL0     C37496   3.862  10.474   4.332  1.2092  1.3262  0.4251
 1019MOL0     C37497   3.978  10.459   4.240 -0.4899  0.9168  0.5454
 1019MOL0     H37498   4.213  10.421   4.724  0.8093  3.4770 -0.5879
 1019MOL0     H37499   4.454  10.407   4.773  1.1759  1.0151 -0.2588
 1019MOL0     H37500   4.747  10.237   4.455  1.6346  3.5543 -1.4994
 1019MOL0     H37501   4.765  10.387   4.536 -0.4637  0.0831  0.8177
 1019MOL0     H37502   4.845  10.137   4.695 -1.8420  1.8748  3.0012
 1019MOL0     H37503   4.869  10.301   4.731 -1.2606 -0.6973  0.6219
 1019MOL0     H37504   5.028  10.336   4.553  1.5349 -0.7656  1.9097
 1019MOL0     H37505   5.007  10.184   4.476  0.9618  1.6209 -1.5345
 1019MOL0     H37506   5.089  10.217   4.761  0.0231  3.9343 -0.9841
 1019MOL0     H37507   5.104  10.069   4.668 -2.3492 -0.0141  4.2076
 1019MOL0     H37508   5.234  10.257   4.499  2.1444  2.3173  0.4123
 1019MOL0     H37509   5.259  10.331   4.653  3.7458 -1.0337  0.2559
 1019MOL0     H37510   5.333  10.119   4.747 -0.1270  2.7524  0.4330
 1019MOL0     H37511   5.338  10.044   4.591 -0.8804  0.5084  0.4464
 1019MOL0     H37512   5.504  10.291   4.668  2.6978  0.6988 -1.2773
 1019MOL0     H37513   5.481  10.240   4.505  0.1386 -0.2196  0.1784
 1019MOL0     H37514   5.585  10.059   4.726  0.3166 -1.0955 -0.8256
 1019MOL0     H37515   5.604  10.037   4.556 -1.8023  0.2771 -0.2941
 1019MOL0     H37516   5.741  10.208   4.857 -0.5085 -1.7060 -0.7082
 1019MOL0     H37517   5.996  10.483   4.760  0.6311  0.2764  1.3116
 1019MOL0     H37518   5.890  10.442   4.884  3.7731  3.0282  1.8048
 1019MOL0     H37519   6.015  10.238   4.930  2.7801 -1.8432  0.6541
 1019MOL0     H37520   6.132  10.268   4.804 -2.3182 -3.1479 -0.1709
 1019MOL0     H37521   6.086  10.465   5.037 -1.5735 -1.5553  0.1999
 1019MOL0     H37522   6.208  10.458   4.903  0.7139 -1.1452 -1.0154
 1019MOL0     H37523   6.188  10.237   5.113  1.9977 -2.9702 -1.7592
 1019MOL0     H37524   6.298  10.363   5.129  0.0815 -1.0020  0.3978
 1019MOL0     H37525   6.332  10.125   5.189 -1.4015  1.1932 -1.2543
 1019MOL0     H37526   6.535   9.984   5.288 -1.6156  0.3519  0.0795
 1019MOL0     H37527   7.074   9.957   5.058  0.6366  0.1321 -1.0552
 1019MOL0     H37528   7.267   9.881   5.166 -0.2708  0.2775  0.4060
 1019MOL0     H37529   7.396   9.623   5.486 -0.7146  2.4747 -0.8781
 1019MOL0     H37530   7.227   9.619   5.504  2.3079 -0.8998  2.5034
 1019MOL0     H37531   7.249   9.390   5.480 -0.6079 -2.2067 -1.6805
 1019MOL0     H37532   7.287   9.429   5.308 -1.3162 -0.1325  0.9537
 1019MOL0     H37533   7.519   9.422   5.521  0.6101  1.2684  0.0915
 1019MOL0     H37534   7.462   9.278   5.423 -2.8727  0.4459 -0.9884
 1019MOL0     H37535   7.559   9.543   5.314 -0.8923 -0.2851 -0.6078
 1019MOL0     H37536   7.482   9.434   5.212  1.5007  3.4069 -0.8367
 1019MOL0     H37537   7.732   9.404   5.385 -2.6135 -1.0768  1.3296
 1019MOL0     H37538   7.734   9.416   5.208  0.6051 -2.2367 -0.4773
 1019MOL0     H37539   7.623   9.158   5.325  1.9785  0.7435  3.1063
 1019MOL0     H37540   7.648   9.206   5.153 -0.0966 -1.3204  0.8433
 1019MOL0     H37541   7.865   9.177   5.359 -0.1564  0.2119  0.8938
 1019MOL0     H37542   7.893   9.231   5.203  1.0699  1.1364  2.3045
 1019MOL0     H37543   7.933   8.984   5.209 -1.4188 -3.3149  2.3144
 1019MOL0     H37544   7.799   8.965   5.314  0.6075 -0.7603  0.5076
 1019MOL0     H37545   7.057   9.547   5.342 -1.8150  0.7424  1.0977
 1019MOL0     H37546   6.837   9.658   5.249 -1.6120  3.3067  2.0177
 1019MOL0     H37547   6.766  10.089   4.935 -0.8633 -1.4029 -1.8649
 1019MOL0     H37548   6.565  10.199   4.841  0.4013  0.8709  0.8451
 1019MOL0     H37549   4.506  10.177   4.408  1.6044  1.1257  0.0944
 1019MOL0     H37550   4.275  10.220   4.357  0.1281  0.1250 -0.8364
 1019MOL0     H37551   3.755  10.483   4.656  0.3459 -0.0621  0.9240
 1019MOL0     H37552   3.538  10.526   4.534 -2.2210 -1.2865 -1.4138
 1019MOL0     H37553   3.542  10.530   4.095 -0.8247 -0.7696 -0.3150
 1019MOL0     H37554   3.499  10.701   4.102 -3.2368 -0.3339 -1.5092
 1019MOL0     H37555   3.284  10.673   4.176  2.2326  0.7937 -0.8797
 1019MOL0     H37556   3.290  10.492   4.183 -0.9692 -0.8498 -1.7062
 1019MOL0     H37557   3.342  10.469   3.954 -0.4317 -0.3062  1.3337
 1019MOL0     H37558   3.318  10.638   3.920  2.7070 -1.7675 -0.2456
 1019MOL0     H37559   3.124  10.526   3.853  3.5682 -2.6643 -1.4722
 1019MOL0     H37560   3.118  10.426   4.004  3.4124 -1.5549 -0.7042
 1019MOL0     H37561   2.878  10.745   4.091 -1.2680  0.2744 -1.5179
 1019MOL0     H37562   3.750  10.525   4.162  0.2658  3.6071  0.2985
 1019MOL0     H37563   4.055  10.529   4.274  0.2493  0.0896  0.6079
 1019MOL0     H37564   4.015  10.358   4.260 -0.4617  0.4462 -1.6837
 1019MOL0     H37565   3.958  10.473   4.134  3.4948  3.1899 -0.1153
 1020MOL0     O37566   0.411   1.955   9.540 -0.6376  0.5059 -0.9378
 1020MOL0     C37567   0.319   1.995   9.471  0.1109  0.1322  0.3873
 1020MOL0     O37568   0.326   2.111   9.396 -0.0324  0.7376 -0.4965
 1020MOL0     C37569   0.432   2.190   9.417 -0.5434  0.4213  0.0448
 1020MOL0     C37570   0.457   2.245   9.544  0.2914  0.3193 -0.2544
 1020MOL0     C37571   0.559   2.332   9.563 -0.2495 -0.0534  0.2878
 1020MOL0     C37572   0.640   2.366   9.453  0.3082  0.5942  1.1080
 1020MOL0     O37573   0.741   2.457   9.483  0.4146  0.4578 -0.4863
 1020MOL0     C37574   0.833   2.484   9.375 -0.5265  0.1884 -0.0925
 1020MOL0     C37575   0.979   2.511   9.423 -0.3652 -0.5014  0.3996
 1020MOL0     C37576   1.044   2.388   9.492  0.0132  0.3003 -0.2686
 1020MOL0     C37577   1.185   2.429   9.532  0.1045  0.0114 -0.3862
 1020MOL0     C37578   1.254   2.312   9.601 -0.4311 -0.1298  0.6610
 1020MOL0     C37579   1.379   2.357   9.670 -0.4220  0.0997  0.4088
 1020MOL0     C37580   1.461   2.238   9.714  0.2297  0.2507 -0.3383
 1020MOL0     C37581   1.600   2.268   9.742  0.0846 -0.0690 -0.0871
 1020MOL0     N37582   1.681   2.290   9.628 -0.3754 -0.0634 -1.0777
 1020MOL0     C37583   1.807   2.355   9.638  0.5205  0.1201 -0.0761
 1020MOL0     C37584   1.867   2.331   9.524 -0.6260 -0.0438 -0.0542
 1020MOL0     C37585   2.002   2.371   9.477  1.2762  0.5455  1.0665
 1020MOL0     C37586   2.004   2.518   9.432 -0.0029  0.4519 -0.4848
 1020MOL0     C37587   2.117   2.546   9.328  0.1242  0.3805 -0.4316
 1020MOL0     C37588   2.244   2.596   9.394 -0.1802 -0.5938  0.2612
 1020MOL0     O37589   2.346   2.606   9.291  0.4851  0.1784 -0.2756
 1020MOL0     C37590   2.484   2.599   9.331  0.4742 -0.2796  0.3490
 1020MOL0     C37591   2.537   2.580   9.456  0.1468 -0.1415 -0.2429
 1020MOL0     C37592   2.676   2.562   9.465  0.4877  0.0687  0.2500
 1020MOL0     C37593   2.761   2.557   9.351  0.3887 -0.7444 -0.9433
 1020MOL0     C37594   2.912   2.538   9.361  0.4182 -0.1420  0.5690
 1020MOL0     O37595   2.971   2.513   9.485  0.6027 -0.1221  0.1801
 1020MOL0     C37596   3.107   2.522   9.496 -0.0923 -0.2082 -0.4267
 1020MOL0     C37597   3.169   2.645   9.492  0.0723 -0.3241 -0.1568
 1020MOL0     C37598   3.310   2.648   9.494  0.1841 -0.0640  0.1224
 1020MOL0     C37599   3.392   2.538   9.488  0.4515 -0.0501 -0.3606
 1020MOL0     O37600   3.526   2.535   9.503 -0.1582  0.5155 -0.0568
 1020MOL0     C37601   3.608   2.652   9.520  0.3652 -0.3558  0.1661
 1020MOL0     C37602   3.748   2.627   9.543 -0.6571  0.6847 -0.9680
 1020MOL0     C37603   3.814   2.549   9.427 -0.0986 -0.2425 -0.9781
 1020MOL0     C37604   3.964   2.546   9.448  0.0679  0.1982 -0.2654
 1020MOL0     C37605   4.015   2.467   9.322  1.1752  0.0925 -0.1087
 1020MOL0     C37606   4.157   2.425   9.343  0.0629 -0.4848 -0.5392
 1020MOL0     C37607   4.234   2.365   9.221  0.0538 -0.0720  0.1621
 1020MOL0     C37608   4.386   2.399   9.223  0.6983 -1.2945  0.6147
 1020MOL0    Cl37609   4.451   2.320   9.083  0.4488  0.0510  0.1843
 1020MOL0     C37610   3.321   2.410   9.492 -1.0244 -0.4393  0.5253
 1020MOL0     C37611   3.186   2.405   9.498  0.4100  0.3769  0.3142
 1020MOL0     O37612   2.974   2.535   9.258  0.1472 -0.7529  0.1459
 1020MOL0     C37613   2.701   2.567   9.226  0.1995 -0.2322  0.2496
 1020MOL0     C37614   2.562   2.595   9.215 -0.0829 -0.6245 -0.0054
 1020MOL0     N37615   1.791   2.246   9.445 -0.1853  0.5561 -0.7036
 1020MOL0     N37616   1.677   2.227   9.509  0.5320  0.5008  0.3440
 1020MOL0     C37617   0.608   2.330   9.320  0.3769  0.9685 -0.3951
 1020MOL0     C37618   0.506   2.234   9.305 -0.3827 -0.2442  0.8005
 1020MOL0     C37619   0.186   1.917   9.462 -0.5110  0.2209 -0.1777
 1020MOL0     C37620   0.082   1.984   9.386 -0.8589  0.8997 -0.2579
 1020MOL0     C37621  -0.041   1.927   9.369  0.1970 -0.1775 -0.2725
 1020MOL0     C37622  -0.071   1.812   9.441  0.7554  0.5095 -0.1707
 1020MOL0     O37623  -0.199   1.758   9.455  0.8616 -0.0230  0.3139
 1020MOL0     C37624  -0.298   1.798   9.366 -0.2895  0.1449 -0.3008
 1020MOL0     C37625  -0.376   1.936   9.370 -0.2129 -0.1041 -0.3903
 1020MOL0     C37626  -0.488   1.948   9.266  0.2566  0.9806 -0.5149
 1020MOL0     C37627  -0.560   2.080   9.279  0.7886 -0.4367  0.8962
 1020MOL0     C37628  -0.672   2.091   9.182 -0.2091  0.2546 -0.0701
 1020MOL0     C37629  -0.756   2.083   9.101 -0.0105 -0.7073 -0.7348
 1020MOL0     C37630   0.023   1.749   9.514 -0.0818 -0.3107 -0.0096
 1020MOL0     C37631   0.163   1.787   9.516  0.2726  0.2553 -0.6046
 1020MOL0     C37632   0.271   1.723   9.594 -0.6839  0.1646 -0.9858
 1020MOL0     H37633   0.391   2.228   9.629 -0.4095  1.7532 -0.4855
 1020MOL0     H37634   0.590   2.369   9.660  1.6535  0.7864 -0.6005
 1020MOL0     H37635   0.852   2.387   9.327 -1.5532 -1.0476  1.8600
 1020MOL0     H37636   0.800   2.552   9.296  1.1814  0.5486 -0.5315
 1020MOL0     H37637   0.976   2.590   9.499  3.0497  1.8141 -1.5806
 1020MOL0     H37638   1.050   2.548   9.349 -1.0773  0.2357  0.0843
 1020MOL0     H37639   1.058   2.315   9.412  2.1895  0.3097  0.0633
 1020MOL0     H37640   0.985   2.340   9.570 -1.7917  1.1418 -1.0385
 1020MOL0     H37641   1.252   2.465   9.454 -2.4796 -0.1828 -2.8429
 1020MOL0     H37642   1.174   2.517   9.596  1.3300  1.5632 -2.2298
 1020MOL0     H37643   1.188   2.270   9.678 -2.2152  1.6319  0.1845
 1020MOL0     H37644   1.281   2.242   9.521  1.6949  1.9051 -0.5414
 1020MOL0     H37645   1.441   2.407   9.595 -2.1380  2.0163  0.1850
 1020MOL0     H37646   1.356   2.424   9.753 -2.5176 -1.1861  0.9454
 1020MOL0     H37647   1.470   2.163   9.635 -2.5589 -1.5188  0.8588
 1020MOL0     H37648   1.418   2.189   9.802 -1.5753 -1.4277 -2.0497
 1020MOL0     H37649   1.606   2.359   9.801  0.4753  1.1366 -1.8849
 1020MOL0     H37650   1.649   2.186   9.795 -0.2138 -0.8598 -0.9913
 1020MOL0     H37651   1.847   2.411   9.722 -1.1737 -0.5009  1.2106
 1020MOL0     H37652   2.077   2.361   9.556  0.5679  1.2814  1.8580
 1020MOL0     H37653   2.026   2.313   9.388  0.6918  2.6130 -0.4899
 1020MOL0     H37654   1.909   2.548   9.387 -1.2214 -0.8866  1.0975
 1020MOL0     H37655   2.010   2.578   9.523  0.2810  0.2669 -0.3784
 1020MOL0     H37656   2.080   2.626   9.264 -1.8636  0.2585  0.4948
 1020MOL0     H37657   2.131   2.456   9.267  0.7165 -1.1721  1.8927
 1020MOL0     H37658   2.287   2.517   9.457  1.9314 -0.3387 -0.7616
 1020MOL0     H37659   2.227   2.686   9.454  1.0801  0.5649 -1.0336
 1020MOL0     H37660   2.475   2.576   9.545 -2.2946 -0.0794 -1.8680
 1020MOL0     H37661   2.726   2.563   9.561  0.1819 -1.7833  0.4587
 1020MOL0     H37662   3.118   2.738   9.512  2.3848  1.3588 -1.5549
 1020MOL0     H37663   3.350   2.748   9.510 -1.6241  0.5176  1.3733
 1020MOL0     H37664   3.595   2.695   9.420 -0.1184 -1.8898 -0.4517
 1020MOL0     H37665   3.576   2.719   9.601 -1.0974  0.8547 -1.3285
 1020MOL0     H37666   3.802   2.722   9.550  2.8236 -1.2069  0.9010
 1020MOL0     H37667   3.765   2.575   9.637  3.3323  1.4914 -1.0486
 1020MOL0     H37668   3.771   2.449   9.429  1.1767 -0.8061 -0.5770
 1020MOL0     H37669   3.783   2.607   9.339  4.1071 -0.3146 -2.7965
 1020MOL0     H37670   3.983   2.493   9.542 -1.6946  0.0832  0.0733
 1020MOL0     H37671   4.000   2.649   9.449  1.9773 -0.4230  1.5082
 1020MOL0     H37672   3.993   2.529   9.235 -2.9386  0.8470  1.2782
 1020MOL0     H37673   3.963   2.374   9.301  1.3550 -0.0306 -0.0195
 1020MOL0     H37674   4.217   2.510   9.376 -0.3062 -0.4753  0.1291
 1020MOL0     H37675   4.161   2.356   9.427  0.0134  1.8628  1.5259
 1020MOL0     H37676   4.191   2.394   9.124 -2.0693  2.8767  1.8128
 1020MOL0     H37677   4.220   2.258   9.235  0.5587 -0.1514  0.0474
 1020MOL0     H37678   4.396   2.508   9.217 -2.3287 -0.9939 -0.3005
 1020MOL0     H37679   4.441   2.365   9.312  0.7724  1.5979  1.7813
 1020MOL0     H37680   3.379   2.320   9.500  1.2678  0.8795 -0.4146
 1020MOL0     H37681   3.133   2.311   9.508  0.0812  0.5357  0.0855
 1020MOL0     H37682   2.756   2.565   9.133 -0.3957  2.9223 -0.3109
 1020MOL0     H37683   2.520   2.613   9.116 -0.5237  2.0409  0.5813
 1020MOL0     H37684   0.652   2.380   9.234  1.4301  1.2236  0.2708
 1020MOL0     H37685   0.480   2.205   9.203 -2.0388 -2.9686  1.8860
 1020MOL0     H37686   0.089   2.083   9.342 -1.8265  0.9517 -0.3119
 1020MOL0     H37687  -0.117   1.983   9.315 -0.0395 -0.0883  0.1529
 1020MOL0     H37688  -0.374   1.725   9.395  0.6765 -0.8342 -0.1496
 1020MOL0     H37689  -0.263   1.783   9.263 -2.7084  0.5119 -1.2260
 1020MOL0     H37690  -0.315   2.027   9.362 -1.8281  0.8943 -2.5050
 1020MOL0     H37691  -0.431   1.946   9.463 -4.7121  1.1165 -2.8921
 1020MOL0     H37692  -0.569   1.880   9.294 -0.4319  2.7586  2.1668
 1020MOL0     H37693  -0.437   1.942   9.169  3.1671  0.2639  0.9457
 1020MOL0     H37694  -0.605   2.081   9.379 -1.1886 -1.0286  0.0465
 1020MOL0     H37695  -0.508   2.173   9.255 -1.0566  1.5794  4.0254
 1020MOL0     H37696  -0.848   2.065   9.049 -2.5089 -0.2489  3.1065
 1020MOL0     H37697  -0.008   1.661   9.570  1.3212  0.8782  2.8422
 1020MOL0     H37698   0.286   1.789   9.680 -0.5280 -0.9137 -0.1678
 1020MOL0     H37699   0.232   1.628   9.632 -1.9955  0.8081 -0.6385
 1020MOL0     H37700   0.369   1.709   9.548  0.9731 -1.2708  2.6550
 1021MOL0     O37701   4.176   8.166   2.932  0.4815  0.1816  0.3450
 1021MOL0     C37702   4.116   8.260   2.876 -0.5735 -0.8275  1.2038
 1021MOL0     O37703   4.170   8.381   2.847  0.1008 -0.6481  0.5879
 1021MOL0     C37704   4.294   8.407   2.905 -0.3185  0.1774 -0.0365
 1021MOL0     C37705   4.396   8.423   2.816 -0.9045 -0.3311 -0.2631
 1021MOL0     C37706   4.528   8.464   2.856  0.3758 -0.3721  0.4826
 1021MOL0     C37707   4.557   8.486   2.993 -0.2031 -0.4739 -0.1643
 1021MOL0     O37708   4.679   8.526   3.028  0.6236  0.0004 -0.5813
 1021MOL0     C37709   4.790   8.508   2.943  0.5473 -0.9634 -0.4122
 1021MOL0     C37710   4.924   8.504   3.016  0.5697 -0.2534  0.3575
 1021MOL0     C37711   5.035   8.453   2.925 -0.3641 -0.3612 -0.1806
 1021MOL0     C37712   5.074   8.553   2.812  0.1238 -1.0001  1.0335
 1021MOL0     C37713   5.193   8.511   2.730 -0.4533  0.5744  0.1377
 1021MOL0     C37714   5.227   8.607   2.612  0.9175  0.0752  0.0298
 1021MOL0     C37715   5.361   8.566   2.548  0.3078  0.0053 -0.0198
 1021MOL0     C37716   5.425   8.679   2.477  0.2569 -0.2228  0.7195
 1021MOL0     N37717   5.570   8.624   2.460  0.5391  0.2050 -0.4312
 1021MOL0     C37718   5.613   8.493   2.438  0.8358 -0.5087  0.3310
 1021MOL0     C37719   5.749   8.504   2.443 -0.0923  1.2883 -0.4935
 1021MOL0     C37720   5.840   8.385   2.425  0.3771 -0.6827 -0.1828
 1021MOL0     C37721   5.947   8.398   2.309  0.5806  0.0715  0.4668
 1021MOL0     C37722   6.069   8.471   2.364 -0.4552  0.1046  0.6902
 1021MOL0     C37723   6.191   8.472   2.264 -0.0681  0.2631  0.1844
 1021MOL0     O37724   6.298   8.540   2.331  0.3545 -1.0064  1.7113
 1021MOL0     C37725   6.407   8.531   2.255 -0.5149  0.1060 -0.5945
 1021MOL0     C37726   6.503   8.435   2.281  0.0630  0.0738  0.5265
 1021MOL0     C37727   6.631   8.452   2.239  0.5753  0.7534 -0.3007
 1021MOL0     C37728   6.664   8.555   2.147  0.9631 -0.4453  0.8299
 1021MOL0     C37729   6.804   8.565   2.102  0.2581 -0.1732 -0.1906
 1021MOL0     O37730   6.896   8.491   2.169 -0.3673 -0.1558  0.3183
 1021MOL0     C37731   7.026   8.499   2.125  0.4786  1.1751 -0.9948
 1021MOL0     C37732   7.077   8.430   2.006 -0.9157 -0.5961 -0.5750
 1021MOL0     C37733   7.209   8.445   1.972  0.0032 -0.6350  0.6320
 1021MOL0     C37734   7.309   8.521   2.043 -0.1888 -0.9876  0.0865
 1021MOL0     O37735   7.443   8.519   2.018  0.3633 -0.0819  0.7160
 1021MOL0     C37736   7.496   8.448   1.912 -1.1277  0.3245  1.0366
 1021MOL0     C37737   7.636   8.490   1.889 -0.5695 -0.5204 -1.2063
 1021MOL0     C37738   7.723   8.458   2.008 -0.4563  0.5123  0.0220
 1021MOL0     C37739   7.872   8.464   1.979 -0.2113  0.3326 -0.1145
 1021MOL0     C37740   7.955   8.454   2.107  0.3961 -0.0681  0.4471
 1021MOL0     C37741   8.020   8.318   2.132  0.1020 -0.3628 -0.7454
 1021MOL0     C37742   8.143   8.334   2.222  0.0025  0.5805 -0.4617
 1021MOL0     C37743   8.201   8.201   2.268  0.0269 -0.6411 -0.1997
 1021MOL0    Cl37744   8.321   8.246   2.391  0.3796 -0.1645 -0.0414
 1021MOL0     C37745   7.251   8.600   2.150  0.0311  0.9077  1.2190
 1021MOL0     C37746   7.115   8.586   2.183 -0.4209  0.3320  0.4694
 1021MOL0     O37747   6.829   8.646   2.014 -0.0622 -0.4089 -0.6363
 1021MOL0     C37748   6.558   8.647   2.107 -0.3499  0.5219  1.0633
 1021MOL0     C37749   6.430   8.634   2.160 -1.2894 -0.2553  0.4840
 1021MOL0     N37750   5.780   8.636   2.460  0.0035  0.3678 -0.4412
 1021MOL0     N37751   5.670   8.708   2.477 -0.8344 -0.2385 -1.0103
 1021MOL0     C37752   4.451   8.464   3.079 -0.4688 -0.5267 -0.1744
 1021MOL0     C37753   4.324   8.425   3.041  0.7032  0.0717 -1.0777
 1021MOL0     C37754   3.972   8.248   2.842  0.0104  0.4743  0.3304
 1021MOL0     C37755   3.886   8.357   2.854 -0.0415  0.0288 -1.2101
 1021MOL0     C37756   3.749   8.360   2.830 -0.5939 -0.1209 -0.3727
 1021MOL0     C37757   3.693   8.238   2.776  0.3315 -0.9926 -0.6684
 1021MOL0     O37758   3.565   8.226   2.727  0.9374  0.3609  0.4913
 1021MOL0     C37759   3.465   8.296   2.792  0.3294  0.3506  0.1928
 1021MOL0     C37760   3.332   8.250   2.730  0.2792  0.0421  0.1260
 1021MOL0     C37761   3.209   8.338   2.766  0.1262 -1.2105 -0.0906
 1021MOL0     C37762   3.080   8.286   2.711  0.1763 -0.6327  0.1598
 1021MOL0     C37763   3.050   8.327   2.571  0.7667 -0.6729 -0.5150
 1021MOL0     C37764   3.027   8.367   2.461 -0.1532 -0.0733 -0.7091
 1021MOL0     C37765   3.769   8.122   2.761  1.0285 -1.1054 -0.4748
 1021MOL0     C37766   3.913   8.125   2.792 -0.3572 -0.3379  0.0264
 1021MOL0     C37767   3.997   8.017   2.748  0.4608 -0.3897  0.4802
 1021MOL0     H37768   4.377   8.419   2.709  3.3653  3.9579 -1.5595
 1021MOL0     H37769   4.601   8.463   2.776  2.7900 -0.0953  2.5528
 1021MOL0     H37770   4.777   8.415   2.888 -0.0737 -0.0893 -1.8152
 1021MOL0     H37771   4.783   8.594   2.875 -0.5806  1.2608  2.2922
 1021MOL0     H37772   4.902   8.430   3.094 -0.1640 -0.9984 -0.5348
 1021MOL0     H37773   4.957   8.605   3.041 -1.0607  0.4288 -0.1766
 1021MOL0     H37774   5.000   8.357   2.886 -0.6726 -0.4389  0.2838
 1021MOL0     H37775   5.121   8.439   2.990  0.5699  2.1843 -0.7634
 1021MOL0     H37776   4.990   8.575   2.746  3.0435 -0.3336 -2.7837
 1021MOL0     H37777   5.086   8.653   2.857  0.5955  0.4258 -2.0012
 1021MOL0     H37778   5.281   8.496   2.794 -2.9751 -3.2760  3.1532
 1021MOL0     H37779   5.167   8.412   2.691 -0.2052  0.4224  0.3525
 1021MOL0     H37780   5.144   8.621   2.542  1.5074 -0.3034 -0.7592
 1021MOL0     H37781   5.239   8.707   2.655 -1.3470 -0.0618  1.1214
 1021MOL0     H37782   5.341   8.485   2.477 -1.1639  1.3257 -1.1861
 1021MOL0     H37783   5.423   8.528   2.630  1.0529  1.8709  0.3132
 1021MOL0     H37784   5.369   8.706   2.387  0.8789  5.2543  1.6224
 1021MOL0     H37785   5.425   8.773   2.533 -2.5887 -0.8743  1.9585
 1021MOL0     H37786   5.555   8.404   2.416  0.0082  0.7786 -3.4865
 1021MOL0     H37787   5.889   8.370   2.522 -3.4008 -1.6634  1.7889
 1021MOL0     H37788   5.781   8.297   2.399 -0.9765  0.8742 -2.7781
 1021MOL0     H37789   5.978   8.304   2.262  1.8126 -0.3815  2.1143
 1021MOL0     H37790   5.910   8.463   2.229  3.4482  1.0712 -0.1661
 1021MOL0     H37791   6.110   8.412   2.447  1.1244 -0.2648 -0.2995
 1021MOL0     H37792   6.048   8.575   2.388 -0.0108  0.7807 -1.5936
 1021MOL0     H37793   6.165   8.524   2.171  1.2946 -0.1395 -0.4539
 1021MOL0     H37794   6.224   8.369   2.247 -2.2147 -0.3127 -0.9063
 1021MOL0     H37795   6.500   8.349   2.347  0.3821 -0.9544 -0.7606
 1021MOL0     H37796   6.708   8.384   2.275  3.1853  2.2257 -2.6780
 1021MOL0     H37797   7.006   8.372   1.948  0.3743 -2.8042 -0.0622
 1021MOL0     H37798   7.249   8.389   1.888  1.1245  1.4845 -0.3089
 1021MOL0     H37799   7.488   8.340   1.924 -0.3671 -0.1276 -1.7057
 1021MOL0     H37800   7.442   8.478   1.821  0.2512  1.1807  0.4776
 1021MOL0     H37801   7.675   8.441   1.799 -0.0512 -0.6019 -0.9382
 1021MOL0     H37802   7.639   8.599   1.876 -2.3767 -0.0754  1.3346
 1021MOL0     H37803   7.712   8.531   2.089  0.8607 -0.7930  1.4292
 1021MOL0     H37804   7.694   8.357   2.040  1.5143 -0.6467 -1.6108
 1021MOL0     H37805   7.890   8.556   1.923 -0.1272  0.3141 -0.1190
 1021MOL0     H37806   7.890   8.377   1.914 -0.8386  0.3793 -0.3598
 1021MOL0     H37807   7.896   8.474   2.197  0.5677  1.9373  0.1542
 1021MOL0     H37808   8.038   8.523   2.091 -0.4420  0.0028 -6.3780
 1021MOL0     H37809   7.953   8.252   2.188 -0.5880  0.3588 -0.6968
 1021MOL0     H37810   8.059   8.277   2.039  0.7800  1.4028 -1.2777
 1021MOL0     H37811   8.115   8.395   2.308 -1.4596  0.1405 -0.6005
 1021MOL0     H37812   8.220   8.379   2.159  0.8377 -0.1879 -0.0095
 1021MOL0     H37813   8.122   8.133   2.301  0.8701 -1.1691  0.8187
 1021MOL0     H37814   8.250   8.158   2.180  3.1151  0.9270  0.5960
 1021MOL0     H37815   7.310   8.671   2.206  2.0087  0.5734 -0.3364
 1021MOL0     H37816   7.076   8.656   2.256 -2.7949 -0.4909  0.0565
 1021MOL0     H37817   6.577   8.725   2.034 -2.1389 -1.3090 -1.5299
 1021MOL0     H37818   6.365   8.719   2.143 -0.7754  0.1463  0.4874
 1021MOL0     H37819   4.480   8.477   3.183 -1.6883 -1.1780  0.2680
 1021MOL0     H37820   4.256   8.403   3.123  0.5297  2.0987 -0.6161
 1021MOL0     H37821   3.935   8.448   2.886  1.4985 -0.9480 -0.6752
 1021MOL0     H37822   3.683   8.443   2.852 -0.8045 -0.6529  1.1384
 1021MOL0     H37823   3.474   8.404   2.778 -1.7835  0.3465 -1.8450
 1021MOL0     H37824   3.468   8.274   2.899 -2.2455 -1.7069 -0.0514
 1021MOL0     H37825   3.317   8.145   2.754 -0.0582 -0.1162 -0.7227
 1021MOL0     H37826   3.344   8.251   2.621  2.4304 -1.5342  0.2997
 1021MOL0     H37827   3.224   8.438   2.723  2.1118 -0.3854  2.3067
 1021MOL0     H37828   3.197   8.335   2.874 -0.0688 -0.2000 -0.0767
 1021MOL0     H37829   3.062   8.181   2.737 -0.3204 -0.7823 -0.7418
 1021MOL0     H37830   2.997   8.341   2.756 -0.2667  1.3287 -2.7339
 1021MOL0     H37831   3.012   8.414   2.366  1.2981 -1.1506 -1.5183
 1021MOL0     H37832   3.714   8.043   2.710 -2.7247  0.5489  0.6056
 1021MOL0     H37833   4.036   7.965   2.836 -1.7194 -3.0684 -0.0010
 1021MOL0     H37834   3.929   7.954   2.690 -1.9945  2.5433 -0.1249
 1021MOL0     H37835   4.076   8.054   2.683  2.0610  0.0806  2.5865
 1022MOL0     O37836   3.270   2.854   5.407  0.0168 -0.2389 -0.2831
 1022MOL0     C37837   3.271   2.974   5.438  0.2168  0.1924  0.0715
 1022MOL0     O37838   3.375   3.061   5.408 -0.6113 -0.0228 -0.2209
 1022MOL0     C37839   3.505   3.007   5.427  0.1354 -0.9619  0.1453
 1022MOL0     C37840   3.593   2.991   5.316  0.8208  1.0345 -0.0491
 1022MOL0     C37841   3.724   2.946   5.329  0.2414  0.2360 -0.4158
 1022MOL0     C37842   3.780   2.926   5.459  0.4286  1.0826  0.4052
 1022MOL0     O37843   3.906   2.887   5.461  0.2688 -0.1396 -0.6383
 1022MOL0     C37844   3.931   2.768   5.539  0.1970 -0.1544  0.1705
 1022MOL0     C37845   4.029   2.683   5.461  0.1431  0.0697 -0.4531
 1022MOL0     C37846   3.981   2.623   5.336 -0.6306  0.1569 -0.7095
 1022MOL0     C37847   4.095   2.550   5.261 -0.5501 -0.2578 -0.4467
 1022MOL0     C37848   4.043   2.465   5.152 -0.3928  0.2051 -0.6582
 1022MOL0     C37849   4.163   2.444   5.060 -0.0085 -0.3563 -0.6641
 1022MOL0     C37850   4.118   2.354   4.949  0.1336 -0.1045 -0.2000
 1022MOL0     C37851   4.226   2.339   4.843  0.0615  1.2109  0.0099
 1022MOL0     N37852   4.362   2.306   4.887 -0.7204  0.2218 -0.0325
 1022MOL0     C37853   4.452   2.405   4.933 -0.3129  0.2410  0.3222
 1022MOL0     C37854   4.570   2.348   4.934  0.1299  0.4907 -0.9986
 1022MOL0     C37855   4.710   2.419   4.964 -0.1517 -0.2649  0.1187
 1022MOL0     C37856   4.820   2.315   4.990 -0.6526  0.5477  0.8943
 1022MOL0     C37857   4.881   2.282   4.856 -0.5536  0.3230  0.6603
 1022MOL0     C37858   4.991   2.174   4.870 -0.0413  0.1026  0.0506
 1022MOL0     O37859   5.066   2.183   4.745 -0.0334 -0.0229  0.5484
 1022MOL0     C37860   5.186   2.117   4.733  0.3453  0.3526 -0.0910
 1022MOL0     C37861   5.250   2.029   4.821  0.3260  0.0183  0.0261
 1022MOL0     C37862   5.369   1.962   4.783  0.2931 -0.5356  0.2170
 1022MOL0     C37863   5.431   1.981   4.662 -0.2300  0.8966  0.4222
 1022MOL0     C37864   5.538   1.886   4.625 -0.3750 -0.2000  0.3323
 1022MOL0     O37865   5.607   1.809   4.711  0.9453  0.1899  0.0877
 1022MOL0     C37866   5.723   1.757   4.676 -0.2109  0.2062  0.2560
 1022MOL0     C37867   5.843   1.794   4.747  0.0466  1.0173 -1.3367
 1022MOL0     C37868   5.959   1.725   4.728  0.0733 -0.2468 -1.2349
 1022MOL0     C37869   5.958   1.630   4.626 -0.1094  0.5837 -0.0545
 1022MOL0     O37870   6.074   1.554   4.604 -0.6853 -0.6091  0.8372
 1022MOL0     C37871   6.183   1.548   4.700  0.2226  0.0524  0.2382
 1022MOL0     C37872   6.295   1.449   4.654 -1.1671 -0.2389  0.1711
 1022MOL0     C37873   6.409   1.456   4.749 -0.3242  0.8759 -0.0210
 1022MOL0     C37874   6.532   1.421   4.667 -0.3066  0.4090 -0.3902
 1022MOL0     C37875   6.660   1.408   4.753 -0.1146 -0.7697 -0.0122
 1022MOL0     C37876   6.762   1.304   4.703  0.0398  0.3625 -0.6163
 1022MOL0     C37877   6.908   1.325   4.763 -0.5567 -0.4392 -0.3603
 1022MOL0     C37878   7.015   1.241   4.701  0.0058  0.7043  0.0770
 1022MOL0    Cl37879   7.161   1.291   4.783  0.3405  0.0363  0.2803
 1022MOL0     C37880   5.847   1.598   4.556 -0.0058 -0.1257  0.0867
 1022MOL0     C37881   5.731   1.661   4.573  0.2284 -0.3804  0.1206
 1022MOL0     O37882   5.576   1.899   4.506 -0.5617  0.5872 -0.5334
 1022MOL0     C37883   5.375   2.077   4.580 -0.0949  0.1756  0.0172
 1022MOL0     C37884   5.250   2.143   4.619 -0.1741 -0.6112  0.1389
 1022MOL0     N37885   4.552   2.220   4.887 -0.0934 -0.0278  0.2450
 1022MOL0     N37886   4.429   2.193   4.862 -0.0341 -0.1466 -0.0286
 1022MOL0     C37887   3.695   2.945   5.573 -0.3881 -0.3823 -0.0711
 1022MOL0     C37888   3.567   2.988   5.552  0.2531 -0.3546 -0.5382
 1022MOL0     C37889   3.167   3.017   5.526 -0.0182 -0.0586  0.9922
 1022MOL0     C37890   3.196   3.088   5.643  1.1765  0.1264  0.3520
 1022MOL0     C37891   3.092   3.120   5.734 -0.3854 -0.2258 -0.7537
 1022MOL0     C37892   2.955   3.091   5.711  1.0967 -0.0867 -0.1008
 1022MOL0     O37893   2.866   3.146   5.807  0.1304 -0.2234  0.5621
 1022MOL0     C37894   2.724   3.150   5.774  0.4120 -0.3155  0.2870
 1022MOL0     C37895   2.649   3.166   5.904 -0.4583  0.9503  0.2393
 1022MOL0     C37896   2.506   3.191   5.861 -0.9770 -0.3845 -0.6357
 1022MOL0     C37897   2.427   3.225   5.978  1.2791  0.3294  0.3763
 1022MOL0     C37898   2.404   3.102   6.049 -1.1594  1.2467 -0.3283
 1022MOL0     C37899   2.376   2.997   6.111 -0.2350 -1.3045  0.2768
 1022MOL0     C37900   2.931   3.033   5.585  0.2482 -0.2499  0.4661
 1022MOL0     C37901   3.032   2.990   5.501 -0.4482  0.1129  0.9235
 1022MOL0     C37902   2.993   2.909   5.380  0.1971 -0.3483  0.8996
 1022MOL0     H37903   3.555   3.002   5.215 -1.9810  1.0078  0.9113
 1022MOL0     H37904   3.788   2.942   5.241  1.7892  2.7992  0.4527
 1022MOL0     H37905   3.975   2.800   5.634 -0.8265  2.7948 -0.2393
 1022MOL0     H37906   3.840   2.713   5.563 -0.0774  0.4062  0.4419
 1022MOL0     H37907   4.052   2.596   5.523 -2.3260 -0.0729  0.3468
 1022MOL0     H37908   4.119   2.743   5.445 -0.8994  2.7815  2.7985
 1022MOL0     H37909   3.949   2.707   5.273  0.2086  2.3146  1.5729
 1022MOL0     H37910   3.903   2.548   5.350 -1.8371  0.8731 -3.0561
 1022MOL0     H37911   4.166   2.629   5.235  1.8887 -1.9785  0.6540
 1022MOL0     H37912   4.161   2.488   5.321  2.3055  1.2506 -1.8087
 1022MOL0     H37913   3.992   2.372   5.179 -0.0193  0.0853 -0.3633
 1022MOL0     H37914   3.968   2.520   5.093  0.7744  1.4173 -1.0784
 1022MOL0     H37915   4.177   2.547   5.028  1.2722 -0.4220 -0.3536
 1022MOL0     H37916   4.244   2.403   5.122 -2.1493  0.5622  3.0473
 1022MOL0     H37917   4.024   2.394   4.911  0.1466  2.1983  1.9791
 1022MOL0     H37918   4.100   2.255   4.993 -1.1854 -0.7492 -2.0427
 1022MOL0     H37919   4.195   2.251   4.786  1.7163 -0.9843  2.2608
 1022MOL0     H37920   4.231   2.421   4.771  1.3881  0.7922 -0.4167
 1022MOL0     H37921   4.436   2.507   4.965 -1.4794 -0.1791  1.1689
 1022MOL0     H37922   4.736   2.498   4.893 -2.1519 -0.6096 -1.0810
 1022MOL0     H37923   4.685   2.469   5.058 -1.7621  1.1232 -0.9809
 1022MOL0     H37924   4.897   2.361   5.052  0.5671 -0.9591  0.5502
 1022MOL0     H37925   4.784   2.225   5.041 -3.7982  0.5852 -0.9422
 1022MOL0     H37926   4.922   2.371   4.808  0.6691 -0.1273  0.8286
 1022MOL0     H37927   4.795   2.240   4.804 -0.4875  1.9727 -0.8630
 1022MOL0     H37928   4.952   2.074   4.889 -0.1316  0.3412  1.1440
 1022MOL0     H37929   5.053   2.207   4.953 -0.5739  1.8038 -0.1914
 1022MOL0     H37930   5.210   2.011   4.920 -0.1020  0.2602 -0.1037
 1022MOL0     H37931   5.416   1.896   4.854  4.4627  1.8043 -0.0795
 1022MOL0     H37932   5.835   1.869   4.825  1.5167  1.8512 -1.9540
 1022MOL0     H37933   6.047   1.737   4.790 -2.0489  0.1327  1.9537
 1022MOL0     H37934   6.236   1.644   4.701  1.0800 -0.4076 -0.7205
 1022MOL0     H37935   6.151   1.523   4.802  0.2163  1.8486  0.7143
 1022MOL0     H37936   6.265   1.344   4.644  1.6654 -0.9547 -1.8396
 1022MOL0     H37937   6.322   1.484   4.554 -0.7325 -0.1232  0.3287
 1022MOL0     H37938   6.422   1.554   4.796 -2.0808  0.9853  0.3198
 1022MOL0     H37939   6.389   1.373   4.819  0.4364  1.1248  0.5045
 1022MOL0     H37940   6.553   1.496   4.591 -1.0562 -0.3457 -1.3826
 1022MOL0     H37941   6.507   1.327   4.616 -2.5089  0.9038 -0.3559
 1022MOL0     H37942   6.636   1.371   4.853 -1.6241  0.3934  0.0942
 1022MOL0     H37943   6.717   1.502   4.764  1.1586 -1.3191 -1.5712
 1022MOL0     H37944   6.727   1.206   4.735  0.6478  0.6221  0.9115
 1022MOL0     H37945   6.755   1.309   4.594 -1.3772  3.4367 -0.4861
 1022MOL0     H37946   6.910   1.309   4.872 -2.0075 -3.7257 -0.6958
 1022MOL0     H37947   6.943   1.427   4.746 -1.4028 -0.2037 -0.7428
 1022MOL0     H37948   7.002   1.132   4.705  0.4821  0.4172 -3.2543
 1022MOL0     H37949   7.010   1.263   4.594  1.5943 -4.4458 -1.3561
 1022MOL0     H37950   5.854   1.528   4.473  0.2018 -0.5479  0.4559
 1022MOL0     H37951   5.641   1.636   4.518  0.1119 -1.4757  0.7823
 1022MOL0     H37952   5.409   2.086   4.477 -1.7880  4.4703 -0.3700
 1022MOL0     H37953   5.198   2.197   4.540  0.2517 -0.9234 -0.3660
 1022MOL0     H37954   3.732   2.926   5.673 -3.3447  0.6677  1.3376
 1022MOL0     H37955   3.506   3.007   5.640  0.9043 -2.1272  0.3581
 1022MOL0     H37956   3.291   3.122   5.683  0.1533  2.3537  1.0870
 1022MOL0     H37957   3.117   3.174   5.824 -0.9803 -0.5447 -0.3958
 1022MOL0     H37958   2.680   3.062   5.725 -1.6235  1.6245 -1.6250
 1022MOL0     H37959   2.700   3.230   5.703 -0.8323 -0.5626  0.4141
 1022MOL0     H37960   2.688   3.250   5.963  1.7507  0.3127 -0.2511
 1022MOL0     H37961   2.662   3.072   5.957  1.3493  2.2916  2.3310
 1022MOL0     H37962   2.465   3.107   5.804  1.5324 -1.4857 -0.9215
 1022MOL0     H37963   2.512   3.284   5.804  0.5879  1.8603  2.8237
 1022MOL0     H37964   2.464   3.301   6.047  1.2178  0.0579  0.7147
 1022MOL0     H37965   2.325   3.259   5.958  1.0770 -0.4728  0.0016
 1022MOL0     H37966   2.364   2.900   6.156  0.2063 -2.2085 -1.4575
 1022MOL0     H37967   2.830   3.007   5.557 -0.3035  1.2979  0.9020
 1022MOL0     H37968   2.890   2.940   5.357 -0.7322 -2.5029  1.9507
 1022MOL0     H37969   3.041   2.923   5.283 -3.1125  0.3148 -0.8070
 1022MOL0     H37970   3.005   2.802   5.396  0.3840 -0.1007  2.5612
 1023MOL0     O37971   6.632   0.773   2.645  0.0234  0.2131 -0.9897
 1023MOL0     C37972   6.604   0.850   2.737  0.1962 -0.3318 -0.1737
 1023MOL0     O37973   6.646   0.833   2.871  0.7532 -0.5554  0.2977
 1023MOL0     C37974   6.745   0.741   2.892 -0.1257  0.0857 -0.1764
 1023MOL0     C37975   6.875   0.786   2.906  0.5094  0.7836  0.1241
 1023MOL0     C37976   6.983   0.701   2.918 -0.2901  0.1136  0.0995
 1023MOL0     C37977   6.957   0.562   2.939 -0.2278 -0.1508  0.3940
 1023MOL0     O37978   7.070   0.492   2.975  0.6817  0.1473 -0.3318
 1023MOL0     C37979   7.162   0.468   2.863  0.2208  0.0083 -1.0238
 1023MOL0     C37980   7.288   0.563   2.854  0.5185  0.2215 -0.9083
 1023MOL0     C37981   7.366   0.593   2.981 -0.8413 -0.1457 -0.1310
 1023MOL0     C37982   7.429   0.737   2.965 -0.3062  0.5319 -0.7035
 1023MOL0     C37983   7.527   0.761   3.086  0.5192 -0.3405  0.0923
 1023MOL0     C37984   7.658   0.688   3.062 -0.1393 -0.5541 -1.3816
 1023MOL0     C37985   7.763   0.731   3.170  0.2816  0.1776  0.2496
 1023MOL0     C37986   7.763   0.651   3.294 -0.3110 -0.6533  0.2416
 1023MOL0     N37987   7.892   0.669   3.358 -0.1763 -0.1811 -0.6100
 1023MOL0     C37988   8.001   0.581   3.366 -0.1463  0.0637 -0.0717
 1023MOL0     C37989   8.090   0.644   3.445  0.0150 -0.2466 -0.5991
 1023MOL0     C37990   8.223   0.599   3.490 -0.6376  0.3454  1.0062
 1023MOL0     C37991   8.321   0.714   3.530 -0.0821 -0.1553  0.0635
 1023MOL0     C37992   8.446   0.655   3.594  0.3427 -0.7378 -0.1773
 1023MOL0     C37993   8.551   0.755   3.628  0.0867  0.2707  0.2634
 1023MOL0     O37994   8.651   0.681   3.697  0.1970  0.3314  0.1631
 1023MOL0     C37995   8.757   0.760   3.734 -0.9802 -0.5663 -0.3736
 1023MOL0     C37996   8.857   0.696   3.800  0.4260  0.1173  0.2964
 1023MOL0     C37997   8.984   0.753   3.823  0.2038 -0.2965 -0.4242
 1023MOL0     C37998   9.006   0.888   3.796 -0.4234  0.4410 -0.1077
 1023MOL0     C37999   9.141   0.962   3.818 -0.3393 -0.0688  0.5138
 1023MOL0     O38000   9.260   0.895   3.845 -0.2533 -0.4962  0.2566
 1023MOL0     C38001   9.388   0.968   3.866  0.4026  0.6413  0.3257
 1023MOL0     C38002   9.476   0.898   3.943  0.4893 -0.4290  0.0277
 1023MOL0     C38003   9.595   0.954   3.977 -0.1450 -0.2062 -0.3214
 1023MOL0     C38004   9.631   1.086   3.930  0.8002  0.2305 -0.0312
 1023MOL0     O38005   9.751   1.143   3.967 -0.2635  0.3038  0.8125
 1023MOL0     C38006   9.854   1.076   4.033 -0.2218 -0.7753  0.8970
 1023MOL0     C38007   9.991   1.146   4.012  0.3250  0.3841 -0.1542
 1023MOL0     C38008   9.997   1.287   4.073 -0.7431  0.2572 -0.7646
 1023MOL0     C38009  10.136   1.347   4.068  0.2831 -0.5583 -0.1913
 1023MOL0     C38010  10.139   1.497   4.111  1.0990  0.0669  0.6207
 1023MOL0     C38011  10.284   1.548   4.089 -0.2191  0.2806 -0.0446
 1023MOL0     C38012  10.295   1.695   4.042  0.4134  0.0321  0.9295
 1023MOL0     C38013  10.427   1.756   4.008  0.0183  0.0265 -0.2505
 1023MOL0    Cl38014  10.396   1.926   3.941 -0.1278 -0.3120 -0.3097
 1023MOL0     C38015   9.546   1.152   3.847  0.1670 -0.9200  0.9329
 1023MOL0     C38016   9.424   1.093   3.813  0.3340  0.3411 -1.2258
 1023MOL0     O38017   9.124   1.083   3.829  0.3861 -0.1565 -0.3186
 1023MOL0     C38018   8.901   0.962   3.737  0.2436 -0.2154  0.3617
 1023MOL0     C38019   8.778   0.898   3.706 -0.6817  0.5965  0.4558
 1023MOL0     N38020   8.029   0.767   3.488 -0.2003  0.2010  0.2616
 1023MOL0     N38021   7.918   0.781   3.432 -0.3696  0.7476  0.2591
 1023MOL0     C38022   6.823   0.510   2.944  0.5822 -0.3435 -0.4901
 1023MOL0     C38023   6.724   0.601   2.920  0.5067  0.1461  0.7723
 1023MOL0     C38024   6.523   0.974   2.694  0.1093  0.6307  0.1962
 1023MOL0     C38025   6.456   1.048   2.793  0.2528  0.7053 -0.3473
 1023MOL0     C38026   6.366   1.151   2.764 -0.1504 -0.5454 -0.1036
 1023MOL0     C38027   6.361   1.203   2.634  0.0451 -0.8650  0.2541
 1023MOL0     O38028   6.272   1.310   2.621 -0.2004 -0.1454  0.5891
 1023MOL0     C38029   6.239   1.348   2.483 -0.3116  0.0751  0.4253
 1023MOL0     C38030   6.122   1.458   2.476  0.8909  0.3140 -0.3242
 1023MOL0     C38031   5.992   1.384   2.508 -0.1679 -0.2242  0.4906
 1023MOL0     C38032   5.863   1.475   2.514  0.4286 -0.5466 -0.6327
 1023MOL0     C38033   5.750   1.398   2.579  0.2368  0.8821 -0.1088
 1023MOL0     C38034   5.665   1.338   2.638 -0.2638  0.5121  0.0238
 1023MOL0     C38035   6.429   1.132   2.530  0.4963  0.5809  0.4514
 1023MOL0     C38036   6.510   1.018   2.555  0.7670 -0.4242 -0.1840
 1023MOL0     C38037   6.588   0.966   2.440 -0.2496  0.0840  0.6085
 1023MOL0     H38038   6.898   0.891   2.887 -0.3905  0.7226 -1.5119
 1023MOL0     H38039   7.080   0.749   2.921  0.7628 -1.9108 -0.0239
 1023MOL0     H38040   7.207   0.370   2.876 -1.5237 -1.2137 -3.4411
 1023MOL0     H38041   7.110   0.485   2.768 -0.8984 -0.8581 -0.5779
 1023MOL0     H38042   7.244   0.656   2.817  0.2450  0.9944  1.2228
 1023MOL0     H38043   7.351   0.526   2.773  2.1954  2.2894 -0.6493
 1023MOL0     H38044   7.444   0.519   3.000  0.6033  1.1211 -0.9308
 1023MOL0     H38045   7.288   0.594   3.058 -0.5654  0.5753  0.1572
 1023MOL0     H38046   7.490   0.753   2.875  0.4272  0.3044 -0.2574
 1023MOL0     H38047   7.354   0.816   2.969  1.6501  2.4161  1.0225
 1023MOL0     H38048   7.552   0.866   3.102 -1.7134  0.2051  0.2429
 1023MOL0     H38049   7.475   0.725   3.175 -0.1844  1.0265  0.2575
 1023MOL0     H38050   7.649   0.579   3.066 -1.2014 -0.4641  1.5070
 1023MOL0     H38051   7.705   0.720   2.969  2.2835  3.7891  0.9625
 1023MOL0     H38052   7.754   0.839   3.185  1.2398  0.1893  0.7830
 1023MOL0     H38053   7.865   0.720   3.132 -0.0811  0.6353 -0.8903
 1023MOL0     H38054   7.675   0.683   3.351 -2.0265 -2.0209 -1.4810
 1023MOL0     H38055   7.755   0.542   3.281 -1.7868 -0.5868  0.3319
 1023MOL0     H38056   8.006   0.487   3.311 -0.0163  1.5888 -2.8845
 1023MOL0     H38057   8.213   0.526   3.571  2.5169 -1.8100 -0.3240
 1023MOL0     H38058   8.249   0.554   3.394 -3.4201  0.5094  0.0897
 1023MOL0     H38059   8.345   0.756   3.432  3.1251 -1.1355  0.3134
 1023MOL0     H38060   8.279   0.788   3.599  0.1231  1.1005 -1.1030
 1023MOL0     H38061   8.483   0.585   3.517 -0.2813 -0.5637 -0.6434
 1023MOL0     H38062   8.418   0.604   3.687 -4.1100  1.0854 -0.2799
 1023MOL0     H38063   8.513   0.838   3.689 -0.5392  1.1536 -1.2673
 1023MOL0     H38064   8.583   0.802   3.535  1.0960  0.6836  0.8114
 1023MOL0     H38065   8.845   0.592   3.829  3.1884 -0.4451 -0.3700
 1023MOL0     H38066   9.059   0.695   3.878  2.8379  2.2866 -1.0315
 1023MOL0     H38067   9.448   0.800   3.980  1.4999 -0.5404  0.5324
 1023MOL0     H38068   9.666   0.893   4.032  3.2375  1.2167 -2.7892
 1023MOL0     H38069   9.828   1.069   4.139 -0.8315 -0.4957  0.7711
 1023MOL0     H38070   9.864   0.973   3.999  3.2098 -0.7805  1.5689
 1023MOL0     H38071  10.062   1.078   4.061  0.6726 -0.2918 -1.5399
 1023MOL0     H38072  10.009   1.158   3.905 -1.1450  0.2112 -0.4328
 1023MOL0     H38073   9.928   1.360   4.030 -0.1915  3.6991  3.5199
 1023MOL0     H38074   9.959   1.288   4.175 -0.9224  1.7096 -0.8243
 1023MOL0     H38075  10.167   1.348   3.963 -3.2100 -1.8479 -1.3695
 1023MOL0     H38076  10.205   1.294   4.135  1.5580  1.6872  0.3844
 1023MOL0     H38077  10.116   1.501   4.217 -0.8540 -0.0013  0.2396
 1023MOL0     H38078  10.071   1.557   4.049 -1.5154 -2.3644  0.9399
 1023MOL0     H38079  10.345   1.534   4.179 -1.2077  2.5096  1.0741
 1023MOL0     H38080  10.327   1.481   4.015 -1.9934 -2.6093  1.3519
 1023MOL0     H38081  10.254   1.759   4.121  0.3105 -0.0773  0.9638
 1023MOL0     H38082  10.227   1.690   3.956  0.1837 -1.4609  1.1725
 1023MOL0     H38083  10.494   1.753   4.094 -0.5585  2.0670  0.3250
 1023MOL0     H38084  10.458   1.698   3.920 -2.8797 -0.8823 -0.7714
 1023MOL0     H38085   9.568   1.248   3.803 -0.3016 -1.9738 -1.7961
 1023MOL0     H38086   9.362   1.163   3.758  1.4482  1.4487 -1.1175
 1023MOL0     H38087   8.912   1.066   3.705 -1.3169 -0.0504  0.2913
 1023MOL0     H38088   8.707   0.959   3.650 -2.5716 -0.5786  1.4788
 1023MOL0     H38089   6.798   0.407   2.965 -2.4471 -0.2218 -2.7978
 1023MOL0     H38090   6.623   0.562   2.913  1.5114 -2.5674  0.0199
 1023MOL0     H38091   6.475   1.032   2.899  2.3188 -0.7267 -0.8466
 1023MOL0     H38092   6.312   1.201   2.844 -2.4791 -1.1127 -1.2578
 1023MOL0     H38093   6.206   1.264   2.422 -1.0477 -0.3036  1.3044
 1023MOL0     H38094   6.327   1.393   2.436 -1.5047  1.3386 -0.6972
 1023MOL0     H38095   6.106   1.502   2.377  1.9077 -0.2794 -0.7659
 1023MOL0     H38096   6.141   1.540   2.545  0.4370 -0.9086  1.3037
 1023MOL0     H38097   6.003   1.326   2.601  3.4796 -1.2971 -0.4465
 1023MOL0     H38098   5.965   1.311   2.431 -3.0386 -0.4496  1.5917
 1023MOL0     H38099   5.875   1.566   2.573 -0.0772  1.2896 -3.2044
 1023MOL0     H38100   5.834   1.505   2.413  0.8901 -0.1219 -0.6447
 1023MOL0     H38101   5.589   1.282   2.687 -2.2274  1.0499 -2.2245
 1023MOL0     H38102   6.409   1.165   2.429 -3.1949 -1.6971  0.2504
 1023MOL0     H38103   6.556   0.865   2.410 -0.1922  0.1862  0.1978
 1023MOL0     H38104   6.570   1.024   2.349 -1.6961 -1.3135 -0.0518
 1023MOL0     H38105   6.694   0.958   2.466 -0.0198  0.4224 -0.2045
 1024MOL0     O38106  10.179   7.157   0.096  0.5452  0.2908  0.3442
 1024MOL0     C38107  10.073   7.143   0.163  0.0611 -0.6977  0.5961
 1024MOL0     O38108  10.026   7.024   0.219  0.5816  0.4648 -0.0696
 1024MOL0     C38109  10.098   6.908   0.195 -0.1982  0.4388  0.1068
 1024MOL0     C38110  10.129   6.828   0.308  0.1041 -0.4823 -0.0935
 1024MOL0     C38111  10.216   6.715   0.293 -0.1093  0.6285 -0.1300
 1024MOL0     C38112  10.289   6.690   0.172  0.1859  0.1037 -0.8801
 1024MOL0     O38113  10.364   6.582   0.148  0.2134 -0.0573  0.1487
 1024MOL0     C38114  10.436   6.522   0.255  0.3226  0.3397  0.7489
 1024MOL0     C38115  10.519   6.405   0.213 -0.1974  0.4907 -1.0658
 1024MOL0     C38116  10.644   6.445   0.150 -0.0957 -0.6936 -0.3591
 1024MOL0     C38117  10.742   6.507   0.252 -0.3561 -0.0209  0.4015
 1024MOL0     C38118  10.888   6.502   0.196  0.1162 -0.1331  1.1193
 1024MOL0     C38119  10.898   6.569   0.067  0.6860  0.7979  0.1792
 1024MOL0     C38120  11.044   6.573   0.018 -0.1326 -0.0953 -0.5374
 1024MOL0     C38121  11.125   6.667   0.110  0.3670 -0.4235  0.0925
 1024MOL0     N38122  11.264   6.689   0.057  0.0326  0.2421 -0.6361
 1024MOL0     C38123  11.352   6.596   0.021 -1.1472 -0.3711  0.2932
 1024MOL0     C38124  11.476   6.653   0.003  0.2075 -0.2010  0.5912
 1024MOL0     C38125  11.595   6.586  -0.053 -0.3825 -0.3201  0.1312
 1024MOL0     C38126  11.728   6.626   0.006  0.1804  0.4114 -0.3437
 1024MOL0     C38127  11.846   6.590  -0.080 -0.4719  0.3615 -0.1129
 1024MOL0     C38128  11.965   6.652  -0.008 -0.2935 -0.4623 -0.2119
 1024MOL0     O38129  12.089   6.584  -0.022 -0.8448 -0.2888  0.2873
 1024MOL0     C38130  12.199   6.640   0.031 -0.0628 -0.6836 -0.4594
 1024MOL0     C38131  12.319   6.577  -0.012  0.0711 -1.5069  1.3328
 1024MOL0     C38132  12.440   6.619   0.039 -0.3844  0.1238 -0.3705
 1024MOL0     C38133  12.443   6.734   0.136 -0.3650 -0.3492 -0.4714
 1024MOL0     C38134  12.568   6.793   0.177 -0.0953 -0.1985 -0.0329
 1024MOL0     O38135  12.671   6.774   0.085  0.3584  0.4608  0.4628
 1024MOL0     C38136  12.792   6.825   0.105 -1.2329  0.4764  0.0735
 1024MOL0     C38137  12.910   6.750   0.090  0.2460 -0.4552  0.6220
 1024MOL0     C38138  13.035   6.820   0.097 -0.0840 -0.8783 -0.1641
 1024MOL0     C38139  13.042   6.958   0.117  0.4554  0.1334  0.4279
 1024MOL0     O38140  13.169   7.013   0.121  0.8801  0.3999 -0.4906
 1024MOL0     C38141  13.193   7.122   0.203  0.7542 -0.6111 -0.0548
 1024MOL0     C38142  13.343   7.154   0.214  1.2946  0.7766  0.2831
 1024MOL0     C38143  13.427   7.037   0.263  0.2092 -0.1356  0.1437
 1024MOL0     C38144  13.587   7.068   0.273 -0.3432 -0.0576 -0.9594
 1024MOL0     C38145  13.642   6.933   0.310  0.2641  0.7033 -0.5121
 1024MOL0     C38146  13.786   6.944   0.346 -0.4114 -0.3131 -0.6007
 1024MOL0     C38147  13.848   6.809   0.373  0.8791 -1.1313  0.0887
 1024MOL0     C38148  13.997   6.807   0.382 -0.0247  0.1694 -0.1421
 1024MOL0    Cl38149  14.055   6.636   0.431 -0.0006 -0.4049  0.1163
 1024MOL0     C38150  12.927   7.039   0.127  0.3205  1.0933 -0.0255
 1024MOL0     C38151  12.805   6.970   0.118  0.0906  0.2944 -0.1555
 1024MOL0     O38152  12.570   6.868   0.273 -0.5774  0.4094 -0.4061
 1024MOL0     C38153  12.319   6.783   0.176  0.0036 -0.3488 -0.1372
 1024MOL0     C38154  12.195   6.733   0.132 -0.1847 -0.1833 -0.3208
 1024MOL0     N38155  11.464   6.780   0.049 -0.0382  0.0114  0.5074
 1024MOL0     N38156  11.341   6.801   0.079  0.0210  0.0458 -0.5637
 1024MOL0     C38157  10.245   6.762   0.061 -0.2032  0.5371  0.0093
 1024MOL0     C38158  10.151   6.868   0.066 -0.4985  0.2638  0.0865
 1024MOL0     C38159   9.976   7.249   0.167 -0.7174 -0.4439 -0.9428
 1024MOL0     C38160   9.840   7.220   0.178 -0.0762  0.0627 -0.6132
 1024MOL0     C38161   9.739   7.309   0.183  0.2116  0.2092  0.1189
 1024MOL0     C38162   9.769   7.447   0.192  0.2922  0.2142 -1.0287
 1024MOL0     O38163   9.675   7.547   0.201  0.5671 -0.6039 -0.2822
 1024MOL0     C38164   9.539   7.510   0.214  0.1918  0.6714 -0.0949
 1024MOL0     C38165   9.493   7.464   0.070 -0.1456 -0.7974  0.0590
 1024MOL0     C38166   9.339   7.441   0.064  0.2765  0.5080 -0.5745
 1024MOL0     C38167   9.292   7.313   0.139 -0.4566  0.0175  0.5475
 1024MOL0     C38168   9.231   7.339   0.275  0.6706 -0.1567  0.0652
 1024MOL0     C38169   9.190   7.362   0.389 -0.4831  0.3033  0.0420
 1024MOL0     C38170   9.902   7.479   0.173  0.2168 -0.4109  0.8861
 1024MOL0     C38171  10.008   7.383   0.148 -0.0176 -0.7606  0.5696
 1024MOL0     C38172  10.138   7.446   0.111 -0.2669 -0.2273 -0.0743
 1024MOL0     H38173  10.089   6.844   0.407 -0.3966 -0.4703 -0.2948
 1024MOL0     H38174  10.241   6.668   0.387 -0.6238 -0.7763 -0.6712
 1024MOL0     H38175  10.487   6.597   0.317 -0.1569  1.4395 -0.1525
 1024MOL0     H38176  10.363   6.486   0.329  2.5188  1.6128  3.7431
 1024MOL0     H38177  10.466   6.338   0.145  2.2663 -1.0008 -1.6574
 1024MOL0     H38178  10.555   6.345   0.296  0.6075 -1.6202 -2.8315
 1024MOL0     H38179  10.620   6.504   0.061  1.7115 -0.5196 -0.7811
 1024MOL0     H38180  10.687   6.354   0.107 -1.4207 -1.2768 -0.4763
 1024MOL0     H38181  10.704   6.607   0.274  1.7406  1.1897 -1.2280
 1024MOL0     H38182  10.749   6.450   0.345 -0.6598 -1.3530 -0.3697
 1024MOL0     H38183  10.949   6.560   0.267  1.2110  0.4344 -0.2341
 1024MOL0     H38184  10.929   6.402   0.184  2.9217  0.7885  2.1350
 1024MOL0     H38185  10.836   6.518  -0.008  1.7001  1.8221 -1.4176
 1024MOL0     H38186  10.864   6.673   0.069 -2.6262 -0.1516 -0.7195
 1024MOL0     H38187  11.048   6.599  -0.088 -1.1220 -0.1875 -0.6095
 1024MOL0     H38188  11.089   6.477   0.043  1.3972  0.8080  0.3350
 1024MOL0     H38189  11.074   6.764   0.113 -1.5783 -1.2969 -1.9285
 1024MOL0     H38190  11.143   6.621   0.208  3.9538  0.8592  0.2165
 1024MOL0     H38191  11.328   6.491   0.030 -1.0867 -0.2950  1.5364
 1024MOL0     H38192  11.577   6.479  -0.037 -1.3356  0.1809  3.1825
 1024MOL0     H38193  11.594   6.611  -0.159 -0.2622 -1.9293 -0.2833
 1024MOL0     H38194  11.719   6.735   0.003 -1.0796  0.3000 -1.7936
 1024MOL0     H38195  11.747   6.601   0.111 -2.5281  2.6626  0.8160
 1024MOL0     H38196  11.832   6.622  -0.184 -0.4664 -1.7826 -0.8251
 1024MOL0     H38197  11.858   6.482  -0.094  0.3863  0.4050  0.2233
 1024MOL0     H38198  11.949   6.651   0.100  0.6752  3.0251  0.0854
 1024MOL0     H38199  11.978   6.756  -0.038 -1.0683 -0.9385 -2.3686
 1024MOL0     H38200  12.321   6.514  -0.100 -3.9076  1.3999 -1.1570
 1024MOL0     H38201  12.529   6.572  -0.002 -1.0834 -1.9138  0.3368
 1024MOL0     H38202  12.916   6.645   0.066  2.9051 -0.1761 -0.2702
 1024MOL0     H38203  13.125   6.763   0.074  1.3908  0.5729  1.6982
 1024MOL0     H38204  13.137   7.210   0.170  1.0605 -0.4429 -0.1267
 1024MOL0     H38205  13.158   7.100   0.305 -0.6294  0.2153 -0.3185
 1024MOL0     H38206  13.373   7.185   0.113  0.0284 -0.8966 -0.6646
 1024MOL0     H38207  13.363   7.240   0.277 -0.0657  1.1043  0.3110
 1024MOL0     H38208  13.399   7.009   0.365  1.2427 -1.0376  0.2015
 1024MOL0     H38209  13.412   6.948   0.201  0.2054 -0.3871  0.5061
 1024MOL0     H38210  13.614   7.143   0.348 -1.2574  0.8714 -1.5349
 1024MOL0     H38211  13.628   7.095   0.175  0.4783 -2.6539 -1.4161
 1024MOL0     H38212  13.627   6.870   0.222  0.1247  2.3833 -1.7447
 1024MOL0     H38213  13.591   6.895   0.399  2.3777 -0.8677  0.0950
 1024MOL0     H38214  13.830   6.995   0.260 -1.7295 -0.2967 -1.2914
 1024MOL0     H38215  13.799   7.006   0.435  0.9371 -0.2448 -0.8284
 1024MOL0     H38216  13.822   6.745   0.288 -1.2841  0.4656 -0.5481
 1024MOL0     H38217  13.817   6.768   0.469  2.6153 -0.7615  0.8495
 1024MOL0     H38218  14.044   6.843   0.290 -1.3099  1.1821 -0.4271
 1024MOL0     H38219  14.031   6.874   0.461 -1.1801  2.3507 -1.4092
 1024MOL0     H38220  12.930   7.148   0.126 -0.4590  1.1473 -2.1546
 1024MOL0     H38221  12.722   7.036   0.138  1.3163  1.4811  1.2990
 1024MOL0     H38222  12.322   6.871   0.239 -1.3428  0.2189 -0.8088
 1024MOL0     H38223  12.113   6.789   0.176  0.2986  0.0221  0.3282
 1024MOL0     H38224  10.278   6.737  -0.039  0.4230 -1.4226  0.6675
 1024MOL0     H38225  10.107   6.916  -0.021  2.0904 -4.2266 -4.2266
 1024MOL0     H38226   9.792   7.125   0.200 -0.3767 -0.0695 -1.7707
 1024MOL0     H38227   9.634   7.279   0.192  0.8745 -2.9507 -1.2788
 1024MOL0     H38228   9.476   7.598   0.231 -3.9307 -1.6112 -2.0900
 1024MOL0     H38229   9.514   7.436   0.291 -1.8038  2.1319  0.7525
 1024MOL0     H38230   9.547   7.377   0.033  1.6687  0.9410 -1.5947
 1024MOL0     H38231   9.500   7.550   0.002  0.5972 -2.0941 -1.5678
 1024MOL0     H38232   9.307   7.421  -0.038  3.4192  2.6987 -2.1386
 1024MOL0     H38233   9.281   7.526   0.102 -0.2444  1.1983 -2.7775
 1024MOL0     H38234   9.214   7.256   0.088 -0.6901  0.9540 -0.1807
 1024MOL0     H38235   9.377   7.245   0.133  0.0258  0.7002 -0.7722
 1024MOL0     H38236   9.152   7.394   0.484  1.3921  0.3994  0.8047
 1024MOL0     H38237   9.938   7.581   0.176  0.3751 -0.4920  2.1085
 1024MOL0     H38238  10.139   7.546   0.155 -2.8642 -0.6023  1.0126
 1024MOL0     H38239  10.219   7.385   0.153 -1.8811  0.3533  4.4566
 1024MOL0     H38240  10.147   7.475   0.007  1.0001  2.7438  0.7712
  11.31357  11.31357  11.31357
